Ne    ONCVPSP  r_core=  1.31  1.71
10.0000      8.0000      151027    zatom,zion,pspd
8      11   1     4   400     0    pspcod,pspxc,lmax,lloc,mmax,r2well
3.99000000  0.00000000  0.00000000    rchrg fchrg qchrg
2     2     0     0     0    nproj
1                 extension_switch
0                         2.4402396174946D+00 -4.8821383912481D-01
1  0.0000000000000D+00  1.1019779533328D-09  4.4245933306097D-10
2  1.0000000000000D-02  8.2856884279019D-02  1.0772167814621D-02
3  2.0000000000000D-02  1.6554852105314D-01  2.1652624639609D-02
4  3.0000000000000D-02  2.4790888372480D-01  3.2748607144492D-02
5  4.0000000000000D-02  3.2977040761959D-01  4.4165257874309D-02
6  5.0000000000000D-02  4.1096327093503D-01  5.6004604466654D-02
7  6.0000000000000D-02  4.9131473488148D-01  6.8364570086640D-02
8  7.0000000000000D-02  5.7064856143620D-01  8.1338024960892D-02
9  8.0000000000000D-02  6.4878452602931D-01  9.5011888449199D-02
10  9.0000000000000D-02  7.2553804112879D-01  1.0946629054863D-01
11  1.0000000000000D-01  8.0071990510730D-01  1.2477380108574D-01
12  1.1000000000000D-01  8.7413618897567D-01  1.4099873412504D-01
13  1.2000000000000D-01  9.4558827157910D-01  1.5819653431396D-01
14  1.3000000000000D-01  1.0148730316978D+00  1.7641325100581D-01
15  1.4000000000000D-01  1.0817832031995D+00  1.9568510506103D-01
16  1.5000000000000D-01  1.1461078969868D+00  2.1603815223544D-01
17  1.6000000000000D-01  1.2076332909993D+00  2.3748804603184D-01
18  1.7000000000000D-01  1.2661434869946D+00  2.6003990183028D-01
19  1.8000000000000D-01  1.3214215302853D+00  2.8368826303398D-01
20  1.9000000000000D-01  1.3732505860732D+00  3.0841716888490D-01
21  2.0000000000000D-01  1.4214152635361D+00  3.3420032252577D-01
22  2.1000000000000D-01  1.4657030764194D+00  3.6100135682806D-01
23  2.2000000000000D-01  1.5059060265887D+00  3.8877419447744D-01
24  2.3000000000000D-01  1.5418222948486D+00  4.1746349782264D-01
25  2.4000000000000D-01  1.5732580213541D+00  4.4700520306046D-01
26  2.5000000000000D-01  1.6000291561540D+00  4.7732713245932D-01
27  2.6000000000000D-01  1.6219633588467D+00  5.0834967752619D-01
28  2.7000000000000D-01  1.6389019250087D+00  5.3998654530525D-01
29  2.8000000000000D-01  1.6507017160043D+00  5.7214555936923D-01
30  2.9000000000000D-01  1.6572370680080D+00  6.0472950653381D-01
31  3.0000000000000D-01  1.6584016555889D+00  6.3763701989542D-01
32  3.1000000000000D-01  1.6541102850272D+00  6.7076348847056D-01
33  3.2000000000000D-01  1.6443005926596D+00  7.0400198350183D-01
34  3.3000000000000D-01  1.6289346239885D+00  7.3724419139504D-01
35  3.4000000000000D-01  1.6080002700398D+00  7.7038134326447D-01
36  3.5000000000000D-01  1.5815125385005D+00  8.0330513118843D-01
37  3.6000000000000D-01  1.5495146385206D+00  8.3590860151371D-01
38  3.7000000000000D-01  1.5120788596859D+00  8.6808701589232D-01
39  3.8000000000000D-01  1.4693072275728D+00  8.9973867118231D-01
40  3.9000000000000D-01  1.4213319204325D+00  9.3076566989274D-01
41  4.0000000000000D-01  1.3683154339269D+00  9.6107463349232D-01
42  4.1000000000000D-01  1.3104504834050D+00  9.9057735162667D-01
43  4.2000000000000D-01  1.2479596359510D+00  1.0191913610905D+00
44  4.3000000000000D-01  1.1810946673164D+00  1.0468404492693D+00
45  4.4000000000000D-01  1.1101356418420D+00  1.0734550776913D+00
46  4.5000000000000D-01  1.0353897165421D+00  1.0989727223010D+00
47  4.6000000000000D-01  9.5718967363101D-01  1.1233381280736D+00
48  4.7000000000000D-01  8.7589218888239D-01  1.1465034766183D+00
49  4.8000000000000D-01  7.9187584629251D-01  1.1684284664587D+00
50  4.9000000000000D-01  7.0553891252702D-01  1.1890803067208D+00
51  5.0000000000000D-01  6.1729688753644D-01  1.2084336259810D+00
52  5.1000000000000D-01  5.2757985049006D-01  1.2264702990327D+00
53  5.2000000000000D-01  4.3682962276865D-01  1.2431791952909D+00
54  5.3000000000000D-01  3.4549677213897D-01  1.2585558534706D+00
55  5.4000000000000D-01  2.5403748438116D-01  1.2726020880340D+00
56  5.5000000000000D-01  1.6291033052222D-01  1.2853255336848D+00
57  5.6000000000000D-01  7.2572959420057D-02  1.2967391349024D+00
58  5.7000000000000D-01 -1.6521253273926D-02  1.3068605881265D+00
59  5.8000000000000D-01 -1.0392656779676D-01  1.3157117447336D+00
60  5.9000000000000D-01 -1.8920822201561D-01  1.3233179833747D+00
61  6.0000000000000D-01 -2.7194571939378D-01  1.3297075605633D+00
62  6.1000000000000D-01 -3.5173603045949D-01  1.3349109486185D+00
63  6.2000000000000D-01 -4.2819667552943D-01  1.3389601701675D+00
64  6.3000000000000D-01 -5.0096865728550D-01  1.3418881383979D+00
65  6.4000000000000D-01 -5.6971921299973D-01  1.3437280121286D+00
66  6.5000000000000D-01 -6.3414435774985D-01  1.3445125745255D+00
67  6.6000000000000D-01 -6.9397119185621D-01  1.3442736439481D+00
68  6.7000000000000D-01 -7.4895994796475D-01  1.3430415249552D+00
69  6.8000000000000D-01 -7.9890575569407D-01  1.3408445069563D+00
70  6.9000000000000D-01 -8.4364010453333D-01  1.3377084173423D+00
71  7.0000000000000D-01 -8.8303198867797D-01  1.3336562352089D+00
72  7.1000000000000D-01 -9.1698872069757D-01  1.3287077709757D+00
73  7.2000000000000D-01 -9.4545640431961D-01  1.3228794163370D+00
74  7.3000000000000D-01 -9.6842006013618D-01  1.3161839680472D+00
75  7.4000000000000D-01 -9.8590340165617D-01  1.3086305280753D+00
76  7.5000000000000D-01 -9.9796826280367D-01  1.3002244816546D+00
77  7.6000000000000D-01 -1.0047136816630D+00  1.2909675537252D+00
78  7.7000000000000D-01 -1.0062746489220D+00  1.2808579432363D+00
79  7.8000000000000D-01 -1.0028205330865D+00  1.2698905337377D+00
80  7.9000000000000D-01 -9.9455319801497D-01  1.2580571776790D+00
81  8.0000000000000D-01 -9.8170483166763D-01  1.2453470508487D+00
82  8.1000000000000D-01 -9.6453550811787D-01  1.2317470724427D+00
83  8.2000000000000D-01 -9.4333050779703D-01  1.2172423853600D+00
84  8.3000000000000D-01 -9.1839742361025D-01  1.2018168904988D+00
85  8.4000000000000D-01 -8.9006308293136D-01  1.1854538280759D+00
86  8.5000000000000D-01 -8.5867031753345D-01  1.1681363983222D+00
87  8.6000000000000D-01 -8.2457461521254D-01  1.1498484133403D+00
88  8.7000000000000D-01 -7.8814068819263D-01  1.1305749714290D+00
89  8.8000000000000D-01 -7.4973899434376D-01  1.1103031448201D+00
90  8.9000000000000D-01 -7.0974224778816D-01  1.0890226715125D+00
91  9.0000000000000D-01 -6.6852195560341D-01  1.0667266417542D+00
92  9.1000000000000D-01 -6.2644501705259D-01  1.0434121696952D+00
93  9.2000000000000D-01 -5.8387042108035D-01  1.0190810408346D+00
94  9.3000000000000D-01 -5.4114607671623D-01  9.9374032609917D-01
95  9.4000000000000D-01 -4.9860580953264D-01  9.6740295371592D-01
96  9.5000000000000D-01 -4.5656655543454D-01  9.4008823048868D-01
97  9.6000000000000D-01 -4.1532578080117D-01  9.1182230463723D-01
98  9.7000000000000D-01 -3.7515915546085D-01  8.8263856300291D-01
99  9.8000000000000D-01 -3.3631850207785D-01  8.5257795617191D-01
100  9.9000000000000D-01 -2.9903004235543D-01  8.2168924590082D-01
101  1.0000000000000D+00 -2.6349295707954D-01  7.9002917012767D-01
102  1.0100000000000D+00 -2.2987827340727D-01  7.5766252182415D-01
103  1.0200000000000D+00 -1.9832808904811D-01  7.2466213896322D-01
104  1.0300000000000D+00 -1.6895513901525D-01  6.9110880396190D-01
105  1.0400000000000D+00 -1.4184270681122D-01  6.5709105200812D-01
106  1.0500000000000D+00 -1.1704487778699D-01  6.2270488882204D-01
107  1.0600000000000D+00 -9.4587128426537D-02  5.8805341951295D-01
108  1.0700000000000D+00 -7.4467241469088D-02  5.5324639126677D-01
109  1.0800000000000D+00 -5.6656532843832D-02  5.1839965370617D-01
110  1.0900000000000D+00 -4.1101372870163D-02  4.8363454175950D-01
111  1.1000000000000D+00 -2.7724980685938D-02  4.4907718686359D-01
112  1.1100000000000D+00 -1.6429467449481D-02  4.1485776329849D-01
113  1.1200000000000D+00 -7.0981011272648D-03  3.8110967723382D-01
114  1.1300000000000D+00  4.0223718139052D-04  3.4796870688784D-01
115  1.1400000000000D+00  6.2184373429626D-03  3.1557210275057D-01
116  1.1500000000000D+00  1.0508419220334D-02  2.8405765756186D-01
117  1.1600000000000D+00  1.3438302226582D-02  2.5356275605285D-01
118  1.1700000000000D+00  1.5179522242677D-02  2.2422341482909D-01
119  1.1800000000000D+00  1.5905933508344D-02  1.9617332300205D-01
120  1.1900000000000D+00  1.5790933465317D-02  1.6954289429847D-01
121  1.2000000000000D+00  1.5004648057959D-02  1.4445834125097D-01
122  1.2100000000000D+00  1.3711214722929D-02  1.2104078200560D-01
123  1.2200000000000D+00  1.2066199302471D-02  9.9405390010665D-02
124  1.2300000000000D+00  1.0214181256470D-02  7.9660596328843D-02
125  1.2400000000000D+00  8.2865398369713D-03  6.1907353832744D-02
126  1.2500000000000D+00  6.3994725719527D-03  4.6238472174744D-02
127  1.2600000000000D+00  4.6522732101032D-03  3.2738031230935D-02
128  1.2700000000000D+00  3.1266506583145D-03  2.1485443697000D-02
129  1.2800000000000D+00  1.8821091715719D-03  1.2534001764314D-02
130  1.2900000000000D+00  9.5330243812454D-04  5.9070554429980D-03
131  1.3000000000000D+00  4.0120971749821D-04  1.8404788807233D-03
132  1.3100000000000D+00  1.7046709488531D-04  1.2642522863348D-04
133  1.3200000000000D+00  5.3914633139747D-05 -1.4617425594280D-04
134  1.3300000000000D+00 -5.5388266376690D-06  2.4713435247562D-05
135  1.3400000000000D+00 -4.8888162793109D-06  2.8624120663273D-05
136  1.3500000000000D+00  2.2758963218455D-06 -8.4345073576230D-06
137  1.3600000000000D+00 -1.5044921398990D-08  1.2458123321244D-09
138  1.3700000000000D+00 -3.6840781978106D-07  3.0506440875466D-08
139  1.3800000000000D+00  0.0000000000000D+00  0.0000000000000D+00
140  1.3900000000000D+00  0.0000000000000D+00  0.0000000000000D+00
141  1.4000000000000D+00  0.0000000000000D+00  0.0000000000000D+00
142  1.4100000000000D+00  0.0000000000000D+00  0.0000000000000D+00
143  1.4200000000000D+00  0.0000000000000D+00  0.0000000000000D+00
144  1.4300000000000D+00  0.0000000000000D+00  0.0000000000000D+00
145  1.4400000000000D+00  0.0000000000000D+00  0.0000000000000D+00
146  1.4500000000000D+00  0.0000000000000D+00  0.0000000000000D+00
147  1.4600000000000D+00  0.0000000000000D+00  0.0000000000000D+00
148  1.4700000000000D+00  0.0000000000000D+00  0.0000000000000D+00
149  1.4800000000000D+00  0.0000000000000D+00  0.0000000000000D+00
150  1.4900000000000D+00  0.0000000000000D+00  0.0000000000000D+00
151  1.5000000000000D+00  0.0000000000000D+00  0.0000000000000D+00
152  1.5100000000000D+00  0.0000000000000D+00  0.0000000000000D+00
153  1.5200000000000D+00  0.0000000000000D+00  0.0000000000000D+00
154  1.5300000000000D+00  0.0000000000000D+00  0.0000000000000D+00
155  1.5400000000000D+00  0.0000000000000D+00  0.0000000000000D+00
156  1.5500000000000D+00  0.0000000000000D+00  0.0000000000000D+00
157  1.5600000000000D+00  0.0000000000000D+00  0.0000000000000D+00
158  1.5700000000000D+00  0.0000000000000D+00  0.0000000000000D+00
159  1.5800000000000D+00  0.0000000000000D+00  0.0000000000000D+00
160  1.5900000000000D+00  0.0000000000000D+00  0.0000000000000D+00
161  1.6000000000000D+00  0.0000000000000D+00  0.0000000000000D+00
162  1.6100000000000D+00  0.0000000000000D+00  0.0000000000000D+00
163  1.6200000000000D+00  0.0000000000000D+00  0.0000000000000D+00
164  1.6300000000000D+00  0.0000000000000D+00  0.0000000000000D+00
165  1.6400000000000D+00  0.0000000000000D+00  0.0000000000000D+00
166  1.6500000000000D+00  0.0000000000000D+00  0.0000000000000D+00
167  1.6600000000000D+00  0.0000000000000D+00  0.0000000000000D+00
168  1.6700000000000D+00  0.0000000000000D+00  0.0000000000000D+00
169  1.6800000000000D+00  0.0000000000000D+00  0.0000000000000D+00
170  1.6900000000000D+00  0.0000000000000D+00  0.0000000000000D+00
171  1.7000000000000D+00  0.0000000000000D+00  0.0000000000000D+00
172  1.7100000000000D+00  0.0000000000000D+00  0.0000000000000D+00
173  1.7200000000000D+00  0.0000000000000D+00  0.0000000000000D+00
174  1.7300000000000D+00  0.0000000000000D+00  0.0000000000000D+00
175  1.7400000000000D+00  0.0000000000000D+00  0.0000000000000D+00
176  1.7500000000000D+00  0.0000000000000D+00  0.0000000000000D+00
177  1.7600000000000D+00  0.0000000000000D+00  0.0000000000000D+00
178  1.7700000000000D+00  0.0000000000000D+00  0.0000000000000D+00
179  1.7800000000000D+00  0.0000000000000D+00  0.0000000000000D+00
180  1.7900000000000D+00  0.0000000000000D+00  0.0000000000000D+00
181  1.8000000000000D+00  0.0000000000000D+00  0.0000000000000D+00
182  1.8100000000000D+00  0.0000000000000D+00  0.0000000000000D+00
183  1.8200000000000D+00  0.0000000000000D+00  0.0000000000000D+00
184  1.8300000000000D+00  0.0000000000000D+00  0.0000000000000D+00
185  1.8400000000000D+00  0.0000000000000D+00  0.0000000000000D+00
186  1.8500000000000D+00  0.0000000000000D+00  0.0000000000000D+00
187  1.8600000000000D+00  0.0000000000000D+00  0.0000000000000D+00
188  1.8700000000000D+00  0.0000000000000D+00  0.0000000000000D+00
189  1.8800000000000D+00  0.0000000000000D+00  0.0000000000000D+00
190  1.8900000000000D+00  0.0000000000000D+00  0.0000000000000D+00
191  1.9000000000000D+00  0.0000000000000D+00  0.0000000000000D+00
192  1.9100000000000D+00  0.0000000000000D+00  0.0000000000000D+00
193  1.9200000000000D+00  0.0000000000000D+00  0.0000000000000D+00
194  1.9300000000000D+00  0.0000000000000D+00  0.0000000000000D+00
195  1.9400000000000D+00  0.0000000000000D+00  0.0000000000000D+00
196  1.9500000000000D+00  0.0000000000000D+00  0.0000000000000D+00
197  1.9600000000000D+00  0.0000000000000D+00  0.0000000000000D+00
198  1.9700000000000D+00  0.0000000000000D+00  0.0000000000000D+00
199  1.9800000000000D+00  0.0000000000000D+00  0.0000000000000D+00
200  1.9900000000000D+00  0.0000000000000D+00  0.0000000000000D+00
201  2.0000000000000D+00  0.0000000000000D+00  0.0000000000000D+00
202  2.0100000000000D+00  0.0000000000000D+00  0.0000000000000D+00
203  2.0200000000000D+00  0.0000000000000D+00  0.0000000000000D+00
204  2.0300000000000D+00  0.0000000000000D+00  0.0000000000000D+00
205  2.0400000000000D+00  0.0000000000000D+00  0.0000000000000D+00
206  2.0500000000000D+00  0.0000000000000D+00  0.0000000000000D+00
207  2.0600000000000D+00  0.0000000000000D+00  0.0000000000000D+00
208  2.0700000000000D+00  0.0000000000000D+00  0.0000000000000D+00
209  2.0800000000000D+00  0.0000000000000D+00  0.0000000000000D+00
210  2.0900000000000D+00  0.0000000000000D+00  0.0000000000000D+00
211  2.1000000000000D+00  0.0000000000000D+00  0.0000000000000D+00
212  2.1100000000000D+00  0.0000000000000D+00  0.0000000000000D+00
213  2.1200000000000D+00  0.0000000000000D+00  0.0000000000000D+00
214  2.1300000000000D+00  0.0000000000000D+00  0.0000000000000D+00
215  2.1400000000000D+00  0.0000000000000D+00  0.0000000000000D+00
216  2.1500000000000D+00  0.0000000000000D+00  0.0000000000000D+00
217  2.1600000000000D+00  0.0000000000000D+00  0.0000000000000D+00
218  2.1700000000000D+00  0.0000000000000D+00  0.0000000000000D+00
219  2.1800000000000D+00  0.0000000000000D+00  0.0000000000000D+00
220  2.1900000000000D+00  0.0000000000000D+00  0.0000000000000D+00
221  2.2000000000000D+00  0.0000000000000D+00  0.0000000000000D+00
222  2.2100000000000D+00  0.0000000000000D+00  0.0000000000000D+00
223  2.2200000000000D+00  0.0000000000000D+00  0.0000000000000D+00
224  2.2300000000000D+00  0.0000000000000D+00  0.0000000000000D+00
225  2.2400000000000D+00  0.0000000000000D+00  0.0000000000000D+00
226  2.2500000000000D+00  0.0000000000000D+00  0.0000000000000D+00
227  2.2600000000000D+00  0.0000000000000D+00  0.0000000000000D+00
228  2.2700000000000D+00  0.0000000000000D+00  0.0000000000000D+00
229  2.2800000000000D+00  0.0000000000000D+00  0.0000000000000D+00
230  2.2900000000000D+00  0.0000000000000D+00  0.0000000000000D+00
231  2.3000000000000D+00  0.0000000000000D+00  0.0000000000000D+00
232  2.3100000000000D+00  0.0000000000000D+00  0.0000000000000D+00
233  2.3200000000000D+00  0.0000000000000D+00  0.0000000000000D+00
234  2.3300000000000D+00  0.0000000000000D+00  0.0000000000000D+00
235  2.3400000000000D+00  0.0000000000000D+00  0.0000000000000D+00
236  2.3500000000000D+00  0.0000000000000D+00  0.0000000000000D+00
237  2.3600000000000D+00  0.0000000000000D+00  0.0000000000000D+00
238  2.3700000000000D+00  0.0000000000000D+00  0.0000000000000D+00
239  2.3800000000000D+00  0.0000000000000D+00  0.0000000000000D+00
240  2.3900000000000D+00  0.0000000000000D+00  0.0000000000000D+00
241  2.4000000000000D+00  0.0000000000000D+00  0.0000000000000D+00
242  2.4100000000000D+00  0.0000000000000D+00  0.0000000000000D+00
243  2.4200000000000D+00  0.0000000000000D+00  0.0000000000000D+00
244  2.4300000000000D+00  0.0000000000000D+00  0.0000000000000D+00
245  2.4400000000000D+00  0.0000000000000D+00  0.0000000000000D+00
246  2.4500000000000D+00  0.0000000000000D+00  0.0000000000000D+00
247  2.4600000000000D+00  0.0000000000000D+00  0.0000000000000D+00
248  2.4700000000000D+00  0.0000000000000D+00  0.0000000000000D+00
249  2.4800000000000D+00  0.0000000000000D+00  0.0000000000000D+00
250  2.4900000000000D+00  0.0000000000000D+00  0.0000000000000D+00
251  2.5000000000000D+00  0.0000000000000D+00  0.0000000000000D+00
252  2.5100000000000D+00  0.0000000000000D+00  0.0000000000000D+00
253  2.5200000000000D+00  0.0000000000000D+00  0.0000000000000D+00
254  2.5300000000000D+00  0.0000000000000D+00  0.0000000000000D+00
255  2.5400000000000D+00  0.0000000000000D+00  0.0000000000000D+00
256  2.5500000000000D+00  0.0000000000000D+00  0.0000000000000D+00
257  2.5600000000000D+00  0.0000000000000D+00  0.0000000000000D+00
258  2.5700000000000D+00  0.0000000000000D+00  0.0000000000000D+00
259  2.5800000000000D+00  0.0000000000000D+00  0.0000000000000D+00
260  2.5900000000000D+00  0.0000000000000D+00  0.0000000000000D+00
261  2.6000000000000D+00  0.0000000000000D+00  0.0000000000000D+00
262  2.6100000000000D+00  0.0000000000000D+00  0.0000000000000D+00
263  2.6200000000000D+00  0.0000000000000D+00  0.0000000000000D+00
264  2.6300000000000D+00  0.0000000000000D+00  0.0000000000000D+00
265  2.6400000000000D+00  0.0000000000000D+00  0.0000000000000D+00
266  2.6500000000000D+00  0.0000000000000D+00  0.0000000000000D+00
267  2.6600000000000D+00  0.0000000000000D+00  0.0000000000000D+00
268  2.6700000000000D+00  0.0000000000000D+00  0.0000000000000D+00
269  2.6800000000000D+00  0.0000000000000D+00  0.0000000000000D+00
270  2.6900000000000D+00  0.0000000000000D+00  0.0000000000000D+00
271  2.7000000000000D+00  0.0000000000000D+00  0.0000000000000D+00
272  2.7100000000000D+00  0.0000000000000D+00  0.0000000000000D+00
273  2.7200000000000D+00  0.0000000000000D+00  0.0000000000000D+00
274  2.7300000000000D+00  0.0000000000000D+00  0.0000000000000D+00
275  2.7400000000000D+00  0.0000000000000D+00  0.0000000000000D+00
276  2.7500000000000D+00  0.0000000000000D+00  0.0000000000000D+00
277  2.7600000000000D+00  0.0000000000000D+00  0.0000000000000D+00
278  2.7700000000000D+00  0.0000000000000D+00  0.0000000000000D+00
279  2.7800000000000D+00  0.0000000000000D+00  0.0000000000000D+00
280  2.7900000000000D+00  0.0000000000000D+00  0.0000000000000D+00
281  2.8000000000000D+00  0.0000000000000D+00  0.0000000000000D+00
282  2.8100000000000D+00  0.0000000000000D+00  0.0000000000000D+00
283  2.8200000000000D+00  0.0000000000000D+00  0.0000000000000D+00
284  2.8300000000000D+00  0.0000000000000D+00  0.0000000000000D+00
285  2.8400000000000D+00  0.0000000000000D+00  0.0000000000000D+00
286  2.8500000000000D+00  0.0000000000000D+00  0.0000000000000D+00
287  2.8600000000000D+00  0.0000000000000D+00  0.0000000000000D+00
288  2.8700000000000D+00  0.0000000000000D+00  0.0000000000000D+00
289  2.8800000000000D+00  0.0000000000000D+00  0.0000000000000D+00
290  2.8900000000000D+00  0.0000000000000D+00  0.0000000000000D+00
291  2.9000000000000D+00  0.0000000000000D+00  0.0000000000000D+00
292  2.9100000000000D+00  0.0000000000000D+00  0.0000000000000D+00
293  2.9200000000000D+00  0.0000000000000D+00  0.0000000000000D+00
294  2.9300000000000D+00  0.0000000000000D+00  0.0000000000000D+00
295  2.9400000000000D+00  0.0000000000000D+00  0.0000000000000D+00
296  2.9500000000000D+00  0.0000000000000D+00  0.0000000000000D+00
297  2.9600000000000D+00  0.0000000000000D+00  0.0000000000000D+00
298  2.9700000000000D+00  0.0000000000000D+00  0.0000000000000D+00
299  2.9800000000000D+00  0.0000000000000D+00  0.0000000000000D+00
300  2.9900000000000D+00  0.0000000000000D+00  0.0000000000000D+00
301  3.0000000000000D+00  0.0000000000000D+00  0.0000000000000D+00
302  3.0100000000000D+00  0.0000000000000D+00  0.0000000000000D+00
303  3.0200000000000D+00  0.0000000000000D+00  0.0000000000000D+00
304  3.0300000000000D+00  0.0000000000000D+00  0.0000000000000D+00
305  3.0400000000000D+00  0.0000000000000D+00  0.0000000000000D+00
306  3.0500000000000D+00  0.0000000000000D+00  0.0000000000000D+00
307  3.0600000000000D+00  0.0000000000000D+00  0.0000000000000D+00
308  3.0700000000000D+00  0.0000000000000D+00  0.0000000000000D+00
309  3.0800000000000D+00  0.0000000000000D+00  0.0000000000000D+00
310  3.0900000000000D+00  0.0000000000000D+00  0.0000000000000D+00
311  3.1000000000000D+00  0.0000000000000D+00  0.0000000000000D+00
312  3.1100000000000D+00  0.0000000000000D+00  0.0000000000000D+00
313  3.1200000000000D+00  0.0000000000000D+00  0.0000000000000D+00
314  3.1300000000000D+00  0.0000000000000D+00  0.0000000000000D+00
315  3.1400000000000D+00  0.0000000000000D+00  0.0000000000000D+00
316  3.1500000000000D+00  0.0000000000000D+00  0.0000000000000D+00
317  3.1600000000000D+00  0.0000000000000D+00  0.0000000000000D+00
318  3.1700000000000D+00  0.0000000000000D+00  0.0000000000000D+00
319  3.1800000000000D+00  0.0000000000000D+00  0.0000000000000D+00
320  3.1900000000000D+00  0.0000000000000D+00  0.0000000000000D+00
321  3.2000000000000D+00  0.0000000000000D+00  0.0000000000000D+00
322  3.2100000000000D+00  0.0000000000000D+00  0.0000000000000D+00
323  3.2200000000000D+00  0.0000000000000D+00  0.0000000000000D+00
324  3.2300000000000D+00  0.0000000000000D+00  0.0000000000000D+00
325  3.2400000000000D+00  0.0000000000000D+00  0.0000000000000D+00
326  3.2500000000000D+00  0.0000000000000D+00  0.0000000000000D+00
327  3.2600000000000D+00  0.0000000000000D+00  0.0000000000000D+00
328  3.2700000000000D+00  0.0000000000000D+00  0.0000000000000D+00
329  3.2800000000000D+00  0.0000000000000D+00  0.0000000000000D+00
330  3.2900000000000D+00  0.0000000000000D+00  0.0000000000000D+00
331  3.3000000000000D+00  0.0000000000000D+00  0.0000000000000D+00
332  3.3100000000000D+00  0.0000000000000D+00  0.0000000000000D+00
333  3.3200000000000D+00  0.0000000000000D+00  0.0000000000000D+00
334  3.3300000000000D+00  0.0000000000000D+00  0.0000000000000D+00
335  3.3400000000000D+00  0.0000000000000D+00  0.0000000000000D+00
336  3.3500000000000D+00  0.0000000000000D+00  0.0000000000000D+00
337  3.3600000000000D+00  0.0000000000000D+00  0.0000000000000D+00
338  3.3700000000000D+00  0.0000000000000D+00  0.0000000000000D+00
339  3.3800000000000D+00  0.0000000000000D+00  0.0000000000000D+00
340  3.3900000000000D+00  0.0000000000000D+00  0.0000000000000D+00
341  3.4000000000000D+00  0.0000000000000D+00  0.0000000000000D+00
342  3.4100000000000D+00  0.0000000000000D+00  0.0000000000000D+00
343  3.4200000000000D+00  0.0000000000000D+00  0.0000000000000D+00
344  3.4300000000000D+00  0.0000000000000D+00  0.0000000000000D+00
345  3.4400000000000D+00  0.0000000000000D+00  0.0000000000000D+00
346  3.4500000000000D+00  0.0000000000000D+00  0.0000000000000D+00
347  3.4600000000000D+00  0.0000000000000D+00  0.0000000000000D+00
348  3.4700000000000D+00  0.0000000000000D+00  0.0000000000000D+00
349  3.4800000000000D+00  0.0000000000000D+00  0.0000000000000D+00
350  3.4900000000000D+00  0.0000000000000D+00  0.0000000000000D+00
351  3.5000000000000D+00  0.0000000000000D+00  0.0000000000000D+00
352  3.5100000000000D+00  0.0000000000000D+00  0.0000000000000D+00
353  3.5200000000000D+00  0.0000000000000D+00  0.0000000000000D+00
354  3.5300000000000D+00  0.0000000000000D+00  0.0000000000000D+00
355  3.5400000000000D+00  0.0000000000000D+00  0.0000000000000D+00
356  3.5500000000000D+00  0.0000000000000D+00  0.0000000000000D+00
357  3.5600000000000D+00  0.0000000000000D+00  0.0000000000000D+00
358  3.5700000000000D+00  0.0000000000000D+00  0.0000000000000D+00
359  3.5800000000000D+00  0.0000000000000D+00  0.0000000000000D+00
360  3.5900000000000D+00  0.0000000000000D+00  0.0000000000000D+00
361  3.6000000000000D+00  0.0000000000000D+00  0.0000000000000D+00
362  3.6100000000000D+00  0.0000000000000D+00  0.0000000000000D+00
363  3.6200000000000D+00  0.0000000000000D+00  0.0000000000000D+00
364  3.6300000000000D+00  0.0000000000000D+00  0.0000000000000D+00
365  3.6400000000000D+00  0.0000000000000D+00  0.0000000000000D+00
366  3.6500000000000D+00  0.0000000000000D+00  0.0000000000000D+00
367  3.6600000000000D+00  0.0000000000000D+00  0.0000000000000D+00
368  3.6700000000000D+00  0.0000000000000D+00  0.0000000000000D+00
369  3.6800000000000D+00  0.0000000000000D+00  0.0000000000000D+00
370  3.6900000000000D+00  0.0000000000000D+00  0.0000000000000D+00
371  3.7000000000000D+00  0.0000000000000D+00  0.0000000000000D+00
372  3.7100000000000D+00  0.0000000000000D+00  0.0000000000000D+00
373  3.7200000000000D+00  0.0000000000000D+00  0.0000000000000D+00
374  3.7300000000000D+00  0.0000000000000D+00  0.0000000000000D+00
375  3.7400000000000D+00  0.0000000000000D+00  0.0000000000000D+00
376  3.7500000000000D+00  0.0000000000000D+00  0.0000000000000D+00
377  3.7600000000000D+00  0.0000000000000D+00  0.0000000000000D+00
378  3.7700000000000D+00  0.0000000000000D+00  0.0000000000000D+00
379  3.7800000000000D+00  0.0000000000000D+00  0.0000000000000D+00
380  3.7900000000000D+00  0.0000000000000D+00  0.0000000000000D+00
381  3.8000000000000D+00  0.0000000000000D+00  0.0000000000000D+00
382  3.8100000000000D+00  0.0000000000000D+00  0.0000000000000D+00
383  3.8200000000000D+00  0.0000000000000D+00  0.0000000000000D+00
384  3.8300000000000D+00  0.0000000000000D+00  0.0000000000000D+00
385  3.8400000000000D+00  0.0000000000000D+00  0.0000000000000D+00
386  3.8500000000000D+00  0.0000000000000D+00  0.0000000000000D+00
387  3.8600000000000D+00  0.0000000000000D+00  0.0000000000000D+00
388  3.8700000000000D+00  0.0000000000000D+00  0.0000000000000D+00
389  3.8800000000000D+00  0.0000000000000D+00  0.0000000000000D+00
390  3.8900000000000D+00  0.0000000000000D+00  0.0000000000000D+00
391  3.9000000000000D+00  0.0000000000000D+00  0.0000000000000D+00
392  3.9100000000000D+00  0.0000000000000D+00  0.0000000000000D+00
393  3.9200000000000D+00  0.0000000000000D+00  0.0000000000000D+00
394  3.9300000000000D+00  0.0000000000000D+00  0.0000000000000D+00
395  3.9400000000000D+00  0.0000000000000D+00  0.0000000000000D+00
396  3.9500000000000D+00  0.0000000000000D+00  0.0000000000000D+00
397  3.9600000000000D+00  0.0000000000000D+00  0.0000000000000D+00
398  3.9700000000000D+00  0.0000000000000D+00  0.0000000000000D+00
399  3.9800000000000D+00  0.0000000000000D+00  0.0000000000000D+00
400  3.9900000000000D+00  0.0000000000000D+00  0.0000000000000D+00
1                        -5.3609095628045D+00 -1.6716745880330D+00
1  0.0000000000000D+00  1.4322101837827D-10 -1.5253864837916D-10
2  1.0000000000000D-02  1.6461981121811D-03 -7.0493705787350D-04
3  2.0000000000000D-02  6.5782690229162D-03 -2.8146654905496D-03
4  3.0000000000000D-02  1.4776666453998D-02 -6.3139605668940D-03
5  4.0000000000000D-02  2.6208893200771D-02 -1.1177525964831D-02
6  5.0000000000000D-02  4.0829620769491D-02 -1.7370110850099D-02
7  6.0000000000000D-02  5.8580856367351D-02 -2.4846673254430D-02
8  7.0000000000000D-02  7.9392156743029D-02 -3.3552589220840D-02
9  8.0000000000000D-02  1.0318088823238D-01 -4.3423907031228D-02
10  9.0000000000000D-02  1.2985253222083D-01 -5.4387645678810D-02
11  1.0000000000000D-01  1.5930103509144D-01 -6.6362136595093D-02
12  1.1000000000000D-01  1.9140920158498D-01 -7.9257407488093D-02
13  1.2000000000000D-01  2.2604913035715D-01 -9.2975606995547D-02
14  1.3000000000000D-01  2.6308269037665D-01 -1.0741146870398D-01
15  1.4000000000000D-01  3.0236203666811D-01 -1.2245281293207D-01
16  1.5000000000000D-01  3.4373016376519D-01 -1.3798108452480D-01
17  1.6000000000000D-01  3.8702149510197D-01 -1.5387192475419D-01
18  1.7000000000000D-01  4.3206250643572D-01 -1.6999577527273D-01
19  1.8000000000000D-01  4.7867238126096D-01 -1.8621851191807D-01
20  1.9000000000000D-01  5.2666369604518D-01 -2.0240210602226D-01
21  2.0000000000000D-01  5.7584313298919D-01 -2.1840531073662D-01
22  2.1000000000000D-01  6.2601221789262D-01 -2.3408436974455D-01
23  2.2000000000000D-01  6.7696808058593D-01 -2.4929374560063D-01
24  2.3000000000000D-01  7.2850423527717D-01 -2.6388686480497D-01
25  2.4000000000000D-01  7.8041137805337D-01 -2.7771687659929D-01
26  2.5000000000000D-01  8.3247819867492D-01 -2.9063742235451D-01
27  2.6000000000000D-01  8.8449220370673D-01 -3.0250341231200D-01
28  2.7000000000000D-01  9.3624054794305D-01 -3.1317180634091D-01
29  2.8000000000000D-01  9.8751087100444D-01 -3.2250239528455D-01
30  2.9000000000000D-01  1.0380921359166D+00 -3.3035857939025D-01
31  3.0000000000000D-01  1.0877754664212D+00 -3.3660814025006D-01
32  3.1000000000000D-01  1.1363549797215D+00 -3.4112400262608D-01
33  3.2000000000000D-01  1.1836286113278D+00 -3.4378498249400D-01
34  3.3000000000000D-01  1.2293989286447D+00 -3.4447651761343D-01
35  3.4000000000000D-01  1.2734739299285D+00 -3.4309137692454D-01
36  3.5000000000000D-01  1.3156678252483D+00 -3.3953034507786D-01
37  3.6000000000000D-01  1.3558017960979D+00 -3.3370287842955D-01
38  3.7000000000000D-01  1.3937047303381D+00 -3.2552772887778D-01
39  3.8000000000000D-01  1.4292139291952D+00 -3.1493353197872D-01
40  3.9000000000000D-01  1.4621757831038D+00 -3.0185935586290D-01
41  4.0000000000000D-01  1.4924464132600D+00 -2.8625520757532D-01
42  4.1000000000000D-01  1.5198922758452D+00 -2.6808249358560D-01
43  4.2000000000000D-01  1.5443907259926D+00 -2.4731443135871D-01