Ne    ONCVPSP  r_core=  1.31  1.71
10.0000      8.0000      161002    zatom,zion,pspd
8      11   1     4   400     0    pspcod,pspxc,lmax,lloc,mmax,r2well
3.99000000  0.00000000  0.00000000    rchrg fchrg qchrg
2     2     0     0     0    nproj
1                 extension_switch
0                         2.1770477389716D+00 -4.7659234660659D-01
1  0.0000000000000D+00  2.1866202182252D-09  7.0571166965738D-10
2  1.0000000000000D-02  5.2376258722012D-02  7.4727422003220D-03
3  2.0000000000000D-02  1.0486156897067D-01  1.5092107383458D-02
4  3.0000000000000D-02  1.5756157133882D-01  2.3003189090897D-02
5  4.0000000000000D-02  2.1057513125224D-01  3.1348038303328D-02
6  5.0000000000000D-02  2.6399106757462D-01  4.0264182783408D-02
7  6.0000000000000D-02  3.1788501906948D-01  4.9883194660191D-02
8  7.0000000000000D-02  3.7231649207543D-01  6.0329321498326D-02
9  8.0000000000000D-02  4.2732613056434D-01  7.1718195389415D-02
10  9.0000000000000D-02  4.8293324706664D-01  8.4155633735672D-02
11  1.0000000000000D-01  5.3913364979430D-01  9.7736544377131D-02
12  1.1000000000000D-01  5.9589779770690D-01  1.1254394655435D-01
13  1.2000000000000D-01  6.5316931129120D-01  1.2864811791196D-01
14  1.3000000000000D-01  7.1086386250507D-01  1.4610587634908D-01
15  1.4000000000000D-01  7.6886846272356D-01  1.6496000402587D-01
16  1.5000000000000D-01  8.2704116267057D-01  1.8523881925876D-01
17  1.6000000000000D-01  8.8521117328189D-01  2.0695590039718D-01
18  1.7000000000000D-01  9.4317941128121D-01  2.3010996409123D-01
19  1.8000000000000D-01  1.0007194680218D+00  2.5468489865043D-01
20  1.9000000000000D-01  1.0575789949130D+00  2.8064995147923D-01
21  2.0000000000000D-01  1.1134814935737D+00  3.0796006787319D-01
22  2.1000000000000D-01  1.1681284937967D+00  3.3655637679076D-01
23  2.2000000000000D-01  1.2212020975254D+00  3.6636681759817D-01
24  2.3000000000000D-01  1.2723678623972D+00  3.9730690023673D-01
25  2.4000000000000D-01  1.3212779940529D+00  4.2928058980120D-01
26  2.5000000000000D-01  1.3675748123934D+00  4.6218130516062D-01
27  2.6000000000000D-01  1.4108944533443D+00  4.9589302001499D-01
28  2.7000000000000D-01  1.4508707644947D+00  5.3029145367592D-01
29  2.8000000000000D-01  1.4871393502621D+00  5.6524533790035D-01
30  2.9000000000000D-01  1.5193417200225D+00  6.0061774530313D-01
31  3.0000000000000D-01  1.5471294909694D+00  6.3626746423750D-01
32  3.1000000000000D-01  1.5701685963473D+00  6.7205040456782D-01
33  3.2000000000000D-01  1.5881434491548D+00  7.0782101847327D-01
34  3.3000000000000D-01  1.6007610114511D+00  7.4343372031667D-01
35  3.4000000000000D-01  1.6077547200113D+00  7.7874428969070D-01
36  3.5000000000000D-01  1.6088882202795D+00  8.1361124201437D-01
37  3.6000000000000D-01  1.6039588623264D+00  8.4789715149134D-01
38  3.7000000000000D-01  1.5928009148395D+00  8.8146991185505D-01
39  3.8000000000000D-01  1.5752884560122D+00  9.1420392110558D-01
40  3.9000000000000D-01  1.5513379035376D+00  9.4598117738116D-01
41  4.0000000000000D-01  1.5209101497085D+00  9.7669227419257D-01
42  4.1000000000000D-01  1.4840122718459D+00  1.0062372844688D+00
43  4.2000000000000D-01  1.4406987928608D+00  1.0345265242029D+00
44  4.3000000000000D-01  1.3910724716669D+00  1.0614811879337D+00
45  4.4000000000000D-01  1.3352846083342D+00  1.0870338498328D+00
46  4.5000000000000D-01  1.2735348542563D+00  1.1111288257717D+00
47  4.6000000000000D-01  1.2060705231290D+00  1.1337223934033D+00
48  4.7000000000000D-01  1.1331854041525D+00  1.1547828689789D+00
49  4.8000000000000D-01  1.0552180844940D+00  1.1742905413294D+00
50  4.9000000000000D-01  9.7254979363572D-01  1.1922374651331D+00
51  5.0000000000000D-01  8.8560178769969D-01  1.2086271172654D+00
52  5.1000000000000D-01  7.9483229714416D-01  1.2234739216464D+00
53  5.2000000000000D-01  7.0073306628457D-01  1.2368026495670D+00
54  5.3000000000000D-01  6.0382551785745D-01  1.2486477039413D+00
55  5.4000000000000D-01  5.0465658025949D-01  1.2590522973155D+00
56  5.5000000000000D-01  4.0379421910333D-01  1.2680675347131D+00
57  5.6000000000000D-01  3.0182271828178D-01  1.2757514135250D+00
58  5.7000000000000D-01  1.9933775879753D-01  1.2821677536274D+00
59  5.8000000000000D-01  9.6941346133387D-02  1.2873850717346D+00
60  5.9000000000000D-01 -4.7633610976715D-03  1.2914754146416D+00
61  6.0000000000000D-01 -1.0517726711789D-01  1.2945131664931D+00
62  6.1000000000000D-01 -2.0371054470056D-01  1.2965738455046D+00
63  6.2000000000000D-01 -2.9978777563113D-01  1.2977329056770D+00
64  6.3000000000000D-01 -3.9285297139761D-01  1.2980645589610D+00
65  6.4000000000000D-01 -4.8237442069978D-01  1.2976406330677D+00
66  6.5000000000000D-01 -5.6784931208507D-01  1.2965294796704D+00
67  6.6000000000000D-01 -6.4880808233920D-01  1.2947949471133D+00
68  6.7000000000000D-01 -7.2481844413816D-01  1.2924954309438D+00
69  6.8000000000000D-01 -7.9548904988862D-01  1.2896830146221D+00
70  6.9000000000000D-01 -8.6047275261723D-01  1.2864027116439D+00
71  7.0000000000000D-01 -9.1946942914686D-01  1.2826918190587D+00
72  7.1000000000000D-01 -9.7222833558241D-01  1.2785793909905D+00
73  7.2000000000000D-01 -1.0185499702799D+00  1.2740858392766D+00
74  7.3000000000000D-01 -1.0582874249161D+00  1.2692226667666D+00
75  7.4000000000000D-01 -1.0913472099450D+00  1.2639923371724D+00
76  7.5000000000000D-01 -1.1176895465698D+00  1.2583882836619D+00
77  7.6000000000000D-01 -1.1373281233189D+00  1.2523950566516D+00
78  7.7000000000000D-01 -1.1503293212576D+00  1.2459886095161D+00
79  7.8000000000000D-01 -1.1568109178469D+00  1.2391367191931D+00
80  7.9000000000000D-01 -1.1569402852677D+00  1.2317995369596D+00
81  8.0000000000000D-01 -1.1509321046917D+00  1.2239302630072D+00
82  8.1000000000000D-01 -1.1390456234012D+00  1.2154759368613D+00
83  8.2000000000000D-01 -1.1215814867648D+00  1.2063783342028D+00
84  8.3000000000000D-01 -1.0988781818222D+00  1.1965749592688D+00
85  8.4000000000000D-01 -1.0713081335543D+00  1.1860001207589D+00
86  8.5000000000000D-01 -1.0392734987583D+00  1.1745860780620D+00
87  8.6000000000000D-01 -1.0032017057756D+00  1.1622642436639D+00
88  8.7000000000000D-01 -9.6354079108594D-01  1.1489664268112D+00
89  8.8000000000000D-01 -9.2075458594960D-01  1.1346261028978D+00
90  8.9000000000000D-01 -8.7531780783051D-01  1.1191796926222D+00
91  9.0000000000000D-01 -8.2771111224043D-01  1.1025678347335D+00
92  9.1000000000000D-01 -7.7841616089968D-01  1.0847366361528D+00
93  9.2000000000000D-01 -7.2791076170834D-01  1.0656388834219D+00
94  9.3000000000000D-01 -6.7666413496720D-01  1.0452351997933D+00
95  9.4000000000000D-01 -6.2513235859056D-01  1.0234951328282D+00
96  9.5000000000000D-01 -5.7375404273980D-01  1.0003981581092D+00
97  9.6000000000000D-01 -5.2294628136293D-01  9.7593458560229D-01
98  9.7000000000000D-01 -4.7310092469418D-01  9.5010635627628D-01
99  9.8000000000000D-01 -4.2458121274579D-01  9.2292771783652D-01
100  9.9000000000000D-01 -3.7771880532821D-01  8.9442576982431D-01
101  1.0000000000000D+00 -3.3281123927544D-01  8.6464086982988D-01
102  1.0100000000000D+00 -2.9011983827531D-01  8.3362689419130D-01
103  1.0200000000000D+00 -2.4986809517024D-01  8.0145134824980D-01
104  1.0300000000000D+00 -2.1224054067999D-01  7.6819532304236D-01
105  1.0400000000000D+00 -1.7738210677434D-01  7.3395329706201D-01
106  1.0500000000000D+00 -1.4539798668386D-01  6.9883278361953D-01
107  1.0600000000000D+00 -1.1635398745372D-01  6.6295382619240D-01
108  1.0700000000000D+00 -9.0277365051549D-02  6.2644834593791D-01
109  1.0800000000000D+00 -6.7158125952244D-02  5.8945934739388D-01
110  1.0900000000000D+00 -4.6950773640098D-02  5.5213999004969D-01
111  1.1000000000000D+00 -2.9576473003664D-02  5.1465253512071D-01
112  1.1100000000000D+00 -1.4925600197149D-02  4.7716717848553D-01
113  1.1200000000000D+00 -2.8606411860911D-03  4.3986078205186D-01
114  1.1300000000000D+00  6.7806024165472D-03  4.0291551719330D-01
115  1.1400000000000D+00  1.4181544712479D-02  3.6651743482142D-01
116  1.1500000000000D+00  1.9543132786079D-02  3.3085497790111D-01
117  1.1600000000000D+00  2.3080000449048D-02  2.9611745275545D-01
118  1.1700000000000D+00  2.5016511245777D-02  2.6249347613705D-01
119  1.1800000000000D+00  2.5582744881107D-02  2.3016941543204D-01
120  1.1900000000000D+00  2.5010482173770D-02  1.9932783958947D-01
121  1.2000000000000D+00  2.3529243145356D-02  1.7014599817522D-01
122  1.2100000000000D+00  2.1362432667860D-02  1.4279434585174D-01
123  1.2200000000000D+00  1.8723646897937D-02  1.1743512915737D-01
124  1.2300000000000D+00  1.5813191158545D-02  9.4221051615541D-02
125  1.2400000000000D+00  1.2814857533197D-02  7.3294032422402D-02
126  1.2500000000000D+00  9.8930086387060D-03  5.4784073366553D-02
127  1.2600000000000D+00  7.1900079980357D-03  3.8808246694262D-02
128  1.2700000000000D+00  4.8251539018695D-03  2.5475200527181D-02
129  1.2800000000000D+00  2.8877474200640D-03  1.4859590943058D-02
130  1.2900000000000D+00  1.4335320225674D-03  6.9973744150485D-03
131  1.3000000000000D+00  5.5576718836211D-04  2.1714734614687D-03
132  1.3100000000000D+00  1.8730715100345D-04  1.3818216213995D-04
133  1.3200000000000D+00  4.5345903342908D-05 -1.7890353037051D-04
134  1.3300000000000D+00 -3.9306130121932D-06  2.9988110872697D-05
135  1.3400000000000D+00 -2.9578343745645D-06  3.4616375347376D-05
136  1.3500000000000D+00  1.7474042148947D-06 -1.0266002395855D-05
137  1.3600000000000D+00 -1.5608277161055D-08  2.6355513340550D-09
138  1.3700000000000D+00 -3.8220281827654D-07  6.4537241182628D-08
139  1.3800000000000D+00  0.0000000000000D+00  0.0000000000000D+00
140  1.3900000000000D+00  0.0000000000000D+00  0.0000000000000D+00
141  1.4000000000000D+00  0.0000000000000D+00  0.0000000000000D+00
142  1.4100000000000D+00  0.0000000000000D+00  0.0000000000000D+00
143  1.4200000000000D+00  0.0000000000000D+00  0.0000000000000D+00
144  1.4300000000000D+00  0.0000000000000D+00  0.0000000000000D+00
145  1.4400000000000D+00  0.0000000000000D+00  0.0000000000000D+00
146  1.4500000000000D+00  0.0000000000000D+00  0.0000000000000D+00
147  1.4600000000000D+00  0.0000000000000D+00  0.0000000000000D+00
148  1.4700000000000D+00  0.0000000000000D+00  0.0000000000000D+00
149  1.4800000000000D+00  0.0000000000000D+00  0.0000000000000D+00
150  1.4900000000000D+00  0.0000000000000D+00  0.0000000000000D+00
151  1.5000000000000D+00  0.0000000000000D+00  0.0000000000000D+00
152  1.5100000000000D+00  0.0000000000000D+00  0.0000000000000D+00
153  1.5200000000000D+00  0.0000000000000D+00  0.0000000000000D+00
154  1.5300000000000D+00  0.0000000000000D+00  0.0000000000000D+00
155  1.5400000000000D+00  0.0000000000000D+00  0.0000000000000D+00
156  1.5500000000000D+00  0.0000000000000D+00  0.0000000000000D+00
157  1.5600000000000D+00  0.0000000000000D+00  0.0000000000000D+00
158  1.5700000000000D+00  0.0000000000000D+00  0.0000000000000D+00
159  1.5800000000000D+00  0.0000000000000D+00  0.0000000000000D+00
160  1.5900000000000D+00  0.0000000000000D+00  0.0000000000000D+00
161  1.6000000000000D+00  0.0000000000000D+00  0.0000000000000D+00
162  1.6100000000000D+00  0.0000000000000D+00  0.0000000000000D+00
163  1.6200000000000D+00  0.0000000000000D+00  0.0000000000000D+00
164  1.6300000000000D+00  0.0000000000000D+00  0.0000000000000D+00
165  1.6400000000000D+00  0.0000000000000D+00  0.0000000000000D+00
166  1.6500000000000D+00  0.0000000000000D+00  0.0000000000000D+00
167  1.6600000000000D+00  0.0000000000000D+00  0.0000000000000D+00
168  1.6700000000000D+00  0.0000000000000D+00  0.0000000000000D+00
169  1.6800000000000D+00  0.0000000000000D+00  0.0000000000000D+00
170  1.6900000000000D+00  0.0000000000000D+00  0.0000000000000D+00
171  1.7000000000000D+00  0.0000000000000D+00  0.0000000000000D+00
172  1.7100000000000D+00  0.0000000000000D+00  0.0000000000000D+00
173  1.7200000000000D+00  0.0000000000000D+00  0.0000000000000D+00
174  1.7300000000000D+00  0.0000000000000D+00  0.0000000000000D+00
175  1.7400000000000D+00  0.0000000000000D+00  0.0000000000000D+00
176  1.7500000000000D+00  0.0000000000000D+00  0.0000000000000D+00
177  1.7600000000000D+00  0.0000000000000D+00  0.0000000000000D+00
178  1.7700000000000D+00  0.0000000000000D+00  0.0000000000000D+00
179  1.7800000000000D+00  0.0000000000000D+00  0.0000000000000D+00
180  1.7900000000000D+00  0.0000000000000D+00  0.0000000000000D+00
181  1.8000000000000D+00  0.0000000000000D+00  0.0000000000000D+00
182  1.8100000000000D+00  0.0000000000000D+00  0.0000000000000D+00
183  1.8200000000000D+00  0.0000000000000D+00  0.0000000000000D+00
184  1.8300000000000D+00  0.0000000000000D+00  0.0000000000000D+00
185  1.8400000000000D+00  0.0000000000000D+00  0.0000000000000D+00
186  1.8500000000000D+00  0.0000000000000D+00  0.0000000000000D+00
187  1.8600000000000D+00  0.0000000000000D+00  0.0000000000000D+00
188  1.8700000000000D+00  0.0000000000000D+00  0.0000000000000D+00
189  1.8800000000000D+00  0.0000000000000D+00  0.0000000000000D+00
190  1.8900000000000D+00  0.0000000000000D+00  0.0000000000000D+00
191  1.9000000000000D+00  0.0000000000000D+00  0.0000000000000D+00
192  1.9100000000000D+00  0.0000000000000D+00  0.0000000000000D+00
193  1.9200000000000D+00  0.0000000000000D+00  0.0000000000000D+00
194  1.9300000000000D+00  0.0000000000000D+00  0.0000000000000D+00
195  1.9400000000000D+00  0.0000000000000D+00  0.0000000000000D+00
196  1.9500000000000D+00  0.0000000000000D+00  0.0000000000000D+00
197  1.9600000000000D+00  0.0000000000000D+00  0.0000000000000D+00
198  1.9700000000000D+00  0.0000000000000D+00  0.0000000000000D+00
199  1.9800000000000D+00  0.0000000000000D+00  0.0000000000000D+00
200  1.9900000000000D+00  0.0000000000000D+00  0.0000000000000D+00
201  2.0000000000000D+00  0.0000000000000D+00  0.0000000000000D+00
202  2.0100000000000D+00  0.0000000000000D+00  0.0000000000000D+00
203  2.0200000000000D+00  0.0000000000000D+00  0.0000000000000D+00
204  2.0300000000000D+00  0.0000000000000D+00  0.0000000000000D+00
205  2.0400000000000D+00  0.0000000000000D+00  0.0000000000000D+00
206  2.0500000000000D+00  0.0000000000000D+00  0.0000000000000D+00
207  2.0600000000000D+00  0.0000000000000D+00  0.0000000000000D+00
208  2.0700000000000D+00  0.0000000000000D+00  0.0000000000000D+00
209  2.0800000000000D+00  0.0000000000000D+00  0.0000000000000D+00
210  2.0900000000000D+00  0.0000000000000D+00  0.0000000000000D+00
211  2.1000000000000D+00  0.0000000000000D+00  0.0000000000000D+00
212  2.1100000000000D+00  0.0000000000000D+00  0.0000000000000D+00
213  2.1200000000000D+00  0.0000000000000D+00  0.0000000000000D+00
214  2.1300000000000D+00  0.0000000000000D+00  0.0000000000000D+00
215  2.1400000000000D+00  0.0000000000000D+00  0.0000000000000D+00
216  2.1500000000000D+00  0.0000000000000D+00  0.0000000000000D+00
217  2.1600000000000D+00  0.0000000000000D+00  0.0000000000000D+00
218  2.1700000000000D+00  0.0000000000000D+00  0.0000000000000D+00
219  2.1800000000000D+00  0.0000000000000D+00  0.0000000000000D+00
220  2.1900000000000D+00  0.0000000000000D+00  0.0000000000000D+00
221  2.2000000000000D+00  0.0000000000000D+00  0.0000000000000D+00
222  2.2100000000000D+00  0.0000000000000D+00  0.0000000000000D+00
223  2.2200000000000D+00  0.0000000000000D+00  0.0000000000000D+00
224  2.2300000000000D+00  0.0000000000000D+00  0.0000000000000D+00
225  2.2400000000000D+00  0.0000000000000D+00  0.0000000000000D+00
226  2.2500000000000D+00  0.0000000000000D+00  0.0000000000000D+00
227  2.2600000000000D+00  0.0000000000000D+00  0.0000000000000D+00
228  2.2700000000000D+00  0.0000000000000D+00  0.0000000000000D+00
229  2.2800000000000D+00  0.0000000000000D+00  0.0000000000000D+00
230  2.2900000000000D+00  0.0000000000000D+00  0.0000000000000D+00
231  2.3000000000000D+00  0.0000000000000D+00  0.0000000000000D+00
232  2.3100000000000D+00  0.0000000000000D+00  0.0000000000000D+00
233  2.3200000000000D+00  0.0000000000000D+00  0.0000000000000D+00
234  2.3300000000000D+00  0.0000000000000D+00  0.0000000000000D+00
235  2.3400000000000D+00  0.0000000000000D+00  0.0000000000000D+00
236  2.3500000000000D+00  0.0000000000000D+00  0.0000000000000D+00
237  2.3600000000000D+00  0.0000000000000D+00  0.0000000000000D+00
238  2.3700000000000D+00  0.0000000000000D+00  0.0000000000000D+00
239  2.3800000000000D+00  0.0000000000000D+00  0.0000000000000D+00
240  2.3900000000000D+00  0.0000000000000D+00  0.0000000000000D+00
241  2.4000000000000D+00  0.0000000000000D+00  0.0000000000000D+00
242  2.4100000000000D+00  0.0000000000000D+00  0.0000000000000D+00
243  2.4200000000000D+00  0.0000000000000D+00  0.0000000000000D+00
244  2.4300000000000D+00  0.0000000000000D+00  0.0000000000000D+00
245  2.4400000000000D+00  0.0000000000000D+00  0.0000000000000D+00
246  2.4500000000000D+00  0.0000000000000D+00  0.0000000000000D+00
247  2.4600000000000D+00  0.0000000000000D+00  0.0000000000000D+00
248  2.4700000000000D+00  0.0000000000000D+00  0.0000000000000D+00
249  2.4800000000000D+00  0.0000000000000D+00  0.0000000000000D+00
250  2.4900000000000D+00  0.0000000000000D+00  0.0000000000000D+00
251  2.5000000000000D+00  0.0000000000000D+00  0.0000000000000D+00
252  2.5100000000000D+00  0.0000000000000D+00  0.0000000000000D+00
253  2.5200000000000D+00  0.0000000000000D+00  0.0000000000000D+00
254  2.5300000000000D+00  0.0000000000000D+00  0.0000000000000D+00
255  2.5400000000000D+00  0.0000000000000D+00  0.0000000000000D+00
256  2.5500000000000D+00  0.0000000000000D+00  0.0000000000000D+00
257  2.5600000000000D+00  0.0000000000000D+00  0.0000000000000D+00
258  2.5700000000000D+00  0.0000000000000D+00  0.0000000000000D+00
259  2.5800000000000D+00  0.0000000000000D+00  0.0000000000000D+00
260  2.5900000000000D+00  0.0000000000000D+00  0.0000000000000D+00
261  2.6000000000000D+00  0.0000000000000D+00  0.0000000000000D+00
262  2.6100000000000D+00  0.0000000000000D+00  0.0000000000000D+00
263  2.6200000000000D+00  0.0000000000000D+00  0.0000000000000D+00
264  2.6300000000000D+00  0.0000000000000D+00  0.0000000000000D+00
265  2.6400000000000D+00  0.0000000000000D+00  0.0000000000000D+00
266  2.6500000000000D+00  0.0000000000000D+00  0.0000000000000D+00
267  2.6600000000000D+00  0.0000000000000D+00  0.0000000000000D+00
268  2.6700000000000D+00  0.0000000000000D+00  0.0000000000000D+00
269  2.6800000000000D+00  0.0000000000000D+00  0.0000000000000D+00
270  2.6900000000000D+00  0.0000000000000D+00  0.0000000000000D+00
271  2.7000000000000D+00  0.0000000000000D+00  0.0000000000000D+00
272  2.7100000000000D+00  0.0000000000000D+00  0.0000000000000D+00
273  2.7200000000000D+00  0.0000000000000D+00  0.0000000000000D+00
274  2.7300000000000D+00  0.0000000000000D+00  0.0000000000000D+00
275  2.7400000000000D+00  0.0000000000000D+00  0.0000000000000D+00
276  2.7500000000000D+00  0.0000000000000D+00  0.0000000000000D+00
277  2.7600000000000D+00  0.0000000000000D+00  0.0000000000000D+00
278  2.7700000000000D+00  0.0000000000000D+00  0.0000000000000D+00
279  2.7800000000000D+00  0.0000000000000D+00  0.0000000000000D+00
280  2.7900000000000D+00  0.0000000000000D+00  0.0000000000000D+00
281  2.8000000000000D+00  0.0000000000000D+00  0.0000000000000D+00
282  2.8100000000000D+00  0.0000000000000D+00  0.0000000000000D+00
283  2.8200000000000D+00  0.0000000000000D+00  0.0000000000000D+00
284  2.8300000000000D+00  0.0000000000000D+00  0.0000000000000D+00
285  2.8400000000000D+00  0.0000000000000D+00  0.0000000000000D+00
286  2.8500000000000D+00  0.0000000000000D+00  0.0000000000000D+00
287  2.8600000000000D+00  0.0000000000000D+00  0.0000000000000D+00
288  2.8700000000000D+00  0.0000000000000D+00  0.0000000000000D+00
289  2.8800000000000D+00  0.0000000000000D+00  0.0000000000000D+00
290  2.8900000000000D+00  0.0000000000000D+00  0.0000000000000D+00
291  2.9000000000000D+00  0.0000000000000D+00  0.0000000000000D+00
292  2.9100000000000D+00  0.0000000000000D+00  0.0000000000000D+00
293  2.9200000000000D+00  0.0000000000000D+00  0.0000000000000D+00
294  2.9300000000000D+00  0.0000000000000D+00  0.0000000000000D+00
295  2.9400000000000D+00  0.0000000000000D+00  0.0000000000000D+00
296  2.9500000000000D+00  0.0000000000000D+00  0.0000000000000D+00
297  2.9600000000000D+00  0.0000000000000D+00  0.0000000000000D+00
298  2.9700000000000D+00  0.0000000000000D+00  0.0000000000000D+00
299  2.9800000000000D+00  0.0000000000000D+00  0.0000000000000D+00
300  2.9900000000000D+00  0.0000000000000D+00  0.0000000000000D+00
301  3.0000000000000D+00  0.0000000000000D+00  0.0000000000000D+00
302  3.0100000000000D+00  0.0000000000000D+00  0.0000000000000D+00
303  3.0200000000000D+00  0.0000000000000D+00  0.0000000000000D+00
304  3.0300000000000D+00  0.0000000000000D+00  0.0000000000000D+00
305  3.0400000000000D+00  0.0000000000000D+00  0.0000000000000D+00
306  3.0500000000000D+00  0.0000000000000D+00  0.0000000000000D+00
307  3.0600000000000D+00  0.0000000000000D+00  0.0000000000000D+00
308  3.0700000000000D+00  0.0000000000000D+00  0.0000000000000D+00
309  3.0800000000000D+00  0.0000000000000D+00  0.0000000000000D+00
310  3.0900000000000D+00  0.0000000000000D+00  0.0000000000000D+00
311  3.1000000000000D+00  0.0000000000000D+00  0.0000000000000D+00
312  3.1100000000000D+00  0.0000000000000D+00  0.0000000000000D+00
313  3.1200000000000D+00  0.0000000000000D+00  0.0000000000000D+00
314  3.1300000000000D+00  0.0000000000000D+00  0.0000000000000D+00
315  3.1400000000000D+00  0.0000000000000D+00  0.0000000000000D+00
316  3.1500000000000D+00  0.0000000000000D+00  0.0000000000000D+00
317  3.1600000000000D+00  0.0000000000000D+00  0.0000000000000D+00
318  3.1700000000000D+00  0.0000000000000D+00  0.0000000000000D+00
319  3.1800000000000D+00  0.0000000000000D+00  0.0000000000000D+00
320  3.1900000000000D+00  0.0000000000000D+00  0.0000000000000D+00
321  3.2000000000000D+00  0.0000000000000D+00  0.0000000000000D+00
322  3.2100000000000D+00  0.0000000000000D+00  0.0000000000000D+00
323  3.2200000000000D+00  0.0000000000000D+00  0.0000000000000D+00
324  3.2300000000000D+00  0.0000000000000D+00  0.0000000000000D+00
325  3.2400000000000D+00  0.0000000000000D+00  0.0000000000000D+00
326  3.2500000000000D+00  0.0000000000000D+00  0.0000000000000D+00
327  3.2600000000000D+00  0.0000000000000D+00  0.0000000000000D+00
328  3.2700000000000D+00  0.0000000000000D+00  0.0000000000000D+00
329  3.2800000000000D+00  0.0000000000000D+00  0.0000000000000D+00
330  3.2900000000000D+00  0.0000000000000D+00  0.0000000000000D+00
331  3.3000000000000D+00  0.0000000000000D+00  0.0000000000000D+00
332  3.3100000000000D+00  0.0000000000000D+00  0.0000000000000D+00
333  3.3200000000000D+00  0.0000000000000D+00  0.0000000000000D+00
334  3.3300000000000D+00  0.0000000000000D+00  0.0000000000000D+00
335  3.3400000000000D+00  0.0000000000000D+00  0.0000000000000D+00
336  3.3500000000000D+00  0.0000000000000D+00  0.0000000000000D+00
337  3.3600000000000D+00  0.0000000000000D+00  0.0000000000000D+00
338  3.3700000000000D+00  0.0000000000000D+00  0.0000000000000D+00
339  3.3800000000000D+00  0.0000000000000D+00  0.0000000000000D+00
340  3.3900000000000D+00  0.0000000000000D+00  0.0000000000000D+00
341  3.4000000000000D+00  0.0000000000000D+00  0.0000000000000D+00
342  3.4100000000000D+00  0.0000000000000D+00  0.0000000000000D+00
343  3.4200000000000D+00  0.0000000000000D+00  0.0000000000000D+00
344  3.4300000000000D+00  0.0000000000000D+00  0.0000000000000D+00
345  3.4400000000000D+00  0.0000000000000D+00  0.0000000000000D+00
346  3.4500000000000D+00  0.0000000000000D+00  0.0000000000000D+00
347  3.4600000000000D+00  0.0000000000000D+00  0.0000000000000D+00
348  3.4700000000000D+00  0.0000000000000D+00  0.0000000000000D+00
349  3.4800000000000D+00  0.0000000000000D+00  0.0000000000000D+00
350  3.4900000000000D+00  0.0000000000000D+00  0.0000000000000D+00
351  3.5000000000000D+00  0.0000000000000D+00  0.0000000000000D+00
352  3.5100000000000D+00  0.0000000000000D+00  0.0000000000000D+00
353  3.5200000000000D+00  0.0000000000000D+00  0.0000000000000D+00
354  3.5300000000000D+00  0.0000000000000D+00  0.0000000000000D+00
355  3.5400000000000D+00  0.0000000000000D+00  0.0000000000000D+00
356  3.5500000000000D+00  0.0000000000000D+00  0.0000000000000D+00
357  3.5600000000000D+00  0.0000000000000D+00  0.0000000000000D+00
358  3.5700000000000D+00  0.0000000000000D+00  0.0000000000000D+00
359  3.5800000000000D+00  0.0000000000000D+00  0.0000000000000D+00
360  3.5900000000000D+00  0.0000000000000D+00  0.0000000000000D+00
361  3.6000000000000D+00  0.0000000000000D+00  0.0000000000000D+00
362  3.6100000000000D+00  0.0000000000000D+00  0.0000000000000D+00
363  3.6200000000000D+00  0.0000000000000D+00  0.0000000000000D+00
364  3.6300000000000D+00  0.0000000000000D+00  0.0000000000000D+00
365  3.6400000000000D+00  0.0000000000000D+00  0.0000000000000D+00
366  3.6500000000000D+00  0.0000000000000D+00  0.0000000000000D+00
367  3.6600000000000D+00  0.0000000000000D+00  0.0000000000000D+00
368  3.6700000000000D+00  0.0000000000000D+00  0.0000000000000D+00
369  3.6800000000000D+00  0.0000000000000D+00  0.0000000000000D+00
370  3.6900000000000D+00  0.0000000000000D+00  0.0000000000000D+00
371  3.7000000000000D+00  0.0000000000000D+00  0.0000000000000D+00
372  3.7100000000000D+00  0.0000000000000D+00  0.0000000000000D+00
373  3.7200000000000D+00  0.0000000000000D+00  0.0000000000000D+00
374  3.7300000000000D+00  0.0000000000000D+00  0.0000000000000D+00
375  3.7400000000000D+00  0.0000000000000D+00  0.0000000000000D+00
376  3.7500000000000D+00  0.0000000000000D+00  0.0000000000000D+00
377  3.7600000000000D+00  0.0000000000000D+00  0.0000000000000D+00
378  3.7700000000000D+00  0.0000000000000D+00  0.0000000000000D+00
379  3.7800000000000D+00  0.0000000000000D+00  0.0000000000000D+00
380  3.7900000000000D+00  0.0000000000000D+00  0.0000000000000D+00
381  3.8000000000000D+00  0.0000000000000D+00  0.0000000000000D+00
382  3.8100000000000D+00  0.0000000000000D+00  0.0000000000000D+00
383  3.8200000000000D+00  0.0000000000000D+00  0.0000000000000D+00
384  3.8300000000000D+00  0.0000000000000D+00  0.0000000000000D+00
385  3.8400000000000D+00  0.0000000000000D+00  0.0000000000000D+00
386  3.8500000000000D+00  0.0000000000000D+00  0.0000000000000D+00
387  3.8600000000000D+00  0.0000000000000D+00  0.0000000000000D+00
388  3.8700000000000D+00  0.0000000000000D+00  0.0000000000000D+00
389  3.8800000000000D+00  0.0000000000000D+00  0.0000000000000D+00
390  3.8900000000000D+00  0.0000000000000D+00  0.0000000000000D+00
391  3.9000000000000D+00  0.0000000000000D+00  0.0000000000000D+00
392  3.9100000000000D+00  0.0000000000000D+00  0.0000000000000D+00
393  3.9200000000000D+00  0.0000000000000D+00  0.0000000000000D+00
394  3.9300000000000D+00  0.0000000000000D+00  0.0000000000000D+00
395  3.9400000000000D+00  0.0000000000000D+00  0.0000000000000D+00
396  3.9500000000000D+00  0.0000000000000D+00  0.0000000000000D+00
397  3.9600000000000D+00  0.0000000000000D+00  0.0000000000000D+00
398  3.9700000000000D+00  0.0000000000000D+00  0.0000000000000D+00
399  3.9800000000000D+00  0.0000000000000D+00  0.0000000000000D+00
400  3.9900000000000D+00  0.0000000000000D+00  0.0000000000000D+00
1                        -5.1802544347411D+00 -1.7185555220135D+00
1  0.0000000000000D+00 -1.1949941036704D-11  1.1526257726047D-10
2  1.0000000000000D-02  1.4860711113564D-03 -5.0486878210715D-04
3  2.0000000000000D-02  5.9391577204069D-03 -2.0164295940953D-03
4  3.0000000000000D-02  1.3343892793590D-02 -4.5255517854937D-03
5  4.0000000000000D-02  2.3674708423984D-02 -8.0170375140087D-03
6  5.0000000000000D-02  3.6895901591797D-02 -1.2469651841127D-02
7  6.0000000000000D-02  5.2961726300823D-02 -1.7856165327426D-02
8  7.0000000000000D-02  7.1816512157640D-02 -2.4143409579588D-02
9  8.0000000000000D-02  9.3394809472305D-02 -3.1292346316382D-02
10  9.0000000000000D-02  1.1762156096612D-01 -3.9258150626510D-02
11  1.0000000000000D-01  1.4441230017256D-01 -4.7990309184457D-02
12  1.1000000000000D-01  1.7367337661099D-01 -5.7432734270111D-02
13  1.2000000000000D-01  2.0530220779788D-01 -6.7523894501646D-02
14  1.3000000000000D-01  2.3918755813706D-01 -7.8196963237749D-02
15  1.4000000000000D-01  2.7520984469743D-01 -8.9379985633381D-02
16  1.5000000000000D-01  3.1324146984353D-01 -1.0099606534137D-01
17  1.6000000000000D-01  3.5314718063108D-01 -1.1296357183968D-01
18  1.7000000000000D-01  3.9478445481538D-01 -1.2519636933021D-01
19  1.8000000000000D-01  4.3800391324528D-01 -1.3760406809888D-01
20  1.9000000000000D-01  4.8264975832978D-01 -1.5009229914899D-01
21  2.0000000000000D-01  5.2856023816726D-01 -1.6256301281892D-01
22  2.1000000000000D-01  5.7556813582036D-01 -1.7491480197345D-01
23  2.2000000000000D-01  6.2350128310225D-01 -1.8704325021407D-01
24  2.3000000000000D-01  6.7218309811318D-01 -1.9884130538936D-01
25  2.4000000000000D-01  7.2143314563096D-01 -2.1019967850270D-01
26  2.5000000000000D-01  7.7106771931541D-01 -2.2100726791243D-01
27  2.6000000000000D-01  8.2090044453665D-01 -2.3115160850067D-01
28  2.7000000000000D-01  8.7074290048108D-01 -2.4051934525301D-01
29  2.8000000000000D-01  9.2040526002821D-01 -2.4899673044473D-01
30  2.9000000000000D-01  9.6969694572788D-01 -2.5647014337091D-01
31  3.0000000000000D-01  1.0184273000416D+00 -2.6282663129226D-01
32  3.1000000000000D-01  1.0664062678463D+00 -2.6795446999581D-01
33  3.2000000000000D-01  1.1134450890348D+00 -2.7174374209454D-01
34  3.3000000000000D-01  1.1593569988841D+00 -2.7408693091403D-01
35  3.4000000000000D-01  1.2039579337106D+00 -2.7487952754085D-01
36  3.5000000000000D-01  1.2470672391746D+00 -2.7402064833928D-01
37  3.6000000000000D-01  1.2885083784631D+00 -2.7141365998336D-01
38  3.7000000000000D-01  1.3281096374400D+00 -2.6696680880301D-01
39  3.8000000000000D-01  1.3657048237408D+00 -2.6059385100907D-01
40  3.9000000000000D-01  1.4011339566760D+00 -2.5221468014572D-01
41  4.0000000000000D-01  1.4342439447212D+00 -2.4175594792258D-01
42  4.1000000000000D-01  1.4648892472951D+00 -2.2915167440567D-01
43  4.2000000000000D-01  1.4929325174706D+00 -2.1434384339902D-01