Ne    ONCVPSP  r_core=  1.31  1.71
10.0000      8.0000      160518    zatom,zion,pspd
8      11   1     4   400     0    pspcod,pspxc,lmax,lloc,mmax,r2well
3.99000000  0.00000000  0.00000000    rchrg fchrg qchrg
2     2     0     0    nproj
2                 extension_switch
2     0     0    nprojso
0                        -4.8809098742932D-01  2.4404529668035D+00
1  0.0000000000000D+00  4.4278111732687D-10  1.1018421730569D-09
2  1.0000000000000D-02  1.0765579510965D-02  8.2859252937932D-02
3  2.0000000000000D-02  2.1639492466576D-02  1.6555324109966D-01
4  3.0000000000000D-02  3.2729019480168D-02  2.4791592085954D-01
5  4.0000000000000D-02  4.4139346065601D-02  3.2977971099847D-01
6  5.0000000000000D-02  5.5972541381587D-02  4.1097477388640D-01
7  6.0000000000000D-02  6.8326568211496D-02  4.9132835584791D-01
8  7.0000000000000D-02  8.1294334065257D-02  5.7066420512859D-01
9  8.0000000000000D-02  9.4962792847219D-02  6.4880208477834D-01
10  9.0000000000000D-02  1.0941210598970D-01  7.2555739641626D-01
11  1.0000000000000D-01  1.2471487131235D-01  8.0074092925736D-01
12  1.1000000000000D-01  1.4093542713949D-01  8.7415874698383D-01
13  1.2000000000000D-01  1.5812923839944D-01  9.4561222305521D-01
14  1.3000000000000D-01  1.7634237054990D-01  1.0148982328974D+00
15  1.4000000000000D-01  1.9561105623260D-01  1.0818095091169D+00
16  1.5000000000000D-01  2.1596135856740D-01  1.1461351634823D+00
17  1.6000000000000D-01  2.3740893396351D-01  1.2076613769317D+00
18  1.7000000000000D-01  2.5995889626356D-01  1.2661722563316D+00
19  1.8000000000000D-01  2.8360578295760D-01  1.3214508541625D+00
20  1.9000000000000D-01  3.0833362311987D-01  1.3732803447740D+00
21  2.0000000000000D-01  3.3411610564410D-01  1.4214453483656D+00
22  2.1000000000000D-01  3.6091684529446D-01  1.4657333914468D+00
23  2.2000000000000D-01  3.8868974306116D-01  1.5059364902320D+00
24  2.3000000000000D-01  4.1737943632332D-01  1.5418528412816D+00
25  2.4000000000000D-01  4.4692183338800D-01  1.5732886017130D+00
26  2.5000000000000D-01  4.7724472610353D-01  1.6000597395262D+00
27  2.6000000000000D-01  5.0826847344728D-01  1.6219939330260D+00
28  2.7000000000000D-01  5.3990674827079D-01  1.6389324970044D+00
29  2.8000000000000D-01  5.7206733875823D-01  1.6507323122940D+00
30  2.9000000000000D-01  6.0465299562224D-01  1.6572677345274D+00
31  3.0000000000000D-01  6.3756231563198D-01  1.6584324574553D+00
32  3.1000000000000D-01  6.7069065174528D-01  1.6541413059958D+00
33  3.2000000000000D-01  7.0393103990388D-01  1.6443319343166D+00
34  3.3000000000000D-01  7.3717513245014D-01  1.6289664046872D+00
35  3.4000000000000D-01  7.7031412813614D-01  1.6080326235880D+00
36  3.5000000000000D-01  8.0323968882159D-01  1.5815456126140D+00
37  3.6000000000000D-01  8.3584483319347D-01  1.5495485930567D+00
38  3.7000000000000D-01  8.6802479818534D-01  1.5121138646773D+00
39  3.8000000000000D-01  8.9967785922347D-01  1.4693434610815D+00
40  3.9000000000000D-01  9.3070610097496D-01  1.4213695662486D+00
41  4.0000000000000D-01  9.6101613091371D-01  1.3683546791375D+00
42  4.1000000000000D-01  9.9051972874548D-01  1.3104915158617D+00
43  4.2000000000000D-01  1.0191344255354D+00  1.2480026416640D+00
44  4.3000000000000D-01  1.0467840072505D+00  1.1811398278068D+00
45  4.4000000000000D-01  1.0733989383558D+00  1.1101831314835D+00
46  4.5000000000000D-01  1.0989167020757D+00  1.0354396999231D+00
47  4.6000000000000D-01  1.1232820549376D+00  9.5724230296966D-01
48  4.7000000000000D-01  1.1464471942477D+00  8.7594760152632D-01
49  4.8000000000000D-01  1.1683718381892D+00  7.9193416233377D-01
50  4.9000000000000D-01  1.1890232192717D+00  7.0560023256249D-01
51  5.0000000000000D-01  1.2083759928915D+00  6.1736129060221D-01
52  5.1000000000000D-01  1.2264120637603D+00  5.2764739219660D-01
53  5.2000000000000D-01  1.2431203339282D+00  4.3690033366147D-01
54  5.3000000000000D-01  1.2584963770405D+00  3.4557065630738D-01
55  5.4000000000000D-01  1.2725420443265D+00  2.5411451833457D-01
56  5.5000000000000D-01  1.2852650086074D+00  1.6299046235109D-01
57  5.6000000000000D-01  1.2966782533178D+00  7.2656108254846D-02
58  5.7000000000000D-01  1.3067995141609D+00 -1.6435197495115D-02
59  5.8000000000000D-01  1.3156506815433D+00 -1.0383774424522D-01
60  5.9000000000000D-01  1.3232571723653D+00 -1.8911679857023D-01
61  6.0000000000000D-01  1.3296472800637D+00 -2.7185189192101D-01
62  6.1000000000000D-01  1.3348515120174D+00 -3.5164002177871D-01
63  6.2000000000000D-01  1.3389019235276D+00 -4.2809873407169D-01
64  6.3000000000000D-01  1.3418314575690D+00 -5.0086905545673D-01
65  6.4000000000000D-01  1.3436732993875D+00 -5.6961824526310D-01
66  6.5000000000000D-01  1.3444602547774D+00 -6.3404233844546D-01
67  6.6000000000000D-01  1.3442241605273D+00 -6.9386845277921D-01
68  6.7000000000000D-01  1.3429953350730D+00 -7.4885683572600D-01
69  6.8000000000000D-01  1.3408020768431D+00 -7.9880262889029D-01
70  6.9000000000000D-01  1.3376702171406D+00 -8.4353733075574D-01
71  7.0000000000000D-01  1.3336227336726D+00 -8.8292994139071D-01
72  7.1000000000000D-01  1.3286794300393D+00 -9.1688777601884D-01
73  7.2000000000000D-01  1.3228566856157D+00 -9.4535693773969D-01
74  7.3000000000000D-01  1.3161672793339D+00 -9.6832244320767D-01
75  7.4000000000000D-01  1.3086202899000D+00 -9.8580799869203D-01
76  7.5000000000000D-01  1.3002210739716D+00 -9.9787542761894D-01
77  7.6000000000000D-01  1.2909713227935D+00 -1.0046237543959D+00
78  7.7000000000000D-01  1.2808691967569D+00 -1.0061879529693D+00
79  7.8000000000000D-01  1.2699095363087D+00 -1.0027373721866D+00
80  7.9000000000000D-01  1.2580841466268D+00 -9.9447385351120D-01
81  8.0000000000000D-01  1.2453821524906D+00 -9.8162955998257D-01
82  8.1000000000000D-01  1.2317904188300D+00 -9.6446453846602D-01
83  8.2000000000000D-01  1.2172940315474D+00 -9.4326404016204D-01
84  8.3000000000000D-01  1.2018768323803D+00 -9.1833562700916D-01
85  8.4000000000000D-01  1.1855220008183D+00 -8.9000609398540D-01
86  8.5000000000000D-01  1.1682126754266D+00 -8.5861823936161D-01
87  8.6000000000000D-01  1.1499326063479D+00 -8.2452751666042D-01
88  8.7000000000000D-01  1.1306668302865D+00 -7.8809860340527D-01
89  8.8000000000000D-01  1.1104023589081D+00 -7.4970192268757D-01
90  8.9000000000000D-01  1.0891288713361D+00 -7.0971015412274D-01
91  9.0000000000000D-01  1.0668394012842D+00 -6.6849477090041D-01
92  9.1000000000000D-01  1.0435310093433D+00 -6.2642263935460D-01
93  9.2000000000000D-01  1.0192054310378D+00 -5.8385271678912D-01
94  9.3000000000000D-01  9.9386969148001D-01 -5.4113288219570D-01
95  9.4000000000000D-01  9.6753667778063D-01 -4.9859693300855D-01
96  9.5000000000000D-01  9.4022566081691D-01 -4.5656177916920D-01
97  9.6000000000000D-01  9.1196275851206D-01 -4.1532486351876D-01
98  9.7000000000000D-01  8.8278133342411D-01 -3.7516183499573D-01
99  9.8000000000000D-01  8.5272231819032D-01 -3.3632449821579D-01
100  9.9000000000000D-01  8.2183446320812D-01 -2.9903905983561D-01
101  1.0000000000000D+00  7.9017450183175D-01 -2.6350468872329D-01
102  1.0100000000000D+00  7.5780722933826D-01 -2.2989240333808D-01
103  1.0200000000000D+00  7.2480549293481D-01 -1.9834429596647D-01
104  1.0300000000000D+00  6.9125009116634D-01 -1.6897309949143D-01
105  1.0400000000000D+00  6.5722958213223D-01 -1.4186209855873D-01
106  1.0500000000000D+00  6.2284000106327D-01 -1.1706538288010D-01
107  1.0600000000000D+00  5.8818448892153D-01 -9.4608436425842D-02
108  1.0700000000000D+00  5.5337283476069D-01 -7.4489052420192D-02
109  1.0800000000000D+00  5.1852093569229D-01 -5.6678560116111D-02
110  1.0900000000000D+00  4.8375017929787D-01 -4.1123345804444D-02
111  1.1000000000000D+00  4.4918675431735D-01 -2.7746647022297D-02
112  1.1100000000000D+00  4.1496089641695D-01 -1.6450595509253D-02
113  1.1200000000000D+00  3.8120607662267D-01 -7.1184817264074D-03
114  1.1300000000000D+00  3.4805814082737D-01  3.8278910716505D-04
115  1.1400000000000D+00  3.1565440932978D-01  6.2000814170660D-03
116  1.1500000000000D+00  2.8413274610433D-01  1.0491288620275D-02
117  1.1600000000000D+00  2.5363060781817D-01  1.3422503003107D-02
118  1.1700000000000D+00  2.2428408298197D-01  1.5165132966998D-02
119  1.1800000000000D+00  1.9622693184979D-01  1.5893005247198D-02
120  1.1900000000000D+00  1.6958963780570D-01  1.5779490079411D-02
121  1.2000000000000D+00  1.4449848084939D-01  1.4994686815242D-02
122  1.2100000000000D+00  1.2107464372460D-01  1.3702707213979D-02
123  1.2200000000000D+00  9.9433360962737D-02  1.2059092641343D-02
124  1.2300000000000D+00  7.9683120591695D-02  1.0208399546559D-02
125  1.2400000000000D+00  6.1924927777043D-02  8.2819858778854D-03
126  1.2500000000000D+00  4.6251639293722D-02  6.3960297801075D-03
127  1.2600000000000D+00  3.2747376534012D-02  4.6498077227198D-03
128  1.2700000000000D+00  2.1491589055639D-02  3.1250132019376D-03
129  1.2800000000000D+00  1.2537594873488D-02  1.8811388249454D-03
130  1.2900000000000D+00  5.9087573446437D-03  9.5283095033456D-04
131  1.3000000000000D+00  1.8410234021631D-03  4.0104366353450D-04
132  1.3100000000000D+00  1.2648310043106D-04  1.7043055047299D-04
133  1.3200000000000D+00 -1.4620509405910D-04  5.3912876692522D-05
134  1.3300000000000D+00  2.4719172899590D-05 -5.5391472371127D-06
135  1.3400000000000D+00  2.8630984767106D-05 -4.8894570325120D-06
136  1.3500000000000D+00 -8.4364122898171D-06  2.2759344189170D-06
137  1.3600000000000D+00  1.2439780572649D-09 -1.5042348232366D-08
138  1.3700000000000D+00  3.0461524642011D-08 -3.6834481016601D-07
139  1.3800000000000D+00  0.0000000000000D+00  0.0000000000000D+00
140  1.3900000000000D+00  0.0000000000000D+00  0.0000000000000D+00
141  1.4000000000000D+00  0.0000000000000D+00  0.0000000000000D+00
142  1.4100000000000D+00  0.0000000000000D+00  0.0000000000000D+00
143  1.4200000000000D+00  0.0000000000000D+00  0.0000000000000D+00
144  1.4300000000000D+00  0.0000000000000D+00  0.0000000000000D+00
145  1.4400000000000D+00  0.0000000000000D+00  0.0000000000000D+00
146  1.4500000000000D+00  0.0000000000000D+00  0.0000000000000D+00
147  1.4600000000000D+00  0.0000000000000D+00  0.0000000000000D+00
148  1.4700000000000D+00  0.0000000000000D+00  0.0000000000000D+00
149  1.4800000000000D+00  0.0000000000000D+00  0.0000000000000D+00
150  1.4900000000000D+00  0.0000000000000D+00  0.0000000000000D+00
151  1.5000000000000D+00  0.0000000000000D+00  0.0000000000000D+00
152  1.5100000000000D+00  0.0000000000000D+00  0.0000000000000D+00
153  1.5200000000000D+00  0.0000000000000D+00  0.0000000000000D+00
154  1.5300000000000D+00  0.0000000000000D+00  0.0000000000000D+00
155  1.5400000000000D+00  0.0000000000000D+00  0.0000000000000D+00
156  1.5500000000000D+00  0.0000000000000D+00  0.0000000000000D+00
157  1.5600000000000D+00  0.0000000000000D+00  0.0000000000000D+00
158  1.5700000000000D+00  0.0000000000000D+00  0.0000000000000D+00
159  1.5800000000000D+00  0.0000000000000D+00  0.0000000000000D+00
160  1.5900000000000D+00  0.0000000000000D+00  0.0000000000000D+00
161  1.6000000000000D+00  0.0000000000000D+00  0.0000000000000D+00
162  1.6100000000000D+00  0.0000000000000D+00  0.0000000000000D+00
163  1.6200000000000D+00  0.0000000000000D+00  0.0000000000000D+00
164  1.6300000000000D+00  0.0000000000000D+00  0.0000000000000D+00
165  1.6400000000000D+00  0.0000000000000D+00  0.0000000000000D+00
166  1.6500000000000D+00  0.0000000000000D+00  0.0000000000000D+00
167  1.6600000000000D+00  0.0000000000000D+00  0.0000000000000D+00
168  1.6700000000000D+00  0.0000000000000D+00  0.0000000000000D+00
169  1.6800000000000D+00  0.0000000000000D+00  0.0000000000000D+00
170  1.6900000000000D+00  0.0000000000000D+00  0.0000000000000D+00
171  1.7000000000000D+00  0.0000000000000D+00  0.0000000000000D+00
172  1.7100000000000D+00  0.0000000000000D+00  0.0000000000000D+00
173  1.7200000000000D+00  0.0000000000000D+00  0.0000000000000D+00
174  1.7300000000000D+00  0.0000000000000D+00  0.0000000000000D+00
175  1.7400000000000D+00  0.0000000000000D+00  0.0000000000000D+00
176  1.7500000000000D+00  0.0000000000000D+00  0.0000000000000D+00
177  1.7600000000000D+00  0.0000000000000D+00  0.0000000000000D+00
178  1.7700000000000D+00  0.0000000000000D+00  0.0000000000000D+00
179  1.7800000000000D+00  0.0000000000000D+00  0.0000000000000D+00
180  1.7900000000000D+00  0.0000000000000D+00  0.0000000000000D+00
181  1.8000000000000D+00  0.0000000000000D+00  0.0000000000000D+00
182  1.8100000000000D+00  0.0000000000000D+00  0.0000000000000D+00
183  1.8200000000000D+00  0.0000000000000D+00  0.0000000000000D+00
184  1.8300000000000D+00  0.0000000000000D+00  0.0000000000000D+00
185  1.8400000000000D+00  0.0000000000000D+00  0.0000000000000D+00
186  1.8500000000000D+00  0.0000000000000D+00  0.0000000000000D+00
187  1.8600000000000D+00  0.0000000000000D+00  0.0000000000000D+00
188  1.8700000000000D+00  0.0000000000000D+00  0.0000000000000D+00
189  1.8800000000000D+00  0.0000000000000D+00  0.0000000000000D+00
190  1.8900000000000D+00  0.0000000000000D+00  0.0000000000000D+00
191  1.9000000000000D+00  0.0000000000000D+00  0.0000000000000D+00
192  1.9100000000000D+00  0.0000000000000D+00  0.0000000000000D+00
193  1.9200000000000D+00  0.0000000000000D+00  0.0000000000000D+00
194  1.9300000000000D+00  0.0000000000000D+00  0.0000000000000D+00
195  1.9400000000000D+00  0.0000000000000D+00  0.0000000000000D+00
196  1.9500000000000D+00  0.0000000000000D+00  0.0000000000000D+00
197  1.9600000000000D+00  0.0000000000000D+00  0.0000000000000D+00
198  1.9700000000000D+00  0.0000000000000D+00  0.0000000000000D+00
199  1.9800000000000D+00  0.0000000000000D+00  0.0000000000000D+00
200  1.9900000000000D+00  0.0000000000000D+00  0.0000000000000D+00
201  2.0000000000000D+00  0.0000000000000D+00  0.0000000000000D+00
202  2.0100000000000D+00  0.0000000000000D+00  0.0000000000000D+00
203  2.0200000000000D+00  0.0000000000000D+00  0.0000000000000D+00
204  2.0300000000000D+00  0.0000000000000D+00  0.0000000000000D+00
205  2.0400000000000D+00  0.0000000000000D+00  0.0000000000000D+00
206  2.0500000000000D+00  0.0000000000000D+00  0.0000000000000D+00
207  2.0600000000000D+00  0.0000000000000D+00  0.0000000000000D+00
208  2.0700000000000D+00  0.0000000000000D+00  0.0000000000000D+00
209  2.0800000000000D+00  0.0000000000000D+00  0.0000000000000D+00
210  2.0900000000000D+00  0.0000000000000D+00  0.0000000000000D+00
211  2.1000000000000D+00  0.0000000000000D+00  0.0000000000000D+00
212  2.1100000000000D+00  0.0000000000000D+00  0.0000000000000D+00
213  2.1200000000000D+00  0.0000000000000D+00  0.0000000000000D+00
214  2.1300000000000D+00  0.0000000000000D+00  0.0000000000000D+00
215  2.1400000000000D+00  0.0000000000000D+00  0.0000000000000D+00
216  2.1500000000000D+00  0.0000000000000D+00  0.0000000000000D+00
217  2.1600000000000D+00  0.0000000000000D+00  0.0000000000000D+00
218  2.1700000000000D+00  0.0000000000000D+00  0.0000000000000D+00
219  2.1800000000000D+00  0.0000000000000D+00  0.0000000000000D+00
220  2.1900000000000D+00  0.0000000000000D+00  0.0000000000000D+00
221  2.2000000000000D+00  0.0000000000000D+00  0.0000000000000D+00
222  2.2100000000000D+00  0.0000000000000D+00  0.0000000000000D+00
223  2.2200000000000D+00  0.0000000000000D+00  0.0000000000000D+00
224  2.2300000000000D+00  0.0000000000000D+00  0.0000000000000D+00
225  2.2400000000000D+00  0.0000000000000D+00  0.0000000000000D+00
226  2.2500000000000D+00  0.0000000000000D+00  0.0000000000000D+00
227  2.2600000000000D+00  0.0000000000000D+00  0.0000000000000D+00
228  2.2700000000000D+00  0.0000000000000D+00  0.0000000000000D+00
229  2.2800000000000D+00  0.0000000000000D+00  0.0000000000000D+00
230  2.2900000000000D+00  0.0000000000000D+00  0.0000000000000D+00
231  2.3000000000000D+00  0.0000000000000D+00  0.0000000000000D+00
232  2.3100000000000D+00  0.0000000000000D+00  0.0000000000000D+00
233  2.3200000000000D+00  0.0000000000000D+00  0.0000000000000D+00
234  2.3300000000000D+00  0.0000000000000D+00  0.0000000000000D+00
235  2.3400000000000D+00  0.0000000000000D+00  0.0000000000000D+00
236  2.3500000000000D+00  0.0000000000000D+00  0.0000000000000D+00
237  2.3600000000000D+00  0.0000000000000D+00  0.0000000000000D+00
238  2.3700000000000D+00  0.0000000000000D+00  0.0000000000000D+00
239  2.3800000000000D+00  0.0000000000000D+00  0.0000000000000D+00
240  2.3900000000000D+00  0.0000000000000D+00  0.0000000000000D+00
241  2.4000000000000D+00  0.0000000000000D+00  0.0000000000000D+00
242  2.4100000000000D+00  0.0000000000000D+00  0.0000000000000D+00
243  2.4200000000000D+00  0.0000000000000D+00  0.0000000000000D+00
244  2.4300000000000D+00  0.0000000000000D+00  0.0000000000000D+00
245  2.4400000000000D+00  0.0000000000000D+00  0.0000000000000D+00
246  2.4500000000000D+00  0.0000000000000D+00  0.0000000000000D+00
247  2.4600000000000D+00  0.0000000000000D+00  0.0000000000000D+00
248  2.4700000000000D+00  0.0000000000000D+00  0.0000000000000D+00
249  2.4800000000000D+00  0.0000000000000D+00  0.0000000000000D+00
250  2.4900000000000D+00  0.0000000000000D+00  0.0000000000000D+00
251  2.5000000000000D+00  0.0000000000000D+00  0.0000000000000D+00
252  2.5100000000000D+00  0.0000000000000D+00  0.0000000000000D+00
253  2.5200000000000D+00  0.0000000000000D+00  0.0000000000000D+00
254  2.5300000000000D+00  0.0000000000000D+00  0.0000000000000D+00
255  2.5400000000000D+00  0.0000000000000D+00  0.0000000000000D+00
256  2.5500000000000D+00  0.0000000000000D+00  0.0000000000000D+00
257  2.5600000000000D+00  0.0000000000000D+00  0.0000000000000D+00
258  2.5700000000000D+00  0.0000000000000D+00  0.0000000000000D+00
259  2.5800000000000D+00  0.0000000000000D+00  0.0000000000000D+00
260  2.5900000000000D+00  0.0000000000000D+00  0.0000000000000D+00
261  2.6000000000000D+00  0.0000000000000D+00  0.0000000000000D+00
262  2.6100000000000D+00  0.0000000000000D+00  0.0000000000000D+00
263  2.6200000000000D+00  0.0000000000000D+00  0.0000000000000D+00
264  2.6300000000000D+00  0.0000000000000D+00  0.0000000000000D+00
265  2.6400000000000D+00  0.0000000000000D+00  0.0000000000000D+00
266  2.6500000000000D+00  0.0000000000000D+00  0.0000000000000D+00
267  2.6600000000000D+00  0.0000000000000D+00  0.0000000000000D+00
268  2.6700000000000D+00  0.0000000000000D+00  0.0000000000000D+00
269  2.6800000000000D+00  0.0000000000000D+00  0.0000000000000D+00
270  2.6900000000000D+00  0.0000000000000D+00  0.0000000000000D+00
271  2.7000000000000D+00  0.0000000000000D+00  0.0000000000000D+00
272  2.7100000000000D+00  0.0000000000000D+00  0.0000000000000D+00
273  2.7200000000000D+00  0.0000000000000D+00  0.0000000000000D+00
274  2.7300000000000D+00  0.0000000000000D+00  0.0000000000000D+00
275  2.7400000000000D+00  0.0000000000000D+00  0.0000000000000D+00
276  2.7500000000000D+00  0.0000000000000D+00  0.0000000000000D+00
277  2.7600000000000D+00  0.0000000000000D+00  0.0000000000000D+00
278  2.7700000000000D+00  0.0000000000000D+00  0.0000000000000D+00
279  2.7800000000000D+00  0.0000000000000D+00  0.0000000000000D+00
280  2.7900000000000D+00  0.0000000000000D+00  0.0000000000000D+00
281  2.8000000000000D+00  0.0000000000000D+00  0.0000000000000D+00
282  2.8100000000000D+00  0.0000000000000D+00  0.0000000000000D+00
283  2.8200000000000D+00  0.0000000000000D+00  0.0000000000000D+00
284  2.8300000000000D+00  0.0000000000000D+00  0.0000000000000D+00
285  2.8400000000000D+00  0.0000000000000D+00  0.0000000000000D+00
286  2.8500000000000D+00  0.0000000000000D+00  0.0000000000000D+00
287  2.8600000000000D+00  0.0000000000000D+00  0.0000000000000D+00
288  2.8700000000000D+00  0.0000000000000D+00  0.0000000000000D+00
289  2.8800000000000D+00  0.0000000000000D+00  0.0000000000000D+00
290  2.8900000000000D+00  0.0000000000000D+00  0.0000000000000D+00
291  2.9000000000000D+00  0.0000000000000D+00  0.0000000000000D+00
292  2.9100000000000D+00  0.0000000000000D+00  0.0000000000000D+00
293  2.9200000000000D+00  0.0000000000000D+00  0.0000000000000D+00
294  2.9300000000000D+00  0.0000000000000D+00  0.0000000000000D+00
295  2.9400000000000D+00  0.0000000000000D+00  0.0000000000000D+00
296  2.9500000000000D+00  0.0000000000000D+00  0.0000000000000D+00
297  2.9600000000000D+00  0.0000000000000D+00  0.0000000000000D+00
298  2.9700000000000D+00  0.0000000000000D+00  0.0000000000000D+00
299  2.9800000000000D+00  0.0000000000000D+00  0.0000000000000D+00
300  2.9900000000000D+00  0.0000000000000D+00  0.0000000000000D+00
301  3.0000000000000D+00  0.0000000000000D+00  0.0000000000000D+00
302  3.0100000000000D+00  0.0000000000000D+00  0.0000000000000D+00
303  3.0200000000000D+00  0.0000000000000D+00  0.0000000000000D+00
304  3.0300000000000D+00  0.0000000000000D+00  0.0000000000000D+00
305  3.0400000000000D+00  0.0000000000000D+00  0.0000000000000D+00
306  3.0500000000000D+00  0.0000000000000D+00  0.0000000000000D+00
307  3.0600000000000D+00  0.0000000000000D+00  0.0000000000000D+00
308  3.0700000000000D+00  0.0000000000000D+00  0.0000000000000D+00
309  3.0800000000000D+00  0.0000000000000D+00  0.0000000000000D+00
310  3.0900000000000D+00  0.0000000000000D+00  0.0000000000000D+00
311  3.1000000000000D+00  0.0000000000000D+00  0.0000000000000D+00
312  3.1100000000000D+00  0.0000000000000D+00  0.0000000000000D+00
313  3.1200000000000D+00  0.0000000000000D+00  0.0000000000000D+00
314  3.1300000000000D+00  0.0000000000000D+00  0.0000000000000D+00
315  3.1400000000000D+00  0.0000000000000D+00  0.0000000000000D+00
316  3.1500000000000D+00  0.0000000000000D+00  0.0000000000000D+00
317  3.1600000000000D+00  0.0000000000000D+00  0.0000000000000D+00
318  3.1700000000000D+00  0.0000000000000D+00  0.0000000000000D+00
319  3.1800000000000D+00  0.0000000000000D+00  0.0000000000000D+00
320  3.1900000000000D+00  0.0000000000000D+00  0.0000000000000D+00
321  3.2000000000000D+00  0.0000000000000D+00  0.0000000000000D+00
322  3.2100000000000D+00  0.0000000000000D+00  0.0000000000000D+00
323  3.2200000000000D+00  0.0000000000000D+00  0.0000000000000D+00
324  3.2300000000000D+00  0.0000000000000D+00  0.0000000000000D+00
325  3.2400000000000D+00  0.0000000000000D+00  0.0000000000000D+00
326  3.2500000000000D+00  0.0000000000000D+00  0.0000000000000D+00
327  3.2600000000000D+00  0.0000000000000D+00  0.0000000000000D+00
328  3.2700000000000D+00  0.0000000000000D+00  0.0000000000000D+00
329  3.2800000000000D+00  0.0000000000000D+00  0.0000000000000D+00
330  3.2900000000000D+00  0.0000000000000D+00  0.0000000000000D+00
331  3.3000000000000D+00  0.0000000000000D+00  0.0000000000000D+00
332  3.3100000000000D+00  0.0000000000000D+00  0.0000000000000D+00
333  3.3200000000000D+00  0.0000000000000D+00  0.0000000000000D+00
334  3.3300000000000D+00  0.0000000000000D+00  0.0000000000000D+00
335  3.3400000000000D+00  0.0000000000000D+00  0.0000000000000D+00
336  3.3500000000000D+00  0.0000000000000D+00  0.0000000000000D+00
337  3.3600000000000D+00  0.0000000000000D+00  0.0000000000000D+00
338  3.3700000000000D+00  0.0000000000000D+00  0.0000000000000D+00
339  3.3800000000000D+00  0.0000000000000D+00  0.0000000000000D+00
340  3.3900000000000D+00  0.0000000000000D+00  0.0000000000000D+00
341  3.4000000000000D+00  0.0000000000000D+00  0.0000000000000D+00
342  3.4100000000000D+00  0.0000000000000D+00  0.0000000000000D+00
343  3.4200000000000D+00  0.0000000000000D+00  0.0000000000000D+00
344  3.4300000000000D+00  0.0000000000000D+00  0.0000000000000D+00
345  3.4400000000000D+00  0.0000000000000D+00  0.0000000000000D+00
346  3.4500000000000D+00  0.0000000000000D+00  0.0000000000000D+00
347  3.4600000000000D+00  0.0000000000000D+00  0.0000000000000D+00
348  3.4700000000000D+00  0.0000000000000D+00  0.0000000000000D+00
349  3.4800000000000D+00  0.0000000000000D+00  0.0000000000000D+00
350  3.4900000000000D+00  0.0000000000000D+00  0.0000000000000D+00
351  3.5000000000000D+00  0.0000000000000D+00  0.0000000000000D+00
352  3.5100000000000D+00  0.0000000000000D+00  0.0000000000000D+00
353  3.5200000000000D+00  0.0000000000000D+00  0.0000000000000D+00
354  3.5300000000000D+00  0.0000000000000D+00  0.0000000000000D+00
355  3.5400000000000D+00  0.0000000000000D+00  0.0000000000000D+00
356  3.5500000000000D+00  0.0000000000000D+00  0.0000000000000D+00
357  3.5600000000000D+00  0.0000000000000D+00  0.0000000000000D+00
358  3.5700000000000D+00  0.0000000000000D+00  0.0000000000000D+00
359  3.5800000000000D+00  0.0000000000000D+00  0.0000000000000D+00
360  3.5900000000000D+00  0.0000000000000D+00  0.0000000000000D+00
361  3.6000000000000D+00  0.0000000000000D+00  0.0000000000000D+00
362  3.6100000000000D+00  0.0000000000000D+00  0.0000000000000D+00
363  3.6200000000000D+00  0.0000000000000D+00  0.0000000000000D+00
364  3.6300000000000D+00  0.0000000000000D+00  0.0000000000000D+00
365  3.6400000000000D+00  0.0000000000000D+00  0.0000000000000D+00
366  3.6500000000000D+00  0.0000000000000D+00  0.0000000000000D+00
367  3.6600000000000D+00  0.0000000000000D+00  0.0000000000000D+00
368  3.6700000000000D+00  0.0000000000000D+00  0.0000000000000D+00
369  3.6800000000000D+00  0.0000000000000D+00  0.0000000000000D+00
370  3.6900000000000D+00  0.0000000000000D+00  0.0000000000000D+00
371  3.7000000000000D+00  0.0000000000000D+00  0.0000000000000D+00
372  3.7100000000000D+00  0.0000000000000D+00  0.0000000000000D+00
373  3.7200000000000D+00  0.0000000000000D+00  0.0000000000000D+00
374  3.7300000000000D+00  0.0000000000000D+00  0.0000000000000D+00
375  3.7400000000000D+00  0.0000000000000D+00  0.0000000000000D+00
376  3.7500000000000D+00  0.0000000000000D+00  0.0000000000000D+00
377  3.7600000000000D+00  0.0000000000000D+00  0.0000000000000D+00
378  3.7700000000000D+00  0.0000000000000D+00  0.0000000000000D+00
379  3.7800000000000D+00  0.0000000000000D+00  0.0000000000000D+00
380  3.7900000000000D+00  0.0000000000000D+00  0.0000000000000D+00
381  3.8000000000000D+00  0.0000000000000D+00  0.0000000000000D+00
382  3.8100000000000D+00  0.0000000000000D+00  0.0000000000000D+00
383  3.8200000000000D+00  0.0000000000000D+00  0.0000000000000D+00
384  3.8300000000000D+00  0.0000000000000D+00  0.0000000000000D+00
385  3.8400000000000D+00  0.0000000000000D+00  0.0000000000000D+00
386  3.8500000000000D+00  0.0000000000000D+00  0.0000000000000D+00
387  3.8600000000000D+00  0.0000000000000D+00  0.0000000000000D+00
388  3.8700000000000D+00  0.0000000000000D+00  0.0000000000000D+00
389  3.8800000000000D+00  0.0000000000000D+00  0.0000000000000D+00
390  3.8900000000000D+00  0.0000000000000D+00  0.0000000000000D+00
391  3.9000000000000D+00  0.0000000000000D+00  0.0000000000000D+00
392  3.9100000000000D+00  0.0000000000000D+00  0.0000000000000D+00
393  3.9200000000000D+00  0.0000000000000D+00  0.0000000000000D+00
394  3.9300000000000D+00  0.0000000000000D+00  0.0000000000000D+00
395  3.9400000000000D+00  0.0000000000000D+00  0.0000000000000D+00
396  3.9500000000000D+00  0.0000000000000D+00  0.0000000000000D+00
397  3.9600000000000D+00  0.0000000000000D+00  0.0000000000000D+00
398  3.9700000000000D+00  0.0000000000000D+00  0.0000000000000D+00
399  3.9800000000000D+00  0.0000000000000D+00  0.0000000000000D+00
400  3.9900000000000D+00  0.0000000000000D+00  0.0000000000000D+00
1                        -5.3606961547758D+00 -1.6715109592033D+00
1  0.0000000000000D+00  1.4337082909766D-10 -1.5276296894129D-10
2  1.0000000000000D-02  1.6461949213876D-03 -7.0492970926767D-04
3  2.0000000000000D-02  6.5782562920202D-03 -2.8146361702487D-03
4  3.0000000000000D-02  1.4776637930268D-02 -6.3138948735966D-03
5  4.0000000000000D-02  2.6208842791556D-02 -1.1177409864920D-02
6  5.0000000000000D-02  4.0829542604416D-02 -1.7369930820622D-02
7  6.0000000000000D-02  5.8580744858674D-02 -2.4846416421979D-02
8  7.0000000000000D-02  7.9392006643696D-02 -3.3552243495296D-02
9  8.0000000000000D-02  1.0318069469127D-01 -4.3423461233221D-02
10  9.0000000000000D-02  1.2985229083477D-01 -5.4387089659918D-02
11  1.0000000000000D-01  1.5930074195349D-01 -6.6361461349796D-02
12  1.1000000000000D-01  1.9140885332871D-01 -7.9256605256566D-02
13  1.2000000000000D-01  2.2604872419642D-01 -9.2974671356446D-02
14  1.3000000000000D-01  2.6308222414062D-01 -1.0741039465648D-01
15  1.4000000000000D-01  3.0236150883121D-01 -1.2245159696642D-01
16  1.5000000000000D-01  3.4372957347175D-01 -1.3797972468085D-01
17  1.6000000000000D-01  3.8702084218535D-01 -1.5387042066735D-01
18  1.7000000000000D-01  4.3206179143168D-01 -1.6999412820690D-01
19  1.8000000000000D-01  4.7867160541533D-01 -1.8621672478528D-01
20  1.9000000000000D-01  5.2666286131557D-01 -2.0240018338884D-01
21  2.0000000000000D-01  5.7584224204087D-01 -2.1840325881560D-01
22  2.1000000000000D-01  6.2601127408844D-01 -2.3408219637452D-01
23  2.2000000000000D-01  6.7696708797052D-01 -2.4929146021088D-01
24  2.3000000000000D-01  7.2850319855542D-01 -2.6388447836735D-01
25  2.4000000000000D-01  7.8041030256340D-01 -2.7771440156688D-01
26  2.5000000000000D-01  8.3247709035574D-01 -2.9063487258760D-01
27  2.6000000000000D-01  8.8449106906089D-01 -3.0250080299180D-01
28  2.7000000000000D-01  9.3623939399447D-01 -3.1316915387163D-01
29  2.8000000000000D-01  9.8750970525188D-01 -3.2249971718443D-01
30  2.9000000000000D-01  1.0380909662830D+00 -3.3035589417237D-01
31  3.0000000000000D-01  1.0877743011996D+00 -3.3660546729370D-01
32  3.1000000000000D-01  1.1363538275174D+00 -3.4112136203960D-01
33  3.2000000000000D-01  1.1836274809990D+00 -3.4378239497008D-01
34  3.3000000000000D-01  1.2293978292388D+00 -3.4447400427787D-01
35  3.4000000000000D-01  1.2734728706188D+00 -3.4308895917952D-01
36  3.5000000000000D-01  1.3156668152682D+00 -3.3952804444095D-01
37  3.6000000000000D-01  1.3558008446747D+00 -3.3370071636950D-01
38  3.7000000000000D-01  1.3937038466266D+00 -3.2552572664830D-01
39  3.8000000000000D-01  1.4292131222117D+00 -3.1493171045157D-01
40  3.9000000000000D-01  1.4621750616610D+00 -3.0185773536136D-01
41  4.0000000000000D-01  1.4924457859032D+00 -2.8625380770928D-01
42  4.1000000000000D-01  1.5198917507904D+00 -2.6808133308965D-01
43  4.2000000000000D-01  1.5443903110673D+00 -2.4731352793414D-01