Mo    ONCVPSP-3.2.3  r_core=   1.45541   1.45541   1.35488
42.0000     14.0000      161006    zatom,zion,pspd
8   -1012   2     4   600     0    pspcod,pspxc,lmax,lloc,mmax,r2well
5.99000000  3.00000000  0.00000000    rchrg fchrg qchrg
2     2     2     0     0    nproj
1     1           extension_switch
0                         1.3853264266930D+01  1.3610315172768D+00
1  0.0000000000000D+00  1.8018075920168D-10 -4.6927103869443D-10
2  1.0000000000000D-02  5.6190150676787D-02 -1.8928869284483D-02
3  2.0000000000000D-02  1.1233768387632D-01 -3.7874720894100D-02
4  3.0000000000000D-02  1.6839959379312D-01 -5.6853435235944D-02
5  4.0000000000000D-02  2.2433210298646D-01 -7.5878701838477D-02
6  5.0000000000000D-02  2.8009028906960D-01 -9.4960956186144D-02
7  6.0000000000000D-02  3.3562772627904D-01 -1.1410635494845D-01
8  7.0000000000000D-02  3.9089614667086D-01 -1.3331580184738D-01
9  8.0000000000000D-02  4.4584512551103D-01 -1.5258403593762D-01
10  9.0000000000000D-02  5.0042179520419D-01 -1.7189879349438D-01
11  1.0000000000000D-01  5.5457059184202D-01 -1.9124005401793D-01
12  1.1000000000000D-01  6.0823303815105D-01 -2.1057938007873D-01
13  1.2000000000000D-01  6.6134756628209D-01 -2.2987935984680D-01
14  1.3000000000000D-01  7.1384938351269D-01 -2.4909316018335D-01
15  1.4000000000000D-01  7.6567038353336D-01 -2.6816419712682D-01
16  1.5000000000000D-01  8.1673910555990D-01 -2.8702592948984D-01
17  1.6000000000000D-01  8.6698074306329D-01 -3.0560178010693D-01
18  1.7000000000000D-01  9.1631720343738D-01 -3.2380518804379D-01
19  1.8000000000000D-01  9.6466721943783D-01 -3.4153979380968D-01
20  1.9000000000000D-01  1.0119465127273D+00 -3.5869975831404D-01
21  2.0000000000000D-01  1.0580680093563D+00 -3.7517021498854D-01
22  2.1000000000000D-01  1.1029421064992D+00 -3.9082785316840D-01
23  2.2000000000000D-01  1.1464769892575D+00 -4.0554162950168D-01
24  2.3000000000000D-01  1.1885789958415D+00 -4.1917360284668D-01
25  2.4000000000000D-01  1.2291530289452D+00 -4.3157988683412D-01
26  2.5000000000000D-01  1.2681030106562D+00 -4.4261171302748D-01
27  2.6000000000000D-01  1.3053323777805D+00 -4.5211659641964D-01
28  2.7000000000000D-01  1.3407446140237D+00 -4.5993959387127D-01
29  2.8000000000000D-01  1.3742438150659D+00 -4.6592464503455D-01
30  2.9000000000000D-01  1.4057352821822D+00 -4.6991598432683D-01
31  3.0000000000000D-01  1.4351261397213D+00 -4.7175961163159D-01
32  3.1000000000000D-01  1.4623259714434D+00 -4.7130480861835D-01
33  3.2000000000000D-01  1.4872474704576D+00 -4.6840568689731D-01
34  3.3000000000000D-01  1.5098070972699D+00 -4.6292275366595D-01
35  3.4000000000000D-01  1.5299257402834D+00 -4.5472448007034D-01
36  3.5000000000000D-01  1.5475293729587D+00 -4.4368885720023D-01
37  3.6000000000000D-01  1.5625497017672D+00 -4.2970492446700D-01
38  3.7000000000000D-01  1.5749247990419D+00 -4.1267425508263D-01
39  3.8000000000000D-01  1.5845997148542D+00 -3.9251238346781D-01
40  3.9000000000000D-01  1.5915270621259D+00 -3.6915015966900D-01
41  4.0000000000000D-01  1.5956675693106D+00 -3.4253501625828D-01
42  4.1000000000000D-01  1.5969905951647D+00 -3.1263213372436D-01
43  4.2000000000000D-01  1.5954746003591D+00 -2.7942549103635D-01
44  4.3000000000000D-01  1.5911075709656D+00 -2.4291878886882D-01
45  4.4000000000000D-01  1.5838873891814D+00 -2.0313623391268D-01
46  4.5000000000000D-01  1.5738221470318D+00 -1.6012317375592D-01
47  4.6000000000000D-01  1.5609303992090D+00 -1.1394657299075D-01
48  4.7000000000000D-01  1.5452413516607D+00 -6.4695322484266D-02
49  4.8000000000000D-01  1.5267949830386D+00 -1.2480375124132D-02
50  4.9000000000000D-01  1.5056420966394D+00  4.2565297188927D-02
51  5.0000000000000D-01  1.4818443010248D+00  1.0028692899768D-01
52  5.1000000000000D-01  1.4554739180826D+00  1.6050837129914D-01
53  5.2000000000000D-01  1.4266138178834D+00  2.2303268657625D-01
54  5.3000000000000D-01  1.3953571802970D+00  2.8764292765043D-01
55  5.4000000000000D-01  1.3618071839420D+00  3.5410309747108D-01
56  5.5000000000000D-01  1.3260766236624D+00  4.2215928527378D-01
57  5.6000000000000D-01  1.2882874583364D+00  4.9154097287089D-01
58  5.7000000000000D-01  1.2485702914243D+00  5.6196250320250D-01
59  5.8000000000000D-01  1.2070637872562D+00  6.3312470168394D-01
60  5.9000000000000D-01  1.1639140266227D+00  7.0471663936444D-01
61  6.0000000000000D-01  1.1192738057832D+00  7.7641752545919D-01
62  6.1000000000000D-01  1.0733018835107D+00  8.4789871546822D-01
63  6.2000000000000D-01  1.0261621812769D+00  9.1882581984685D-01
64  6.3000000000000D-01  9.7802294211162D-01  9.8886089706857D-01
65  6.4000000000000D-01  9.2905585406728D-01  1.0576647139326D+00
66  6.5000000000000D-01  8.7943514455855D-01  1.1248990551200D+00
67  6.6000000000000D-01  8.2933665213986D-01  1.1902290633147D+00
68  6.7000000000000D-01  7.7893688251732D-01  1.2533255906788D+00
69  6.8000000000000D-01  7.2841205576881D-01  1.3138675421165D+00
70  6.9000000000000D-01  6.7793715186191D-01  1.3715441905851D+00
71  7.0000000000000D-01  6.2768496161407D-01  1.4260574447126D+00
72  7.1000000000000D-01  5.7782515023069D-01  1.4771240491708D+00
73  7.2000000000000D-01  5.2852334048561D-01  1.5244776986202D+00
74  7.3000000000000D-01  4.7994022247347D-01  1.5678710466006D+00
75  7.4000000000000D-01  4.3223069666623D-01  1.6070775914688D+00
76  7.5000000000000D-01  3.8554305675077D-01  1.6418934223924D+00
77  7.6000000000000D-01  3.4001821840579D-01  1.6721388094840D+00
78  7.7000000000000D-01  2.9578899980648D-01  1.6976596233898D+00
79  7.8000000000000D-01  2.5297945922032D-01  1.7183285710268D+00
80  7.9000000000000D-01  2.1170429458416D-01  1.7340462356802D+00
81  8.0000000000000D-01  1.7206830943496D-01  1.7447419113081D+00
82  8.1000000000000D-01  1.3416594900942D-01  1.7503742226491D+00
83  8.2000000000000D-01  9.8080909735375D-02  1.7509315245625D+00
84  8.3000000000000D-01  6.3885824717341D-02  1.7464320759427D+00
85  8.4000000000000D-01  3.1642027174553D-02  1.7369239855142D+00
86  8.5000000000000D-01  1.3993931295281D-03  1.7224849288121D+00
87  8.6000000000000D-01 -2.6803736025961D-02  1.7032216376760D+00
88  8.7000000000000D-01 -5.2940551135163D-02  1.6792691655919D+00
89  8.8000000000000D-01 -7.6995693770314D-02  1.6507899342092D+00
90  8.9000000000000D-01 -9.8965096998409D-02  1.6179725683037D+00
91  9.0000000000000D-01 -1.1885575044683D-01  1.5810305283341D+00
92  9.1000000000000D-01 -1.3668539232111D-01  1.5402005515372D+00
93  9.2000000000000D-01 -1.5248213162193D-01  1.4957409141946D+00
94  9.3000000000000D-01 -1.6628400436900D-01  1.4479295292781D+00
95  9.4000000000000D-01 -1.7813846815954D-01  1.3970618951071D+00
96  9.5000000000000D-01 -1.8810183986344D-01  1.3434489119339D+00
97  9.6000000000000D-01 -1.9623868168135D-01  1.2874145844778D+00
98  9.7000000000000D-01 -2.0262114116145D-01  1.2292936293629D+00
99  9.8000000000000D-01 -2.0732825108151D-01  1.1694290071483D+00
100  9.9000000000000D-01 -2.1044519535326D-01  1.1081693991777D+00
101  1.0000000000000D+00 -2.1206254728824D-01  1.0458666498083D+00
102  1.0100000000000D+00 -2.1227548669024D-01  9.8287319470202D-01
103  1.0200000000000D+00 -2.1118300228694D-01  9.1953949576412D-01
104  1.0300000000000D+00 -2.0888708600097D-01  8.5621150301093D-01
105  1.0400000000000D+00 -2.0549192548140D-01  7.9322816313969D-01
106  1.0500000000000D+00 -2.0110310115562D-01  7.3091899379775D-01
107  1.0600000000000D+00 -1.9582679387851D-01  6.6960174173943D-01
108  1.0700000000000D+00 -1.8976900895124D-01  6.0958014181687D-01
109  1.0800000000000D+00 -1.8303482196699D-01  5.5114179253203D-01
110  1.0900000000000D+00 -1.7572765155423D-01  4.9455616241450D-01
111  1.1000000000000D+00 -1.6794856361083D-01  4.4007273974183D-01
112  1.1100000000000D+00 -1.5979561123771D-01  3.8791933672168D-01
113  1.1200000000000D+00 -1.5136321392936D-01  3.3830055694333D-01
114  1.1300000000000D+00 -1.4274157911561D-01  2.9139643328620D-01
115  1.1400000000000D+00 -1.3401616846636D-01  2.4736124111153D-01
116  1.1500000000000D+00 -1.2526721091665D-01  2.0632248999860D-01
117  1.1600000000000D+00 -1.1656926356885D-01  1.6838009456529D-01
118  1.1700000000000D+00 -1.0799082110029D-01  1.3360572314017D-01
119  1.1800000000000D+00 -9.9593973570959D-02  1.0204232060918D-01
120  1.1900000000000D+00 -9.1434112124152D-02  7.3703800418895D-02
121  1.2000000000000D+00 -8.3559681141105D-02  4.8574897660531D-02
122  1.2100000000000D+00 -7.6011974980751D-02  2.6611173779768D-02
123  1.2200000000000D+00 -6.8824975913885D-02  7.7391567514236D-03
124  1.2300000000000D+00 -6.2025236595794D-02 -8.1433646050366D-03
125  1.2400000000000D+00 -5.5631774983813D-02 -2.1167047022509D-02
126  1.2500000000000D+00 -4.9656117120792D-02 -3.1490036509647D-02
127  1.2600000000000D+00 -4.4101998616371D-02 -3.9298742322135D-02
128  1.2700000000000D+00 -3.8965776435062D-02 -4.4805153793214D-02
129  1.2800000000000D+00 -3.4237990289677D-02 -4.8238450896403D-02
130  1.2900000000000D+00 -2.9905210410287D-02 -4.9835915158101D-02
131  1.3000000000000D+00 -2.5951501771664D-02 -4.9836057724110D-02
132  1.3100000000000D+00 -2.2358752401776D-02 -4.8477670656325D-02
133  1.3200000000000D+00 -1.9107378724450D-02 -4.5996950871290D-02
134  1.3300000000000D+00 -1.6176948277974D-02 -4.2625066596307D-02
135  1.3400000000000D+00 -1.3546803787487D-02 -3.8585725751123D-02
136  1.3500000000000D+00 -1.1196659413915D-02 -3.4092879904083D-02
137  1.3600000000000D+00 -9.1071735264650D-03 -2.9348531109059D-02
138  1.3700000000000D+00 -7.2604896164687D-03 -2.4540673056434D-02
139  1.3800000000000D+00 -5.6407399867398D-03 -1.9841384037677D-02
140  1.3900000000000D+00 -4.2345072804578D-03 -1.5405087827366D-02
141  1.4000000000000D+00 -3.0312383798490D-03 -1.1367000324629D-02
142  1.4100000000000D+00 -2.0240651280462D-03 -7.8442118736030D-03
143  1.4200000000000D+00 -1.2079567851446D-03 -4.9230554884172D-03
144  1.4300000000000D+00 -5.8131054530051D-04 -2.6587221310992D-03
145  1.4400000000000D+00 -1.5681091868105D-04 -1.1778150822406D-03
146  1.4500000000000D+00  6.1930316531049D-05 -4.6259285741038D-04
147  1.4600000000000D+00  9.2124742986685D-05 -1.6168894539628D-04
148  1.4700000000000D+00  2.0431028508552D-05 -2.0907560185471D-05
149  1.4800000000000D+00 -1.5728357181925D-05  1.2430326278757D-05
150  1.4900000000000D+00 -1.2295363668587D-06  7.8211328758328D-07
151  1.5000000000000D+00  3.2485038778456D-06 -3.3996504012176D-06
152  1.5100000000000D+00 -8.9407420565228D-08  2.4651031650391D-07
153  1.5200000000000D+00 -2.4992657133493D-07  6.8908685445815D-07
154  1.5300000000000D+00  0.0000000000000D+00  0.0000000000000D+00
155  1.5400000000000D+00  0.0000000000000D+00  0.0000000000000D+00
156  1.5500000000000D+00  0.0000000000000D+00  0.0000000000000D+00
157  1.5600000000000D+00  0.0000000000000D+00  0.0000000000000D+00
158  1.5700000000000D+00  0.0000000000000D+00  0.0000000000000D+00
159  1.5800000000000D+00  0.0000000000000D+00  0.0000000000000D+00
160  1.5900000000000D+00  0.0000000000000D+00  0.0000000000000D+00
161  1.6000000000000D+00  0.0000000000000D+00  0.0000000000000D+00
162  1.6100000000000D+00  0.0000000000000D+00  0.0000000000000D+00
163  1.6200000000000D+00  0.0000000000000D+00  0.0000000000000D+00
164  1.6300000000000D+00  0.0000000000000D+00  0.0000000000000D+00
165  1.6400000000000D+00  0.0000000000000D+00  0.0000000000000D+00
166  1.6500000000000D+00  0.0000000000000D+00  0.0000000000000D+00
167  1.6600000000000D+00  0.0000000000000D+00  0.0000000000000D+00
168  1.6700000000000D+00  0.0000000000000D+00  0.0000000000000D+00
169  1.6800000000000D+00  0.0000000000000D+00  0.0000000000000D+00
170  1.6900000000000D+00  0.0000000000000D+00  0.0000000000000D+00
171  1.7000000000000D+00  0.0000000000000D+00  0.0000000000000D+00
172  1.7100000000000D+00  0.0000000000000D+00  0.0000000000000D+00
173  1.7200000000000D+00  0.0000000000000D+00  0.0000000000000D+00
174  1.7300000000000D+00  0.0000000000000D+00  0.0000000000000D+00
175  1.7400000000000D+00  0.0000000000000D+00  0.0000000000000D+00
176  1.7500000000000D+00  0.0000000000000D+00  0.0000000000000D+00
177  1.7600000000000D+00  0.0000000000000D+00  0.0000000000000D+00
178  1.7700000000000D+00  0.0000000000000D+00  0.0000000000000D+00
179  1.7800000000000D+00  0.0000000000000D+00  0.0000000000000D+00
180  1.7900000000000D+00  0.0000000000000D+00  0.0000000000000D+00
181  1.8000000000000D+00  0.0000000000000D+00  0.0000000000000D+00
182  1.8100000000000D+00  0.0000000000000D+00  0.0000000000000D+00
183  1.8200000000000D+00  0.0000000000000D+00  0.0000000000000D+00
184  1.8300000000000D+00  0.0000000000000D+00  0.0000000000000D+00
185  1.8400000000000D+00  0.0000000000000D+00  0.0000000000000D+00
186  1.8500000000000D+00  0.0000000000000D+00  0.0000000000000D+00
187  1.8600000000000D+00  0.0000000000000D+00  0.0000000000000D+00
188  1.8700000000000D+00  0.0000000000000D+00  0.0000000000000D+00
189  1.8800000000000D+00  0.0000000000000D+00  0.0000000000000D+00
190  1.8900000000000D+00  0.0000000000000D+00  0.0000000000000D+00
191  1.9000000000000D+00  0.0000000000000D+00  0.0000000000000D+00
192  1.9100000000000D+00  0.0000000000000D+00  0.0000000000000D+00
193  1.9200000000000D+00  0.0000000000000D+00  0.0000000000000D+00
194  1.9300000000000D+00  0.0000000000000D+00  0.0000000000000D+00
195  1.9400000000000D+00  0.0000000000000D+00  0.0000000000000D+00
196  1.9500000000000D+00  0.0000000000000D+00  0.0000000000000D+00
197  1.9600000000000D+00  0.0000000000000D+00  0.0000000000000D+00
198  1.9700000000000D+00  0.0000000000000D+00  0.0000000000000D+00
199  1.9800000000000D+00  0.0000000000000D+00  0.0000000000000D+00
200  1.9900000000000D+00  0.0000000000000D+00  0.0000000000000D+00
201  2.0000000000000D+00  0.0000000000000D+00  0.0000000000000D+00
202  2.0100000000000D+00  0.0000000000000D+00  0.0000000000000D+00
203  2.0200000000000D+00  0.0000000000000D+00  0.0000000000000D+00
204  2.0300000000000D+00  0.0000000000000D+00  0.0000000000000D+00
205  2.0400000000000D+00  0.0000000000000D+00  0.0000000000000D+00
206  2.0500000000000D+00  0.0000000000000D+00  0.0000000000000D+00
207  2.0600000000000D+00  0.0000000000000D+00  0.0000000000000D+00
208  2.0700000000000D+00  0.0000000000000D+00  0.0000000000000D+00
209  2.0800000000000D+00  0.0000000000000D+00  0.0000000000000D+00
210  2.0900000000000D+00  0.0000000000000D+00  0.0000000000000D+00
211  2.1000000000000D+00  0.0000000000000D+00  0.0000000000000D+00
212  2.1100000000000D+00  0.0000000000000D+00  0.0000000000000D+00
213  2.1200000000000D+00  0.0000000000000D+00  0.0000000000000D+00
214  2.1300000000000D+00  0.0000000000000D+00  0.0000000000000D+00
215  2.1400000000000D+00  0.0000000000000D+00  0.0000000000000D+00
216  2.1500000000000D+00  0.0000000000000D+00  0.0000000000000D+00
217  2.1600000000000D+00  0.0000000000000D+00  0.0000000000000D+00
218  2.1700000000000D+00  0.0000000000000D+00  0.0000000000000D+00
219  2.1800000000000D+00  0.0000000000000D+00  0.0000000000000D+00
220  2.1900000000000D+00  0.0000000000000D+00  0.0000000000000D+00
221  2.2000000000000D+00  0.0000000000000D+00  0.0000000000000D+00
222  2.2100000000000D+00  0.0000000000000D+00  0.0000000000000D+00
223  2.2200000000000D+00  0.0000000000000D+00  0.0000000000000D+00
224  2.2300000000000D+00  0.0000000000000D+00  0.0000000000000D+00
225  2.2400000000000D+00  0.0000000000000D+00  0.0000000000000D+00
226  2.2500000000000D+00  0.0000000000000D+00  0.0000000000000D+00
227  2.2600000000000D+00  0.0000000000000D+00  0.0000000000000D+00
228  2.2700000000000D+00  0.0000000000000D+00  0.0000000000000D+00
229  2.2800000000000D+00  0.0000000000000D+00  0.0000000000000D+00
230  2.2900000000000D+00  0.0000000000000D+00  0.0000000000000D+00
231  2.3000000000000D+00  0.0000000000000D+00  0.0000000000000D+00
232  2.3100000000000D+00  0.0000000000000D+00  0.0000000000000D+00
233  2.3200000000000D+00  0.0000000000000D+00  0.0000000000000D+00
234  2.3300000000000D+00  0.0000000000000D+00  0.0000000000000D+00
235  2.3400000000000D+00  0.0000000000000D+00  0.0000000000000D+00
236  2.3500000000000D+00  0.0000000000000D+00  0.0000000000000D+00
237  2.3600000000000D+00  0.0000000000000D+00  0.0000000000000D+00
238  2.3700000000000D+00  0.0000000000000D+00  0.0000000000000D+00
239  2.3800000000000D+00  0.0000000000000D+00  0.0000000000000D+00
240  2.3900000000000D+00  0.0000000000000D+00  0.0000000000000D+00
241  2.4000000000000D+00  0.0000000000000D+00  0.0000000000000D+00
242  2.4100000000000D+00  0.0000000000000D+00  0.0000000000000D+00
243  2.4200000000000D+00  0.0000000000000D+00  0.0000000000000D+00
244  2.4300000000000D+00  0.0000000000000D+00  0.0000000000000D+00
245  2.4400000000000D+00  0.0000000000000D+00  0.0000000000000D+00
246  2.4500000000000D+00  0.0000000000000D+00  0.0000000000000D+00
247  2.4600000000000D+00  0.0000000000000D+00  0.0000000000000D+00
248  2.4700000000000D+00  0.0000000000000D+00  0.0000000000000D+00
249  2.4800000000000D+00  0.0000000000000D+00  0.0000000000000D+00
250  2.4900000000000D+00  0.0000000000000D+00  0.0000000000000D+00
251  2.5000000000000D+00  0.0000000000000D+00  0.0000000000000D+00
252  2.5100000000000D+00  0.0000000000000D+00  0.0000000000000D+00
253  2.5200000000000D+00  0.0000000000000D+00  0.0000000000000D+00
254  2.5300000000000D+00  0.0000000000000D+00  0.0000000000000D+00
255  2.5400000000000D+00  0.0000000000000D+00  0.0000000000000D+00
256  2.5500000000000D+00  0.0000000000000D+00  0.0000000000000D+00
257  2.5600000000000D+00  0.0000000000000D+00  0.0000000000000D+00
258  2.5700000000000D+00  0.0000000000000D+00  0.0000000000000D+00
259  2.5800000000000D+00  0.0000000000000D+00  0.0000000000000D+00
260  2.5900000000000D+00  0.0000000000000D+00  0.0000000000000D+00
261  2.6000000000000D+00  0.0000000000000D+00  0.0000000000000D+00
262  2.6100000000000D+00  0.0000000000000D+00  0.0000000000000D+00
263  2.6200000000000D+00  0.0000000000000D+00  0.0000000000000D+00
264  2.6300000000000D+00  0.0000000000000D+00  0.0000000000000D+00
265  2.6400000000000D+00  0.0000000000000D+00  0.0000000000000D+00
266  2.6500000000000D+00  0.0000000000000D+00  0.0000000000000D+00
267  2.6600000000000D+00  0.0000000000000D+00  0.0000000000000D+00
268  2.6700000000000D+00  0.0000000000000D+00  0.0000000000000D+00
269  2.6800000000000D+00  0.0000000000000D+00  0.0000000000000D+00
270  2.6900000000000D+00  0.0000000000000D+00  0.0000000000000D+00
271  2.7000000000000D+00  0.0000000000000D+00  0.0000000000000D+00
272  2.7100000000000D+00  0.0000000000000D+00  0.0000000000000D+00
273  2.7200000000000D+00  0.0000000000000D+00  0.0000000000000D+00
274  2.7300000000000D+00  0.0000000000000D+00  0.0000000000000D+00
275  2.7400000000000D+00  0.0000000000000D+00  0.0000000000000D+00
276  2.7500000000000D+00  0.0000000000000D+00  0.0000000000000D+00
277  2.7600000000000D+00  0.0000000000000D+00  0.0000000000000D+00
278  2.7700000000000D+00  0.0000000000000D+00  0.0000000000000D+00
279  2.7800000000000D+00  0.0000000000000D+00  0.0000000000000D+00
280  2.7900000000000D+00  0.0000000000000D+00  0.0000000000000D+00
281  2.8000000000000D+00  0.0000000000000D+00  0.0000000000000D+00
282  2.8100000000000D+00  0.0000000000000D+00  0.0000000000000D+00
283  2.8200000000000D+00  0.0000000000000D+00  0.0000000000000D+00
284  2.8300000000000D+00  0.0000000000000D+00  0.0000000000000D+00
285  2.8400000000000D+00  0.0000000000000D+00  0.0000000000000D+00
286  2.8500000000000D+00  0.0000000000000D+00  0.0000000000000D+00
287  2.8600000000000D+00  0.0000000000000D+00  0.0000000000000D+00
288  2.8700000000000D+00  0.0000000000000D+00  0.0000000000000D+00
289  2.8800000000000D+00  0.0000000000000D+00  0.0000000000000D+00
290  2.8900000000000D+00  0.0000000000000D+00  0.0000000000000D+00
291  2.9000000000000D+00  0.0000000000000D+00  0.0000000000000D+00
292  2.9100000000000D+00  0.0000000000000D+00  0.0000000000000D+00
293  2.9200000000000D+00  0.0000000000000D+00  0.0000000000000D+00
294  2.9300000000000D+00  0.0000000000000D+00  0.0000000000000D+00
295  2.9400000000000D+00  0.0000000000000D+00  0.0000000000000D+00
296  2.9500000000000D+00  0.0000000000000D+00  0.0000000000000D+00
297  2.9600000000000D+00  0.0000000000000D+00  0.0000000000000D+00
298  2.9700000000000D+00  0.0000000000000D+00  0.0000000000000D+00
299  2.9800000000000D+00  0.0000000000000D+00  0.0000000000000D+00
300  2.9900000000000D+00  0.0000000000000D+00  0.0000000000000D+00
301  3.0000000000000D+00  0.0000000000000D+00  0.0000000000000D+00
302  3.0100000000000D+00  0.0000000000000D+00  0.0000000000000D+00
303  3.0200000000000D+00  0.0000000000000D+00  0.0000000000000D+00
304  3.0300000000000D+00  0.0000000000000D+00  0.0000000000000D+00
305  3.0400000000000D+00  0.0000000000000D+00  0.0000000000000D+00
306  3.0500000000000D+00  0.0000000000000D+00  0.0000000000000D+00
307  3.0600000000000D+00  0.0000000000000D+00  0.0000000000000D+00
308  3.0700000000000D+00  0.0000000000000D+00  0.0000000000000D+00
309  3.0800000000000D+00  0.0000000000000D+00  0.0000000000000D+00
310  3.0900000000000D+00  0.0000000000000D+00  0.0000000000000D+00
311  3.1000000000000D+00  0.0000000000000D+00  0.0000000000000D+00
312  3.1100000000000D+00  0.0000000000000D+00  0.0000000000000D+00
313  3.1200000000000D+00  0.0000000000000D+00  0.0000000000000D+00
314  3.1300000000000D+00  0.0000000000000D+00  0.0000000000000D+00
315  3.1400000000000D+00  0.0000000000000D+00  0.0000000000000D+00
316  3.1500000000000D+00  0.0000000000000D+00  0.0000000000000D+00
317  3.1600000000000D+00  0.0000000000000D+00  0.0000000000000D+00
318  3.1700000000000D+00  0.0000000000000D+00  0.0000000000000D+00
319  3.1800000000000D+00  0.0000000000000D+00  0.0000000000000D+00
320  3.1900000000000D+00  0.0000000000000D+00  0.0000000000000D+00
321  3.2000000000000D+00  0.0000000000000D+00  0.0000000000000D+00
322  3.2100000000000D+00  0.0000000000000D+00  0.0000000000000D+00
323  3.2200000000000D+00  0.0000000000000D+00  0.0000000000000D+00
324  3.2300000000000D+00  0.0000000000000D+00  0.0000000000000D+00
325  3.2400000000000D+00  0.0000000000000D+00  0.0000000000000D+00
326  3.2500000000000D+00  0.0000000000000D+00  0.0000000000000D+00
327  3.2600000000000D+00  0.0000000000000D+00  0.0000000000000D+00
328  3.2700000000000D+00  0.0000000000000D+00  0.0000000000000D+00
329  3.2800000000000D+00  0.0000000000000D+00  0.0000000000000D+00
330  3.2900000000000D+00  0.0000000000000D+00  0.0000000000000D+00
331  3.3000000000000D+00  0.0000000000000D+00  0.0000000000000D+00
332  3.3100000000000D+00  0.0000000000000D+00  0.0000000000000D+00
333  3.3200000000000D+00  0.0000000000000D+00  0.0000000000000D+00
334  3.3300000000000D+00  0.0000000000000D+00  0.0000000000000D+00
335  3.3400000000000D+00  0.0000000000000D+00  0.0000000000000D+00
336  3.3500000000000D+00  0.0000000000000D+00  0.0000000000000D+00
337  3.3600000000000D+00  0.0000000000000D+00  0.0000000000000D+00
338  3.3700000000000D+00  0.0000000000000D+00  0.0000000000000D+00
339  3.3800000000000D+00  0.0000000000000D+00  0.0000000000000D+00
340  3.3900000000000D+00  0.0000000000000D+00  0.0000000000000D+00
341  3.4000000000000D+00  0.0000000000000D+00  0.0000000000000D+00
342  3.4100000000000D+00  0.0000000000000D+00  0.0000000000000D+00
343  3.4200000000000D+00  0.0000000000000D+00  0.0000000000000D+00
344  3.4300000000000D+00  0.0000000000000D+00  0.0000000000000D+00
345  3.4400000000000D+00  0.0000000000000D+00  0.0000000000000D+00
346  3.4500000000000D+00  0.0000000000000D+00  0.0000000000000D+00
347  3.4600000000000D+00  0.0000000000000D+00  0.0000000000000D+00
348  3.4700000000000D+00  0.0000000000000D+00  0.0000000000000D+00
349  3.4800000000000D+00  0.0000000000000D+00  0.0000000000000D+00
350  3.4900000000000D+00  0.0000000000000D+00  0.0000000000000D+00
351  3.5000000000000D+00  0.0000000000000D+00  0.0000000000000D+00
352  3.5100000000000D+00  0.0000000000000D+00  0.0000000000000D+00
353  3.5200000000000D+00  0.0000000000000D+00  0.0000000000000D+00
354  3.5300000000000D+00  0.0000000000000D+00  0.0000000000000D+00
355  3.5400000000000D+00  0.0000000000000D+00  0.0000000000000D+00
356  3.5500000000000D+00  0.0000000000000D+00  0.0000000000000D+00
357  3.5600000000000D+00  0.0000000000000D+00  0.0000000000000D+00
358  3.5700000000000D+00  0.0000000000000D+00  0.0000000000000D+00
359  3.5800000000000D+00  0.0000000000000D+00  0.0000000000000D+00
360  3.5900000000000D+00  0.0000000000000D+00  0.0000000000000D+00
361  3.6000000000000D+00  0.0000000000000D+00  0.0000000000000D+00
362  3.6100000000000D+00  0.0000000000000D+00  0.0000000000000D+00
363  3.6200000000000D+00  0.0000000000000D+00  0.0000000000000D+00
364  3.6300000000000D+00  0.0000000000000D+00  0.0000000000000D+00
365  3.6400000000000D+00  0.0000000000000D+00  0.0000000000000D+00
366  3.6500000000000D+00  0.0000000000000D+00  0.0000000000000D+00
367  3.6600000000000D+00  0.0000000000000D+00  0.0000000000000D+00
368  3.6700000000000D+00  0.0000000000000D+00  0.0000000000000D+00
369  3.6800000000000D+00  0.0000000000000D+00  0.0000000000000D+00
370  3.6900000000000D+00  0.0000000000000D+00  0.0000000000000D+00
371  3.7000000000000D+00  0.0000000000000D+00  0.0000000000000D+00
372  3.7100000000000D+00  0.0000000000000D+00  0.0000000000000D+00
373  3.7200000000000D+00  0.0000000000000D+00  0.0000000000000D+00
374  3.7300000000000D+00  0.0000000000000D+00  0.0000000000000D+00
375  3.7400000000000D+00  0.0000000000000D+00  0.0000000000000D+00
376  3.7500000000000D+00  0.0000000000000D+00  0.0000000000000D+00
377  3.7600000000000D+00  0.0000000000000D+00  0.0000000000000D+00
378  3.7700000000000D+00  0.0000000000000D+00  0.0000000000000D+00
379  3.7800000000000D+00  0.0000000000000D+00  0.0000000000000D+00
380  3.7900000000000D+00  0.0000000000000D+00  0.0000000000000D+00
381  3.8000000000000D+00  0.0000000000000D+00  0.0000000000000D+00
382  3.8100000000000D+00  0.0000000000000D+00  0.0000000000000D+00
383  3.8200000000000D+00  0.0000000000000D+00  0.0000000000000D+00
384  3.8300000000000D+00  0.0000000000000D+00  0.0000000000000D+00
385  3.8400000000000D+00  0.0000000000000D+00  0.0000000000000D+00
386  3.8500000000000D+00  0.0000000000000D+00  0.0000000000000D+00
387  3.8600000000000D+00  0.0000000000000D+00  0.0000000000000D+00
388  3.8700000000000D+00  0.0000000000000D+00  0.0000000000000D+00
389  3.8800000000000D+00  0.0000000000000D+00  0.0000000000000D+00
390  3.8900000000000D+00  0.0000000000000D+00  0.0000000000000D+00
391  3.9000000000000D+00  0.0000000000000D+00  0.0000000000000D+00
392  3.9100000000000D+00  0.0000000000000D+00  0.0000000000000D+00
393  3.9200000000000D+00  0.0000000000000D+00  0.0000000000000D+00
394  3.9300000000000D+00  0.0000000000000D+00  0.0000000000000D+00
395  3.9400000000000D+00  0.0000000000000D+00  0.0000000000000D+00
396  3.9500000000000D+00  0.0000000000000D+00  0.0000000000000D+00
397  3.9600000000000D+00  0.0000000000000D+00  0.0000000000000D+00
398  3.9700000000000D+00  0.0000000000000D+00  0.0000000000000D+00
399  3.9800000000000D+00  0.0000000000000D+00  0.0000000000000D+00
400  3.9900000000000D+00  0.0000000000000D+00  0.0000000000000D+00
401  4.0000000000000D+00  0.0000000000000D+00  0.0000000000000D+00
402  4.0100000000000D+00  0.0000000000000D+00  0.0000000000000D+00
403  4.0200000000000D+00  0.0000000000000D+00  0.0000000000000D+00
404  4.0300000000000D+00  0.0000000000000D+00  0.0000000000000D+00
405  4.0400000000000D+00  0.0000000000000D+00  0.0000000000000D+00
406  4.0500000000000D+00  0.0000000000000D+00  0.0000000000000D+00
407  4.0600000000000D+00  0.0000000000000D+00  0.0000000000000D+00
408  4.0700000000000D+00  0.0000000000000D+00  0.0000000000000D+00
409  4.0800000000000D+00  0.0000000000000D+00  0.0000000000000D+00
410  4.0900000000000D+00  0.0000000000000D+00  0.0000000000000D+00
411  4.1000000000000D+00  0.0000000000000D+00  0.0000000000000D+00
412  4.1100000000000D+00  0.0000000000000D+00  0.0000000000000D+00
413  4.1200000000000D+00  0.0000000000000D+00  0.0000000000000D+00
414  4.1300000000000D+00  0.0000000000000D+00  0.0000000000000D+00
415  4.1400000000000D+00  0.0000000000000D+00  0.0000000000000D+00
416  4.1500000000000D+00  0.0000000000000D+00  0.0000000000000D+00
417  4.1600000000000D+00  0.0000000000000D+00  0.0000000000000D+00
418  4.1700000000000D+00  0.0000000000000D+00  0.0000000000000D+00
419  4.1800000000000D+00  0.0000000000000D+00  0.0000000000000D+00
420  4.1900000000000D+00  0.0000000000000D+00  0.0000000000000D+00
421  4.2000000000000D+00  0.0000000000000D+00  0.0000000000000D+00
422  4.2100000000000D+00  0.0000000000000D+00  0.0000000000000D+00
423  4.2200000000000D+00  0.0000000000000D+00  0.0000000000000D+00
424  4.2300000000000D+00  0.0000000000000D+00  0.0000000000000D+00
425  4.2400000000000D+00  0.0000000000000D+00  0.0000000000000D+00
426  4.2500000000000D+00  0.0000000000000D+00  0.0000000000000D+00
427  4.2600000000000D+00  0.0000000000000D+00  0.0000000000000D+00
428  4.2700000000000D+00  0.0000000000000D+00  0.0000000000000D+00
429  4.2800000000000D+00  0.0000000000000D+00  0.0000000000000D+00
430  4.2900000000000D+00  0.0000000000000D+00  0.0000000000000D+00
431  4.3000000000000D+00  0.0000000000000D+00  0.0000000000000D+00
432  4.3100000000000D+00  0.0000000000000D+00  0.0000000000000D+00
433  4.3200000000000D+00  0.0000000000000D+00  0.0000000000000D+00
434  4.3300000000000D+00  0.0000000000000D+00  0.0000000000000D+00
435  4.3400000000000D+00  0.0000000000000D+00  0.0000000000000D+00
436  4.3500000000000D+00  0.0000000000000D+00  0.0000000000000D+00
437  4.3600000000000D+00  0.0000000000000D+00  0.0000000000000D+00
438  4.3700000000000D+00  0.0000000000000D+00  0.0000000000000D+00
439  4.3800000000000D+00  0.0000000000000D+00  0.0000000000000D+00
440  4.3900000000000D+00  0.0000000000000D+00  0.0000000000000D+00
441  4.4000000000000D+00  0.0000000000000D+00  0.0000000000000D+00
442  4.4100000000000D+00  0.0000000000000D+00  0.0000000000000D+00
443  4.4200000000000D+00  0.0000000000000D+00  0.0000000000000D+00