Ca    ONCVPSP-3.2.3  r_core=   1.45885   1.45885   1.85192
20.0000     10.0000      161006    zatom,zion,pspd
8   -1012   2     4   400     0    pspcod,pspxc,lmax,lloc,mmax,r2well
3.99000000  6.00000000  0.00000000    rchrg fchrg qchrg
2     2     2     0     0    nproj
1     1           extension_switch
0                         9.6886392481884D+00  8.8945418963612D-01
1  0.0000000000000D+00 -5.7063453962058D-10  2.4172415735713D-09
2  1.0000000000000D-02  7.0352780933987D-02 -4.0367157535162D-02
3  2.0000000000000D-02  1.4053568208669D-01 -8.0421241812739D-02
4  3.0000000000000D-02  2.1037976907057D-01 -1.1985244394116D-01
5  4.0000000000000D-02  2.7971798765074D-01 -1.5835743962582D-01
6  5.0000000000000D-02  3.4838607738198D-01 -1.9564252175568D-01
7  6.0000000000000D-02  4.1622345393029D-01 -2.3142660307969D-01
8  7.0000000000000D-02  4.8307405032073D-01 -2.6544404854981D-01
9  8.0000000000000D-02  5.4878710792348D-01 -2.9744729932506D-01
10  9.0000000000000D-02  6.1321790868877D-01 -3.2720925338830D-01
11  1.0000000000000D-01  6.7622844095653D-01 -3.5452537118470D-01
12  1.1000000000000D-01  7.3768799208905D-01 -3.7921547859847D-01
13  1.2000000000000D-01  7.9747366218992D-01 -4.0112524388822D-01
14  1.3000000000000D-01  8.5547079426671D-01 -4.2012730984164D-01
15  1.4000000000000D-01  9.1157331735256D-01 -4.3612206732067D-01
16  1.5000000000000D-01  9.6568400030629D-01 -4.4903806148074D-01
17  1.6000000000000D-01  1.0177146152457D+00 -4.5883202719061D-01
18  1.7000000000000D-01  1.0675860108158D+00 -4.6548855547682D-01
19  1.8000000000000D-01  1.1152280967348D+00 -4.6901939809618D-01
20  1.9000000000000D-01  1.1605797422821D+00 -4.6946242252442D-01
21  2.0000000000000D-01  1.2035885925665D+00 -4.6688023466550D-01
22  2.1000000000000D-01  1.2442108075394D+00 -4.6135849136380D-01
23  2.2000000000000D-01  1.2824107297594D+00 -4.5300392926857D-01
24  2.3000000000000D-01  1.3181604878776D+00 -4.4194214069601D-01
25  2.4000000000000D-01  1.3514395436657D+00 -4.2831513079624D-01
26  2.5000000000000D-01  1.3822341911497D+00 -4.1227869350781D-01
27  2.6000000000000D-01  1.4105370170260D+00 -3.9399964642409D-01
28  2.7000000000000D-01  1.4363463320133D+00 -3.7365296676315D-01
29  2.8000000000000D-01  1.4596655831278D+00 -3.5141887209447D-01
30  2.9000000000000D-01  1.4805027570554D+00 -3.2747989030718D-01
31  3.0000000000000D-01  1.4988697848286D+00 -3.0201796349185D-01
32  3.1000000000000D-01  1.5147819578934D+00 -2.7521162994360D-01
33  3.2000000000000D-01  1.5282573653841D+00 -2.4723332738361D-01
34  3.3000000000000D-01  1.5393163619982D+00 -2.1824685874903D-01
35  3.4000000000000D-01  1.5479810753039D+00 -1.8840505954234D-01
36  3.5000000000000D-01  1.5542749606094D+00 -1.5784770278643D-01
37  3.6000000000000D-01  1.5582224106973D+00 -1.2669967414509D-01
38  3.7000000000000D-01  1.5598484267852D+00 -9.5069445781731D-02
39  3.8000000000000D-01  1.5591783560291D+00 -6.3047873099772D-02
40  3.9000000000000D-01  1.5562376997546D+00 -3.0707333695944D-02
41  4.0000000000000D-01  1.5510519953977D+00  1.8987772711739D-03
42  4.1000000000000D-01  1.5436467738801D+00  3.4736186468126D-02
43  4.2000000000000D-01  1.5340475928493D+00  6.7789513241078D-02
44  4.3000000000000D-01  1.5222801449061D+00  1.0106167428135D-01
45  4.4000000000000D-01  1.5083704386314D+00  1.3457293008547D-01
46  4.5000000000000D-01  1.4923450489392D+00  1.6835958676128D-01
47  4.6000000000000D-01  1.4742314320370D+00  2.0247237214472D-01
48  4.7000000000000D-01  1.4540582990882D+00  2.3697451037288D-01
49  4.8000000000000D-01  1.4318560415653D+00  2.7193952392703D-01
50  4.9000000000000D-01  1.4076572002678D+00  3.0744879664592D-01
51  5.0000000000000D-01  1.3814969690814D+00  3.4358893524068D-01
52  5.1000000000000D-01  1.3534137237774D+00  3.8044897036030D-01
53  5.2000000000000D-01  1.3234495655173D+00  4.1811744120154D-01
54  5.3000000000000D-01  1.2916508682432D+00  4.5667940998275D-01
55  5.4000000000000D-01  1.2580688188073D+00  4.9621345426622D-01
56  5.5000000000000D-01  1.2227599385361D+00  5.3678868608911D-01
57  5.6000000000000D-01  1.1857865749346D+00  5.7846184712524D-01
58  5.7000000000000D-01  1.1472173524219D+00  6.2127452863984D-01
59  5.8000000000000D-01  1.1071275713466D+00  6.6525056381446D-01
60  5.9000000000000D-01  1.0655995450549D+00  7.1039363811882D-01
61  6.0000000000000D-01  1.0227228654792D+00  7.5668516081323D-01
62  6.1000000000000D-01  9.7859458856115D-01  8.0408243739816D-01
63  6.2000000000000D-01  9.3331933181589D-01  8.5251717895452D-01
64  6.3000000000000D-01  8.8700927747810D-01  9.0189437983348D-01
65  6.4000000000000D-01  8.3978407591254D-01  9.5209159019832D-01
66  6.5000000000000D-01  7.9177064532781D-01  1.0029586044686D+00
67  6.6000000000000D-01  7.4310286526900D-01  1.0543175809018D+00
68  6.7000000000000D-01  6.9392116286268D-01  1.1059636014544D+00
69  6.8000000000000D-01  6.4437199234022D-01  1.1576656747132D+00
70  6.9000000000000D-01  5.9460720993294D-01  1.2091681782431D+00
71  7.0000000000000D-01  5.4478334780634D-01  1.2601927301981D+00
72  7.1000000000000D-01  4.9506079224343D-01  1.3104404736363D+00
73  7.2000000000000D-01  4.4560287280197D-01  1.3595947506591D+00
74  7.3000000000000D-01  3.9657487060135D-01  1.4073241374855D+00
75  7.4000000000000D-01  3.4814295524822D-01  1.4532858058572D+00
76  7.5000000000000D-01  3.0047306115193D-01  1.4971291708779D+00
77  7.6000000000000D-01  2.5372971509119D-01  1.5384997806153D+00
78  7.7000000000000D-01  2.0807482786520D-01  1.5770433985633D+00
79  7.8000000000000D-01  1.6366646366586D-01  1.6124102264957D+00
80  7.9000000000000D-01  1.2065760143908D-01  1.6442592123631D+00
81  8.0000000000000D-01  7.9194902946966D-02  1.6722623857589D+00
82  8.1000000000000D-01  3.9417502490850D-02  1.6961091621332D+00
83  8.2000000000000D-01  1.4558333016375D-03  1.7155105564089D+00
84  8.3000000000000D-01 -3.4569494555266D-02  1.7302032469567D+00
85  8.4000000000000D-01 -6.8548750277808D-02  1.7399534320205D+00
86  8.5000000000000D-01 -1.0038405851340D-01  1.7445604226585D+00
87  8.6000000000000D-01 -1.2999028248493D-01  1.7438599190345D+00
88  8.7000000000000D-01 -1.5729580186420D-01  1.7377269204541D+00
89  8.8000000000000D-01 -1.8224317433516D-01  1.7260782238282D+00
90  8.9000000000000D-01 -2.0478967108889D-01  1.7088744702212D+00
91  9.0000000000000D-01 -2.2490767794128D-01  1.6861217047312D+00
92  9.1000000000000D-01 -2.4258495534307D-01  1.6578724210901D+00
93  9.2000000000000D-01 -2.5782475224130D-01  1.6242260689693D+00
94  9.3000000000000D-01 -2.7064577052730D-01  1.5853290089530D+00
95  9.4000000000000D-01 -2.8108197864692D-01  1.5413739073981D+00
96  9.5000000000000D-01 -2.8918227482744D-01  1.4925985708270D+00
97  9.6000000000000D-01 -2.9501000226486D-01  1.4392842270014D+00
98  9.7000000000000D-01 -2.9864232050978D-01  1.3817532673596D+00
99  9.8000000000000D-01 -3.0016943909602D-01  1.3203664727079D+00
100  9.9000000000000D-01 -2.9969372126170D-01  1.2555197512764D+00
101  1.0000000000000D+00 -2.9732866728688D-01  1.1876404249661D+00
102  1.0100000000000D+00 -2.9319778853239D-01  1.1171831058876D+00
103  1.0200000000000D+00 -2.8743338470141D-01  1.0446252110853D+00
104  1.0300000000000D+00 -2.8017523811259D-01  9.7046216846634D-01
105  1.0400000000000D+00 -2.7156923988659D-01  8.9520237147902D-01
106  1.0500000000000D+00 -2.6176596378765D-01  8.1936194350517D-01
107  1.0600000000000D+00 -2.5091920424180D-01  7.4345937614789D-01
108  1.0700000000000D+00 -2.3918449545309D-01  6.6801010726645D-01
109  1.0800000000000D+00 -2.2671762881836D-01  5.9352110581874D-01
110  1.0900000000000D+00 -2.1367318580197D-01  5.2048553050294D-01
111  1.1000000000000D+00 -2.0020310329614D-01  4.4937752872137D-01
112  1.1100000000000D+00 -1.8645528795241D-01  3.8064724032641D-01
113  1.1200000000000D+00 -1.7257229533766D-01  3.1471606814822D-01
114  1.1300000000000D+00 -1.5869008876215D-01  2.5197227335970D-01
115  1.1400000000000D+00 -1.4493689168603D-01  1.9276695003088D-01
116  1.1500000000000D+00 -1.3143214619226D-01  1.3741042762032D-01
117  1.1600000000000D+00 -1.1828558852867D-01  8.6169144263410D-02
118  1.1700000000000D+00 -1.0559645092146D-01  3.9263026565182D-02
119  1.1800000000000D+00 -9.3452797605381D-02 -3.1365933893447D-03
120  1.1900000000000D+00 -8.1931000550212D-02 -4.0908502908266D-02
121  1.2000000000000D+00 -7.1095358594038D-02 -7.3982561606916D-02
122  1.2100000000000D+00 -6.0997861619629D-02 -1.0234007679195D-01
123  1.2200000000000D+00 -5.1678099844900D-02 -1.2601360198881D-01
124  1.2300000000000D+00 -4.3163315348014D-02 -1.4508617106875D-01
125  1.2400000000000D+00 -3.5468591188583D-02 -1.5968998746075D-01
126  1.2500000000000D+00 -2.8597172578050D-02 -1.7000459156009D-01
127  1.2600000000000D+00 -2.2540910921846D-02 -1.7625454395487D-01
128  1.2700000000000D+00 -1.7280819167674D-02 -1.7870667370157D-01
129  1.2800000000000D+00 -1.2787736486599D-02 -1.7766688748442D-01
130  1.2900000000000D+00 -9.0230564268816D-03 -1.7347676854240D-01
131  1.3000000000000D+00 -5.9396364313530D-03 -1.6650931614772D-01
132  1.3100000000000D+00 -3.4823918779405D-03 -1.5716646573747D-01
133  1.3200000000000D+00 -1.5897449056436D-03 -1.4587208059629D-01
134  1.3300000000000D+00 -1.9575760802432D-04 -1.3306129456535D-01
135  1.3400000000000D+00  7.6751975324784D-04 -1.1916925507414D-01
136  1.3500000000000D+00  1.3680860835636D-03 -1.0462208530721D-01
137  1.3600000000000D+00  1.6729226943683D-03 -8.9832841035212D-02
138  1.3700000000000D+00  1.7466425533022D-03 -7.5195830577580D-02
139  1.3800000000000D+00  1.6502642498496D-03 -6.1081554685594D-02
140  1.3900000000000D+00  1.4400501395523D-03 -4.7831907091527D-02
141  1.4000000000000D+00  1.1664434018831D-03 -3.5755799835894D-02
142  1.4100000000000D+00  8.7323857232148D-04 -2.5128166208613D-02
143  1.4200000000000D+00  5.9634765821864D-04 -1.6177634513857D-02
144  1.4300000000000D+00  3.6099020035597D-04 -9.0467077917186D-03
145  1.4400000000000D+00  1.9197948870190D-04 -3.9865115667963D-03
146  1.4500000000000D+00  1.0619268984340D-04 -1.1915245649919D-03
147  1.4600000000000D+00  6.3703955914518D-05 -1.2118890977046D-04
148  1.4700000000000D+00  2.0618341449970D-05  5.6206728967680D-05
149  1.4800000000000D+00 -4.3979463918287D-06 -2.0450484636470D-05
150  1.4900000000000D+00 -3.1007124230246D-06 -1.8979809379369D-05
151  1.5000000000000D+00  1.2521341161000D-06  4.1460458684743D-06
152  1.5100000000000D+00  4.1360740179214D-07  1.5806373429505D-06
153  1.5200000000000D+00 -1.9440594619198D-07  5.2377277578138D-07
154  1.5300000000000D+00 -4.7283517632849D-09  1.2739229310820D-08
155  1.5400000000000D+00  0.0000000000000D+00  0.0000000000000D+00
156  1.5500000000000D+00  0.0000000000000D+00  0.0000000000000D+00
157  1.5600000000000D+00  0.0000000000000D+00  0.0000000000000D+00
158  1.5700000000000D+00  0.0000000000000D+00  0.0000000000000D+00
159  1.5800000000000D+00  0.0000000000000D+00  0.0000000000000D+00
160  1.5900000000000D+00  0.0000000000000D+00  0.0000000000000D+00
161  1.6000000000000D+00  0.0000000000000D+00  0.0000000000000D+00
162  1.6100000000000D+00  0.0000000000000D+00  0.0000000000000D+00
163  1.6200000000000D+00  0.0000000000000D+00  0.0000000000000D+00
164  1.6300000000000D+00  0.0000000000000D+00  0.0000000000000D+00
165  1.6400000000000D+00  0.0000000000000D+00  0.0000000000000D+00
166  1.6500000000000D+00  0.0000000000000D+00  0.0000000000000D+00
167  1.6600000000000D+00  0.0000000000000D+00  0.0000000000000D+00
168  1.6700000000000D+00  0.0000000000000D+00  0.0000000000000D+00
169  1.6800000000000D+00  0.0000000000000D+00  0.0000000000000D+00
170  1.6900000000000D+00  0.0000000000000D+00  0.0000000000000D+00
171  1.7000000000000D+00  0.0000000000000D+00  0.0000000000000D+00
172  1.7100000000000D+00  0.0000000000000D+00  0.0000000000000D+00
173  1.7200000000000D+00  0.0000000000000D+00  0.0000000000000D+00
174  1.7300000000000D+00  0.0000000000000D+00  0.0000000000000D+00
175  1.7400000000000D+00  0.0000000000000D+00  0.0000000000000D+00
176  1.7500000000000D+00  0.0000000000000D+00  0.0000000000000D+00
177  1.7600000000000D+00  0.0000000000000D+00  0.0000000000000D+00
178  1.7700000000000D+00  0.0000000000000D+00  0.0000000000000D+00
179  1.7800000000000D+00  0.0000000000000D+00  0.0000000000000D+00
180  1.7900000000000D+00  0.0000000000000D+00  0.0000000000000D+00
181  1.8000000000000D+00  0.0000000000000D+00  0.0000000000000D+00
182  1.8100000000000D+00  0.0000000000000D+00  0.0000000000000D+00
183  1.8200000000000D+00  0.0000000000000D+00  0.0000000000000D+00
184  1.8300000000000D+00  0.0000000000000D+00  0.0000000000000D+00
185  1.8400000000000D+00  0.0000000000000D+00  0.0000000000000D+00
186  1.8500000000000D+00  0.0000000000000D+00  0.0000000000000D+00
187  1.8600000000000D+00  0.0000000000000D+00  0.0000000000000D+00
188  1.8700000000000D+00  0.0000000000000D+00  0.0000000000000D+00
189  1.8800000000000D+00  0.0000000000000D+00  0.0000000000000D+00
190  1.8900000000000D+00  0.0000000000000D+00  0.0000000000000D+00
191  1.9000000000000D+00  0.0000000000000D+00  0.0000000000000D+00
192  1.9100000000000D+00  0.0000000000000D+00  0.0000000000000D+00
193  1.9200000000000D+00  0.0000000000000D+00  0.0000000000000D+00
194  1.9300000000000D+00  0.0000000000000D+00  0.0000000000000D+00
195  1.9400000000000D+00  0.0000000000000D+00  0.0000000000000D+00
196  1.9500000000000D+00  0.0000000000000D+00  0.0000000000000D+00
197  1.9600000000000D+00  0.0000000000000D+00  0.0000000000000D+00
198  1.9700000000000D+00  0.0000000000000D+00  0.0000000000000D+00
199  1.9800000000000D+00  0.0000000000000D+00  0.0000000000000D+00
200  1.9900000000000D+00  0.0000000000000D+00  0.0000000000000D+00
201  2.0000000000000D+00  0.0000000000000D+00  0.0000000000000D+00
202  2.0100000000000D+00  0.0000000000000D+00  0.0000000000000D+00
203  2.0200000000000D+00  0.0000000000000D+00  0.0000000000000D+00
204  2.0300000000000D+00  0.0000000000000D+00  0.0000000000000D+00
205  2.0400000000000D+00  0.0000000000000D+00  0.0000000000000D+00
206  2.0500000000000D+00  0.0000000000000D+00  0.0000000000000D+00
207  2.0600000000000D+00  0.0000000000000D+00  0.0000000000000D+00
208  2.0700000000000D+00  0.0000000000000D+00  0.0000000000000D+00
209  2.0800000000000D+00  0.0000000000000D+00  0.0000000000000D+00
210  2.0900000000000D+00  0.0000000000000D+00  0.0000000000000D+00
211  2.1000000000000D+00  0.0000000000000D+00  0.0000000000000D+00
212  2.1100000000000D+00  0.0000000000000D+00  0.0000000000000D+00
213  2.1200000000000D+00  0.0000000000000D+00  0.0000000000000D+00
214  2.1300000000000D+00  0.0000000000000D+00  0.0000000000000D+00
215  2.1400000000000D+00  0.0000000000000D+00  0.0000000000000D+00
216  2.1500000000000D+00  0.0000000000000D+00  0.0000000000000D+00
217  2.1600000000000D+00  0.0000000000000D+00  0.0000000000000D+00
218  2.1700000000000D+00  0.0000000000000D+00  0.0000000000000D+00
219  2.1800000000000D+00  0.0000000000000D+00  0.0000000000000D+00
220  2.1900000000000D+00  0.0000000000000D+00  0.0000000000000D+00
221  2.2000000000000D+00  0.0000000000000D+00  0.0000000000000D+00
222  2.2100000000000D+00  0.0000000000000D+00  0.0000000000000D+00
223  2.2200000000000D+00  0.0000000000000D+00  0.0000000000000D+00
224  2.2300000000000D+00  0.0000000000000D+00  0.0000000000000D+00
225  2.2400000000000D+00  0.0000000000000D+00  0.0000000000000D+00
226  2.2500000000000D+00  0.0000000000000D+00  0.0000000000000D+00
227  2.2600000000000D+00  0.0000000000000D+00  0.0000000000000D+00
228  2.2700000000000D+00  0.0000000000000D+00  0.0000000000000D+00
229  2.2800000000000D+00  0.0000000000000D+00  0.0000000000000D+00
230  2.2900000000000D+00  0.0000000000000D+00  0.0000000000000D+00
231  2.3000000000000D+00  0.0000000000000D+00  0.0000000000000D+00
232  2.3100000000000D+00  0.0000000000000D+00  0.0000000000000D+00
233  2.3200000000000D+00  0.0000000000000D+00  0.0000000000000D+00
234  2.3300000000000D+00  0.0000000000000D+00  0.0000000000000D+00
235  2.3400000000000D+00  0.0000000000000D+00  0.0000000000000D+00
236  2.3500000000000D+00  0.0000000000000D+00  0.0000000000000D+00
237  2.3600000000000D+00  0.0000000000000D+00  0.0000000000000D+00
238  2.3700000000000D+00  0.0000000000000D+00  0.0000000000000D+00
239  2.3800000000000D+00  0.0000000000000D+00  0.0000000000000D+00
240  2.3900000000000D+00  0.0000000000000D+00  0.0000000000000D+00
241  2.4000000000000D+00  0.0000000000000D+00  0.0000000000000D+00
242  2.4100000000000D+00  0.0000000000000D+00  0.0000000000000D+00
243  2.4200000000000D+00  0.0000000000000D+00  0.0000000000000D+00
244  2.4300000000000D+00  0.0000000000000D+00  0.0000000000000D+00
245  2.4400000000000D+00  0.0000000000000D+00  0.0000000000000D+00
246  2.4500000000000D+00  0.0000000000000D+00  0.0000000000000D+00
247  2.4600000000000D+00  0.0000000000000D+00  0.0000000000000D+00
248  2.4700000000000D+00  0.0000000000000D+00  0.0000000000000D+00
249  2.4800000000000D+00  0.0000000000000D+00  0.0000000000000D+00
250  2.4900000000000D+00  0.0000000000000D+00  0.0000000000000D+00
251  2.5000000000000D+00  0.0000000000000D+00  0.0000000000000D+00
252  2.5100000000000D+00  0.0000000000000D+00  0.0000000000000D+00
253  2.5200000000000D+00  0.0000000000000D+00  0.0000000000000D+00
254  2.5300000000000D+00  0.0000000000000D+00  0.0000000000000D+00
255  2.5400000000000D+00  0.0000000000000D+00  0.0000000000000D+00
256  2.5500000000000D+00  0.0000000000000D+00  0.0000000000000D+00
257  2.5600000000000D+00  0.0000000000000D+00  0.0000000000000D+00
258  2.5700000000000D+00  0.0000000000000D+00  0.0000000000000D+00
259  2.5800000000000D+00  0.0000000000000D+00  0.0000000000000D+00
260  2.5900000000000D+00  0.0000000000000D+00  0.0000000000000D+00
261  2.6000000000000D+00  0.0000000000000D+00  0.0000000000000D+00
262  2.6100000000000D+00  0.0000000000000D+00  0.0000000000000D+00
263  2.6200000000000D+00  0.0000000000000D+00  0.0000000000000D+00
264  2.6300000000000D+00  0.0000000000000D+00  0.0000000000000D+00
265  2.6400000000000D+00  0.0000000000000D+00  0.0000000000000D+00
266  2.6500000000000D+00  0.0000000000000D+00  0.0000000000000D+00
267  2.6600000000000D+00  0.0000000000000D+00  0.0000000000000D+00
268  2.6700000000000D+00  0.0000000000000D+00  0.0000000000000D+00
269  2.6800000000000D+00  0.0000000000000D+00  0.0000000000000D+00
270  2.6900000000000D+00  0.0000000000000D+00  0.0000000000000D+00
271  2.7000000000000D+00  0.0000000000000D+00  0.0000000000000D+00
272  2.7100000000000D+00  0.0000000000000D+00  0.0000000000000D+00
273  2.7200000000000D+00  0.0000000000000D+00  0.0000000000000D+00
274  2.7300000000000D+00  0.0000000000000D+00  0.0000000000000D+00
275  2.7400000000000D+00  0.0000000000000D+00  0.0000000000000D+00
276  2.7500000000000D+00  0.0000000000000D+00  0.0000000000000D+00
277  2.7600000000000D+00  0.0000000000000D+00  0.0000000000000D+00
278  2.7700000000000D+00  0.0000000000000D+00  0.0000000000000D+00
279  2.7800000000000D+00  0.0000000000000D+00  0.0000000000000D+00
280  2.7900000000000D+00  0.0000000000000D+00  0.0000000000000D+00
281  2.8000000000000D+00  0.0000000000000D+00  0.0000000000000D+00
282  2.8100000000000D+00  0.0000000000000D+00  0.0000000000000D+00
283  2.8200000000000D+00  0.0000000000000D+00  0.0000000000000D+00
284  2.8300000000000D+00  0.0000000000000D+00  0.0000000000000D+00
285  2.8400000000000D+00  0.0000000000000D+00  0.0000000000000D+00
286  2.8500000000000D+00  0.0000000000000D+00  0.0000000000000D+00
287  2.8600000000000D+00  0.0000000000000D+00  0.0000000000000D+00
288  2.8700000000000D+00  0.0000000000000D+00  0.0000000000000D+00
289  2.8800000000000D+00  0.0000000000000D+00  0.0000000000000D+00
290  2.8900000000000D+00  0.0000000000000D+00  0.0000000000000D+00
291  2.9000000000000D+00  0.0000000000000D+00  0.0000000000000D+00
292  2.9100000000000D+00  0.0000000000000D+00  0.0000000000000D+00
293  2.9200000000000D+00  0.0000000000000D+00  0.0000000000000D+00
294  2.9300000000000D+00  0.0000000000000D+00  0.0000000000000D+00
295  2.9400000000000D+00  0.0000000000000D+00  0.0000000000000D+00
296  2.9500000000000D+00  0.0000000000000D+00  0.0000000000000D+00
297  2.9600000000000D+00  0.0000000000000D+00  0.0000000000000D+00
298  2.9700000000000D+00  0.0000000000000D+00  0.0000000000000D+00
299  2.9800000000000D+00  0.0000000000000D+00  0.0000000000000D+00
300  2.9900000000000D+00  0.0000000000000D+00  0.0000000000000D+00
301  3.0000000000000D+00  0.0000000000000D+00  0.0000000000000D+00
302  3.0100000000000D+00  0.0000000000000D+00  0.0000000000000D+00
303  3.0200000000000D+00  0.0000000000000D+00  0.0000000000000D+00
304  3.0300000000000D+00  0.0000000000000D+00  0.0000000000000D+00
305  3.0400000000000D+00  0.0000000000000D+00  0.0000000000000D+00
306  3.0500000000000D+00  0.0000000000000D+00  0.0000000000000D+00
307  3.0600000000000D+00  0.0000000000000D+00  0.0000000000000D+00
308  3.0700000000000D+00  0.0000000000000D+00  0.0000000000000D+00
309  3.0800000000000D+00  0.0000000000000D+00  0.0000000000000D+00
310  3.0900000000000D+00  0.0000000000000D+00  0.0000000000000D+00
311  3.1000000000000D+00  0.0000000000000D+00  0.0000000000000D+00
312  3.1100000000000D+00  0.0000000000000D+00  0.0000000000000D+00
313  3.1200000000000D+00  0.0000000000000D+00  0.0000000000000D+00
314  3.1300000000000D+00  0.0000000000000D+00  0.0000000000000D+00
315  3.1400000000000D+00  0.0000000000000D+00  0.0000000000000D+00
316  3.1500000000000D+00  0.0000000000000D+00  0.0000000000000D+00
317  3.1600000000000D+00  0.0000000000000D+00  0.0000000000000D+00
318  3.1700000000000D+00  0.0000000000000D+00  0.0000000000000D+00
319  3.1800000000000D+00  0.0000000000000D+00  0.0000000000000D+00
320  3.1900000000000D+00  0.0000000000000D+00  0.0000000000000D+00
321  3.2000000000000D+00  0.0000000000000D+00  0.0000000000000D+00
322  3.2100000000000D+00  0.0000000000000D+00  0.0000000000000D+00
323  3.2200000000000D+00  0.0000000000000D+00  0.0000000000000D+00
324  3.2300000000000D+00  0.0000000000000D+00  0.0000000000000D+00
325  3.2400000000000D+00  0.0000000000000D+00  0.0000000000000D+00
326  3.2500000000000D+00  0.0000000000000D+00  0.0000000000000D+00
327  3.2600000000000D+00  0.0000000000000D+00  0.0000000000000D+00
328  3.2700000000000D+00  0.0000000000000D+00  0.0000000000000D+00
329  3.2800000000000D+00  0.0000000000000D+00  0.0000000000000D+00
330  3.2900000000000D+00  0.0000000000000D+00  0.0000000000000D+00
331  3.3000000000000D+00  0.0000000000000D+00  0.0000000000000D+00
332  3.3100000000000D+00  0.0000000000000D+00  0.0000000000000D+00
333  3.3200000000000D+00  0.0000000000000D+00  0.0000000000000D+00
334  3.3300000000000D+00  0.0000000000000D+00  0.0000000000000D+00
335  3.3400000000000D+00  0.0000000000000D+00  0.0000000000000D+00
336  3.3500000000000D+00  0.0000000000000D+00  0.0000000000000D+00
337  3.3600000000000D+00  0.0000000000000D+00  0.0000000000000D+00
338  3.3700000000000D+00  0.0000000000000D+00  0.0000000000000D+00
339  3.3800000000000D+00  0.0000000000000D+00  0.0000000000000D+00
340  3.3900000000000D+00  0.0000000000000D+00  0.0000000000000D+00
341  3.4000000000000D+00  0.0000000000000D+00  0.0000000000000D+00
342  3.4100000000000D+00  0.0000000000000D+00  0.0000000000000D+00
343  3.4200000000000D+00  0.0000000000000D+00  0.0000000000000D+00
344  3.4300000000000D+00  0.0000000000000D+00  0.0000000000000D+00
345  3.4400000000000D+00  0.0000000000000D+00  0.0000000000000D+00
346  3.4500000000000D+00  0.0000000000000D+00  0.0000000000000D+00
347  3.4600000000000D+00  0.0000000000000D+00  0.0000000000000D+00
348  3.4700000000000D+00  0.0000000000000D+00  0.0000000000000D+00
349  3.4800000000000D+00  0.0000000000000D+00  0.0000000000000D+00
350  3.4900000000000D+00  0.0000000000000D+00  0.0000000000000D+00
351  3.5000000000000D+00  0.0000000000000D+00  0.0000000000000D+00
352  3.5100000000000D+00  0.0000000000000D+00  0.0000000000000D+00
353  3.5200000000000D+00  0.0000000000000D+00  0.0000000000000D+00
354  3.5300000000000D+00  0.0000000000000D+00  0.0000000000000D+00
355  3.5400000000000D+00  0.0000000000000D+00  0.0000000000000D+00
356  3.5500000000000D+00  0.0000000000000D+00  0.0000000000000D+00
357  3.5600000000000D+00  0.0000000000000D+00  0.0000000000000D+00
358  3.5700000000000D+00  0.0000000000000D+00  0.0000000000000D+00
359  3.5800000000000D+00  0.0000000000000D+00  0.0000000000000D+00
360  3.5900000000000D+00  0.0000000000000D+00  0.0000000000000D+00
361  3.6000000000000D+00  0.0000000000000D+00  0.0000000000000D+00
362  3.6100000000000D+00  0.0000000000000D+00  0.0000000000000D+00
363  3.6200000000000D+00  0.0000000000000D+00  0.0000000000000D+00
364  3.6300000000000D+00  0.0000000000000D+00  0.0000000000000D+00
365  3.6400000000000D+00  0.0000000000000D+00  0.0000000000000D+00
366  3.6500000000000D+00  0.0000000000000D+00  0.0000000000000D+00
367  3.6600000000000D+00  0.0000000000000D+00  0.0000000000000D+00
368  3.6700000000000D+00  0.0000000000000D+00  0.0000000000000D+00
369  3.6800000000000D+00  0.0000000000000D+00  0.0000000000000D+00
370  3.6900000000000D+00  0.0000000000000D+00  0.0000000000000D+00
371  3.7000000000000D+00  0.0000000000000D+00  0.0000000000000D+00
372  3.7100000000000D+00  0.0000000000000D+00  0.0000000000000D+00
373  3.7200000000000D+00  0.0000000000000D+00  0.0000000000000D+00
374  3.7300000000000D+00  0.0000000000000D+00  0.0000000000000D+00
375  3.7400000000000D+00  0.0000000000000D+00  0.0000000000000D+00
376  3.7500000000000D+00  0.0000000000000D+00  0.0000000000000D+00
377  3.7600000000000D+00  0.0000000000000D+00  0.0000000000000D+00
378  3.7700000000000D+00  0.0000000000000D+00  0.0000000000000D+00
379  3.7800000000000D+00  0.0000000000000D+00  0.0000000000000D+00
380  3.7900000000000D+00  0.0000000000000D+00  0.0000000000000D+00
381  3.8000000000000D+00  0.0000000000000D+00  0.0000000000000D+00
382  3.8100000000000D+00  0.0000000000000D+00  0.0000000000000D+00
383  3.8200000000000D+00  0.0000000000000D+00  0.0000000000000D+00
384  3.8300000000000D+00  0.0000000000000D+00  0.0000000000000D+00
385  3.8400000000000D+00  0.0000000000000D+00  0.0000000000000D+00
386  3.8500000000000D+00  0.0000000000000D+00  0.0000000000000D+00
387  3.8600000000000D+00  0.0000000000000D+00  0.0000000000000D+00
388  3.8700000000000D+00  0.0000000000000D+00  0.0000000000000D+00
389  3.8800000000000D+00  0.0000000000000D+00  0.0000000000000D+00
390  3.8900000000000D+00  0.0000000000000D+00  0.0000000000000D+00
391  3.9000000000000D+00  0.0000000000000D+00  0.0000000000000D+00
392  3.9100000000000D+00  0.0000000000000D+00  0.0000000000000D+00
393  3.9200000000000D+00  0.0000000000000D+00  0.0000000000000D+00
394  3.9300000000000D+00  0.0000000000000D+00  0.0000000000000D+00
395  3.9400000000000D+00  0.0000000000000D+00  0.0000000000000D+00
396  3.9500000000000D+00  0.0000000000000D+00  0.0000000000000D+00
397  3.9600000000000D+00  0.0000000000000D+00  0.0000000000000D+00
398  3.9700000000000D+00  0.0000000000000D+00  0.0000000000000D+00
399  3.9800000000000D+00  0.0000000000000D+00  0.0000000000000D+00
400  3.9900000000000D+00  0.0000000000000D+00  0.0000000000000D+00
1                         2.7819177428153D+00  5.6378240201819D-01
1  0.0000000000000D+00  1.5944901760045D-08 -3.2821889039969D-08
2  1.0000000000000D-02  2.5378772530779D-03 -2.1477506839453D-03
3  2.0000000000000D-02  1.0119080946051D-02 -8.5348075906222D-03
4  3.0000000000000D-02  2.2646864666220D-02 -1.8993660406842D-02
5  4.0000000000000D-02  3.9961767836870D-02 -3.3248690108250D-02
6  5.0000000000000D-02  6.1844258921925D-02 -5.0921450338974D-02
7  6.0000000000000D-02  8.8018372538890D-02 -7.1537930753014D-02
8  7.0000000000000D-02  1.1815627838051D-01 -9.4537674372677D-02
9  8.0000000000000D-02  1.5188370390070D-01 -1.1928458819745D-01
10  9.0000000000000D-02  1.8878611808168D-01 -1.4507925618710D-01
11  1.0000000000000D-01  2.2841557051551D-01 -1.7117253686087D-01
12  1.1000000000000D-01  2.7029806872299D-01 -1.9678020455614D-01
13  1.2000000000000D-01  3.1394136729000D-01 -2.2109837427386D-01
14  1.3000000000000D-01  3.5884303518370D-01 -2.4331943533396D-01
15  1.4000000000000D-01  4.0449866264454D-01 -2.6264820903192D-01
16  1.5000000000000D-01  4.5041006642174D-01 -2.7831804030591D-01
17  1.6000000000000D-01  4.9609335187873D-01 -2.8960653319527D-01
18  1.7000000000000D-01  5.4108669265167D-01 -2.9585064461401D-01
19  1.8000000000000D-01  5.8495769306730D-01 -2.9646086061286D-01
20  1.9000000000000D-01  6.2731020534850D-01 -2.9093419371631D-01
21  2.0000000000000D-01  6.6779048264749D-01 -2.7886575886985D-01
22  2.1000000000000D-01  7.0609256000598D-01 -2.5995870871917D-01
23  2.2000000000000D-01  7.4196276826771D-01 -2.3403233599162D-01
24  2.3000000000000D-01  7.7520330055443D-01 -2.0102818122491D-01
25  2.4000000000000D-01  8.0567476692072D-01 -1.6101401749153D-01
26  2.5000000000000D-01  8.3329768996561D-01 -1.1418561955116D-01
27  2.6000000000000D-01  8.5805291221516D-01 -6.0866262439382D-02
28  2.7000000000000D-01  8.7998090470331D-01 -1.5039332472575D-03
29  2.8000000000000D-01  8.9917998505695D-01  6.3333720882851D-02
30  2.9000000000000D-01  9.1580347222254D-01  1.3296664637833D-01
31  3.0000000000000D-01  9.3005582343780D-01  2.0661173795396D-01
32  3.1000000000000D-01  9.4218781684351D-01  2.8339415698771D-01
33  3.2000000000000D-01  9.5249085994483D-01  3.6236044126000D-01
34  3.3000000000000D-01  9.6129051968200D-01  4.4249320156460D-01
35  3.4000000000000D-01  9.6893938388998D-01  5.2272717171625D-01
36  3.5000000000000D-01  9.7580937617174D-01  6.0196635321730D-01
37  3.6000000000000D-01  9.8228365646514D-01  6.7910197474846D-01
38  3.7000000000000D-01  9.8874824766552D-01  7.5303097010009D-01
39  3.8000000000000D-01  9.9558353442698D-01  8.2267466646401D-01
40  3.9000000000000D-01  1.0031557835931D+00  8.8699736839392D-01
41  4.0000000000000D-01  1.0118088365332D+00  9.4502452135759D-01
42  4.1000000000000D-01  1.0218561219506D+00  9.9586014270884D-01
43  4.2000000000000D-01  1.0335731335018D+00  1.0387032170721D+00