Sr    ONCVPSP-3.3.0  r_core=   1.66721   1.31335   1.51547
38.0000     10.0000      180419    zatom,zion,pspd
8      11   2     4   600     0    pspcod,pspxc,lmax,lloc,mmax,r2well
5.99000000  6.00000000  0.00000000    rchrg fchrg qchrg
2     3     3     0    nproj
3     1           extension_switch
4     4     0    nprojso
0                         1.0268831095436D+00  9.9501716967843D+00
1  0.0000000000000D+00  3.8862288387342D-10 -7.3754335971898D-11
2  1.0000000000000D-02 -2.5694936586984D-02  4.3384681149434D-02
3  2.0000000000000D-02 -5.1285530973752D-02  8.6729179283008D-02
4  3.0000000000000D-02 -7.6668207130681D-02  1.2999340161825D-01
5  4.0000000000000D-02 -1.0174091262183D-01  1.7313743450514D-01
6  5.0000000000000D-02 -1.2640385863273D-01  2.1612162967554D-01
7  6.0000000000000D-02 -1.5056023415347D-01  2.5890668656529D-01
8  7.0000000000000D-02 -1.7411688616274D-01  3.0145372948747D-01
9  8.0000000000000D-02 -1.9698495804706D-01  3.4372437850905D-01
10  9.0000000000000D-02 -2.1908047896751D-01  3.8568081297344D-01
11  1.0000000000000D-01 -2.4032489744884D-01  4.2728582671840D-01
12  1.1000000000000D-01 -2.6064555310724D-01  4.6850287415912D-01
13  1.2000000000000D-01 -2.7997608114622D-01  5.0929610654088D-01
14  1.3000000000000D-01 -2.9825674502739D-01  5.4963039781129D-01
15  1.4000000000000D-01 -3.1543469355698D-01  5.8947135971771D-01
16  1.5000000000000D-01 -3.3146413951023D-01  6.2878534589945D-01
17  1.6000000000000D-01 -3.4630645783418D-01  6.6753944491410D-01
18  1.7000000000000D-01 -3.5993020241748D-01  7.0570146231141D-01
19  1.8000000000000D-01 -3.7231104138008D-01  7.4323989204411D-01
20  1.9000000000000D-01 -3.8343161180855D-01  7.8012387768102D-01
21  2.0000000000000D-01 -3.9328129583152D-01  8.1632316406125D-01
22  2.1000000000000D-01 -4.0185592088527D-01  8.5180804019724D-01
23  2.2000000000000D-01 -4.0915738794913D-01  8.8654927439664D-01
24  2.3000000000000D-01 -4.1519323242636D-01  9.2051804272662D-01
25  2.4000000000000D-01 -4.1997612319515D-01  9.5368585208649D-01
26  2.5000000000000D-01 -4.2352330614896D-01  9.8602445928433D-01
27  2.6000000000000D-01 -4.2585599927495D-01  1.0175057876280D+00
28  2.7000000000000D-01 -4.2699874697508D-01  1.0481018426395D+00
29  2.8000000000000D-01 -4.2697874190834D-01  1.0777846285820D+00
30  2.9000000000000D-01 -4.2582512311778D-01  1.1065260675490D+00
31  3.0000000000000D-01 -4.2356825959493D-01  1.1342979229065D+00
32  3.1000000000000D-01 -4.2023902872221D-01  1.1610717288953D+00
33  3.2000000000000D-01 -4.1586809921552D-01  1.1868187281995D+00
34  3.3000000000000D-01 -4.1048522826198D-01  1.2115098192565D+00
35  3.4000000000000D-01 -4.0411858250842D-01  1.2351155150359D+00
36  3.5000000000000D-01 -3.9679409240330D-01  1.2576059149391D+00
37  3.6000000000000D-01 -3.8853484912986D-01  1.2789506913758D+00
38  3.7000000000000D-01 -3.7936055299029D-01  1.2991190924508D+00
39  3.8000000000000D-01 -3.6928702161435D-01  1.3180799620555D+00
40  3.9000000000000D-01 -3.5832576577278D-01  1.3358017784946D+00
41  4.0000000000000D-01 -3.4648363988269D-01  1.3522527125941D+00
42  4.1000000000000D-01 -3.3376257350348D-01  1.3674007060379D+00
43  4.2000000000000D-01 -3.2015938924605D-01  1.3812135704639D+00
44  4.3000000000000D-01 -3.0566571156256D-01  1.3936591076139D+00
45  4.4000000000000D-01 -2.9026796985891D-01  1.4047052505951D+00
46  4.5000000000000D-01 -2.7394749828661D-01  1.4143202260503D+00
47  4.6000000000000D-01 -2.5668073343725D-01  1.4224727367772D+00
48  4.7000000000000D-01 -2.3843950999212D-01  1.4291321640707D+00
49  4.8000000000000D-01 -2.1919145318395D-01  1.4342687887950D+00
50  4.9000000000000D-01 -1.9890046572206D-01  1.4378540299254D+00
51  5.0000000000000D-01 -1.7752730562697D-01  1.4398606990408D+00
52  5.1000000000000D-01 -1.5503025023184D-01  1.4402632689913D+00
53  5.2000000000000D-01 -1.3136584044773D-01  1.4390381547222D+00
54  5.3000000000000D-01 -1.0648969827326D-01  1.4361640040073D+00
55  5.4000000000000D-01 -8.0357409467596D-02  1.4316219956268D+00
56  5.5000000000000D-01 -5.2925462313778D-02  1.4253961423337D+00
57  5.6000000000000D-01 -2.4152232490728D-02  1.4174735957773D+00
58  5.7000000000000D-01  6.0009967461587D-03  1.4078449504061D+00
59  5.8000000000000D-01  3.7568990585334D-02  1.3965045432479D+00
60  5.9000000000000D-01  7.0581506988573D-02  1.3834507463751D+00
61  6.0000000000000D-01  1.0506224190886D-01  1.3686862487986D+00
62  6.1000000000000D-01  1.4102778831884D-01  1.3522183245059D+00
63  6.2000000000000D-01  1.7848662217271D-01  1.3340590833613D+00
64  6.3000000000000D-01  2.1743812848568D-01  1.3142257016242D+00
65  6.4000000000000D-01  2.5787168062498D-01  1.2927406289175D+00
66  6.5000000000000D-01  2.9976578567152D-01  1.2696317685823D+00
67  6.6000000000000D-01  3.4308730832243D-01  1.2449326285021D+00
68  6.7000000000000D-01  3.8779078526962D-01  1.2186824396565D+00
69  6.8000000000000D-01  4.3381784131044D-01  1.1909262398758D+00
70  6.9000000000000D-01  4.8109671762117D-01  1.1617149205120D+00
71  7.0000000000000D-01  5.2954192166907D-01  1.1311052340167D+00
72  7.1000000000000D-01  5.7905400715257D-01  1.0991597607183D+00
73  7.2000000000000D-01  6.2951949116181D-01  1.0659468334190D+00
74  7.3000000000000D-01  6.8081091443629D-01  1.0315404187870D+00
75  7.4000000000000D-01  7.3278704919851D-01  9.9601995488790D-01
76  7.5000000000000D-01  7.8529325755575D-01  9.5947014459069D-01
77  7.6000000000000D-01  8.3816200191263D-01  9.2198070498450D-01
78  7.7000000000000D-01  8.9121350723441D-01  8.8364607335445D-01
79  7.8000000000000D-01  9.4425657337093D-01  8.4456507068018D-01
80  7.9000000000000D-01  9.9708953399197D-01  8.0484052404021D-01
81  8.0000000000000D-01  1.0495013570401D+00  7.6457884971826D-01
82  8.1000000000000D-01  1.1012728799735D+00  7.2388959921519D-01
83  8.2000000000000D-01  1.1521781714778D+00  6.8288497076554D-01
84  8.3000000000000D-01  1.2019860097846D+00  6.4167928933648D-01
85  8.4000000000000D-01  1.2504614662734D+00  6.0038845844594D-01
86  8.5000000000000D-01  1.2973675816518D+00  5.5912938747088D-01
87  8.6000000000000D-01  1.3424671207451D+00  5.1801939842329D-01
88  8.7000000000000D-01  1.3855243907782D+00  4.7717561644542D-01
89  8.8000000000000D-01  1.4263071070202D+00  4.3671434851505D-01
90  8.9000000000000D-01  1.4645882888081D+00  3.9675045505279D-01
91  9.0000000000000D-01  1.5001481682615D+00  3.5739671928280D-01
92  9.1000000000000D-01  1.5327760934776D+00  3.1876321931565D-01
93  9.2000000000000D-01  1.5622724076491D+00  2.8095670799337D-01
94  9.3000000000000D-01  1.5884502853849D+00  2.4408000556201D-01
95  9.4000000000000D-01  1.6111375075465D+00  2.0823141021517D-01
96  9.5000000000000D-01  1.6301781561361D+00  1.7350413148123D-01
97  9.6000000000000D-01  1.6454342111941D+00  1.3998575130917D-01
98  9.7000000000000D-01  1.6567870322576D+00  1.0775771754517D-01
99  9.8000000000000D-01  1.6641387077484D+00  7.6894874277494D-02
100  9.9000000000000D-01  1.6674132566213D+00  4.7465033274280D-02
101  1.0000000000000D+00  1.6665576677578D+00  1.9528590440182D-02
102  1.0100000000000D+00  1.6615427639033D+00 -6.8618091195428D-03
103  1.0200000000000D+00  1.6523638784017D+00 -3.1661554212153D-02
104  1.0300000000000D+00  1.6390413346284D+00 -5.4834296051770D-02
105  1.0400000000000D+00  1.6216207196094D+00 -7.6352119743224D-02
106  1.0500000000000D+00  1.6001729453101D+00 -9.6195656869199D-02
107  1.0600000000000D+00  1.5747940928561D+00 -1.1435413774593D-01
108  1.0700000000000D+00  1.5456050369492D+00 -1.3082538241850D-01
109  1.0800000000000D+00  1.5127508498521D+00 -1.4561573000095D-01
110  1.0900000000000D+00  1.4763999860960D+00 -1.5873990641701D-01
111  1.1000000000000D+00  1.4367432513977D+00 -1.7022083118772D-01
112  1.1100000000000D+00  1.3939925611028D+00 -1.8008936437491D-01
113  1.1200000000000D+00  1.3483794955311D+00 -1.8838399531420D-01
114  1.1300000000000D+00  1.3001536614200D+00 -1.9515047523208D-01
115  1.1400000000000D+00  1.2495808704596D+00 -2.0044139630140D-01
116  1.1500000000000D+00  1.1969411477906D+00 -2.0431572017010D-01
117  1.1600000000000D+00  1.1425265847952D+00 -2.0683825937422D-01
118  1.1700000000000D+00  1.0866390518626D+00 -2.0807911539762D-01
119  1.1800000000000D+00  1.0295877882040D+00 -2.0811307750292D-01
120  1.1900000000000D+00  9.7168688693712D-01 -2.0701898676371D-01
121  1.2000000000000D+00  9.1325269447490D-01 -2.0487906995283D-01
122  1.2100000000000D+00  8.5460114384193D-01 -2.0177824809889D-01
123  1.2200000000000D+00  7.9604504238655D-01 -1.9780342476964D-01
124  1.2300000000000D+00  7.3789133430199D-01 -1.9304275914800D-01
125  1.2400000000000D+00  6.8043835855018D-01 -1.8758492903229D-01
126  1.2500000000000D+00  6.2397312279612D-01 -1.8151838892762D-01
127  1.2600000000000D+00  5.6876861324003D-01 -1.7493062825399D-01
128  1.2700000000000D+00  5.1508115691100D-01 -1.6790743417522D-01
129  1.2800000000000D+00  4.6314787283526D-01 -1.6053216653244D-01
130  1.2900000000000D+00  4.1318415086507D-01 -1.5288503702786D-01
131  1.3000000000000D+00  3.6538154876293D-01 -1.4504245664042D-01
132  1.3100000000000D+00  3.1990496836215D-01 -1.3707627204641D-01
133  1.3200000000000D+00  2.7689094004433D-01 -1.2905318376623D-01
134  1.3300000000000D+00  2.3644976153846D-01 -1.2103474114955D-01
135  1.3400000000000D+00  1.9866791940217D-01 -1.1307748188210D-01
136  1.3500000000000D+00  1.6361103119921D-01 -1.0523321967202D-01
137  1.3600000000000D+00  1.3132290116622D-01 -9.7548792598716D-02
138  1.3700000000000D+00  1.0182542553993D-01 -9.0065960235433D-02
139  1.3800000000000D+00  7.5118874266082D-02 -8.2821367733975D-02
140  1.3900000000000D+00  5.1182247205727D-02 -7.5846543510460D-02
141  1.4000000000000D+00  2.9973844409506D-02 -6.9167946555448D-02
142  1.4100000000000D+00  1.1432026806627D-02 -6.2807060367648D-02
143  1.4200000000000D+00 -4.5238360433828D-03 -5.6780532408133D-02
144  1.4300000000000D+00 -1.7992243018947D-02 -5.1100356524151D-02
145  1.4400000000000D+00 -2.9088270129109D-02 -4.5774096845601D-02
146  1.4500000000000D+00 -3.7942128083079D-02 -4.0805149241335D-02
147  1.4600000000000D+00 -4.4697578732944D-02 -3.6193038098884D-02
148  1.4700000000000D+00 -4.9510228491856D-02 -3.1933744316099D-02
149  1.4800000000000D+00 -5.2545715160986D-02 -2.8020060762427D-02
150  1.4900000000000D+00 -5.3977805083028D-02 -2.4441971377239D-02
151  1.5000000000000D+00 -5.3986422043113D-02 -2.1187048974966D-02
152  1.5100000000000D+00 -5.2755624973835D-02 -1.8240867895159D-02
153  1.5200000000000D+00 -5.0471557352211D-02 -1.5587426204395D-02
154  1.5300000000000D+00 -4.7320387163064D-02 -1.3209573145511D-02
155  1.5400000000000D+00 -4.3486259625993D-02 -1.1089436702580D-02
156  1.5500000000000D+00 -3.9149282077581D-02 -9.2088468200105D-03
157  1.5600000000000D+00 -3.4483563470093D-02 -7.5497490917040D-03
158  1.5700000000000D+00 -2.9655325127251D-02 -6.0946050619296D-03
159  1.5800000000000D+00 -2.4821107157121D-02 -4.8267735102248D-03
160  1.5900000000000D+00 -2.0126081198253D-02 -3.7308702188574D-03
161  1.6000000000000D+00 -1.5702496974409D-02 -2.7930998826040D-03
162  1.6100000000000D+00 -1.1668955553766D-02 -2.0016567513601D-03
163  1.6200000000000D+00 -8.1290072280940D-03 -1.3469711528923D-03
164  1.6300000000000D+00 -5.1542136616814D-03 -8.1990316144178D-04
165  1.6400000000000D+00 -2.8189344455535D-03 -4.1661232235109D-04
166  1.6500000000000D+00 -1.2391549288441D-03 -1.4162285898761D-04
167  1.6600000000000D+00 -4.0062564966803D-04  8.7012969602806D-06
168  1.6700000000000D+00 -6.7504151913872D-05  5.2491969798330D-05
169  1.6800000000000D+00  9.3716934435936D-06  2.7225128295500D-05
170  1.6900000000000D+00 -3.8705577449431D-06 -5.0175802065835D-06
171  1.7000000000000D+00 -8.2057169280846D-06 -7.7674027220169D-06
172  1.7100000000000D+00  3.7093408577665D-07  8.5459324733002D-07
173  1.7200000000000D+00  9.7609648261437D-07  1.7224535152020D-06
174  1.7300000000000D+00  1.2763278225335D-07 -5.0262039121528D-08
175  1.7400000000000D+00  3.4222329353664D-07 -1.3476820190202D-07
176  1.7500000000000D+00  0.0000000000000D+00  0.0000000000000D+00
177  1.7600000000000D+00  0.0000000000000D+00  0.0000000000000D+00
178  1.7700000000000D+00  0.0000000000000D+00  0.0000000000000D+00
179  1.7800000000000D+00  0.0000000000000D+00  0.0000000000000D+00
180  1.7900000000000D+00  0.0000000000000D+00  0.0000000000000D+00
181  1.8000000000000D+00  0.0000000000000D+00  0.0000000000000D+00
182  1.8100000000000D+00  0.0000000000000D+00  0.0000000000000D+00
183  1.8200000000000D+00  0.0000000000000D+00  0.0000000000000D+00
184  1.8300000000000D+00  0.0000000000000D+00  0.0000000000000D+00
185  1.8400000000000D+00  0.0000000000000D+00  0.0000000000000D+00
186  1.8500000000000D+00  0.0000000000000D+00  0.0000000000000D+00
187  1.8600000000000D+00  0.0000000000000D+00  0.0000000000000D+00
188  1.8700000000000D+00  0.0000000000000D+00  0.0000000000000D+00
189  1.8800000000000D+00  0.0000000000000D+00  0.0000000000000D+00
190  1.8900000000000D+00  0.0000000000000D+00  0.0000000000000D+00
191  1.9000000000000D+00  0.0000000000000D+00  0.0000000000000D+00
192  1.9100000000000D+00  0.0000000000000D+00  0.0000000000000D+00
193  1.9200000000000D+00  0.0000000000000D+00  0.0000000000000D+00
194  1.9300000000000D+00  0.0000000000000D+00  0.0000000000000D+00
195  1.9400000000000D+00  0.0000000000000D+00  0.0000000000000D+00
196  1.9500000000000D+00  0.0000000000000D+00  0.0000000000000D+00
197  1.9600000000000D+00  0.0000000000000D+00  0.0000000000000D+00
198  1.9700000000000D+00  0.0000000000000D+00  0.0000000000000D+00
199  1.9800000000000D+00  0.0000000000000D+00  0.0000000000000D+00
200  1.9900000000000D+00  0.0000000000000D+00  0.0000000000000D+00
201  2.0000000000000D+00  0.0000000000000D+00  0.0000000000000D+00
202  2.0100000000000D+00  0.0000000000000D+00  0.0000000000000D+00
203  2.0200000000000D+00  0.0000000000000D+00  0.0000000000000D+00
204  2.0300000000000D+00  0.0000000000000D+00  0.0000000000000D+00
205  2.0400000000000D+00  0.0000000000000D+00  0.0000000000000D+00
206  2.0500000000000D+00  0.0000000000000D+00  0.0000000000000D+00
207  2.0600000000000D+00  0.0000000000000D+00  0.0000000000000D+00
208  2.0700000000000D+00  0.0000000000000D+00  0.0000000000000D+00
209  2.0800000000000D+00  0.0000000000000D+00  0.0000000000000D+00
210  2.0900000000000D+00  0.0000000000000D+00  0.0000000000000D+00
211  2.1000000000000D+00  0.0000000000000D+00  0.0000000000000D+00
212  2.1100000000000D+00  0.0000000000000D+00  0.0000000000000D+00
213  2.1200000000000D+00  0.0000000000000D+00  0.0000000000000D+00
214  2.1300000000000D+00  0.0000000000000D+00  0.0000000000000D+00
215  2.1400000000000D+00  0.0000000000000D+00  0.0000000000000D+00
216  2.1500000000000D+00  0.0000000000000D+00  0.0000000000000D+00
217  2.1600000000000D+00  0.0000000000000D+00  0.0000000000000D+00
218  2.1700000000000D+00  0.0000000000000D+00  0.0000000000000D+00
219  2.1800000000000D+00  0.0000000000000D+00  0.0000000000000D+00
220  2.1900000000000D+00  0.0000000000000D+00  0.0000000000000D+00
221  2.2000000000000D+00  0.0000000000000D+00  0.0000000000000D+00
222  2.2100000000000D+00  0.0000000000000D+00  0.0000000000000D+00
223  2.2200000000000D+00  0.0000000000000D+00  0.0000000000000D+00
224  2.2300000000000D+00  0.0000000000000D+00  0.0000000000000D+00
225  2.2400000000000D+00  0.0000000000000D+00  0.0000000000000D+00
226  2.2500000000000D+00  0.0000000000000D+00  0.0000000000000D+00
227  2.2600000000000D+00  0.0000000000000D+00  0.0000000000000D+00
228  2.2700000000000D+00  0.0000000000000D+00  0.0000000000000D+00
229  2.2800000000000D+00  0.0000000000000D+00  0.0000000000000D+00
230  2.2900000000000D+00  0.0000000000000D+00  0.0000000000000D+00
231  2.3000000000000D+00  0.0000000000000D+00  0.0000000000000D+00
232  2.3100000000000D+00  0.0000000000000D+00  0.0000000000000D+00
233  2.3200000000000D+00  0.0000000000000D+00  0.0000000000000D+00
234  2.3300000000000D+00  0.0000000000000D+00  0.0000000000000D+00
235  2.3400000000000D+00  0.0000000000000D+00  0.0000000000000D+00
236  2.3500000000000D+00  0.0000000000000D+00  0.0000000000000D+00
237  2.3600000000000D+00  0.0000000000000D+00  0.0000000000000D+00
238  2.3700000000000D+00  0.0000000000000D+00  0.0000000000000D+00
239  2.3800000000000D+00  0.0000000000000D+00  0.0000000000000D+00
240  2.3900000000000D+00  0.0000000000000D+00  0.0000000000000D+00
241  2.4000000000000D+00  0.0000000000000D+00  0.0000000000000D+00
242  2.4100000000000D+00  0.0000000000000D+00  0.0000000000000D+00
243  2.4200000000000D+00  0.0000000000000D+00  0.0000000000000D+00
244  2.4300000000000D+00  0.0000000000000D+00  0.0000000000000D+00
245  2.4400000000000D+00  0.0000000000000D+00  0.0000000000000D+00
246  2.4500000000000D+00  0.0000000000000D+00  0.0000000000000D+00
247  2.4600000000000D+00  0.0000000000000D+00  0.0000000000000D+00
248  2.4700000000000D+00  0.0000000000000D+00  0.0000000000000D+00
249  2.4800000000000D+00  0.0000000000000D+00  0.0000000000000D+00
250  2.4900000000000D+00  0.0000000000000D+00  0.0000000000000D+00
251  2.5000000000000D+00  0.0000000000000D+00  0.0000000000000D+00
252  2.5100000000000D+00  0.0000000000000D+00  0.0000000000000D+00
253  2.5200000000000D+00  0.0000000000000D+00  0.0000000000000D+00
254  2.5300000000000D+00  0.0000000000000D+00  0.0000000000000D+00
255  2.5400000000000D+00  0.0000000000000D+00  0.0000000000000D+00
256  2.5500000000000D+00  0.0000000000000D+00  0.0000000000000D+00
257  2.5600000000000D+00  0.0000000000000D+00  0.0000000000000D+00
258  2.5700000000000D+00  0.0000000000000D+00  0.0000000000000D+00
259  2.5800000000000D+00  0.0000000000000D+00  0.0000000000000D+00
260  2.5900000000000D+00  0.0000000000000D+00  0.0000000000000D+00
261  2.6000000000000D+00  0.0000000000000D+00  0.0000000000000D+00
262  2.6100000000000D+00  0.0000000000000D+00  0.0000000000000D+00
263  2.6200000000000D+00  0.0000000000000D+00  0.0000000000000D+00
264  2.6300000000000D+00  0.0000000000000D+00  0.0000000000000D+00
265  2.6400000000000D+00  0.0000000000000D+00  0.0000000000000D+00
266  2.6500000000000D+00  0.0000000000000D+00  0.0000000000000D+00
267  2.6600000000000D+00  0.0000000000000D+00  0.0000000000000D+00
268  2.6700000000000D+00  0.0000000000000D+00  0.0000000000000D+00
269  2.6800000000000D+00  0.0000000000000D+00  0.0000000000000D+00
270  2.6900000000000D+00  0.0000000000000D+00  0.0000000000000D+00
271  2.7000000000000D+00  0.0000000000000D+00  0.0000000000000D+00
272  2.7100000000000D+00  0.0000000000000D+00  0.0000000000000D+00
273  2.7200000000000D+00  0.0000000000000D+00  0.0000000000000D+00
274  2.7300000000000D+00  0.0000000000000D+00  0.0000000000000D+00
275  2.7400000000000D+00  0.0000000000000D+00  0.0000000000000D+00
276  2.7500000000000D+00  0.0000000000000D+00  0.0000000000000D+00
277  2.7600000000000D+00  0.0000000000000D+00  0.0000000000000D+00
278  2.7700000000000D+00  0.0000000000000D+00  0.0000000000000D+00
279  2.7800000000000D+00  0.0000000000000D+00  0.0000000000000D+00
280  2.7900000000000D+00  0.0000000000000D+00  0.0000000000000D+00
281  2.8000000000000D+00  0.0000000000000D+00  0.0000000000000D+00
282  2.8100000000000D+00  0.0000000000000D+00  0.0000000000000D+00
283  2.8200000000000D+00  0.0000000000000D+00  0.0000000000000D+00
284  2.8300000000000D+00  0.0000000000000D+00  0.0000000000000D+00
285  2.8400000000000D+00  0.0000000000000D+00  0.0000000000000D+00
286  2.8500000000000D+00  0.0000000000000D+00  0.0000000000000D+00
287  2.8600000000000D+00  0.0000000000000D+00  0.0000000000000D+00
288  2.8700000000000D+00  0.0000000000000D+00  0.0000000000000D+00
289  2.8800000000000D+00  0.0000000000000D+00  0.0000000000000D+00
290  2.8900000000000D+00  0.0000000000000D+00  0.0000000000000D+00
291  2.9000000000000D+00  0.0000000000000D+00  0.0000000000000D+00
292  2.9100000000000D+00  0.0000000000000D+00  0.0000000000000D+00
293  2.9200000000000D+00  0.0000000000000D+00  0.0000000000000D+00
294  2.9300000000000D+00  0.0000000000000D+00  0.0000000000000D+00
295  2.9400000000000D+00  0.0000000000000D+00  0.0000000000000D+00
296  2.9500000000000D+00  0.0000000000000D+00  0.0000000000000D+00
297  2.9600000000000D+00  0.0000000000000D+00  0.0000000000000D+00
298  2.9700000000000D+00  0.0000000000000D+00  0.0000000000000D+00
299  2.9800000000000D+00  0.0000000000000D+00  0.0000000000000D+00
300  2.9900000000000D+00  0.0000000000000D+00  0.0000000000000D+00
301  3.0000000000000D+00  0.0000000000000D+00  0.0000000000000D+00
302  3.0100000000000D+00  0.0000000000000D+00  0.0000000000000D+00
303  3.0200000000000D+00  0.0000000000000D+00  0.0000000000000D+00
304  3.0300000000000D+00  0.0000000000000D+00  0.0000000000000D+00
305  3.0400000000000D+00  0.0000000000000D+00  0.0000000000000D+00
306  3.0500000000000D+00  0.0000000000000D+00  0.0000000000000D+00
307  3.0600000000000D+00  0.0000000000000D+00  0.0000000000000D+00
308  3.0700000000000D+00  0.0000000000000D+00  0.0000000000000D+00
309  3.0800000000000D+00  0.0000000000000D+00  0.0000000000000D+00
310  3.0900000000000D+00  0.0000000000000D+00  0.0000000000000D+00
311  3.1000000000000D+00  0.0000000000000D+00  0.0000000000000D+00
312  3.1100000000000D+00  0.0000000000000D+00  0.0000000000000D+00
313  3.1200000000000D+00  0.0000000000000D+00  0.0000000000000D+00
314  3.1300000000000D+00  0.0000000000000D+00  0.0000000000000D+00
315  3.1400000000000D+00  0.0000000000000D+00  0.0000000000000D+00
316  3.1500000000000D+00  0.0000000000000D+00  0.0000000000000D+00
317  3.1600000000000D+00  0.0000000000000D+00  0.0000000000000D+00
318  3.1700000000000D+00  0.0000000000000D+00  0.0000000000000D+00
319  3.1800000000000D+00  0.0000000000000D+00  0.0000000000000D+00
320  3.1900000000000D+00  0.0000000000000D+00  0.0000000000000D+00
321  3.2000000000000D+00  0.0000000000000D+00  0.0000000000000D+00
322  3.2100000000000D+00  0.0000000000000D+00  0.0000000000000D+00
323  3.2200000000000D+00  0.0000000000000D+00  0.0000000000000D+00
324  3.2300000000000D+00  0.0000000000000D+00  0.0000000000000D+00
325  3.2400000000000D+00  0.0000000000000D+00  0.0000000000000D+00
326  3.2500000000000D+00  0.0000000000000D+00  0.0000000000000D+00
327  3.2600000000000D+00  0.0000000000000D+00  0.0000000000000D+00
328  3.2700000000000D+00  0.0000000000000D+00  0.0000000000000D+00
329  3.2800000000000D+00  0.0000000000000D+00  0.0000000000000D+00
330  3.2900000000000D+00  0.0000000000000D+00  0.0000000000000D+00
331  3.3000000000000D+00  0.0000000000000D+00  0.0000000000000D+00
332  3.3100000000000D+00  0.0000000000000D+00  0.0000000000000D+00
333  3.3200000000000D+00  0.0000000000000D+00  0.0000000000000D+00
334  3.3300000000000D+00  0.0000000000000D+00  0.0000000000000D+00
335  3.3400000000000D+00  0.0000000000000D+00  0.0000000000000D+00
336  3.3500000000000D+00  0.0000000000000D+00  0.0000000000000D+00
337  3.3600000000000D+00  0.0000000000000D+00  0.0000000000000D+00
338  3.3700000000000D+00  0.0000000000000D+00  0.0000000000000D+00
339  3.3800000000000D+00  0.0000000000000D+00  0.0000000000000D+00
340  3.3900000000000D+00  0.0000000000000D+00  0.0000000000000D+00
341  3.4000000000000D+00  0.0000000000000D+00  0.0000000000000D+00
342  3.4100000000000D+00  0.0000000000000D+00  0.0000000000000D+00
343  3.4200000000000D+00  0.0000000000000D+00  0.0000000000000D+00
344  3.4300000000000D+00  0.0000000000000D+00  0.0000000000000D+00
345  3.4400000000000D+00  0.0000000000000D+00  0.0000000000000D+00
346  3.4500000000000D+00  0.0000000000000D+00  0.0000000000000D+00
347  3.4600000000000D+00  0.0000000000000D+00  0.0000000000000D+00
348  3.4700000000000D+00  0.0000000000000D+00  0.0000000000000D+00
349  3.4800000000000D+00  0.0000000000000D+00  0.0000000000000D+00
350  3.4900000000000D+00  0.0000000000000D+00  0.0000000000000D+00
351  3.5000000000000D+00  0.0000000000000D+00  0.0000000000000D+00
352  3.5100000000000D+00  0.0000000000000D+00  0.0000000000000D+00
353  3.5200000000000D+00  0.0000000000000D+00  0.0000000000000D+00
354  3.5300000000000D+00  0.0000000000000D+00  0.0000000000000D+00
355  3.5400000000000D+00  0.0000000000000D+00  0.0000000000000D+00
356  3.5500000000000D+00  0.0000000000000D+00  0.0000000000000D+00
357  3.5600000000000D+00  0.0000000000000D+00  0.0000000000000D+00
358  3.5700000000000D+00  0.0000000000000D+00  0.0000000000000D+00
359  3.5800000000000D+00  0.0000000000000D+00  0.0000000000000D+00
360  3.5900000000000D+00  0.0000000000000D+00  0.0000000000000D+00
361  3.6000000000000D+00  0.0000000000000D+00  0.0000000000000D+00
362  3.6100000000000D+00  0.0000000000000D+00  0.0000000000000D+00
363  3.6200000000000D+00  0.0000000000000D+00  0.0000000000000D+00
364  3.6300000000000D+00  0.0000000000000D+00  0.0000000000000D+00
365  3.6400000000000D+00  0.0000000000000D+00  0.0000000000000D+00
366  3.6500000000000D+00  0.0000000000000D+00  0.0000000000000D+00
367  3.6600000000000D+00  0.0000000000000D+00  0.0000000000000D+00
368  3.6700000000000D+00  0.0000000000000D+00  0.0000000000000D+00
369  3.6800000000000D+00  0.0000000000000D+00  0.0000000000000D+00
370  3.6900000000000D+00  0.0000000000000D+00  0.0000000000000D+00
371  3.7000000000000D+00  0.0000000000000D+00  0.0000000000000D+00
372  3.7100000000000D+00  0.0000000000000D+00  0.0000000000000D+00
373  3.7200000000000D+00  0.0000000000000D+00  0.0000000000000D+00
374  3.7300000000000D+00  0.0000000000000D+00  0.0000000000000D+00
375  3.7400000000000D+00  0.0000000000000D+00  0.0000000000000D+00
376  3.7500000000000D+00  0.0000000000000D+00  0.0000000000000D+00
377  3.7600000000000D+00  0.0000000000000D+00  0.0000000000000D+00
378  3.7700000000000D+00  0.0000000000000D+00  0.0000000000000D+00
379  3.7800000000000D+00  0.0000000000000D+00  0.0000000000000D+00
380  3.7900000000000D+00  0.0000000000000D+00  0.0000000000000D+00
381  3.8000000000000D+00  0.0000000000000D+00  0.0000000000000D+00
382  3.8100000000000D+00  0.0000000000000D+00  0.0000000000000D+00
383  3.8200000000000D+00  0.0000000000000D+00  0.0000000000000D+00
384  3.8300000000000D+00  0.0000000000000D+00  0.0000000000000D+00
385  3.8400000000000D+00  0.0000000000000D+00  0.0000000000000D+00
386  3.8500000000000D+00  0.0000000000000D+00  0.0000000000000D+00
387  3.8600000000000D+00  0.0000000000000D+00  0.0000000000000D+00
388  3.8700000000000D+00  0.0000000000000D+00  0.0000000000000D+00
389  3.8800000000000D+00  0.0000000000000D+00  0.0000000000000D+00
390  3.8900000000000D+00  0.0000000000000D+00  0.0000000000000D+00
391  3.9000000000000D+00  0.0000000000000D+00  0.0000000000000D+00
392  3.9100000000000D+00  0.0000000000000D+00  0.0000000000000D+00
393  3.9200000000000D+00  0.0000000000000D+00  0.0000000000000D+00
394  3.9300000000000D+00  0.0000000000000D+00  0.0000000000000D+00
395  3.9400000000000D+00  0.0000000000000D+00  0.0000000000000D+00
396  3.9500000000000D+00  0.0000000000000D+00  0.0000000000000D+00
397  3.9600000000000D+00  0.0000000000000D+00  0.0000000000000D+00
398  3.9700000000000D+00  0.0000000000000D+00  0.0000000000000D+00
399  3.9800000000000D+00  0.0000000000000D+00  0.0000000000000D+00
400  3.9900000000000D+00  0.0000000000000D+00  0.0000000000000D+00
401  4.0000000000000D+00  0.0000000000000D+00  0.0000000000000D+00
402  4.0100000000000D+00  0.0000000000000D+00  0.0000000000000D+00
403  4.0200000000000D+00  0.0000000000000D+00  0.0000000000000D+00
404  4.0300000000000D+00  0.0000000000000D+00  0.0000000000000D+00
405  4.0400000000000D+00  0.0000000000000D+00  0.0000000000000D+00
406  4.0500000000000D+00  0.0000000000000D+00  0.0000000000000D+00
407  4.0600000000000D+00  0.0000000000000D+00  0.0000000000000D+00
408  4.0700000000000D+00  0.0000000000000D+00  0.0000000000000D+00
409  4.0800000000000D+00  0.0000000000000D+00  0.0000000000000D+00
410  4.0900000000000D+00  0.0000000000000D+00  0.0000000000000D+00
411  4.1000000000000D+00  0.0000000000000D+00  0.0000000000000D+00
412  4.1100000000000D+00  0.0000000000000D+00  0.0000000000000D+00
413  4.1200000000000D+00  0.0000000000000D+00  0.0000000000000D+00
414  4.1300000000000D+00  0.0000000000000D+00  0.0000000000000D+00
415  4.1400000000000D+00  0.0000000000000D+00  0.0000000000000D+00
416  4.1500000000000D+00  0.0000000000000D+00  0.0000000000000D+00
417  4.1600000000000D+00  0.0000000000000D+00  0.0000000000000D+00
418  4.1700000000000D+00  0.0000000000000D+00  0.0000000000000D+00
419  4.1800000000000D+00  0.0000000000000D+00  0.0000000000000D+00
420  4.1900000000000D+00  0.0000000000000D+00  0.0000000000000D+00
421  4.2000000000000D+00  0.0000000000000D+00  0.0000000000000D+00
422  4.2100000000000D+00  0.0000000000000D+00  0.0000000000000D+00
423  4.2200000000000D+00  0.0000000000000D+00  0.0000000000000D+00
424  4.2300000000000D+00  0.0000000000000D+00  0.0000000000000D+00
425  4.2400000000000D+00  0.0000000000000D+00  0.0000000000000D+00
426  4.2500000000000D+00  0.0000000000000D+00  0.0000000000000D+00
427  4.2600000000000D+00  0.0000000000000D+00  0.0000000000000D+00
428  4.2700000000000D+00  0.0000000000000D+00  0.0000000000000D+00
429  4.2800000000000D+00  0.0000000000000D+00  0.0000000000000D+00
430  4.2900000000000D+00  0.0000000000000D+00  0.0000000000000D+00
431  4.3000000000000D+00  0.0000000000000D+00  0.0000000000000D+00
432  4.3100000000000D+00  0.0000000000000D+00  0.0000000000000D+00
433  4.3200000000000D+00  0.0000000000000D+00  0.0000000000000D+00
434  4.3300000000000D+00  0.0000000000000D+00  0.0000000000000D+00
435  4.3400000000000D+00  0.0000000000000D+00  0.0000000000000D+00
436  4.3500000000000D+00  0.0000000000000D+00  0.0000000000000D+00
437  4.3600000000000D+00  0.0000000000000D+00  0.0000000000000D+00
438  4.3700000000000D+00  0.0000000000000D+00  0.0000000000000D+00
439  4.3800000000000D+00  0.0000000000000D+00  0.0000000000000D+00
440  4.3900000000000D+00  0.0000000000000D+00  0.0000000000000D+00
441  4.4000000000000D+00  0.0000000000000D+00  0.0000000000000D+00
442  4.4100000000000D+00  0.0000000000000D+00  0.0000000000000D+00
443  4.4200000000000D+00  0.0000000000000D+00  0.0000000000000D+00