Pd    ONCVPSP  r_core=  1.41  1.46  1.55
46.0000     18.0000      160330    zatom,zion,pspd
8      11   2     4   600     0    pspcod,pspxc,lmax,lloc,mmax,r2well
5.99000000  7.00000000  0.00000000    rchrg fchrg qchrg
2     3     3     0    nproj
3                 extension_switch
4     3     0    nprojso
0                        -2.3093960826415D+00  7.8467374126160D+00
1  0.0000000000000D+00 -8.7527568526369D-10 -1.1778950037566D-10
2  1.0000000000000D-02 -5.9422018521084D-02  6.3358527325429D-02
3  2.0000000000000D-02 -1.1868988222612D-01  1.2659251976582D-01
4  3.0000000000000D-02 -1.7764874117366D-01  1.8957789837422D-01
5  4.0000000000000D-02 -2.3614237289422D-01  2.5219149286200D-01
6  5.0000000000000D-02 -2.9401254020894D-01  3.1431148791322D-01
7  6.0000000000000D-02 -3.5109840132085D-01  3.7581785996562D-01
8  7.0000000000000D-02 -4.0723598856625D-01  4.3659280141939D-01
9  8.0000000000000D-02 -4.6225777133842D-01  4.9652112935309D-01
10  9.0000000000000D-02 -5.1599231761961D-01  5.5549067597089D-01
11  1.0000000000000D-01 -5.6826406729025D-01  6.1339265817637D-01
12  1.1000000000000D-01 -6.1889322894063D-01  6.7012202386354D-01
13  1.2000000000000D-01 -6.6769581030444D-01  7.2557777273366D-01
14  1.3000000000000D-01 -7.1448379068291D-01  7.7966324968459D-01
15  1.4000000000000D-01 -7.5906544185096D-01  8.3228640907622D-01
16  1.5000000000000D-01 -8.0124580195349D-01  8.8336004844740D-01
17  1.6000000000000D-01 -8.4082730483066D-01  9.3280201054530D-01
18  1.7000000000000D-01 -8.7761056507959D-01  9.8053535282375D-01
19  1.8000000000000D-01 -9.1139531698817D-01  1.0264884838702D+00
20  1.9000000000000D-01 -9.4198150328929D-01  1.0705952665289D+00
21  2.0000000000000D-01 -9.6917050750422D-01  1.1127950877964D+00
22  2.1000000000000D-01 -9.9276652149721D-01  1.1530328958739D+00
23  2.2000000000000D-01 -1.0125780377734D+00  1.1912592050646D+00
24  2.3000000000000D-01 -1.0284194540428D+00  1.2274300694965D+00
25  2.4000000000000D-01 -1.0401127756688D+00  1.2615070269418D+00
26  2.5000000000000D-01 -1.0474893998411D+00  1.2934570142682D+00
27  2.6000000000000D-01 -1.0503919636841D+00  1.3232522563189D+00
28  2.7000000000000D-01 -1.0486762370511D+00  1.3508701302506D+00
29  2.8000000000000D-01 -1.0422130394844D+00  1.3762930075739D+00
30  2.9000000000000D-01 -1.0308901597512D+00  1.3995080763315D+00
31  3.0000000000000D-01 -1.0146142555210D+00  1.4205071460162D+00
32  3.1000000000000D-01 -9.9331271013948D-01  1.4392864379645D+00
33  3.2000000000000D-01 -9.6693542308303D-01  1.4558463640732D+00
34  3.3000000000000D-01 -9.3545651056872D-01  1.4701912967601D+00
35  3.4000000000000D-01 -8.9887589294034D-01  1.4823293331392D+00
36  3.5000000000000D-01 -8.5722074586215D-01  1.4922720563896D+00
37  3.6000000000000D-01 -8.1054679302972D-01  1.5000342972817D+00
38  3.7000000000000D-01 -7.5893941904537D-01  1.5056338987682D+00
39  3.8000000000000D-01 -7.0251458230518D-01  1.5090914864648D+00
40  3.9000000000000D-01 -6.4141950919425D-01  1.5104302477263D+00
41  4.0000000000000D-01 -5.7583315257856D-01  1.5096757218767D+00
42  4.1000000000000D-01 -5.0596639950157D-01  1.5068556039726D+00
43  4.2000000000000D-01 -4.3206201512835D-01  1.5019995642743D+00
44  4.3000000000000D-01 -3.5439431230851D-01  1.4951390853650D+00
45  4.4000000000000D-01 -2.7326853863491D-01  1.4863073186023D+00
46  4.5000000000000D-01 -1.8901997553135D-01  1.4755389613091D+00
47  4.6000000000000D-01 -1.0201274669031D-01  1.4628701558129D+00
48  4.7000000000000D-01 -1.2638336067198D-02  1.4483384111300D+00
49  4.8000000000000D-01  7.8686181397843D-02  1.4319825477683D+00
50  4.9000000000000D-01  1.7152019015508D-01  1.4138426657849D+00
51  5.0000000000000D-01  2.6540185631962D-01  1.3939601359004D+00
52  5.1000000000000D-01  3.5985070964349D-01  1.3723776131254D+00
53  5.2000000000000D-01  4.5437047002801D-01  1.3491390720206D+00
54  5.3000000000000D-01  5.4845210054395D-01  1.3242898623766D+00
55  5.4000000000000D-01  6.4157706616286D-01  1.2978767837779D+00
56  5.5000000000000D-01  7.3322077478136D-01  1.2699481772049D+00
57  5.6000000000000D-01  8.2285617467600D-01  1.2405540315377D+00
58  5.7000000000000D-01  9.0995748027567D-01  1.2097461025525D+00
59  5.8000000000000D-01  9.9400399613019D-01  1.1775780417578D+00
60  5.9000000000000D-01  1.0744840071879D+00  1.1441055321964D+00
61  6.0000000000000D-01  1.1508987020214D+00  1.1093864281516D+00
62  6.1000000000000D-01  1.2227660944573D+00  1.0734808955446D+00
63  6.2000000000000D-01  1.2896249082100D+00  1.0364515496880D+00
64  6.3000000000000D-01  1.3510383885928D+00  9.9836358698102D-01
65  6.4000000000000D-01  1.4065980052073D+00  9.5928490709469D-01
66  6.5000000000000D-01  1.4559270096884D+00  9.1928622218985D-01
67  6.6000000000000D-01  1.4986838131294D+00  8.7844114975938D-01
68  6.7000000000000D-01  1.5345651487211D+00  8.3682628576712D-01
69  6.8000000000000D-01  1.5633089864026D+00  7.9452125488478D-01
70  6.9000000000000D-01  1.5846971679615D+00  7.5160873479747D-01
71  7.0000000000000D-01  1.5985577329906D+00  7.0817445175885D-01
72  7.1000000000000D-01  1.6047669084241D+00  6.6430714482667D-01
73  7.2000000000000D-01  1.6032507370011D+00  6.2009849649697D-01
74  7.3000000000000D-01  1.5939863229419D+00  5.7564302777885D-01
75  7.4000000000000D-01  1.5770026763172D+00  5.3103795610684D-01
76  7.5000000000000D-01  1.5523811410386D+00  4.8638301487298D-01
77  7.6000000000000D-01  1.5202553950702D+00  4.4178023377167D-01
78  7.7000000000000D-01  1.4808110152980D+00  3.9733367958258D-01
79  7.8000000000000D-01  1.4342846034942D+00  3.5314915746690D-01
80  7.9000000000000D-01  1.3809624739172D+00  3.0933387331609D-01
81  8.0000000000000D-01  1.3211789072593D+00  2.6599605816248D-01
82  8.1000000000000D-01  1.2553139798540D+00  2.2324455613586D-01
83  8.2000000000000D-01  1.1837909812428D+00  1.8118837792241D-01
84  8.3000000000000D-01  1.1070734373306D+00  1.3993622214713D-01
85  8.4000000000000D-01  1.0256617603890D+00  9.9595967553536D-02
86  8.5000000000000D-01  9.4008955105400D-01  6.0274139288770D-02
87  8.6000000000000D-01  8.5091958116413D-01  2.2075353014072D-02
88  8.7000000000000D-01  7.5873948976542D-01 -1.4898259056241D-02
89  8.8000000000000D-01  6.6415722781729D-01 -5.0547635733250D-02
90  8.9000000000000D-01  5.6779629004580D-01 -8.4777383282324D-02
91  9.0000000000000D-01  4.7029077496209D-01 -1.1749637566402D-01
92  9.1000000000000D-01  3.7228031626980D-01 -1.4861835332294D-01
93  9.2000000000000D-01  2.7440493069352D-01 -1.7806251508390D-01
94  9.3000000000000D-01  1.7729982864819D-01 -2.0575409759073D-01
95  9.4000000000000D-01  8.1590235115487D-02 -2.3162493665335D-01
96  9.5000000000000D-01 -1.2113731417619D-02 -2.5561400485615D-01
97  9.6000000000000D-01 -1.0322207409517D-01 -2.7766791982776D-01
98  9.7000000000000D-01 -1.9116977947473D-01 -2.9774141767320D-01
99  9.8000000000000D-01 -2.7542147949269D-01 -3.1579778623796D-01
100  9.9000000000000D-01 -3.5547586854691D-01 -3.3180925309360D-01
101  1.0000000000000D+00 -4.3086983251971D-01 -3.4575732341604D-01
102  1.0100000000000D+00 -5.0118224890288D-01 -3.5763306326485D-01
103  1.0200000000000D+00 -5.6603741993959D-01 -3.6743732415923D-01
104  1.0300000000000D+00 -6.2510810403998D-01 -3.7518090530807D-01
105  1.0400000000000D+00 -6.7811811395892D-01 -3.8088465029338D-01
106  1.0500000000000D+00 -7.2484445459864D-01 -3.8457947559797D-01
107  1.0600000000000D+00 -7.6511897726506D-01 -3.8630632889889D-01
108  1.0700000000000D+00 -7.9882953181952D-01 -3.8611607566311D-01
109  1.0800000000000D+00 -8.2592060318031D-01 -3.8406931324435D-01
110  1.0900000000000D+00 -8.4639342305942D-01 -3.8023611226378D-01
111  1.1000000000000D+00 -8.6030555352829D-01 -3.7469568580500D-01
112  1.1100000000000D+00 -8.6776994393084D-01 -3.6753598759566D-01
113  1.1200000000000D+00 -8.6895346805730D-01 -3.5885324104822D-01
114  1.1300000000000D+00 -8.6407495366533D-01 -3.4875140170098D-01
115  1.1400000000000D+00 -8.5340272132088D-01 -3.3734155623015D-01
116  1.1500000000000D+00 -8.3725165534052D-01 -3.2474126194792D-01
117  1.1600000000000D+00 -8.1597983405059D-01 -3.1107383126516D-01
118  1.1700000000000D+00 -7.8998475114546D-01 -2.9646756617709D-01
119  1.1800000000000D+00 -7.5969916437533D-01 -2.8105494839175D-01
120  1.1900000000000D+00 -7.2558661239837D-01 -2.6497179129608D-01
121  1.2000000000000D+00 -6.8813664410965D-01 -2.4835636038115D-01
122  1.2100000000000D+00 -6.4785980719383D-01 -2.3134846905018D-01
123  1.2200000000000D+00 -6.0528244715310D-01 -2.1408855727711D-01
124  1.2300000000000D+00 -5.6094136949184D-01 -1.9671676074124D-01
125  1.2400000000000D+00 -5.1537841947814D-01 -1.7937197826335D-01
126  1.2500000000000D+00 -4.6913503602148D-01 -1.6219094560681D-01
127  1.2600000000000D+00 -4.2274683670271D-01 -1.4530732372159D-01
128  1.2700000000000D+00 -3.7673829090612D-01 -1.2885080947228D-01
129  1.2800000000000D+00 -3.3161753881487D-01 -1.1294627696120D-01
130  1.2900000000000D+00 -2.8787141195639D-01 -9.7712957212917D-02
131  1.3000000000000D+00 -2.4596071008152D-01 -8.3263663854489D-02
132  1.3100000000000D+00 -2.0631578863748D-01 -6.9704072313628D-02
133  1.3200000000000D+00 -1.6933250537249D-01 -5.7132059218319D-02
134  1.3300000000000D+00 -1.3536857502340D-01 -4.5637108744914D-02
135  1.3400000000000D+00 -1.0474037720187D-01 -3.5299792087509D-02
136  1.3500000000000D+00 -7.7720253954181D-02 -2.6191325001183D-02
137  1.3600000000000D+00 -5.4534338179987D-02 -1.8373209034050D-02
138  1.3700000000000D+00 -3.5374737493053D-02 -1.1901508992768D-02
139  1.3800000000000D+00 -2.0290140550270D-02 -6.7914164960939D-03
140  1.3900000000000D+00 -9.4506615402014D-03 -3.1030093676651D-03
141  1.4000000000000D+00 -3.2312953583517D-03 -9.6337842993724D-04
142  1.4100000000000D+00 -7.0239997236276D-04 -1.0211585695027D-04
143  1.4200000000000D+00 -2.4267294165504D-05  5.2372301915171D-05
144  1.4300000000000D+00 -9.3400697269397D-06 -1.2027135741361D-05
145  1.4400000000000D+00 -1.8720017595862D-05 -1.5725841097537D-05
146  1.4500000000000D+00  9.7263480040989D-07  3.2765515414327D-06
147  1.4600000000000D+00  6.8664400371493D-07  1.2313580565959D-06
148  1.4700000000000D+00  1.8086656897634D-06  2.3253466970330D-07
149  1.4800000000000D+00  0.0000000000000D+00  0.0000000000000D+00
150  1.4900000000000D+00  0.0000000000000D+00  0.0000000000000D+00
151  1.5000000000000D+00  0.0000000000000D+00  0.0000000000000D+00
152  1.5100000000000D+00  0.0000000000000D+00  0.0000000000000D+00
153  1.5200000000000D+00  0.0000000000000D+00  0.0000000000000D+00
154  1.5300000000000D+00  0.0000000000000D+00  0.0000000000000D+00
155  1.5400000000000D+00  0.0000000000000D+00  0.0000000000000D+00
156  1.5500000000000D+00  0.0000000000000D+00  0.0000000000000D+00
157  1.5600000000000D+00  0.0000000000000D+00  0.0000000000000D+00
158  1.5700000000000D+00  0.0000000000000D+00  0.0000000000000D+00
159  1.5800000000000D+00  0.0000000000000D+00  0.0000000000000D+00
160  1.5900000000000D+00  0.0000000000000D+00  0.0000000000000D+00
161  1.6000000000000D+00  0.0000000000000D+00  0.0000000000000D+00
162  1.6100000000000D+00  0.0000000000000D+00  0.0000000000000D+00
163  1.6200000000000D+00  0.0000000000000D+00  0.0000000000000D+00
164  1.6300000000000D+00  0.0000000000000D+00  0.0000000000000D+00
165  1.6400000000000D+00  0.0000000000000D+00  0.0000000000000D+00
166  1.6500000000000D+00  0.0000000000000D+00  0.0000000000000D+00
167  1.6600000000000D+00  0.0000000000000D+00  0.0000000000000D+00
168  1.6700000000000D+00  0.0000000000000D+00  0.0000000000000D+00
169  1.6800000000000D+00  0.0000000000000D+00  0.0000000000000D+00
170  1.6900000000000D+00  0.0000000000000D+00  0.0000000000000D+00
171  1.7000000000000D+00  0.0000000000000D+00  0.0000000000000D+00
172  1.7100000000000D+00  0.0000000000000D+00  0.0000000000000D+00
173  1.7200000000000D+00  0.0000000000000D+00  0.0000000000000D+00
174  1.7300000000000D+00  0.0000000000000D+00  0.0000000000000D+00
175  1.7400000000000D+00  0.0000000000000D+00  0.0000000000000D+00
176  1.7500000000000D+00  0.0000000000000D+00  0.0000000000000D+00
177  1.7600000000000D+00  0.0000000000000D+00  0.0000000000000D+00
178  1.7700000000000D+00  0.0000000000000D+00  0.0000000000000D+00
179  1.7800000000000D+00  0.0000000000000D+00  0.0000000000000D+00
180  1.7900000000000D+00  0.0000000000000D+00  0.0000000000000D+00
181  1.8000000000000D+00  0.0000000000000D+00  0.0000000000000D+00
182  1.8100000000000D+00  0.0000000000000D+00  0.0000000000000D+00
183  1.8200000000000D+00  0.0000000000000D+00  0.0000000000000D+00
184  1.8300000000000D+00  0.0000000000000D+00  0.0000000000000D+00
185  1.8400000000000D+00  0.0000000000000D+00  0.0000000000000D+00
186  1.8500000000000D+00  0.0000000000000D+00  0.0000000000000D+00
187  1.8600000000000D+00  0.0000000000000D+00  0.0000000000000D+00
188  1.8700000000000D+00  0.0000000000000D+00  0.0000000000000D+00
189  1.8800000000000D+00  0.0000000000000D+00  0.0000000000000D+00
190  1.8900000000000D+00  0.0000000000000D+00  0.0000000000000D+00
191  1.9000000000000D+00  0.0000000000000D+00  0.0000000000000D+00
192  1.9100000000000D+00  0.0000000000000D+00  0.0000000000000D+00
193  1.9200000000000D+00  0.0000000000000D+00  0.0000000000000D+00
194  1.9300000000000D+00  0.0000000000000D+00  0.0000000000000D+00
195  1.9400000000000D+00  0.0000000000000D+00  0.0000000000000D+00
196  1.9500000000000D+00  0.0000000000000D+00  0.0000000000000D+00
197  1.9600000000000D+00  0.0000000000000D+00  0.0000000000000D+00
198  1.9700000000000D+00  0.0000000000000D+00  0.0000000000000D+00
199  1.9800000000000D+00  0.0000000000000D+00  0.0000000000000D+00
200  1.9900000000000D+00  0.0000000000000D+00  0.0000000000000D+00
201  2.0000000000000D+00  0.0000000000000D+00  0.0000000000000D+00
202  2.0100000000000D+00  0.0000000000000D+00  0.0000000000000D+00
203  2.0200000000000D+00  0.0000000000000D+00  0.0000000000000D+00
204  2.0300000000000D+00  0.0000000000000D+00  0.0000000000000D+00
205  2.0400000000000D+00  0.0000000000000D+00  0.0000000000000D+00
206  2.0500000000000D+00  0.0000000000000D+00  0.0000000000000D+00
207  2.0600000000000D+00  0.0000000000000D+00  0.0000000000000D+00
208  2.0700000000000D+00  0.0000000000000D+00  0.0000000000000D+00
209  2.0800000000000D+00  0.0000000000000D+00  0.0000000000000D+00
210  2.0900000000000D+00  0.0000000000000D+00  0.0000000000000D+00
211  2.1000000000000D+00  0.0000000000000D+00  0.0000000000000D+00
212  2.1100000000000D+00  0.0000000000000D+00  0.0000000000000D+00
213  2.1200000000000D+00  0.0000000000000D+00  0.0000000000000D+00
214  2.1300000000000D+00  0.0000000000000D+00  0.0000000000000D+00
215  2.1400000000000D+00  0.0000000000000D+00  0.0000000000000D+00
216  2.1500000000000D+00  0.0000000000000D+00  0.0000000000000D+00
217  2.1600000000000D+00  0.0000000000000D+00  0.0000000000000D+00
218  2.1700000000000D+00  0.0000000000000D+00  0.0000000000000D+00
219  2.1800000000000D+00  0.0000000000000D+00  0.0000000000000D+00
220  2.1900000000000D+00  0.0000000000000D+00  0.0000000000000D+00
221  2.2000000000000D+00  0.0000000000000D+00  0.0000000000000D+00
222  2.2100000000000D+00  0.0000000000000D+00  0.0000000000000D+00
223  2.2200000000000D+00  0.0000000000000D+00  0.0000000000000D+00
224  2.2300000000000D+00  0.0000000000000D+00  0.0000000000000D+00
225  2.2400000000000D+00  0.0000000000000D+00  0.0000000000000D+00
226  2.2500000000000D+00  0.0000000000000D+00  0.0000000000000D+00
227  2.2600000000000D+00  0.0000000000000D+00  0.0000000000000D+00
228  2.2700000000000D+00  0.0000000000000D+00  0.0000000000000D+00
229  2.2800000000000D+00  0.0000000000000D+00  0.0000000000000D+00
230  2.2900000000000D+00  0.0000000000000D+00  0.0000000000000D+00
231  2.3000000000000D+00  0.0000000000000D+00  0.0000000000000D+00
232  2.3100000000000D+00  0.0000000000000D+00  0.0000000000000D+00
233  2.3200000000000D+00  0.0000000000000D+00  0.0000000000000D+00
234  2.3300000000000D+00  0.0000000000000D+00  0.0000000000000D+00
235  2.3400000000000D+00  0.0000000000000D+00  0.0000000000000D+00
236  2.3500000000000D+00  0.0000000000000D+00  0.0000000000000D+00
237  2.3600000000000D+00  0.0000000000000D+00  0.0000000000000D+00
238  2.3700000000000D+00  0.0000000000000D+00  0.0000000000000D+00
239  2.3800000000000D+00  0.0000000000000D+00  0.0000000000000D+00
240  2.3900000000000D+00  0.0000000000000D+00  0.0000000000000D+00
241  2.4000000000000D+00  0.0000000000000D+00  0.0000000000000D+00
242  2.4100000000000D+00  0.0000000000000D+00  0.0000000000000D+00
243  2.4200000000000D+00  0.0000000000000D+00  0.0000000000000D+00
244  2.4300000000000D+00  0.0000000000000D+00  0.0000000000000D+00
245  2.4400000000000D+00  0.0000000000000D+00  0.0000000000000D+00
246  2.4500000000000D+00  0.0000000000000D+00  0.0000000000000D+00
247  2.4600000000000D+00  0.0000000000000D+00  0.0000000000000D+00
248  2.4700000000000D+00  0.0000000000000D+00  0.0000000000000D+00
249  2.4800000000000D+00  0.0000000000000D+00  0.0000000000000D+00
250  2.4900000000000D+00  0.0000000000000D+00  0.0000000000000D+00
251  2.5000000000000D+00  0.0000000000000D+00  0.0000000000000D+00
252  2.5100000000000D+00  0.0000000000000D+00  0.0000000000000D+00
253  2.5200000000000D+00  0.0000000000000D+00  0.0000000000000D+00
254  2.5300000000000D+00  0.0000000000000D+00  0.0000000000000D+00
255  2.5400000000000D+00  0.0000000000000D+00  0.0000000000000D+00
256  2.5500000000000D+00  0.0000000000000D+00  0.0000000000000D+00
257  2.5600000000000D+00  0.0000000000000D+00  0.0000000000000D+00
258  2.5700000000000D+00  0.0000000000000D+00  0.0000000000000D+00
259  2.5800000000000D+00  0.0000000000000D+00  0.0000000000000D+00
260  2.5900000000000D+00  0.0000000000000D+00  0.0000000000000D+00
261  2.6000000000000D+00  0.0000000000000D+00  0.0000000000000D+00
262  2.6100000000000D+00  0.0000000000000D+00  0.0000000000000D+00
263  2.6200000000000D+00  0.0000000000000D+00  0.0000000000000D+00
264  2.6300000000000D+00  0.0000000000000D+00  0.0000000000000D+00
265  2.6400000000000D+00  0.0000000000000D+00  0.0000000000000D+00
266  2.6500000000000D+00  0.0000000000000D+00  0.0000000000000D+00
267  2.6600000000000D+00  0.0000000000000D+00  0.0000000000000D+00
268  2.6700000000000D+00  0.0000000000000D+00  0.0000000000000D+00
269  2.6800000000000D+00  0.0000000000000D+00  0.0000000000000D+00
270  2.6900000000000D+00  0.0000000000000D+00  0.0000000000000D+00
271  2.7000000000000D+00  0.0000000000000D+00  0.0000000000000D+00
272  2.7100000000000D+00  0.0000000000000D+00  0.0000000000000D+00
273  2.7200000000000D+00  0.0000000000000D+00  0.0000000000000D+00
274  2.7300000000000D+00  0.0000000000000D+00  0.0000000000000D+00
275  2.7400000000000D+00  0.0000000000000D+00  0.0000000000000D+00
276  2.7500000000000D+00  0.0000000000000D+00  0.0000000000000D+00
277  2.7600000000000D+00  0.0000000000000D+00  0.0000000000000D+00
278  2.7700000000000D+00  0.0000000000000D+00  0.0000000000000D+00
279  2.7800000000000D+00  0.0000000000000D+00  0.0000000000000D+00
280  2.7900000000000D+00  0.0000000000000D+00  0.0000000000000D+00
281  2.8000000000000D+00  0.0000000000000D+00  0.0000000000000D+00
282  2.8100000000000D+00  0.0000000000000D+00  0.0000000000000D+00
283  2.8200000000000D+00  0.0000000000000D+00  0.0000000000000D+00
284  2.8300000000000D+00  0.0000000000000D+00  0.0000000000000D+00
285  2.8400000000000D+00  0.0000000000000D+00  0.0000000000000D+00
286  2.8500000000000D+00  0.0000000000000D+00  0.0000000000000D+00
287  2.8600000000000D+00  0.0000000000000D+00  0.0000000000000D+00
288  2.8700000000000D+00  0.0000000000000D+00  0.0000000000000D+00
289  2.8800000000000D+00  0.0000000000000D+00  0.0000000000000D+00
290  2.8900000000000D+00  0.0000000000000D+00  0.0000000000000D+00
291  2.9000000000000D+00  0.0000000000000D+00  0.0000000000000D+00
292  2.9100000000000D+00  0.0000000000000D+00  0.0000000000000D+00
293  2.9200000000000D+00  0.0000000000000D+00  0.0000000000000D+00
294  2.9300000000000D+00  0.0000000000000D+00  0.0000000000000D+00
295  2.9400000000000D+00  0.0000000000000D+00  0.0000000000000D+00
296  2.9500000000000D+00  0.0000000000000D+00  0.0000000000000D+00
297  2.9600000000000D+00  0.0000000000000D+00  0.0000000000000D+00
298  2.9700000000000D+00  0.0000000000000D+00  0.0000000000000D+00
299  2.9800000000000D+00  0.0000000000000D+00  0.0000000000000D+00
300  2.9900000000000D+00  0.0000000000000D+00  0.0000000000000D+00
301  3.0000000000000D+00  0.0000000000000D+00  0.0000000000000D+00
302  3.0100000000000D+00  0.0000000000000D+00  0.0000000000000D+00
303  3.0200000000000D+00  0.0000000000000D+00  0.0000000000000D+00
304  3.0300000000000D+00  0.0000000000000D+00  0.0000000000000D+00
305  3.0400000000000D+00  0.0000000000000D+00  0.0000000000000D+00
306  3.0500000000000D+00  0.0000000000000D+00  0.0000000000000D+00
307  3.0600000000000D+00  0.0000000000000D+00  0.0000000000000D+00
308  3.0700000000000D+00  0.0000000000000D+00  0.0000000000000D+00
309  3.0800000000000D+00  0.0000000000000D+00  0.0000000000000D+00
310  3.0900000000000D+00  0.0000000000000D+00  0.0000000000000D+00
311  3.1000000000000D+00  0.0000000000000D+00  0.0000000000000D+00
312  3.1100000000000D+00  0.0000000000000D+00  0.0000000000000D+00
313  3.1200000000000D+00  0.0000000000000D+00  0.0000000000000D+00
314  3.1300000000000D+00  0.0000000000000D+00  0.0000000000000D+00
315  3.1400000000000D+00  0.0000000000000D+00  0.0000000000000D+00
316  3.1500000000000D+00  0.0000000000000D+00  0.0000000000000D+00
317  3.1600000000000D+00  0.0000000000000D+00  0.0000000000000D+00
318  3.1700000000000D+00  0.0000000000000D+00  0.0000000000000D+00
319  3.1800000000000D+00  0.0000000000000D+00  0.0000000000000D+00
320  3.1900000000000D+00  0.0000000000000D+00  0.0000000000000D+00
321  3.2000000000000D+00  0.0000000000000D+00  0.0000000000000D+00
322  3.2100000000000D+00  0.0000000000000D+00  0.0000000000000D+00
323  3.2200000000000D+00  0.0000000000000D+00  0.0000000000000D+00
324  3.2300000000000D+00  0.0000000000000D+00  0.0000000000000D+00
325  3.2400000000000D+00  0.0000000000000D+00  0.0000000000000D+00
326  3.2500000000000D+00  0.0000000000000D+00  0.0000000000000D+00
327  3.2600000000000D+00  0.0000000000000D+00  0.0000000000000D+00
328  3.2700000000000D+00  0.0000000000000D+00  0.0000000000000D+00
329  3.2800000000000D+00  0.0000000000000D+00  0.0000000000000D+00
330  3.2900000000000D+00  0.0000000000000D+00  0.0000000000000D+00
331  3.3000000000000D+00  0.0000000000000D+00  0.0000000000000D+00
332  3.3100000000000D+00  0.0000000000000D+00  0.0000000000000D+00
333  3.3200000000000D+00  0.0000000000000D+00  0.0000000000000D+00
334  3.3300000000000D+00  0.0000000000000D+00  0.0000000000000D+00
335  3.3400000000000D+00  0.0000000000000D+00  0.0000000000000D+00
336  3.3500000000000D+00  0.0000000000000D+00  0.0000000000000D+00
337  3.3600000000000D+00  0.0000000000000D+00  0.0000000000000D+00
338  3.3700000000000D+00  0.0000000000000D+00  0.0000000000000D+00
339  3.3800000000000D+00  0.0000000000000D+00  0.0000000000000D+00
340  3.3900000000000D+00  0.0000000000000D+00  0.0000000000000D+00
341  3.4000000000000D+00  0.0000000000000D+00  0.0000000000000D+00
342  3.4100000000000D+00  0.0000000000000D+00  0.0000000000000D+00
343  3.4200000000000D+00  0.0000000000000D+00  0.0000000000000D+00
344  3.4300000000000D+00  0.0000000000000D+00  0.0000000000000D+00
345  3.4400000000000D+00  0.0000000000000D+00  0.0000000000000D+00
346  3.4500000000000D+00  0.0000000000000D+00  0.0000000000000D+00
347  3.4600000000000D+00  0.0000000000000D+00  0.0000000000000D+00
348  3.4700000000000D+00  0.0000000000000D+00  0.0000000000000D+00
349  3.4800000000000D+00  0.0000000000000D+00  0.0000000000000D+00
350  3.4900000000000D+00  0.0000000000000D+00  0.0000000000000D+00
351  3.5000000000000D+00  0.0000000000000D+00  0.0000000000000D+00
352  3.5100000000000D+00  0.0000000000000D+00  0.0000000000000D+00
353  3.5200000000000D+00  0.0000000000000D+00  0.0000000000000D+00
354  3.5300000000000D+00  0.0000000000000D+00  0.0000000000000D+00
355  3.5400000000000D+00  0.0000000000000D+00  0.0000000000000D+00
356  3.5500000000000D+00  0.0000000000000D+00  0.0000000000000D+00
357  3.5600000000000D+00  0.0000000000000D+00  0.0000000000000D+00
358  3.5700000000000D+00  0.0000000000000D+00  0.0000000000000D+00
359  3.5800000000000D+00  0.0000000000000D+00  0.0000000000000D+00
360  3.5900000000000D+00  0.0000000000000D+00  0.0000000000000D+00
361  3.6000000000000D+00  0.0000000000000D+00  0.0000000000000D+00
362  3.6100000000000D+00  0.0000000000000D+00  0.0000000000000D+00
363  3.6200000000000D+00  0.0000000000000D+00  0.0000000000000D+00
364  3.6300000000000D+00  0.0000000000000D+00  0.0000000000000D+00
365  3.6400000000000D+00  0.0000000000000D+00  0.0000000000000D+00
366  3.6500000000000D+00  0.0000000000000D+00  0.0000000000000D+00
367  3.6600000000000D+00  0.0000000000000D+00  0.0000000000000D+00
368  3.6700000000000D+00  0.0000000000000D+00  0.0000000000000D+00
369  3.6800000000000D+00  0.0000000000000D+00  0.0000000000000D+00
370  3.6900000000000D+00  0.0000000000000D+00  0.0000000000000D+00
371  3.7000000000000D+00  0.0000000000000D+00  0.0000000000000D+00
372  3.7100000000000D+00  0.0000000000000D+00  0.0000000000000D+00
373  3.7200000000000D+00  0.0000000000000D+00  0.0000000000000D+00
374  3.7300000000000D+00  0.0000000000000D+00  0.0000000000000D+00
375  3.7400000000000D+00  0.0000000000000D+00  0.0000000000000D+00
376  3.7500000000000D+00  0.0000000000000D+00  0.0000000000000D+00
377  3.7600000000000D+00  0.0000000000000D+00  0.0000000000000D+00
378  3.7700000000000D+00  0.0000000000000D+00  0.0000000000000D+00
379  3.7800000000000D+00  0.0000000000000D+00  0.0000000000000D+00
380  3.7900000000000D+00  0.0000000000000D+00  0.0000000000000D+00
381  3.8000000000000D+00  0.0000000000000D+00  0.0000000000000D+00
382  3.8100000000000D+00  0.0000000000000D+00  0.0000000000000D+00
383  3.8200000000000D+00  0.0000000000000D+00  0.0000000000000D+00
384  3.8300000000000D+00  0.0000000000000D+00  0.0000000000000D+00
385  3.8400000000000D+00  0.0000000000000D+00  0.0000000000000D+00
386  3.8500000000000D+00  0.0000000000000D+00  0.0000000000000D+00
387  3.8600000000000D+00  0.0000000000000D+00  0.0000000000000D+00
388  3.8700000000000D+00  0.0000000000000D+00  0.0000000000000D+00
389  3.8800000000000D+00  0.0000000000000D+00  0.0000000000000D+00
390  3.8900000000000D+00  0.0000000000000D+00  0.0000000000000D+00
391  3.9000000000000D+00  0.0000000000000D+00  0.0000000000000D+00
392  3.9100000000000D+00  0.0000000000000D+00  0.0000000000000D+00
393  3.9200000000000D+00  0.0000000000000D+00  0.0000000000000D+00
394  3.9300000000000D+00  0.0000000000000D+00  0.0000000000000D+00
395  3.9400000000000D+00  0.0000000000000D+00  0.0000000000000D+00
396  3.9500000000000D+00  0.0000000000000D+00  0.0000000000000D+00
397  3.9600000000000D+00  0.0000000000000D+00  0.0000000000000D+00
398  3.9700000000000D+00  0.0000000000000D+00  0.0000000000000D+00
399  3.9800000000000D+00  0.0000000000000D+00  0.0000000000000D+00
400  3.9900000000000D+00  0.0000000000000D+00  0.0000000000000D+00
401  4.0000000000000D+00  0.0000000000000D+00  0.0000000000000D+00
402  4.0100000000000D+00  0.0000000000000D+00  0.0000000000000D+00
403  4.0200000000000D+00  0.0000000000000D+00  0.0000000000000D+00
404  4.0300000000000D+00  0.0000000000000D+00  0.0000000000000D+00
405  4.0400000000000D+00  0.0000000000000D+00  0.0000000000000D+00
406  4.0500000000000D+00  0.0000000000000D+00  0.0000000000000D+00
407  4.0600000000000D+00  0.0000000000000D+00  0.0000000000000D+00
408  4.0700000000000D+00  0.0000000000000D+00  0.0000000000000D+00
409  4.0800000000000D+00  0.0000000000000D+00  0.0000000000000D+00
410  4.0900000000000D+00  0.0000000000000D+00  0.0000000000000D+00
411  4.1000000000000D+00  0.0000000000000D+00  0.0000000000000D+00
412  4.1100000000000D+00  0.0000000000000D+00  0.0000000000000D+00
413  4.1200000000000D+00  0.0000000000000D+00  0.0000000000000D+00
414  4.1300000000000D+00  0.0000000000000D+00  0.0000000000000D+00
415  4.1400000000000D+00  0.0000000000000D+00  0.0000000000000D+00
416  4.1500000000000D+00  0.0000000000000D+00  0.0000000000000D+00
417  4.1600000000000D+00  0.0000000000000D+00  0.0000000000000D+00
418  4.1700000000000D+00  0.0000000000000D+00  0.0000000000000D+00
419  4.1800000000000D+00  0.0000000000000D+00  0.0000000000000D+00
420  4.1900000000000D+00  0.0000000000000D+00  0.0000000000000D+00
421  4.2000000000000D+00  0.0000000000000D+00  0.0000000000000D+00
422  4.2100000000000D+00  0.0000000000000D+00  0.0000000000000D+00
423  4.2200000000000D+00  0.0000000000000D+00  0.0000000000000D+00
424  4.2300000000000D+00  0.0000000000000D+00  0.0000000000000D+00
425  4.2400000000000D+00  0.0000000000000D+00  0.0000000000000D+00
426  4.2500000000000D+00  0.0000000000000D+00  0.0000000000000D+00
427  4.2600000000000D+00  0.0000000000000D+00  0.0000000000000D+00
428  4.2700000000000D+00  0.0000000000000D+00  0.0000000000000D+00
429  4.2800000000000D+00  0.0000000000000D+00  0.0000000000000D+00
430  4.2900000000000D+00  0.0000000000000D+00  0.0000000000000D+00
431  4.3000000000000D+00  0.0000000000000D+00  0.0000000000000D+00
432  4.3100000000000D+00  0.0000000000000D+00  0.0000000000000D+00
433  4.3200000000000D+00  0.0000000000000D+00  0.0000000000000D+00
434  4.3300000000000D+00  0.0000000000000D+00  0.0000000000000D+00
435  4.3400000000000D+00  0.0000000000000D+00  0.0000000000000D+00
436  4.3500000000000D+00  0.0000000000000D+00  0.0000000000000D+00
437  4.3600000000000D+00  0.0000000000000D+00  0.0000000000000D+00
438  4.3700000000000D+00  0.0000000000000D+00  0.0000000000000D+00
439  4.3800000000000D+00  0.0000000000000D+00  0.0000000000000D+00
440  4.3900000000000D+00  0.0000000000000D+00  0.0000000000000D+00
441  4.4000000000000D+00  0.0000000000000D+00  0.0000000000000D+00
442  4.4100000000000D+00  0.0000000000000D+00  0.0000000000000D+00
443  4.4200000000000D+00  0.0000000000000D+00  0.0000000000000D+00