Zr    ONCVPSP  r_core=  1.57  1.57  1.51
40.0000     12.0000      150708    zatom,zion,pspd
8      11   2     4   600     0    pspcod,pspxc,lmax,lloc,mmax,r2well
5.99000000  5.00000000  0.00000000    rchrg fchrg qchrg
2     2     2     0     0    nproj
1                 extension_switch
0                         1.0640382072255D+01  8.9697944009301D-01
1  0.0000000000000D+00 -2.0705814840483D-10  1.0123011040530D-09
2  1.0000000000000D-02  5.6328335070235D-02 -3.2549043843180D-02
3  2.0000000000000D-02  1.1256272524712D-01 -6.4911019410716D-02
4  3.0000000000000D-02  1.6860961011538D-01 -9.6900516345628D-02
5  4.0000000000000D-02  2.2437619414537D-01 -1.2833541969366D-01
6  5.0000000000000D-02  2.7977081901299D-01 -1.5903850677924D-01
7  6.0000000000000D-02  3.3470332392126D-01 -1.8883898381876D-01
8  7.0000000000000D-02  3.8908539017007D-01 -2.1757394338701D-01
9  8.0000000000000D-02  4.4283086642826D-01 -2.4508972486491D-01
10  9.0000000000000D-02  4.9585607141548D-01 -2.7124316123880D-01
11  1.0000000000000D-01  5.4808007099923D-01 -2.9590269707727D-01
12  1.1000000000000D-01  5.9942492704914D-01 -3.1894936416403D-01
13  1.2000000000000D-01  6.4981591576382D-01 -3.4027760309300D-01
14  1.3000000000000D-01  6.9918171358863D-01 -3.5979592111319D-01
15  1.4000000000000D-01  7.4745454927165D-01 -3.7742737861989D-01
16  1.5000000000000D-01  7.9457032105457D-01 -3.9310989890095D-01
17  1.6000000000000D-01  8.4046867845784D-01 -4.0679639803277D-01
18  1.7000000000000D-01  8.8509306859141D-01 -4.1845473415303D-01
19  1.8000000000000D-01  9.2839074739573D-01 -4.2806747768629D-01
20  1.9000000000000D-01  9.7031275668735D-01 -4.3563150643418D-01
21  2.0000000000000D-01  1.0108138683427D+00 -4.4115743173582D-01
22  2.1000000000000D-01  1.0498524973963D+00 -4.4466886412548D-01
23  2.2000000000000D-01  1.0873905862517D+00 -4.4620152903642D-01
24  2.3000000000000D-01  1.1233934625938D+00 -4.4580224509352D-01
25  2.4000000000000D-01  1.1578296739537D+00 -4.4352777937809D-01
26  2.5000000000000D-01  1.1906708021965D+00 -4.3944359571137D-01
27  2.6000000000000D-01  1.2218912614827D+00 -4.3362251346597D-01
28  2.7000000000000D-01  1.2514680834835D+00 -4.2614329565860D-01
29  2.8000000000000D-01  1.2793806938157D+00 -4.1708918608426D-01
30  2.9000000000000D-01  1.3056106837862D+00 -4.0654641600779D-01
31  3.0000000000000D-01  1.3301415816136D+00 -3.9460270142255D-01
32  3.1000000000000D-01  1.3529586273083D+00 -3.8134575210851D-01
33  3.2000000000000D-01  1.3740485553527D+00 -3.6686181366976D-01
34  3.3000000000000D-01  1.3933993892255D+00 -3.5123426340206D-01
35  3.4000000000000D-01  1.4110002516570D+00 -3.3454228023644D-01
36  3.5000000000000D-01  1.4268411942918D+00 -3.1685960813135D-01
37  3.6000000000000D-01  1.4409130501731D+00 -2.9825343115089D-01
38  3.7000000000000D-01  1.4532073121429D+00 -2.7878337708361D-01
39  3.8000000000000D-01  1.4637160398953D+00 -2.5850066484016D-01
40  3.9000000000000D-01  1.4724317980113D+00 -2.3744740903618D-01
41  4.0000000000000D-01  1.4793476268607D+00 -2.1565609314271D-01
42  4.1000000000000D-01  1.4844570477813D+00 -1.9314922039127D-01
43  4.2000000000000D-01  1.4877541034404D+00 -1.6993914928315D-01
44  4.3000000000000D-01  1.4892334337580D+00 -1.4602811809909D-01
45  4.4000000000000D-01  1.4888903872349D+00 -1.2140846026728D-01
46  4.5000000000000D-01  1.4867211669772D+00 -9.6063009855814D-02
47  4.6000000000000D-01  1.4827230101655D+00 -6.9965693842332D-02
48  4.7000000000000D-01  1.4768943991719D+00 -4.3082305212382D-02
49  4.8000000000000D-01  1.4692353020026D+00 -1.5371448381267D-02
50  4.9000000000000D-01  1.4597474392368D+00  1.3214354043437D-02
51  5.0000000000000D-01  1.4484345741503D+00  4.2727406509815D-02
52  5.1000000000000D-01  1.4353028222712D+00  7.3223453355656D-02
53  5.2000000000000D-01  1.4203609762064D+00  1.0476017685824D-01
54  5.3000000000000D-01  1.4036208412228D+00  1.3739559998226D-01
55  5.4000000000000D-01  1.3850975767572D+00  1.7118641493270D-01
56  5.5000000000000D-01  1.3648100387841D+00  2.0618625999823D-01
57  5.6000000000000D-01  1.3427811177776D+00  2.4244396827248D-01
58  5.7000000000000D-01  1.3190380668825D+00  2.8000181265908D-01
59  5.8000000000000D-01  1.2936128148536D+00  3.1889377207803D-01
60  5.9000000000000D-01  1.2665422583320D+00  3.5914384399238D-01
61  6.0000000000000D-01  1.2378685281142D+00  4.0076442825222D-01
62  6.1000000000000D-01  1.2076392242214D+00  4.4375480681028D-01
63  6.2000000000000D-01  1.1759076148004D+00  4.8809974309833D-01
64  6.3000000000000D-01  1.1427327941818D+00  5.3376822376653D-01
65  6.4000000000000D-01  1.1081797957783D+00  5.8071236410527D-01
66  6.5000000000000D-01  1.0723196559278D+00  6.2886649677506D-01
67  6.6000000000000D-01  1.0352294252705D+00  6.7814646150932D-01
68  6.7000000000000D-01  9.9699212477567D-01  7.2844911124264D-01
69  6.8000000000000D-01  9.5769664412718D-01  7.7965204765145D-01
70  6.9000000000000D-01  9.1743758079438D-01  8.3161359644375D-01
71  7.0000000000000D-01  8.7631501877889D-01  8.8417302990123D-01
72  7.1000000000000D-01  8.3443424671452D-01  9.3715104120176D-01
73  7.2000000000000D-01  7.9190541570672D-01  9.9035047196374D-01
74  7.3000000000000D-01  7.4884313801569D-01  1.0435572913084D+00
75  7.4000000000000D-01  7.0536602841024D-01  1.0965418215469D+00
76  7.5000000000000D-01  6.6159619073447D-01  1.1490602024299D+00
77  7.6000000000000D-01  6.1765865293071D-01  1.2008560827656D+00
78  7.7000000000000D-01  5.7368075444043D-01  1.2516625251693D+00
79  7.8000000000000D-01  5.2979149054906D-01  1.3012041067972D+00
80  7.9000000000000D-01  4.8612081884552D-01  1.3491991961650D+00
81  8.0000000000000D-01  4.4279893352337D-01  1.3953623836005D+00
82  8.1000000000000D-01  3.9995551375006D-01  1.4394070405681D+00
83  8.2000000000000D-01  3.5771895276769D-01  1.4810479810522D+00
84  8.3000000000000D-01  3.1621557475568D-01  1.5200041964376D+00
85  8.4000000000000D-01  2.7556884677835D-01  1.5560016338943D+00
86  8.5000000000000D-01  2.3589859335296D-01  1.5887759871912D+00
87  8.6000000000000D-01  1.9732022130346D-01  1.6180754681351D+00
88  8.7000000000000D-01  1.5994396260777D-01  1.6436635264912D+00
89  8.8000000000000D-01  1.2387414290229D-01  1.6653214862735D+00
90  8.9000000000000D-01  8.9208483173012D-02  1.6828510667244D+00
91  9.0000000000000D-01  5.6037441941039D-02  1.6960767571201D+00
92  9.1000000000000D-01  2.4443604940908D-02  1.7048480157414D+00
93  9.2000000000000D-01 -5.4988711034672D-03  1.7090412649242D+00
94  9.3000000000000D-01 -3.3724754475139D-02  1.7085616560464D+00
95  9.4000000000000D-01 -6.0178168653844D-02  1.7033445805809D+00
96  9.5000000000000D-01 -8.4812951742199D-02  1.6933569059449D+00
97  9.6000000000000D-01 -1.0759294085788D-01  1.6785979177573D+00
98  9.7000000000000D-01 -1.2849217796258D-01  1.6590999532511D+00
99  9.8000000000000D-01 -1.4749503440272D-01  1.6349287140013D+00
100  9.9000000000000D-01 -1.6459625224302D-01  1.6061832495659D+00
101  1.0000000000000D+00 -1.7980090136542D-01  1.5729956074462D+00
102  1.0100000000000D+00 -1.9312425217464D-01  1.5355301484994D+00
103  1.0200000000000D+00 -2.0459156464743D-01  1.4939825307827D+00
104  1.0300000000000D+00 -2.1423779535578D-01  1.4485783686533D+00
105  1.0400000000000D+00 -2.2210722498727D-01  1.3995715777969D+00
106  1.0500000000000D+00 -2.2825300973447D-01  1.3472424205207D+00
107  1.0600000000000D+00 -2.3273666074649D-01  1.2918952691938D+00
108  1.0700000000000D+00 -2.3562745666281D-01  1.2338561092916D+00
109  1.0800000000000D+00 -2.3700179494425D-01  1.1734698065076D+00
110  1.0900000000000D+00 -2.3694248842253D-01  1.1110971654476D+00
111  1.1000000000000D+00 -2.3553801406559D-01  1.0471118099117D+00
112  1.1100000000000D+00 -2.3288172149920D-01  9.8189691711427D-01
113  1.1200000000000D+00 -2.2907100929052D-01  9.1584184019477D-01
114  1.1300000000000D+00 -2.2420647732344D-01  8.4933865476365D-01
115  1.1400000000000D+00 -2.1839106385721D-01  7.8277866633673D-01
116  1.1500000000000D+00 -2.1172917603245D-01  7.1654891624146D-01
117  1.1600000000000D+00 -2.0432582265780D-01  6.5102872383934D-01
118  1.1700000000000D+00 -1.9628575803050D-01  5.8658630252491D-01
119  1.1800000000000D+00 -1.8771264540385D-01  5.2357548630979D-01
120  1.1900000000000D+00 -1.7870824853518D-01  4.6233260297880D-01
121  1.2000000000000D+00 -1.6937165931265D-01  4.0317352784547D-01
122  1.2100000000000D+00 -1.5979856894016D-01  3.4639094981583D-01
123  1.2200000000000D+00 -1.5008058993665D-01  2.9225188046517D-01
124  1.2300000000000D+00 -1.4030463524283D-01  2.4099543253663D-01
125  1.2400000000000D+00 -1.3055236006967D-01  1.9283089134000D-01
126  1.2500000000000D+00 -1.2089967162674D-01  1.4793610032051D-01
127  1.2600000000000D+00 -1.1141631084136D-01  1.0645617749610D-01
128  1.2700000000000D+00 -1.0216550905595D-01  6.8502574476560D-02
129  1.2800000000000D+00 -9.3203722277992D-02  3.4152487942917D-02
130  1.2900000000000D+00 -8.4580444401586D-02  3.4486283344924D-03
131  1.3000000000000D+00 -7.6338099346155D-02 -2.3600656036376D-02
132  1.3100000000000D+00 -6.8512011995049D-02 -4.7020901500746D-02
133  1.3200000000000D+00 -6.1130456291690D-02 -6.6870707000651D-02
134  1.3300000000000D+00 -5.4214777435115D-02 -8.3240582581197D-02
135  1.3400000000000D+00 -4.7779585533901D-02 -9.6251481640915D-02
136  1.3500000000000D+00 -4.1833015840345D-02 -1.0605304006583D-01
137  1.3600000000000D+00 -3.6377050113789D-02 -1.1282154787113D-01
138  1.3700000000000D+00 -3.1407894091129D-02 -1.1675767711343D-01
139  1.3800000000000D+00 -2.6916403263026D-02 -1.1808400204761D-01
140  1.3900000000000D+00 -2.2888550329636D-02 -1.1704234231294D-01
141  1.4000000000000D+00 -1.9305926393033D-02 -1.1389096575607D-01
142  1.4100000000000D+00 -1.6146265913735D-02 -1.0890169742889D-01
143  1.4200000000000D+00 -1.3383995149249D-02 -1.0235693063659D-01
144  1.4300000000000D+00 -1.0990762965232D-02 -9.4546748758184D-02
145  1.4400000000000D+00 -8.9360572709983D-03 -8.5765618927114D-02
146  1.4500000000000D+00 -7.1876640671069D-03 -7.6309894546253D-02
147  1.4600000000000D+00 -5.7120378381115D-03 -6.6475835125118D-02
148  1.4700000000000D+00 -4.4756197244872D-03 -5.6552530483748D-02
149  1.4800000000000D+00 -3.4460361622244D-03 -4.6815590322942D-02
150  1.4900000000000D+00 -2.5935369302085D-03 -3.7519819017495D-02
151  1.5000000000000D+00 -1.8918888814664D-03 -2.8894779759272D-02
152  1.5100000000000D+00 -1.3187102478304D-03 -2.1143396305843D-02
153  1.5200000000000D+00 -8.5627920658277D-04 -1.4444987005733D-02
154  1.5300000000000D+00 -4.9052340309270D-04 -8.9146667349565D-03
155  1.5400000000000D+00 -2.1402584159910D-04 -4.6724886403102D-03
156  1.5500000000000D+00 -2.5315176347534D-05 -1.9265553791891D-03
157  1.5600000000000D+00  7.2732343873289D-05 -5.7399028502496D-04
158  1.5700000000000D+00  7.4380009300555D-05 -8.7166326642165D-05
159  1.5800000000000D+00  1.9991754970809D-05  5.3888270568902D-06
160  1.5900000000000D+00 -1.1242618510157D-05 -8.7936934853394D-06
161  1.6000000000000D+00 -4.4712481456940D-06 -5.0955454994981D-06
162  1.6100000000000D+00  2.4494911285128D-06  5.8259894118691D-07
163  1.6200000000000D+00  7.7363098830061D-07  3.1157865886802D-07
164  1.6300000000000D+00 -2.4033786710876D-07  7.2148357772218D-07
165  1.6400000000000D+00 -5.7500056836999D-08  1.7261261084261D-07
166  1.6500000000000D+00  0.0000000000000D+00  0.0000000000000D+00
167  1.6600000000000D+00  0.0000000000000D+00  0.0000000000000D+00
168  1.6700000000000D+00  0.0000000000000D+00  0.0000000000000D+00
169  1.6800000000000D+00  0.0000000000000D+00  0.0000000000000D+00
170  1.6900000000000D+00  0.0000000000000D+00  0.0000000000000D+00
171  1.7000000000000D+00  0.0000000000000D+00  0.0000000000000D+00
172  1.7100000000000D+00  0.0000000000000D+00  0.0000000000000D+00
173  1.7200000000000D+00  0.0000000000000D+00  0.0000000000000D+00
174  1.7300000000000D+00  0.0000000000000D+00  0.0000000000000D+00
175  1.7400000000000D+00  0.0000000000000D+00  0.0000000000000D+00
176  1.7500000000000D+00  0.0000000000000D+00  0.0000000000000D+00
177  1.7600000000000D+00  0.0000000000000D+00  0.0000000000000D+00
178  1.7700000000000D+00  0.0000000000000D+00  0.0000000000000D+00
179  1.7800000000000D+00  0.0000000000000D+00  0.0000000000000D+00
180  1.7900000000000D+00  0.0000000000000D+00  0.0000000000000D+00
181  1.8000000000000D+00  0.0000000000000D+00  0.0000000000000D+00
182  1.8100000000000D+00  0.0000000000000D+00  0.0000000000000D+00
183  1.8200000000000D+00  0.0000000000000D+00  0.0000000000000D+00
184  1.8300000000000D+00  0.0000000000000D+00  0.0000000000000D+00
185  1.8400000000000D+00  0.0000000000000D+00  0.0000000000000D+00
186  1.8500000000000D+00  0.0000000000000D+00  0.0000000000000D+00
187  1.8600000000000D+00  0.0000000000000D+00  0.0000000000000D+00
188  1.8700000000000D+00  0.0000000000000D+00  0.0000000000000D+00
189  1.8800000000000D+00  0.0000000000000D+00  0.0000000000000D+00
190  1.8900000000000D+00  0.0000000000000D+00  0.0000000000000D+00
191  1.9000000000000D+00  0.0000000000000D+00  0.0000000000000D+00
192  1.9100000000000D+00  0.0000000000000D+00  0.0000000000000D+00
193  1.9200000000000D+00  0.0000000000000D+00  0.0000000000000D+00
194  1.9300000000000D+00  0.0000000000000D+00  0.0000000000000D+00
195  1.9400000000000D+00  0.0000000000000D+00  0.0000000000000D+00
196  1.9500000000000D+00  0.0000000000000D+00  0.0000000000000D+00
197  1.9600000000000D+00  0.0000000000000D+00  0.0000000000000D+00
198  1.9700000000000D+00  0.0000000000000D+00  0.0000000000000D+00
199  1.9800000000000D+00  0.0000000000000D+00  0.0000000000000D+00
200  1.9900000000000D+00  0.0000000000000D+00  0.0000000000000D+00
201  2.0000000000000D+00  0.0000000000000D+00  0.0000000000000D+00
202  2.0100000000000D+00  0.0000000000000D+00  0.0000000000000D+00
203  2.0200000000000D+00  0.0000000000000D+00  0.0000000000000D+00
204  2.0300000000000D+00  0.0000000000000D+00  0.0000000000000D+00
205  2.0400000000000D+00  0.0000000000000D+00  0.0000000000000D+00
206  2.0500000000000D+00  0.0000000000000D+00  0.0000000000000D+00
207  2.0600000000000D+00  0.0000000000000D+00  0.0000000000000D+00
208  2.0700000000000D+00  0.0000000000000D+00  0.0000000000000D+00
209  2.0800000000000D+00  0.0000000000000D+00  0.0000000000000D+00
210  2.0900000000000D+00  0.0000000000000D+00  0.0000000000000D+00
211  2.1000000000000D+00  0.0000000000000D+00  0.0000000000000D+00
212  2.1100000000000D+00  0.0000000000000D+00  0.0000000000000D+00
213  2.1200000000000D+00  0.0000000000000D+00  0.0000000000000D+00
214  2.1300000000000D+00  0.0000000000000D+00  0.0000000000000D+00
215  2.1400000000000D+00  0.0000000000000D+00  0.0000000000000D+00
216  2.1500000000000D+00  0.0000000000000D+00  0.0000000000000D+00
217  2.1600000000000D+00  0.0000000000000D+00  0.0000000000000D+00
218  2.1700000000000D+00  0.0000000000000D+00  0.0000000000000D+00
219  2.1800000000000D+00  0.0000000000000D+00  0.0000000000000D+00
220  2.1900000000000D+00  0.0000000000000D+00  0.0000000000000D+00
221  2.2000000000000D+00  0.0000000000000D+00  0.0000000000000D+00
222  2.2100000000000D+00  0.0000000000000D+00  0.0000000000000D+00
223  2.2200000000000D+00  0.0000000000000D+00  0.0000000000000D+00
224  2.2300000000000D+00  0.0000000000000D+00  0.0000000000000D+00
225  2.2400000000000D+00  0.0000000000000D+00  0.0000000000000D+00
226  2.2500000000000D+00  0.0000000000000D+00  0.0000000000000D+00
227  2.2600000000000D+00  0.0000000000000D+00  0.0000000000000D+00
228  2.2700000000000D+00  0.0000000000000D+00  0.0000000000000D+00
229  2.2800000000000D+00  0.0000000000000D+00  0.0000000000000D+00
230  2.2900000000000D+00  0.0000000000000D+00  0.0000000000000D+00
231  2.3000000000000D+00  0.0000000000000D+00  0.0000000000000D+00
232  2.3100000000000D+00  0.0000000000000D+00  0.0000000000000D+00
233  2.3200000000000D+00  0.0000000000000D+00  0.0000000000000D+00
234  2.3300000000000D+00  0.0000000000000D+00  0.0000000000000D+00
235  2.3400000000000D+00  0.0000000000000D+00  0.0000000000000D+00
236  2.3500000000000D+00  0.0000000000000D+00  0.0000000000000D+00
237  2.3600000000000D+00  0.0000000000000D+00  0.0000000000000D+00
238  2.3700000000000D+00  0.0000000000000D+00  0.0000000000000D+00
239  2.3800000000000D+00  0.0000000000000D+00  0.0000000000000D+00
240  2.3900000000000D+00  0.0000000000000D+00  0.0000000000000D+00
241  2.4000000000000D+00  0.0000000000000D+00  0.0000000000000D+00
242  2.4100000000000D+00  0.0000000000000D+00  0.0000000000000D+00
243  2.4200000000000D+00  0.0000000000000D+00  0.0000000000000D+00
244  2.4300000000000D+00  0.0000000000000D+00  0.0000000000000D+00
245  2.4400000000000D+00  0.0000000000000D+00  0.0000000000000D+00
246  2.4500000000000D+00  0.0000000000000D+00  0.0000000000000D+00
247  2.4600000000000D+00  0.0000000000000D+00  0.0000000000000D+00
248  2.4700000000000D+00  0.0000000000000D+00  0.0000000000000D+00
249  2.4800000000000D+00  0.0000000000000D+00  0.0000000000000D+00
250  2.4900000000000D+00  0.0000000000000D+00  0.0000000000000D+00
251  2.5000000000000D+00  0.0000000000000D+00  0.0000000000000D+00
252  2.5100000000000D+00  0.0000000000000D+00  0.0000000000000D+00
253  2.5200000000000D+00  0.0000000000000D+00  0.0000000000000D+00
254  2.5300000000000D+00  0.0000000000000D+00  0.0000000000000D+00
255  2.5400000000000D+00  0.0000000000000D+00  0.0000000000000D+00
256  2.5500000000000D+00  0.0000000000000D+00  0.0000000000000D+00
257  2.5600000000000D+00  0.0000000000000D+00  0.0000000000000D+00
258  2.5700000000000D+00  0.0000000000000D+00  0.0000000000000D+00
259  2.5800000000000D+00  0.0000000000000D+00  0.0000000000000D+00
260  2.5900000000000D+00  0.0000000000000D+00  0.0000000000000D+00
261  2.6000000000000D+00  0.0000000000000D+00  0.0000000000000D+00
262  2.6100000000000D+00  0.0000000000000D+00  0.0000000000000D+00
263  2.6200000000000D+00  0.0000000000000D+00  0.0000000000000D+00
264  2.6300000000000D+00  0.0000000000000D+00  0.0000000000000D+00
265  2.6400000000000D+00  0.0000000000000D+00  0.0000000000000D+00
266  2.6500000000000D+00  0.0000000000000D+00  0.0000000000000D+00
267  2.6600000000000D+00  0.0000000000000D+00  0.0000000000000D+00
268  2.6700000000000D+00  0.0000000000000D+00  0.0000000000000D+00
269  2.6800000000000D+00  0.0000000000000D+00  0.0000000000000D+00
270  2.6900000000000D+00  0.0000000000000D+00  0.0000000000000D+00
271  2.7000000000000D+00  0.0000000000000D+00  0.0000000000000D+00
272  2.7100000000000D+00  0.0000000000000D+00  0.0000000000000D+00
273  2.7200000000000D+00  0.0000000000000D+00  0.0000000000000D+00
274  2.7300000000000D+00  0.0000000000000D+00  0.0000000000000D+00
275  2.7400000000000D+00  0.0000000000000D+00  0.0000000000000D+00
276  2.7500000000000D+00  0.0000000000000D+00  0.0000000000000D+00
277  2.7600000000000D+00  0.0000000000000D+00  0.0000000000000D+00
278  2.7700000000000D+00  0.0000000000000D+00  0.0000000000000D+00
279  2.7800000000000D+00  0.0000000000000D+00  0.0000000000000D+00
280  2.7900000000000D+00  0.0000000000000D+00  0.0000000000000D+00
281  2.8000000000000D+00  0.0000000000000D+00  0.0000000000000D+00
282  2.8100000000000D+00  0.0000000000000D+00  0.0000000000000D+00
283  2.8200000000000D+00  0.0000000000000D+00  0.0000000000000D+00
284  2.8300000000000D+00  0.0000000000000D+00  0.0000000000000D+00
285  2.8400000000000D+00  0.0000000000000D+00  0.0000000000000D+00
286  2.8500000000000D+00  0.0000000000000D+00  0.0000000000000D+00
287  2.8600000000000D+00  0.0000000000000D+00  0.0000000000000D+00
288  2.8700000000000D+00  0.0000000000000D+00  0.0000000000000D+00
289  2.8800000000000D+00  0.0000000000000D+00  0.0000000000000D+00
290  2.8900000000000D+00  0.0000000000000D+00  0.0000000000000D+00
291  2.9000000000000D+00  0.0000000000000D+00  0.0000000000000D+00
292  2.9100000000000D+00  0.0000000000000D+00  0.0000000000000D+00
293  2.9200000000000D+00  0.0000000000000D+00  0.0000000000000D+00
294  2.9300000000000D+00  0.0000000000000D+00  0.0000000000000D+00
295  2.9400000000000D+00  0.0000000000000D+00  0.0000000000000D+00
296  2.9500000000000D+00  0.0000000000000D+00  0.0000000000000D+00
297  2.9600000000000D+00  0.0000000000000D+00  0.0000000000000D+00
298  2.9700000000000D+00  0.0000000000000D+00  0.0000000000000D+00
299  2.9800000000000D+00  0.0000000000000D+00  0.0000000000000D+00
300  2.9900000000000D+00  0.0000000000000D+00  0.0000000000000D+00
301  3.0000000000000D+00  0.0000000000000D+00  0.0000000000000D+00
302  3.0100000000000D+00  0.0000000000000D+00  0.0000000000000D+00
303  3.0200000000000D+00  0.0000000000000D+00  0.0000000000000D+00
304  3.0300000000000D+00  0.0000000000000D+00  0.0000000000000D+00
305  3.0400000000000D+00  0.0000000000000D+00  0.0000000000000D+00
306  3.0500000000000D+00  0.0000000000000D+00  0.0000000000000D+00
307  3.0600000000000D+00  0.0000000000000D+00  0.0000000000000D+00
308  3.0700000000000D+00  0.0000000000000D+00  0.0000000000000D+00
309  3.0800000000000D+00  0.0000000000000D+00  0.0000000000000D+00
310  3.0900000000000D+00  0.0000000000000D+00  0.0000000000000D+00
311  3.1000000000000D+00  0.0000000000000D+00  0.0000000000000D+00
312  3.1100000000000D+00  0.0000000000000D+00  0.0000000000000D+00
313  3.1200000000000D+00  0.0000000000000D+00  0.0000000000000D+00
314  3.1300000000000D+00  0.0000000000000D+00  0.0000000000000D+00
315  3.1400000000000D+00  0.0000000000000D+00  0.0000000000000D+00
316  3.1500000000000D+00  0.0000000000000D+00  0.0000000000000D+00
317  3.1600000000000D+00  0.0000000000000D+00  0.0000000000000D+00
318  3.1700000000000D+00  0.0000000000000D+00  0.0000000000000D+00
319  3.1800000000000D+00  0.0000000000000D+00  0.0000000000000D+00
320  3.1900000000000D+00  0.0000000000000D+00  0.0000000000000D+00
321  3.2000000000000D+00  0.0000000000000D+00  0.0000000000000D+00
322  3.2100000000000D+00  0.0000000000000D+00  0.0000000000000D+00
323  3.2200000000000D+00  0.0000000000000D+00  0.0000000000000D+00
324  3.2300000000000D+00  0.0000000000000D+00  0.0000000000000D+00
325  3.2400000000000D+00  0.0000000000000D+00  0.0000000000000D+00
326  3.2500000000000D+00  0.0000000000000D+00  0.0000000000000D+00
327  3.2600000000000D+00  0.0000000000000D+00  0.0000000000000D+00
328  3.2700000000000D+00  0.0000000000000D+00  0.0000000000000D+00
329  3.2800000000000D+00  0.0000000000000D+00  0.0000000000000D+00
330  3.2900000000000D+00  0.0000000000000D+00  0.0000000000000D+00
331  3.3000000000000D+00  0.0000000000000D+00  0.0000000000000D+00
332  3.3100000000000D+00  0.0000000000000D+00  0.0000000000000D+00
333  3.3200000000000D+00  0.0000000000000D+00  0.0000000000000D+00
334  3.3300000000000D+00  0.0000000000000D+00  0.0000000000000D+00
335  3.3400000000000D+00  0.0000000000000D+00  0.0000000000000D+00
336  3.3500000000000D+00  0.0000000000000D+00  0.0000000000000D+00
337  3.3600000000000D+00  0.0000000000000D+00  0.0000000000000D+00
338  3.3700000000000D+00  0.0000000000000D+00  0.0000000000000D+00
339  3.3800000000000D+00  0.0000000000000D+00  0.0000000000000D+00
340  3.3900000000000D+00  0.0000000000000D+00  0.0000000000000D+00
341  3.4000000000000D+00  0.0000000000000D+00  0.0000000000000D+00
342  3.4100000000000D+00  0.0000000000000D+00  0.0000000000000D+00
343  3.4200000000000D+00  0.0000000000000D+00  0.0000000000000D+00
344  3.4300000000000D+00  0.0000000000000D+00  0.0000000000000D+00
345  3.4400000000000D+00  0.0000000000000D+00  0.0000000000000D+00
346  3.4500000000000D+00  0.0000000000000D+00  0.0000000000000D+00
347  3.4600000000000D+00  0.0000000000000D+00  0.0000000000000D+00
348  3.4700000000000D+00  0.0000000000000D+00  0.0000000000000D+00
349  3.4800000000000D+00  0.0000000000000D+00  0.0000000000000D+00
350  3.4900000000000D+00  0.0000000000000D+00  0.0000000000000D+00
351  3.5000000000000D+00  0.0000000000000D+00  0.0000000000000D+00
352  3.5100000000000D+00  0.0000000000000D+00  0.0000000000000D+00
353  3.5200000000000D+00  0.0000000000000D+00  0.0000000000000D+00
354  3.5300000000000D+00  0.0000000000000D+00  0.0000000000000D+00
355  3.5400000000000D+00  0.0000000000000D+00  0.0000000000000D+00
356  3.5500000000000D+00  0.0000000000000D+00  0.0000000000000D+00
357  3.5600000000000D+00  0.0000000000000D+00  0.0000000000000D+00
358  3.5700000000000D+00  0.0000000000000D+00  0.0000000000000D+00
359  3.5800000000000D+00  0.0000000000000D+00  0.0000000000000D+00
360  3.5900000000000D+00  0.0000000000000D+00  0.0000000000000D+00
361  3.6000000000000D+00  0.0000000000000D+00  0.0000000000000D+00
362  3.6100000000000D+00  0.0000000000000D+00  0.0000000000000D+00
363  3.6200000000000D+00  0.0000000000000D+00  0.0000000000000D+00
364  3.6300000000000D+00  0.0000000000000D+00  0.0000000000000D+00
365  3.6400000000000D+00  0.0000000000000D+00  0.0000000000000D+00
366  3.6500000000000D+00  0.0000000000000D+00  0.0000000000000D+00
367  3.6600000000000D+00  0.0000000000000D+00  0.0000000000000D+00
368  3.6700000000000D+00  0.0000000000000D+00  0.0000000000000D+00
369  3.6800000000000D+00  0.0000000000000D+00  0.0000000000000D+00
370  3.6900000000000D+00  0.0000000000000D+00  0.0000000000000D+00
371  3.7000000000000D+00  0.0000000000000D+00  0.0000000000000D+00
372  3.7100000000000D+00  0.0000000000000D+00  0.0000000000000D+00
373  3.7200000000000D+00  0.0000000000000D+00  0.0000000000000D+00
374  3.7300000000000D+00  0.0000000000000D+00  0.0000000000000D+00
375  3.7400000000000D+00  0.0000000000000D+00  0.0000000000000D+00
376  3.7500000000000D+00  0.0000000000000D+00  0.0000000000000D+00
377  3.7600000000000D+00  0.0000000000000D+00  0.0000000000000D+00
378  3.7700000000000D+00  0.0000000000000D+00  0.0000000000000D+00
379  3.7800000000000D+00  0.0000000000000D+00  0.0000000000000D+00
380  3.7900000000000D+00  0.0000000000000D+00  0.0000000000000D+00
381  3.8000000000000D+00  0.0000000000000D+00  0.0000000000000D+00
382  3.8100000000000D+00  0.0000000000000D+00  0.0000000000000D+00
383  3.8200000000000D+00  0.0000000000000D+00  0.0000000000000D+00
384  3.8300000000000D+00  0.0000000000000D+00  0.0000000000000D+00
385  3.8400000000000D+00  0.0000000000000D+00  0.0000000000000D+00
386  3.8500000000000D+00  0.0000000000000D+00  0.0000000000000D+00
387  3.8600000000000D+00  0.0000000000000D+00  0.0000000000000D+00
388  3.8700000000000D+00  0.0000000000000D+00  0.0000000000000D+00
389  3.8800000000000D+00  0.0000000000000D+00  0.0000000000000D+00
390  3.8900000000000D+00  0.0000000000000D+00  0.0000000000000D+00
391  3.9000000000000D+00  0.0000000000000D+00  0.0000000000000D+00
392  3.9100000000000D+00  0.0000000000000D+00  0.0000000000000D+00
393  3.9200000000000D+00  0.0000000000000D+00  0.0000000000000D+00
394  3.9300000000000D+00  0.0000000000000D+00  0.0000000000000D+00
395  3.9400000000000D+00  0.0000000000000D+00  0.0000000000000D+00
396  3.9500000000000D+00  0.0000000000000D+00  0.0000000000000D+00
397  3.9600000000000D+00  0.0000000000000D+00  0.0000000000000D+00
398  3.9700000000000D+00  0.0000000000000D+00  0.0000000000000D+00
399  3.9800000000000D+00  0.0000000000000D+00  0.0000000000000D+00
400  3.9900000000000D+00  0.0000000000000D+00  0.0000000000000D+00
401  4.0000000000000D+00  0.0000000000000D+00  0.0000000000000D+00
402  4.0100000000000D+00  0.0000000000000D+00  0.0000000000000D+00
403  4.0200000000000D+00  0.0000000000000D+00  0.0000000000000D+00
404  4.0300000000000D+00  0.0000000000000D+00  0.0000000000000D+00
405  4.0400000000000D+00  0.0000000000000D+00  0.0000000000000D+00
406  4.0500000000000D+00  0.0000000000000D+00  0.0000000000000D+00
407  4.0600000000000D+00  0.0000000000000D+00  0.0000000000000D+00
408  4.0700000000000D+00  0.0000000000000D+00  0.0000000000000D+00
409  4.0800000000000D+00  0.0000000000000D+00  0.0000000000000D+00
410  4.0900000000000D+00  0.0000000000000D+00  0.0000000000000D+00
411  4.1000000000000D+00  0.0000000000000D+00  0.0000000000000D+00
412  4.1100000000000D+00  0.0000000000000D+00  0.0000000000000D+00
413  4.1200000000000D+00  0.0000000000000D+00  0.0000000000000D+00
414  4.1300000000000D+00  0.0000000000000D+00  0.0000000000000D+00
415  4.1400000000000D+00  0.0000000000000D+00  0.0000000000000D+00
416  4.1500000000000D+00  0.0000000000000D+00  0.0000000000000D+00
417  4.1600000000000D+00  0.0000000000000D+00  0.0000000000000D+00
418  4.1700000000000D+00  0.0000000000000D+00  0.0000000000000D+00
419  4.1800000000000D+00  0.0000000000000D+00  0.0000000000000D+00
420  4.1900000000000D+00  0.0000000000000D+00  0.0000000000000D+00
421  4.2000000000000D+00  0.0000000000000D+00  0.0000000000000D+00
422  4.2100000000000D+00  0.0000000000000D+00  0.0000000000000D+00
423  4.2200000000000D+00  0.0000000000000D+00  0.0000000000000D+00
424  4.2300000000000D+00  0.0000000000000D+00  0.0000000000000D+00
425  4.2400000000000D+00  0.0000000000000D+00  0.0000000000000D+00
426  4.2500000000000D+00  0.0000000000000D+00  0.0000000000000D+00
427  4.2600000000000D+00  0.0000000000000D+00  0.0000000000000D+00
428  4.2700000000000D+00  0.0000000000000D+00  0.0000000000000D+00
429  4.2800000000000D+00  0.0000000000000D+00  0.0000000000000D+00
430  4.2900000000000D+00  0.0000000000000D+00  0.0000000000000D+00
431  4.3000000000000D+00  0.0000000000000D+00  0.0000000000000D+00
432  4.3100000000000D+00  0.0000000000000D+00  0.0000000000000D+00
433  4.3200000000000D+00  0.0000000000000D+00  0.0000000000000D+00
434  4.3300000000000D+00  0.0000000000000D+00  0.0000000000000D+00
435  4.3400000000000D+00  0.0000000000000D+00  0.0000000000000D+00
436  4.3500000000000D+00  0.0000000000000D+00  0.0000000000000D+00
437  4.3600000000000D+00  0.0000000000000D+00  0.0000000000000D+00
438  4.3700000000000D+00  0.0000000000000D+00  0.0000000000000D+00
439  4.3800000000000D+00  0.0000000000000D+00  0.0000000000000D+00
440  4.3900000000000D+00  0.0000000000000D+00  0.0000000000000D+00
441  4.4000000000000D+00  0.0000000000000D+00  0.0000000000000D+00
442  4.4100000000000D+00  0.0000000000000D+00  0.0000000000000D+00
443  4.4200000000000D+00  0.0000000000000D+00  0.0000000000000D+00
444  4.4300000000000D+00  0.0000000000000D+00  0.0000000000000D+00