Ru    ONCVPSP  r_core=  1.31  1.36  1.31
44.0000     16.0000      150124    zatom,zion,pspd
8      11   2     4   600     0    pspcod,pspxc,lmax,lloc,mmax,r2well
5.99000000  0.07000000  0.00000000    rchrg fchrg qchrg
2     2     2     0     0    nproj
0                 extension_switch
0                         1.3958088310822D+01  9.9280021339561D-01
1  0.0000000000000D+00  0.0000000000000D+00 -0.0000000000000D+00
2  1.0000000000000D-02  6.8338916249833D-02 -3.0098795311039D-02
3  2.0000000000000D-02  1.3655839442852D-01 -6.0067480897908D-02
4  3.0000000000000D-02  2.0453913230248D-01 -8.9776355795654D-02
5  4.0000000000000D-02  2.7216210035656D-01 -1.1909653439821D-01
6  5.0000000000000D-02  3.3930868074644D-01 -1.4790034876372D-01
7  6.0000000000000D-02  4.0586080931991D-01 -1.7606174453962D-01
8  7.0000000000000D-02  4.7170112165946D-01 -2.0345666849483D-01
9  8.0000000000000D-02  5.3671310403865D-01 -2.2996344574187D-01
10  9.0000000000000D-02  6.0078125011086D-01 -2.5546314484862D-01
11  1.0000000000000D-01  6.6379122406493D-01 -2.7983992918284D-01
12  1.1000000000000D-01  7.2563003087898D-01 -3.0298139297915D-01
13  1.2000000000000D-01  7.8618619420076D-01 -3.2477888080655D-01
14  1.3000000000000D-01  8.4534994225468D-01 -3.4512778928697D-01
15  1.4000000000000D-01  9.0301340206496D-01 -3.6392785014641D-01
16  1.5000000000000D-01  9.5907080211714D-01 -3.8108339384047D-01
17  1.6000000000000D-01  1.0134186834904D+00 -3.9650359329416D-01
18  1.7000000000000D-01  1.0659561192612D+00 -4.1010268740270D-01
19  1.8000000000000D-01  1.1165849419418D+00 -4.2180018431744D-01
20  1.9000000000000D-01  1.1652099785892D+00 -4.3152104474077D-01
21  2.0000000000000D-01  1.2117392926286D+00 -4.3919584527679D-01
22  2.1000000000000D-01  1.2560844323109D+00 -4.4476092306931D-01
23  2.2000000000000D-01  1.2981606841236D+00 -4.4815850181040D-01
24  2.3000000000000D-01  1.3378873309176D+00 -4.4933680077608D-01
25  2.4000000000000D-01  1.3751879128182D+00 -4.4825012749478D-01
26  2.5000000000000D-01  1.4099904904555D+00 -4.4485895591166D-01
27  2.6000000000000D-01  1.4422279084097D+00 -4.3912999104423D-01
28  2.7000000000000D-01  1.4718380580742D+00 -4.3103622208468D-01
29  2.8000000000000D-01  1.4987641370469D+00 -4.2055696504551D-01
30  2.9000000000000D-01  1.5229549052284D+00 -4.0767789740326D-01
31  3.0000000000000D-01  1.5443649345925D+00 -3.9239108588861D-01
32  3.1000000000000D-01  1.5629548511752D+00 -3.7469500929436D-01
33  3.2000000000000D-01  1.5786915668353D+00 -3.5459457784074D-01
34  3.3000000000000D-01  1.5915484991425D+00 -3.3210115078849D-01
35  3.4000000000000D-01  1.6015057834412D+00 -3.0723255478740D-01
36  3.5000000000000D-01  1.6085504554765D+00 -2.8001310057780D-01
37  3.6000000000000D-01  1.6126766389672D+00 -2.5047360600029D-01
38  3.7000000000000D-01  1.6138856904497D+00 -2.1865141771732D-01
39  3.8000000000000D-01  1.6121863393612D+00 -1.8459043959118D-01
40  3.9000000000000D-01  1.6075948039971D+00 -1.4834116499427D-01
41  4.0000000000000D-01  1.6001348758539D+00 -1.0996071196625D-01
42  4.1000000000000D-01  1.5898379853283D+00 -6.9512863717268D-02
43  4.2000000000000D-01  1.5767432387678D+00 -2.7068112367079D-02
44  4.3000000000000D-01  1.5608974273738D+00  1.7296294652325D-02
45  4.4000000000000D-01  1.5423550068881D+00  6.3496306773259D-02
46  4.5000000000000D-01  1.5211780470885D+00  1.1144102266328D-01
47  4.6000000000000D-01  1.4974361502378D+00  1.6103264478914D-01
48  4.7000000000000D-01  1.4712063378107D+00  2.1216643855675D-01
49  4.8000000000000D-01  1.4425729052566D+00  2.6473069933603D-01
50  4.9000000000000D-01  1.4116272461110D+00  3.1860672836163D-01
51  5.0000000000000D-01  1.3784676391572D+00  3.7366882121580D-01
52  5.1000000000000D-01  1.3431990056454D+00  4.2978427830075D-01
53  5.2000000000000D-01  1.3059326453501D+00  4.8681343318195D-01
54  5.3000000000000D-01  1.2667859064004D+00  5.4460970157229D-01
55  5.4000000000000D-01  1.2258818749636D+00  6.0301966986871D-01
56  5.5000000000000D-01  1.1833489929531D+00  6.6188320723382D-01
57  5.6000000000000D-01  1.1393206552015D+00  7.2103362435360D-01
58  5.7000000000000D-01  1.0939348136255D+00  7.8029786237523D-01
59  5.8000000000000D-01  1.0473334800770D+00  8.3949674923554D-01
60  5.9000000000000D-01  9.9966229929513D-01  8.9844527824062D-01
61  6.0000000000000D-01  9.5107002309700D-01  9.5695296604080D-01
62  6.1000000000000D-01  9.0170795500471D-01  1.0148242781979D+00
63  6.2000000000000D-01  8.5172955965999D-01  1.0718590180636D+00
64  6.3000000000000D-01  8.0128964920480D-01  1.1278530048047D+00
65  6.4000000000000D-01  7.5054403638360D-01  1.1825985472370D+00
66  6.5000000000000D-01  6.9964895118240D-01  1.2358850912630D+00
67  6.6000000000000D-01  6.4876020897801D-01  1.2875001467304D+00
68  6.7000000000000D-01  5.9803285070584D-01  1.3372299167281D+00
69  6.8000000000000D-01  5.4762051697350D-01  1.3848601751335D+00
70  6.9000000000000D-01  4.9767475132034D-01  1.4301772987797D+00
71  7.0000000000000D-01  4.4834435415980D-01  1.4729693414790D+00
72  7.1000000000000D-01  3.9977491672694D-01  1.5130269744919D+00
73  7.2000000000000D-01  3.5210817546259D-01  1.5501446787358D+00
74  7.3000000000000D-01  3.0548146374602D-01  1.5841218925296D+00
75  7.4000000000000D-01  2.6002708929195D-01  1.6147643257884D+00
76  7.5000000000000D-01  2.1587169490758D-01  1.6418853908533D+00
77  7.6000000000000D-01  1.7313588298089D-01  1.6653073091461D+00
78  7.7000000000000D-01  1.3193363846337D-01  1.6848625584460D+00
79  7.8000000000000D-01  9.2371837148241D-02  1.7003952590471D+00
80  7.9000000000000D-01  5.4549780748193D-02  1.7117625716224D+00
81  8.0000000000000D-01  1.8558761271938D-02  1.7188360964408D+00
82  8.1000000000000D-01 -1.5518342931476D-02  1.7215032629774D+00
83  8.2000000000000D-01 -4.7607437228514D-02  1.7196686984285D+00
84  8.3000000000000D-01 -7.7643544768589D-02  1.7132555632061D+00
85  8.4000000000000D-01 -1.0557110262213D-01  1.7022068411322D+00
86  8.5000000000000D-01 -1.3134421820011D-01  1.6864865717946D+00
87  8.6000000000000D-01 -1.5492688432121D-01  1.6660810123546D+00
88  8.7000000000000D-01 -1.7629315145258D-01  1.6409997160250D+00
89  8.8000000000000D-01 -1.9542725581663D-01  1.6112765144644D+00
90  8.9000000000000D-01 -2.1232370223042D-01  1.5769703914716D+00
91  9.0000000000000D-01 -2.2698730073206D-01  1.5381662356240D+00
92  9.1000000000000D-01 -2.3943315625168D-01  1.4949754599115D+00
93  9.2000000000000D-01 -2.4968661081063D-01  1.4475364769836D+00
94  9.3000000000000D-01 -2.5778313798564D-01  1.3960150194055D+00
95  9.4000000000000D-01 -2.6376818966140D-01  1.3406042953155D+00
96  9.5000000000000D-01 -2.6769699541998D-01  1.2815249711597D+00
97  9.6000000000000D-01 -2.6963431528405D-01  1.2190249747635D+00
98  9.7000000000000D-01 -2.6965405864850D-01  1.1533787459794D+00
99  9.8000000000000D-01 -2.6783924066979D-01  1.0848878212810D+00
100  9.9000000000000D-01 -2.6428131453675D-01  1.0138790201610D+00
101  1.0000000000000D+00 -2.5907980670353D-01  9.4070368527828D-01
102  1.0100000000000D+00 -2.5234186394930D-01  8.6573657419406D-01
103  1.0200000000000D+00 -2.4418174804090D-01  7.8937450272798D-01
104  1.0300000000000D+00 -2.3472032125338D-01  7.1203478913652D-01
105  1.0400000000000D+00 -2.2408451002578D-01  6.3415384897512D-01
106  1.0500000000000D+00 -2.1240653883914D-01  5.5618487145198D-01
107  1.0600000000000D+00 -1.9982335392518D-01  4.7859563535242D-01
108  1.0700000000000D+00 -1.8647595940176D-01  4.0186637351623D-01
109  1.0800000000000D+00 -1.7250893315684D-01  3.2648795027940D-01
110  1.0900000000000D+00 -1.5806945037022D-01  2.5295873912621D-01
111  1.1000000000000D+00 -1.4330623598399D-01  1.8178081849166D-01
112  1.1100000000000D+00 -1.2836929324864D-01  1.1345849010219D-01
113  1.1200000000000D+00 -1.1340922858830D-01  4.8495782183829D-02
114  1.1300000000000D+00 -9.8576641873197D-02 -1.2605858174616D-02
115  1.1400000000000D+00 -8.4019655790092D-02 -6.9356358279099D-02
116  1.1500000000000D+00 -6.9884897173958D-02 -1.2127444198546D-01
117  1.1600000000000D+00 -5.6316896259189D-02 -1.6788990773715D-01
118  1.1700000000000D+00 -4.3456346761112D-02 -2.0875002960812D-01
119  1.1800000000000D+00 -3.1438132705132D-02 -2.4342727652929D-01
120  1.1900000000000D+00 -2.0392749991170D-02 -2.7151469046668D-01
121  1.2000000000000D+00 -1.0446877793895D-02 -2.9262384489388D-01
122  1.2100000000000D+00 -1.7165842119067D-03 -3.0641030843541D-01
123  1.2200000000000D+00  5.6883002089973D-03 -3.1255807386217D-01
124  1.2300000000000D+00  1.1663896627038D-02 -3.1077845592994D-01
125  1.2400000000000D+00  1.6117982704073D-02 -3.0083185208372D-01
126  1.2500000000000D+00  1.8968682933447D-02 -2.8252329208234D-01
127  1.2600000000000D+00  2.0141146169379D-02 -2.5568981104142D-01
128  1.2700000000000D+00  1.9573902247656D-02 -2.2022488260015D-01
129  1.2800000000000D+00  1.7218904521037D-02 -1.7607890353598D-01
130  1.2900000000000D+00  1.3035685697526D-02 -1.2323670595781D-01
131  1.3000000000000D+00  6.1227351322983D-03 -5.4766549988013D-02
132  1.3100000000000D+00 -1.2933850830077D-04  1.9491803712253D-03
133  1.3200000000000D+00 -4.7475516024084D-04  4.6385838182319D-03
134  1.3300000000000D+00 -8.9448926466672D-06  3.1491383559559D-05
135  1.3400000000000D+00 -6.3065563440354D-07  2.2202858392492D-06
136  1.3500000000000D+00  0.0000000000000D+00  0.0000000000000D+00
137  1.3600000000000D+00  0.0000000000000D+00  0.0000000000000D+00
138  1.3700000000000D+00  0.0000000000000D+00  0.0000000000000D+00
139  1.3800000000000D+00  0.0000000000000D+00  0.0000000000000D+00
140  1.3900000000000D+00  0.0000000000000D+00  0.0000000000000D+00
141  1.4000000000000D+00  0.0000000000000D+00  0.0000000000000D+00
142  1.4100000000000D+00  0.0000000000000D+00  0.0000000000000D+00
143  1.4200000000000D+00  0.0000000000000D+00  0.0000000000000D+00
144  1.4300000000000D+00  0.0000000000000D+00  0.0000000000000D+00
145  1.4400000000000D+00  0.0000000000000D+00  0.0000000000000D+00
146  1.4500000000000D+00  0.0000000000000D+00  0.0000000000000D+00
147  1.4600000000000D+00  0.0000000000000D+00  0.0000000000000D+00
148  1.4700000000000D+00  0.0000000000000D+00  0.0000000000000D+00
149  1.4800000000000D+00  0.0000000000000D+00  0.0000000000000D+00
150  1.4900000000000D+00  0.0000000000000D+00  0.0000000000000D+00
151  1.5000000000000D+00  0.0000000000000D+00  0.0000000000000D+00
152  1.5100000000000D+00  0.0000000000000D+00  0.0000000000000D+00
153  1.5200000000000D+00  0.0000000000000D+00  0.0000000000000D+00
154  1.5300000000000D+00  0.0000000000000D+00  0.0000000000000D+00
155  1.5400000000000D+00  0.0000000000000D+00  0.0000000000000D+00
156  1.5500000000000D+00  0.0000000000000D+00  0.0000000000000D+00
157  1.5600000000000D+00  0.0000000000000D+00  0.0000000000000D+00
158  1.5700000000000D+00  0.0000000000000D+00  0.0000000000000D+00
159  1.5800000000000D+00  0.0000000000000D+00  0.0000000000000D+00
160  1.5900000000000D+00  0.0000000000000D+00  0.0000000000000D+00
161  1.6000000000000D+00  0.0000000000000D+00  0.0000000000000D+00
162  1.6100000000000D+00  0.0000000000000D+00  0.0000000000000D+00
163  1.6200000000000D+00  0.0000000000000D+00  0.0000000000000D+00
164  1.6300000000000D+00  0.0000000000000D+00  0.0000000000000D+00
165  1.6400000000000D+00  0.0000000000000D+00  0.0000000000000D+00
166  1.6500000000000D+00  0.0000000000000D+00  0.0000000000000D+00
167  1.6600000000000D+00  0.0000000000000D+00  0.0000000000000D+00
168  1.6700000000000D+00  0.0000000000000D+00  0.0000000000000D+00
169  1.6800000000000D+00  0.0000000000000D+00  0.0000000000000D+00
170  1.6900000000000D+00  0.0000000000000D+00  0.0000000000000D+00
171  1.7000000000000D+00  0.0000000000000D+00  0.0000000000000D+00
172  1.7100000000000D+00  0.0000000000000D+00  0.0000000000000D+00
173  1.7200000000000D+00  0.0000000000000D+00  0.0000000000000D+00
174  1.7300000000000D+00  0.0000000000000D+00  0.0000000000000D+00
175  1.7400000000000D+00  0.0000000000000D+00  0.0000000000000D+00
176  1.7500000000000D+00  0.0000000000000D+00  0.0000000000000D+00
177  1.7600000000000D+00  0.0000000000000D+00  0.0000000000000D+00
178  1.7700000000000D+00  0.0000000000000D+00  0.0000000000000D+00
179  1.7800000000000D+00  0.0000000000000D+00  0.0000000000000D+00
180  1.7900000000000D+00  0.0000000000000D+00  0.0000000000000D+00
181  1.8000000000000D+00  0.0000000000000D+00  0.0000000000000D+00
182  1.8100000000000D+00  0.0000000000000D+00  0.0000000000000D+00
183  1.8200000000000D+00  0.0000000000000D+00  0.0000000000000D+00
184  1.8300000000000D+00  0.0000000000000D+00  0.0000000000000D+00
185  1.8400000000000D+00  0.0000000000000D+00  0.0000000000000D+00
186  1.8500000000000D+00  0.0000000000000D+00  0.0000000000000D+00
187  1.8600000000000D+00  0.0000000000000D+00  0.0000000000000D+00
188  1.8700000000000D+00  0.0000000000000D+00  0.0000000000000D+00
189  1.8800000000000D+00  0.0000000000000D+00  0.0000000000000D+00
190  1.8900000000000D+00  0.0000000000000D+00  0.0000000000000D+00
191  1.9000000000000D+00  0.0000000000000D+00  0.0000000000000D+00
192  1.9100000000000D+00  0.0000000000000D+00  0.0000000000000D+00
193  1.9200000000000D+00  0.0000000000000D+00  0.0000000000000D+00
194  1.9300000000000D+00  0.0000000000000D+00  0.0000000000000D+00
195  1.9400000000000D+00  0.0000000000000D+00  0.0000000000000D+00
196  1.9500000000000D+00  0.0000000000000D+00  0.0000000000000D+00
197  1.9600000000000D+00  0.0000000000000D+00  0.0000000000000D+00
198  1.9700000000000D+00  0.0000000000000D+00  0.0000000000000D+00
199  1.9800000000000D+00  0.0000000000000D+00  0.0000000000000D+00
200  1.9900000000000D+00  0.0000000000000D+00  0.0000000000000D+00
201  2.0000000000000D+00  0.0000000000000D+00  0.0000000000000D+00
202  2.0100000000000D+00  0.0000000000000D+00  0.0000000000000D+00
203  2.0200000000000D+00  0.0000000000000D+00  0.0000000000000D+00
204  2.0300000000000D+00  0.0000000000000D+00  0.0000000000000D+00
205  2.0400000000000D+00  0.0000000000000D+00  0.0000000000000D+00
206  2.0500000000000D+00  0.0000000000000D+00  0.0000000000000D+00
207  2.0600000000000D+00  0.0000000000000D+00  0.0000000000000D+00
208  2.0700000000000D+00  0.0000000000000D+00  0.0000000000000D+00
209  2.0800000000000D+00  0.0000000000000D+00  0.0000000000000D+00
210  2.0900000000000D+00  0.0000000000000D+00  0.0000000000000D+00
211  2.1000000000000D+00  0.0000000000000D+00  0.0000000000000D+00
212  2.1100000000000D+00  0.0000000000000D+00  0.0000000000000D+00
213  2.1200000000000D+00  0.0000000000000D+00  0.0000000000000D+00
214  2.1300000000000D+00  0.0000000000000D+00  0.0000000000000D+00
215  2.1400000000000D+00  0.0000000000000D+00  0.0000000000000D+00
216  2.1500000000000D+00  0.0000000000000D+00  0.0000000000000D+00
217  2.1600000000000D+00  0.0000000000000D+00  0.0000000000000D+00
218  2.1700000000000D+00  0.0000000000000D+00  0.0000000000000D+00
219  2.1800000000000D+00  0.0000000000000D+00  0.0000000000000D+00
220  2.1900000000000D+00  0.0000000000000D+00  0.0000000000000D+00
221  2.2000000000000D+00  0.0000000000000D+00  0.0000000000000D+00
222  2.2100000000000D+00  0.0000000000000D+00  0.0000000000000D+00
223  2.2200000000000D+00  0.0000000000000D+00  0.0000000000000D+00
224  2.2300000000000D+00  0.0000000000000D+00  0.0000000000000D+00
225  2.2400000000000D+00  0.0000000000000D+00  0.0000000000000D+00
226  2.2500000000000D+00  0.0000000000000D+00  0.0000000000000D+00
227  2.2600000000000D+00  0.0000000000000D+00  0.0000000000000D+00
228  2.2700000000000D+00  0.0000000000000D+00  0.0000000000000D+00
229  2.2800000000000D+00  0.0000000000000D+00  0.0000000000000D+00
230  2.2900000000000D+00  0.0000000000000D+00  0.0000000000000D+00
231  2.3000000000000D+00  0.0000000000000D+00  0.0000000000000D+00
232  2.3100000000000D+00  0.0000000000000D+00  0.0000000000000D+00
233  2.3200000000000D+00  0.0000000000000D+00  0.0000000000000D+00
234  2.3300000000000D+00  0.0000000000000D+00  0.0000000000000D+00
235  2.3400000000000D+00  0.0000000000000D+00  0.0000000000000D+00
236  2.3500000000000D+00  0.0000000000000D+00  0.0000000000000D+00
237  2.3600000000000D+00  0.0000000000000D+00  0.0000000000000D+00
238  2.3700000000000D+00  0.0000000000000D+00  0.0000000000000D+00
239  2.3800000000000D+00  0.0000000000000D+00  0.0000000000000D+00
240  2.3900000000000D+00  0.0000000000000D+00  0.0000000000000D+00
241  2.4000000000000D+00  0.0000000000000D+00  0.0000000000000D+00
242  2.4100000000000D+00  0.0000000000000D+00  0.0000000000000D+00
243  2.4200000000000D+00  0.0000000000000D+00  0.0000000000000D+00
244  2.4300000000000D+00  0.0000000000000D+00  0.0000000000000D+00
245  2.4400000000000D+00  0.0000000000000D+00  0.0000000000000D+00
246  2.4500000000000D+00  0.0000000000000D+00  0.0000000000000D+00
247  2.4600000000000D+00  0.0000000000000D+00  0.0000000000000D+00
248  2.4700000000000D+00  0.0000000000000D+00  0.0000000000000D+00
249  2.4800000000000D+00  0.0000000000000D+00  0.0000000000000D+00
250  2.4900000000000D+00  0.0000000000000D+00  0.0000000000000D+00
251  2.5000000000000D+00  0.0000000000000D+00  0.0000000000000D+00
252  2.5100000000000D+00  0.0000000000000D+00  0.0000000000000D+00
253  2.5200000000000D+00  0.0000000000000D+00  0.0000000000000D+00
254  2.5300000000000D+00  0.0000000000000D+00  0.0000000000000D+00
255  2.5400000000000D+00  0.0000000000000D+00  0.0000000000000D+00
256  2.5500000000000D+00  0.0000000000000D+00  0.0000000000000D+00
257  2.5600000000000D+00  0.0000000000000D+00  0.0000000000000D+00
258  2.5700000000000D+00  0.0000000000000D+00  0.0000000000000D+00
259  2.5800000000000D+00  0.0000000000000D+00  0.0000000000000D+00
260  2.5900000000000D+00  0.0000000000000D+00  0.0000000000000D+00
261  2.6000000000000D+00  0.0000000000000D+00  0.0000000000000D+00
262  2.6100000000000D+00  0.0000000000000D+00  0.0000000000000D+00
263  2.6200000000000D+00  0.0000000000000D+00  0.0000000000000D+00
264  2.6300000000000D+00  0.0000000000000D+00  0.0000000000000D+00
265  2.6400000000000D+00  0.0000000000000D+00  0.0000000000000D+00
266  2.6500000000000D+00  0.0000000000000D+00  0.0000000000000D+00
267  2.6600000000000D+00  0.0000000000000D+00  0.0000000000000D+00
268  2.6700000000000D+00  0.0000000000000D+00  0.0000000000000D+00
269  2.6800000000000D+00  0.0000000000000D+00  0.0000000000000D+00
270  2.6900000000000D+00  0.0000000000000D+00  0.0000000000000D+00
271  2.7000000000000D+00  0.0000000000000D+00  0.0000000000000D+00
272  2.7100000000000D+00  0.0000000000000D+00  0.0000000000000D+00
273  2.7200000000000D+00  0.0000000000000D+00  0.0000000000000D+00
274  2.7300000000000D+00  0.0000000000000D+00  0.0000000000000D+00
275  2.7400000000000D+00  0.0000000000000D+00  0.0000000000000D+00
276  2.7500000000000D+00  0.0000000000000D+00  0.0000000000000D+00
277  2.7600000000000D+00  0.0000000000000D+00  0.0000000000000D+00
278  2.7700000000000D+00  0.0000000000000D+00  0.0000000000000D+00
279  2.7800000000000D+00  0.0000000000000D+00  0.0000000000000D+00
280  2.7900000000000D+00  0.0000000000000D+00  0.0000000000000D+00
281  2.8000000000000D+00  0.0000000000000D+00  0.0000000000000D+00
282  2.8100000000000D+00  0.0000000000000D+00  0.0000000000000D+00
283  2.8200000000000D+00  0.0000000000000D+00  0.0000000000000D+00
284  2.8300000000000D+00  0.0000000000000D+00  0.0000000000000D+00
285  2.8400000000000D+00  0.0000000000000D+00  0.0000000000000D+00
286  2.8500000000000D+00  0.0000000000000D+00  0.0000000000000D+00
287  2.8600000000000D+00  0.0000000000000D+00  0.0000000000000D+00
288  2.8700000000000D+00  0.0000000000000D+00  0.0000000000000D+00
289  2.8800000000000D+00  0.0000000000000D+00  0.0000000000000D+00
290  2.8900000000000D+00  0.0000000000000D+00  0.0000000000000D+00
291  2.9000000000000D+00  0.0000000000000D+00  0.0000000000000D+00
292  2.9100000000000D+00  0.0000000000000D+00  0.0000000000000D+00
293  2.9200000000000D+00  0.0000000000000D+00  0.0000000000000D+00
294  2.9300000000000D+00  0.0000000000000D+00  0.0000000000000D+00
295  2.9400000000000D+00  0.0000000000000D+00  0.0000000000000D+00
296  2.9500000000000D+00  0.0000000000000D+00  0.0000000000000D+00
297  2.9600000000000D+00  0.0000000000000D+00  0.0000000000000D+00
298  2.9700000000000D+00  0.0000000000000D+00  0.0000000000000D+00
299  2.9800000000000D+00  0.0000000000000D+00  0.0000000000000D+00
300  2.9900000000000D+00  0.0000000000000D+00  0.0000000000000D+00
301  3.0000000000000D+00  0.0000000000000D+00  0.0000000000000D+00
302  3.0100000000000D+00  0.0000000000000D+00  0.0000000000000D+00
303  3.0200000000000D+00  0.0000000000000D+00  0.0000000000000D+00
304  3.0300000000000D+00  0.0000000000000D+00  0.0000000000000D+00
305  3.0400000000000D+00  0.0000000000000D+00  0.0000000000000D+00
306  3.0500000000000D+00  0.0000000000000D+00  0.0000000000000D+00
307  3.0600000000000D+00  0.0000000000000D+00  0.0000000000000D+00
308  3.0700000000000D+00  0.0000000000000D+00  0.0000000000000D+00
309  3.0800000000000D+00  0.0000000000000D+00  0.0000000000000D+00
310  3.0900000000000D+00  0.0000000000000D+00  0.0000000000000D+00
311  3.1000000000000D+00  0.0000000000000D+00  0.0000000000000D+00
312  3.1100000000000D+00  0.0000000000000D+00  0.0000000000000D+00
313  3.1200000000000D+00  0.0000000000000D+00  0.0000000000000D+00
314  3.1300000000000D+00  0.0000000000000D+00  0.0000000000000D+00
315  3.1400000000000D+00  0.0000000000000D+00  0.0000000000000D+00
316  3.1500000000000D+00  0.0000000000000D+00  0.0000000000000D+00
317  3.1600000000000D+00  0.0000000000000D+00  0.0000000000000D+00
318  3.1700000000000D+00  0.0000000000000D+00  0.0000000000000D+00
319  3.1800000000000D+00  0.0000000000000D+00  0.0000000000000D+00
320  3.1900000000000D+00  0.0000000000000D+00  0.0000000000000D+00
321  3.2000000000000D+00  0.0000000000000D+00  0.0000000000000D+00
322  3.2100000000000D+00  0.0000000000000D+00  0.0000000000000D+00
323  3.2200000000000D+00  0.0000000000000D+00  0.0000000000000D+00
324  3.2300000000000D+00  0.0000000000000D+00  0.0000000000000D+00
325  3.2400000000000D+00  0.0000000000000D+00  0.0000000000000D+00
326  3.2500000000000D+00  0.0000000000000D+00  0.0000000000000D+00
327  3.2600000000000D+00  0.0000000000000D+00  0.0000000000000D+00
328  3.2700000000000D+00  0.0000000000000D+00  0.0000000000000D+00
329  3.2800000000000D+00  0.0000000000000D+00  0.0000000000000D+00
330  3.2900000000000D+00  0.0000000000000D+00  0.0000000000000D+00
331  3.3000000000000D+00  0.0000000000000D+00  0.0000000000000D+00
332  3.3100000000000D+00  0.0000000000000D+00  0.0000000000000D+00
333  3.3200000000000D+00  0.0000000000000D+00  0.0000000000000D+00
334  3.3300000000000D+00  0.0000000000000D+00  0.0000000000000D+00
335  3.3400000000000D+00  0.0000000000000D+00  0.0000000000000D+00
336  3.3500000000000D+00  0.0000000000000D+00  0.0000000000000D+00
337  3.3600000000000D+00  0.0000000000000D+00  0.0000000000000D+00
338  3.3700000000000D+00  0.0000000000000D+00  0.0000000000000D+00
339  3.3800000000000D+00  0.0000000000000D+00  0.0000000000000D+00
340  3.3900000000000D+00  0.0000000000000D+00  0.0000000000000D+00
341  3.4000000000000D+00  0.0000000000000D+00  0.0000000000000D+00
342  3.4100000000000D+00  0.0000000000000D+00  0.0000000000000D+00
343  3.4200000000000D+00  0.0000000000000D+00  0.0000000000000D+00
344  3.4300000000000D+00  0.0000000000000D+00  0.0000000000000D+00
345  3.4400000000000D+00  0.0000000000000D+00  0.0000000000000D+00
346  3.4500000000000D+00  0.0000000000000D+00  0.0000000000000D+00
347  3.4600000000000D+00  0.0000000000000D+00  0.0000000000000D+00
348  3.4700000000000D+00  0.0000000000000D+00  0.0000000000000D+00
349  3.4800000000000D+00  0.0000000000000D+00  0.0000000000000D+00
350  3.4900000000000D+00  0.0000000000000D+00  0.0000000000000D+00
351  3.5000000000000D+00  0.0000000000000D+00  0.0000000000000D+00
352  3.5100000000000D+00  0.0000000000000D+00  0.0000000000000D+00
353  3.5200000000000D+00  0.0000000000000D+00  0.0000000000000D+00
354  3.5300000000000D+00  0.0000000000000D+00  0.0000000000000D+00
355  3.5400000000000D+00  0.0000000000000D+00  0.0000000000000D+00
356  3.5500000000000D+00  0.0000000000000D+00  0.0000000000000D+00
357  3.5600000000000D+00  0.0000000000000D+00  0.0000000000000D+00
358  3.5700000000000D+00  0.0000000000000D+00  0.0000000000000D+00
359  3.5800000000000D+00  0.0000000000000D+00  0.0000000000000D+00
360  3.5900000000000D+00  0.0000000000000D+00  0.0000000000000D+00
361  3.6000000000000D+00  0.0000000000000D+00  0.0000000000000D+00
362  3.6100000000000D+00  0.0000000000000D+00  0.0000000000000D+00
363  3.6200000000000D+00  0.0000000000000D+00  0.0000000000000D+00
364  3.6300000000000D+00  0.0000000000000D+00  0.0000000000000D+00
365  3.6400000000000D+00  0.0000000000000D+00  0.0000000000000D+00
366  3.6500000000000D+00  0.0000000000000D+00  0.0000000000000D+00
367  3.6600000000000D+00  0.0000000000000D+00  0.0000000000000D+00
368  3.6700000000000D+00  0.0000000000000D+00  0.0000000000000D+00
369  3.6800000000000D+00  0.0000000000000D+00  0.0000000000000D+00
370  3.6900000000000D+00  0.0000000000000D+00  0.0000000000000D+00
371  3.7000000000000D+00  0.0000000000000D+00  0.0000000000000D+00
372  3.7100000000000D+00  0.0000000000000D+00  0.0000000000000D+00
373  3.7200000000000D+00  0.0000000000000D+00  0.0000000000000D+00
374  3.7300000000000D+00  0.0000000000000D+00  0.0000000000000D+00
375  3.7400000000000D+00  0.0000000000000D+00  0.0000000000000D+00
376  3.7500000000000D+00  0.0000000000000D+00  0.0000000000000D+00
377  3.7600000000000D+00  0.0000000000000D+00  0.0000000000000D+00
378  3.7700000000000D+00  0.0000000000000D+00  0.0000000000000D+00
379  3.7800000000000D+00  0.0000000000000D+00  0.0000000000000D+00
380  3.7900000000000D+00  0.0000000000000D+00  0.0000000000000D+00
381  3.8000000000000D+00  0.0000000000000D+00  0.0000000000000D+00
382  3.8100000000000D+00  0.0000000000000D+00  0.0000000000000D+00
383  3.8200000000000D+00  0.0000000000000D+00  0.0000000000000D+00
384  3.8300000000000D+00  0.0000000000000D+00  0.0000000000000D+00
385  3.8400000000000D+00  0.0000000000000D+00  0.0000000000000D+00
386  3.8500000000000D+00  0.0000000000000D+00  0.0000000000000D+00
387  3.8600000000000D+00  0.0000000000000D+00  0.0000000000000D+00
388  3.8700000000000D+00  0.0000000000000D+00  0.0000000000000D+00
389  3.8800000000000D+00  0.0000000000000D+00  0.0000000000000D+00
390  3.8900000000000D+00  0.0000000000000D+00  0.0000000000000D+00
391  3.9000000000000D+00  0.0000000000000D+00  0.0000000000000D+00
392  3.9100000000000D+00  0.0000000000000D+00  0.0000000000000D+00
393  3.9200000000000D+00  0.0000000000000D+00  0.0000000000000D+00
394  3.9300000000000D+00  0.0000000000000D+00  0.0000000000000D+00
395  3.9400000000000D+00  0.0000000000000D+00  0.0000000000000D+00
396  3.9500000000000D+00  0.0000000000000D+00  0.0000000000000D+00
397  3.9600000000000D+00  0.0000000000000D+00  0.0000000000000D+00
398  3.9700000000000D+00  0.0000000000000D+00  0.0000000000000D+00
399  3.9800000000000D+00  0.0000000000000D+00  0.0000000000000D+00
400  3.9900000000000D+00  0.0000000000000D+00  0.0000000000000D+00
401  4.0000000000000D+00  0.0000000000000D+00  0.0000000000000D+00
402  4.0100000000000D+00  0.0000000000000D+00  0.0000000000000D+00
403  4.0200000000000D+00  0.0000000000000D+00  0.0000000000000D+00
404  4.0300000000000D+00  0.0000000000000D+00  0.0000000000000D+00
405  4.0400000000000D+00  0.0000000000000D+00  0.0000000000000D+00
406  4.0500000000000D+00  0.0000000000000D+00  0.0000000000000D+00
407  4.0600000000000D+00  0.0000000000000D+00  0.0000000000000D+00
408  4.0700000000000D+00  0.0000000000000D+00  0.0000000000000D+00
409  4.0800000000000D+00  0.0000000000000D+00  0.0000000000000D+00
410  4.0900000000000D+00  0.0000000000000D+00  0.0000000000000D+00
411  4.1000000000000D+00  0.0000000000000D+00  0.0000000000000D+00
412  4.1100000000000D+00  0.0000000000000D+00  0.0000000000000D+00
413  4.1200000000000D+00  0.0000000000000D+00  0.0000000000000D+00
414  4.1300000000000D+00  0.0000000000000D+00  0.0000000000000D+00
415  4.1400000000000D+00  0.0000000000000D+00  0.0000000000000D+00
416  4.1500000000000D+00  0.0000000000000D+00  0.0000000000000D+00
417  4.1600000000000D+00  0.0000000000000D+00  0.0000000000000D+00
418  4.1700000000000D+00  0.0000000000000D+00  0.0000000000000D+00
419  4.1800000000000D+00  0.0000000000000D+00  0.0000000000000D+00
420  4.1900000000000D+00  0.0000000000000D+00  0.0000000000000D+00
421  4.2000000000000D+00  0.0000000000000D+00  0.0000000000000D+00
422  4.2100000000000D+00  0.0000000000000D+00  0.0000000000000D+00
423  4.2200000000000D+00  0.0000000000000D+00  0.0000000000000D+00
424  4.2300000000000D+00  0.0000000000000D+00  0.0000000000000D+00
425  4.2400000000000D+00  0.0000000000000D+00  0.0000000000000D+00
426  4.2500000000000D+00  0.0000000000000D+00  0.0000000000000D+00
427  4.2600000000000D+00  0.0000000000000D+00  0.0000000000000D+00
428  4.2700000000000D+00  0.0000000000000D+00  0.0000000000000D+00
429  4.2800000000000D+00  0.0000000000000D+00  0.0000000000000D+00
430  4.2900000000000D+00  0.0000000000000D+00  0.0000000000000D+00
431  4.3000000000000D+00  0.0000000000000D+00  0.0000000000000D+00
432  4.3100000000000D+00  0.0000000000000D+00  0.0000000000000D+00
433  4.3200000000000D+00  0.0000000000000D+00  0.0000000000000D+00
434  4.3300000000000D+00  0.0000000000000D+00  0.0000000000000D+00
435  4.3400000000000D+00  0.0000000000000D+00  0.0000000000000D+00
436  4.3500000000000D+00  0.0000000000000D+00  0.0000000000000D+00
437  4.3600000000000D+00  0.0000000000000D+00  0.0000000000000D+00
438  4.3700000000000D+00  0.0000000000000D+00  0.0000000000000D+00
439  4.3800000000000D+00  0.0000000000000D+00  0.0000000000000D+00
440  4.3900000000000D+00  0.0000000000000D+00  0.0000000000000D+00
441  4.4000000000000D+00  0.0000000000000D+00  0.0000000000000D+00
442  4.4100000000000D+00  0.0000000000000D+00  0.0000000000000D+00
443  4.4200000000000D+00  0.0000000000000D+00  0.0000000000000D+00
444  4.4300000000000D+00  0.0000000000000D+00  0.0000000000000D+00