Ru    ONCVPSP  r_core=  1.41  1.46  1.36
44.0000     16.0000      140817    zatom,zion,pspd
8    11     2     4   601     0    pspcod,pspxc,lmax,lloc,mmax,r2well
6.00000000  0.30000000  0.00000000    rchrg fchrg qchrg
2     2     2     0     0    nproj
0                 extension_switch
0                         1.4995405229850D+01  1.4941975173006D+00
1  0.0000000000000D+00 -0.0000000000000D+00  0.0000000000000D+00
2  1.0000000000000D-02 -6.8868200316114D-02  1.6396470264005D-02
3  2.0000000000000D-02 -1.3764345623536D-01  3.2817162718185D-02
4  3.0000000000000D-02 -2.0623247789188D-01  4.9284729722082D-02
5  4.0000000000000D-02 -2.7454129142095D-01  6.5818705109152D-02
6  5.0000000000000D-02 -3.4247491423007D-01  8.2433997537457D-02
7  6.0000000000000D-02 -4.0993705077959D-01  9.9139446351692D-02
8  7.0000000000000D-02 -4.7682981535273D-01  1.1593645975613D-01
9  8.0000000000000D-02 -5.4305348799397D-01  1.3281775422435D-01
10  9.0000000000000D-02 -6.0850630942389D-01  1.4976621299398D-01
11  1.0000000000000D-01 -6.7308432029852D-01  1.6675388020706D-01
12  1.1000000000000D-01 -7.3668124968700D-01  1.8374110583436D-01
13  1.2000000000000D-01 -7.9918845707677D-01  2.0067585485757D-01
14  1.3000000000000D-01 -8.6049493161197D-01  2.1749319245281D-01
15  1.4000000000000D-01 -9.2048735161137D-01  2.3411495494841D-01
16  1.5000000000000D-01 -9.7905020671753D-01  2.5044961439573D-01
17  1.6000000000000D-01 -1.0360659843084D+00  2.6639234235238D-01
18  1.7000000000000D-01 -1.0914154210055D+00  2.8182527636716D-01
19  1.8000000000000D-01 -1.1449778193919D+00  2.9661799027647D-01
20  1.9000000000000D-01 -1.1966314293898D+00  3.1062816748147D-01
21  2.0000000000000D-01 -1.2462538923428D+00  3.2370247316289D-01
22  2.1000000000000D-01 -1.2937227463866D+00  3.3567762084964D-01
23  2.2000000000000D-01 -1.3389159889782D+00  3.4638162378526D-01
24  2.3000000000000D-01 -1.3817126939884D+00  3.5563522288391D-01
25  2.4000000000000D-01 -1.4219936774917D+00  3.6325347642735D-01
26  2.5000000000000D-01 -1.4596422085990D+00  3.6904750027419D-01
27  2.6000000000000D-01 -1.4945447581544D+00  3.7282633967633D-01
28  2.7000000000000D-01 -1.5265917803621D+00  3.7439895798985D-01
29  2.8000000000000D-01 -1.5556785172257D+00  3.7357631535060D-01
30  2.9000000000000D-01 -1.5817058229495D+00  3.7017352715039D-01
31  3.0000000000000D-01 -1.6045809973850D+00  3.6401207302845D-01
32  3.1000000000000D-01 -1.6242186211707D+00  3.5492203508680D-01
33  3.2000000000000D-01 -1.6405413822312D+00  3.4274433642160D-01
34  3.3000000000000D-01 -1.6534808853398D+00  3.2733295587838D-01
35  3.4000000000000D-01 -1.6629784558280D+00  3.0855714673155D-01
36  3.5000000000000D-01 -1.6689858641827D+00  2.8630346414345D-01
37  3.6000000000000D-01 -1.6714660819757D+00  2.6047789125966D-01
38  3.7000000000000D-01 -1.6703939085230D+00  2.3100763636778D-01
39  3.8000000000000D-01 -1.6657565926081D+00  1.9784292951282D-01
40  3.9000000000000D-01 -1.6575543840413D+00  1.6095864508883D-01
41  4.0000000000000D-01 -1.6458009839315D+00  1.2035566217910D-01
42  4.1000000000000D-01 -1.6305239394565D+00  7.6062086737934D-02
43  4.2000000000000D-01 -1.6117649461210D+00  2.8134233939974D-02
44  4.3000000000000D-01 -1.5895800581574D+00 -2.3342628617613D-02
45  4.4000000000000D-01 -1.5640398024682D+00 -7.8253790275973D-02
46  4.5000000000000D-01 -1.5352291921415D+00 -1.3645487080254D-01
47  4.6000000000000D-01 -1.5032476362721D+00 -1.9777186757713D-01
48  4.7000000000000D-01 -1.4682087436994D+00 -2.6200148359216D-01
49  4.8000000000000D-01 -1.4302400176860D+00 -3.2891174724999D-01
50  4.9000000000000D-01 -1.3894824531197D+00 -3.9824288676195D-01
51  5.0000000000000D-01 -1.3460900194029D+00 -4.6970850065130D-01
52  5.1000000000000D-01 -1.3002290272902D+00 -5.4299705645800D-01
53  5.2000000000000D-01 -1.2520774291479D+00 -6.1777356655359D-01
54  5.3000000000000D-01 -1.2018239621775D+00 -6.9368162209640D-01
55  5.4000000000000D-01 -1.1496672704119D+00 -7.7034558101348D-01
56  5.5000000000000D-01 -1.0958148833143D+00 -8.4737304773222D-01
57  5.6000000000000D-01 -1.0404821101988D+00 -9.2435760590192D-01
58  5.7000000000000D-01 -9.8389095098130D-01 -1.0008815258159D+00
59  5.8000000000000D-01 -9.2626876101869D-01 -1.0765190538009D+00
60  5.9000000000000D-01 -8.6784708858581D-01 -1.1508393154678D+00
61  6.0000000000000D-01 -8.0886028144407D-01 -1.2234097602079D+00
62  6.1000000000000D-01 -7.4954403414110D-01 -1.2937997491621D+00
63  6.2000000000000D-01 -6.9013437021823D-01 -1.3615830989243D+00
64  6.3000000000000D-01 -6.3086559177998D-01 -1.4263430815417D+00
65  6.4000000000000D-01 -5.7196943352596D-01 -1.4876745266702D+00
66  6.5000000000000D-01 -5.1367365741768D-01 -1.5451872382798D+00
67  6.6000000000000D-01 -4.5620008248922D-01 -1.5985107487711D+00
68  6.7000000000000D-01 -3.9976383117556D-01 -1.6472961141172D+00
69  6.8000000000000D-01 -3.4457196148290D-01 -1.6912191552805D+00
70  6.9000000000000D-01 -2.9082199547631D-01 -1.7299839076218D+00
71  7.0000000000000D-01 -2.3870064383340D-01 -1.7633255507416D+00
72  7.1000000000000D-01 -1.8838300877592D-01 -1.7910121525604D+00
73  7.2000000000000D-01 -1.4003143309331D-01 -1.8128472092019D+00
74  7.3000000000000D-01 -9.3794639753428D-02 -1.8286714429231D+00
75  7.4000000000000D-01 -4.9806786979393D-02 -1.8383647364220D+00
76  7.5000000000000D-01 -8.1865885248014D-03 -1.8418478338889D+00
77  7.6000000000000D-01  3.0962955809621D-02 -1.8390825757746D+00
78  7.7000000000000D-01  6.7555171430713D-02 -1.8300728556976D+00
79  7.8000000000000D-01  1.0152006371587D-01 -1.8148649140097D+00
80  7.9000000000000D-01  1.3280454249033D-01 -1.7935472620991D+00
81  8.0000000000000D-01  1.6137251430615D-01 -1.7662502344968D+00
82  8.1000000000000D-01  1.8720484187226D-01 -1.7331451695785D+00
83  8.2000000000000D-01  2.1029917124014D-01 -1.6944432233677D+00
84  8.3000000000000D-01  2.3066962858684D-01 -1.6503938245901D+00
85  8.4000000000000D-01  2.4834638964491D-01 -1.6012827826863D+00
86  8.5000000000000D-01  2.6337512600169D-01 -1.5474300639418D+00
87  8.6000000000000D-01  2.7581633362228D-01 -1.4891872542110D+00
88  8.7000000000000D-01  2.8574455004029D-01 -1.4269347299075D+00
89  8.8000000000000D-01  2.9324746770673D-01 -1.3610785619829D+00
90  8.9000000000000D-01  2.9842495199010D-01 -1.2920471805353D+00
91  9.0000000000000D-01  3.0138797327862D-01 -1.2202878304480D+00
92  9.1000000000000D-01  3.0225746354519D-01 -1.1462628510651D+00
93  9.2000000000000D-01  3.0116310858854D-01 -1.0704458153087D+00
94  9.3000000000000D-01  2.9824208794555D-01 -9.9331756580165D-01
95  9.4000000000000D-01  2.9363777515813D-01 -9.1536218738374D-01
96  9.5000000000000D-01  2.8749841164034D-01 -8.3706295680850D-01
97  9.6000000000000D-01  2.7997576778694D-01 -7.5889831123592D-01
98  9.7000000000000D-01  2.7122407676823D-01 -6.8133895343131D-01
99  9.8000000000000D-01  2.6139803036917D-01 -6.0484116136662D-01
100  9.9000000000000D-01  2.5065192404304D-01 -5.2984505677986D-01
101  1.0000000000000D+00  2.3913833969382D-01 -4.5677074125179D-01
102  1.0100000000000D+00  2.2700689619273D-01 -3.8601478350609D-01
103  1.0200000000000D+00  2.1440309905803D-01 -3.1794709907490D-01
104  1.0300000000000D+00  2.0146764934540D-01 -2.5290938965857D-01
105  1.0400000000000D+00  1.8833480659898D-01 -1.9121034285952D-01
106  1.0500000000000D+00  1.7513095143665D-01 -1.3312181124476D-01
107  1.0600000000000D+00  1.6197489916032D-01 -7.8880679384394D-02
108  1.0700000000000D+00  1.4897679868612D-01 -2.8685971792070D-02
109  1.0800000000000D+00  1.3623819262132D-01  1.7300321639846D-02
110  1.0900000000000D+00  1.2385016790152D-01  5.8958336205299D-02
111  1.1000000000000D+00  1.1189272507522D-01  9.6211243428883D-02
112  1.1100000000000D+00  1.0043611434789D-01  1.2902044231481D-01
113  1.1200000000000D+00  8.9540481969637D-02  1.5738601648938D-01
114  1.1300000000000D+00  7.9255704966053D-02  1.8134662991977D-01
115  1.1400000000000D+00  6.9618975391908D-02  2.0098504016411D-01
116  1.1500000000000D+00  6.0658457268578D-02  2.1641693153573D-01
117  1.1600000000000D+00  5.2393115031722D-02  2.2779089251601D-01
118  1.1700000000000D+00  4.4831624162699D-02  2.3529030653191D-01
119  1.1800000000000D+00  3.7972557014957D-02  2.3913083610808D-01
120  1.1900000000000D+00  3.1807146246540D-02  2.3955271104742D-01
121  1.2000000000000D+00  2.6319801577518D-02  2.3681957297550D-01
122  1.2100000000000D+00  2.1485624906517D-02  2.3122018979308D-01
123  1.2200000000000D+00  1.7274813000461D-02  2.2305820204112D-01
124  1.2300000000000D+00  1.3652672885972D-02  2.1265234337664D-01
125  1.2400000000000D+00  1.0579064359235D-02  2.0033292115899D-01
126  1.2500000000000D+00  8.0108114476830D-03  1.8643521457095D-01
127  1.2600000000000D+00  5.9022008168271D-03  1.7130095808326D-01
128  1.2700000000000D+00  4.2054247740946D-03  1.5527098534659D-01
129  1.2800000000000D+00  2.8725282365048D-03  1.3867890130391D-01
130  1.2900000000000D+00  1.8547717031561D-03  1.2185858441259D-01
131  1.3000000000000D+00  1.1046926604950D-03  1.0512921653534D-01
132  1.3100000000000D+00  5.7720490230786D-04  8.8793488356537D-02
133  1.3200000000000D+00  2.2741601407125D-04  7.3151124628521D-02
134  1.3300000000000D+00  1.5588916375360D-05  5.8469932450378D-02
135  1.3400000000000D+00 -9.5070594106106D-05  4.5001096817044D-02
136  1.3500000000000D+00 -1.4017497889240D-04  3.2988341505912D-02
137  1.3600000000000D+00 -1.4712436802728D-04  2.2629171059452D-02
138  1.3700000000000D+00 -1.4065596578191D-04  1.4109245063131D-02
139  1.3800000000000D+00 -1.3821847787361D-04  7.5772135618480D-03
140  1.3900000000000D+00 -1.4310282464387D-04  3.1381979742238D-03
141  1.4000000000000D+00 -1.5980764233351D-04  9.9668760530092D-04
142  1.4100000000000D+00 -1.2118226537796D-04  1.5693346204592D-04
143  1.4200000000000D+00 -2.3985692546603D-05 -2.0295185294763D-05
144  1.4300000000000D+00  1.0374110476745D-05 -2.7760963066735D-05
145  1.4400000000000D+00  0.0000000000000D+00  0.0000000000000D+00
146  1.4500000000000D+00  0.0000000000000D+00  0.0000000000000D+00
147  1.4600000000000D+00  0.0000000000000D+00  0.0000000000000D+00
148  1.4700000000000D+00  0.0000000000000D+00  0.0000000000000D+00
149  1.4800000000000D+00  0.0000000000000D+00  0.0000000000000D+00
150  1.4900000000000D+00  0.0000000000000D+00  0.0000000000000D+00
151  1.5000000000000D+00  0.0000000000000D+00  0.0000000000000D+00
152  1.5100000000000D+00  0.0000000000000D+00  0.0000000000000D+00
153  1.5200000000000D+00  0.0000000000000D+00  0.0000000000000D+00
154  1.5300000000000D+00  0.0000000000000D+00  0.0000000000000D+00
155  1.5400000000000D+00  0.0000000000000D+00  0.0000000000000D+00
156  1.5500000000000D+00  0.0000000000000D+00  0.0000000000000D+00
157  1.5600000000000D+00  0.0000000000000D+00  0.0000000000000D+00
158  1.5700000000000D+00  0.0000000000000D+00  0.0000000000000D+00
159  1.5800000000000D+00  0.0000000000000D+00  0.0000000000000D+00
160  1.5900000000000D+00  0.0000000000000D+00  0.0000000000000D+00
161  1.6000000000000D+00  0.0000000000000D+00  0.0000000000000D+00
162  1.6100000000000D+00  0.0000000000000D+00  0.0000000000000D+00
163  1.6200000000000D+00  0.0000000000000D+00  0.0000000000000D+00
164  1.6300000000000D+00  0.0000000000000D+00  0.0000000000000D+00
165  1.6400000000000D+00  0.0000000000000D+00  0.0000000000000D+00
166  1.6500000000000D+00  0.0000000000000D+00  0.0000000000000D+00
167  1.6600000000000D+00  0.0000000000000D+00  0.0000000000000D+00
168  1.6700000000000D+00  0.0000000000000D+00  0.0000000000000D+00
169  1.6800000000000D+00  0.0000000000000D+00  0.0000000000000D+00
170  1.6900000000000D+00  0.0000000000000D+00  0.0000000000000D+00
171  1.7000000000000D+00  0.0000000000000D+00  0.0000000000000D+00
172  1.7100000000000D+00  0.0000000000000D+00  0.0000000000000D+00
173  1.7200000000000D+00  0.0000000000000D+00  0.0000000000000D+00
174  1.7300000000000D+00  0.0000000000000D+00  0.0000000000000D+00
175  1.7400000000000D+00  0.0000000000000D+00  0.0000000000000D+00
176  1.7500000000000D+00  0.0000000000000D+00  0.0000000000000D+00
177  1.7600000000000D+00  0.0000000000000D+00  0.0000000000000D+00
178  1.7700000000000D+00  0.0000000000000D+00  0.0000000000000D+00
179  1.7800000000000D+00  0.0000000000000D+00  0.0000000000000D+00
180  1.7900000000000D+00  0.0000000000000D+00  0.0000000000000D+00
181  1.8000000000000D+00  0.0000000000000D+00  0.0000000000000D+00
182  1.8100000000000D+00  0.0000000000000D+00  0.0000000000000D+00
183  1.8200000000000D+00  0.0000000000000D+00  0.0000000000000D+00
184  1.8300000000000D+00  0.0000000000000D+00  0.0000000000000D+00
185  1.8400000000000D+00  0.0000000000000D+00  0.0000000000000D+00
186  1.8500000000000D+00  0.0000000000000D+00  0.0000000000000D+00
187  1.8600000000000D+00  0.0000000000000D+00  0.0000000000000D+00
188  1.8700000000000D+00  0.0000000000000D+00  0.0000000000000D+00
189  1.8800000000000D+00  0.0000000000000D+00  0.0000000000000D+00
190  1.8900000000000D+00  0.0000000000000D+00  0.0000000000000D+00
191  1.9000000000000D+00  0.0000000000000D+00  0.0000000000000D+00
192  1.9100000000000D+00  0.0000000000000D+00  0.0000000000000D+00
193  1.9200000000000D+00  0.0000000000000D+00  0.0000000000000D+00
194  1.9300000000000D+00  0.0000000000000D+00  0.0000000000000D+00
195  1.9400000000000D+00  0.0000000000000D+00  0.0000000000000D+00
196  1.9500000000000D+00  0.0000000000000D+00  0.0000000000000D+00
197  1.9600000000000D+00  0.0000000000000D+00  0.0000000000000D+00
198  1.9700000000000D+00  0.0000000000000D+00  0.0000000000000D+00
199  1.9800000000000D+00  0.0000000000000D+00  0.0000000000000D+00
200  1.9900000000000D+00  0.0000000000000D+00  0.0000000000000D+00
201  2.0000000000000D+00  0.0000000000000D+00  0.0000000000000D+00
202  2.0100000000000D+00  0.0000000000000D+00  0.0000000000000D+00
203  2.0200000000000D+00  0.0000000000000D+00  0.0000000000000D+00
204  2.0300000000000D+00  0.0000000000000D+00  0.0000000000000D+00
205  2.0400000000000D+00  0.0000000000000D+00  0.0000000000000D+00
206  2.0500000000000D+00  0.0000000000000D+00  0.0000000000000D+00
207  2.0600000000000D+00  0.0000000000000D+00  0.0000000000000D+00
208  2.0700000000000D+00  0.0000000000000D+00  0.0000000000000D+00
209  2.0800000000000D+00  0.0000000000000D+00  0.0000000000000D+00
210  2.0900000000000D+00  0.0000000000000D+00  0.0000000000000D+00
211  2.1000000000000D+00  0.0000000000000D+00  0.0000000000000D+00
212  2.1100000000000D+00  0.0000000000000D+00  0.0000000000000D+00
213  2.1200000000000D+00  0.0000000000000D+00  0.0000000000000D+00
214  2.1300000000000D+00  0.0000000000000D+00  0.0000000000000D+00
215  2.1400000000000D+00  0.0000000000000D+00  0.0000000000000D+00
216  2.1500000000000D+00  0.0000000000000D+00  0.0000000000000D+00
217  2.1600000000000D+00  0.0000000000000D+00  0.0000000000000D+00
218  2.1700000000000D+00  0.0000000000000D+00  0.0000000000000D+00
219  2.1800000000000D+00  0.0000000000000D+00  0.0000000000000D+00
220  2.1900000000000D+00  0.0000000000000D+00  0.0000000000000D+00
221  2.2000000000000D+00  0.0000000000000D+00  0.0000000000000D+00
222  2.2100000000000D+00  0.0000000000000D+00  0.0000000000000D+00
223  2.2200000000000D+00  0.0000000000000D+00  0.0000000000000D+00
224  2.2300000000000D+00  0.0000000000000D+00  0.0000000000000D+00
225  2.2400000000000D+00  0.0000000000000D+00  0.0000000000000D+00
226  2.2500000000000D+00  0.0000000000000D+00  0.0000000000000D+00
227  2.2600000000000D+00  0.0000000000000D+00  0.0000000000000D+00
228  2.2700000000000D+00  0.0000000000000D+00  0.0000000000000D+00
229  2.2800000000000D+00  0.0000000000000D+00  0.0000000000000D+00
230  2.2900000000000D+00  0.0000000000000D+00  0.0000000000000D+00
231  2.3000000000000D+00  0.0000000000000D+00  0.0000000000000D+00
232  2.3100000000000D+00  0.0000000000000D+00  0.0000000000000D+00
233  2.3200000000000D+00  0.0000000000000D+00  0.0000000000000D+00
234  2.3300000000000D+00  0.0000000000000D+00  0.0000000000000D+00
235  2.3400000000000D+00  0.0000000000000D+00  0.0000000000000D+00
236  2.3500000000000D+00  0.0000000000000D+00  0.0000000000000D+00
237  2.3600000000000D+00  0.0000000000000D+00  0.0000000000000D+00
238  2.3700000000000D+00  0.0000000000000D+00  0.0000000000000D+00
239  2.3800000000000D+00  0.0000000000000D+00  0.0000000000000D+00
240  2.3900000000000D+00  0.0000000000000D+00  0.0000000000000D+00
241  2.4000000000000D+00  0.0000000000000D+00  0.0000000000000D+00
242  2.4100000000000D+00  0.0000000000000D+00  0.0000000000000D+00
243  2.4200000000000D+00  0.0000000000000D+00  0.0000000000000D+00
244  2.4300000000000D+00  0.0000000000000D+00  0.0000000000000D+00
245  2.4400000000000D+00  0.0000000000000D+00  0.0000000000000D+00
246  2.4500000000000D+00  0.0000000000000D+00  0.0000000000000D+00
247  2.4600000000000D+00  0.0000000000000D+00  0.0000000000000D+00
248  2.4700000000000D+00  0.0000000000000D+00  0.0000000000000D+00
249  2.4800000000000D+00  0.0000000000000D+00  0.0000000000000D+00
250  2.4900000000000D+00  0.0000000000000D+00  0.0000000000000D+00
251  2.5000000000000D+00  0.0000000000000D+00  0.0000000000000D+00
252  2.5100000000000D+00  0.0000000000000D+00  0.0000000000000D+00
253  2.5200000000000D+00  0.0000000000000D+00  0.0000000000000D+00
254  2.5300000000000D+00  0.0000000000000D+00  0.0000000000000D+00
255  2.5400000000000D+00  0.0000000000000D+00  0.0000000000000D+00
256  2.5500000000000D+00  0.0000000000000D+00  0.0000000000000D+00
257  2.5600000000000D+00  0.0000000000000D+00  0.0000000000000D+00
258  2.5700000000000D+00  0.0000000000000D+00  0.0000000000000D+00
259  2.5800000000000D+00  0.0000000000000D+00  0.0000000000000D+00
260  2.5900000000000D+00  0.0000000000000D+00  0.0000000000000D+00
261  2.6000000000000D+00  0.0000000000000D+00  0.0000000000000D+00
262  2.6100000000000D+00  0.0000000000000D+00  0.0000000000000D+00
263  2.6200000000000D+00  0.0000000000000D+00  0.0000000000000D+00
264  2.6300000000000D+00  0.0000000000000D+00  0.0000000000000D+00
265  2.6400000000000D+00  0.0000000000000D+00  0.0000000000000D+00
266  2.6500000000000D+00  0.0000000000000D+00  0.0000000000000D+00
267  2.6600000000000D+00  0.0000000000000D+00  0.0000000000000D+00
268  2.6700000000000D+00  0.0000000000000D+00  0.0000000000000D+00
269  2.6800000000000D+00  0.0000000000000D+00  0.0000000000000D+00
270  2.6900000000000D+00  0.0000000000000D+00  0.0000000000000D+00
271  2.7000000000000D+00  0.0000000000000D+00  0.0000000000000D+00
272  2.7100000000000D+00  0.0000000000000D+00  0.0000000000000D+00
273  2.7200000000000D+00  0.0000000000000D+00  0.0000000000000D+00
274  2.7300000000000D+00  0.0000000000000D+00  0.0000000000000D+00
275  2.7400000000000D+00  0.0000000000000D+00  0.0000000000000D+00
276  2.7500000000000D+00  0.0000000000000D+00  0.0000000000000D+00
277  2.7600000000000D+00  0.0000000000000D+00  0.0000000000000D+00
278  2.7700000000000D+00  0.0000000000000D+00  0.0000000000000D+00
279  2.7800000000000D+00  0.0000000000000D+00  0.0000000000000D+00
280  2.7900000000000D+00  0.0000000000000D+00  0.0000000000000D+00
281  2.8000000000000D+00  0.0000000000000D+00  0.0000000000000D+00
282  2.8100000000000D+00  0.0000000000000D+00  0.0000000000000D+00
283  2.8200000000000D+00  0.0000000000000D+00  0.0000000000000D+00
284  2.8300000000000D+00  0.0000000000000D+00  0.0000000000000D+00
285  2.8400000000000D+00  0.0000000000000D+00  0.0000000000000D+00
286  2.8500000000000D+00  0.0000000000000D+00  0.0000000000000D+00
287  2.8600000000000D+00  0.0000000000000D+00  0.0000000000000D+00
288  2.8700000000000D+00  0.0000000000000D+00  0.0000000000000D+00
289  2.8800000000000D+00  0.0000000000000D+00  0.0000000000000D+00
290  2.8900000000000D+00  0.0000000000000D+00  0.0000000000000D+00
291  2.9000000000000D+00  0.0000000000000D+00  0.0000000000000D+00
292  2.9100000000000D+00  0.0000000000000D+00  0.0000000000000D+00
293  2.9200000000000D+00  0.0000000000000D+00  0.0000000000000D+00
294  2.9300000000000D+00  0.0000000000000D+00  0.0000000000000D+00
295  2.9400000000000D+00  0.0000000000000D+00  0.0000000000000D+00
296  2.9500000000000D+00  0.0000000000000D+00  0.0000000000000D+00
297  2.9600000000000D+00  0.0000000000000D+00  0.0000000000000D+00
298  2.9700000000000D+00  0.0000000000000D+00  0.0000000000000D+00
299  2.9800000000000D+00  0.0000000000000D+00  0.0000000000000D+00
300  2.9900000000000D+00  0.0000000000000D+00  0.0000000000000D+00
301  3.0000000000000D+00  0.0000000000000D+00  0.0000000000000D+00
302  3.0100000000000D+00  0.0000000000000D+00  0.0000000000000D+00
303  3.0200000000000D+00  0.0000000000000D+00  0.0000000000000D+00
304  3.0300000000000D+00  0.0000000000000D+00  0.0000000000000D+00
305  3.0400000000000D+00  0.0000000000000D+00  0.0000000000000D+00
306  3.0500000000000D+00  0.0000000000000D+00  0.0000000000000D+00
307  3.0600000000000D+00  0.0000000000000D+00  0.0000000000000D+00
308  3.0700000000000D+00  0.0000000000000D+00  0.0000000000000D+00
309  3.0800000000000D+00  0.0000000000000D+00  0.0000000000000D+00
310  3.0900000000000D+00  0.0000000000000D+00  0.0000000000000D+00
311  3.1000000000000D+00  0.0000000000000D+00  0.0000000000000D+00
312  3.1100000000000D+00  0.0000000000000D+00  0.0000000000000D+00
313  3.1200000000000D+00  0.0000000000000D+00  0.0000000000000D+00
314  3.1300000000000D+00  0.0000000000000D+00  0.0000000000000D+00
315  3.1400000000000D+00  0.0000000000000D+00  0.0000000000000D+00
316  3.1500000000000D+00  0.0000000000000D+00  0.0000000000000D+00
317  3.1600000000000D+00  0.0000000000000D+00  0.0000000000000D+00
318  3.1700000000000D+00  0.0000000000000D+00  0.0000000000000D+00
319  3.1800000000000D+00  0.0000000000000D+00  0.0000000000000D+00
320  3.1900000000000D+00  0.0000000000000D+00  0.0000000000000D+00
321  3.2000000000000D+00  0.0000000000000D+00  0.0000000000000D+00
322  3.2100000000000D+00  0.0000000000000D+00  0.0000000000000D+00
323  3.2200000000000D+00  0.0000000000000D+00  0.0000000000000D+00
324  3.2300000000000D+00  0.0000000000000D+00  0.0000000000000D+00
325  3.2400000000000D+00  0.0000000000000D+00  0.0000000000000D+00
326  3.2500000000000D+00  0.0000000000000D+00  0.0000000000000D+00
327  3.2600000000000D+00  0.0000000000000D+00  0.0000000000000D+00
328  3.2700000000000D+00  0.0000000000000D+00  0.0000000000000D+00
329  3.2800000000000D+00  0.0000000000000D+00  0.0000000000000D+00
330  3.2900000000000D+00  0.0000000000000D+00  0.0000000000000D+00
331  3.3000000000000D+00  0.0000000000000D+00  0.0000000000000D+00
332  3.3100000000000D+00  0.0000000000000D+00  0.0000000000000D+00
333  3.3200000000000D+00  0.0000000000000D+00  0.0000000000000D+00
334  3.3300000000000D+00  0.0000000000000D+00  0.0000000000000D+00
335  3.3400000000000D+00  0.0000000000000D+00  0.0000000000000D+00
336  3.3500000000000D+00  0.0000000000000D+00  0.0000000000000D+00
337  3.3600000000000D+00  0.0000000000000D+00  0.0000000000000D+00
338  3.3700000000000D+00  0.0000000000000D+00  0.0000000000000D+00
339  3.3800000000000D+00  0.0000000000000D+00  0.0000000000000D+00
340  3.3900000000000D+00  0.0000000000000D+00  0.0000000000000D+00
341  3.4000000000000D+00  0.0000000000000D+00  0.0000000000000D+00
342  3.4100000000000D+00  0.0000000000000D+00  0.0000000000000D+00
343  3.4200000000000D+00  0.0000000000000D+00  0.0000000000000D+00
344  3.4300000000000D+00  0.0000000000000D+00  0.0000000000000D+00
345  3.4400000000000D+00  0.0000000000000D+00  0.0000000000000D+00
346  3.4500000000000D+00  0.0000000000000D+00  0.0000000000000D+00
347  3.4600000000000D+00  0.0000000000000D+00  0.0000000000000D+00
348  3.4700000000000D+00  0.0000000000000D+00  0.0000000000000D+00
349  3.4800000000000D+00  0.0000000000000D+00  0.0000000000000D+00
350  3.4900000000000D+00  0.0000000000000D+00  0.0000000000000D+00
351  3.5000000000000D+00  0.0000000000000D+00  0.0000000000000D+00
352  3.5100000000000D+00  0.0000000000000D+00  0.0000000000000D+00
353  3.5200000000000D+00  0.0000000000000D+00  0.0000000000000D+00
354  3.5300000000000D+00  0.0000000000000D+00  0.0000000000000D+00
355  3.5400000000000D+00  0.0000000000000D+00  0.0000000000000D+00
356  3.5500000000000D+00  0.0000000000000D+00  0.0000000000000D+00
357  3.5600000000000D+00  0.0000000000000D+00  0.0000000000000D+00
358  3.5700000000000D+00  0.0000000000000D+00  0.0000000000000D+00
359  3.5800000000000D+00  0.0000000000000D+00  0.0000000000000D+00
360  3.5900000000000D+00  0.0000000000000D+00  0.0000000000000D+00
361  3.6000000000000D+00  0.0000000000000D+00  0.0000000000000D+00
362  3.6100000000000D+00  0.0000000000000D+00  0.0000000000000D+00
363  3.6200000000000D+00  0.0000000000000D+00  0.0000000000000D+00
364  3.6300000000000D+00  0.0000000000000D+00  0.0000000000000D+00
365  3.6400000000000D+00  0.0000000000000D+00  0.0000000000000D+00
366  3.6500000000000D+00  0.0000000000000D+00  0.0000000000000D+00
367  3.6600000000000D+00  0.0000000000000D+00  0.0000000000000D+00
368  3.6700000000000D+00  0.0000000000000D+00  0.0000000000000D+00
369  3.6800000000000D+00  0.0000000000000D+00  0.0000000000000D+00
370  3.6900000000000D+00  0.0000000000000D+00  0.0000000000000D+00
371  3.7000000000000D+00  0.0000000000000D+00  0.0000000000000D+00
372  3.7100000000000D+00  0.0000000000000D+00  0.0000000000000D+00
373  3.7200000000000D+00  0.0000000000000D+00  0.0000000000000D+00
374  3.7300000000000D+00  0.0000000000000D+00  0.0000000000000D+00
375  3.7400000000000D+00  0.0000000000000D+00  0.0000000000000D+00
376  3.7500000000000D+00  0.0000000000000D+00  0.0000000000000D+00
377  3.7600000000000D+00  0.0000000000000D+00  0.0000000000000D+00
378  3.7700000000000D+00  0.0000000000000D+00  0.0000000000000D+00
379  3.7800000000000D+00  0.0000000000000D+00  0.0000000000000D+00
380  3.7900000000000D+00  0.0000000000000D+00  0.0000000000000D+00
381  3.8000000000000D+00  0.0000000000000D+00  0.0000000000000D+00
382  3.8100000000000D+00  0.0000000000000D+00  0.0000000000000D+00
383  3.8200000000000D+00  0.0000000000000D+00  0.0000000000000D+00
384  3.8300000000000D+00  0.0000000000000D+00  0.0000000000000D+00
385  3.8400000000000D+00  0.0000000000000D+00  0.0000000000000D+00
386  3.8500000000000D+00  0.0000000000000D+00  0.0000000000000D+00
387  3.8600000000000D+00  0.0000000000000D+00  0.0000000000000D+00
388  3.8700000000000D+00  0.0000000000000D+00  0.0000000000000D+00
389  3.8800000000000D+00  0.0000000000000D+00  0.0000000000000D+00
390  3.8900000000000D+00  0.0000000000000D+00  0.0000000000000D+00
391  3.9000000000000D+00  0.0000000000000D+00  0.0000000000000D+00
392  3.9100000000000D+00  0.0000000000000D+00  0.0000000000000D+00
393  3.9200000000000D+00  0.0000000000000D+00  0.0000000000000D+00
394  3.9300000000000D+00  0.0000000000000D+00  0.0000000000000D+00
395  3.9400000000000D+00  0.0000000000000D+00  0.0000000000000D+00
396  3.9500000000000D+00  0.0000000000000D+00  0.0000000000000D+00
397  3.9600000000000D+00  0.0000000000000D+00  0.0000000000000D+00
398  3.9700000000000D+00  0.0000000000000D+00  0.0000000000000D+00
399  3.9800000000000D+00  0.0000000000000D+00  0.0000000000000D+00
400  3.9900000000000D+00  0.0000000000000D+00  0.0000000000000D+00
401  4.0000000000000D+00  0.0000000000000D+00  0.0000000000000D+00
402  4.0100000000000D+00  0.0000000000000D+00  0.0000000000000D+00
403  4.0200000000000D+00  0.0000000000000D+00  0.0000000000000D+00
404  4.0300000000000D+00  0.0000000000000D+00  0.0000000000000D+00
405  4.0400000000000D+00  0.0000000000000D+00  0.0000000000000D+00
406  4.0500000000000D+00  0.0000000000000D+00  0.0000000000000D+00
407  4.0600000000000D+00  0.0000000000000D+00  0.0000000000000D+00
408  4.0700000000000D+00  0.0000000000000D+00  0.0000000000000D+00
409  4.0800000000000D+00  0.0000000000000D+00  0.0000000000000D+00
410  4.0900000000000D+00  0.0000000000000D+00  0.0000000000000D+00
411  4.1000000000000D+00  0.0000000000000D+00  0.0000000000000D+00
412  4.1100000000000D+00  0.0000000000000D+00  0.0000000000000D+00
413  4.1200000000000D+00  0.0000000000000D+00  0.0000000000000D+00
414  4.1300000000000D+00  0.0000000000000D+00  0.0000000000000D+00
415  4.1400000000000D+00  0.0000000000000D+00  0.0000000000000D+00
416  4.1500000000000D+00  0.0000000000000D+00  0.0000000000000D+00
417  4.1600000000000D+00  0.0000000000000D+00  0.0000000000000D+00
418  4.1700000000000D+00  0.0000000000000D+00  0.0000000000000D+00
419  4.1800000000000D+00  0.0000000000000D+00  0.0000000000000D+00
420  4.1900000000000D+00  0.0000000000000D+00  0.0000000000000D+00
421  4.2000000000000D+00  0.0000000000000D+00  0.0000000000000D+00
422  4.2100000000000D+00  0.0000000000000D+00  0.0000000000000D+00
423  4.2200000000000D+00  0.0000000000000D+00  0.0000000000000D+00
424  4.2300000000000D+00  0.0000000000000D+00  0.0000000000000D+00
425  4.2400000000000D+00  0.0000000000000D+00  0.0000000000000D+00
426  4.2500000000000D+00  0.0000000000000D+00  0.0000000000000D+00
427  4.2600000000000D+00  0.0000000000000D+00  0.0000000000000D+00
428  4.2700000000000D+00  0.0000000000000D+00  0.0000000000000D+00
429  4.2800000000000D+00  0.0000000000000D+00  0.0000000000000D+00
430  4.2900000000000D+00  0.0000000000000D+00  0.0000000000000D+00
431  4.3000000000000D+00  0.0000000000000D+00  0.0000000000000D+00
432  4.3100000000000D+00  0.0000000000000D+00  0.0000000000000D+00
433  4.3200000000000D+00  0.0000000000000D+00  0.0000000000000D+00
434  4.3300000000000D+00  0.0000000000000D+00  0.0000000000000D+00
435  4.3400000000000D+00  0.0000000000000D+00  0.0000000000000D+00
436  4.3500000000000D+00  0.0000000000000D+00  0.0000000000000D+00
437  4.3600000000000D+00  0.0000000000000D+00  0.0000000000000D+00
438  4.3700000000000D+00  0.0000000000000D+00  0.0000000000000D+00
439  4.3800000000000D+00  0.0000000000000D+00  0.0000000000000D+00
440  4.3900000000000D+00  0.0000000000000D+00  0.0000000000000D+00
441  4.4000000000000D+00  0.0000000000000D+00  0.0000000000000D+00
442  4.4100000000000D+00  0.0000000000000D+00  0.0000000000000D+00
443  4.4200000000000D+00  0.0000000000000D+00  0.0000000000000D+00
444  4.4300000000000D+00  0.0000000000000D+00  0.0000000000000D+00