Ru    ONCVPSP  r_core=  1.51  1.60  1.57
44.0000     16.0000      141222    zatom,zion,pspd
8    11     2     4   601     0    pspcod,pspxc,lmax,lloc,mmax,r2well
6.00000000  0.06500000  0.00000000    rchrg fchrg qchrg
2     2     2     0     0    nproj
0                 extension_switch
0                         1.2342567085728D+01  1.2366298864980D+00
1  0.0000000000000D+00 -0.0000000000000D+00  0.0000000000000D+00
2  1.0000000000000D-02 -6.9605544447823D-02  3.2775926109171D-02
3  2.0000000000000D-02 -1.3906839808653D-01  6.5357675101069D-02
4  3.0000000000000D-02 -2.0824634470220D-01  9.7552406171443D-02
5  4.0000000000000D-02 -2.7699811361223D-01  1.2916993630918D-01
6  5.0000000000000D-02 -3.4518384333069D-01  1.6002403230672D-01
7  6.0000000000000D-02 -4.1266553444643D-01  1.8993365905346D-01
8  7.0000000000000D-02 -4.7930748833790D-01  2.1872417044407D-01
9  8.0000000000000D-02 -5.4497672853273D-01  2.4622842999105D-01
10  9.0000000000000D-02 -6.0954340174490D-01  2.7228784915904D-01
11  1.0000000000000D-01 -6.7288115589151D-01  2.9675333254062D-01
12  1.1000000000000D-01 -7.3486749267819D-01  3.1948612019732D-01
13  1.2000000000000D-01 -7.9538409268627D-01  3.4035851888938D-01
14  1.3000000000000D-01 -8.5431711123144D-01  3.5925451534631D-01
15  1.4000000000000D-01 -9.1155744366936D-01  3.7607026635767D-01
16  1.5000000000000D-01 -9.6700095916274D-01  3.9071446198639D-01
17  1.6000000000000D-01 -1.0205487024019D+00  4.0310856003621D-01
18  1.7000000000000D-01 -1.0721070630692D+00  4.1318689142852D-01
19  1.8000000000000D-01 -1.1215879133807D+00  4.2089663808386D-01
20  1.9000000000000D-01 -1.1689087143865D+00  4.2619768637853D-01
21  2.0000000000000D-01 -1.2139925918277D+00  4.2906236091863D-01
22  2.1000000000000D-01 -1.2567683834085D+00  4.2947504512790D-01
23  2.2000000000000D-01 -1.2971706587356D+00  4.2743169652454D-01
24  2.3000000000000D-01 -1.3351397144116D+00  4.2293926567505D-01
25  2.4000000000000D-01 -1.3706215463274D+00  4.1601502997982D-01
26  2.5000000000000D-01 -1.4035678019878D+00  4.0668585296045D-01
27  2.6000000000000D-01 -1.4339357154568D+00  3.9498738244433D-01
28  2.7000000000000D-01 -1.4616880279868D+00  3.8096319983128D-01
29  2.8000000000000D-01 -1.4867928974030D+00  3.6466393723159D-01
30  2.9000000000000D-01 -1.5092237992996D+00  3.4614637249348D-01
31  3.0000000000000D-01 -1.5289594231635D+00  3.2547251938133D-01
32  3.1000000000000D-01 -1.5459835665266D+00  3.0270872665078D-01
33  3.2000000000000D-01 -1.5602850303187D+00  2.7792480220718D-01
34  3.3000000000000D-01 -1.5718575182848D+00  2.5119317570855D-01
35  3.4000000000000D-01 -1.5806995411031D+00  2.2258809265211D-01
36  3.5000000000000D-01 -1.5868143339221D+00  1.9218491773243D-01
37  3.6000000000000D-01 -1.5902097778640D+00  1.6005943844108D-01
38  3.7000000000000D-01 -1.5908983421081D+00  1.2628733186337D-01
39  3.8000000000000D-01 -1.5888970349993D+00  9.0943670308074D-02
40  3.9000000000000D-01 -1.5842273710395D+00  5.4102532076135D-02
41  4.0000000000000D-01 -1.5769153563404D+00  1.5836743098166D-02
42  4.1000000000000D-01 -1.5669914878784D+00 -2.3782296044616D-02
43  4.2000000000000D-01 -1.5544907691851D+00 -6.4684666445005D-02
44  4.3000000000000D-01 -1.5394527411527D+00 -1.0680187646059D-01
45  4.4000000000000D-01 -1.5219215267513D+00 -1.5006669858132D-01
46  4.5000000000000D-01 -1.5019458880246D+00 -1.9441290129979D-01
47  4.6000000000000D-01 -1.4795792932999D+00 -2.3977488146729D-01
48  4.7000000000000D-01 -1.4548799921106D+00 -2.8608720452320D-01
49  4.8000000000000D-01 -1.4279110945200D+00 -3.3328406317690D-01
50  4.9000000000000D-01 -1.3987406523081D+00 -3.8129866782816D-01
51  5.0000000000000D-01 -1.3674417404104D+00 -4.3006256206913D-01
52  5.1000000000000D-01 -1.3340925289073D+00 -4.7950490567093D-01
53  5.2000000000000D-01 -1.2987763441855D+00 -5.2955175277188D-01
54  5.3000000000000D-01 -1.2615817290188D+00 -5.8012521112168D-01
55  5.4000000000000D-01 -1.2226024638448D+00 -6.3114275744638D-01
56  5.5000000000000D-01 -1.1819375842148D+00 -6.8251643857312D-01
57  5.6000000000000D-01 -1.1396913630466D+00 -7.3415214800212D-01
58  5.7000000000000D-01 -1.0959732629158D+00 -7.8594901888049D-01
59  5.8000000000000D-01 -1.0508978570676D+00 -8.3779873455155D-01
60  5.9000000000000D-01 -1.0045847106166D+00 -8.8958510801879D-01
61  6.0000000000000D-01 -9.5715822037120D-01 -9.4118361988186D-01
62  6.1000000000000D-01 -9.0874740499130D-01 -9.9246107356862D-01
63  6.2000000000000D-01 -8.5948568160998D-01 -1.0432756132084D+00
64  6.3000000000000D-01 -8.0951051475566D-01 -1.0934763833419D+00
65  6.4000000000000D-01 -7.5896311348617D-01 -1.1429039133492D+00
66  6.5000000000000D-01 -7.0798804977676D-01 -1.1913903298730D+00
67  6.6000000000000D-01 -6.5673271592952D-01 -1.2387596601118D+00
68  6.7000000000000D-01 -6.0534691039597D-01 -1.2848285943467D+00
69  6.8000000000000D-01 -5.5398229525228D-01 -1.3294071929117D+00
70  6.9000000000000D-01 -5.0279175563690D-01 -1.3722998065444D+00
71  7.0000000000000D-01 -4.5192872458439D-01 -1.4133062216126D+00
72  7.1000000000000D-01 -4.0154658104013D-01 -1.4522228986124D+00
73  7.2000000000000D-01 -3.5179790508862D-01 -1.4888443739264D+00
74  7.3000000000000D-01 -3.0283375897403D-01 -1.5229647630641D+00
75  7.4000000000000D-01 -2.5480287352813D-01 -1.5543794609319D+00
76  7.5000000000000D-01 -2.0785077042303D-01 -1.5828870438739D+00
77  7.6000000000000D-01 -1.6211908657175D-01 -1.6082909673782D+00
78  7.7000000000000D-01 -1.1774470730196D-01 -1.6304015585452D+00
79  7.8000000000000D-01 -7.4858948649748D-02 -1.6490380034204D+00
80  7.9000000000000D-01 -3.3586747842344D-02 -1.6640303610534D+00
81  8.0000000000000D-01  5.9541299945408D-03 -1.6752215799638D+00
82  8.1000000000000D-01  4.3653860747535D-02 -1.6824694918582D+00
83  8.2000000000000D-01  7.9411297663138D-02 -1.6856487569268D+00
84  8.3000000000000D-01  1.1313466702137D-01 -1.6846527348640D+00
85  8.4000000000000D-01  1.4474221518870D-01 -1.6793952558910D+00
86  8.5000000000000D-01  1.7416279935807D-01 -1.6698122665147D+00
87  8.6000000000000D-01  2.0133641462588D-01 -1.6558633255149D+00
88  8.7000000000000D-01  2.2621465048424D-01 -1.6375329267190D+00
89  8.8000000000000D-01  2.4876107032071D-01 -1.6148316264848D+00
90  8.9000000000000D-01  2.6895150811978D-01 -1.5877969554813D+00
91  9.0000000000000D-01  2.8677427725240D-01 -1.5564940963385D+00
92  9.1000000000000D-01  3.0223028703037D-01 -1.5210163110425D+00
93  9.2000000000000D-01  3.1533306359537D-01 -1.4814851046141D+00
94  9.3000000000000D-01  3.2610867271735D-01 -1.4380501146343D+00
95  9.4000000000000D-01  3.3459554319738D-01 -1.3908887195925D+00
96  9.5000000000000D-01  3.4084419080637D-01 -1.3402053628358D+00
97  9.6000000000000D-01  3.4491684403674D-01 -1.2862305930609D+00
98  9.7000000000000D-01  3.4688684836268D-01 -1.2292195672052D+00
99  9.8000000000000D-01  3.4683853514096D-01 -1.1694514752514D+00
100  9.9000000000000D-01  3.4486614080675D-01 -1.1072268043232D+00
101  1.0000000000000D+00  3.4107315866537D-01 -1.0428655119880D+00
102  1.0100000000000D+00  3.3557154081173D-01 -9.7670479857735D-01
103  1.0200000000000D+00  3.2848081047151D-01 -9.0909662816909D-01
104  1.0300000000000D+00  3.1992718069968D-01 -8.4040532260588D-01
105  1.0400000000000D+00  3.1004257661752D-01 -7.7100467532082D-01
106  1.0500000000000D+00  2.9896329655020D-01 -7.0127410523021D-01
107  1.0600000000000D+00  2.8682909985766D-01 -6.3159625660725D-01
108  1.0700000000000D+00  2.7378208076976D-01 -5.6235371653357D-01
109  1.0800000000000D+00  2.5996591251947D-01 -4.9392694938791D-01
110  1.0900000000000D+00  2.4552420546356D-01 -4.2668942559805D-01
111  1.1000000000000D+00  2.3059889632560D-01 -3.6100301319008D-01
112  1.1100000000000D+00  2.1533000604056D-01 -2.9721749889862D-01
113  1.1200000000000D+00  1.9985467044487D-01 -2.3566779797875D-01
114  1.1300000000000D+00  1.8430628230080D-01 -1.7667150450896D-01
115  1.1400000000000D+00  1.6881092262509D-01 -1.2051843561220D-01
116  1.1500000000000D+00  1.5348929178794D-01 -6.7476620764552D-02
117  1.1600000000000D+00  1.3845597621300D-01 -1.7790202725290D-02
118  1.1700000000000D+00  1.2381716227108D-01  2.8327191826436D-02
119  1.1800000000000D+00  1.0966854150273D-01  7.0698327221423D-02
120  1.1900000000000D+00  9.6097770755876D-02  1.0917496143244D-01
121  1.2000000000000D+00  8.3185223476500D-02  1.4363565322544D-01
122  1.2100000000000D+00  7.0996266083544D-02  1.7400781702931D-01
123  1.2200000000000D+00  5.9587535317903D-02  2.0024926104173D-01
124  1.2300000000000D+00  4.9007238904803D-02  2.2234733988489D-01
125  1.2400000000000D+00  3.9289636599546D-02  2.4033434271496D-01
126  1.2500000000000D+00  3.0457820271582D-02  2.5427905161717D-01
127  1.2600000000000D+00  2.2527026448852D-02  2.6427745893932D-01
128  1.2700000000000D+00  1.5499436278679D-02  2.7046684112641D-01
129  1.2800000000000D+00  9.3659692026355D-03  2.7301992748169D-01
130  1.2900000000000D+00  4.1108006492289D-03  2.7213281299692D-01
131  1.3000000000000D+00 -2.9428673303422D-04  2.6803936097323D-01
132  1.3100000000000D+00 -3.8865925304995D-03  2.6100128187164D-01
133  1.3200000000000D+00 -6.7090234895610D-03  2.5129992273857D-01
134  1.3300000000000D+00 -8.8158043871804D-03  2.3924866674487D-01
135  1.3400000000000D+00 -1.0266648565300D-02  2.2517785551398D-01
136  1.3500000000000D+00 -1.1126650316731D-02  2.0943616716654D-01
137  1.3600000000000D+00 -1.1469124201117D-02  1.9239213776509D-01
138  1.3700000000000D+00 -1.1368842068978D-02  1.7441899781432D-01
139  1.3800000000000D+00 -1.0904091768091D-02  1.5589612811549D-01
140  1.3900000000000D+00 -1.0149134771946D-02  1.3717820268529D-01
141  1.4000000000000D+00 -9.1803344623905D-03  1.1862750579073D-01
142  1.4100000000000D+00 -8.0655480518470D-03  1.0056206407095D-01
143  1.4200000000000D+00 -6.8712875044510D-03  8.3294220790443D-02
144  1.4300000000000D+00 -5.6592979422842D-03  6.7112878952437D-02
145  1.4400000000000D+00 -4.4800477616604D-03  5.2258493152316D-02
146  1.4500000000000D+00 -3.3864320320594D-03  3.8981135849693D-02
147  1.4600000000000D+00 -2.4115354258025D-03  2.7448065787238D-02
148  1.4700000000000D+00 -1.5899780556941D-03  1.7833422712504D-02
149  1.4800000000000D+00 -9.4186188721649D-04  1.0251914060028D-02
150  1.4900000000000D+00 -4.7874809364379D-04  4.7843568900988D-03
151  1.5000000000000D+00 -2.2639734795768D-04  1.7003597905028D-03
152  1.5100000000000D+00 -1.1439853875106D-04  3.6649808534898D-04
153  1.5200000000000D+00 -3.4063475202269D-05 -5.7873228093109D-05
154  1.5300000000000D+00  3.0391738950080D-06 -9.4300152725183D-06
155  1.5400000000000D+00  6.2273822762239D-06 -1.9322458010402D-05
156  1.5500000000000D+00  0.0000000000000D+00  0.0000000000000D+00
157  1.5600000000000D+00  0.0000000000000D+00  0.0000000000000D+00
158  1.5700000000000D+00  0.0000000000000D+00  0.0000000000000D+00
159  1.5800000000000D+00  0.0000000000000D+00  0.0000000000000D+00
160  1.5900000000000D+00  0.0000000000000D+00  0.0000000000000D+00
161  1.6000000000000D+00  0.0000000000000D+00  0.0000000000000D+00
162  1.6100000000000D+00  0.0000000000000D+00  0.0000000000000D+00
163  1.6200000000000D+00  0.0000000000000D+00  0.0000000000000D+00
164  1.6300000000000D+00  0.0000000000000D+00  0.0000000000000D+00
165  1.6400000000000D+00  0.0000000000000D+00  0.0000000000000D+00
166  1.6500000000000D+00  0.0000000000000D+00  0.0000000000000D+00
167  1.6600000000000D+00  0.0000000000000D+00  0.0000000000000D+00
168  1.6700000000000D+00  0.0000000000000D+00  0.0000000000000D+00
169  1.6800000000000D+00  0.0000000000000D+00  0.0000000000000D+00
170  1.6900000000000D+00  0.0000000000000D+00  0.0000000000000D+00
171  1.7000000000000D+00  0.0000000000000D+00  0.0000000000000D+00
172  1.7100000000000D+00  0.0000000000000D+00  0.0000000000000D+00
173  1.7200000000000D+00  0.0000000000000D+00  0.0000000000000D+00
174  1.7300000000000D+00  0.0000000000000D+00  0.0000000000000D+00
175  1.7400000000000D+00  0.0000000000000D+00  0.0000000000000D+00
176  1.7500000000000D+00  0.0000000000000D+00  0.0000000000000D+00
177  1.7600000000000D+00  0.0000000000000D+00  0.0000000000000D+00
178  1.7700000000000D+00  0.0000000000000D+00  0.0000000000000D+00
179  1.7800000000000D+00  0.0000000000000D+00  0.0000000000000D+00
180  1.7900000000000D+00  0.0000000000000D+00  0.0000000000000D+00
181  1.8000000000000D+00  0.0000000000000D+00  0.0000000000000D+00
182  1.8100000000000D+00  0.0000000000000D+00  0.0000000000000D+00
183  1.8200000000000D+00  0.0000000000000D+00  0.0000000000000D+00
184  1.8300000000000D+00  0.0000000000000D+00  0.0000000000000D+00
185  1.8400000000000D+00  0.0000000000000D+00  0.0000000000000D+00
186  1.8500000000000D+00  0.0000000000000D+00  0.0000000000000D+00
187  1.8600000000000D+00  0.0000000000000D+00  0.0000000000000D+00
188  1.8700000000000D+00  0.0000000000000D+00  0.0000000000000D+00
189  1.8800000000000D+00  0.0000000000000D+00  0.0000000000000D+00
190  1.8900000000000D+00  0.0000000000000D+00  0.0000000000000D+00
191  1.9000000000000D+00  0.0000000000000D+00  0.0000000000000D+00
192  1.9100000000000D+00  0.0000000000000D+00  0.0000000000000D+00
193  1.9200000000000D+00  0.0000000000000D+00  0.0000000000000D+00
194  1.9300000000000D+00  0.0000000000000D+00  0.0000000000000D+00
195  1.9400000000000D+00  0.0000000000000D+00  0.0000000000000D+00
196  1.9500000000000D+00  0.0000000000000D+00  0.0000000000000D+00
197  1.9600000000000D+00  0.0000000000000D+00  0.0000000000000D+00
198  1.9700000000000D+00  0.0000000000000D+00  0.0000000000000D+00
199  1.9800000000000D+00  0.0000000000000D+00  0.0000000000000D+00
200  1.9900000000000D+00  0.0000000000000D+00  0.0000000000000D+00
201  2.0000000000000D+00  0.0000000000000D+00  0.0000000000000D+00
202  2.0100000000000D+00  0.0000000000000D+00  0.0000000000000D+00
203  2.0200000000000D+00  0.0000000000000D+00  0.0000000000000D+00
204  2.0300000000000D+00  0.0000000000000D+00  0.0000000000000D+00
205  2.0400000000000D+00  0.0000000000000D+00  0.0000000000000D+00
206  2.0500000000000D+00  0.0000000000000D+00  0.0000000000000D+00
207  2.0600000000000D+00  0.0000000000000D+00  0.0000000000000D+00
208  2.0700000000000D+00  0.0000000000000D+00  0.0000000000000D+00
209  2.0800000000000D+00  0.0000000000000D+00  0.0000000000000D+00
210  2.0900000000000D+00  0.0000000000000D+00  0.0000000000000D+00
211  2.1000000000000D+00  0.0000000000000D+00  0.0000000000000D+00
212  2.1100000000000D+00  0.0000000000000D+00  0.0000000000000D+00
213  2.1200000000000D+00  0.0000000000000D+00  0.0000000000000D+00
214  2.1300000000000D+00  0.0000000000000D+00  0.0000000000000D+00
215  2.1400000000000D+00  0.0000000000000D+00  0.0000000000000D+00
216  2.1500000000000D+00  0.0000000000000D+00  0.0000000000000D+00
217  2.1600000000000D+00  0.0000000000000D+00  0.0000000000000D+00
218  2.1700000000000D+00  0.0000000000000D+00  0.0000000000000D+00
219  2.1800000000000D+00  0.0000000000000D+00  0.0000000000000D+00
220  2.1900000000000D+00  0.0000000000000D+00  0.0000000000000D+00
221  2.2000000000000D+00  0.0000000000000D+00  0.0000000000000D+00
222  2.2100000000000D+00  0.0000000000000D+00  0.0000000000000D+00
223  2.2200000000000D+00  0.0000000000000D+00  0.0000000000000D+00
224  2.2300000000000D+00  0.0000000000000D+00  0.0000000000000D+00
225  2.2400000000000D+00  0.0000000000000D+00  0.0000000000000D+00
226  2.2500000000000D+00  0.0000000000000D+00  0.0000000000000D+00
227  2.2600000000000D+00  0.0000000000000D+00  0.0000000000000D+00
228  2.2700000000000D+00  0.0000000000000D+00  0.0000000000000D+00
229  2.2800000000000D+00  0.0000000000000D+00  0.0000000000000D+00
230  2.2900000000000D+00  0.0000000000000D+00  0.0000000000000D+00
231  2.3000000000000D+00  0.0000000000000D+00  0.0000000000000D+00
232  2.3100000000000D+00  0.0000000000000D+00  0.0000000000000D+00
233  2.3200000000000D+00  0.0000000000000D+00  0.0000000000000D+00
234  2.3300000000000D+00  0.0000000000000D+00  0.0000000000000D+00
235  2.3400000000000D+00  0.0000000000000D+00  0.0000000000000D+00
236  2.3500000000000D+00  0.0000000000000D+00  0.0000000000000D+00
237  2.3600000000000D+00  0.0000000000000D+00  0.0000000000000D+00
238  2.3700000000000D+00  0.0000000000000D+00  0.0000000000000D+00
239  2.3800000000000D+00  0.0000000000000D+00  0.0000000000000D+00
240  2.3900000000000D+00  0.0000000000000D+00  0.0000000000000D+00
241  2.4000000000000D+00  0.0000000000000D+00  0.0000000000000D+00
242  2.4100000000000D+00  0.0000000000000D+00  0.0000000000000D+00
243  2.4200000000000D+00  0.0000000000000D+00  0.0000000000000D+00
244  2.4300000000000D+00  0.0000000000000D+00  0.0000000000000D+00
245  2.4400000000000D+00  0.0000000000000D+00  0.0000000000000D+00
246  2.4500000000000D+00  0.0000000000000D+00  0.0000000000000D+00
247  2.4600000000000D+00  0.0000000000000D+00  0.0000000000000D+00
248  2.4700000000000D+00  0.0000000000000D+00  0.0000000000000D+00
249  2.4800000000000D+00  0.0000000000000D+00  0.0000000000000D+00
250  2.4900000000000D+00  0.0000000000000D+00  0.0000000000000D+00
251  2.5000000000000D+00  0.0000000000000D+00  0.0000000000000D+00
252  2.5100000000000D+00  0.0000000000000D+00  0.0000000000000D+00
253  2.5200000000000D+00  0.0000000000000D+00  0.0000000000000D+00
254  2.5300000000000D+00  0.0000000000000D+00  0.0000000000000D+00
255  2.5400000000000D+00  0.0000000000000D+00  0.0000000000000D+00
256  2.5500000000000D+00  0.0000000000000D+00  0.0000000000000D+00
257  2.5600000000000D+00  0.0000000000000D+00  0.0000000000000D+00
258  2.5700000000000D+00  0.0000000000000D+00  0.0000000000000D+00
259  2.5800000000000D+00  0.0000000000000D+00  0.0000000000000D+00
260  2.5900000000000D+00  0.0000000000000D+00  0.0000000000000D+00
261  2.6000000000000D+00  0.0000000000000D+00  0.0000000000000D+00
262  2.6100000000000D+00  0.0000000000000D+00  0.0000000000000D+00
263  2.6200000000000D+00  0.0000000000000D+00  0.0000000000000D+00
264  2.6300000000000D+00  0.0000000000000D+00  0.0000000000000D+00
265  2.6400000000000D+00  0.0000000000000D+00  0.0000000000000D+00
266  2.6500000000000D+00  0.0000000000000D+00  0.0000000000000D+00
267  2.6600000000000D+00  0.0000000000000D+00  0.0000000000000D+00
268  2.6700000000000D+00  0.0000000000000D+00  0.0000000000000D+00
269  2.6800000000000D+00  0.0000000000000D+00  0.0000000000000D+00
270  2.6900000000000D+00  0.0000000000000D+00  0.0000000000000D+00
271  2.7000000000000D+00  0.0000000000000D+00  0.0000000000000D+00
272  2.7100000000000D+00  0.0000000000000D+00  0.0000000000000D+00
273  2.7200000000000D+00  0.0000000000000D+00  0.0000000000000D+00
274  2.7300000000000D+00  0.0000000000000D+00  0.0000000000000D+00
275  2.7400000000000D+00  0.0000000000000D+00  0.0000000000000D+00
276  2.7500000000000D+00  0.0000000000000D+00  0.0000000000000D+00
277  2.7600000000000D+00  0.0000000000000D+00  0.0000000000000D+00
278  2.7700000000000D+00  0.0000000000000D+00  0.0000000000000D+00
279  2.7800000000000D+00  0.0000000000000D+00  0.0000000000000D+00
280  2.7900000000000D+00  0.0000000000000D+00  0.0000000000000D+00
281  2.8000000000000D+00  0.0000000000000D+00  0.0000000000000D+00
282  2.8100000000000D+00  0.0000000000000D+00  0.0000000000000D+00
283  2.8200000000000D+00  0.0000000000000D+00  0.0000000000000D+00
284  2.8300000000000D+00  0.0000000000000D+00  0.0000000000000D+00
285  2.8400000000000D+00  0.0000000000000D+00  0.0000000000000D+00
286  2.8500000000000D+00  0.0000000000000D+00  0.0000000000000D+00
287  2.8600000000000D+00  0.0000000000000D+00  0.0000000000000D+00
288  2.8700000000000D+00  0.0000000000000D+00  0.0000000000000D+00
289  2.8800000000000D+00  0.0000000000000D+00  0.0000000000000D+00
290  2.8900000000000D+00  0.0000000000000D+00  0.0000000000000D+00
291  2.9000000000000D+00  0.0000000000000D+00  0.0000000000000D+00
292  2.9100000000000D+00  0.0000000000000D+00  0.0000000000000D+00
293  2.9200000000000D+00  0.0000000000000D+00  0.0000000000000D+00
294  2.9300000000000D+00  0.0000000000000D+00  0.0000000000000D+00
295  2.9400000000000D+00  0.0000000000000D+00  0.0000000000000D+00
296  2.9500000000000D+00  0.0000000000000D+00  0.0000000000000D+00
297  2.9600000000000D+00  0.0000000000000D+00  0.0000000000000D+00
298  2.9700000000000D+00  0.0000000000000D+00  0.0000000000000D+00
299  2.9800000000000D+00  0.0000000000000D+00  0.0000000000000D+00
300  2.9900000000000D+00  0.0000000000000D+00  0.0000000000000D+00
301  3.0000000000000D+00  0.0000000000000D+00  0.0000000000000D+00
302  3.0100000000000D+00  0.0000000000000D+00  0.0000000000000D+00
303  3.0200000000000D+00  0.0000000000000D+00  0.0000000000000D+00
304  3.0300000000000D+00  0.0000000000000D+00  0.0000000000000D+00
305  3.0400000000000D+00  0.0000000000000D+00  0.0000000000000D+00
306  3.0500000000000D+00  0.0000000000000D+00  0.0000000000000D+00
307  3.0600000000000D+00  0.0000000000000D+00  0.0000000000000D+00
308  3.0700000000000D+00  0.0000000000000D+00  0.0000000000000D+00
309  3.0800000000000D+00  0.0000000000000D+00  0.0000000000000D+00
310  3.0900000000000D+00  0.0000000000000D+00  0.0000000000000D+00
311  3.1000000000000D+00  0.0000000000000D+00  0.0000000000000D+00
312  3.1100000000000D+00  0.0000000000000D+00  0.0000000000000D+00
313  3.1200000000000D+00  0.0000000000000D+00  0.0000000000000D+00
314  3.1300000000000D+00  0.0000000000000D+00  0.0000000000000D+00
315  3.1400000000000D+00  0.0000000000000D+00  0.0000000000000D+00
316  3.1500000000000D+00  0.0000000000000D+00  0.0000000000000D+00
317  3.1600000000000D+00  0.0000000000000D+00  0.0000000000000D+00
318  3.1700000000000D+00  0.0000000000000D+00  0.0000000000000D+00
319  3.1800000000000D+00  0.0000000000000D+00  0.0000000000000D+00
320  3.1900000000000D+00  0.0000000000000D+00  0.0000000000000D+00
321  3.2000000000000D+00  0.0000000000000D+00  0.0000000000000D+00
322  3.2100000000000D+00  0.0000000000000D+00  0.0000000000000D+00
323  3.2200000000000D+00  0.0000000000000D+00  0.0000000000000D+00
324  3.2300000000000D+00  0.0000000000000D+00  0.0000000000000D+00
325  3.2400000000000D+00  0.0000000000000D+00  0.0000000000000D+00
326  3.2500000000000D+00  0.0000000000000D+00  0.0000000000000D+00
327  3.2600000000000D+00  0.0000000000000D+00  0.0000000000000D+00
328  3.2700000000000D+00  0.0000000000000D+00  0.0000000000000D+00
329  3.2800000000000D+00  0.0000000000000D+00  0.0000000000000D+00
330  3.2900000000000D+00  0.0000000000000D+00  0.0000000000000D+00
331  3.3000000000000D+00  0.0000000000000D+00  0.0000000000000D+00
332  3.3100000000000D+00  0.0000000000000D+00  0.0000000000000D+00
333  3.3200000000000D+00  0.0000000000000D+00  0.0000000000000D+00
334  3.3300000000000D+00  0.0000000000000D+00  0.0000000000000D+00
335  3.3400000000000D+00  0.0000000000000D+00  0.0000000000000D+00
336  3.3500000000000D+00  0.0000000000000D+00  0.0000000000000D+00
337  3.3600000000000D+00  0.0000000000000D+00  0.0000000000000D+00
338  3.3700000000000D+00  0.0000000000000D+00  0.0000000000000D+00
339  3.3800000000000D+00  0.0000000000000D+00  0.0000000000000D+00
340  3.3900000000000D+00  0.0000000000000D+00  0.0000000000000D+00
341  3.4000000000000D+00  0.0000000000000D+00  0.0000000000000D+00
342  3.4100000000000D+00  0.0000000000000D+00  0.0000000000000D+00
343  3.4200000000000D+00  0.0000000000000D+00  0.0000000000000D+00
344  3.4300000000000D+00  0.0000000000000D+00  0.0000000000000D+00
345  3.4400000000000D+00  0.0000000000000D+00  0.0000000000000D+00
346  3.4500000000000D+00  0.0000000000000D+00  0.0000000000000D+00
347  3.4600000000000D+00  0.0000000000000D+00  0.0000000000000D+00
348  3.4700000000000D+00  0.0000000000000D+00  0.0000000000000D+00
349  3.4800000000000D+00  0.0000000000000D+00  0.0000000000000D+00
350  3.4900000000000D+00  0.0000000000000D+00  0.0000000000000D+00
351  3.5000000000000D+00  0.0000000000000D+00  0.0000000000000D+00
352  3.5100000000000D+00  0.0000000000000D+00  0.0000000000000D+00
353  3.5200000000000D+00  0.0000000000000D+00  0.0000000000000D+00
354  3.5300000000000D+00  0.0000000000000D+00  0.0000000000000D+00
355  3.5400000000000D+00  0.0000000000000D+00  0.0000000000000D+00
356  3.5500000000000D+00  0.0000000000000D+00  0.0000000000000D+00
357  3.5600000000000D+00  0.0000000000000D+00  0.0000000000000D+00
358  3.5700000000000D+00  0.0000000000000D+00  0.0000000000000D+00
359  3.5800000000000D+00  0.0000000000000D+00  0.0000000000000D+00
360  3.5900000000000D+00  0.0000000000000D+00  0.0000000000000D+00
361  3.6000000000000D+00  0.0000000000000D+00  0.0000000000000D+00
362  3.6100000000000D+00  0.0000000000000D+00  0.0000000000000D+00
363  3.6200000000000D+00  0.0000000000000D+00  0.0000000000000D+00
364  3.6300000000000D+00  0.0000000000000D+00  0.0000000000000D+00
365  3.6400000000000D+00  0.0000000000000D+00  0.0000000000000D+00
366  3.6500000000000D+00  0.0000000000000D+00  0.0000000000000D+00
367  3.6600000000000D+00  0.0000000000000D+00  0.0000000000000D+00
368  3.6700000000000D+00  0.0000000000000D+00  0.0000000000000D+00
369  3.6800000000000D+00  0.0000000000000D+00  0.0000000000000D+00
370  3.6900000000000D+00  0.0000000000000D+00  0.0000000000000D+00
371  3.7000000000000D+00  0.0000000000000D+00  0.0000000000000D+00
372  3.7100000000000D+00  0.0000000000000D+00  0.0000000000000D+00
373  3.7200000000000D+00  0.0000000000000D+00  0.0000000000000D+00
374  3.7300000000000D+00  0.0000000000000D+00  0.0000000000000D+00
375  3.7400000000000D+00  0.0000000000000D+00  0.0000000000000D+00
376  3.7500000000000D+00  0.0000000000000D+00  0.0000000000000D+00
377  3.7600000000000D+00  0.0000000000000D+00  0.0000000000000D+00
378  3.7700000000000D+00  0.0000000000000D+00  0.0000000000000D+00
379  3.7800000000000D+00  0.0000000000000D+00  0.0000000000000D+00
380  3.7900000000000D+00  0.0000000000000D+00  0.0000000000000D+00
381  3.8000000000000D+00  0.0000000000000D+00  0.0000000000000D+00
382  3.8100000000000D+00  0.0000000000000D+00  0.0000000000000D+00
383  3.8200000000000D+00  0.0000000000000D+00  0.0000000000000D+00
384  3.8300000000000D+00  0.0000000000000D+00  0.0000000000000D+00
385  3.8400000000000D+00  0.0000000000000D+00  0.0000000000000D+00
386  3.8500000000000D+00  0.0000000000000D+00  0.0000000000000D+00
387  3.8600000000000D+00  0.0000000000000D+00  0.0000000000000D+00
388  3.8700000000000D+00  0.0000000000000D+00  0.0000000000000D+00
389  3.8800000000000D+00  0.0000000000000D+00  0.0000000000000D+00
390  3.8900000000000D+00  0.0000000000000D+00  0.0000000000000D+00
391  3.9000000000000D+00  0.0000000000000D+00  0.0000000000000D+00
392  3.9100000000000D+00  0.0000000000000D+00  0.0000000000000D+00
393  3.9200000000000D+00  0.0000000000000D+00  0.0000000000000D+00
394  3.9300000000000D+00  0.0000000000000D+00  0.0000000000000D+00
395  3.9400000000000D+00  0.0000000000000D+00  0.0000000000000D+00
396  3.9500000000000D+00  0.0000000000000D+00  0.0000000000000D+00
397  3.9600000000000D+00  0.0000000000000D+00  0.0000000000000D+00
398  3.9700000000000D+00  0.0000000000000D+00  0.0000000000000D+00
399  3.9800000000000D+00  0.0000000000000D+00  0.0000000000000D+00
400  3.9900000000000D+00  0.0000000000000D+00  0.0000000000000D+00
401  4.0000000000000D+00  0.0000000000000D+00  0.0000000000000D+00
402  4.0100000000000D+00  0.0000000000000D+00  0.0000000000000D+00
403  4.0200000000000D+00  0.0000000000000D+00  0.0000000000000D+00
404  4.0300000000000D+00  0.0000000000000D+00  0.0000000000000D+00
405  4.0400000000000D+00  0.0000000000000D+00  0.0000000000000D+00
406  4.0500000000000D+00  0.0000000000000D+00  0.0000000000000D+00
407  4.0600000000000D+00  0.0000000000000D+00  0.0000000000000D+00
408  4.0700000000000D+00  0.0000000000000D+00  0.0000000000000D+00
409  4.0800000000000D+00  0.0000000000000D+00  0.0000000000000D+00
410  4.0900000000000D+00  0.0000000000000D+00  0.0000000000000D+00
411  4.1000000000000D+00  0.0000000000000D+00  0.0000000000000D+00
412  4.1100000000000D+00  0.0000000000000D+00  0.0000000000000D+00
413  4.1200000000000D+00  0.0000000000000D+00  0.0000000000000D+00
414  4.1300000000000D+00  0.0000000000000D+00  0.0000000000000D+00
415  4.1400000000000D+00  0.0000000000000D+00  0.0000000000000D+00
416  4.1500000000000D+00  0.0000000000000D+00  0.0000000000000D+00
417  4.1600000000000D+00  0.0000000000000D+00  0.0000000000000D+00
418  4.1700000000000D+00  0.0000000000000D+00  0.0000000000000D+00
419  4.1800000000000D+00  0.0000000000000D+00  0.0000000000000D+00
420  4.1900000000000D+00  0.0000000000000D+00  0.0000000000000D+00
421  4.2000000000000D+00  0.0000000000000D+00  0.0000000000000D+00
422  4.2100000000000D+00  0.0000000000000D+00  0.0000000000000D+00
423  4.2200000000000D+00  0.0000000000000D+00  0.0000000000000D+00
424  4.2300000000000D+00  0.0000000000000D+00  0.0000000000000D+00
425  4.2400000000000D+00  0.0000000000000D+00  0.0000000000000D+00
426  4.2500000000000D+00  0.0000000000000D+00  0.0000000000000D+00
427  4.2600000000000D+00  0.0000000000000D+00  0.0000000000000D+00
428  4.2700000000000D+00  0.0000000000000D+00  0.0000000000000D+00
429  4.2800000000000D+00  0.0000000000000D+00  0.0000000000000D+00
430  4.2900000000000D+00  0.0000000000000D+00  0.0000000000000D+00
431  4.3000000000000D+00  0.0000000000000D+00  0.0000000000000D+00
432  4.3100000000000D+00  0.0000000000000D+00  0.0000000000000D+00
433  4.3200000000000D+00  0.0000000000000D+00  0.0000000000000D+00
434  4.3300000000000D+00  0.0000000000000D+00  0.0000000000000D+00
435  4.3400000000000D+00  0.0000000000000D+00  0.0000000000000D+00
436  4.3500000000000D+00  0.0000000000000D+00  0.0000000000000D+00
437  4.3600000000000D+00  0.0000000000000D+00  0.0000000000000D+00
438  4.3700000000000D+00  0.0000000000000D+00  0.0000000000000D+00
439  4.3800000000000D+00  0.0000000000000D+00  0.0000000000000D+00
440  4.3900000000000D+00  0.0000000000000D+00  0.0000000000000D+00
441  4.4000000000000D+00  0.0000000000000D+00  0.0000000000000D+00
442  4.4100000000000D+00  0.0000000000000D+00  0.0000000000000D+00
443  4.4200000000000D+00  0.0000000000000D+00  0.0000000000000D+00
444  4.4300000000000D+00  0.0000000000000D+00  0.0000000000000D+00