Ir    ONCVPSP  r_core=  1.60  1.60  1.51  2.27
77.0000     17.0000      161004    zatom,zion,pspd
8 -116133   3     4   500     0    pspcod,pspxc,lmax,lloc,mmax,r2well
4.99000000  5.00000000  0.00000000    rchrg fchrg qchrg
2     2     2     2     0    nproj
1                 extension_switch
0                         1.8860322057677D+02  2.8418800117524D+00
1  0.0000000000000D+00 -5.6239635171096D-10  6.7760719604792D-10
2  1.0000000000000D-02  7.8564552146531D-02  1.4866601779091D-03
3  2.0000000000000D-02  1.5688269795148D-01  3.1117149200941D-03
4  3.0000000000000D-02  2.3470938774984D-01  5.0122190474789D-03
5  4.0000000000000D-02  3.1180227255991D-01  7.3225627478540D-03
6  5.0000000000000D-02  3.8792302289520D-01  1.0173176218816D-02
7  6.0000000000000D-02  4.6283861014431D-01  1.3689278175821D-02
8  7.0000000000000D-02  5.3632253870917D-01  1.7989682042464D-02
9  8.0000000000000D-02  6.0815601765472D-01  2.3185672962502D-02
10  9.0000000000000D-02  6.7812906131355D-01  2.9379967940682D-02
11  1.0000000000000D-01  7.4604150910063D-01  3.6665770442031D-02
12  1.1000000000000D-01  8.1170395571489D-01  4.5125929668031D-02
13  1.2000000000000D-01  8.7493858392702D-01  5.4832213495816D-02
14  1.3000000000000D-01  9.3557989326367D-01  6.5844702727738D-02
15  1.4000000000000D-01  9.9347531908394D-01  7.8211312868500D-02
16  1.5000000000000D-01  1.0484857377924D+00  9.1967448142512D-02
17  1.6000000000000D-01  1.1004858552272D+00  1.0713579090255D-01
18  1.7000000000000D-01  1.1493644765885D+00  1.2372622798057D-01
19  1.8000000000000D-01  1.1950246576158D+00  1.4173591391119D-01
20  1.9000000000000D-01  1.2373837380648D+00  1.6114946933729D-01
21  2.0000000000000D-01  1.2763732598636D+00  1.8193931130455D-01
22  2.1000000000000D-01  1.3119387736232D+00  2.0406611058597D-01
23  2.2000000000000D-01  1.3440395384267D+00  2.2747936966832D-01
24  2.3000000000000D-01  1.3726481210103D+00  2.5211811359722D-01
25  2.4000000000000D-01  1.3977499015603D+00  2.7791168453373D-01
26  2.5000000000000D-01  1.4193424943695D+00  3.0478062963989D-01
27  2.6000000000000D-01  1.4374350925200D+00  3.3263767079813D-01
28  2.7000000000000D-01  1.4520477465613D+00  3.6138874369403D-01
29  2.8000000000000D-01  1.4632105878345D+00  3.9093409296604D-01
30  2.9000000000000D-01  1.4709630076450D+00  4.2116940946010D-01
31  3.0000000000000D-01  1.4753528038912D+00  4.5198699513023D-01
32  3.1000000000000D-01  1.4764353070223D+00  4.8327694080539D-01
33  3.2000000000000D-01  1.4742724973136D+00  5.1492830190337D-01
34  3.3000000000000D-01  1.4689321254062D+00  5.4683025721581D-01
35  3.4000000000000D-01  1.4604868478728D+00  5.7887323611731D-01
36  3.5000000000000D-01  1.4490133892288D+00  6.1094999996234D-01
37  3.6000000000000D-01  1.4345917413228D+00  6.4295666402422D-01
38  3.7000000000000D-01  1.4173044104091D+00  6.7479364709398D-01
39  3.8000000000000D-01  1.3972357214442D+00  7.0636653678593D-01
40  3.9000000000000D-01  1.3744711882559D+00  7.3758685968090D-01
41  4.0000000000000D-01  1.3490969572279D+00  7.6837274666564D-01
42  4.1000000000000D-01  1.3211993310318D+00  7.9864948518365D-01
43  4.2000000000000D-01  1.2908643777337D+00  8.2834995158350D-01
44  4.3000000000000D-01  1.2581776293256D+00  8.5741491831808D-01
45  4.4000000000000D-01  1.2232238723866D+00  8.8579323239419D-01
46  4.5000000000000D-01  1.1860870321958D+00  9.1344186317629D-01
47  4.6000000000000D-01  1.1468501502014D+00  9.4032581939121D-01
48  4.7000000000000D-01  1.1055954533278D+00  9.6641793694053D-01
49  4.8000000000000D-01  1.0624045121835D+00  9.9169854088225D-01
50  4.9000000000000D-01  1.0173584838445D+00  1.0161549866726D+00
51  5.0000000000000D-01  9.7053843353797D-01  1.0397810874386D+00
52  5.1000000000000D-01  9.2202572827074D-01  1.0625764356625D+00
53  5.2000000000000D-01  8.7190249423709D-01  1.0845456291804D+00
54  5.3000000000000D-01  8.2025212873601D-01  1.1056974128023D+00
55  5.4000000000000D-01  7.6715985632767D-01  1.1260437481452D+00
56  5.5000000000000D-01  7.1271331808843D-01  1.1455988253971D+00
57  5.6000000000000D-01  6.5700318209168D-01  1.1643780316989D+00
58  5.7000000000000D-01  6.0012376266003D-01  1.1823968916237D+00
59  5.8000000000000D-01  5.4217363551400D-01  1.1996699958256D+00
60  5.9000000000000D-01  4.8325623568971D-01  1.2162099343358D+00
61  6.0000000000000D-01  4.2348042502158D-01  1.2320262511683D+00
62  6.1000000000000D-01  3.6296101608688D-01  1.2471244368760D+00
63  6.2000000000000D-01  3.0181923979063D-01  1.2615049754582D+00
64  6.3000000000000D-01  2.4018314423334D-01  1.2751624615599D+00
65  6.4000000000000D-01  1.7818791314069D-01  1.2880848032352D+00
66  6.5000000000000D-01  1.1597609294894D-01  1.3002525246617D+00
67  6.6000000000000D-01  5.3697718618120D-02  1.3116381821099D+00
68  6.7000000000000D-01 -8.4896706254242D-03  1.3222059052018D+00
69  6.8000000000000D-01 -7.0421133132468D-02  1.3319110740319D+00
70  6.9000000000000D-01 -1.3192455036866D-01  1.3407001411147D+00
71  7.0000000000000D-01 -1.9282098072724D-01  1.3485106053533D+00
72  7.1000000000000D-01 -2.5292514457993D-01  1.3552711433486D+00
73  7.2000000000000D-01 -3.1204604181567D-01  1.3609019013614D+00
74  7.3000000000000D-01 -3.6998770135916D-01  1.3653149491769D+00
75  7.4000000000000D-01 -4.2655006035633D-01  1.3684148949880D+00
76  7.5000000000000D-01 -4.8152996888995D-01  1.3700996582504D+00
77  7.6000000000000D-01 -5.3472231428103D-01  1.3702613953039D+00
78  7.7000000000000D-01 -5.8592125723565D-01  1.3687875704026D+00
79  7.8000000000000D-01 -6.3492157036698D-01  1.3655621627080D+00
80  7.9000000000000D-01 -6.8152006795938D-01  1.3604669977803D+00
81  8.0000000000000D-01 -7.2551711427587D-01  1.3533831901898D+00
82  8.1000000000000D-01 -7.6671819626394D-01  1.3441926820821D+00
83  8.2000000000000D-01 -8.0493554520530D-01  1.3327798609013D+00
84  8.3000000000000D-01 -8.3998979070458D-01  1.3190332380147D+00
85  8.4000000000000D-01 -8.7171162943578D-01  1.3028471687254D+00
86  8.5000000000000D-01 -8.9994349028072D-01  1.2841235931162D+00
87  8.6000000000000D-01 -9.2454117691316D-01  1.2627737763552D+00
88  8.7000000000000D-01 -9.4537546851849D-01  1.2387200265355D+00
89  8.8000000000000D-01 -9.6233365919964D-01  1.2118973678121D+00
90  8.9000000000000D-01 -9.7532101671259D-01  1.1822551465686D+00
91  9.0000000000000D-01 -9.8426214150281D-01  1.1497585485763D+00
92  9.1000000000000D-01 -9.8910220757795D-01  1.1143900056247D+00
93  9.2000000000000D-01 -9.8980806755011D-01  1.0761504708806D+00
94  9.3000000000000D-01 -9.8636920520931D-01  1.0350605432919D+00
95  9.4000000000000D-01 -9.7879852023840D-01  9.9116142265860D-01
96  9.5000000000000D-01 -9.6713293114004D-01  9.4451567856155D-01
97  9.6000000000000D-01 -9.5143378410161D-01  8.9520781812927D-01
98  9.7000000000000D-01 -9.3178705737927D-01  8.4334463965668D-01
99  9.8000000000000D-01 -9.0830335275848D-01  7.8905536126927D-01
100  9.9000000000000D-01 -8.8111766780721D-01  7.3249151622353D-01
101  1.0000000000000D+00 -8.5038894491827D-01  6.7382660898243D-01
102  1.0100000000000D+00 -8.1629939547445D-01  6.1325552882778D-01
103  1.0200000000000D+00 -7.7905359991150D-01  5.5099372052376D-01
104  1.0300000000000D+00 -7.3887738690837D-01  4.8727611432396D-01
105  1.0400000000000D+00 -6.9601649750431D-01  4.2235582053539D-01
106  1.0500000000000D+00 -6.5073504219665D-01  3.5650259642251D-01
107  1.0600000000000D+00 -6.0331376176281D-01  2.9000109631201D-01
108  1.0700000000000D+00 -5.5404810471745D-01  2.2314891824966D-01
109  1.0800000000000D+00 -5.0324613660329D-01  1.5625446319677D-01
110  1.0900000000000D+00 -4.5122629851843D-01  8.9634625307269D-02
111  1.1000000000000D+00 -3.9831503397716D-01  2.3612333794787D-02
112  1.1100000000000D+00 -3.4484430530835D-01 -4.1486030638527D-02
113  1.1200000000000D+00 -2.9114902212492D-01 -1.0533332027143D-01
114  1.1300000000000D+00 -2.3756440583635D-01 -1.6760437948329D-01
115  1.1400000000000D+00 -1.8442331514253D-01 -2.2797885111363D-01
116  1.1500000000000D+00 -1.3205355841544D-01 -2.8614400147132D-01
117  1.1600000000000D+00 -8.0775219362201D-02 -3.4179753477085D-01
118  1.1700000000000D+00 -3.0898022525207D-02 -3.9465036750791D-01
119  1.1800000000000D+00  1.7281234745632D-02 -4.4442933313561D-01
120  1.1900000000000D+00  6.3481157549661D-02 -4.9087978768491D-01
121  1.2000000000000D+00  1.0743811036842D-01 -5.3376808775160D-01
122  1.2100000000000D+00  1.4890843117311D-01 -5.7288391338955D-01
123  1.2200000000000D+00  1.8767047881702D-01 -6.0804240909071D-01
124  1.2300000000000D+00  2.2352649206258D-01 -6.3908611847414D-01
125  1.2400000000000D+00  2.5630424049296D-01 -6.6588669041340D-01
126  1.2500000000000D+00  2.8585844810326D-01 -6.8834633491677D-01
127  1.2600000000000D+00  3.1207197437425D-01 -7.0639901152165D-01
128  1.2700000000000D+00  3.3485673986005D-01 -7.2001133546692D-01
129  1.2800000000000D+00  3.5415438405805D-01 -7.2918318771717D-01
130  1.2900000000000D+00  3.6993664833434D-01 -7.3394802051512D-01
131  1.3000000000000D+00  3.8220547965910D-01 -7.3437285350404D-01
132  1.3100000000000D+00  3.9099285072737D-01 -7.3055795524806D-01
133  1.3200000000000D+00  3.9636029892420D-01 -7.2263621272876D-01
134  1.3300000000000D+00  3.9839818894809D-01 -7.1077219407267D-01
135  1.3400000000000D+00  3.9722470280418D-01 -6.9516090850164D-01
136  1.3500000000000D+00  3.9298457062133D-01 -6.7602627852030D-01
137  1.3600000000000D+00  3.8584755381435D-01 -6.5361933717875D-01
138  1.3700000000000D+00  3.7600669482371D-01 -6.2821616630478D-01
139  1.3800000000000D+00  3.6367635502170D-01 -6.0011559995741D-01
140  1.3900000000000D+00  3.4909005832106D-01 -5.6963671275099D-01
141  1.4000000000000D+00  3.3249816528389D-01 -5.3711612094335D-01
142  1.4100000000000D+00  3.1416540341970D-01 -5.0290512521198D-01
143  1.4200000000000D+00  2.9436827798811D-01 -4.6736672246251D-01
144  1.4300000000000D+00  2.7339239486206D-01 -4.3087252227780D-01
145  1.4400000000000D+00  2.5152972223204D-01 -3.9379959816826D-01
146  1.4500000000000D+00  2.2907582335461D-01 -3.5652730997011D-01
147  1.4600000000000D+00  2.0632709233262D-01 -3.1943413375410D-01
148  1.4700000000000D+00  1.8357801879062D-01 -2.8289452768981D-01
149  1.4800000000000D+00  1.6111853222675D-01 -2.4727589330242D-01
150  1.4900000000000D+00  1.3923133785982D-01 -2.1293552084125D-01
151  1.5000000000000D+00  1.1818930870406D-01 -1.8021759139322D-01
152  1.5100000000000D+00  9.8254453847186D-02 -1.4945212694811D-01
153  1.5200000000000D+00  7.9673595689415D-02 -1.2094983367853D-01
154  1.5300000000000D+00  6.2672533972346D-02 -9.4995034748301D-02
155  1.5400000000000D+00  4.7451077591284D-02 -7.1839736263955D-02
156  1.5500000000000D+00  3.4179604514748D-02 -5.1700231014992D-02
157  1.5600000000000D+00  2.2995197680524D-02 -3.4751636451951D-02
158  1.5700000000000D+00  1.3954841501140D-02 -2.1058085954694D-02
159  1.5800000000000D+00  7.1746045175362D-03 -1.0782028672035D-02
160  1.5900000000000D+00  2.8733189971919D-03 -4.2463062356393D-03
161  1.6000000000000D+00  7.7763082333737D-04 -1.0559266855196D-03
162  1.6100000000000D+00  5.7875789468439D-05  1.7666350264852D-06
163  1.6200000000000D+00 -2.7782257003560D-05  6.4655449104306D-05
164  1.6300000000000D+00  2.4492315706198D-05 -4.9156487733211D-05
165  1.6400000000000D+00  1.4481622945433D-05 -2.7500288543431D-05
166  1.6500000000000D+00 -3.2442318991330D-06  7.5466662169526D-06
167  1.6600000000000D+00 -1.8467501753915D-06  4.0420711526417D-06
168  1.6700000000000D+00 -8.5667590932225D-07  9.9373339749279D-07
169  1.6800000000000D+00 -4.1434648897584D-07  4.8063677260976D-07
170  1.6900000000000D+00  0.0000000000000D+00  0.0000000000000D+00
171  1.7000000000000D+00  0.0000000000000D+00  0.0000000000000D+00
172  1.7100000000000D+00  0.0000000000000D+00  0.0000000000000D+00
173  1.7200000000000D+00  0.0000000000000D+00  0.0000000000000D+00
174  1.7300000000000D+00  0.0000000000000D+00  0.0000000000000D+00
175  1.7400000000000D+00  0.0000000000000D+00  0.0000000000000D+00
176  1.7500000000000D+00  0.0000000000000D+00  0.0000000000000D+00
177  1.7600000000000D+00  0.0000000000000D+00  0.0000000000000D+00
178  1.7700000000000D+00  0.0000000000000D+00  0.0000000000000D+00
179  1.7800000000000D+00  0.0000000000000D+00  0.0000000000000D+00
180  1.7900000000000D+00  0.0000000000000D+00  0.0000000000000D+00
181  1.8000000000000D+00  0.0000000000000D+00  0.0000000000000D+00
182  1.8100000000000D+00  0.0000000000000D+00  0.0000000000000D+00
183  1.8200000000000D+00  0.0000000000000D+00  0.0000000000000D+00
184  1.8300000000000D+00  0.0000000000000D+00  0.0000000000000D+00
185  1.8400000000000D+00  0.0000000000000D+00  0.0000000000000D+00
186  1.8500000000000D+00  0.0000000000000D+00  0.0000000000000D+00
187  1.8600000000000D+00  0.0000000000000D+00  0.0000000000000D+00
188  1.8700000000000D+00  0.0000000000000D+00  0.0000000000000D+00
189  1.8800000000000D+00  0.0000000000000D+00  0.0000000000000D+00
190  1.8900000000000D+00  0.0000000000000D+00  0.0000000000000D+00
191  1.9000000000000D+00  0.0000000000000D+00  0.0000000000000D+00
192  1.9100000000000D+00  0.0000000000000D+00  0.0000000000000D+00
193  1.9200000000000D+00  0.0000000000000D+00  0.0000000000000D+00
194  1.9300000000000D+00  0.0000000000000D+00  0.0000000000000D+00
195  1.9400000000000D+00  0.0000000000000D+00  0.0000000000000D+00
196  1.9500000000000D+00  0.0000000000000D+00  0.0000000000000D+00
197  1.9600000000000D+00  0.0000000000000D+00  0.0000000000000D+00
198  1.9700000000000D+00  0.0000000000000D+00  0.0000000000000D+00
199  1.9800000000000D+00  0.0000000000000D+00  0.0000000000000D+00
200  1.9900000000000D+00  0.0000000000000D+00  0.0000000000000D+00
201  2.0000000000000D+00  0.0000000000000D+00  0.0000000000000D+00
202  2.0100000000000D+00  0.0000000000000D+00  0.0000000000000D+00
203  2.0200000000000D+00  0.0000000000000D+00  0.0000000000000D+00
204  2.0300000000000D+00  0.0000000000000D+00  0.0000000000000D+00
205  2.0400000000000D+00  0.0000000000000D+00  0.0000000000000D+00
206  2.0500000000000D+00  0.0000000000000D+00  0.0000000000000D+00
207  2.0600000000000D+00  0.0000000000000D+00  0.0000000000000D+00
208  2.0700000000000D+00  0.0000000000000D+00  0.0000000000000D+00
209  2.0800000000000D+00  0.0000000000000D+00  0.0000000000000D+00
210  2.0900000000000D+00  0.0000000000000D+00  0.0000000000000D+00
211  2.1000000000000D+00  0.0000000000000D+00  0.0000000000000D+00
212  2.1100000000000D+00  0.0000000000000D+00  0.0000000000000D+00
213  2.1200000000000D+00  0.0000000000000D+00  0.0000000000000D+00
214  2.1300000000000D+00  0.0000000000000D+00  0.0000000000000D+00
215  2.1400000000000D+00  0.0000000000000D+00  0.0000000000000D+00
216  2.1500000000000D+00  0.0000000000000D+00  0.0000000000000D+00
217  2.1600000000000D+00  0.0000000000000D+00  0.0000000000000D+00
218  2.1700000000000D+00  0.0000000000000D+00  0.0000000000000D+00
219  2.1800000000000D+00  0.0000000000000D+00  0.0000000000000D+00
220  2.1900000000000D+00  0.0000000000000D+00  0.0000000000000D+00
221  2.2000000000000D+00  0.0000000000000D+00  0.0000000000000D+00
222  2.2100000000000D+00  0.0000000000000D+00  0.0000000000000D+00
223  2.2200000000000D+00  0.0000000000000D+00  0.0000000000000D+00
224  2.2300000000000D+00  0.0000000000000D+00  0.0000000000000D+00
225  2.2400000000000D+00  0.0000000000000D+00  0.0000000000000D+00
226  2.2500000000000D+00  0.0000000000000D+00  0.0000000000000D+00
227  2.2600000000000D+00  0.0000000000000D+00  0.0000000000000D+00
228  2.2700000000000D+00  0.0000000000000D+00  0.0000000000000D+00
229  2.2800000000000D+00  0.0000000000000D+00  0.0000000000000D+00
230  2.2900000000000D+00  0.0000000000000D+00  0.0000000000000D+00
231  2.3000000000000D+00  0.0000000000000D+00  0.0000000000000D+00
232  2.3100000000000D+00  0.0000000000000D+00  0.0000000000000D+00
233  2.3200000000000D+00  0.0000000000000D+00  0.0000000000000D+00
234  2.3300000000000D+00  0.0000000000000D+00  0.0000000000000D+00
235  2.3400000000000D+00  0.0000000000000D+00  0.0000000000000D+00
236  2.3500000000000D+00  0.0000000000000D+00  0.0000000000000D+00
237  2.3600000000000D+00  0.0000000000000D+00  0.0000000000000D+00
238  2.3700000000000D+00  0.0000000000000D+00  0.0000000000000D+00
239  2.3800000000000D+00  0.0000000000000D+00  0.0000000000000D+00
240  2.3900000000000D+00  0.0000000000000D+00  0.0000000000000D+00
241  2.4000000000000D+00  0.0000000000000D+00  0.0000000000000D+00
242  2.4100000000000D+00  0.0000000000000D+00  0.0000000000000D+00
243  2.4200000000000D+00  0.0000000000000D+00  0.0000000000000D+00
244  2.4300000000000D+00  0.0000000000000D+00  0.0000000000000D+00
245  2.4400000000000D+00  0.0000000000000D+00  0.0000000000000D+00
246  2.4500000000000D+00  0.0000000000000D+00  0.0000000000000D+00
247  2.4600000000000D+00  0.0000000000000D+00  0.0000000000000D+00
248  2.4700000000000D+00  0.0000000000000D+00  0.0000000000000D+00
249  2.4800000000000D+00  0.0000000000000D+00  0.0000000000000D+00
250  2.4900000000000D+00  0.0000000000000D+00  0.0000000000000D+00
251  2.5000000000000D+00  0.0000000000000D+00  0.0000000000000D+00
252  2.5100000000000D+00  0.0000000000000D+00  0.0000000000000D+00
253  2.5200000000000D+00  0.0000000000000D+00  0.0000000000000D+00
254  2.5300000000000D+00  0.0000000000000D+00  0.0000000000000D+00
255  2.5400000000000D+00  0.0000000000000D+00  0.0000000000000D+00
256  2.5500000000000D+00  0.0000000000000D+00  0.0000000000000D+00
257  2.5600000000000D+00  0.0000000000000D+00  0.0000000000000D+00
258  2.5700000000000D+00  0.0000000000000D+00  0.0000000000000D+00
259  2.5800000000000D+00  0.0000000000000D+00  0.0000000000000D+00
260  2.5900000000000D+00  0.0000000000000D+00  0.0000000000000D+00
261  2.6000000000000D+00  0.0000000000000D+00  0.0000000000000D+00
262  2.6100000000000D+00  0.0000000000000D+00  0.0000000000000D+00
263  2.6200000000000D+00  0.0000000000000D+00  0.0000000000000D+00
264  2.6300000000000D+00  0.0000000000000D+00  0.0000000000000D+00
265  2.6400000000000D+00  0.0000000000000D+00  0.0000000000000D+00
266  2.6500000000000D+00  0.0000000000000D+00  0.0000000000000D+00
267  2.6600000000000D+00  0.0000000000000D+00  0.0000000000000D+00
268  2.6700000000000D+00  0.0000000000000D+00  0.0000000000000D+00
269  2.6800000000000D+00  0.0000000000000D+00  0.0000000000000D+00
270  2.6900000000000D+00  0.0000000000000D+00  0.0000000000000D+00
271  2.7000000000000D+00  0.0000000000000D+00  0.0000000000000D+00
272  2.7100000000000D+00  0.0000000000000D+00  0.0000000000000D+00
273  2.7200000000000D+00  0.0000000000000D+00  0.0000000000000D+00
274  2.7300000000000D+00  0.0000000000000D+00  0.0000000000000D+00
275  2.7400000000000D+00  0.0000000000000D+00  0.0000000000000D+00
276  2.7500000000000D+00  0.0000000000000D+00  0.0000000000000D+00
277  2.7600000000000D+00  0.0000000000000D+00  0.0000000000000D+00
278  2.7700000000000D+00  0.0000000000000D+00  0.0000000000000D+00
279  2.7800000000000D+00  0.0000000000000D+00  0.0000000000000D+00
280  2.7900000000000D+00  0.0000000000000D+00  0.0000000000000D+00
281  2.8000000000000D+00  0.0000000000000D+00  0.0000000000000D+00
282  2.8100000000000D+00  0.0000000000000D+00  0.0000000000000D+00
283  2.8200000000000D+00  0.0000000000000D+00  0.0000000000000D+00
284  2.8300000000000D+00  0.0000000000000D+00  0.0000000000000D+00
285  2.8400000000000D+00  0.0000000000000D+00  0.0000000000000D+00
286  2.8500000000000D+00  0.0000000000000D+00  0.0000000000000D+00
287  2.8600000000000D+00  0.0000000000000D+00  0.0000000000000D+00
288  2.8700000000000D+00  0.0000000000000D+00  0.0000000000000D+00
289  2.8800000000000D+00  0.0000000000000D+00  0.0000000000000D+00
290  2.8900000000000D+00  0.0000000000000D+00  0.0000000000000D+00
291  2.9000000000000D+00  0.0000000000000D+00  0.0000000000000D+00
292  2.9100000000000D+00  0.0000000000000D+00  0.0000000000000D+00
293  2.9200000000000D+00  0.0000000000000D+00  0.0000000000000D+00
294  2.9300000000000D+00  0.0000000000000D+00  0.0000000000000D+00
295  2.9400000000000D+00  0.0000000000000D+00  0.0000000000000D+00
296  2.9500000000000D+00  0.0000000000000D+00  0.0000000000000D+00
297  2.9600000000000D+00  0.0000000000000D+00  0.0000000000000D+00
298  2.9700000000000D+00  0.0000000000000D+00  0.0000000000000D+00
299  2.9800000000000D+00  0.0000000000000D+00  0.0000000000000D+00
300  2.9900000000000D+00  0.0000000000000D+00  0.0000000000000D+00
301  3.0000000000000D+00  0.0000000000000D+00  0.0000000000000D+00
302  3.0100000000000D+00  0.0000000000000D+00  0.0000000000000D+00
303  3.0200000000000D+00  0.0000000000000D+00  0.0000000000000D+00
304  3.0300000000000D+00  0.0000000000000D+00  0.0000000000000D+00
305  3.0400000000000D+00  0.0000000000000D+00  0.0000000000000D+00
306  3.0500000000000D+00  0.0000000000000D+00  0.0000000000000D+00
307  3.0600000000000D+00  0.0000000000000D+00  0.0000000000000D+00
308  3.0700000000000D+00  0.0000000000000D+00  0.0000000000000D+00
309  3.0800000000000D+00  0.0000000000000D+00  0.0000000000000D+00
310  3.0900000000000D+00  0.0000000000000D+00  0.0000000000000D+00
311  3.1000000000000D+00  0.0000000000000D+00  0.0000000000000D+00
312  3.1100000000000D+00  0.0000000000000D+00  0.0000000000000D+00
313  3.1200000000000D+00  0.0000000000000D+00  0.0000000000000D+00
314  3.1300000000000D+00  0.0000000000000D+00  0.0000000000000D+00
315  3.1400000000000D+00  0.0000000000000D+00  0.0000000000000D+00
316  3.1500000000000D+00  0.0000000000000D+00  0.0000000000000D+00
317  3.1600000000000D+00  0.0000000000000D+00  0.0000000000000D+00
318  3.1700000000000D+00  0.0000000000000D+00  0.0000000000000D+00
319  3.1800000000000D+00  0.0000000000000D+00  0.0000000000000D+00
320  3.1900000000000D+00  0.0000000000000D+00  0.0000000000000D+00
321  3.2000000000000D+00  0.0000000000000D+00  0.0000000000000D+00
322  3.2100000000000D+00  0.0000000000000D+00  0.0000000000000D+00
323  3.2200000000000D+00  0.0000000000000D+00  0.0000000000000D+00
324  3.2300000000000D+00  0.0000000000000D+00  0.0000000000000D+00
325  3.2400000000000D+00  0.0000000000000D+00  0.0000000000000D+00
326  3.2500000000000D+00  0.0000000000000D+00  0.0000000000000D+00
327  3.2600000000000D+00  0.0000000000000D+00  0.0000000000000D+00
328  3.2700000000000D+00  0.0000000000000D+00  0.0000000000000D+00
329  3.2800000000000D+00  0.0000000000000D+00  0.0000000000000D+00
330  3.2900000000000D+00  0.0000000000000D+00  0.0000000000000D+00
331  3.3000000000000D+00  0.0000000000000D+00  0.0000000000000D+00
332  3.3100000000000D+00  0.0000000000000D+00  0.0000000000000D+00
333  3.3200000000000D+00  0.0000000000000D+00  0.0000000000000D+00
334  3.3300000000000D+00  0.0000000000000D+00  0.0000000000000D+00
335  3.3400000000000D+00  0.0000000000000D+00  0.0000000000000D+00
336  3.3500000000000D+00  0.0000000000000D+00  0.0000000000000D+00
337  3.3600000000000D+00  0.0000000000000D+00  0.0000000000000D+00
338  3.3700000000000D+00  0.0000000000000D+00  0.0000000000000D+00
339  3.3800000000000D+00  0.0000000000000D+00  0.0000000000000D+00
340  3.3900000000000D+00  0.0000000000000D+00  0.0000000000000D+00
341  3.4000000000000D+00  0.0000000000000D+00  0.0000000000000D+00
342  3.4100000000000D+00  0.0000000000000D+00  0.0000000000000D+00
343  3.4200000000000D+00  0.0000000000000D+00  0.0000000000000D+00
344  3.4300000000000D+00  0.0000000000000D+00  0.0000000000000D+00
345  3.4400000000000D+00  0.0000000000000D+00  0.0000000000000D+00
346  3.4500000000000D+00  0.0000000000000D+00  0.0000000000000D+00
347  3.4600000000000D+00  0.0000000000000D+00  0.0000000000000D+00
348  3.4700000000000D+00  0.0000000000000D+00  0.0000000000000D+00
349  3.4800000000000D+00  0.0000000000000D+00  0.0000000000000D+00
350  3.4900000000000D+00  0.0000000000000D+00  0.0000000000000D+00
351  3.5000000000000D+00  0.0000000000000D+00  0.0000000000000D+00
352  3.5100000000000D+00  0.0000000000000D+00  0.0000000000000D+00
353  3.5200000000000D+00  0.0000000000000D+00  0.0000000000000D+00
354  3.5300000000000D+00  0.0000000000000D+00  0.0000000000000D+00
355  3.5400000000000D+00  0.0000000000000D+00  0.0000000000000D+00
356  3.5500000000000D+00  0.0000000000000D+00  0.0000000000000D+00
357  3.5600000000000D+00  0.0000000000000D+00  0.0000000000000D+00
358  3.5700000000000D+00  0.0000000000000D+00  0.0000000000000D+00
359  3.5800000000000D+00  0.0000000000000D+00  0.0000000000000D+00
360  3.5900000000000D+00  0.0000000000000D+00  0.0000000000000D+00
361  3.6000000000000D+00  0.0000000000000D+00  0.0000000000000D+00
362  3.6100000000000D+00  0.0000000000000D+00  0.0000000000000D+00
363  3.6200000000000D+00  0.0000000000000D+00  0.0000000000000D+00
364  3.6300000000000D+00  0.0000000000000D+00  0.0000000000000D+00
365  3.6400000000000D+00  0.0000000000000D+00  0.0000000000000D+00
366  3.6500000000000D+00  0.0000000000000D+00  0.0000000000000D+00
367  3.6600000000000D+00  0.0000000000000D+00  0.0000000000000D+00
368  3.6700000000000D+00  0.0000000000000D+00  0.0000000000000D+00
369  3.6800000000000D+00  0.0000000000000D+00  0.0000000000000D+00
370  3.6900000000000D+00  0.0000000000000D+00  0.0000000000000D+00
371  3.7000000000000D+00  0.0000000000000D+00  0.0000000000000D+00
372  3.7100000000000D+00  0.0000000000000D+00  0.0000000000000D+00
373  3.7200000000000D+00  0.0000000000000D+00  0.0000000000000D+00
374  3.7300000000000D+00  0.0000000000000D+00  0.0000000000000D+00
375  3.7400000000000D+00  0.0000000000000D+00  0.0000000000000D+00
376  3.7500000000000D+00  0.0000000000000D+00  0.0000000000000D+00
377  3.7600000000000D+00  0.0000000000000D+00  0.0000000000000D+00
378  3.7700000000000D+00  0.0000000000000D+00  0.0000000000000D+00
379  3.7800000000000D+00  0.0000000000000D+00  0.0000000000000D+00
380  3.7900000000000D+00  0.0000000000000D+00  0.0000000000000D+00
381  3.8000000000000D+00  0.0000000000000D+00  0.0000000000000D+00
382  3.8100000000000D+00  0.0000000000000D+00  0.0000000000000D+00
383  3.8200000000000D+00  0.0000000000000D+00  0.0000000000000D+00
384  3.8300000000000D+00  0.0000000000000D+00  0.0000000000000D+00
385  3.8400000000000D+00  0.0000000000000D+00  0.0000000000000D+00
386  3.8500000000000D+00  0.0000000000000D+00  0.0000000000000D+00
387  3.8600000000000D+00  0.0000000000000D+00  0.0000000000000D+00
388  3.8700000000000D+00  0.0000000000000D+00  0.0000000000000D+00
389  3.8800000000000D+00  0.0000000000000D+00  0.0000000000000D+00
390  3.8900000000000D+00  0.0000000000000D+00  0.0000000000000D+00
391  3.9000000000000D+00  0.0000000000000D+00  0.0000000000000D+00
392  3.9100000000000D+00  0.0000000000000D+00  0.0000000000000D+00
393  3.9200000000000D+00  0.0000000000000D+00  0.0000000000000D+00
394  3.9300000000000D+00  0.0000000000000D+00  0.0000000000000D+00
395  3.9400000000000D+00  0.0000000000000D+00  0.0000000000000D+00
396  3.9500000000000D+00  0.0000000000000D+00  0.0000000000000D+00
397  3.9600000000000D+00  0.0000000000000D+00  0.0000000000000D+00
398  3.9700000000000D+00  0.0000000000000D+00  0.0000000000000D+00
399  3.9800000000000D+00  0.0000000000000D+00  0.0000000000000D+00
400  3.9900000000000D+00  0.0000000000000D+00  0.0000000000000D+00
401  4.0000000000000D+00  0.0000000000000D+00  0.0000000000000D+00
402  4.0100000000000D+00  0.0000000000000D+00  0.0000000000000D+00
403  4.0200000000000D+00  0.0000000000000D+00  0.0000000000000D+00
404  4.0300000000000D+00  0.0000000000000D+00  0.0000000000000D+00
405  4.0400000000000D+00  0.0000000000000D+00  0.0000000000000D+00
406  4.0500000000000D+00  0.0000000000000D+00  0.0000000000000D+00
407  4.0600000000000D+00  0.0000000000000D+00  0.0000000000000D+00
408  4.0700000000000D+00  0.0000000000000D+00  0.0000000000000D+00
409  4.0800000000000D+00  0.0000000000000D+00  0.0000000000000D+00
410  4.0900000000000D+00  0.0000000000000D+00  0.0000000000000D+00
411  4.1000000000000D+00  0.0000000000000D+00  0.0000000000000D+00
412  4.1100000000000D+00  0.0000000000000D+00  0.0000000000000D+00
413  4.1200000000000D+00  0.0000000000000D+00  0.0000000000000D+00
414  4.1300000000000D+00  0.0000000000000D+00  0.0000000000000D+00
415  4.1400000000000D+00  0.0000000000000D+00  0.0000000000000D+00
416  4.1500000000000D+00  0.0000000000000D+00  0.0000000000000D+00
417  4.1600000000000D+00  0.0000000000000D+00  0.0000000000000D+00
418  4.1700000000000D+00  0.0000000000000D+00  0.0000000000000D+00
419  4.1800000000000D+00  0.0000000000000D+00  0.0000000000000D+00
420  4.1900000000000D+00  0.0000000000000D+00  0.0000000000000D+00
421  4.2000000000000D+00  0.0000000000000D+00  0.0000000000000D+00
422  4.2100000000000D+00  0.0000000000000D+00  0.0000000000000D+00
423  4.2200000000000D+00  0.0000000000000D+00  0.0000000000000D+00
424  4.2300000000000D+00  0.0000000000000D+00  0.0000000000000D+00
425  4.2400000000000D+00  0.0000000000000D+00  0.0000000000000D+00
426  4.2500000000000D+00  0.0000000000000D+00  0.0000000000000D+00
427  4.2600000000000D+00  0.0000000000000D+00  0.0000000000000D+00
428  4.2700000000000D+00  0.0000000000000D+00  0.0000000000000D+00
429  4.2800000000000D+00  0.0000000000000D+00  0.0000000000000D+00
430  4.2900000000000D+00  0.0000000000000D+00  0.0000000000000D+00
431  4.3000000000000D+00  0.0000000000000D+00  0.0000000000000D+00
432  4.3100000000000D+00  0.0000000000000D+00  0.0000000000000D+00
433  4.3200000000000D+00  0.0000000000000D+00  0.0000000000000D+00
434  4.3300000000000D+00  0.0000000000000D+00  0.0000000000000D+00
435  4.3400000000000D+00  0.0000000000000D+00  0.0000000000000D+00
436  4.3500000000000D+00  0.0000000000000D+00  0.0000000000000D+00
437  4.3600000000000D+00  0.0000000000000D+00  0.0000000000000D+00
438  4.3700000000000D+00  0.0000000000000D+00  0.0000000000000D+00
439  4.3800000000000D+00  0.0000000000000D+00  0.0000000000000D+00
440  4.3900000000000D+00  0.0000000000000D+00  0.0000000000000D+00
441  4.4000000000000D+00  0.0000000000000D+00  0.0000000000000D+00
442  4.4100000000000D+00  0.0000000000000D+00  0.0000000000000D+00
443  4.4200000000000D+00  0.0000000000000D+00  0.0000000000000D+00