Ta    ONCVPSP-3.3.0  r_core=   2.30810   1.86211   2.07314   1.61376
73.0000     27.0000      180112    zatom,zion,pspd
8 -116133   3     4   600     0    pspcod,pspxc,lmax,lloc,mmax,r2well
5.99000000  5.00000000  0.00000000    rchrg fchrg qchrg
2     2     2     2     0    nproj
1     1           extension_switch
0                         4.5435331445963D+00  9.1441738941685D-01
1  0.0000000000000D+00  4.8394621643411D-13 -3.4811424576286D-12
2  1.0000000000000D-02  4.5679983489277D-02 -1.6140432417145D-03
3  2.0000000000000D-02  9.1308903979894D-02 -3.2184918735006D-03
4  3.0000000000000D-02  1.3683575406817D-01 -4.8037199674157D-03
5  4.0000000000000D-02  1.8220963751806D-01 -6.3600391985673D-03
6  5.0000000000000D-02  2.2737982478904D-01 -7.8776682434655D-03
7  6.0000000000000D-02  2.7229580849658D-01 -9.3467028921206D-03
8  7.0000000000000D-02  3.1690735878210D-01 -1.0757087107724D-02
9  8.0000000000000D-02  3.6116457856888D-01 -1.2098585264268D-02
10  9.0000000000000D-02  4.0501795867992D-01 -1.3360755788107D-02
11  1.0000000000000D-01  4.4841843279270D-01 -1.4532926424273D-02
12  1.1000000000000D-01  4.9131743220525D-01 -1.5604171342274D-02
13  1.2000000000000D-01  5.3366694038687D-01 -1.6563290289255D-02
14  1.3000000000000D-01  5.7541954728576D-01 -1.7398789990632D-02
15  1.4000000000000D-01  6.1652850336444D-01 -1.8098867989826D-02
16  1.5000000000000D-01  6.5694777333297D-01 -1.8651399109319D-02
17  1.6000000000000D-01  6.9663208954802D-01 -1.9043924705199D-02
18  1.7000000000000D-01  7.3553700504459D-01 -1.9263644876410D-02
19  1.8000000000000D-01  7.7361894616553D-01 -1.9297413778283D-02
20  1.9000000000000D-01  8.1083526475202D-01 -1.9131738177609D-02
21  2.0000000000000D-01  8.4714428985654D-01 -1.8752779373363D-02
22  2.1000000000000D-01  8.8250537893766D-01 -1.8146358593500D-02
23  2.2000000000000D-01  9.1687896849412D-01 -1.7297965963825D-02
24  2.3000000000000D-01  9.5022662409316D-01 -1.6192773129918D-02
25  2.4000000000000D-01  9.8251108974629D-01 -1.4815649597589D-02
26  2.5000000000000D-01  1.0136963365828D+00 -1.3151182841058D-02
27  2.6000000000000D-01  1.0437476107691D+00 -1.1183702211629D-02
28  2.7000000000000D-01  1.0726314806204D+00 -8.8973066623689D-03
29  2.8000000000000D-01  1.1003158828459D+00 -6.2758962869120D-03
30  2.9000000000000D-01  1.1267701678709D+00 -3.3032076526761D-03
31  3.0000000000000D-01  1.1519651441707D+00  3.7147109513906D-05
32  3.1000000000000D-01  1.1758731215542D+00  3.7616375155685D-03
33  3.2000000000000D-01  1.1984679533282D+00  7.8867683131001D-03
34  3.3000000000000D-01  1.2197250772735D+00  1.2429029534728D-02
35  3.4000000000000D-01  1.2396215553591D+00  1.7404843132214D-02
36  3.5000000000000D-01  1.2581361121212D+00  2.2830506322622D-02
37  3.6000000000000D-01  1.2752491716274D+00  2.8722131796452D-02
38  3.7000000000000D-01  1.2909428929477D+00  3.5095584956186D-02
39  3.8000000000000D-01  1.3052012040495D+00  4.1966418372198D-02
40  3.9000000000000D-01  1.3180098340311D+00  4.9349803660823D-02
41  4.0000000000000D-01  1.3293563436094D+00  5.7260461007250D-02
42  4.1000000000000D-01  1.3392301537711D+00  6.5712586572970D-02
43  4.2000000000000D-01  1.3476225724985D+00  7.4719778044310D-02
44  4.3000000000000D-01  1.3545268194781D+00  8.4294958594575D-02
45  4.4000000000000D-01  1.3599380486990D+00  9.4450299547699D-02
46  4.5000000000000D-01  1.3638533688471D+00  1.0519714204593D-01
47  4.6000000000000D-01  1.3662718614005D+00  1.1654591803762D-01
48  4.7000000000000D-01  1.3671945963317D+00  1.2850607091425D-01
49  4.8000000000000D-01  1.3666246453202D+00  1.4108597613712D-01
50  4.9000000000000D-01  1.3645670923818D+00  1.5429286220521D-01
51  5.0000000000000D-01  1.3610290418193D+00  1.6813273232466D-01
52  5.1000000000000D-01  1.3560196234029D+00  1.8261028714899D-01
53  5.2000000000000D-01  1.3495499946858D+00  1.9772884896543D-01
54  5.3000000000000D-01  1.3416333403680D+00  2.1349028770868D-01
55  5.4000000000000D-01  1.3322848686184D+00  2.2989494918689D-01
56  5.5000000000000D-01  1.3215218042713D+00  2.4694158590747D-01
57  5.6000000000000D-01  1.3093633788152D+00  2.6462729089072D-01
58  5.7000000000000D-01  1.2958308170965D+00  2.8294743485887D-01
59  5.8000000000000D-01  1.2809473206639D+00  3.0189560718522D-01
60  5.9000000000000D-01  1.2647380476845D+00  3.2146356098414D-01
61  6.0000000000000D-01  1.2472300893689D+00  3.4164116271633D-01
62  6.1000000000000D-01  1.2284524428465D+00  3.6241634667644D-01
63  6.2000000000000D-01  1.2084359804403D+00  3.8377507472003D-01
64  6.3000000000000D-01  1.1872134152965D+00  4.0570130157575D-01
65  6.4000000000000D-01  1.1648192633317D+00  4.2817694607539D-01
66  6.5000000000000D-01  1.1412898014684D+00  4.5118186861932D-01
67  6.6000000000000D-01  1.1166630221392D+00  4.7469385517792D-01
68  6.7000000000000D-01  1.0909785840465D+00  4.9868860811134D-01
69  6.8000000000000D-01  1.0642777591763D+00  5.2313974406911D-01
70  6.9000000000000D-01  1.0366033760740D+00  5.4801879920943D-01
71  7.0000000000000D-01  1.0079997593992D+00  5.7329524195418D-01
72  7.1000000000000D-01  9.7851266578978D-01  5.9893649347024D-01
73  7.2000000000000D-01  9.4818921607383D-01  6.2490795604113D-01
74  7.3000000000000D-01  9.1707782388179D-01  6.5117304946455D-01
75  7.4000000000000D-01  8.8522812072206D-01  6.7769325558189D-01
76  7.5000000000000D-01  8.5269087759556D-01  7.0442817101478D-01
77  7.6000000000000D-01  8.1951792323727D-01  7.3133556815191D-01
78  7.7000000000000D-01  7.8576205908530D-01  7.5837146439597D-01
79  7.8000000000000D-01  7.5147697109095D-01  7.8549019964692D-01
80  7.9000000000000D-01  7.1671713849597D-01  8.1264452196268D-01
81  8.0000000000000D-01  6.8153773971625D-01  8.3978568130299D-01
82  8.1000000000000D-01  6.4599455548410D-01  8.6686353122635D-01
83  8.2000000000000D-01  6.1014386941424D-01  8.9382663837321D-01
84  8.3000000000000D-01  5.7404236617144D-01  9.2062239953253D-01
85  8.4000000000000D-01  5.3774702743024D-01  9.4719716605161D-01
86  8.5000000000000D-01  5.0131502582976D-01  9.7349637531322D-01
87  8.6000000000000D-01  4.6480361713877D-01  9.9946468896707D-01
88  8.7000000000000D-01  4.2827003085779D-01  1.0250461375676D+00
89  8.8000000000000D-01  3.9177135949660D-01  1.0501842712340D+00
90  8.9000000000000D-01  3.5536444677619D-01  1.0748223159153D+00
91  9.0000000000000D-01  3.1910577501488D-01  1.0989033348075D+00
92  9.1000000000000D-01  2.8305135196783D-01  1.1223703944410D+00
93  9.2000000000000D-01  2.4725659739848D-01  1.1451667349208D+00
94  9.3000000000000D-01  2.1177622966869D-01  1.1672359437778D+00
95  9.4000000000000D-01  1.7666415264232D-01  1.1885221328565D+00
96  9.5000000000000D-01  1.4197334320339D-01  1.2089701176409D+00
97  9.6000000000000D-01  1.0775573969620D-01  1.2285255983975D+00
98  9.7000000000000D-01  7.4062131599681D-02  1.2471353424874D+00
99  9.8000000000000D-01  4.0942050752358D-02  1.2647473671851D+00
100  9.9000000000000D-01  8.4436644471007D-03  1.2813111223203D+00
101  1.0000000000000D+00 -2.3386329282946D-02  1.2967776720455D+00
102  1.0100000000000D+00 -5.4502803865283D-02  1.3110998750197D+00
103  1.0200000000000D+00 -8.4862303553992D-02  1.3242325622879D+00
104  1.0300000000000D+00 -1.1442313964036D-01  1.3361327121309D+00
105  1.0400000000000D+00 -1.4314548319058D-01  1.3467596211539D+00
106  1.0500000000000D+00 -1.7099145399667D-01  1.3560750708826D+00
107  1.0600000000000D+00 -1.9792520543196D-01  1.3640434891375D+00
108  1.0700000000000D+00 -2.2391300490892D-01  1.3706321054622D+00
109  1.0800000000000D+00 -2.4892330964392D-01  1.3758110998880D+00
110  1.0900000000000D+00 -2.7292683744343D-01  1.3795537443309D+00
111  1.1000000000000D+00 -2.9589663223507D-01  1.3818365359303D+00
112  1.1100000000000D+00 -3.1780812407929D-01  1.3826393216553D+00
113  1.1200000000000D+00 -3.3863918340849D-01  1.3819454135279D+00
114  1.1300000000000D+00 -3.5837016925454D-01  1.3797416938316D+00
115  1.1400000000000D+00 -3.7698397124060D-01  1.3760187097037D+00
116  1.1500000000000D+00 -3.9446604512946D-01  1.3707707565417D+00
117  1.1600000000000D+00 -4.1080444173535D-01  1.3639959496791D+00
118  1.1700000000000D+00 -4.2598982902518D-01  1.3556962838255D+00
119  1.1800000000000D+00 -4.4001550725431D-01  1.3458776798039D+00
120  1.1900000000000D+00 -4.5287741700361D-01  1.3345500181627D+00
121  1.2000000000000D+00 -4.6457413999704D-01  1.3217271592654D+00
122  1.2100000000000D+00 -4.7510689260945D-01  1.3074269495246D+00
123  1.2200000000000D+00 -4.8447951199302D-01  1.2916712134885D+00
124  1.2300000000000D+00 -4.9269843477044D-01  1.2744857315287D+00
125  1.2400000000000D+00 -4.9977266826559D-01  1.2559002029292D+00
126  1.2500000000000D+00 -5.0571375427285D-01  1.2359481942419D+00
127  1.2600000000000D+00 -5.1053572538446D-01  1.2146670728153D+00
128  1.2700000000000D+00 -5.1425505391141D-01  1.1920979254393D+00
129  1.2800000000000D+00 -5.1689059347610D-01  1.1682854621457D+00
130  1.2900000000000D+00 -5.1846351336615D-01  1.1432779052274D+00
131  1.3000000000000D+00 -5.1899722575434D-01  1.1171268635794D+00
132  1.3100000000000D+00 -5.1851730593928D-01  1.0898871925735D+00
133  1.3200000000000D+00 -5.1705140576223D-01  1.0616168396872D+00
134  1.3300000000000D+00 -5.1462916037807D-01  1.0323766761537D+00
135  1.3400000000000D+00 -5.1128208860693D-01  1.0022303150196D+00
136  1.3500000000000D+00 -5.0704348708041D-01  9.7124391596406D-01
137  1.3600000000000D+00 -5.0194831843648D-01  9.3948597733088D-01
138  1.3700000000000D+00 -4.9603309385192D-01  9.0702711590732D-01
139  1.3800000000000D+00 -4.8933575017495D-01  8.7393983492228D-01
140  1.3900000000000D+00 -4.8189552199485D-01  8.4029828091509D-01
141  1.4000000000000D+00 -4.7375280896772D-01  8.0617799008637D-01
142  1.4100000000000D+00 -4.6494903873145D-01  7.7165562477325D-01
143  1.4200000000000D+00 -4.5552652579571D-01  7.3680870082828D-01
144  1.4300000000000D+00 -4.4552832675186D-01  7.0171530657461D-01
145  1.4400000000000D+00 -4.3499809221126D-01  6.6645381417498D-01
146  1.4500000000000D+00 -4.2397991586158D-01  6.3110258420585D-01
147  1.4600000000000D+00 -4.1251818104274D-01  5.9573966425436D-01
148  1.4700000000000D+00 -4.0065740527383D-01  5.6044248244734D-01
149  1.4800000000000D+00 -3.8844208313363D-01  5.2528753673071D-01
150  1.4900000000000D+00 -3.7591652794007D-01  4.9035008085250D-01
151  1.5000000000000D+00 -3.6312471264529D-01  4.5570380791475D-01
152  1.5100000000000D+00 -3.5011011038931D-01  4.2142053243884D-01
153  1.5200000000000D+00 -3.3691553513254D-01  3.8756987184187D-01
154  1.5300000000000D+00 -3.2358298281558D-01  3.5421892827424D-01
155  1.5400000000000D+00 -3.1015347344465D-01  3.2143197169002D-01
156  1.5500000000000D+00 -2.9666689456552D-01  2.8927012512891D-01
157  1.5600000000000D+00 -2.8316184589958D-01  2.5779105093557D-01
158  1.5700000000000D+00 -2.6967548857007D-01  2.2704864936695D-01
159  1.5800000000000D+00 -2.5624338935332D-01  1.9709273621832D-01
160  1.5900000000000D+00 -2.4289938983718D-01  1.6796879955263D-01
161  1.6000000000000D+00 -2.2967547535160D-01  1.3971775689937D-01
162  1.6100000000000D+00 -2.1660150479806D-01  1.1237521245014D-01
163  1.6200000000000D+00 -2.0370524402461D-01  8.5971773662225D-02
164  1.6300000000000D+00 -1.9101260414423D-01  6.0534108834111D-02
165  1.6400000000000D+00 -1.7854783205903D-01  3.6085723267162D-02
166  1.6500000000000D+00 -1.6633384867332D-01  1.2648192950480D-02
167  1.6600000000000D+00 -1.5439226510848D-01 -9.7587507355750D-03
168  1.6700000000000D+00 -1.4274324947032D-01 -3.1117706643067D-02
169  1.6800000000000D+00 -1.3140553600557D-01 -5.1413565739199D-02
170  1.6900000000000D+00 -1.2039640681994D-01 -7.0633576776269D-02
171  1.7000000000000D+00 -1.0973167383736D-01 -8.8767418661311D-02
172  1.7100000000000D+00 -9.9425668352599D-02 -1.0580724919002D-01
173  1.7200000000000D+00 -8.9491232496494D-02 -1.2174775183774D-01
174  1.7300000000000D+00 -7.9939715275437D-02 -1.3658617075019D-01
175  1.7400000000000D+00 -7.0780972811366D-02 -1.5032233550588D-01
176  1.7500000000000D+00 -6.2023372619036D-02 -1.6295867607346D-01
177  1.7600000000000D+00 -5.3673802035542D-02 -1.7450022767867D-01
178  1.7700000000000D+00 -4.5737680688463D-02 -1.8495462583037D-01
179  1.7800000000000D+00 -3.8218977052970D-02 -1.9433209136968D-01
180  1.7900000000000D+00 -3.1120229000558D-02 -2.0264540576215D-01
181  1.8000000000000D+00 -2.4442568291310D-02 -2.0990987673410D-01
182  1.8100000000000D+00 -1.8185748967244D-02 -2.1614329434005D-01
183  1.8200000000000D+00 -1.2348179475649D-02 -2.2136587785775D-01
184  1.8300000000000D+00 -6.9269585578754D-03 -2.2560021341081D-01
185  1.8400000000000D+00 -1.9179145928352D-03 -2.2887118305081D-01
186  1.8500000000000D+00  2.6843514786951D-03 -2.3120588498124D-01
187  1.8600000000000D+00  6.8864200950943D-03 -2.3263354598061D-01
188  1.8700000000000D+00  1.0696003695319D-02 -2.3318542556482D-01
189  1.8800000000000D+00  1.4121894505889D-02 -2.3289471304135D-01
190  1.8900000000000D+00  1.7173909397765D-02 -2.3179641720827D-01
191  1.9000000000000D+00  1.9862832183304D-02 -2.2992724957580D-01
192  1.9100000000000D+00  2.2200353438763D-02 -2.2732550129854D-01
193  1.9200000000000D+00  2.4199008072451D-02 -2.2403091433437D-01
194  1.9300000000000D+00  2.5872110895893D-02 -2.2008454743567D-01
195  1.9400000000000D+00  2.7233690294213D-02 -2.1552863718395D-01
196  1.9500000000000D+00  2.8298420370721D-02 -2.1040645496860D-01
197  1.9600000000000D+00  2.9081551615226D-02 -2.0476215999590D-01
198  1.9700000000000D+00  2.9598840467989D-02 -1.9864064923262D-01
199  1.9800000000000D+00  2.9866477915324D-02 -1.9208740457801D-01
200  1.9900000000000D+00  2.9901017383292D-02 -1.8514833790687D-01
201  2.0000000000000D+00  2.9719302164643D-02 -1.7786963453671D-01
202  2.0100000000000D+00  2.9338392600576D-02 -1.7029759562697D-01
203  2.0200000000000D+00  2.8775493243891D-02 -1.6247848007851D-01
204  2.0300000000000D+00  2.8047880279247D-02 -1.5445834654204D-01
205  2.0400000000000D+00  2.7172829363373D-02 -1.4628289596636D-01
206  2.0500000000000D+00  2.6167544183230D-02 -1.3799731536383D-01
207  2.0600000000000D+00  2.5049085938336D-02 -1.2964612329197D-01
208  2.0700000000000D+00  2.3834303905765D-02 -1.2127301744805D-01
209  2.0800000000000D+00  2.2539767481347D-02 -1.1292072527540D-01
210  2.0900000000000D+00  2.1181699670102D-02 -1.0463085756894D-01
211  2.1000000000000D+00  1.9775912478584D-02 -9.6443766120641D-02
212  2.1100000000000D+00  1.8337744283509D-02 -8.8398405606464D-02
213  2.1200000000000D+00  1.6881999310940D-02 -8.0532200047135D-02
214  2.1300000000000D+00  1.5422889713259D-02 -7.2880914979713D-02
215  2.1400000000000D+00  1.3973979991377D-02 -6.5478534783326D-02
216  2.1500000000000D+00  1.2548134367389D-02 -5.8357146577471D-02
217  2.1600000000000D+00  1.1157467073336D-02 -5.1546830631981D-02
218  2.1700000000000D+00  9.8132955411934D-03 -4.5075557267841D-02
219  2.1800000000000D+00  8.5260972063133D-03 -3.8969091936399D-02
220  2.1900000000000D+00  7.3054693505754D-03 -3.3250907137006D-02
221  2.2000000000000D+00  6.1600926566762D-03 -2.7942102772560D-02
222  2.2100000000000D+00  5.0976985394208D-03 -2.3061335111352D-02
223  2.2200000000000D+00  4.1250397918049D-03 -1.8624753261589D-02
224  2.2300000000000D+00  3.2481250560077D-03 -1.4647154486729D-02
225  2.2400000000000D+00  2.4716994645890D-03 -1.1139618485482D-02
226  2.2500000000000D+00  1.7982186226109D-03 -8.1047714402130D-03
227  2.2600000000000D+00  1.2281347244869D-03 -5.5384228707714D-03
228  2.2700000000000D+00  7.6757412923297D-04 -3.4644399000616D-03
229  2.2800000000000D+00  4.2229098197941D-04 -1.9072229096093D-03
230  2.2900000000000D+00  1.9493086554583D-04 -8.7837744983730D-04
231  2.3000000000000D+00  6.4092330801066D-05 -2.8400541936939D-04
232  2.3100000000000D+00  4.3475383958172D-06 -1.2235673904685D-05
233  2.3200000000000D+00 -1.2002735728276D-05  5.9673697660386D-05
234  2.3300000000000D+00 -6.2421020459899D-06  3.0174646933285D-05
235  2.3400000000000D+00  2.5463181266194D-06 -1.2094807764952D-05
236  2.3500000000000D+00  4.6940942125668D-06 -2.2184821304291D-05
237  2.3600000000000D+00  1.7650889078925D-06 -8.3191036742779D-06
238  2.3700000000000D+00 -5.6315772965246D-07  2.6864041868560D-06
239  2.3800000000000D+00 -7.9008296342521D-07  3.7571191619329D-06
240  2.3900000000000D+00 -1.8912184416063D-07  8.9727171963856D-07
241  2.4000000000000D+00 -2.7029032983612D-08  1.0493835849717D-07
242  2.4100000000000D+00 -3.0101344130782D-08  1.1686639487096D-07
243  2.4200000000000D+00 -3.0760393699498D-09  1.1942510941880D-08
244  2.4300000000000D+00  0.0000000000000D+00  0.0000000000000D+00
245  2.4400000000000D+00  0.0000000000000D+00  0.0000000000000D+00
246  2.4500000000000D+00  0.0000000000000D+00  0.0000000000000D+00
247  2.4600000000000D+00  0.0000000000000D+00  0.0000000000000D+00
248  2.4700000000000D+00  0.0000000000000D+00  0.0000000000000D+00
249  2.4800000000000D+00  0.0000000000000D+00  0.0000000000000D+00
250  2.4900000000000D+00  0.0000000000000D+00  0.0000000000000D+00
251  2.5000000000000D+00  0.0000000000000D+00  0.0000000000000D+00
252  2.5100000000000D+00  0.0000000000000D+00  0.0000000000000D+00
253  2.5200000000000D+00  0.0000000000000D+00  0.0000000000000D+00
254  2.5300000000000D+00  0.0000000000000D+00  0.0000000000000D+00
255  2.5400000000000D+00  0.0000000000000D+00  0.0000000000000D+00
256  2.5500000000000D+00  0.0000000000000D+00  0.0000000000000D+00
257  2.5600000000000D+00  0.0000000000000D+00  0.0000000000000D+00
258  2.5700000000000D+00  0.0000000000000D+00  0.0000000000000D+00
259  2.5800000000000D+00  0.0000000000000D+00  0.0000000000000D+00
260  2.5900000000000D+00  0.0000000000000D+00  0.0000000000000D+00
261  2.6000000000000D+00  0.0000000000000D+00  0.0000000000000D+00
262  2.6100000000000D+00  0.0000000000000D+00  0.0000000000000D+00
263  2.6200000000000D+00  0.0000000000000D+00  0.0000000000000D+00
264  2.6300000000000D+00  0.0000000000000D+00  0.0000000000000D+00
265  2.6400000000000D+00  0.0000000000000D+00  0.0000000000000D+00
266  2.6500000000000D+00  0.0000000000000D+00  0.0000000000000D+00
267  2.6600000000000D+00  0.0000000000000D+00  0.0000000000000D+00
268  2.6700000000000D+00  0.0000000000000D+00  0.0000000000000D+00
269  2.6800000000000D+00  0.0000000000000D+00  0.0000000000000D+00
270  2.6900000000000D+00  0.0000000000000D+00  0.0000000000000D+00
271  2.7000000000000D+00  0.0000000000000D+00  0.0000000000000D+00
272  2.7100000000000D+00  0.0000000000000D+00  0.0000000000000D+00
273  2.7200000000000D+00  0.0000000000000D+00  0.0000000000000D+00
274  2.7300000000000D+00  0.0000000000000D+00  0.0000000000000D+00
275  2.7400000000000D+00  0.0000000000000D+00  0.0000000000000D+00
276  2.7500000000000D+00  0.0000000000000D+00  0.0000000000000D+00
277  2.7600000000000D+00  0.0000000000000D+00  0.0000000000000D+00
278  2.7700000000000D+00  0.0000000000000D+00  0.0000000000000D+00
279  2.7800000000000D+00  0.0000000000000D+00  0.0000000000000D+00
280  2.7900000000000D+00  0.0000000000000D+00  0.0000000000000D+00
281  2.8000000000000D+00  0.0000000000000D+00  0.0000000000000D+00
282  2.8100000000000D+00  0.0000000000000D+00  0.0000000000000D+00
283  2.8200000000000D+00  0.0000000000000D+00  0.0000000000000D+00
284  2.8300000000000D+00  0.0000000000000D+00  0.0000000000000D+00
285  2.8400000000000D+00  0.0000000000000D+00  0.0000000000000D+00
286  2.8500000000000D+00  0.0000000000000D+00  0.0000000000000D+00
287  2.8600000000000D+00  0.0000000000000D+00  0.0000000000000D+00
288  2.8700000000000D+00  0.0000000000000D+00  0.0000000000000D+00
289  2.8800000000000D+00  0.0000000000000D+00  0.0000000000000D+00
290  2.8900000000000D+00  0.0000000000000D+00  0.0000000000000D+00
291  2.9000000000000D+00  0.0000000000000D+00  0.0000000000000D+00
292  2.9100000000000D+00  0.0000000000000D+00  0.0000000000000D+00
293  2.9200000000000D+00  0.0000000000000D+00  0.0000000000000D+00
294  2.9300000000000D+00  0.0000000000000D+00  0.0000000000000D+00
295  2.9400000000000D+00  0.0000000000000D+00  0.0000000000000D+00
296  2.9500000000000D+00  0.0000000000000D+00  0.0000000000000D+00
297  2.9600000000000D+00  0.0000000000000D+00  0.0000000000000D+00
298  2.9700000000000D+00  0.0000000000000D+00  0.0000000000000D+00
299  2.9800000000000D+00  0.0000000000000D+00  0.0000000000000D+00
300  2.9900000000000D+00  0.0000000000000D+00  0.0000000000000D+00
301  3.0000000000000D+00  0.0000000000000D+00  0.0000000000000D+00
302  3.0100000000000D+00  0.0000000000000D+00  0.0000000000000D+00
303  3.0200000000000D+00  0.0000000000000D+00  0.0000000000000D+00
304  3.0300000000000D+00  0.0000000000000D+00  0.0000000000000D+00
305  3.0400000000000D+00  0.0000000000000D+00  0.0000000000000D+00
306  3.0500000000000D+00  0.0000000000000D+00  0.0000000000000D+00
307  3.0600000000000D+00  0.0000000000000D+00  0.0000000000000D+00
308  3.0700000000000D+00  0.0000000000000D+00  0.0000000000000D+00
309  3.0800000000000D+00  0.0000000000000D+00  0.0000000000000D+00
310  3.0900000000000D+00  0.0000000000000D+00  0.0000000000000D+00
311  3.1000000000000D+00  0.0000000000000D+00  0.0000000000000D+00
312  3.1100000000000D+00  0.0000000000000D+00  0.0000000000000D+00
313  3.1200000000000D+00  0.0000000000000D+00  0.0000000000000D+00
314  3.1300000000000D+00  0.0000000000000D+00  0.0000000000000D+00
315  3.1400000000000D+00  0.0000000000000D+00  0.0000000000000D+00
316  3.1500000000000D+00  0.0000000000000D+00  0.0000000000000D+00
317  3.1600000000000D+00  0.0000000000000D+00  0.0000000000000D+00
318  3.1700000000000D+00  0.0000000000000D+00  0.0000000000000D+00
319  3.1800000000000D+00  0.0000000000000D+00  0.0000000000000D+00
320  3.1900000000000D+00  0.0000000000000D+00  0.0000000000000D+00
321  3.2000000000000D+00  0.0000000000000D+00  0.0000000000000D+00
322  3.2100000000000D+00  0.0000000000000D+00  0.0000000000000D+00
323  3.2200000000000D+00  0.0000000000000D+00  0.0000000000000D+00
324  3.2300000000000D+00  0.0000000000000D+00  0.0000000000000D+00
325  3.2400000000000D+00  0.0000000000000D+00  0.0000000000000D+00
326  3.2500000000000D+00  0.0000000000000D+00  0.0000000000000D+00
327  3.2600000000000D+00  0.0000000000000D+00  0.0000000000000D+00
328  3.2700000000000D+00  0.0000000000000D+00  0.0000000000000D+00
329  3.2800000000000D+00  0.0000000000000D+00  0.0000000000000D+00
330  3.2900000000000D+00  0.0000000000000D+00  0.0000000000000D+00
331  3.3000000000000D+00  0.0000000000000D+00  0.0000000000000D+00
332  3.3100000000000D+00  0.0000000000000D+00  0.0000000000000D+00
333  3.3200000000000D+00  0.0000000000000D+00  0.0000000000000D+00
334  3.3300000000000D+00  0.0000000000000D+00  0.0000000000000D+00
335  3.3400000000000D+00  0.0000000000000D+00  0.0000000000000D+00
336  3.3500000000000D+00  0.0000000000000D+00  0.0000000000000D+00
337  3.3600000000000D+00  0.0000000000000D+00  0.0000000000000D+00
338  3.3700000000000D+00  0.0000000000000D+00  0.0000000000000D+00
339  3.3800000000000D+00  0.0000000000000D+00  0.0000000000000D+00
340  3.3900000000000D+00  0.0000000000000D+00  0.0000000000000D+00
341  3.4000000000000D+00  0.0000000000000D+00  0.0000000000000D+00
342  3.4100000000000D+00  0.0000000000000D+00  0.0000000000000D+00
343  3.4200000000000D+00  0.0000000000000D+00  0.0000000000000D+00
344  3.4300000000000D+00  0.0000000000000D+00  0.0000000000000D+00
345  3.4400000000000D+00  0.0000000000000D+00  0.0000000000000D+00
346  3.4500000000000D+00  0.0000000000000D+00  0.0000000000000D+00
347  3.4600000000000D+00  0.0000000000000D+00  0.0000000000000D+00
348  3.4700000000000D+00  0.0000000000000D+00  0.0000000000000D+00
349  3.4800000000000D+00  0.0000000000000D+00  0.0000000000000D+00
350  3.4900000000000D+00  0.0000000000000D+00  0.0000000000000D+00
351  3.5000000000000D+00  0.0000000000000D+00  0.0000000000000D+00
352  3.5100000000000D+00  0.0000000000000D+00  0.0000000000000D+00
353  3.5200000000000D+00  0.0000000000000D+00  0.0000000000000D+00
354  3.5300000000000D+00  0.0000000000000D+00  0.0000000000000D+00
355  3.5400000000000D+00  0.0000000000000D+00  0.0000000000000D+00
356  3.5500000000000D+00  0.0000000000000D+00  0.0000000000000D+00
357  3.5600000000000D+00  0.0000000000000D+00  0.0000000000000D+00
358  3.5700000000000D+00  0.0000000000000D+00  0.0000000000000D+00
359  3.5800000000000D+00  0.0000000000000D+00  0.0000000000000D+00
360  3.5900000000000D+00  0.0000000000000D+00  0.0000000000000D+00
361  3.6000000000000D+00  0.0000000000000D+00  0.0000000000000D+00
362  3.6100000000000D+00  0.0000000000000D+00  0.0000000000000D+00
363  3.6200000000000D+00  0.0000000000000D+00  0.0000000000000D+00
364  3.6300000000000D+00  0.0000000000000D+00  0.0000000000000D+00
365  3.6400000000000D+00  0.0000000000000D+00  0.0000000000000D+00
366  3.6500000000000D+00  0.0000000000000D+00  0.0000000000000D+00
367  3.6600000000000D+00  0.0000000000000D+00  0.0000000000000D+00
368  3.6700000000000D+00  0.0000000000000D+00  0.0000000000000D+00
369  3.6800000000000D+00  0.0000000000000D+00  0.0000000000000D+00
370  3.6900000000000D+00  0.0000000000000D+00  0.0000000000000D+00
371  3.7000000000000D+00  0.0000000000000D+00  0.0000000000000D+00
372  3.7100000000000D+00  0.0000000000000D+00  0.0000000000000D+00
373  3.7200000000000D+00  0.0000000000000D+00  0.0000000000000D+00
374  3.7300000000000D+00  0.0000000000000D+00  0.0000000000000D+00
375  3.7400000000000D+00  0.0000000000000D+00  0.0000000000000D+00
376  3.7500000000000D+00  0.0000000000000D+00  0.0000000000000D+00
377  3.7600000000000D+00  0.0000000000000D+00  0.0000000000000D+00
378  3.7700000000000D+00  0.0000000000000D+00  0.0000000000000D+00
379  3.7800000000000D+00  0.0000000000000D+00  0.0000000000000D+00
380  3.7900000000000D+00  0.0000000000000D+00  0.0000000000000D+00
381  3.8000000000000D+00  0.0000000000000D+00  0.0000000000000D+00
382  3.8100000000000D+00  0.0000000000000D+00  0.0000000000000D+00
383  3.8200000000000D+00  0.0000000000000D+00  0.0000000000000D+00
384  3.8300000000000D+00  0.0000000000000D+00  0.0000000000000D+00
385  3.8400000000000D+00  0.0000000000000D+00  0.0000000000000D+00
386  3.8500000000000D+00  0.0000000000000D+00  0.0000000000000D+00
387  3.8600000000000D+00  0.0000000000000D+00  0.0000000000000D+00
388  3.8700000000000D+00  0.0000000000000D+00  0.0000000000000D+00
389  3.8800000000000D+00  0.0000000000000D+00  0.0000000000000D+00
390  3.8900000000000D+00  0.0000000000000D+00  0.0000000000000D+00
391  3.9000000000000D+00  0.0000000000000D+00  0.0000000000000D+00
392  3.9100000000000D+00  0.0000000000000D+00  0.0000000000000D+00
393  3.9200000000000D+00  0.0000000000000D+00  0.0000000000000D+00
394  3.9300000000000D+00  0.0000000000000D+00  0.0000000000000D+00
395  3.9400000000000D+00  0.0000000000000D+00  0.0000000000000D+00
396  3.9500000000000D+00  0.0000000000000D+00  0.0000000000000D+00
397  3.9600000000000D+00  0.0000000000000D+00  0.0000000000000D+00
398  3.9700000000000D+00  0.0000000000000D+00  0.0000000000000D+00
399  3.9800000000000D+00  0.0000000000000D+00  0.0000000000000D+00
400  3.9900000000000D+00  0.0000000000000D+00  0.0000000000000D+00
401  4.0000000000000D+00  0.0000000000000D+00  0.0000000000000D+00
402  4.0100000000000D+00  0.0000000000000D+00  0.0000000000000D+00
403  4.0200000000000D+00  0.0000000000000D+00  0.0000000000000D+00
404  4.0300000000000D+00  0.0000000000000D+00  0.0000000000000D+00
405  4.0400000000000D+00  0.0000000000000D+00  0.0000000000000D+00
406  4.0500000000000D+00  0.0000000000000D+00  0.0000000000000D+00
407  4.0600000000000D+00  0.0000000000000D+00  0.0000000000000D+00
408  4.0700000000000D+00  0.0000000000000D+00  0.0000000000000D+00
409  4.0800000000000D+00  0.0000000000000D+00  0.0000000000000D+00
410  4.0900000000000D+00  0.0000000000000D+00  0.0000000000000D+00
411  4.1000000000000D+00  0.0000000000000D+00  0.0000000000000D+00
412  4.1100000000000D+00  0.0000000000000D+00  0.0000000000000D+00
413  4.1200000000000D+00  0.0000000000000D+00  0.0000000000000D+00
414  4.1300000000000D+00  0.0000000000000D+00  0.0000000000000D+00
415  4.1400000000000D+00  0.0000000000000D+00  0.0000000000000D+00
416  4.1500000000000D+00  0.0000000000000D+00  0.0000000000000D+00
417  4.1600000000000D+00  0.0000000000000D+00  0.0000000000000D+00
418  4.1700000000000D+00  0.0000000000000D+00  0.0000000000000D+00
419  4.1800000000000D+00  0.0000000000000D+00  0.0000000000000D+00
420  4.1900000000000D+00  0.0000000000000D+00  0.0000000000000D+00
421  4.2000000000000D+00  0.0000000000000D+00  0.0000000000000D+00
422  4.2100000000000D+00  0.0000000000000D+00  0.0000000000000D+00
423  4.2200000000000D+00  0.0000000000000D+00  0.0000000000000D+00
424  4.2300000000000D+00  0.0000000000000D+00  0.0000000000000D+00
425  4.2400000000000D+00  0.0000000000000D+00  0.0000000000000D+00
426  4.2500000000000D+00  0.0000000000000D+00  0.0000000000000D+00
427  4.2600000000000D+00  0.0000000000000D+00  0.0000000000000D+00
428  4.2700000000000D+00  0.0000000000000D+00  0.0000000000000D+00
429  4.2800000000000D+00  0.0000000000000D+00  0.0000000000000D+00
430  4.2900000000000D+00  0.0000000000000D+00  0.0000000000000D+00
431  4.3000000000000D+00  0.0000000000000D+00  0.0000000000000D+00
432  4.3100000000000D+00  0.0000000000000D+00  0.0000000000000D+00
433  4.3200000000000D+00  0.0000000000000D+00  0.0000000000000D+00
434  4.3300000000000D+00  0.0000000000000D+00  0.0000000000000D+00
435  4.3400000000000D+00  0.0000000000000D+00  0.0000000000000D+00
436  4.3500000000000D+00  0.0000000000000D+00  0.0000000000000D+00
437  4.3600000000000D+00  0.0000000000000D+00  0.0000000000000D+00
438  4.3700000000000D+00  0.0000000000000D+00  0.0000000000000D+00
439  4.3800000000000D+00  0.0000000000000D+00  0.0000000000000D+00
440  4.3900000000000D+00  0.0000000000000D+00  0.0000000000000D+00
441  4.4000000000000D+00  0.0000000000000D+00  0.0000000000000D+00
442  4.4100000000000D+00  0.0000000000000D+00  0.0000000000000D+00
443  4.4200000000000D+00  0.0000000000000D+00  0.0000000000000D+00