Ar    ONCVPSP-3.3.0  r_core=   1.56397   1.56397   1.56397
18.0000      8.0000      180423    zatom,zion,pspd
8      11   2     4   400     0    pspcod,pspxc,lmax,lloc,mmax,r2well
3.99000000  7.00000000  0.00000000    rchrg fchrg qchrg
2     3     2     0    nproj
3     1           extension_switch
3     3     0    nprojso
0                         4.5318634694814D-01  8.6057179959790D+00
1  0.0000000000000D+00  2.5320351371150D-10 -4.5823400629530D-11
2  1.0000000000000D-02 -3.8174050518083D-02  6.3487746412448D-02
3  2.0000000000000D-02 -7.6184938047155D-02  1.2685890461979D-01
4  3.0000000000000D-02 -1.1387026939442D-01  1.8999720439903D-01
5  4.0000000000000D-02 -1.5106918500741D-01  2.5278701006613D-01
6  5.0000000000000D-02 -1.8762311097909D-01  3.1511363419425D-01
7  6.0000000000000D-02 -2.2337649345691D-01  3.7686364710336D-01
8  7.0000000000000D-02 -2.5817750989149D-01  4.3792518076603D-01
9  8.0000000000000D-02 -2.9187875181352D-01  4.9818822582019D-01
10  9.0000000000000D-02 -3.2433787413860D-01  5.5754492043569D-01
11  1.0000000000000D-01 -3.5541820636360D-01  6.1588982984778D-01
12  1.1000000000000D-01 -3.8498932143202D-01  6.7312021544565D-01
13  1.2000000000000D-01 -4.1292755850313D-01  7.2913629238749D-01
14  1.3000000000000D-01 -4.3911649635631D-01  7.8384147480408D-01
15  1.4000000000000D-01 -4.6344737469039D-01  8.3714260774979D-01
16  1.5000000000000D-01 -4.8581946113273D-01  8.8895018516150D-01
17  1.6000000000000D-01 -5.0614036234690D-01  9.3917855319183D-01
18  1.7000000000000D-01 -5.2432627821392D-01  9.8774609839178D-01
19  1.8000000000000D-01 -5.4030219865386D-01  1.0345754203277D+00
20  1.9000000000000D-01 -5.5400204324346D-01  1.0795934883280D+00
21  2.0000000000000D-01 -5.6536874436624D-01  1.1227317821648D+00
22  2.1000000000000D-01 -5.7435427519479D-01  1.1639264165822D+00
23  2.2000000000000D-01 -5.8091962434619D-01  1.2031182496887D+00
24  2.3000000000000D-01 -5.8503471956222D-01  1.2402529753286D+00
25  2.4000000000000D-01 -5.8667830324160D-01  1.2752811996443D+00
26  2.5000000000000D-01 -5.8583776308503D-01  1.3081585021272D+00
27  2.6000000000000D-01 -5.8250892150089D-01  1.3388454815368D+00
28  2.7000000000000D-01 -5.7669578775525D-01  1.3673077871397D+00
29  2.8000000000000D-01 -5.6841027713062D-01  1.3935161357851D+00
30  2.9000000000000D-01 -5.5767190157922D-01  1.4174463153873D+00
31  3.0000000000000D-01 -5.4450743651914D-01  1.4390791754304D+00
32  3.1000000000000D-01 -5.2895056851871D-01  1.4584006051484D+00
33  3.2000000000000D-01 -5.1104152865098D-01  1.4754015000550D+00
34  3.3000000000000D-01 -4.9082671627084D-01  1.4900777175163D+00
35  3.4000000000000D-01 -4.6835831787644D-01  1.5024300220616D+00
36  3.5000000000000D-01 -4.4369392556392D-01  1.5124640211258D+00
37  3.6000000000000D-01 -4.1689615937298D-01  1.5201900919012D+00
38  3.7000000000000D-01 -3.8803229755352D-01  1.5256232999540D+00
39  3.8000000000000D-01 -3.5717391846495D-01  1.5287833102316D+00
40  3.9000000000000D-01 -3.2439655745223D-01  1.5296942910463D+00
41  4.0000000000000D-01 -2.8977938163516D-01  1.5283848115790D+00
42  4.1000000000000D-01 -2.5340488510145D-01  1.5248877333944D+00
43  4.2000000000000D-01 -2.1535860651919D-01  1.5192400964055D+00
44  4.3000000000000D-01 -1.7572887068531D-01  1.5114829996658D+00
45  4.4000000000000D-01 -1.3460655501139D-01  1.5016614773101D+00
46  4.5000000000000D-01 -9.2084881423439D-02  1.4898243698983D+00
47  4.6000000000000D-01 -4.8259233625612D-02  1.4760241913596D+00
48  4.7000000000000D-01 -3.2269991573760D-03  1.4603169916724D+00
49  4.8000000000000D-01  4.2912564834920D-02  1.4427622153555D+00
50  4.9000000000000D-01  9.0058443677963D-02  1.4234225557948D+00
51  5.0000000000000D-01  1.3810795712971D-01  1.4023638053785D+00
52  5.1000000000000D-01  1.8695683366792D-01  1.3796547013680D+00
53  5.2000000000000D-01  2.3649926994749D-01  1.3553667673979D+00
54  5.3000000000000D-01  2.8662797860357D-01  1.3295741504649D+00
55  5.4000000000000D-01  3.3723422786598D-01  1.3023534532458D+00
56  5.5000000000000D-01  3.8820787668111D-01  1.2737835615706D+00
57  5.6000000000000D-01  4.3943740920987D-01  1.2439454668737D+00
58  5.7000000000000D-01  4.9080997267863D-01  1.2129220834527D+00
59  5.8000000000000D-01  5.4221142260246D-01  1.1807980603788D+00
60  5.9000000000000D-01  5.9352637937738D-01  1.1476595879309D+00
61  6.0000000000000D-01  6.4463830014609D-01  1.1135941984599D+00
62  6.1000000000000D-01  6.9542956968504D-01  1.0786905616360D+00
63  6.2000000000000D-01  7.4578161383560D-01  1.0430382740867D+00
64  6.3000000000000D-01  7.9557503871618D-01  1.0067276434973D+00
65  6.4000000000000D-01  8.4468979860508D-01  9.6984946731602D-01
66  6.5000000000000D-01  8.9300539497855D-01  9.3249480628657D-01
67  6.6000000000000D-01  9.4040110873506D-01  8.9475475311520D-01
68  6.7000000000000D-01  9.8675626713515D-01  8.5672019666932D-01
69  6.8000000000000D-01  1.0319505464443D+00  8.1848158219969D-01
70  6.9000000000000D-01  1.0758643106926D+00  7.8012866817493D-01
71  7.0000000000000D-01  1.1183789863667D+00  7.4175028041470D-01
72  7.1000000000000D-01  1.1593774722314D+00  7.0343406430675D-01
73  7.2000000000000D-01  1.1987445828514D+00  6.6526623598886D-01
74  7.3000000000000D-01  1.2363675237575D+00  6.2733133347009D-01
75  7.4000000000000D-01  1.2721363955819D+00  5.8971196875456D-01
76  7.5000000000000D-01  1.3059447238846D+00  5.5248858211284D-01
77  7.6000000000000D-01  1.3376900108144D+00  5.1573919972159D-01
78  7.7000000000000D-01  1.3672743042051D+00  4.7953919595738D-01
79  7.8000000000000D-01  1.3946047792050D+00  4.4396106168625D-01
80  7.9000000000000D-01  1.4195943270843D+00  4.0907417993445D-01
81  8.0000000000000D-01  1.4421621454720D+00  3.7494461035694D-01
82  8.1000000000000D-01  1.4622343239387D+00  3.4163488393755D-01
83  8.2000000000000D-01  1.4797444185816D+00  3.0920380935787D-01
84  8.3000000000000D-01  1.4946340090782D+00  2.7770629245931D-01
85  8.4000000000000D-01  1.5068532315674D+00  2.4719317019462D-01
86  8.5000000000000D-01  1.5163612806908D+00  2.1771106042127D-01
87  8.6000000000000D-01  1.5231268741808D+00  1.8930222882818D-01
88  8.7000000000000D-01  1.5271286735327D+00  1.6200447421102D-01
89  8.8000000000000D-01  1.5283556545206D+00  1.3585103321856D-01
90  8.9000000000000D-01  1.5268074216387D+00  1.1087050558469D-01
91  9.0000000000000D-01  1.5224944609431D+00  8.7086800737855D-02
92  9.1000000000000D-01  1.5154383262518D+00  6.4519106543236D-02
93  9.2000000000000D-01  1.5056717542132D+00  4.3181880783370D-02
94  9.3000000000000D-01  1.4932387043802D+00  2.3084865822000D-02
95  9.4000000000000D-01  1.4781943211179D+00  4.2331267248381D-03
96  9.5000000000000D-01  1.4606048149202D+00 -1.3372887068840D-02
97  9.6000000000000D-01  1.4405472615096D+00 -2.9737256616232D-02
98  9.7000000000000D-01  1.4181093179306D+00 -4.4868485166351D-02
99  9.8000000000000D-01  1.3933888557230D+00 -5.8779367159587D-02
100  9.9000000000000D-01  1.3664935121496D+00 -7.1486835205192D-02
101  1.0000000000000D+00  1.3375401613447D+00 -8.3011785901953D-02
102  1.0100000000000D+00  1.3066543081759D+00 -9.3378885563434D-02
103  1.0200000000000D+00  1.2739694084863D+00 -1.0261635708949D-01
104  1.0300000000000D+00  1.2396261202564D+00 -1.1075574940512D-01
105  1.0400000000000D+00  1.2037714910665D+00 -1.1783169105463D-01
106  1.0500000000000D+00  1.1665580880484D+00 -1.2388162969825D-01
107  1.0600000000000D+00  1.1281430771994D+00 -1.2894555938912D-01
108  1.0700000000000D+00  1.0886872596892D+00 -1.3306573765067D-01
109  1.0800000000000D+00  1.0483540733297D+00 -1.3628639447025D-01
110  1.0900000000000D+00  1.0073085679252D+00 -1.3865343542008D-01
111  1.1000000000000D+00  9.6571636364213D-01 -1.4021414118319D-01
112  1.1100000000000D+00  9.2374260185873D-01 -1.4101686580965D-01
113  1.1200000000000D+00  8.8155089822316D-01 -1.4111073605717D-01
114  1.1300000000000D+00  8.3930230773918D-01 -1.4054535416853D-01
115  1.1400000000000D+00  7.9715431168959D-01 -1.3937050640790D-01
116  1.1500000000000D+00  7.5525983617992D-01 -1.3763587965468D-01
117  1.1600000000000D+00  7.1376631180228D-01 -1.3539078826061D-01
118  1.1700000000000D+00  6.7281478361845D-01 -1.3268391329406D-01
119  1.1800000000000D+00  6.3253908014525D-01 -1.2956305615974D-01
120  1.1900000000000D+00  5.9306504969593D-01 -1.2607490849601D-01
121  1.2000000000000D+00  5.5450987151140D-01 -1.2226484002716D-01
122  1.2100000000000D+00  5.1698144839914D-01 -1.1817670588121D-01
123  1.2200000000000D+00  4.8057788701302D-01 -1.1385267474460D-01
124  1.2300000000000D+00  4.4538707073008D-01 -1.0933307895252D-01
125  1.2400000000000D+00  4.1148632898883D-01 -1.0465628736834D-01
126  1.2500000000000D+00  3.7894220615118D-01 -9.9858601724942D-02
127  1.2600000000000D+00  3.4781033189069D-01 -9.4974176861687D-02
128  1.2700000000000D+00  3.1813539338002D-01 -9.0034964910659D-02
129  1.2800000000000D+00  2.8995120891633D-01 -8.5070683347443D-02
130  1.2900000000000D+00  2.6328090158125D-01 -8.0108806591156D-02
131  1.3000000000000D+00  2.3813716934443D-01 -7.5174580365952D-02
132  1.3100000000000D+00  2.1452264786490D-01 -7.0291058003942D-02
133  1.3200000000000D+00  1.9243036089683D-01 -6.5479157576716D-02
134  1.3300000000000D+00  1.7184425107623D-01 -6.0757738290165D-02
135  1.3400000000000D+00  1.5273978433711D-01 -5.6143694677645D-02
136  1.3500000000000D+00  1.3508461914142D-01 -5.1652066686244D-02
137  1.3600000000000D+00  1.1883933047454D-01 -4.7296163494926D-02
138  1.3700000000000D+00  1.0395817932005D-01 -4.3087699060722D-02
139  1.3800000000000D+00  9.0389915471613D-02 -3.9036936791236D-02
140  1.3900000000000D+00  7.8078602374214D-02 -3.5152840919628D-02
141  1.4000000000000D+00  6.6964451834672D-02 -3.1443231976224D-02
142  1.4100000000000D+00  5.6984655386626D-02 -2.7914943540044D-02
143  1.4200000000000D+00  4.8074199871169D-02 -2.4573977609573D-02
144  1.4300000000000D+00  4.0166653540260D-02 -2.1425655678741D-02
145  1.4400000000000D+00  3.3194910147968D-02 -1.8474762848962D-02
146  1.4500000000000D+00  2.7091877118571D-02 -1.5725682015608D-02
147  1.4600000000000D+00  2.1791089088594D-02 -1.3182514778383D-02
148  1.4700000000000D+00  1.7227275570860D-02 -1.0849191491424D-02
149  1.4800000000000D+00  1.3336705931849D-02 -8.7295470242886D-03
150  1.4900000000000D+00  1.0057856246441D-02 -6.8274316118369D-03
151  1.5000000000000D+00  7.3314034957878D-03 -5.1467251834011D-03
152  1.5100000000000D+00  5.0992848345732D-03 -3.6913629501200D-03
153  1.5200000000000D+00  3.3087239691456D-03 -2.4659822406895D-03
154  1.5300000000000D+00  1.9103546757871D-03 -1.4709740187612D-03
155  1.5400000000000D+00  8.7678731639028D-04 -7.1724337589591D-04
156  1.5500000000000D+00  2.0412442773351D-04 -2.2928227681859D-04
157  1.5600000000000D+00 -1.2407691015207D-04  7.6155098172296D-06
158  1.5700000000000D+00 -1.5145514278229D-04  5.5315956325868D-05
159  1.5800000000000D+00 -3.1898791740331D-05  1.3236239779626D-05
160  1.5900000000000D+00  2.7735855004371D-05 -1.1981097035912D-05
161  1.6000000000000D+00  6.4944458676264D-06 -2.8826783755697D-06
162  1.6100000000000D+00 -5.8195927395550D-06  2.3841196043886D-06
163  1.6200000000000D+00 -8.1838277902484D-07  3.4004479821464D-07
164  1.6300000000000D+00  4.7907757031286D-07 -1.2855770722129D-07
165  1.6400000000000D+00  2.9064203897059D-08 -7.7992117493163D-09
166  1.6500000000000D+00  0.0000000000000D+00  0.0000000000000D+00
167  1.6600000000000D+00  0.0000000000000D+00  0.0000000000000D+00
168  1.6700000000000D+00  0.0000000000000D+00  0.0000000000000D+00
169  1.6800000000000D+00  0.0000000000000D+00  0.0000000000000D+00
170  1.6900000000000D+00  0.0000000000000D+00  0.0000000000000D+00
171  1.7000000000000D+00  0.0000000000000D+00  0.0000000000000D+00
172  1.7100000000000D+00  0.0000000000000D+00  0.0000000000000D+00
173  1.7200000000000D+00  0.0000000000000D+00  0.0000000000000D+00
174  1.7300000000000D+00  0.0000000000000D+00  0.0000000000000D+00
175  1.7400000000000D+00  0.0000000000000D+00  0.0000000000000D+00
176  1.7500000000000D+00  0.0000000000000D+00  0.0000000000000D+00
177  1.7600000000000D+00  0.0000000000000D+00  0.0000000000000D+00
178  1.7700000000000D+00  0.0000000000000D+00  0.0000000000000D+00
179  1.7800000000000D+00  0.0000000000000D+00  0.0000000000000D+00
180  1.7900000000000D+00  0.0000000000000D+00  0.0000000000000D+00
181  1.8000000000000D+00  0.0000000000000D+00  0.0000000000000D+00
182  1.8100000000000D+00  0.0000000000000D+00  0.0000000000000D+00
183  1.8200000000000D+00  0.0000000000000D+00  0.0000000000000D+00
184  1.8300000000000D+00  0.0000000000000D+00  0.0000000000000D+00
185  1.8400000000000D+00  0.0000000000000D+00  0.0000000000000D+00
186  1.8500000000000D+00  0.0000000000000D+00  0.0000000000000D+00
187  1.8600000000000D+00  0.0000000000000D+00  0.0000000000000D+00
188  1.8700000000000D+00  0.0000000000000D+00  0.0000000000000D+00
189  1.8800000000000D+00  0.0000000000000D+00  0.0000000000000D+00
190  1.8900000000000D+00  0.0000000000000D+00  0.0000000000000D+00
191  1.9000000000000D+00  0.0000000000000D+00  0.0000000000000D+00
192  1.9100000000000D+00  0.0000000000000D+00  0.0000000000000D+00
193  1.9200000000000D+00  0.0000000000000D+00  0.0000000000000D+00
194  1.9300000000000D+00  0.0000000000000D+00  0.0000000000000D+00
195  1.9400000000000D+00  0.0000000000000D+00  0.0000000000000D+00
196  1.9500000000000D+00  0.0000000000000D+00  0.0000000000000D+00
197  1.9600000000000D+00  0.0000000000000D+00  0.0000000000000D+00
198  1.9700000000000D+00  0.0000000000000D+00  0.0000000000000D+00
199  1.9800000000000D+00  0.0000000000000D+00  0.0000000000000D+00
200  1.9900000000000D+00  0.0000000000000D+00  0.0000000000000D+00
201  2.0000000000000D+00  0.0000000000000D+00  0.0000000000000D+00
202  2.0100000000000D+00  0.0000000000000D+00  0.0000000000000D+00
203  2.0200000000000D+00  0.0000000000000D+00  0.0000000000000D+00
204  2.0300000000000D+00  0.0000000000000D+00  0.0000000000000D+00
205  2.0400000000000D+00  0.0000000000000D+00  0.0000000000000D+00
206  2.0500000000000D+00  0.0000000000000D+00  0.0000000000000D+00
207  2.0600000000000D+00  0.0000000000000D+00  0.0000000000000D+00
208  2.0700000000000D+00  0.0000000000000D+00  0.0000000000000D+00
209  2.0800000000000D+00  0.0000000000000D+00  0.0000000000000D+00
210  2.0900000000000D+00  0.0000000000000D+00  0.0000000000000D+00
211  2.1000000000000D+00  0.0000000000000D+00  0.0000000000000D+00
212  2.1100000000000D+00  0.0000000000000D+00  0.0000000000000D+00
213  2.1200000000000D+00  0.0000000000000D+00  0.0000000000000D+00
214  2.1300000000000D+00  0.0000000000000D+00  0.0000000000000D+00
215  2.1400000000000D+00  0.0000000000000D+00  0.0000000000000D+00
216  2.1500000000000D+00  0.0000000000000D+00  0.0000000000000D+00
217  2.1600000000000D+00  0.0000000000000D+00  0.0000000000000D+00
218  2.1700000000000D+00  0.0000000000000D+00  0.0000000000000D+00
219  2.1800000000000D+00  0.0000000000000D+00  0.0000000000000D+00
220  2.1900000000000D+00  0.0000000000000D+00  0.0000000000000D+00
221  2.2000000000000D+00  0.0000000000000D+00  0.0000000000000D+00
222  2.2100000000000D+00  0.0000000000000D+00  0.0000000000000D+00
223  2.2200000000000D+00  0.0000000000000D+00  0.0000000000000D+00
224  2.2300000000000D+00  0.0000000000000D+00  0.0000000000000D+00
225  2.2400000000000D+00  0.0000000000000D+00  0.0000000000000D+00
226  2.2500000000000D+00  0.0000000000000D+00  0.0000000000000D+00
227  2.2600000000000D+00  0.0000000000000D+00  0.0000000000000D+00
228  2.2700000000000D+00  0.0000000000000D+00  0.0000000000000D+00
229  2.2800000000000D+00  0.0000000000000D+00  0.0000000000000D+00
230  2.2900000000000D+00  0.0000000000000D+00  0.0000000000000D+00
231  2.3000000000000D+00  0.0000000000000D+00  0.0000000000000D+00
232  2.3100000000000D+00  0.0000000000000D+00  0.0000000000000D+00
233  2.3200000000000D+00  0.0000000000000D+00  0.0000000000000D+00
234  2.3300000000000D+00  0.0000000000000D+00  0.0000000000000D+00
235  2.3400000000000D+00  0.0000000000000D+00  0.0000000000000D+00
236  2.3500000000000D+00  0.0000000000000D+00  0.0000000000000D+00
237  2.3600000000000D+00  0.0000000000000D+00  0.0000000000000D+00
238  2.3700000000000D+00  0.0000000000000D+00  0.0000000000000D+00
239  2.3800000000000D+00  0.0000000000000D+00  0.0000000000000D+00
240  2.3900000000000D+00  0.0000000000000D+00  0.0000000000000D+00
241  2.4000000000000D+00  0.0000000000000D+00  0.0000000000000D+00
242  2.4100000000000D+00  0.0000000000000D+00  0.0000000000000D+00
243  2.4200000000000D+00  0.0000000000000D+00  0.0000000000000D+00
244  2.4300000000000D+00  0.0000000000000D+00  0.0000000000000D+00
245  2.4400000000000D+00  0.0000000000000D+00  0.0000000000000D+00
246  2.4500000000000D+00  0.0000000000000D+00  0.0000000000000D+00
247  2.4600000000000D+00  0.0000000000000D+00  0.0000000000000D+00
248  2.4700000000000D+00  0.0000000000000D+00  0.0000000000000D+00
249  2.4800000000000D+00  0.0000000000000D+00  0.0000000000000D+00
250  2.4900000000000D+00  0.0000000000000D+00  0.0000000000000D+00
251  2.5000000000000D+00  0.0000000000000D+00  0.0000000000000D+00
252  2.5100000000000D+00  0.0000000000000D+00  0.0000000000000D+00
253  2.5200000000000D+00  0.0000000000000D+00  0.0000000000000D+00
254  2.5300000000000D+00  0.0000000000000D+00  0.0000000000000D+00
255  2.5400000000000D+00  0.0000000000000D+00  0.0000000000000D+00
256  2.5500000000000D+00  0.0000000000000D+00  0.0000000000000D+00
257  2.5600000000000D+00  0.0000000000000D+00  0.0000000000000D+00
258  2.5700000000000D+00  0.0000000000000D+00  0.0000000000000D+00
259  2.5800000000000D+00  0.0000000000000D+00  0.0000000000000D+00
260  2.5900000000000D+00  0.0000000000000D+00  0.0000000000000D+00
261  2.6000000000000D+00  0.0000000000000D+00  0.0000000000000D+00
262  2.6100000000000D+00  0.0000000000000D+00  0.0000000000000D+00
263  2.6200000000000D+00  0.0000000000000D+00  0.0000000000000D+00
264  2.6300000000000D+00  0.0000000000000D+00  0.0000000000000D+00
265  2.6400000000000D+00  0.0000000000000D+00  0.0000000000000D+00
266  2.6500000000000D+00  0.0000000000000D+00  0.0000000000000D+00
267  2.6600000000000D+00  0.0000000000000D+00  0.0000000000000D+00
268  2.6700000000000D+00  0.0000000000000D+00  0.0000000000000D+00
269  2.6800000000000D+00  0.0000000000000D+00  0.0000000000000D+00
270  2.6900000000000D+00  0.0000000000000D+00  0.0000000000000D+00
271  2.7000000000000D+00  0.0000000000000D+00  0.0000000000000D+00
272  2.7100000000000D+00  0.0000000000000D+00  0.0000000000000D+00
273  2.7200000000000D+00  0.0000000000000D+00  0.0000000000000D+00
274  2.7300000000000D+00  0.0000000000000D+00  0.0000000000000D+00
275  2.7400000000000D+00  0.0000000000000D+00  0.0000000000000D+00
276  2.7500000000000D+00  0.0000000000000D+00  0.0000000000000D+00
277  2.7600000000000D+00  0.0000000000000D+00  0.0000000000000D+00
278  2.7700000000000D+00  0.0000000000000D+00  0.0000000000000D+00
279  2.7800000000000D+00  0.0000000000000D+00  0.0000000000000D+00
280  2.7900000000000D+00  0.0000000000000D+00  0.0000000000000D+00
281  2.8000000000000D+00  0.0000000000000D+00  0.0000000000000D+00
282  2.8100000000000D+00  0.0000000000000D+00  0.0000000000000D+00
283  2.8200000000000D+00  0.0000000000000D+00  0.0000000000000D+00
284  2.8300000000000D+00  0.0000000000000D+00  0.0000000000000D+00
285  2.8400000000000D+00  0.0000000000000D+00  0.0000000000000D+00
286  2.8500000000000D+00  0.0000000000000D+00  0.0000000000000D+00
287  2.8600000000000D+00  0.0000000000000D+00  0.0000000000000D+00
288  2.8700000000000D+00  0.0000000000000D+00  0.0000000000000D+00
289  2.8800000000000D+00  0.0000000000000D+00  0.0000000000000D+00
290  2.8900000000000D+00  0.0000000000000D+00  0.0000000000000D+00
291  2.9000000000000D+00  0.0000000000000D+00  0.0000000000000D+00
292  2.9100000000000D+00  0.0000000000000D+00  0.0000000000000D+00
293  2.9200000000000D+00  0.0000000000000D+00  0.0000000000000D+00
294  2.9300000000000D+00  0.0000000000000D+00  0.0000000000000D+00
295  2.9400000000000D+00  0.0000000000000D+00  0.0000000000000D+00
296  2.9500000000000D+00  0.0000000000000D+00  0.0000000000000D+00
297  2.9600000000000D+00  0.0000000000000D+00  0.0000000000000D+00
298  2.9700000000000D+00  0.0000000000000D+00  0.0000000000000D+00
299  2.9800000000000D+00  0.0000000000000D+00  0.0000000000000D+00
300  2.9900000000000D+00  0.0000000000000D+00  0.0000000000000D+00
301  3.0000000000000D+00  0.0000000000000D+00  0.0000000000000D+00
302  3.0100000000000D+00  0.0000000000000D+00  0.0000000000000D+00
303  3.0200000000000D+00  0.0000000000000D+00  0.0000000000000D+00
304  3.0300000000000D+00  0.0000000000000D+00  0.0000000000000D+00
305  3.0400000000000D+00  0.0000000000000D+00  0.0000000000000D+00
306  3.0500000000000D+00  0.0000000000000D+00  0.0000000000000D+00
307  3.0600000000000D+00  0.0000000000000D+00  0.0000000000000D+00
308  3.0700000000000D+00  0.0000000000000D+00  0.0000000000000D+00
309  3.0800000000000D+00  0.0000000000000D+00  0.0000000000000D+00
310  3.0900000000000D+00  0.0000000000000D+00  0.0000000000000D+00
311  3.1000000000000D+00  0.0000000000000D+00  0.0000000000000D+00
312  3.1100000000000D+00  0.0000000000000D+00  0.0000000000000D+00
313  3.1200000000000D+00  0.0000000000000D+00  0.0000000000000D+00
314  3.1300000000000D+00  0.0000000000000D+00  0.0000000000000D+00
315  3.1400000000000D+00  0.0000000000000D+00  0.0000000000000D+00
316  3.1500000000000D+00  0.0000000000000D+00  0.0000000000000D+00
317  3.1600000000000D+00  0.0000000000000D+00  0.0000000000000D+00
318  3.1700000000000D+00  0.0000000000000D+00  0.0000000000000D+00
319  3.1800000000000D+00  0.0000000000000D+00  0.0000000000000D+00
320  3.1900000000000D+00  0.0000000000000D+00  0.0000000000000D+00
321  3.2000000000000D+00  0.0000000000000D+00  0.0000000000000D+00
322  3.2100000000000D+00  0.0000000000000D+00  0.0000000000000D+00
323  3.2200000000000D+00  0.0000000000000D+00  0.0000000000000D+00
324  3.2300000000000D+00  0.0000000000000D+00  0.0000000000000D+00
325  3.2400000000000D+00  0.0000000000000D+00  0.0000000000000D+00
326  3.2500000000000D+00  0.0000000000000D+00  0.0000000000000D+00
327  3.2600000000000D+00  0.0000000000000D+00  0.0000000000000D+00
328  3.2700000000000D+00  0.0000000000000D+00  0.0000000000000D+00
329  3.2800000000000D+00  0.0000000000000D+00  0.0000000000000D+00
330  3.2900000000000D+00  0.0000000000000D+00  0.0000000000000D+00
331  3.3000000000000D+00  0.0000000000000D+00  0.0000000000000D+00
332  3.3100000000000D+00  0.0000000000000D+00  0.0000000000000D+00
333  3.3200000000000D+00  0.0000000000000D+00  0.0000000000000D+00
334  3.3300000000000D+00  0.0000000000000D+00  0.0000000000000D+00
335  3.3400000000000D+00  0.0000000000000D+00  0.0000000000000D+00
336  3.3500000000000D+00  0.0000000000000D+00  0.0000000000000D+00
337  3.3600000000000D+00  0.0000000000000D+00  0.0000000000000D+00
338  3.3700000000000D+00  0.0000000000000D+00  0.0000000000000D+00
339  3.3800000000000D+00  0.0000000000000D+00  0.0000000000000D+00
340  3.3900000000000D+00  0.0000000000000D+00  0.0000000000000D+00
341  3.4000000000000D+00  0.0000000000000D+00  0.0000000000000D+00
342  3.4100000000000D+00  0.0000000000000D+00  0.0000000000000D+00
343  3.4200000000000D+00  0.0000000000000D+00  0.0000000000000D+00
344  3.4300000000000D+00  0.0000000000000D+00  0.0000000000000D+00
345  3.4400000000000D+00  0.0000000000000D+00  0.0000000000000D+00
346  3.4500000000000D+00  0.0000000000000D+00  0.0000000000000D+00
347  3.4600000000000D+00  0.0000000000000D+00  0.0000000000000D+00
348  3.4700000000000D+00  0.0000000000000D+00  0.0000000000000D+00
349  3.4800000000000D+00  0.0000000000000D+00  0.0000000000000D+00
350  3.4900000000000D+00  0.0000000000000D+00  0.0000000000000D+00
351  3.5000000000000D+00  0.0000000000000D+00  0.0000000000000D+00
352  3.5100000000000D+00  0.0000000000000D+00  0.0000000000000D+00
353  3.5200000000000D+00  0.0000000000000D+00  0.0000000000000D+00
354  3.5300000000000D+00  0.0000000000000D+00  0.0000000000000D+00
355  3.5400000000000D+00  0.0000000000000D+00  0.0000000000000D+00
356  3.5500000000000D+00  0.0000000000000D+00  0.0000000000000D+00
357  3.5600000000000D+00  0.0000000000000D+00  0.0000000000000D+00
358  3.5700000000000D+00  0.0000000000000D+00  0.0000000000000D+00
359  3.5800000000000D+00  0.0000000000000D+00  0.0000000000000D+00
360  3.5900000000000D+00  0.0000000000000D+00  0.0000000000000D+00
361  3.6000000000000D+00  0.0000000000000D+00  0.0000000000000D+00
362  3.6100000000000D+00  0.0000000000000D+00  0.0000000000000D+00
363  3.6200000000000D+00  0.0000000000000D+00  0.0000000000000D+00
364  3.6300000000000D+00  0.0000000000000D+00  0.0000000000000D+00
365  3.6400000000000D+00  0.0000000000000D+00  0.0000000000000D+00
366  3.6500000000000D+00  0.0000000000000D+00  0.0000000000000D+00
367  3.6600000000000D+00  0.0000000000000D+00  0.0000000000000D+00
368  3.6700000000000D+00  0.0000000000000D+00  0.0000000000000D+00
369  3.6800000000000D+00  0.0000000000000D+00  0.0000000000000D+00
370  3.6900000000000D+00  0.0000000000000D+00  0.0000000000000D+00
371  3.7000000000000D+00  0.0000000000000D+00  0.0000000000000D+00
372  3.7100000000000D+00  0.0000000000000D+00  0.0000000000000D+00
373  3.7200000000000D+00  0.0000000000000D+00  0.0000000000000D+00
374  3.7300000000000D+00  0.0000000000000D+00  0.0000000000000D+00
375  3.7400000000000D+00  0.0000000000000D+00  0.0000000000000D+00
376  3.7500000000000D+00  0.0000000000000D+00  0.0000000000000D+00
377  3.7600000000000D+00  0.0000000000000D+00  0.0000000000000D+00
378  3.7700000000000D+00  0.0000000000000D+00  0.0000000000000D+00
379  3.7800000000000D+00  0.0000000000000D+00  0.0000000000000D+00
380  3.7900000000000D+00  0.0000000000000D+00  0.0000000000000D+00
381  3.8000000000000D+00  0.0000000000000D+00  0.0000000000000D+00
382  3.8100000000000D+00  0.0000000000000D+00  0.0000000000000D+00
383  3.8200000000000D+00  0.0000000000000D+00  0.0000000000000D+00
384  3.8300000000000D+00  0.0000000000000D+00  0.0000000000000D+00
385  3.8400000000000D+00  0.0000000000000D+00  0.0000000000000D+00
386  3.8500000000000D+00  0.0000000000000D+00  0.0000000000000D+00
387  3.8600000000000D+00  0.0000000000000D+00  0.0000000000000D+00
388  3.8700000000000D+00  0.0000000000000D+00  0.0000000000000D+00
389  3.8800000000000D+00  0.0000000000000D+00  0.0000000000000D+00
390  3.8900000000000D+00  0.0000000000000D+00  0.0000000000000D+00
391  3.9000000000000D+00  0.0000000000000D+00  0.0000000000000D+00
392  3.9100000000000D+00  0.0000000000000D+00  0.0000000000000D+00
393  3.9200000000000D+00  0.0000000000000D+00  0.0000000000000D+00
394  3.9300000000000D+00  0.0000000000000D+00  0.0000000000000D+00
395  3.9400000000000D+00  0.0000000000000D+00  0.0000000000000D+00
396  3.9500000000000D+00  0.0000000000000D+00  0.0000000000000D+00
397  3.9600000000000D+00  0.0000000000000D+00  0.0000000000000D+00
398  3.9700000000000D+00  0.0000000000000D+00  0.0000000000000D+00
399  3.9800000000000D+00  0.0000000000000D+00  0.0000000000000D+00
400  3.9900000000000D+00  0.0000000000000D+00  0.0000000000000D+00
1                         2.4066029942159D+00  2.3972032928951D-01  4.3118926833364D-05
1  0.0000000000000D+00  3.4590902364684D-10 -1.3499724046961D-09  1.0317477677768D-08
2  1.0000000000000D-02  1.3885863898324D-03 -8.6472816643211D-04  2.2621850326590D-03
3  2.0000000000000D-02  5.5490853082661D-03 -3.4520277956854D-03  9.0199941165113D-03
4  3.0000000000000D-02  1.2465741094177D-02 -7.7413063156950D-03  2.0187585916960D-02
5  4.0000000000000D-02  2.2112377762222D-02 -1.3698448806929D-02  3.5623208053962D-02
6  5.0000000000000D-02  3.4452523513399D-02 -2.1276124404375D-02  5.5131151602086D-02
7  6.0000000000000D-02  4.9439583729485D-02 -3.0414210002068D-02  7.8464447116133D-02
8  7.0000000000000D-02  6.7017061149276D-02 -4.1040326090829D-02  1.0532826266777D-01
9  8.0000000000000D-02  8.7118821578647D-02 -5.3070478209909D-02  1.3538395406124D-01
10  9.0000000000000D-02  1.0966940315945D-01 -6.6409796235226D-02  1.6825370786830D-01
11  1.0000000000000D-01  1.3458436691794D-01 -8.0953362578616D-02  2.0352570925939D-01
12  1.1000000000000D-01  1.6177068603512D-01 -9.6587119350745D-02  2.4075975898425D-01
13  1.2000000000000D-01  1.9112717103225D-01 -1.1318884365885D-01  2.7949325727396D-01
14  1.3000000000000D-01  2.2254492784701D-01 -1.3062917948126D-01  3.1924746722707D-01
15  1.4000000000000D-01  2.5590784559204D-01 -1.4877271399469D-01  3.5953396614712D-01
16  1.5000000000000D-01  2.9109311063926D-01 -1.6747908583348D-01  3.9986119076773D-01
17  1.6000000000000D-01  3.2797174356159D-01 -1.8660411253926D-01  4.3974098098350D-01
18  1.7000000000000D-01  3.6640915538940D-01 -2.0600092441612D-01  4.7869502696155D-01
19  1.8000000000000D-01  4.0626571960203D-01 -2.2552109213968D-01  5.1626112608795D-01
20  1.9000000000000D-01  4.4739735627549D-01 -2.4501573577922D-01  5.5199915922854D-01
21  2.0000000000000D-01  4.8965612484370D-01 -2.6433660336838D-01  5.8549670016412D-01
22  2.1000000000000D-01  5.3289082200285D-01 -2.8333710780251D-01  6.1637417766648D-01
23  2.2000000000000D-01  5.7694758139312D-01 -3.0187331163080D-01  6.4428951662674D-01
24  2.3000000000000D-01  6.2167047182843D-01 -3.1980485024405D-01  6.6894219252643D-01
25  2.4000000000000D-01  6.6690209100876D-01 -3.3699578501376D-01  6.9007664258176D-01
26  2.5000000000000D-01  7.1248415183993D-01 -3.5331537910333D-01  7.0748498663623D-01
27  2.6000000000000D-01  7.5825805869693D-01 -3.6863878992654D-01  7.2100902146465D-01
28  2.7000000000000D-01  8.0406547119762D-01 -3.8284767355534D-01  7.3054146314738D-01
29  2.8000000000000D-01  8.4974885329823D-01 -3.9583069775573D-01  7.3602642371871D-01
30  2.9000000000000D-01  8.9515200577791D-01 -4.0748396173847D-01  7.3745911990588D-01
31  3.0000000000000D-01  9.4012058044160D-01 -4.1771132212674D-01  7.3488482351479D-01
32  3.1000000000000D-01  9.8450257463586D-01 -4.2642462604621D-01  7.2839707460633D-01