Re    ONCVPSP  r_core=  2.02  2.17  2.17  1.90
75.0000     29.0000      160317    zatom,zion,pspd
8   -1013   3     4   600     0    pspcod,pspxc,lmax,lloc,mmax,r2well
5.99000000  4.00000000  0.00000000    rchrg fchrg qchrg
2     2     2     2     0    nproj
0                 extension_switch
0                         2.7846221149078D+00 -2.4716839107971D-01
1  0.0000000000000D+00  5.2337578715367D-12  7.5310174763032D-11
2  1.0000000000000D-02  4.5232942992680D-02 -2.9293444745431D-02
3  2.0000000000000D-02  9.0417108268055D-02 -5.8409382818446D-02
4  3.0000000000000D-02  1.3550374049281D-01 -8.7171230094759D-02
5  4.0000000000000D-02  1.8044412930211D-01 -1.1540424314383D-01
6  5.0000000000000D-02  2.2518963228363D-01 -1.4293642858841D-01
7  6.0000000000000D-02  2.6969169855785D-01 -1.6959943933246D-01
8  7.0000000000000D-02  3.1390189314691D-01 -1.9522945336847D-01
9  8.0000000000000D-02  3.5777192231966D-01 -2.1966803095053D-01
10  9.0000000000000D-02  4.0125366009356D-01 -2.4276294601322D-01
11  1.0000000000000D-01  4.4429917606664D-01 -2.6436898782778D-01
12  1.1000000000000D-01  4.8686076474374D-01 -2.8434872901627D-01
13  1.2000000000000D-01  5.2889097651102D-01 -3.0257325619073D-01
14  1.3000000000000D-01  5.7034265040168D-01 -3.1892285964710D-01
15  1.4000000000000D-01  6.1116894878336D-01 -3.3328767872265D-01
16  1.5000000000000D-01  6.5132339408441D-01 -3.4556829961957D-01
17  1.6000000000000D-01  6.9075990766194D-01 -3.5567630270633D-01
18  1.7000000000000D-01  7.2943285089924D-01 -3.6353475653114D-01
19  1.8000000000000D-01  7.6729706860411D-01 -3.6907865601692D-01
20  1.9000000000000D-01  8.0430793476294D-01 -3.7225530255558D-01
21  2.0000000000000D-01  8.4042140068761D-01 -3.7302462397775D-01
22  2.1000000000000D-01  8.7559404557430D-01 -3.7135943264339D-01
23  2.2000000000000D-01  9.0978312947444D-01 -3.6724562017675D-01
24  2.3000000000000D-01  9.4294664865910D-01 -3.6068228765560D-01
25  2.4000000000000D-01  9.7504339333836D-01 -3.5168181035734D-01
26  2.5000000000000D-01  1.0060330076776D+00 -3.4026983646394D-01
27  2.6000000000000D-01  1.0358760520323D+00 -3.2648521943054D-01
28  2.7000000000000D-01  1.0645340673042D+00 -3.1037988402967D-01
29  2.8000000000000D-01  1.0919696412989D+00 -2.9201862639121D-01
30  2.9000000000000D-01  1.1181464769485D+00 -2.7147884866819D-01
31  3.0000000000000D-01  1.1430294622410D+00 -2.4885022926653D-01
32  3.1000000000000D-01  1.1665847416787D+00 -2.2423432988452D-01
33  3.2000000000000D-01  1.1887797890703D+00 -1.9774414091063D-01
34  3.3000000000000D-01  1.2095834814424D+00 -1.6950356702788D-01
35  3.4000000000000D-01  1.2289661738372D+00 -1.3964685516526D-01
36  3.5000000000000D-01  1.2468997747482D+00 -1.0831796722296D-01
37  3.6000000000000D-01  1.2633578219285D+00 -7.5669900274882D-02
38  3.7000000000000D-01  1.2783155582900D+00 -4.1863957218632D-02
39  3.8000000000000D-01  1.2917500075997D+00 -7.0689710996632D-03
40  3.9000000000000D-01  1.3036400496652D+00  2.8539513421282D-02
41  4.0000000000000D-01  1.3139664946884D+00  6.4780097758636D-02
42  4.1000000000000D-01  1.3227121564594D+00  1.0146642233680D-01
43  4.2000000000000D-01  1.3298619240479D+00  1.3840809065812D-01
44  4.3000000000000D-01  1.3354028316485D+00  1.7541162021086D-01
45  4.4000000000000D-01  1.3393241262239D+00  2.1228141576220D-01
46  4.5000000000000D-01  1.3416173325899D+00  2.4882076043672D-01
47  4.6000000000000D-01  1.3422763155802D+00  2.8483281985819D-01
48  4.7000000000000D-01  1.3412973389308D+00  3.2012165452945D-01
49  4.8000000000000D-01  1.3386791205220D+00  3.5449323554491D-01
50  4.9000000000000D-01  1.3344228836195D+00  3.8775645867107D-01
51  5.0000000000000D-01  1.3285324037604D+00  4.1972415179626D-01
52  5.1000000000000D-01  1.3210140509365D+00  4.5021407073723D-01
53  5.2000000000000D-01  1.3118768267352D+00  4.7904987840353D-01
54  5.3000000000000D-01  1.3011323961062D+00  5.0606210235513D-01
55  5.4000000000000D-01  1.2887951134393D+00  5.3108906584986D-01
56  5.5000000000000D-01  1.2748820426459D+00  5.5397778756052D-01
57  5.6000000000000D-01  1.2594129709582D+00  5.7458484525055D-01
58  5.7000000000000D-01  1.2424104161726D+00  5.9277719882952D-01
59  5.8000000000000D-01  1.2238996270882D+00  6.0843296836529D-01
60  5.9000000000000D-01  1.2039085769069D+00  6.2144216280940D-01
61  6.0000000000000D-01  1.1824679493898D+00  6.3170735539400D-01
62  6.1000000000000D-01  1.1596111175831D+00  6.3914430188272D-01
63  6.2000000000000D-01  1.1353741149576D+00  6.4368249810250D-01
64  6.3000000000000D-01  1.1097955988310D+00  6.4526567344960D-01
65  6.4000000000000D-01  1.0829168059693D+00  6.4385221734718D-01
66  6.5000000000000D-01  1.0547815002961D+00  6.3941553593431D-01
67  6.6000000000000D-01  1.0254359126682D+00  6.3194433658678D-01
68  6.7000000000000D-01  9.9492867270804D-01  6.2144283820473D-01
69  6.8000000000000D-01  9.6331073271476D-01  6.0793090555058D-01
70  6.9000000000000D-01  9.3063528371269D-01  5.9144410628376D-01
71  7.0000000000000D-01  8.9695766372595D-01  5.7203368971016D-01
72  7.1000000000000D-01  8.6233525840502D-01  5.4976648664640D-01
73  7.2000000000000D-01  8.2682739416465D-01  5.2472473018671D-01
74  7.3000000000000D-01  7.9049522402740D-01  4.9700579755624D-01
75  7.4000000000000D-01  7.5340160640172D-01  4.6672187363076D-01
76  7.5000000000000D-01  7.1561097705796D-01  4.3399953710297D-01
77  7.6000000000000D-01  6.7718921459931D-01  3.9897927067382D-01
78  7.7000000000000D-01  6.3820349975830D-01  3.6181489704367D-01
79  7.8000000000000D-01  5.9872216888171D-01  3.2267294286932D-01
80  7.9000000000000D-01  5.5881456199851D-01  2.8173193323834D-01
81  8.0000000000000D-01  5.1855086589575D-01  2.3918161958792D-01
82  8.1000000000000D-01  4.7800195265623D-01  1.9522214436029D-01
83  8.2000000000000D-01  4.3723921413969D-01  1.5006314603994D-01
84  8.3000000000000D-01  3.9633439291496D-01  1.0392280855449D-01
85  8.4000000000000D-01  3.5535941017463D-01  5.7026859342433D-02
86  8.5000000000000D-01  3.1438619118618D-01  9.6075206925944D-03
87  8.6000000000000D-01  2.7348648885322D-01 -3.8097580758225D-02
88  8.7000000000000D-01  2.3273170597872D-01 -8.5846541223779D-02
89  8.8000000000000D-01  1.9219271683703D-01 -1.3339433828186D-01
90  8.9000000000000D-01  1.5193968867488D-01 -1.8049401511182D-01
91  9.0000000000000D-01  1.1204190377157D-01 -2.2689788468172D-01
92  9.1000000000000D-01  7.2567582696258D-02 -2.7235874795582D-01
93  9.2000000000000D-01  3.3583709405162D-02 -3.1663112006731D-01
94  9.3000000000000D-01 -4.8441411766864D-03 -3.5947245830534D-01
95  9.4000000000000D-01 -4.2651972445321D-02 -4.0064438570132D-01
96  9.5000000000000D-01 -7.9777531639513D-02 -4.3991390396671D-01
97  9.6000000000000D-01 -1.1616047096130D-01 -4.7705458953461D-01
98  9.7000000000000D-01 -1.5174250367222D-01 -5.1184776648876D-01
99  9.8000000000000D-01 -1.8646755455510D-01 -5.4408365023071D-01
100  9.9000000000000D-01 -2.2028190414720D-01 -5.7356245583309D-01
101  1.0000000000000D+00 -2.5313432616903D-01 -6.0009546515820D-01
102  1.0100000000000D+00 -2.8497621759527D-01 -6.2350604698499D-01
103  1.0200000000000D+00 -3.1576172083824D-01 -6.4363062458196D-01
104  1.0300000000000D+00 -3.4544783754300D-01 -6.6031958539740D-01
105  1.0400000000000D+00 -3.7399453352031D-01 -6.7343812777560D-01
106  1.0500000000000D+00 -4.0136483437956D-01 -6.8286703991969D-01
107  1.0600000000000D+00 -4.2752491145628D-01 -6.8850340661735D-01
108  1.0700000000000D+00 -4.5244415766652D-01 -6.9026123958929D-01
109  1.0800000000000D+00 -4.7609525296190D-01 -6.8807202770789D-01
110  1.0900000000000D+00 -4.9845421909469D-01 -6.8188520366894D-01
111  1.1000000000000D+00 -5.1950046345165D-01 -6.7166852417004D-01
112  1.1100000000000D+00 -5.3921681175597D-01 -6.5740836104056D-01
113  1.1200000000000D+00 -5.5758952948466D-01 -6.3910990123819D-01
114  1.1300000000000D+00 -5.7460833189399D-01 -6.1679725406786D-01
115  1.1400000000000D+00 -5.9026638259204D-01 -5.9051346444012D-01
116  1.1500000000000D+00 -6.0456028065105D-01 -5.6032043151888D-01
117  1.1600000000000D+00 -6.1749003629904D-01 -5.2629873257797D-01
118  1.1700000000000D+00 -6.2905903527592D-01 -4.8854735234599D-01
119  1.1800000000000D+00 -6.3927399199035D-01 -4.4718331863623D-01
120  1.1900000000000D+00 -6.4814489166619D-01 -4.0234124559047D-01
121  1.2000000000000D+00 -6.5568492171757D-01 -3.5417278638346D-01
122  1.2100000000000D+00 -6.6191039262007D-01 -3.0284599752190D-01
123  1.2200000000000D+00 -6.6684064861886D-01 -2.4854461762878D-01
124  1.2300000000000D+00 -6.7049796864733D-01 -1.9146726394226D-01
125  1.2400000000000D+00 -6.7290745786531D-01 -1.3182655012726D-01
126  1.2500000000000D+00 -6.7409693027836D-01 -6.9848129541037D-02
127  1.2600000000000D+00 -6.7409678294450D-01 -5.7696685643336D-03
128  1.2700000000000D+00 -6.7293986229646D-01  6.0160245163073D-02
129  1.2800000000000D+00 -6.7066132314909D-01  1.2768325432906D-01
130  1.2900000000000D+00 -6.6729848100820D-01  1.9653243759130D-01
131  1.3000000000000D+00 -6.6289065830345D-01  2.6643356344325D-01
132  1.3100000000000D+00 -6.5747902520629D-01  3.3710638606355D-01
133  1.3200000000000D+00 -6.5110643572825D-01  4.0826597654516D-01
134  1.3300000000000D+00 -6.4381725979010D-01  4.7962408295217D-01
135  1.3400000000000D+00 -6.3565721199140D-01  5.5089051223231D-01
136  1.3500000000000D+00 -6.2667317781706D-01  6.2177452693711D-01
137  1.3600000000000D+00 -6.1691303801690D-01  6.9198624970847D-01
138  1.3700000000000D+00 -6.0642549192031D-01  7.6123806820689D-01
139  1.3800000000000D+00 -5.9525988042737D-01  8.2924603337099D-01
140  1.3900000000000D+00 -5.8346600944150D-01  8.9573124365327D-01
141  1.4000000000000D+00 -5.7109397447702D-01  9.6042120819571D-01
142  1.4100000000000D+00 -5.5819398718767D-01  1.0230511817831D+00
143  1.4200000000000D+00 -5.4481620454887D-01  1.0833654645439D+00
144  1.4300000000000D+00 -5.3101056137047D-01  1.1411186599584D+00
145  1.4400000000000D+00 -5.1682660688740D-01  1.1960768839888D+00
146  1.4500000000000D+00 -5.0231334602435D-01  1.2480189197374D+00
147  1.4600000000000D+00 -4.8751908603367D-01  1.2967373109550D+00
148  1.4700000000000D+00 -4.7249128908998D-01  1.3420393889380D+00
149  1.4800000000000D+00 -4.5727643139156D-01  1.3837482277097D+00
150  1.4900000000000D+00 -4.4191986940049D-01  1.4217035215119D+00
151  1.5000000000000D+00 -4.2646571356674D-01  1.4557623816681D+00
152  1.5100000000000D+00 -4.1095671020113D-01  1.4858000464971D+00
153  1.5200000000000D+00 -3.9543413170446D-01  1.5117105027951D+00
154  1.5300000000000D+00 -3.7993767569756D-01  1.5334070138389D+00
155  1.5400000000000D+00 -3.6450537326972D-01  1.5508225523210D+00
156  1.5500000000000D+00 -3.4917350664973D-01  1.5639101357131D+00
157  1.5600000000000D+00 -3.3397653658293D-01  1.5726430617740D+00
158  1.5700000000000D+00 -3.1894703943982D-01  1.5770150446424D+00
159  1.5800000000000D+00 -3.0411565442008D-01  1.5770402483855D+00
160  1.5900000000000D+00 -2.8951104058935D-01  1.5727532214802D+00
161  1.6000000000000D+00 -2.7515984417951D-01  1.5642087284017D+00
162  1.6100000000000D+00 -2.6108667564260D-01  1.5514814843901D+00
163  1.6200000000000D+00 -2.4731409687685D-01  1.5346657897114D+00
164  1.6300000000000D+00 -2.3386261797957D-01  1.5138750708904D+00
165  1.6400000000000D+00 -2.2075070381922D-01  1.4892413265725D+00
166  1.6500000000000D+00 -2.0799478974000D-01  1.4609144859009D+00
167  1.6600000000000D+00 -1.9560930652580D-01  1.4290616788167D+00
168  1.6700000000000D+00 -1.8360671390760D-01  1.3938664264438D+00
169  1.6800000000000D+00 -1.7199754259486D-01  1.3555277525093D+00
170  1.6900000000000D+00 -1.6079044407592D-01  1.3142592243268D+00
171  1.7000000000000D+00 -1.4999224805025D-01  1.2702879255365D+00
172  1.7100000000000D+00 -1.3960802668895D-01  1.2238533695751D+00
173  1.7200000000000D+00 -1.2964116549726D-01  1.1752063570225D+00
174  1.7300000000000D+00 -1.2009343992405D-01  1.1246077862334D+00
175  1.7400000000000D+00 -1.1096509742381D-01  1.0723274211660D+00
176  1.7500000000000D+00 -1.0225494400372D-01  1.0186426279737D+00
177  1.7600000000000D+00 -9.3960434982786D-02  9.6383708279698D-01
178  1.7700000000000D+00 -8.6077770397302D-02  9.0819942509804D-01
179  1.7800000000000D+00 -7.8601985954365D-02  8.5202207884654D-01
180  1.7900000000000D+00 -7.1527069706917D-02  7.9559951436305D-01
181  1.8000000000000D+00 -6.4846044948843D-02  7.3922727163552D-01
182  1.8100000000000D+00 -5.8551043243758D-02  6.8320147916966D-01
183  1.8200000000000D+00 -5.2633480352675D-02  6.2781557872062D-01
184  1.8300000000000D+00 -4.7084207363367D-02  5.7335758950669D-01
185  1.8400000000000D+00 -4.1893680991655D-02  5.2010759954515D-01
186  1.8500000000000D+00 -3.7052163230438D-02  4.6833457993776D-01
187  1.8600000000000D+00 -3.2549861848289D-02  4.1829472154494D-01
188  1.8700000000000D+00 -2.8377030118722D-02  3.7023093037069D-01
189  1.8800000000000D+00 -2.4524080830600D-02  3.2437188663578D-01
190  1.8900000000000D+00 -2.0981704930728D-02  2.8093071900980D-01
191  1.9000000000000D+00 -1.7740970717658D-02  2.4010421567141D-01
192  1.9100000000000D+00 -1.4793422087553D-02  2.0207190615432D-01
193  1.9200000000000D+00 -1.2131167828572D-02  1.6699528463738D-01
194  1.9300000000000D+00 -9.7469629114689D-03  1.3501711233894D-01
195  1.9400000000000D+00 -7.6342823021756D-03  1.0626080142776D-01
196  1.9500000000000D+00 -5.7879722894243D-03  8.0837784894208D-02
197  1.9600000000000D+00 -4.2029555454675D-03  5.8828900814763D-02
198  1.9700000000000D+00 -2.8723187858482D-03  4.0257676564232D-02
199  1.9800000000000D+00 -1.7880053086461D-03  2.5094688283415D-02
200  1.9900000000000D+00 -9.6730215553402D-04  1.3632009271285D-02
201  2.0000000000000D+00 -4.1888865478491D-04  6.0135171902140D-03
202  2.0100000000000D+00 -1.1187865673518D-04  1.7752144279892D-03
203  2.0200000000000D+00  1.5951704046048D-05 -1.2902621987913D-05
204  2.0300000000000D+00  3.3937220352978D-05 -3.5218169478116D-04
205  2.0400000000000D+00  6.4663273625929D-06 -7.2265683357786D-05
206  2.0500000000000D+00 -1.0299945164414D-05  1.1946426204678D-04
207  2.0600000000000D+00 -7.5733086741565D-06  8.9311775488478D-05
208  2.0700000000000D+00  9.7243250070236D-07 -1.0807130176474D-05
209  2.0800000000000D+00  1.9926073896687D-06 -2.2450572113919D-05
210  2.0900000000000D+00  3.3297982222583D-07 -3.7885918290365D-06
211  2.1000000000000D+00 -3.1954654269995D-10 -5.7356032000384D-07
212  2.1100000000000D+00 -2.3935202758998D-10 -4.2961762120201D-07
213  2.1200000000000D+00  0.0000000000000D+00  0.0000000000000D+00
214  2.1300000000000D+00  0.0000000000000D+00  0.0000000000000D+00
215  2.1400000000000D+00  0.0000000000000D+00  0.0000000000000D+00
216  2.1500000000000D+00  0.0000000000000D+00  0.0000000000000D+00
217  2.1600000000000D+00  0.0000000000000D+00  0.0000000000000D+00
218  2.1700000000000D+00  0.0000000000000D+00  0.0000000000000D+00
219  2.1800000000000D+00  0.0000000000000D+00  0.0000000000000D+00
220  2.1900000000000D+00  0.0000000000000D+00  0.0000000000000D+00
221  2.2000000000000D+00  0.0000000000000D+00  0.0000000000000D+00
222  2.2100000000000D+00  0.0000000000000D+00  0.0000000000000D+00
223  2.2200000000000D+00  0.0000000000000D+00  0.0000000000000D+00
224  2.2300000000000D+00  0.0000000000000D+00  0.0000000000000D+00
225  2.2400000000000D+00  0.0000000000000D+00  0.0000000000000D+00
226  2.2500000000000D+00  0.0000000000000D+00  0.0000000000000D+00
227  2.2600000000000D+00  0.0000000000000D+00  0.0000000000000D+00
228  2.2700000000000D+00  0.0000000000000D+00  0.0000000000000D+00
229  2.2800000000000D+00  0.0000000000000D+00  0.0000000000000D+00
230  2.2900000000000D+00  0.0000000000000D+00  0.0000000000000D+00
231  2.3000000000000D+00  0.0000000000000D+00  0.0000000000000D+00
232  2.3100000000000D+00  0.0000000000000D+00  0.0000000000000D+00
233  2.3200000000000D+00  0.0000000000000D+00  0.0000000000000D+00
234  2.3300000000000D+00  0.0000000000000D+00  0.0000000000000D+00
235  2.3400000000000D+00  0.0000000000000D+00  0.0000000000000D+00
236  2.3500000000000D+00  0.0000000000000D+00  0.0000000000000D+00
237  2.3600000000000D+00  0.0000000000000D+00  0.0000000000000D+00
238  2.3700000000000D+00  0.0000000000000D+00  0.0000000000000D+00
239  2.3800000000000D+00  0.0000000000000D+00  0.0000000000000D+00
240  2.3900000000000D+00  0.0000000000000D+00  0.0000000000000D+00
241  2.4000000000000D+00  0.0000000000000D+00  0.0000000000000D+00
242  2.4100000000000D+00  0.0000000000000D+00  0.0000000000000D+00
243  2.4200000000000D+00  0.0000000000000D+00  0.0000000000000D+00
244  2.4300000000000D+00  0.0000000000000D+00  0.0000000000000D+00
245  2.4400000000000D+00  0.0000000000000D+00  0.0000000000000D+00
246  2.4500000000000D+00  0.0000000000000D+00  0.0000000000000D+00
247  2.4600000000000D+00  0.0000000000000D+00  0.0000000000000D+00
248  2.4700000000000D+00  0.0000000000000D+00  0.0000000000000D+00
249  2.4800000000000D+00  0.0000000000000D+00  0.0000000000000D+00
250  2.4900000000000D+00  0.0000000000000D+00  0.0000000000000D+00
251  2.5000000000000D+00  0.0000000000000D+00  0.0000000000000D+00
252  2.5100000000000D+00  0.0000000000000D+00  0.0000000000000D+00
253  2.5200000000000D+00  0.0000000000000D+00  0.0000000000000D+00
254  2.5300000000000D+00  0.0000000000000D+00  0.0000000000000D+00
255  2.5400000000000D+00  0.0000000000000D+00  0.0000000000000D+00
256  2.5500000000000D+00  0.0000000000000D+00  0.0000000000000D+00
257  2.5600000000000D+00  0.0000000000000D+00  0.0000000000000D+00
258  2.5700000000000D+00  0.0000000000000D+00  0.0000000000000D+00
259  2.5800000000000D+00  0.0000000000000D+00  0.0000000000000D+00
260  2.5900000000000D+00  0.0000000000000D+00  0.0000000000000D+00
261  2.6000000000000D+00  0.0000000000000D+00  0.0000000000000D+00
262  2.6100000000000D+00  0.0000000000000D+00  0.0000000000000D+00
263  2.6200000000000D+00  0.0000000000000D+00  0.0000000000000D+00
264  2.6300000000000D+00  0.0000000000000D+00  0.0000000000000D+00
265  2.6400000000000D+00  0.0000000000000D+00  0.0000000000000D+00
266  2.6500000000000D+00  0.0000000000000D+00  0.0000000000000D+00
267  2.6600000000000D+00  0.0000000000000D+00  0.0000000000000D+00
268  2.6700000000000D+00  0.0000000000000D+00  0.0000000000000D+00
269  2.6800000000000D+00  0.0000000000000D+00  0.0000000000000D+00
270  2.6900000000000D+00  0.0000000000000D+00  0.0000000000000D+00
271  2.7000000000000D+00  0.0000000000000D+00  0.0000000000000D+00
272  2.7100000000000D+00  0.0000000000000D+00  0.0000000000000D+00
273  2.7200000000000D+00  0.0000000000000D+00  0.0000000000000D+00
274  2.7300000000000D+00  0.0000000000000D+00  0.0000000000000D+00
275  2.7400000000000D+00  0.0000000000000D+00  0.0000000000000D+00
276  2.7500000000000D+00  0.0000000000000D+00  0.0000000000000D+00
277  2.7600000000000D+00  0.0000000000000D+00  0.0000000000000D+00
278  2.7700000000000D+00  0.0000000000000D+00  0.0000000000000D+00
279  2.7800000000000D+00  0.0000000000000D+00  0.0000000000000D+00
280  2.7900000000000D+00  0.0000000000000D+00  0.0000000000000D+00
281  2.8000000000000D+00  0.0000000000000D+00  0.0000000000000D+00
282  2.8100000000000D+00  0.0000000000000D+00  0.0000000000000D+00
283  2.8200000000000D+00  0.0000000000000D+00  0.0000000000000D+00
284  2.8300000000000D+00  0.0000000000000D+00  0.0000000000000D+00
285  2.8400000000000D+00  0.0000000000000D+00  0.0000000000000D+00
286  2.8500000000000D+00  0.0000000000000D+00  0.0000000000000D+00
287  2.8600000000000D+00  0.0000000000000D+00  0.0000000000000D+00
288  2.8700000000000D+00  0.0000000000000D+00  0.0000000000000D+00
289  2.8800000000000D+00  0.0000000000000D+00  0.0000000000000D+00
290  2.8900000000000D+00  0.0000000000000D+00  0.0000000000000D+00
291  2.9000000000000D+00  0.0000000000000D+00  0.0000000000000D+00
292  2.9100000000000D+00  0.0000000000000D+00  0.0000000000000D+00
293  2.9200000000000D+00  0.0000000000000D+00  0.0000000000000D+00
294  2.9300000000000D+00  0.0000000000000D+00  0.0000000000000D+00
295  2.9400000000000D+00  0.0000000000000D+00  0.0000000000000D+00
296  2.9500000000000D+00  0.0000000000000D+00  0.0000000000000D+00
297  2.9600000000000D+00  0.0000000000000D+00  0.0000000000000D+00
298  2.9700000000000D+00  0.0000000000000D+00  0.0000000000000D+00
299  2.9800000000000D+00  0.0000000000000D+00  0.0000000000000D+00
300  2.9900000000000D+00  0.0000000000000D+00  0.0000000000000D+00
301  3.0000000000000D+00  0.0000000000000D+00  0.0000000000000D+00
302  3.0100000000000D+00  0.0000000000000D+00  0.0000000000000D+00
303  3.0200000000000D+00  0.0000000000000D+00  0.0000000000000D+00
304  3.0300000000000D+00  0.0000000000000D+00  0.0000000000000D+00
305  3.0400000000000D+00  0.0000000000000D+00  0.0000000000000D+00
306  3.0500000000000D+00  0.0000000000000D+00  0.0000000000000D+00
307  3.0600000000000D+00  0.0000000000000D+00  0.0000000000000D+00
308  3.0700000000000D+00  0.0000000000000D+00  0.0000000000000D+00
309  3.0800000000000D+00  0.0000000000000D+00  0.0000000000000D+00
310  3.0900000000000D+00  0.0000000000000D+00  0.0000000000000D+00
311  3.1000000000000D+00  0.0000000000000D+00  0.0000000000000D+00
312  3.1100000000000D+00  0.0000000000000D+00  0.0000000000000D+00
313  3.1200000000000D+00  0.0000000000000D+00  0.0000000000000D+00
314  3.1300000000000D+00  0.0000000000000D+00  0.0000000000000D+00
315  3.1400000000000D+00  0.0000000000000D+00  0.0000000000000D+00
316  3.1500000000000D+00  0.0000000000000D+00  0.0000000000000D+00
317  3.1600000000000D+00  0.0000000000000D+00  0.0000000000000D+00
318  3.1700000000000D+00  0.0000000000000D+00  0.0000000000000D+00
319  3.1800000000000D+00  0.0000000000000D+00  0.0000000000000D+00
320  3.1900000000000D+00  0.0000000000000D+00  0.0000000000000D+00
321  3.2000000000000D+00  0.0000000000000D+00  0.0000000000000D+00
322  3.2100000000000D+00  0.0000000000000D+00  0.0000000000000D+00
323  3.2200000000000D+00  0.0000000000000D+00  0.0000000000000D+00
324  3.2300000000000D+00  0.0000000000000D+00  0.0000000000000D+00
325  3.2400000000000D+00  0.0000000000000D+00  0.0000000000000D+00
326  3.2500000000000D+00  0.0000000000000D+00  0.0000000000000D+00
327  3.2600000000000D+00  0.0000000000000D+00  0.0000000000000D+00
328  3.2700000000000D+00  0.0000000000000D+00  0.0000000000000D+00
329  3.2800000000000D+00  0.0000000000000D+00  0.0000000000000D+00
330  3.2900000000000D+00  0.0000000000000D+00  0.0000000000000D+00
331  3.3000000000000D+00  0.0000000000000D+00  0.0000000000000D+00
332  3.3100000000000D+00  0.0000000000000D+00  0.0000000000000D+00
333  3.3200000000000D+00  0.0000000000000D+00  0.0000000000000D+00
334  3.3300000000000D+00  0.0000000000000D+00  0.0000000000000D+00
335  3.3400000000000D+00  0.0000000000000D+00  0.0000000000000D+00
336  3.3500000000000D+00  0.0000000000000D+00  0.0000000000000D+00
337  3.3600000000000D+00  0.0000000000000D+00  0.0000000000000D+00
338  3.3700000000000D+00  0.0000000000000D+00  0.0000000000000D+00
339  3.3800000000000D+00  0.0000000000000D+00  0.0000000000000D+00
340  3.3900000000000D+00  0.0000000000000D+00  0.0000000000000D+00
341  3.4000000000000D+00  0.0000000000000D+00  0.0000000000000D+00
342  3.4100000000000D+00  0.0000000000000D+00  0.0000000000000D+00
343  3.4200000000000D+00  0.0000000000000D+00  0.0000000000000D+00
344  3.4300000000000D+00  0.0000000000000D+00  0.0000000000000D+00
345  3.4400000000000D+00  0.0000000000000D+00  0.0000000000000D+00
346  3.4500000000000D+00  0.0000000000000D+00  0.0000000000000D+00
347  3.4600000000000D+00  0.0000000000000D+00  0.0000000000000D+00
348  3.4700000000000D+00  0.0000000000000D+00  0.0000000000000D+00
349  3.4800000000000D+00  0.0000000000000D+00  0.0000000000000D+00
350  3.4900000000000D+00  0.0000000000000D+00  0.0000000000000D+00
351  3.5000000000000D+00  0.0000000000000D+00  0.0000000000000D+00
352  3.5100000000000D+00  0.0000000000000D+00  0.0000000000000D+00
353  3.5200000000000D+00  0.0000000000000D+00  0.0000000000000D+00
354  3.5300000000000D+00  0.0000000000000D+00  0.0000000000000D+00
355  3.5400000000000D+00  0.0000000000000D+00  0.0000000000000D+00
356  3.5500000000000D+00  0.0000000000000D+00  0.0000000000000D+00
357  3.5600000000000D+00  0.0000000000000D+00  0.0000000000000D+00
358  3.5700000000000D+00  0.0000000000000D+00  0.0000000000000D+00
359  3.5800000000000D+00  0.0000000000000D+00  0.0000000000000D+00
360  3.5900000000000D+00  0.0000000000000D+00  0.0000000000000D+00
361  3.6000000000000D+00  0.0000000000000D+00  0.0000000000000D+00
362  3.6100000000000D+00  0.0000000000000D+00  0.0000000000000D+00
363  3.6200000000000D+00  0.0000000000000D+00  0.0000000000000D+00
364  3.6300000000000D+00  0.0000000000000D+00  0.0000000000000D+00
365  3.6400000000000D+00  0.0000000000000D+00  0.0000000000000D+00
366  3.6500000000000D+00  0.0000000000000D+00  0.0000000000000D+00
367  3.6600000000000D+00  0.0000000000000D+00  0.0000000000000D+00
368  3.6700000000000D+00  0.0000000000000D+00  0.0000000000000D+00
369  3.6800000000000D+00  0.0000000000000D+00  0.0000000000000D+00
370  3.6900000000000D+00  0.0000000000000D+00  0.0000000000000D+00
371  3.7000000000000D+00  0.0000000000000D+00  0.0000000000000D+00
372  3.7100000000000D+00  0.0000000000000D+00  0.0000000000000D+00
373  3.7200000000000D+00  0.0000000000000D+00  0.0000000000000D+00
374  3.7300000000000D+00  0.0000000000000D+00  0.0000000000000D+00
375  3.7400000000000D+00  0.0000000000000D+00  0.0000000000000D+00
376  3.7500000000000D+00  0.0000000000000D+00  0.0000000000000D+00
377  3.7600000000000D+00  0.0000000000000D+00  0.0000000000000D+00
378  3.7700000000000D+00  0.0000000000000D+00  0.0000000000000D+00
379  3.7800000000000D+00  0.0000000000000D+00  0.0000000000000D+00
380  3.7900000000000D+00  0.0000000000000D+00  0.0000000000000D+00
381  3.8000000000000D+00  0.0000000000000D+00  0.0000000000000D+00
382  3.8100000000000D+00  0.0000000000000D+00  0.0000000000000D+00
383  3.8200000000000D+00  0.0000000000000D+00  0.0000000000000D+00
384  3.8300000000000D+00  0.0000000000000D+00  0.0000000000000D+00
385  3.8400000000000D+00  0.0000000000000D+00  0.0000000000000D+00
386  3.8500000000000D+00  0.0000000000000D+00  0.0000000000000D+00
387  3.8600000000000D+00  0.0000000000000D+00  0.0000000000000D+00
388  3.8700000000000D+00  0.0000000000000D+00  0.0000000000000D+00
389  3.8800000000000D+00  0.0000000000000D+00  0.0000000000000D+00
390  3.8900000000000D+00  0.0000000000000D+00  0.0000000000000D+00
391  3.9000000000000D+00  0.0000000000000D+00  0.0000000000000D+00
392  3.9100000000000D+00  0.0000000000000D+00  0.0000000000000D+00
393  3.9200000000000D+00  0.0000000000000D+00  0.0000000000000D+00
394  3.9300000000000D+00  0.0000000000000D+00  0.0000000000000D+00
395  3.9400000000000D+00  0.0000000000000D+00  0.0000000000000D+00
396  3.9500000000000D+00  0.0000000000000D+00  0.0000000000000D+00
397  3.9600000000000D+00  0.0000000000000D+00  0.0000000000000D+00
398  3.9700000000000D+00  0.0000000000000D+00  0.0000000000000D+00
399  3.9800000000000D+00  0.0000000000000D+00  0.0000000000000D+00
400  3.9900000000000D+00  0.0000000000000D+00  0.0000000000000D+00
401  4.0000000000000D+00  0.0000000000000D+00  0.0000000000000D+00
402  4.0100000000000D+00  0.0000000000000D+00  0.0000000000000D+00
403  4.0200000000000D+00  0.0000000000000D+00  0.0000000000000D+00
404  4.0300000000000D+00  0.0000000000000D+00  0.0000000000000D+00
405  4.0400000000000D+00  0.0000000000000D+00  0.0000000000000D+00
406  4.0500000000000D+00  0.0000000000000D+00  0.0000000000000D+00
407  4.0600000000000D+00  0.0000000000000D+00  0.0000000000000D+00
408  4.0700000000000D+00  0.0000000000000D+00  0.0000000000000D+00
409  4.0800000000000D+00  0.0000000000000D+00  0.0000000000000D+00
410  4.0900000000000D+00  0.0000000000000D+00  0.0000000000000D+00
411  4.1000000000000D+00  0.0000000000000D+00  0.0000000000000D+00
412  4.1100000000000D+00  0.0000000000000D+00  0.0000000000000D+00
413  4.1200000000000D+00  0.0000000000000D+00  0.0000000000000D+00
414  4.1300000000000D+00  0.0000000000000D+00  0.0000000000000D+00
415  4.1400000000000D+00  0.0000000000000D+00  0.0000000000000D+00
416  4.1500000000000D+00  0.0000000000000D+00  0.0000000000000D+00
417  4.1600000000000D+00  0.0000000000000D+00  0.0000000000000D+00
418  4.1700000000000D+00  0.0000000000000D+00  0.0000000000000D+00
419  4.1800000000000D+00  0.0000000000000D+00  0.0000000000000D+00
420  4.1900000000000D+00  0.0000000000000D+00  0.0000000000000D+00
421  4.2000000000000D+00  0.0000000000000D+00  0.0000000000000D+00
422  4.2100000000000D+00  0.0000000000000D+00  0.0000000000000D+00
423  4.2200000000000D+00  0.0000000000000D+00  0.0000000000000D+00
424  4.2300000000000D+00  0.0000000000000D+00  0.0000000000000D+00
425  4.2400000000000D+00  0.0000000000000D+00  0.0000000000000D+00
426  4.2500000000000D+00  0.0000000000000D+00  0.0000000000000D+00
427  4.2600000000000D+00  0.0000000000000D+00  0.0000000000000D+00
428  4.2700000000000D+00  0.0000000000000D+00  0.0000000000000D+00
429  4.2800000000000D+00  0.0000000000000D+00  0.0000000000000D+00
430  4.2900000000000D+00  0.0000000000000D+00  0.0000000000000D+00
431  4.3000000000000D+00  0.0000000000000D+00  0.0000000000000D+00
432  4.3100000000000D+00  0.0000000000000D+00  0.0000000000000D+00
433  4.3200000000000D+00  0.0000000000000D+00  0.0000000000000D+00
434  4.3300000000000D+00  0.0000000000000D+00  0.0000000000000D+00
435  4.3400000000000D+00  0.0000000000000D+00  0.0000000000000D+00
436  4.3500000000000D+00  0.0000000000000D+00  0.0000000000000D+00
437  4.3600000000000D+00  0.0000000000000D+00  0.0000000000000D+00
438  4.3700000000000D+00  0.0000000000000D+00  0.0000000000000D+00
439  4.3800000000000D+00  0.0000000000000D+00  0.0000000000000D+00
440  4.3900000000000D+00  0.0000000000000D+00  0.0000000000000D+00
441  4.4000000000000D+00  0.0000000000000D+00  0.0000000000000D+00
442  4.4100000000000D+00  0.0000000000000D+00  0.0000000000000D+00
443  4.4200000000000D+00  0.0000000000000D+00  0.0000000000000D+00