Re    ONCVPSP  r_core=  2.56  2.17  2.17
75.0000     13.0000      160310    zatom,zion,pspd
8   -1013   2     4   600     0    pspcod,pspxc,lmax,lloc,mmax,r2well
5.99000000  4.00000000  0.00000000    rchrg fchrg qchrg
2     2     2     0     0    nproj
0                 extension_switch
0                         4.1515965048152D+00  4.9980909635411D-01
1  0.0000000000000D+00 -1.7404966357049D-12  2.1509183323332D-12
2  1.0000000000000D-02  2.1975641935489D-02 -2.3993068912249D-02
3  2.0000000000000D-02  4.3922593364275D-02 -4.7938923682315D-02
4  3.0000000000000D-02  6.5812240592470D-02 -7.1790463720720D-02
5  4.0000000000000D-02  8.7616123348834D-02 -9.5500815266531D-02
6  5.0000000000000D-02  1.0930601098906D-01 -1.1902344410998D-01
7  6.0000000000000D-02  1.3085397809286D-01 -1.4231226748659D-01
8  7.0000000000000D-02  1.5223247925344D-01 -1.6532176486919D-01
9  8.0000000000000D-02  1.7341442286074D-01 -1.8800708738612D-01
10  9.0000000000000D-02  1.9437324368204D-01 -2.1032416559699D-01
11  1.0000000000000D-01  2.1508297404595D-01 -2.3222981536004D-01
12  1.1000000000000D-01  2.3551831343907D-01 -2.5368184152932D-01
13  1.2000000000000D-01  2.5565469632786D-01 -2.7463913922394D-01
14  1.3000000000000D-01  2.7546835802225D-01 -2.9506179241645D-01
15  1.4000000000000D-01  2.9493639840183D-01 -3.1491116959265D-01
16  1.5000000000000D-01  3.1403684332998D-01 -3.3415001624128D-01
17  1.6000000000000D-01  3.3274870358668D-01 -3.5274254393788D-01
18  1.7000000000000D-01  3.5105203115607D-01 -3.7065451579451D-01
19  1.8000000000000D-01  3.6892797271078D-01 -3.8785332805399D-01
20  1.9000000000000D-01  3.8635882014139D-01 -4.0430808761555D-01
21  2.0000000000000D-01  4.0332805798603D-01 -4.1998968528695D-01
22  2.1000000000000D-01  4.1982040762219D-01 -4.3487086456709D-01
23  2.2000000000000D-01  4.3582186809027D-01 -4.4892628577277D-01
24  2.3000000000000D-01  4.5131975342604D-01 -4.6213258533270D-01
25  2.4000000000000D-01  4.6630272638758D-01 -4.7446843008266D-01
26  2.5000000000000D-01  4.8076082847039D-01 -4.8591456640635D-01
27  2.6000000000000D-01  4.9468550611331D-01 -4.9645386407761D-01
28  2.7000000000000D-01  5.0806963300709D-01 -5.0607135467181D-01
29  2.8000000000000D-01  5.2090752842644D-01 -5.1475426442604D-01
30  2.9000000000000D-01  5.3319497151660D-01 -5.2249204144044D-01
31  3.0000000000000D-01  5.4492921147474D-01 -5.2927637712593D-01
32  3.1000000000000D-01  5.5610897357729D-01 -5.3510122181713D-01
33  3.2000000000000D-01  5.6673446101414D-01 -5.3996279448273D-01
34  3.3000000000000D-01  5.7680735250173D-01 -5.4385958647983D-01
35  3.4000000000000D-01  5.8633079565733D-01 -5.4679235931301D-01
36  3.5000000000000D-01  5.9530939612828D-01 -5.4876413637374D-01
37  3.6000000000000D-01  6.0374920248056D-01 -5.4978018865040D-01
38  3.7000000000000D-01  6.1165768686272D-01 -5.4984801441467D-01
39  3.8000000000000D-01  6.1904372147206D-01 -5.4897731290510D-01
40  3.9000000000000D-01  6.2591755086179D-01 -5.4717995204459D-01
41  4.0000000000000D-01  6.3229076013893D-01 -5.4446993024382D-01
42  4.1000000000000D-01  6.3817623911439D-01 -5.4086333235879D-01
43  4.2000000000000D-01  6.4358814247809D-01 -5.3637827988640D-01
44  4.3000000000000D-01  6.4854184608320D-01 -5.3103487549772D-01
45  4.4000000000000D-01  6.5305389943520D-01 -5.2485514202495D-01
46  4.5000000000000D-01  6.5714197449235D-01 -5.1786295603341D-01
47  4.6000000000000D-01  6.6082481089565D-01 -5.1008397612605D-01
48  4.7000000000000D-01  6.6412215775698D-01 -5.0154556614336D-01
49  4.8000000000000D-01  6.6705471214504D-01 -4.9227671343730D-01
50  4.9000000000000D-01  6.6964405441919D-01 -4.8230794241258D-01
51  5.0000000000000D-01  6.7191258057173D-01 -4.7167122354433D-01
52  5.1000000000000D-01  6.7388343174873D-01 -4.6039987809500D-01
53  5.2000000000000D-01  6.7558042112974D-01 -4.4852847876837D-01
54  5.3000000000000D-01  6.7702795835566D-01 -4.3609274655176D-01
55  5.4000000000000D-01  6.7825097170300D-01 -4.2312944401147D-01
56  5.5000000000000D-01  6.7927482821146D-01 -4.0967626531883D-01
57  5.6000000000000D-01  6.8012525197969D-01 -3.9577172329713D-01
58  5.7000000000000D-01  6.8082824085159D-01 -3.8145503379075D-01
59  5.8000000000000D-01  6.8140998172297D-01 -3.6676599766956D-01
60  5.9000000000000D-01  6.8189676470416D-01 -3.5174488079126D-01
61  6.0000000000000D-01  6.8231489638108D-01 -3.3643229225463D-01
62  6.1000000000000D-01  6.8269061242181D-01 -3.2086906128484D-01
63  6.2000000000000D-01  6.8304998978083D-01 -3.0509611310027D-01
64  6.3000000000000D-01  6.8341885875721D-01 -2.8915434411736D-01
65  6.4000000000000D-01  6.8382271516602D-01 -2.7308449685560D-01
66  6.5000000000000D-01  6.8428663288558D-01 -2.5692703491096D-01
67  6.6000000000000D-01  6.8483517704439D-01 -2.4072201836892D-01
68  6.7000000000000D-01  6.8549231811346D-01 -2.2450898003260D-01
69  6.8000000000000D-01  6.8628134716971D-01 -2.0832680284259D-01
70  6.9000000000000D-01  6.8722479259623D-01 -1.9221359886667D-01
71  7.0000000000000D-01  6.8834433848361D-01 -1.7620659023692D-01
72  7.1000000000000D-01  6.8966074499526D-01 -1.6034199241094D-01
73  7.2000000000000D-01  6.9119377095624D-01 -1.4465490013067D-01
74  7.3000000000000D-01  6.9296209892207D-01 -1.2917917644955D-01
75  7.4000000000000D-01  6.9498326297951D-01 -1.1394734519285D-01
76  7.5000000000000D-01  6.9727357952600D-01 -9.8990487210702D-02
77  7.6000000000000D-01  6.9984808126861D-01 -8.4338140775795D-02
78  7.7000000000000D-01  7.0272045467633D-01 -7.0018206468914D-02
79  7.8000000000000D-01  7.0590298111219D-01 -5.6056856886205D-02
80  7.9000000000000D-01  7.0940648186296D-01 -4.2478451490939D-02
81  8.0000000000000D-01  7.1324026727505D-01 -2.9305456920264D-02
82  8.1000000000000D-01  7.1741209019540D-01 -1.6558373044385D-02
83  8.2000000000000D-01  7.2192810390508D-01 -4.2556650611890D-03
84  8.3000000000000D-01  7.2679282472211D-01  7.5862981064900D-03
85  8.4000000000000D-01  7.3200909943757D-01  1.8953298860305D-02
86  8.5000000000000D-01  7.3757807773638D-01  2.9833319189318D-02
87  8.6000000000000D-01  7.4349918974038D-01  4.0216581932451D-02
88  8.7000000000000D-01  7.4977012879732D-01  5.0095584845851D-02
89  8.8000000000000D-01  7.5638683962458D-01  5.9465127301160D-02
90  8.9000000000000D-01  7.6334351190102D-01  6.8322329462615D-02
91  9.0000000000000D-01  7.7063257938470D-01  7.6666643812783D-02
92  9.1000000000000D-01  7.7824472461779D-01  8.4499858919999D-02
93  9.2000000000000D-01  7.8616888926340D-01  9.1826095364534D-02
94  9.3000000000000D-01  7.9439229010190D-01  9.8651793764531D-02
95  9.4000000000000D-01  8.0290044069688D-01  1.0498569486826D-01
96  9.5000000000000D-01  8.1167717872338D-01  1.1083881170414D-01
97  9.6000000000000D-01  8.2070469893287D-01  1.1622439380613D-01
98  9.7000000000000D-01  8.2996359171178D-01  1.2115788355817D-01
99  9.8000000000000D-01  8.3943288717192D-01  1.2565686472756D-01
100  9.9000000000000D-01  8.4909010469295D-01  1.2974100328415D-01
101  1.0000000000000D+00  8.5891130781919D-01  1.3343198062817D-01
102  1.0100000000000D+00  8.6887116439458D-01  1.3675341937644D-01
103  1.0200000000000D+00  8.7894301180193D-01  1.3973080188319D-01
104  1.0300000000000D+00  8.8909892715434D-01  1.4239138169778D-01
105  1.0400000000000D+00  8.9930980227032D-01  1.4476408818682D-01
106  1.0500000000000D+00  9.0954542324541D-01  1.4687942457506D-01
107  1.0600000000000D+00  9.1977455441747D-01  1.4876935968301D-01
108  1.0700000000000D+00  9.2996502650618D-01  1.5046721366418D-01
109  1.0800000000000D+00  9.4008382869058D-01  1.5200753806925D-01
110  1.0900000000000D+00  9.5009720437556D-01  1.5342599058458D-01
111  1.1000000000000D+00  9.5997075038062D-01  1.5475920481805D-01
112  1.1100000000000D+00  9.6966951927243D-01  1.5604465552358D-01
113  1.1200000000000D+00  9.7915812454848D-01  1.5732051967706D-01
114  1.1300000000000D+00  9.8840084836717D-01  1.5862553383414D-01
115  1.1400000000000D+00  9.9736175150867D-01  1.5999884821774D-01
116  1.1500000000000D+00  1.0060047852387D+00  1.6147987800098D-01
117  1.1600000000000D+00  1.0142939047388D+00  1.6310815226507D-01
118  1.1700000000000D+00  1.0221931837586D+00  1.6492316112365D-01
119  1.1800000000000D+00  1.0296669301368D+00  1.6696420151900D-01
120  1.1900000000000D+00  1.0366798018311D+00  1.6927022220549D-01
121  1.2000000000000D+00  1.0431969230920D+00  1.7187966844335D-01
122  1.2100000000000D+00  1.0491840004132D+00  1.7483032693216D-01
123  1.2200000000000D+00  1.0546074378842D+00  1.7815917152108D-01
124  1.2300000000000D+00  1.0594344515715D+00  1.8190221023375D-01
125  1.2400000000000D+00  1.0636331825549D+00  1.8609433414780D-01
126  1.2500000000000D+00  1.0671728082428D+00  1.9076916867005D-01
127  1.2600000000000D+00  1.0700236515960D+00  1.9595892774384D-01
128  1.2700000000000D+00  1.0721572878892D+00  2.0169427152168D-01
129  1.2800000000000D+00  1.0735466486461D+00  2.0800416803356D-01
130  1.2900000000000D+00  1.0741661223886D+00  2.1491575936601D-01
131  1.3000000000000D+00  1.0739916518488D+00  2.2245423286307D-01
132  1.3100000000000D+00  1.0730008272960D+00  2.3064269785159D-01
133  1.3200000000000D+00  1.0711729756502D+00  2.3950206836468D-01
134  1.3300000000000D+00  1.0684892450526D+00  2.4905095234051D-01
135  1.3400000000000D+00  1.0649326845788D+00  2.5930554774974D-01
136  1.3500000000000D+00  1.0604883188083D+00  2.7027954606554D-01
137  1.3600000000000D+00  1.0551432169458D+00  2.8198404351431D-01
138  1.3700000000000D+00  1.0488865562377D+00  2.9442746047684D-01
139  1.3800000000000D+00  1.0417096794347D+00  3.0761546939758D-01
140  1.3900000000000D+00  1.0336061460392D+00  3.2155093157509D-01
141  1.4000000000000D+00  1.0245717771549D+00  3.3623384309651D-01
142  1.4100000000000D+00  1.0146046937108D+00  3.5166129023803D-01
143  1.4200000000000D+00  1.0037053478866D+00  3.6782741457549D-01
144  1.4300000000000D+00  9.9187654760799D-01  3.8472338799063D-01
145  1.4400000000000D+00  9.7912347392077D-01  4.0233739783855D-01
146  1.4500000000000D+00  9.6545369119534D-01  4.2065464233822D-01
147  1.4600000000000D+00  9.5087715001470D-01  4.3965733638829D-01
148  1.4700000000000D+00  9.3540618270618D-01  4.5932472785324D-01
149  1.4800000000000D+00  9.1905549148218D-01  4.7963312435606D-01
150  1.4900000000000D+00  9.0184212911822D-01  5.0055593066955D-01
151  1.5000000000000D+00  8.8378547226358D-01  5.2206369654730D-01
152  1.5100000000000D+00  8.6490718729645D-01  5.4412417511082D-01
153  1.5200000000000D+00  8.4523118889592D-01  5.6670239151775D-01
154  1.5300000000000D+00  8.2478359131298D-01  5.8976072192248D-01
155  1.5400000000000D+00  8.0359265250377D-01  6.1325898246707D-01
156  1.5500000000000D+00  7.8168871123284D-01  6.3715452812495D-01
157  1.5600000000000D+00  7.5910411727674D-01  6.6140236118505D-01
158  1.5700000000000D+00  7.3587315496661D-01  6.8595524900114D-01
159  1.5800000000000D+00  7.1203196016645D-01  7.1076385084516D-01
160  1.5900000000000D+00  6.8761843104949D-01  7.3577685330290D-01
161  1.6000000000000D+00  6.6267213274639D-01  7.6094111408495D-01
162  1.6100000000000D+00  6.3723419632499D-01  7.8620181354545D-01
163  1.6200000000000D+00  6.1134721218778D-01  8.1150261376243D-01
164  1.6300000000000D+00  5.8505511839297D-01  8.3678582440326D-01
165  1.6400000000000D+00  5.5840308404241D-01  8.6199257514274D-01
166  1.6500000000000D+00  5.3143738824975D-01  8.8706299384709D-01
167  1.6600000000000D+00  5.0420529490100D-01  9.1193639018713D-01
168  1.6700000000000D+00  4.7675492372346D-01  9.3655144389089D-01
169  1.6800000000000D+00  4.4913511793383D-01  9.6084639721104D-01
170  1.6900000000000D+00  4.2139530898678D-01  9.8475925080997D-01
171  1.7000000000000D+00  3.9358537874096D-01  1.0082279625689D+00
172  1.7100000000000D+00  3.6575551957058D-01  1.0311906485147D+00
173  1.7200000000000D+00  3.3795609277516D-01  1.0535857853174D+00
174  1.7300000000000D+00  3.1023748581966D-01  1.0753524135486D+00
175  1.7400000000000D+00  2.8264996878791D-01  1.0964303411058D+00
176  1.7500000000000D+00  2.5524355057486D-01  1.1167603460089D+00
177  1.7600000000000D+00  2.2806783523526D-01  1.1362843779183D+00
178  1.7700000000000D+00  2.0117187898472D-01  1.1549457576320D+00
179  1.7800000000000D+00  1.7460404832263D-01  1.1726893738277D+00
180  1.7900000000000D+00  1.4841187970747D-01  1.1894618764164D+00
181  1.8000000000000D+00  1.2264194133072D-01  1.2052118656514D+00
182  1.8100000000000D+00  9.7339697325323D-02  1.2198900765099D+00
183  1.8200000000000D+00  7.2549375028977D-02  1.2334495573784D+00
184  1.8300000000000D+00  4.8313835558063D-02  1.2458458426820D+00
185  1.8400000000000D+00  2.4674448335347D-02  1.2570371184611D+00
186  1.8500000000000D+00  1.6709698068888D-03  1.2669843805611D+00
187  1.8600000000000D+00 -2.0658573076310D-02  1.2756515845533D+00
188  1.8700000000000D+00 -4.2277994300448D-02  1.2830057869278D+00
189  1.8800000000000D+00 -6.3153054773753D-02  1.2890172769901D+00
190  1.8900000000000D+00 -8.3251562333824D-02  1.2936596986673D+00
191  1.9000000000000D+00 -1.0254346574304D-01  1.2969101622097D+00
192  1.9100000000000D+00 -1.2100094182507D-01  1.2987493444745D+00
193  1.9200000000000D+00 -1.3859847609892D-01  1.2991615783950D+00
194  1.9300000000000D+00 -1.5531293585570D-01  1.2981349299974D+00
195  1.9400000000000D+00 -1.7112363612344D-01  1.2956612637057D+00
196  1.9500000000000D+00 -1.8601239772376D-01  1.2917362947078D+00
197  1.9600000000000D+00 -1.9996359745708D-01  1.2863596284767D+00
198  1.9700000000000D+00 -2.1296421031300D-01  1.2795347873150D+00
199  1.9800000000000D+00 -2.2500384301198D-01  1.2712692228633D+00
200  1.9900000000000D+00 -2.3607475966686D-01  1.2615743158458D+00
201  2.0000000000000D+00 -2.4617189821453D-01  1.2504653609633D+00
202  2.0100000000000D+00 -2.5529287874143D-01  1.2379615387317D+00
203  2.0200000000000D+00 -2.6343800274814D-01  1.2240858727986D+00
204  2.0300000000000D+00 -2.7061024364386D-01  1.2088651732277D+00
205  2.0400000000000D+00 -2.7681522877781D-01  1.1923299662630D+00
206  2.0500000000000D+00 -2.8206121209734D-01  1.1745144091802D+00
207  2.0600000000000D+00 -2.8635903879149D-01  1.1554561923838D+00
208  2.0700000000000D+00 -2.8972210065019D-01  1.1351964267969D+00
209  2.0800000000000D+00 -2.9216628319146D-01  1.1137795182197D+00
210  2.0900000000000D+00 -2.9370990444755D-01  1.0912530285193D+00
211  2.1000000000000D+00 -2.9437364472791D-01  1.0676675199664D+00
212  2.1100000000000D+00 -2.9418047032552D-01  1.0430764034579D+00
213  2.1200000000000D+00 -2.9315554514150D-01  1.0175357344758D+00
214  2.1300000000000D+00 -2.9132614033860D-01  9.9110405212382D-01
215  2.1400000000000D+00 -2.8872153663058D-01  9.6384220740828D-01
216  2.1500000000000D+00 -2.8537290997316D-01  9.3581310956584D-01
217  2.1600000000000D+00 -2.8131320512796D-01  9.0708131216352D-01
218  2.1700000000000D+00 -2.7657703734042D-01  8.7771308546015D-01
219  2.1800000000000D+00 -2.7120058144100D-01  8.4777637187184D-01
220  2.1900000000000D+00 -2.6522145386116D-01  8.1734072889839D-01
221  2.2000000000000D+00 -2.5867860847557D-01  7.8647727481421D-01
222  2.2100000000000D+00 -2.5161223677409D-01  7.5525882557415D-01
223  2.2200000000000D+00 -2.4406363914237D-01  7.2375967388202D-01
224  2.2300000000000D+00 -2.3607509030126D-01  6.9205533148502D-01
225  2.2400000000000D+00 -2.2768970246797D-01  6.6022220718584D-01
226  2.2500000000000D+00 -2.1895129542285D-01  6.2833750916380D-01
227  2.2600000000000D+00 -2.0990425708786D-01  5.9647899129279D-01
228  2.2700000000000D+00 -2.0059340351269D-01  5.6472472320889D-01
229  2.2800000000000D+00 -1.9106383856695D-01  5.3315287630329D-01
230  2.2900000000000D+00 -1.8136081193683D-01  5.0184149573489D-01
231  2.3000000000000D+00 -1.7152957675841D-01  4.7086827465117D-01
232  2.3100000000000D+00 -1.6161524719008D-01  4.4031032853696D-01
233  2.3200000000000D+00 -1.5166265625662D-01  4.1024397019898D-01
234  2.3300000000000D+00 -1.4171621463725D-01  3.8074448642847D-01
235  2.3400000000000D+00 -1.3181977058875D-01  3.5188591663005D-01
236  2.3500000000000D+00 -1.2201647137752D-01  3.2374083399363D-01
237  2.3600000000000D+00 -1.1234862713582D-01  2.9638013061968D-01
238  2.3700000000000D+00 -1.0285757686877D-01  2.6987280617490D-01
239  2.3800000000000D+00 -9.3583557385465D-02  2.4428576126930D-01
240  2.3900000000000D+00 -8.4565575902295D-02  2.1968359670494D-01
241  2.4000000000000D+00 -7.5841285757200D-02  1.9612841773477D-01
242  2.4100000000000D+00 -6.7446866513277D-02  1.7367964529636D-01
243  2.4200000000000D+00 -5.9416908761519D-02  1.5239383469706D-01
244  2.4300000000000D+00 -5.1784302903954D-02  1.3232450064957D-01
245  2.4400000000000D+00 -4.4580133780412D-02  1.1352195151813D-01
246  2.4500000000000D+00 -3.7833580794783D-02  9.6033132249130D-02
247  2.4600000000000D+00 -3.1571822784593D-02  7.9901474828616D-02
248  2.4700000000000D+00 -2.5819950098341D-02  6.5166760047626D-02
249  2.4800000000000D+00 -2.0605533955338D-02  5.1876550160665D-02
250  2.4900000000000D+00 -1.5941343774641D-02  4.0043299894672D-02
251  2.5000000000000D+00 -1.1842480891804D-02  2.9687007264103D-02
252  2.5100000000000D+00 -8.3071144837873D-03  2.0787441499577D-02
253  2.5200000000000D+00 -5.3925972460483D-03  1.3473184113714D-02
254  2.5300000000000D+00 -3.1324655254159D-03  7.8155760294908D-03
255  2.5400000000000D+00 -1.5549167093915D-03  3.8747059854950D-03
256  2.5500000000000D+00 -5.6588655138401D-04  1.4087293544765D-03
257  2.5600000000000D+00 -4.8582285167763D-05  1.2133324070965D-04
258  2.5700000000000D+00  1.3475122823094D-04 -3.3435091084761D-04
259  2.5800000000000D+00  1.1815807172550D-04 -2.9310969016385D-04
260  2.5900000000000D+00  2.2540870918532D-05 -5.5885607700869D-05
261  2.6000000000000D+00 -3.6079056506806D-05  8.9657250668422D-05
262  2.6100000000000D+00 -4.2415788104515D-05  1.0538588119844D-04
263  2.6200000000000D+00 -1.3259501554626D-05  3.2939046366567D-05
264  2.6300000000000D+00  5.5214362674260D-06 -1.3763508625225D-05
265  2.6400000000000D+00  8.0698557571746D-06 -2.0116665831422D-05
266  2.6500000000000D+00  3.6074575044419D-06 -8.9929382618574D-06
267  2.6600000000000D+00  3.6308437569799D-09 -9.9314187172531D-09
268  2.6700000000000D+00  6.6596026277476D-09 -1.8215959323376D-08
269  2.6800000000000D+00  3.8854377818375D-09 -1.0627807775282D-08
270  2.6900000000000D+00  0.0000000000000D+00  0.0000000000000D+00
271  2.7000000000000D+00  0.0000000000000D+00  0.0000000000000D+00
272  2.7100000000000D+00  0.0000000000000D+00  0.0000000000000D+00
273  2.7200000000000D+00  0.0000000000000D+00  0.0000000000000D+00
274  2.7300000000000D+00  0.0000000000000D+00  0.0000000000000D+00
275  2.7400000000000D+00  0.0000000000000D+00  0.0000000000000D+00
276  2.7500000000000D+00  0.0000000000000D+00  0.0000000000000D+00
277  2.7600000000000D+00  0.0000000000000D+00  0.0000000000000D+00
278  2.7700000000000D+00  0.0000000000000D+00  0.0000000000000D+00
279  2.7800000000000D+00  0.0000000000000D+00  0.0000000000000D+00
280  2.7900000000000D+00  0.0000000000000D+00  0.0000000000000D+00
281  2.8000000000000D+00  0.0000000000000D+00  0.0000000000000D+00
282  2.8100000000000D+00  0.0000000000000D+00  0.0000000000000D+00
283  2.8200000000000D+00  0.0000000000000D+00  0.0000000000000D+00
284  2.8300000000000D+00  0.0000000000000D+00  0.0000000000000D+00
285  2.8400000000000D+00  0.0000000000000D+00  0.0000000000000D+00
286  2.8500000000000D+00  0.0000000000000D+00  0.0000000000000D+00
287  2.8600000000000D+00  0.0000000000000D+00  0.0000000000000D+00
288  2.8700000000000D+00  0.0000000000000D+00  0.0000000000000D+00
289  2.8800000000000D+00  0.0000000000000D+00  0.0000000000000D+00
290  2.8900000000000D+00  0.0000000000000D+00  0.0000000000000D+00
291  2.9000000000000D+00  0.0000000000000D+00  0.0000000000000D+00
292  2.9100000000000D+00  0.0000000000000D+00  0.0000000000000D+00
293  2.9200000000000D+00  0.0000000000000D+00  0.0000000000000D+00
294  2.9300000000000D+00  0.0000000000000D+00  0.0000000000000D+00
295  2.9400000000000D+00  0.0000000000000D+00  0.0000000000000D+00
296  2.9500000000000D+00  0.0000000000000D+00  0.0000000000000D+00
297  2.9600000000000D+00  0.0000000000000D+00  0.0000000000000D+00
298  2.9700000000000D+00  0.0000000000000D+00  0.0000000000000D+00
299  2.9800000000000D+00  0.0000000000000D+00  0.0000000000000D+00
300  2.9900000000000D+00  0.0000000000000D+00  0.0000000000000D+00
301  3.0000000000000D+00  0.0000000000000D+00  0.0000000000000D+00
302  3.0100000000000D+00  0.0000000000000D+00  0.0000000000000D+00
303  3.0200000000000D+00  0.0000000000000D+00  0.0000000000000D+00
304  3.0300000000000D+00  0.0000000000000D+00  0.0000000000000D+00
305  3.0400000000000D+00  0.0000000000000D+00  0.0000000000000D+00
306  3.0500000000000D+00  0.0000000000000D+00  0.0000000000000D+00
307  3.0600000000000D+00  0.0000000000000D+00  0.0000000000000D+00
308  3.0700000000000D+00  0.0000000000000D+00  0.0000000000000D+00
309  3.0800000000000D+00  0.0000000000000D+00  0.0000000000000D+00
310  3.0900000000000D+00  0.0000000000000D+00  0.0000000000000D+00
311  3.1000000000000D+00  0.0000000000000D+00  0.0000000000000D+00
312  3.1100000000000D+00  0.0000000000000D+00  0.0000000000000D+00
313  3.1200000000000D+00  0.0000000000000D+00  0.0000000000000D+00
314  3.1300000000000D+00  0.0000000000000D+00  0.0000000000000D+00
315  3.1400000000000D+00  0.0000000000000D+00  0.0000000000000D+00
316  3.1500000000000D+00  0.0000000000000D+00  0.0000000000000D+00
317  3.1600000000000D+00  0.0000000000000D+00  0.0000000000000D+00
318  3.1700000000000D+00  0.0000000000000D+00  0.0000000000000D+00
319  3.1800000000000D+00  0.0000000000000D+00  0.0000000000000D+00
320  3.1900000000000D+00  0.0000000000000D+00  0.0000000000000D+00
321  3.2000000000000D+00  0.0000000000000D+00  0.0000000000000D+00
322  3.2100000000000D+00  0.0000000000000D+00  0.0000000000000D+00
323  3.2200000000000D+00  0.0000000000000D+00  0.0000000000000D+00
324  3.2300000000000D+00  0.0000000000000D+00  0.0000000000000D+00
325  3.2400000000000D+00  0.0000000000000D+00  0.0000000000000D+00
326  3.2500000000000D+00  0.0000000000000D+00  0.0000000000000D+00
327  3.2600000000000D+00  0.0000000000000D+00  0.0000000000000D+00
328  3.2700000000000D+00  0.0000000000000D+00  0.0000000000000D+00
329  3.2800000000000D+00  0.0000000000000D+00  0.0000000000000D+00
330  3.2900000000000D+00  0.0000000000000D+00  0.0000000000000D+00
331  3.3000000000000D+00  0.0000000000000D+00  0.0000000000000D+00
332  3.3100000000000D+00  0.0000000000000D+00  0.0000000000000D+00
333  3.3200000000000D+00  0.0000000000000D+00  0.0000000000000D+00
334  3.3300000000000D+00  0.0000000000000D+00  0.0000000000000D+00
335  3.3400000000000D+00  0.0000000000000D+00  0.0000000000000D+00
336  3.3500000000000D+00  0.0000000000000D+00  0.0000000000000D+00
337  3.3600000000000D+00  0.0000000000000D+00  0.0000000000000D+00
338  3.3700000000000D+00  0.0000000000000D+00  0.0000000000000D+00
339  3.3800000000000D+00  0.0000000000000D+00  0.0000000000000D+00
340  3.3900000000000D+00  0.0000000000000D+00  0.0000000000000D+00
341  3.4000000000000D+00  0.0000000000000D+00  0.0000000000000D+00
342  3.4100000000000D+00  0.0000000000000D+00  0.0000000000000D+00
343  3.4200000000000D+00  0.0000000000000D+00  0.0000000000000D+00
344  3.4300000000000D+00  0.0000000000000D+00  0.0000000000000D+00
345  3.4400000000000D+00  0.0000000000000D+00  0.0000000000000D+00
346  3.4500000000000D+00  0.0000000000000D+00  0.0000000000000D+00
347  3.4600000000000D+00  0.0000000000000D+00  0.0000000000000D+00
348  3.4700000000000D+00  0.0000000000000D+00  0.0000000000000D+00
349  3.4800000000000D+00  0.0000000000000D+00  0.0000000000000D+00
350  3.4900000000000D+00  0.0000000000000D+00  0.0000000000000D+00
351  3.5000000000000D+00  0.0000000000000D+00  0.0000000000000D+00
352  3.5100000000000D+00  0.0000000000000D+00  0.0000000000000D+00
353  3.5200000000000D+00  0.0000000000000D+00  0.0000000000000D+00
354  3.5300000000000D+00  0.0000000000000D+00  0.0000000000000D+00
355  3.5400000000000D+00  0.0000000000000D+00  0.0000000000000D+00
356  3.5500000000000D+00  0.0000000000000D+00  0.0000000000000D+00
357  3.5600000000000D+00  0.0000000000000D+00  0.0000000000000D+00
358  3.5700000000000D+00  0.0000000000000D+00  0.0000000000000D+00
359  3.5800000000000D+00  0.0000000000000D+00  0.0000000000000D+00
360  3.5900000000000D+00  0.0000000000000D+00  0.0000000000000D+00
361  3.6000000000000D+00  0.0000000000000D+00  0.0000000000000D+00
362  3.6100000000000D+00  0.0000000000000D+00  0.0000000000000D+00
363  3.6200000000000D+00  0.0000000000000D+00  0.0000000000000D+00
364  3.6300000000000D+00  0.0000000000000D+00  0.0000000000000D+00
365  3.6400000000000D+00  0.0000000000000D+00  0.0000000000000D+00
366  3.6500000000000D+00  0.0000000000000D+00  0.0000000000000D+00
367  3.6600000000000D+00  0.0000000000000D+00  0.0000000000000D+00
368  3.6700000000000D+00  0.0000000000000D+00  0.0000000000000D+00
369  3.6800000000000D+00  0.0000000000000D+00  0.0000000000000D+00
370  3.6900000000000D+00  0.0000000000000D+00  0.0000000000000D+00
371  3.7000000000000D+00  0.0000000000000D+00  0.0000000000000D+00
372  3.7100000000000D+00  0.0000000000000D+00  0.0000000000000D+00
373  3.7200000000000D+00  0.0000000000000D+00  0.0000000000000D+00
374  3.7300000000000D+00  0.0000000000000D+00  0.0000000000000D+00
375  3.7400000000000D+00  0.0000000000000D+00  0.0000000000000D+00
376  3.7500000000000D+00  0.0000000000000D+00  0.0000000000000D+00
377  3.7600000000000D+00  0.0000000000000D+00  0.0000000000000D+00
378  3.7700000000000D+00  0.0000000000000D+00  0.0000000000000D+00
379  3.7800000000000D+00  0.0000000000000D+00  0.0000000000000D+00
380  3.7900000000000D+00  0.0000000000000D+00  0.0000000000000D+00
381  3.8000000000000D+00  0.0000000000000D+00  0.0000000000000D+00
382  3.8100000000000D+00  0.0000000000000D+00  0.0000000000000D+00
383  3.8200000000000D+00  0.0000000000000D+00  0.0000000000000D+00
384  3.8300000000000D+00  0.0000000000000D+00  0.0000000000000D+00
385  3.8400000000000D+00  0.0000000000000D+00  0.0000000000000D+00
386  3.8500000000000D+00  0.0000000000000D+00  0.0000000000000D+00
387  3.8600000000000D+00  0.0000000000000D+00  0.0000000000000D+00
388  3.8700000000000D+00  0.0000000000000D+00  0.0000000000000D+00
389  3.8800000000000D+00  0.0000000000000D+00  0.0000000000000D+00
390  3.8900000000000D+00  0.0000000000000D+00  0.0000000000000D+00
391  3.9000000000000D+00  0.0000000000000D+00  0.0000000000000D+00
392  3.9100000000000D+00  0.0000000000000D+00  0.0000000000000D+00
393  3.9200000000000D+00  0.0000000000000D+00  0.0000000000000D+00
394  3.9300000000000D+00  0.0000000000000D+00  0.0000000000000D+00
395  3.9400000000000D+00  0.0000000000000D+00  0.0000000000000D+00
396  3.9500000000000D+00  0.0000000000000D+00  0.0000000000000D+00
397  3.9600000000000D+00  0.0000000000000D+00  0.0000000000000D+00
398  3.9700000000000D+00  0.0000000000000D+00  0.0000000000000D+00
399  3.9800000000000D+00  0.0000000000000D+00  0.0000000000000D+00
400  3.9900000000000D+00  0.0000000000000D+00  0.0000000000000D+00
401  4.0000000000000D+00  0.0000000000000D+00  0.0000000000000D+00
402  4.0100000000000D+00  0.0000000000000D+00  0.0000000000000D+00
403  4.0200000000000D+00  0.0000000000000D+00  0.0000000000000D+00
404  4.0300000000000D+00  0.0000000000000D+00  0.0000000000000D+00
405  4.0400000000000D+00  0.0000000000000D+00  0.0000000000000D+00
406  4.0500000000000D+00  0.0000000000000D+00  0.0000000000000D+00
407  4.0600000000000D+00  0.0000000000000D+00  0.0000000000000D+00
408  4.0700000000000D+00  0.0000000000000D+00  0.0000000000000D+00
409  4.0800000000000D+00  0.0000000000000D+00  0.0000000000000D+00
410  4.0900000000000D+00  0.0000000000000D+00  0.0000000000000D+00
411  4.1000000000000D+00  0.0000000000000D+00  0.0000000000000D+00
412  4.1100000000000D+00  0.0000000000000D+00  0.0000000000000D+00
413  4.1200000000000D+00  0.0000000000000D+00  0.0000000000000D+00
414  4.1300000000000D+00  0.0000000000000D+00  0.0000000000000D+00
415  4.1400000000000D+00  0.0000000000000D+00  0.0000000000000D+00
416  4.1500000000000D+00  0.0000000000000D+00  0.0000000000000D+00
417  4.1600000000000D+00  0.0000000000000D+00  0.0000000000000D+00
418  4.1700000000000D+00  0.0000000000000D+00  0.0000000000000D+00
419  4.1800000000000D+00  0.0000000000000D+00  0.0000000000000D+00
420  4.1900000000000D+00  0.0000000000000D+00  0.0000000000000D+00
421  4.2000000000000D+00  0.0000000000000D+00  0.0000000000000D+00
422  4.2100000000000D+00  0.0000000000000D+00  0.0000000000000D+00
423  4.2200000000000D+00  0.0000000000000D+00  0.0000000000000D+00
424  4.2300000000000D+00  0.0000000000000D+00  0.0000000000000D+00
425  4.2400000000000D+00  0.0000000000000D+00  0.0000000000000D+00
426  4.2500000000000D+00  0.0000000000000D+00  0.0000000000000D+00
427  4.2600000000000D+00  0.0000000000000D+00  0.0000000000000D+00
428  4.2700000000000D+00  0.0000000000000D+00  0.0000000000000D+00
429  4.2800000000000D+00  0.0000000000000D+00  0.0000000000000D+00
430  4.2900000000000D+00  0.0000000000000D+00  0.0000000000000D+00
431  4.3000000000000D+00  0.0000000000000D+00  0.0000000000000D+00
432  4.3100000000000D+00  0.0000000000000D+00  0.0000000000000D+00
433  4.3200000000000D+00  0.0000000000000D+00  0.0000000000000D+00
434  4.3300000000000D+00  0.0000000000000D+00  0.0000000000000D+00
435  4.3400000000000D+00  0.0000000000000D+00  0.0000000000000D+00
436  4.3500000000000D+00  0.0000000000000D+00  0.0000000000000D+00
437  4.3600000000000D+00  0.0000000000000D+00  0.0000000000000D+00
438  4.3700000000000D+00  0.0000000000000D+00  0.0000000000000D+00
439  4.3800000000000D+00  0.0000000000000D+00  0.0000000000000D+00
440  4.3900000000000D+00  0.0000000000000D+00  0.0000000000000D+00
441  4.4000000000000D+00  0.0000000000000D+00  0.0000000000000D+00
442  4.4100000000000D+00  0.0000000000000D+00  0.0000000000000D+00
443  4.4200000000000D+00  0.0000000000000D+00  0.0000000000000D+00
444  4.4300000000000D+00  0.0000000000000D+00  0.0000000000000D+00