O     ONCVPSP  r_core=  1.26  1.36  1.26
8.0000      6.0000      150617    zatom,zion,pspd
8      11   2     4   600     0    pspcod,pspxc,lmax,lloc,mmax,r2well
5.99000000  4.00000000  0.00000000    rchrg fchrg qchrg
2     2     1     0     0    nproj
0                 extension_switch
0                         6.2095474092126D+00  1.1177659884623D+00
1  0.0000000000000D+00 -1.9026434316949D-08  4.5200326037609D-08
2  1.0000000000000D-02  1.0686474814986D-01 -4.9216666438224D-02
3  2.0000000000000D-02  2.1287725712339D-01 -9.6905456268808D-02
4  3.0000000000000D-02  3.1719927001574D-01 -1.4157011907606D-01
5  4.0000000000000D-02  4.1902023099706D-01 -1.8177703628488D-01
6  5.0000000000000D-02  5.1757048216742D-01 -2.1618499757288D-01
7  6.0000000000000D-02  6.1213368986404D-01 -2.4357316283015D-01
8  7.0000000000000D-02  7.0205826641210D-01 -2.6286665911534D-01
9  8.0000000000000D-02  7.8676757233718D-01 -2.7315930725714D-01
10  9.0000000000000D-02  8.6576870716290D-01 -2.7373302763746D-01
11  1.0000000000000D-01  9.3865972367069D-01 -2.6407353823586D-01
12  1.1000000000000D-01  1.0051351303961D+00 -2.4388202901895D-01
13  1.2000000000000D-01  1.0649895796190D+00 -2.1308257388847D-01
14  1.3000000000000D-01  1.1181196725632D+00 -1.7182512320457D-01
15  1.4000000000000D-01  1.1645238493057D+00 -1.2048400483723D-01
16  1.5000000000000D-01  1.2043003673375D+00 -5.9651948163782D-02
17  1.6000000000000D-01  1.2376434091282D+00  9.8702682056130D-03
18  1.7000000000000D-01  1.2648373947405D+00  8.7088359565931D-02
19  1.8000000000000D-01  1.2862496098446D+00  1.7083300242178D-01
20  1.9000000000000D-01  1.3023212917463D+00  2.5978188285717D-01
21  2.0000000000000D-01  1.3135573456603D+00  3.5248491280099D-01
22  2.1000000000000D-01  1.3205148898574D+00  4.4739213862775D-01
23  2.2000000000000D-01  1.3237908510043D+00  5.4288381301411D-01
24  2.3000000000000D-01  1.3240088495444D+00  6.3730205735945D-01
25  2.4000000000000D-01  1.3218056289926D+00  7.2898350922240D-01
26  2.5000000000000D-01  1.3178172922566D+00  8.1629232777398D-01
27  2.6000000000000D-01  1.3126656123668D+00  8.9765292065977D-01
28  2.7000000000000D-01  1.3069446842034D+00  9.7158175811447D-01
29  2.8000000000000D-01  1.3012081779582D+00  1.0367176546722D+00
30  2.9000000000000D-01  1.2959574442505D+00  1.0918499251296D+00
31  3.0000000000000D-01  1.2916307052290D+00  1.1359438590890D+00
32  3.1000000000000D-01  1.2885935459080D+00  1.1681630067602D+00
33  3.2000000000000D-01  1.2871308957748D+00  1.1878878268628D+00
34  3.3000000000000D-01  1.2874406628122D+00  1.1947303143761D+00
35  3.4000000000000D-01  1.2896291510099D+00  1.1885443003129D+00
36  3.5000000000000D-01  1.2937083587824D+00  1.1694311962566D+00
37  3.6000000000000D-01  1.2995952200693D+00  1.1377410416273D+00
38  3.7000000000000D-01  1.3071128129652D+00  1.0940687999163D+00
39  3.8000000000000D-01  1.3159935231607D+00  1.0392459398318D+00
40  3.9000000000000D-01  1.3258841120174D+00  9.7432742672116D-01
41  4.0000000000000D-01  1.3363526024241D+00  9.0057433711870D-01
42  4.1000000000000D-01  1.3468968603967D+00  8.1943239314068D-01
43  4.2000000000000D-01  1.3569547173550D+00  7.3250679213684D-01
44  4.3000000000000D-01  1.3659154477628D+00  6.4153377899607D-01
45  4.4000000000000D-01  1.3731323899341D+00  5.4834947242756D-01
46  4.5000000000000D-01  1.3779364748070D+00  4.5485651115166D-01
47  4.6000000000000D-01  1.3796504088186D+00  3.6298913018279D-01
48  4.7000000000000D-01  1.3776032430343D+00  2.7467731039011D-01
49  4.8000000000000D-01  1.3711450516977D+00  1.9181066561800D-01
50  4.9000000000000D-01  1.3596614395366D+00  1.1620274038958D-01
51  5.0000000000000D-01  1.3425875986003D+00  4.9556387382696D-02
52  5.1000000000000D-01  1.3194216420925D+00 -6.5691225021224D-03
53  5.2000000000000D-01  1.2897369545118D+00 -5.0788633347165D-02
54  5.3000000000000D-01  1.2531933142146D+00 -8.1918697065827D-02
55  5.4000000000000D-01  1.2095465659579D+00 -9.9001693814931D-02
56  5.5000000000000D-01  1.1586566467233D+00 -1.0132600970930D-01
57  5.6000000000000D-01  1.1004937976702D+00 -8.8441872421087D-02
58  5.7000000000000D-01  1.0351428278452D+00 -6.0172523788829D-02
59  5.8000000000000D-01  9.6280533083777D-01 -1.6620493697767D-02
60  5.9000000000000D-01  8.8379979296972D-01  4.1831171026519D-02
61  6.0000000000000D-01  7.9855957056821D-01  1.1452277580742D-01
62  6.1000000000000D-01  7.0762875318144D-01  2.0052690474530D-01
63  6.2000000000000D-01  6.1165596899045D-01  2.9866226934991D-01
64  6.3000000000000D-01  5.1138622709355D-01  4.0751225292708D-01
65  6.4000000000000D-01  4.0765092811036D-01  5.2544783625501D-01
66  6.5000000000000D-01  3.0135620925152D-01  6.5065450747154D-01
67  6.6000000000000D-01  1.9346982151138D-01  7.8116268404342D-01
68  6.7000000000000D-01  8.5006764751040D-02  9.1488110780920D-01
69  6.8000000000000D-01 -2.2986069509527D-02  1.0496326169480D+00
70  6.9000000000000D-01 -1.2944597835900D-01  1.1831916527031D+00
71  7.0000000000000D-01 -2.3331096705538D-01  1.3133228243478D+00
72  7.1000000000000D-01 -3.3353641474091D-01  1.4378198339040D+00
73  7.2000000000000D-01 -4.2911158928329D-01  1.5545440532550D+00
74  7.3000000000000D-01 -5.1907571576247D-01  1.6614620504308D+00
75  7.4000000000000D-01 -6.0253331021137D-01  1.7566813792179D+00
76  7.5000000000000D-01 -6.7866850254154D-01  1.8384839761167D+00
77  7.6000000000000D-01 -7.4675809025503D-01  1.9053565513037D+00
78  7.7000000000000D-01 -8.0618308688120D-01  1.9560174140186D+00
79  7.8000000000000D-01 -8.5643855592618D-01  1.9894392372983D+00
80  7.9000000000000D-01 -8.9714155189469D-01  2.0048673408281D+00
81  8.0000000000000D-01 -9.2803702409065D-01  2.0018331525304D+00
82  8.1000000000000D-01 -9.4900157579478D-01  1.9801625978769D+00
83  8.2000000000000D-01 -9.6004501036844D-01  1.9399792591247D+00
84  8.3000000000000D-01 -9.6130963611899D-01  1.8817022430230D+00
85  8.4000000000000D-01 -9.5306734263094D-01  1.8060387931962D+00
86  8.5000000000000D-01 -9.3571450195343D-01  1.7139717805590D+00
87  8.6000000000000D-01 -9.0976478777590D-01  1.6067422999314D+00
88  8.7000000000000D-01 -8.7584004377075D-01  1.4858276917035D+00
89  8.8000000000000D-01 -8.3465936792013D-01  1.3529153922410D+00
90  8.9000000000000D-01 -7.8702661219602D-01  1.2098730941128D+00
91  9.0000000000000D-01 -7.3381652581697D-01  1.0587157656884D+00
92  9.1000000000000D-01 -6.7595979490834D-01  9.0157013789008D-01
93  9.2000000000000D-01 -6.1442725128045D-01  7.4063731277462D-01
94  9.3000000000000D-01 -5.5021353782820D-01  5.7815418325845D-01
95  9.4000000000000D-01 -4.8432052746269D-01  4.1635437501547D-01
96  9.5000000000000D-01 -4.1774079632602D-01  2.5742942993306D-01
97  9.6000000000000D-01 -3.5144145023744D-01  1.0349094533465D-01
98  9.7000000000000D-01 -2.8634859591711D-01 -4.3465635417159D-02
99  9.8000000000000D-01 -2.2333273562443D-01 -1.8159491711055D-01
100  9.9000000000000D-01 -1.6319534542290D-01 -3.0923251283246D-01
101  1.0000000000000D+00 -1.0665687514169D-01 -4.2492250508896D-01
102  1.0100000000000D+00 -5.4346379374942D-02 -5.2744091256684D-01
103  1.0200000000000D+00 -6.7929582631294D-03 -6.1581474123633D-01
104  1.0300000000000D+00  3.5580848341120D-02 -6.8933628340552D-01
105  1.0400000000000D+00  7.2463606901963D-02 -7.4757241806566D-01
106  1.0500000000000D+00  1.0365741131123D-01 -7.9036876544093D-01
107  1.0600000000000D+00  1.2907815022484D-01 -8.1784863599829D-01
108  1.0700000000000D+00  1.4875363869874D-01 -8.3040682712459D-01
109  1.0800000000000D+00  1.6281966909283D-01 -8.2869840939569D-01
110  1.0900000000000D+00  1.7151407738349D-01 -8.1362274331476D-01
111  1.1000000000000D+00  1.7516896011768D-01 -7.8630306124987D-01
112  1.1100000000000D+00  1.7420120798116D-01 -7.4806202307235D-01
113  1.1200000000000D+00  1.6910156105543D-01 -7.0039374771128D-01
114  1.1300000000000D+00  1.6042241360598D-01 -6.4493287731903D-01
115  1.1400000000000D+00  1.4876462304313D-01 -5.8342129475772D-01
116  1.1500000000000D+00  1.3476359325538D-01 -5.1767315224089D-01
117  1.1600000000000D+00  1.1907492144115D-01 -4.4953891388400D-01
118  1.1700000000000D+00  1.0235990476852D-01 -3.8086913303849D-01
119  1.1800000000000D+00  8.5271202528504D-02 -3.1347868081926D-01
120  1.1900000000000D+00  6.8438847652005D-02 -2.4911185968570D-01
121  1.2000000000000D+00  5.2457330004585D-02 -1.8941031819783D-01
122  1.2100000000000D+00  3.7873265109976D-02 -1.3588230150663D-01
123  1.2200000000000D+00  2.5175269795659D-02 -8.9880440655402D-02
124  1.2300000000000D+00  1.4764546896587D-02 -5.2510183602925D-02
125  1.2400000000000D+00  6.9209549924695D-03 -2.4521769728414D-02
126  1.2500000000000D+00  2.1053009060036D-03 -7.3761502516385D-03
127  1.2600000000000D+00  1.4284920639162D-04 -3.9417561358937D-04
128  1.2700000000000D+00 -1.3619449905481D-04  5.3264883494559D-04
129  1.2800000000000D+00  3.6657390952429D-05 -1.3950382863840D-04
130  1.2900000000000D+00  1.7191556182934D-05 -6.4764358490808D-05
131  1.3000000000000D+00 -8.8205272081329D-06  3.3969480138112D-05
132  1.3100000000000D+00 -4.2349891863413D-08 -1.9983946964394D-08
133  1.3200000000000D+00 -4.3118809420863D-08 -2.0346781602500D-08
134  1.3300000000000D+00  0.0000000000000D+00  0.0000000000000D+00
135  1.3400000000000D+00  0.0000000000000D+00  0.0000000000000D+00
136  1.3500000000000D+00  0.0000000000000D+00  0.0000000000000D+00
137  1.3600000000000D+00  0.0000000000000D+00  0.0000000000000D+00
138  1.3700000000000D+00  0.0000000000000D+00  0.0000000000000D+00
139  1.3800000000000D+00  0.0000000000000D+00  0.0000000000000D+00
140  1.3900000000000D+00  0.0000000000000D+00  0.0000000000000D+00
141  1.4000000000000D+00  0.0000000000000D+00  0.0000000000000D+00
142  1.4100000000000D+00  0.0000000000000D+00  0.0000000000000D+00
143  1.4200000000000D+00  0.0000000000000D+00  0.0000000000000D+00
144  1.4300000000000D+00  0.0000000000000D+00  0.0000000000000D+00
145  1.4400000000000D+00  0.0000000000000D+00  0.0000000000000D+00
146  1.4500000000000D+00  0.0000000000000D+00  0.0000000000000D+00
147  1.4600000000000D+00  0.0000000000000D+00  0.0000000000000D+00
148  1.4700000000000D+00  0.0000000000000D+00  0.0000000000000D+00
149  1.4800000000000D+00  0.0000000000000D+00  0.0000000000000D+00
150  1.4900000000000D+00  0.0000000000000D+00  0.0000000000000D+00
151  1.5000000000000D+00  0.0000000000000D+00  0.0000000000000D+00
152  1.5100000000000D+00  0.0000000000000D+00  0.0000000000000D+00
153  1.5200000000000D+00  0.0000000000000D+00  0.0000000000000D+00
154  1.5300000000000D+00  0.0000000000000D+00  0.0000000000000D+00
155  1.5400000000000D+00  0.0000000000000D+00  0.0000000000000D+00
156  1.5500000000000D+00  0.0000000000000D+00  0.0000000000000D+00
157  1.5600000000000D+00  0.0000000000000D+00  0.0000000000000D+00
158  1.5700000000000D+00  0.0000000000000D+00  0.0000000000000D+00
159  1.5800000000000D+00  0.0000000000000D+00  0.0000000000000D+00
160  1.5900000000000D+00  0.0000000000000D+00  0.0000000000000D+00
161  1.6000000000000D+00  0.0000000000000D+00  0.0000000000000D+00
162  1.6100000000000D+00  0.0000000000000D+00  0.0000000000000D+00
163  1.6200000000000D+00  0.0000000000000D+00  0.0000000000000D+00
164  1.6300000000000D+00  0.0000000000000D+00  0.0000000000000D+00
165  1.6400000000000D+00  0.0000000000000D+00  0.0000000000000D+00
166  1.6500000000000D+00  0.0000000000000D+00  0.0000000000000D+00
167  1.6600000000000D+00  0.0000000000000D+00  0.0000000000000D+00
168  1.6700000000000D+00  0.0000000000000D+00  0.0000000000000D+00
169  1.6800000000000D+00  0.0000000000000D+00  0.0000000000000D+00
170  1.6900000000000D+00  0.0000000000000D+00  0.0000000000000D+00
171  1.7000000000000D+00  0.0000000000000D+00  0.0000000000000D+00
172  1.7100000000000D+00  0.0000000000000D+00  0.0000000000000D+00
173  1.7200000000000D+00  0.0000000000000D+00  0.0000000000000D+00
174  1.7300000000000D+00  0.0000000000000D+00  0.0000000000000D+00
175  1.7400000000000D+00  0.0000000000000D+00  0.0000000000000D+00
176  1.7500000000000D+00  0.0000000000000D+00  0.0000000000000D+00
177  1.7600000000000D+00  0.0000000000000D+00  0.0000000000000D+00
178  1.7700000000000D+00  0.0000000000000D+00  0.0000000000000D+00
179  1.7800000000000D+00  0.0000000000000D+00  0.0000000000000D+00
180  1.7900000000000D+00  0.0000000000000D+00  0.0000000000000D+00
181  1.8000000000000D+00  0.0000000000000D+00  0.0000000000000D+00
182  1.8100000000000D+00  0.0000000000000D+00  0.0000000000000D+00
183  1.8200000000000D+00  0.0000000000000D+00  0.0000000000000D+00
184  1.8300000000000D+00  0.0000000000000D+00  0.0000000000000D+00
185  1.8400000000000D+00  0.0000000000000D+00  0.0000000000000D+00
186  1.8500000000000D+00  0.0000000000000D+00  0.0000000000000D+00
187  1.8600000000000D+00  0.0000000000000D+00  0.0000000000000D+00
188  1.8700000000000D+00  0.0000000000000D+00  0.0000000000000D+00
189  1.8800000000000D+00  0.0000000000000D+00  0.0000000000000D+00
190  1.8900000000000D+00  0.0000000000000D+00  0.0000000000000D+00
191  1.9000000000000D+00  0.0000000000000D+00  0.0000000000000D+00
192  1.9100000000000D+00  0.0000000000000D+00  0.0000000000000D+00
193  1.9200000000000D+00  0.0000000000000D+00  0.0000000000000D+00
194  1.9300000000000D+00  0.0000000000000D+00  0.0000000000000D+00
195  1.9400000000000D+00  0.0000000000000D+00  0.0000000000000D+00
196  1.9500000000000D+00  0.0000000000000D+00  0.0000000000000D+00
197  1.9600000000000D+00  0.0000000000000D+00  0.0000000000000D+00
198  1.9700000000000D+00  0.0000000000000D+00  0.0000000000000D+00
199  1.9800000000000D+00  0.0000000000000D+00  0.0000000000000D+00
200  1.9900000000000D+00  0.0000000000000D+00  0.0000000000000D+00
201  2.0000000000000D+00  0.0000000000000D+00  0.0000000000000D+00
202  2.0100000000000D+00  0.0000000000000D+00  0.0000000000000D+00
203  2.0200000000000D+00  0.0000000000000D+00  0.0000000000000D+00
204  2.0300000000000D+00  0.0000000000000D+00  0.0000000000000D+00
205  2.0400000000000D+00  0.0000000000000D+00  0.0000000000000D+00
206  2.0500000000000D+00  0.0000000000000D+00  0.0000000000000D+00
207  2.0600000000000D+00  0.0000000000000D+00  0.0000000000000D+00
208  2.0700000000000D+00  0.0000000000000D+00  0.0000000000000D+00
209  2.0800000000000D+00  0.0000000000000D+00  0.0000000000000D+00
210  2.0900000000000D+00  0.0000000000000D+00  0.0000000000000D+00
211  2.1000000000000D+00  0.0000000000000D+00  0.0000000000000D+00
212  2.1100000000000D+00  0.0000000000000D+00  0.0000000000000D+00
213  2.1200000000000D+00  0.0000000000000D+00  0.0000000000000D+00
214  2.1300000000000D+00  0.0000000000000D+00  0.0000000000000D+00
215  2.1400000000000D+00  0.0000000000000D+00  0.0000000000000D+00
216  2.1500000000000D+00  0.0000000000000D+00  0.0000000000000D+00
217  2.1600000000000D+00  0.0000000000000D+00  0.0000000000000D+00
218  2.1700000000000D+00  0.0000000000000D+00  0.0000000000000D+00
219  2.1800000000000D+00  0.0000000000000D+00  0.0000000000000D+00
220  2.1900000000000D+00  0.0000000000000D+00  0.0000000000000D+00
221  2.2000000000000D+00  0.0000000000000D+00  0.0000000000000D+00
222  2.2100000000000D+00  0.0000000000000D+00  0.0000000000000D+00
223  2.2200000000000D+00  0.0000000000000D+00  0.0000000000000D+00
224  2.2300000000000D+00  0.0000000000000D+00  0.0000000000000D+00
225  2.2400000000000D+00  0.0000000000000D+00  0.0000000000000D+00
226  2.2500000000000D+00  0.0000000000000D+00  0.0000000000000D+00
227  2.2600000000000D+00  0.0000000000000D+00  0.0000000000000D+00
228  2.2700000000000D+00  0.0000000000000D+00  0.0000000000000D+00
229  2.2800000000000D+00  0.0000000000000D+00  0.0000000000000D+00
230  2.2900000000000D+00  0.0000000000000D+00  0.0000000000000D+00
231  2.3000000000000D+00  0.0000000000000D+00  0.0000000000000D+00
232  2.3100000000000D+00  0.0000000000000D+00  0.0000000000000D+00
233  2.3200000000000D+00  0.0000000000000D+00  0.0000000000000D+00
234  2.3300000000000D+00  0.0000000000000D+00  0.0000000000000D+00
235  2.3400000000000D+00  0.0000000000000D+00  0.0000000000000D+00
236  2.3500000000000D+00  0.0000000000000D+00  0.0000000000000D+00
237  2.3600000000000D+00  0.0000000000000D+00  0.0000000000000D+00
238  2.3700000000000D+00  0.0000000000000D+00  0.0000000000000D+00
239  2.3800000000000D+00  0.0000000000000D+00  0.0000000000000D+00
240  2.3900000000000D+00  0.0000000000000D+00  0.0000000000000D+00
241  2.4000000000000D+00  0.0000000000000D+00  0.0000000000000D+00
242  2.4100000000000D+00  0.0000000000000D+00  0.0000000000000D+00
243  2.4200000000000D+00  0.0000000000000D+00  0.0000000000000D+00
244  2.4300000000000D+00  0.0000000000000D+00  0.0000000000000D+00
245  2.4400000000000D+00  0.0000000000000D+00  0.0000000000000D+00
246  2.4500000000000D+00  0.0000000000000D+00  0.0000000000000D+00
247  2.4600000000000D+00  0.0000000000000D+00  0.0000000000000D+00
248  2.4700000000000D+00  0.0000000000000D+00  0.0000000000000D+00
249  2.4800000000000D+00  0.0000000000000D+00  0.0000000000000D+00
250  2.4900000000000D+00  0.0000000000000D+00  0.0000000000000D+00
251  2.5000000000000D+00  0.0000000000000D+00  0.0000000000000D+00
252  2.5100000000000D+00  0.0000000000000D+00  0.0000000000000D+00
253  2.5200000000000D+00  0.0000000000000D+00  0.0000000000000D+00
254  2.5300000000000D+00  0.0000000000000D+00  0.0000000000000D+00
255  2.5400000000000D+00  0.0000000000000D+00  0.0000000000000D+00
256  2.5500000000000D+00  0.0000000000000D+00  0.0000000000000D+00
257  2.5600000000000D+00  0.0000000000000D+00  0.0000000000000D+00
258  2.5700000000000D+00  0.0000000000000D+00  0.0000000000000D+00
259  2.5800000000000D+00  0.0000000000000D+00  0.0000000000000D+00
260  2.5900000000000D+00  0.0000000000000D+00  0.0000000000000D+00
261  2.6000000000000D+00  0.0000000000000D+00  0.0000000000000D+00
262  2.6100000000000D+00  0.0000000000000D+00  0.0000000000000D+00
263  2.6200000000000D+00  0.0000000000000D+00  0.0000000000000D+00
264  2.6300000000000D+00  0.0000000000000D+00  0.0000000000000D+00
265  2.6400000000000D+00  0.0000000000000D+00  0.0000000000000D+00
266  2.6500000000000D+00  0.0000000000000D+00  0.0000000000000D+00
267  2.6600000000000D+00  0.0000000000000D+00  0.0000000000000D+00
268  2.6700000000000D+00  0.0000000000000D+00  0.0000000000000D+00
269  2.6800000000000D+00  0.0000000000000D+00  0.0000000000000D+00
270  2.6900000000000D+00  0.0000000000000D+00  0.0000000000000D+00
271  2.7000000000000D+00  0.0000000000000D+00  0.0000000000000D+00
272  2.7100000000000D+00  0.0000000000000D+00  0.0000000000000D+00
273  2.7200000000000D+00  0.0000000000000D+00  0.0000000000000D+00
274  2.7300000000000D+00  0.0000000000000D+00  0.0000000000000D+00
275  2.7400000000000D+00  0.0000000000000D+00  0.0000000000000D+00
276  2.7500000000000D+00  0.0000000000000D+00  0.0000000000000D+00
277  2.7600000000000D+00  0.0000000000000D+00  0.0000000000000D+00
278  2.7700000000000D+00  0.0000000000000D+00  0.0000000000000D+00
279  2.7800000000000D+00  0.0000000000000D+00  0.0000000000000D+00
280  2.7900000000000D+00  0.0000000000000D+00  0.0000000000000D+00
281  2.8000000000000D+00  0.0000000000000D+00  0.0000000000000D+00
282  2.8100000000000D+00  0.0000000000000D+00  0.0000000000000D+00
283  2.8200000000000D+00  0.0000000000000D+00  0.0000000000000D+00
284  2.8300000000000D+00  0.0000000000000D+00  0.0000000000000D+00
285  2.8400000000000D+00  0.0000000000000D+00  0.0000000000000D+00
286  2.8500000000000D+00  0.0000000000000D+00  0.0000000000000D+00
287  2.8600000000000D+00  0.0000000000000D+00  0.0000000000000D+00
288  2.8700000000000D+00  0.0000000000000D+00  0.0000000000000D+00
289  2.8800000000000D+00  0.0000000000000D+00  0.0000000000000D+00
290  2.8900000000000D+00  0.0000000000000D+00  0.0000000000000D+00
291  2.9000000000000D+00  0.0000000000000D+00  0.0000000000000D+00
292  2.9100000000000D+00  0.0000000000000D+00  0.0000000000000D+00
293  2.9200000000000D+00  0.0000000000000D+00  0.0000000000000D+00
294  2.9300000000000D+00  0.0000000000000D+00  0.0000000000000D+00
295  2.9400000000000D+00  0.0000000000000D+00  0.0000000000000D+00
296  2.9500000000000D+00  0.0000000000000D+00  0.0000000000000D+00
297  2.9600000000000D+00  0.0000000000000D+00  0.0000000000000D+00
298  2.9700000000000D+00  0.0000000000000D+00  0.0000000000000D+00
299  2.9800000000000D+00  0.0000000000000D+00  0.0000000000000D+00
300  2.9900000000000D+00  0.0000000000000D+00  0.0000000000000D+00
301  3.0000000000000D+00  0.0000000000000D+00  0.0000000000000D+00
302  3.0100000000000D+00  0.0000000000000D+00  0.0000000000000D+00
303  3.0200000000000D+00  0.0000000000000D+00  0.0000000000000D+00
304  3.0300000000000D+00  0.0000000000000D+00  0.0000000000000D+00
305  3.0400000000000D+00  0.0000000000000D+00  0.0000000000000D+00
306  3.0500000000000D+00  0.0000000000000D+00  0.0000000000000D+00
307  3.0600000000000D+00  0.0000000000000D+00  0.0000000000000D+00
308  3.0700000000000D+00  0.0000000000000D+00  0.0000000000000D+00
309  3.0800000000000D+00  0.0000000000000D+00  0.0000000000000D+00
310  3.0900000000000D+00  0.0000000000000D+00  0.0000000000000D+00
311  3.1000000000000D+00  0.0000000000000D+00  0.0000000000000D+00
312  3.1100000000000D+00  0.0000000000000D+00  0.0000000000000D+00
313  3.1200000000000D+00  0.0000000000000D+00  0.0000000000000D+00
314  3.1300000000000D+00  0.0000000000000D+00  0.0000000000000D+00
315  3.1400000000000D+00  0.0000000000000D+00  0.0000000000000D+00
316  3.1500000000000D+00  0.0000000000000D+00  0.0000000000000D+00
317  3.1600000000000D+00  0.0000000000000D+00  0.0000000000000D+00
318  3.1700000000000D+00  0.0000000000000D+00  0.0000000000000D+00
319  3.1800000000000D+00  0.0000000000000D+00  0.0000000000000D+00
320  3.1900000000000D+00  0.0000000000000D+00  0.0000000000000D+00
321  3.2000000000000D+00  0.0000000000000D+00  0.0000000000000D+00
322  3.2100000000000D+00  0.0000000000000D+00  0.0000000000000D+00
323  3.2200000000000D+00  0.0000000000000D+00  0.0000000000000D+00
324  3.2300000000000D+00  0.0000000000000D+00  0.0000000000000D+00
325  3.2400000000000D+00  0.0000000000000D+00  0.0000000000000D+00
326  3.2500000000000D+00  0.0000000000000D+00  0.0000000000000D+00
327  3.2600000000000D+00  0.0000000000000D+00  0.0000000000000D+00
328  3.2700000000000D+00  0.0000000000000D+00  0.0000000000000D+00
329  3.2800000000000D+00  0.0000000000000D+00  0.0000000000000D+00
330  3.2900000000000D+00  0.0000000000000D+00  0.0000000000000D+00
331  3.3000000000000D+00  0.0000000000000D+00  0.0000000000000D+00
332  3.3100000000000D+00  0.0000000000000D+00  0.0000000000000D+00
333  3.3200000000000D+00  0.0000000000000D+00  0.0000000000000D+00
334  3.3300000000000D+00  0.0000000000000D+00  0.0000000000000D+00
335  3.3400000000000D+00  0.0000000000000D+00  0.0000000000000D+00
336  3.3500000000000D+00  0.0000000000000D+00  0.0000000000000D+00
337  3.3600000000000D+00  0.0000000000000D+00  0.0000000000000D+00
338  3.3700000000000D+00  0.0000000000000D+00  0.0000000000000D+00
339  3.3800000000000D+00  0.0000000000000D+00  0.0000000000000D+00
340  3.3900000000000D+00  0.0000000000000D+00  0.0000000000000D+00
341  3.4000000000000D+00  0.0000000000000D+00  0.0000000000000D+00
342  3.4100000000000D+00  0.0000000000000D+00  0.0000000000000D+00
343  3.4200000000000D+00  0.0000000000000D+00  0.0000000000000D+00
344  3.4300000000000D+00  0.0000000000000D+00  0.0000000000000D+00
345  3.4400000000000D+00  0.0000000000000D+00  0.0000000000000D+00
346  3.4500000000000D+00  0.0000000000000D+00  0.0000000000000D+00
347  3.4600000000000D+00  0.0000000000000D+00  0.0000000000000D+00
348  3.4700000000000D+00  0.0000000000000D+00  0.0000000000000D+00
349  3.4800000000000D+00  0.0000000000000D+00  0.0000000000000D+00
350  3.4900000000000D+00  0.0000000000000D+00  0.0000000000000D+00
351  3.5000000000000D+00  0.0000000000000D+00  0.0000000000000D+00
352  3.5100000000000D+00  0.0000000000000D+00  0.0000000000000D+00
353  3.5200000000000D+00  0.0000000000000D+00  0.0000000000000D+00
354  3.5300000000000D+00  0.0000000000000D+00  0.0000000000000D+00
355  3.5400000000000D+00  0.0000000000000D+00  0.0000000000000D+00
356  3.5500000000000D+00  0.0000000000000D+00  0.0000000000000D+00
357  3.5600000000000D+00  0.0000000000000D+00  0.0000000000000D+00
358  3.5700000000000D+00  0.0000000000000D+00  0.0000000000000D+00
359  3.5800000000000D+00  0.0000000000000D+00  0.0000000000000D+00
360  3.5900000000000D+00  0.0000000000000D+00  0.0000000000000D+00
361  3.6000000000000D+00  0.0000000000000D+00  0.0000000000000D+00
362  3.6100000000000D+00  0.0000000000000D+00  0.0000000000000D+00
363  3.6200000000000D+00  0.0000000000000D+00  0.0000000000000D+00
364  3.6300000000000D+00  0.0000000000000D+00  0.0000000000000D+00
365  3.6400000000000D+00  0.0000000000000D+00  0.0000000000000D+00
366  3.6500000000000D+00  0.0000000000000D+00  0.0000000000000D+00
367  3.6600000000000D+00  0.0000000000000D+00  0.0000000000000D+00
368  3.6700000000000D+00  0.0000000000000D+00  0.0000000000000D+00
369  3.6800000000000D+00  0.0000000000000D+00  0.0000000000000D+00
370  3.6900000000000D+00  0.0000000000000D+00  0.0000000000000D+00
371  3.7000000000000D+00  0.0000000000000D+00  0.0000000000000D+00
372  3.7100000000000D+00  0.0000000000000D+00  0.0000000000000D+00
373  3.7200000000000D+00  0.0000000000000D+00  0.0000000000000D+00
374  3.7300000000000D+00  0.0000000000000D+00  0.0000000000000D+00
375  3.7400000000000D+00  0.0000000000000D+00  0.0000000000000D+00
376  3.7500000000000D+00  0.0000000000000D+00  0.0000000000000D+00
377  3.7600000000000D+00  0.0000000000000D+00  0.0000000000000D+00
378  3.7700000000000D+00  0.0000000000000D+00  0.0000000000000D+00
379  3.7800000000000D+00  0.0000000000000D+00  0.0000000000000D+00
380  3.7900000000000D+00  0.0000000000000D+00  0.0000000000000D+00
381  3.8000000000000D+00  0.0000000000000D+00  0.0000000000000D+00
382  3.8100000000000D+00  0.0000000000000D+00  0.0000000000000D+00
383  3.8200000000000D+00  0.0000000000000D+00  0.0000000000000D+00
384  3.8300000000000D+00  0.0000000000000D+00  0.0000000000000D+00
385  3.8400000000000D+00  0.0000000000000D+00  0.0000000000000D+00
386  3.8500000000000D+00  0.0000000000000D+00  0.0000000000000D+00
387  3.8600000000000D+00  0.0000000000000D+00  0.0000000000000D+00
388  3.8700000000000D+00  0.0000000000000D+00  0.0000000000000D+00
389  3.8800000000000D+00  0.0000000000000D+00  0.0000000000000D+00
390  3.8900000000000D+00  0.0000000000000D+00  0.0000000000000D+00
391  3.9000000000000D+00  0.0000000000000D+00  0.0000000000000D+00
392  3.9100000000000D+00  0.0000000000000D+00  0.0000000000000D+00
393  3.9200000000000D+00  0.0000000000000D+00  0.0000000000000D+00
394  3.9300000000000D+00  0.0000000000000D+00  0.0000000000000D+00
395  3.9400000000000D+00  0.0000000000000D+00  0.0000000000000D+00
396  3.9500000000000D+00  0.0000000000000D+00  0.0000000000000D+00
397  3.9600000000000D+00  0.0000000000000D+00  0.0000000000000D+00
398  3.9700000000000D+00  0.0000000000000D+00  0.0000000000000D+00
399  3.9800000000000D+00  0.0000000000000D+00  0.0000000000000D+00
400  3.9900000000000D+00  0.0000000000000D+00  0.0000000000000D+00
401  4.0000000000000D+00  0.0000000000000D+00  0.0000000000000D+00
402  4.0100000000000D+00  0.0000000000000D+00  0.0000000000000D+00
403  4.0200000000000D+00  0.0000000000000D+00  0.0000000000000D+00
404  4.0300000000000D+00  0.0000000000000D+00  0.0000000000000D+00
405  4.0400000000000D+00  0.0000000000000D+00  0.0000000000000D+00
406  4.0500000000000D+00  0.0000000000000D+00  0.0000000000000D+00
407  4.0600000000000D+00  0.0000000000000D+00  0.0000000000000D+00
408  4.0700000000000D+00  0.0000000000000D+00  0.0000000000000D+00
409  4.0800000000000D+00  0.0000000000000D+00  0.0000000000000D+00
410  4.0900000000000D+00  0.0000000000000D+00  0.0000000000000D+00
411  4.1000000000000D+00  0.0000000000000D+00  0.0000000000000D+00
412  4.1100000000000D+00  0.0000000000000D+00  0.0000000000000D+00
413  4.1200000000000D+00  0.0000000000000D+00  0.0000000000000D+00
414  4.1300000000000D+00  0.0000000000000D+00  0.0000000000000D+00
415  4.1400000000000D+00  0.0000000000000D+00  0.0000000000000D+00
416  4.1500000000000D+00  0.0000000000000D+00  0.0000000000000D+00
417  4.1600000000000D+00  0.0000000000000D+00  0.0000000000000D+00
418  4.1700000000000D+00  0.0000000000000D+00  0.0000000000000D+00
419  4.1800000000000D+00  0.0000000000000D+00  0.0000000000000D+00
420  4.1900000000000D+00  0.0000000000000D+00  0.0000000000000D+00
421  4.2000000000000D+00  0.0000000000000D+00  0.0000000000000D+00
422  4.2100000000000D+00  0.0000000000000D+00  0.0000000000000D+00
423  4.2200000000000D+00  0.0000000000000D+00  0.0000000000000D+00
424  4.2300000000000D+00  0.0000000000000D+00  0.0000000000000D+00
425  4.2400000000000D+00  0.0000000000000D+00  0.0000000000000D+00
426  4.2500000000000D+00  0.0000000000000D+00  0.0000000000000D+00
427  4.2600000000000D+00  0.0000000000000D+00  0.0000000000000D+00
428  4.2700000000000D+00  0.0000000000000D+00  0.0000000000000D+00
429  4.2800000000000D+00  0.0000000000000D+00  0.0000000000000D+00
430  4.2900000000000D+00  0.0000000000000D+00  0.0000000000000D+00
431  4.3000000000000D+00  0.0000000000000D+00  0.0000000000000D+00
432  4.3100000000000D+00  0.0000000000000D+00  0.0000000000000D+00
433  4.3200000000000D+00  0.0000000000000D+00  0.0000000000000D+00
434  4.3300000000000D+00  0.0000000000000D+00  0.0000000000000D+00
435  4.3400000000000D+00  0.0000000000000D+00  0.0000000000000D+00
436  4.3500000000000D+00  0.0000000000000D+00  0.0000000000000D+00
437  4.3600000000000D+00  0.0000000000000D+00  0.0000000000000D+00
438  4.3700000000000D+00  0.0000000000000D+00  0.0000000000000D+00
439  4.3800000000000D+00  0.0000000000000D+00  0.0000000000000D+00
440  4.3900000000000D+00  0.0000000000000D+00  0.0000000000000D+00
441  4.4000000000000D+00  0.0000000000000D+00  0.0000000000000D+00
442  4.4100000000000D+00  0.0000000000000D+00  0.0000000000000D+00
443  4.4200000000000D+00  0.0000000000000D+00  0.0000000000000D+00
444  4.4300000000000D+00  0.0000000000000D+00  0.0000000000000D+00