Er    ONCVPSP-3.2.3.1  r_core=   1.81708   1.50137   1.65170   1.71187
68.0000     22.0000      170524    zatom,zion,pspd
8      11   3     4   600     0    pspcod,pspxc,lmax,lloc,mmax,r2well
5.99000000  0.25000000  0.00000000    rchrg fchrg qchrg
2     2     2     2     0    nproj
1     1           extension_switch
0                         8.6891597709591D+00  6.8810330024576D-01
1  0.0000000000000D+00 -5.7837401534755D-11  3.2195851540351D-10
2  1.0000000000000D-02  5.3175721477017D-02 -2.4142116890181D-02
3  2.0000000000000D-02  1.0627028504014D-01 -4.8133035999830D-02
4  3.0000000000000D-02  1.5920277075845D-01 -7.1822634441385D-02
5  4.0000000000000D-02  2.1189273307713D-01 -9.5062929827360D-02
6  5.0000000000000D-02  2.6426043404581D-01 -1.1770912738792D-01
7  6.0000000000000D-02  3.1622707183655D-01 -1.3962063955882D-01
8  7.0000000000000D-02  3.6771500304947D-01 -1.6066206924336D-01
9  8.0000000000000D-02  4.1864795736231D-01 -1.8070414827389D-01
10  9.0000000000000D-02  4.6895124315092D-01 -1.9962462299534D-01
11  1.0000000000000D-01  5.1855194279212D-01 -2.1730907936313D-01
12  1.1000000000000D-01  5.6737909645624D-01 -2.3365170048452D-01
13  1.2000000000000D-01  6.1536387330423D-01 -2.4855595013426D-01
14  1.3000000000000D-01  6.6243972912128D-01 -2.6193517643482D-01
15  1.4000000000000D-01  7.0854254954598D-01 -2.7371313060415D-01
16  1.5000000000000D-01  7.5361077818821D-01 -2.8382439643383D-01
17  1.6000000000000D-01  7.9758552907026D-01 -2.9221472696066D-01
18  1.7000000000000D-01  8.4041068297244D-01 -2.9884128562841D-01
19  1.8000000000000D-01  8.8203296741467D-01 -3.0367279009687D-01
20  1.9000000000000D-01  9.2240202015900D-01 -3.0668955773463D-01
21  2.0000000000000D-01  9.6147043627175D-01 -3.0788345272248D-01
22  2.1000000000000D-01  9.9919379893822D-01 -3.0725773558826D-01
23  2.2000000000000D-01  1.0355306943742D+00 -3.0482681688358D-01
24  2.3000000000000D-01  1.0704427113275D+00 -3.0061591758990D-01
25  2.4000000000000D-01  1.1038944258050D+00 -2.9466063969761D-01
26  2.5000000000000D-01  1.1358533717996D+00 -2.8700645123093D-01
27  2.6000000000000D-01  1.1662899989187D+00 -2.7770809078274D-01
28  2.7000000000000D-01  1.1951776179372D+00 -2.6682889737365D-01
29  2.8000000000000D-01  1.2224923354066D+00 -2.5444007214715D-01
30  2.9000000000000D-01  1.2482129785504D+00 -2.4061987905458D-01
31  3.0000000000000D-01  1.2723210117603D+00 -2.2545279226103D-01
32  3.1000000000000D-01  1.2948004460790D+00 -2.0902859851147D-01
33  3.2000000000000D-01  1.3156377431119D+00 -1.9144146312966D-01
34  3.3000000000000D-01  1.3348217148505D+00 -1.7278896867675D-01
35  3.4000000000000D-01  1.3523434209152D+00 -1.5317113556647D-01
36  3.5000000000000D-01  1.3681960647330D+00 -1.3268943411798D-01
37  3.6000000000000D-01  1.3823748901569D+00 -1.1144579762148D-01
38  3.7000000000000D-01  1.3948770800085D+00 -8.9541645995390D-02
39  3.8000000000000D-01  1.4057016579806D+00 -6.7076929524954D-02
40  3.9000000000000D-01  1.4148493952777D+00 -4.4149201991557D-02
41  4.0000000000000D-01  1.4223227232972D+00 -2.0852732230098D-02
42  4.1000000000000D-01  1.4281256535587D+00  2.7223372101456D-03
43  4.2000000000000D-01  1.4322637059847D+00  2.6490776073742D-02
44  4.3000000000000D-01  1.4347438465115D+00  5.0372989381927D-02
45  4.4000000000000D-01  1.4355744348760D+00  7.4295670306213D-02
46  4.5000000000000D-01  1.4347651832760D+00  9.8192376534999D-02
47  4.6000000000000D-01  1.4323271264454D+00  1.2200402448862D-01
48  4.7000000000000D-01  1.4282726035178D+00  1.4567929655354D-01
49  4.8000000000000D-01  1.4226152518800D+00  1.6917495737414D-01
50  4.9000000000000D-01  1.4153700130372D+00  1.9245607615648D-01
51  5.0000000000000D-01  1.4065531503288D+00  2.1549615288732D-01
52  5.1000000000000D-01  1.3961822781507D+00  2.3827714735259D-01
53  5.2000000000000D-01  1.3842764021568D+00  2.6078941083416D-01
54  5.3000000000000D-01  1.3708559697297D+00  2.8303152136825D-01
55  5.4000000000000D-01  1.3559429298396D+00  3.0501002445072D-01
56  5.5000000000000D-01  1.3395608012380D+00  3.2673908206072D-01
57  5.6000000000000D-01  1.3217347477752D+00  3.4824003383936D-01
58  5.7000000000000D-01  1.3024916594857D+00  3.6954087518859D-01
59  5.8000000000000D-01  1.2818602379478D+00  3.9067565793922D-01
60  5.9000000000000D-01  1.2598710843087D+00  4.1168382006729D-01
61  6.0000000000000D-01  1.2365567882648D+00  4.3260945170078D-01
62  6.1000000000000D-01  1.2119520162048D+00  4.5350050535001D-01
63  6.2000000000000D-01  1.1860935966635D+00  4.7440795890250D-01
64  6.3000000000000D-01  1.1590206011934D+00  4.9538494043953D-01
65  6.4000000000000D-01  1.1307744187494D+00  5.1648582435371D-01
66  6.5000000000000D-01  1.1013988216850D+00  5.3776530856157D-01
67  6.6000000000000D-01  1.0709400214976D+00  5.5927748281601D-01
68  6.7000000000000D-01  1.0394467125137D+00  5.8107489821945D-01
69  6.8000000000000D-01  1.0069701017923D+00  6.0320764802219D-01
70  6.9000000000000D-01  9.7356392362929D-01  6.2572246965789D-01
71  7.0000000000000D-01  9.3928443718343D-01  6.4866187772084D-01
72  7.1000000000000D-01  9.0419040589518D-01  6.7206333722815D-01
73  7.2000000000000D-01  8.6834305755297D-01  6.9595848603868D-01
74  7.3000000000000D-01  8.3180602405746D-01  7.2037241472471D-01
75  7.4000000000000D-01  7.9464526015479D-01  7.4532301151176D-01
76  7.5000000000000D-01  7.5692894064334D-01  7.7082037913427D-01
77  7.6000000000000D-01  7.1872733580863D-01  7.9686632959931D-01
78  7.7000000000000D-01  6.8011266510119D-01  8.2345396192261D-01
79  7.8000000000000D-01  6.4115892934206D-01  8.5056732690956D-01
80  7.9000000000000D-01  6.0194172201490D-01  8.7818118201165D-01
81  8.0000000000000D-01  5.6253802047993D-01  9.0626083821218D-01
82  8.1000000000000D-01  5.2302595822061D-01  9.3476209978896D-01
83  8.2000000000000D-01  4.8348457950230D-01  9.6363129669514D-01
84  8.3000000000000D-01  4.4399357808275D-01  9.9280540819416D-01
85  8.4000000000000D-01  4.0463302186079D-01  1.0222122753066D+00
86  8.5000000000000D-01  3.6548306557963D-01  1.0517708985840D+00
87  8.6000000000000D-01  3.2662365390996D-01  1.0813918167415D+00
88  8.7000000000000D-01  2.8813421742250D-01  1.1109775607613D+00
89  8.8000000000000D-01  2.5009336411588D-01  1.1404231772550D+00
90  8.9000000000000D-01  2.1257856929061D-01  1.1696168141368D+00
91  9.0000000000000D-01  1.7566586665006D-01  1.1984403610480D+00
92  9.1000000000000D-01  1.3942954356236D-01  1.2267701364796D+00
93  9.2000000000000D-01  1.0394184343073D-01  1.2544776131855D+00
94  9.3000000000000D-01  6.9272678090557D-02  1.2814301732724D+00
95  9.4000000000000D-01  3.5489353081223D-02  1.3074918842946D+00
96  9.5000000000000D-01  2.6563085247127D-03  1.3325242877833D+00
97  9.6000000000000D-01 -2.9165121817514D-02  1.3563871919068D+00
98  9.7000000000000D-01 -5.9916930941462D-02  1.3789394603830D+00
99  9.8000000000000D-01 -8.9544636331612D-02  1.4000397903486D+00
100  9.9000000000000D-01 -1.1799745319605D-01  1.4195474726359D+00
101  1.0000000000000D+00 -1.4522844170455D-01  1.4373231287913D+00
102  1.0100000000000D+00 -1.7119462709923D-01  1.4532294202121D+00
103  1.0200000000000D+00 -1.9585709194323D-01  1.4671317259196D+00
104  1.0300000000000D+00 -2.1918104019806D-01  1.4788987867343D+00
105  1.0400000000000D+00 -2.4113583328880D-01  1.4884033150185D+00
106  1.0500000000000D+00 -2.6169499877534D-01  1.4955225705376D+00
107  1.0600000000000D+00 -2.8083621273542D-01  1.5001389044631D+00
108  1.0700000000000D+00 -2.9854125747859D-01  1.5021402751003D+00
109  1.0800000000000D+00 -3.1479595664164D-01  1.5014207402258D+00
110  1.0900000000000D+00 -3.2959009026683D-01  1.4978809325733D+00
111  1.1000000000000D+00 -3.4291729287818D-01  1.4914285262251D+00
112  1.1100000000000D+00 -3.5477493802579D-01  1.4819787029769D+00
113  1.1200000000000D+00 -3.6516401315252D-01  1.4694546287996D+00
114  1.1300000000000D+00 -3.7408898897949D-01  1.4537879514378D+00
115  1.1400000000000D+00 -3.8155768794036D-01  1.4349193309551D+00
116  1.1500000000000D+00 -3.8758115638225D-01  1.4127990153499D+00
117  1.1600000000000D+00 -3.9217354539546D-01  1.3873874734230D+00
118  1.1700000000000D+00 -3.9535200523279D-01  1.3586560970429D+00
119  1.1800000000000D+00 -3.9713659822767D-01  1.3265879841397D+00
120  1.1900000000000D+00 -3.9755023490824D-01  1.2911788124452D+00
121  1.2000000000000D+00 -3.9661863783586D-01  1.2524378129154D+00
122  1.2100000000000D+00 -3.9437033727676D-01  1.2103888494630D+00
123  1.2200000000000D+00 -3.9083670217704D-01  1.1650716085654D+00
124  1.2300000000000D+00 -3.8605200918834D-01  1.1165428989189D+00
125  1.2400000000000D+00 -3.8005355202984D-01  1.0648780590703D+00
126  1.2500000000000D+00 -3.7288179187407D-01  1.0101724637462D+00
127  1.2600000000000D+00 -3.6458054815399D-01  9.5254311397263D-01
128  1.2700000000000D+00 -3.5519722895559D-01  8.9213029492177D-01
129  1.2800000000000D+00 -3.4478309695789D-01  8.2909927145876D-01
130  1.2900000000000D+00 -3.3339356523336D-01  7.6364198435477D-01
131  1.3000000000000D+00 -3.2108851728849D-01  6.9597871028714D-01
132  1.3100000000000D+00 -3.0793264018779D-01  6.2635962503988D-01
133  1.3200000000000D+00 -2.9399575832349D-01  5.5506620394785D-01
134  1.3300000000000D+00 -2.7935315512769D-01  4.8241239238250D-01
135  1.3400000000000D+00 -2.6408586153978D-01  4.0874544307735D-01
136  1.3500000000000D+00 -2.4828089091723D-01  3.3444632083203D-01
137  1.3600000000000D+00 -2.3203139696803D-01  2.5992956190279D-01
138  1.3700000000000D+00 -2.1543672022037D-01  1.8564242857012D-01
139  1.3800000000000D+00 -1.9860229504071D-01  1.1206322686054D-01
140  1.3900000000000D+00 -1.8163937567618D-01  3.9698598122547D-02
141  1.4000000000000D+00 -1.6466453410931D-01 -3.0920429013548D-02
142  1.4100000000000D+00 -1.4779889035557D-01 -9.9243806422147D-02
143  1.4200000000000D+00 -1.3116700675101D-01 -1.6470955753965D-01
144  1.4300000000000D+00 -1.1489539526394D-01 -2.2675282106016D-01
145  1.4400000000000D+00 -9.9110565986688D-02 -2.8481716511731D-01
146  1.4500000000000D+00 -8.3936523735590D-02 -3.3836859163170D-01
147  1.4600000000000D+00 -6.9491674906735D-02 -3.8691237054305D-01
148  1.4700000000000D+00 -5.5884895697342D-02 -4.3001391177204D-01
149  1.4800000000000D+00 -4.3211399467106D-02 -4.6732022928433D-01
150  1.4900000000000D+00 -3.1547430937412D-02 -4.9858680000450D-01
151  1.5000000000000D+00 -2.0939262331752D-02 -5.2373540385606D-01
152  1.5100000000000D+00 -1.1403927676187D-02 -5.4284551214309D-01
153  1.5200000000000D+00 -2.9338766462141D-03 -5.5612251241490D-01
154  1.5300000000000D+00  4.4942173333525D-03 -5.6384731430422D-01
155  1.5400000000000D+00  1.0907268827633D-02 -5.6630759352464D-01
156  1.5500000000000D+00  1.6338911284479D-02 -5.6381566944321D-01
157  1.5600000000000D+00  2.0829718837999D-02 -5.5671064009772D-01
158  1.5700000000000D+00  2.4425677598944D-02 -5.4535004338154D-01
159  1.5800000000000D+00  2.7178039002157D-02 -5.3010968523570D-01
160  1.5900000000000D+00  2.9142578727396D-02 -5.1138010153165D-01
161  1.6000000000000D+00  3.0379003965716D-02 -4.8956391104025D-01
162  1.6100000000000D+00  3.0950304898609D-02 -4.6507289211059D-01
163  1.6200000000000D+00  3.0922083845001D-02 -4.3832496736266D-01
164  1.6300000000000D+00  3.0361869088830D-02 -4.0974112836284D-01
165  1.6400000000000D+00  2.9338419872077D-02 -3.7974232948560D-01
166  1.6500000000000D+00  2.7921027453675D-02 -3.4874637152026D-01
167  1.6600000000000D+00  2.6178818030202D-02 -3.1716479993341D-01
168  1.6700000000000D+00  2.4180062641159D-02 -2.8539984024306D-01
169  1.6800000000000D+00  2.1991500697963D-02 -2.5384139916171D-01
170  1.6900000000000D+00  1.9677680953995D-02 -2.2286414817078D-01
171  1.7000000000000D+00  1.7300327516960D-02 -1.9282472244186D-01
172  1.7100000000000D+00  1.4917733134963D-02 -1.6405904486223D-01
173  1.7200000000000D+00  1.2584188201013D-02 -1.3687981178452D-01
174  1.7300000000000D+00  1.0349446040250D-02 -1.1157414301868D-01
175  1.7400000000000D+00  8.2582334006394D-03 -8.8401434777375D-02
176  1.7500000000000D+00  6.3498047571633D-03 -6.7591409353886D-02
177  1.7600000000000D+00  4.6587403952925D-03 -4.9354944409264D-02
178  1.7700000000000D+00  3.2096355820996D-03 -3.3830223198768D-02
179  1.7800000000000D+00  2.0169611788840D-03 -2.1087505880820D-02
180  1.7900000000000D+00  1.1086386972048D-03 -1.1361591730494D-02
181  1.8000000000000D+00  5.1322937913872D-04 -4.9149633796884D-03
182  1.8100000000000D+00  1.9739408160801D-04 -1.4582556705852D-03
183  1.8200000000000D+00  6.0376978249487D-05 -8.5089311902404D-05
184  1.8300000000000D+00  9.8977793016185D-06  1.5374599316070D-04
185  1.8400000000000D+00 -1.8259289968024D-07 -1.4106391308555D-05
186  1.8500000000000D+00  6.0661210474956D-07 -7.3200599767329D-05
187  1.8600000000000D+00  1.6088207370114D-07 -9.0037183847253D-06
188  1.8700000000000D+00  3.2234736479312D-07  1.1545510077498D-05
189  1.8800000000000D+00  9.1776212600027D-08  5.1382537846801D-06
190  1.8900000000000D+00 -2.1724954947779D-07  8.1390520619635D-07
191  1.9000000000000D+00 -1.7685099151140D-07  6.6255577080878D-07
192  1.9100000000000D+00  0.0000000000000D+00  0.0000000000000D+00
193  1.9200000000000D+00  0.0000000000000D+00  0.0000000000000D+00
194  1.9300000000000D+00  0.0000000000000D+00  0.0000000000000D+00
195  1.9400000000000D+00  0.0000000000000D+00  0.0000000000000D+00
196  1.9500000000000D+00  0.0000000000000D+00  0.0000000000000D+00
197  1.9600000000000D+00  0.0000000000000D+00  0.0000000000000D+00
198  1.9700000000000D+00  0.0000000000000D+00  0.0000000000000D+00
199  1.9800000000000D+00  0.0000000000000D+00  0.0000000000000D+00
200  1.9900000000000D+00  0.0000000000000D+00  0.0000000000000D+00
201  2.0000000000000D+00  0.0000000000000D+00  0.0000000000000D+00
202  2.0100000000000D+00  0.0000000000000D+00  0.0000000000000D+00
203  2.0200000000000D+00  0.0000000000000D+00  0.0000000000000D+00
204  2.0300000000000D+00  0.0000000000000D+00  0.0000000000000D+00
205  2.0400000000000D+00  0.0000000000000D+00  0.0000000000000D+00
206  2.0500000000000D+00  0.0000000000000D+00  0.0000000000000D+00
207  2.0600000000000D+00  0.0000000000000D+00  0.0000000000000D+00
208  2.0700000000000D+00  0.0000000000000D+00  0.0000000000000D+00
209  2.0800000000000D+00  0.0000000000000D+00  0.0000000000000D+00
210  2.0900000000000D+00  0.0000000000000D+00  0.0000000000000D+00
211  2.1000000000000D+00  0.0000000000000D+00  0.0000000000000D+00
212  2.1100000000000D+00  0.0000000000000D+00  0.0000000000000D+00
213  2.1200000000000D+00  0.0000000000000D+00  0.0000000000000D+00
214  2.1300000000000D+00  0.0000000000000D+00  0.0000000000000D+00
215  2.1400000000000D+00  0.0000000000000D+00  0.0000000000000D+00
216  2.1500000000000D+00  0.0000000000000D+00  0.0000000000000D+00
217  2.1600000000000D+00  0.0000000000000D+00  0.0000000000000D+00
218  2.1700000000000D+00  0.0000000000000D+00  0.0000000000000D+00
219  2.1800000000000D+00  0.0000000000000D+00  0.0000000000000D+00
220  2.1900000000000D+00  0.0000000000000D+00  0.0000000000000D+00
221  2.2000000000000D+00  0.0000000000000D+00  0.0000000000000D+00
222  2.2100000000000D+00  0.0000000000000D+00  0.0000000000000D+00
223  2.2200000000000D+00  0.0000000000000D+00  0.0000000000000D+00
224  2.2300000000000D+00  0.0000000000000D+00  0.0000000000000D+00
225  2.2400000000000D+00  0.0000000000000D+00  0.0000000000000D+00
226  2.2500000000000D+00  0.0000000000000D+00  0.0000000000000D+00
227  2.2600000000000D+00  0.0000000000000D+00  0.0000000000000D+00
228  2.2700000000000D+00  0.0000000000000D+00  0.0000000000000D+00
229  2.2800000000000D+00  0.0000000000000D+00  0.0000000000000D+00
230  2.2900000000000D+00  0.0000000000000D+00  0.0000000000000D+00
231  2.3000000000000D+00  0.0000000000000D+00  0.0000000000000D+00
232  2.3100000000000D+00  0.0000000000000D+00  0.0000000000000D+00
233  2.3200000000000D+00  0.0000000000000D+00  0.0000000000000D+00
234  2.3300000000000D+00  0.0000000000000D+00  0.0000000000000D+00
235  2.3400000000000D+00  0.0000000000000D+00  0.0000000000000D+00
236  2.3500000000000D+00  0.0000000000000D+00  0.0000000000000D+00
237  2.3600000000000D+00  0.0000000000000D+00  0.0000000000000D+00
238  2.3700000000000D+00  0.0000000000000D+00  0.0000000000000D+00
239  2.3800000000000D+00  0.0000000000000D+00  0.0000000000000D+00
240  2.3900000000000D+00  0.0000000000000D+00  0.0000000000000D+00
241  2.4000000000000D+00  0.0000000000000D+00  0.0000000000000D+00
242  2.4100000000000D+00  0.0000000000000D+00  0.0000000000000D+00
243  2.4200000000000D+00  0.0000000000000D+00  0.0000000000000D+00
244  2.4300000000000D+00  0.0000000000000D+00  0.0000000000000D+00
245  2.4400000000000D+00  0.0000000000000D+00  0.0000000000000D+00
246  2.4500000000000D+00  0.0000000000000D+00  0.0000000000000D+00
247  2.4600000000000D+00  0.0000000000000D+00  0.0000000000000D+00
248  2.4700000000000D+00  0.0000000000000D+00  0.0000000000000D+00
249  2.4800000000000D+00  0.0000000000000D+00  0.0000000000000D+00
250  2.4900000000000D+00  0.0000000000000D+00  0.0000000000000D+00
251  2.5000000000000D+00  0.0000000000000D+00  0.0000000000000D+00
252  2.5100000000000D+00  0.0000000000000D+00  0.0000000000000D+00
253  2.5200000000000D+00  0.0000000000000D+00  0.0000000000000D+00
254  2.5300000000000D+00  0.0000000000000D+00  0.0000000000000D+00
255  2.5400000000000D+00  0.0000000000000D+00  0.0000000000000D+00
256  2.5500000000000D+00  0.0000000000000D+00  0.0000000000000D+00
257  2.5600000000000D+00  0.0000000000000D+00  0.0000000000000D+00
258  2.5700000000000D+00  0.0000000000000D+00  0.0000000000000D+00
259  2.5800000000000D+00  0.0000000000000D+00  0.0000000000000D+00
260  2.5900000000000D+00  0.0000000000000D+00  0.0000000000000D+00
261  2.6000000000000D+00  0.0000000000000D+00  0.0000000000000D+00
262  2.6100000000000D+00  0.0000000000000D+00  0.0000000000000D+00
263  2.6200000000000D+00  0.0000000000000D+00  0.0000000000000D+00
264  2.6300000000000D+00  0.0000000000000D+00  0.0000000000000D+00
265  2.6400000000000D+00  0.0000000000000D+00  0.0000000000000D+00
266  2.6500000000000D+00  0.0000000000000D+00  0.0000000000000D+00
267  2.6600000000000D+00  0.0000000000000D+00  0.0000000000000D+00
268  2.6700000000000D+00  0.0000000000000D+00  0.0000000000000D+00
269  2.6800000000000D+00  0.0000000000000D+00  0.0000000000000D+00
270  2.6900000000000D+00  0.0000000000000D+00  0.0000000000000D+00
271  2.7000000000000D+00  0.0000000000000D+00  0.0000000000000D+00
272  2.7100000000000D+00  0.0000000000000D+00  0.0000000000000D+00
273  2.7200000000000D+00  0.0000000000000D+00  0.0000000000000D+00
274  2.7300000000000D+00  0.0000000000000D+00  0.0000000000000D+00
275  2.7400000000000D+00  0.0000000000000D+00  0.0000000000000D+00
276  2.7500000000000D+00  0.0000000000000D+00  0.0000000000000D+00
277  2.7600000000000D+00  0.0000000000000D+00  0.0000000000000D+00
278  2.7700000000000D+00  0.0000000000000D+00  0.0000000000000D+00
279  2.7800000000000D+00  0.0000000000000D+00  0.0000000000000D+00
280  2.7900000000000D+00  0.0000000000000D+00  0.0000000000000D+00
281  2.8000000000000D+00  0.0000000000000D+00  0.0000000000000D+00
282  2.8100000000000D+00  0.0000000000000D+00  0.0000000000000D+00
283  2.8200000000000D+00  0.0000000000000D+00  0.0000000000000D+00
284  2.8300000000000D+00  0.0000000000000D+00  0.0000000000000D+00
285  2.8400000000000D+00  0.0000000000000D+00  0.0000000000000D+00
286  2.8500000000000D+00  0.0000000000000D+00  0.0000000000000D+00
287  2.8600000000000D+00  0.0000000000000D+00  0.0000000000000D+00
288  2.8700000000000D+00  0.0000000000000D+00  0.0000000000000D+00
289  2.8800000000000D+00  0.0000000000000D+00  0.0000000000000D+00
290  2.8900000000000D+00  0.0000000000000D+00  0.0000000000000D+00
291  2.9000000000000D+00  0.0000000000000D+00  0.0000000000000D+00
292  2.9100000000000D+00  0.0000000000000D+00  0.0000000000000D+00
293  2.9200000000000D+00  0.0000000000000D+00  0.0000000000000D+00
294  2.9300000000000D+00  0.0000000000000D+00  0.0000000000000D+00
295  2.9400000000000D+00  0.0000000000000D+00  0.0000000000000D+00
296  2.9500000000000D+00  0.0000000000000D+00  0.0000000000000D+00
297  2.9600000000000D+00  0.0000000000000D+00  0.0000000000000D+00
298  2.9700000000000D+00  0.0000000000000D+00  0.0000000000000D+00
299  2.9800000000000D+00  0.0000000000000D+00  0.0000000000000D+00
300  2.9900000000000D+00  0.0000000000000D+00  0.0000000000000D+00
301  3.0000000000000D+00  0.0000000000000D+00  0.0000000000000D+00
302  3.0100000000000D+00  0.0000000000000D+00  0.0000000000000D+00
303  3.0200000000000D+00  0.0000000000000D+00  0.0000000000000D+00
304  3.0300000000000D+00  0.0000000000000D+00  0.0000000000000D+00
305  3.0400000000000D+00  0.0000000000000D+00  0.0000000000000D+00
306  3.0500000000000D+00  0.0000000000000D+00  0.0000000000000D+00
307  3.0600000000000D+00  0.0000000000000D+00  0.0000000000000D+00
308  3.0700000000000D+00  0.0000000000000D+00  0.0000000000000D+00
309  3.0800000000000D+00  0.0000000000000D+00  0.0000000000000D+00
310  3.0900000000000D+00  0.0000000000000D+00  0.0000000000000D+00
311  3.1000000000000D+00  0.0000000000000D+00  0.0000000000000D+00
312  3.1100000000000D+00  0.0000000000000D+00  0.0000000000000D+00
313  3.1200000000000D+00  0.0000000000000D+00  0.0000000000000D+00
314  3.1300000000000D+00  0.0000000000000D+00  0.0000000000000D+00
315  3.1400000000000D+00  0.0000000000000D+00  0.0000000000000D+00
316  3.1500000000000D+00  0.0000000000000D+00  0.0000000000000D+00
317  3.1600000000000D+00  0.0000000000000D+00  0.0000000000000D+00
318  3.1700000000000D+00  0.0000000000000D+00  0.0000000000000D+00
319  3.1800000000000D+00  0.0000000000000D+00  0.0000000000000D+00
320  3.1900000000000D+00  0.0000000000000D+00  0.0000000000000D+00
321  3.2000000000000D+00  0.0000000000000D+00  0.0000000000000D+00
322  3.2100000000000D+00  0.0000000000000D+00  0.0000000000000D+00
323  3.2200000000000D+00  0.0000000000000D+00  0.0000000000000D+00
324  3.2300000000000D+00  0.0000000000000D+00  0.0000000000000D+00
325  3.2400000000000D+00  0.0000000000000D+00  0.0000000000000D+00
326  3.2500000000000D+00  0.0000000000000D+00  0.0000000000000D+00
327  3.2600000000000D+00  0.0000000000000D+00  0.0000000000000D+00
328  3.2700000000000D+00  0.0000000000000D+00  0.0000000000000D+00
329  3.2800000000000D+00  0.0000000000000D+00  0.0000000000000D+00
330  3.2900000000000D+00  0.0000000000000D+00  0.0000000000000D+00
331  3.3000000000000D+00  0.0000000000000D+00  0.0000000000000D+00
332  3.3100000000000D+00  0.0000000000000D+00  0.0000000000000D+00
333  3.3200000000000D+00  0.0000000000000D+00  0.0000000000000D+00
334  3.3300000000000D+00  0.0000000000000D+00  0.0000000000000D+00
335  3.3400000000000D+00  0.0000000000000D+00  0.0000000000000D+00
336  3.3500000000000D+00  0.0000000000000D+00  0.0000000000000D+00
337  3.3600000000000D+00  0.0000000000000D+00  0.0000000000000D+00
338  3.3700000000000D+00  0.0000000000000D+00  0.0000000000000D+00
339  3.3800000000000D+00  0.0000000000000D+00  0.0000000000000D+00
340  3.3900000000000D+00  0.0000000000000D+00  0.0000000000000D+00
341  3.4000000000000D+00  0.0000000000000D+00  0.0000000000000D+00
342  3.4100000000000D+00  0.0000000000000D+00  0.0000000000000D+00
343  3.4200000000000D+00  0.0000000000000D+00  0.0000000000000D+00
344  3.4300000000000D+00  0.0000000000000D+00  0.0000000000000D+00
345  3.4400000000000D+00  0.0000000000000D+00  0.0000000000000D+00
346  3.4500000000000D+00  0.0000000000000D+00  0.0000000000000D+00
347  3.4600000000000D+00  0.0000000000000D+00  0.0000000000000D+00
348  3.4700000000000D+00  0.0000000000000D+00  0.0000000000000D+00
349  3.4800000000000D+00  0.0000000000000D+00  0.0000000000000D+00
350  3.4900000000000D+00  0.0000000000000D+00  0.0000000000000D+00
351  3.5000000000000D+00  0.0000000000000D+00  0.0000000000000D+00
352  3.5100000000000D+00  0.0000000000000D+00  0.0000000000000D+00
353  3.5200000000000D+00  0.0000000000000D+00  0.0000000000000D+00
354  3.5300000000000D+00  0.0000000000000D+00  0.0000000000000D+00
355  3.5400000000000D+00  0.0000000000000D+00  0.0000000000000D+00
356  3.5500000000000D+00  0.0000000000000D+00  0.0000000000000D+00
357  3.5600000000000D+00  0.0000000000000D+00  0.0000000000000D+00
358  3.5700000000000D+00  0.0000000000000D+00  0.0000000000000D+00
359  3.5800000000000D+00  0.0000000000000D+00  0.0000000000000D+00
360  3.5900000000000D+00  0.0000000000000D+00  0.0000000000000D+00
361  3.6000000000000D+00  0.0000000000000D+00  0.0000000000000D+00
362  3.6100000000000D+00  0.0000000000000D+00  0.0000000000000D+00
363  3.6200000000000D+00  0.0000000000000D+00  0.0000000000000D+00
364  3.6300000000000D+00  0.0000000000000D+00  0.0000000000000D+00
365  3.6400000000000D+00  0.0000000000000D+00  0.0000000000000D+00
366  3.6500000000000D+00  0.0000000000000D+00  0.0000000000000D+00
367  3.6600000000000D+00  0.0000000000000D+00  0.0000000000000D+00
368  3.6700000000000D+00  0.0000000000000D+00  0.0000000000000D+00
369  3.6800000000000D+00  0.0000000000000D+00  0.0000000000000D+00
370  3.6900000000000D+00  0.0000000000000D+00  0.0000000000000D+00
371  3.7000000000000D+00  0.0000000000000D+00  0.0000000000000D+00
372  3.7100000000000D+00  0.0000000000000D+00  0.0000000000000D+00
373  3.7200000000000D+00  0.0000000000000D+00  0.0000000000000D+00
374  3.7300000000000D+00  0.0000000000000D+00  0.0000000000000D+00
375  3.7400000000000D+00  0.0000000000000D+00  0.0000000000000D+00
376  3.7500000000000D+00  0.0000000000000D+00  0.0000000000000D+00
377  3.7600000000000D+00  0.0000000000000D+00  0.0000000000000D+00
378  3.7700000000000D+00  0.0000000000000D+00  0.0000000000000D+00
379  3.7800000000000D+00  0.0000000000000D+00  0.0000000000000D+00
380  3.7900000000000D+00  0.0000000000000D+00  0.0000000000000D+00
381  3.8000000000000D+00  0.0000000000000D+00  0.0000000000000D+00
382  3.8100000000000D+00  0.0000000000000D+00  0.0000000000000D+00
383  3.8200000000000D+00  0.0000000000000D+00  0.0000000000000D+00
384  3.8300000000000D+00  0.0000000000000D+00  0.0000000000000D+00
385  3.8400000000000D+00  0.0000000000000D+00  0.0000000000000D+00
386  3.8500000000000D+00  0.0000000000000D+00  0.0000000000000D+00
387  3.8600000000000D+00  0.0000000000000D+00  0.0000000000000D+00
388  3.8700000000000D+00  0.0000000000000D+00  0.0000000000000D+00
389  3.8800000000000D+00  0.0000000000000D+00  0.0000000000000D+00
390  3.8900000000000D+00  0.0000000000000D+00  0.0000000000000D+00
391  3.9000000000000D+00  0.0000000000000D+00  0.0000000000000D+00
392  3.9100000000000D+00  0.0000000000000D+00  0.0000000000000D+00
393  3.9200000000000D+00  0.0000000000000D+00  0.0000000000000D+00
394  3.9300000000000D+00  0.0000000000000D+00  0.0000000000000D+00
395  3.9400000000000D+00  0.0000000000000D+00  0.0000000000000D+00
396  3.9500000000000D+00  0.0000000000000D+00  0.0000000000000D+00
397  3.9600000000000D+00  0.0000000000000D+00  0.0000000000000D+00
398  3.9700000000000D+00  0.0000000000000D+00  0.0000000000000D+00
399  3.9800000000000D+00  0.0000000000000D+00  0.0000000000000D+00
400  3.9900000000000D+00  0.0000000000000D+00  0.0000000000000D+00
401  4.0000000000000D+00  0.0000000000000D+00  0.0000000000000D+00
402  4.0100000000000D+00  0.0000000000000D+00  0.0000000000000D+00
403  4.0200000000000D+00  0.0000000000000D+00  0.0000000000000D+00
404  4.0300000000000D+00  0.0000000000000D+00  0.0000000000000D+00
405  4.0400000000000D+00  0.0000000000000D+00  0.0000000000000D+00
406  4.0500000000000D+00  0.0000000000000D+00  0.0000000000000D+00
407  4.0600000000000D+00  0.0000000000000D+00  0.0000000000000D+00
408  4.0700000000000D+00  0.0000000000000D+00  0.0000000000000D+00
409  4.0800000000000D+00  0.0000000000000D+00  0.0000000000000D+00
410  4.0900000000000D+00  0.0000000000000D+00  0.0000000000000D+00
411  4.1000000000000D+00  0.0000000000000D+00  0.0000000000000D+00
412  4.1100000000000D+00  0.0000000000000D+00  0.0000000000000D+00
413  4.1200000000000D+00  0.0000000000000D+00  0.0000000000000D+00
414  4.1300000000000D+00  0.0000000000000D+00  0.0000000000000D+00
415  4.1400000000000D+00  0.0000000000000D+00  0.0000000000000D+00
416  4.1500000000000D+00  0.0000000000000D+00  0.0000000000000D+00
417  4.1600000000000D+00  0.0000000000000D+00  0.0000000000000D+00
418  4.1700000000000D+00  0.0000000000000D+00  0.0000000000000D+00
419  4.1800000000000D+00  0.0000000000000D+00  0.0000000000000D+00
420  4.1900000000000D+00  0.0000000000000D+00  0.0000000000000D+00
421  4.2000000000000D+00  0.0000000000000D+00  0.0000000000000D+00
422  4.2100000000000D+00  0.0000000000000D+00  0.0000000000000D+00
423  4.2200000000000D+00  0.0000000000000D+00  0.0000000000000D+00
424  4.2300000000000D+00  0.0000000000000D+00  0.0000000000000D+00
425  4.2400000000000D+00  0.0000000000000D+00  0.0000000000000D+00
426  4.2500000000000D+00  0.0000000000000D+00  0.0000000000000D+00
427  4.2600000000000D+00  0.0000000000000D+00  0.0000000000000D+00
428  4.2700000000000D+00  0.0000000000000D+00  0.0000000000000D+00
429  4.2800000000000D+00  0.0000000000000D+00  0.0000000000000D+00
430  4.2900000000000D+00  0.0000000000000D+00  0.0000000000000D+00
431  4.3000000000000D+00  0.0000000000000D+00  0.0000000000000D+00
432  4.3100000000000D+00  0.0000000000000D+00  0.0000000000000D+00
433  4.3200000000000D+00  0.0000000000000D+00  0.0000000000000D+00
434  4.3300000000000D+00  0.0000000000000D+00  0.0000000000000D+00
435  4.3400000000000D+00  0.0000000000000D+00  0.0000000000000D+00
436  4.3500000000000D+00  0.0000000000000D+00  0.0000000000000D+00
437  4.3600000000000D+00  0.0000000000000D+00  0.0000000000000D+00
438  4.3700000000000D+00  0.0000000000000D+00  0.0000000000000D+00
439  4.3800000000000D+00  0.0000000000000D+00  0.0000000000000D+00
440  4.3900000000000D+00  0.0000000000000D+00  0.0000000000000D+00
441  4.4000000000000D+00  0.0000000000000D+00  0.0000000000000D+00
442  4.4100000000000D+00  0.0000000000000D+00  0.0000000000000D+00
443  4.4200000000000D+00  0.0000000000000D+00  0.0000000000000D+00