Ag    ONCVPSP  r_core=  1.41  1.47  1.61
47.0000     19.0000      161004    zatom,zion,pspd
8 -116133   2     4   600     0    pspcod,pspxc,lmax,lloc,mmax,r2well
5.99000000  7.00000000  0.00000000    rchrg fchrg qchrg
2     2     2     0     0    nproj
1                 extension_switch
0                         9.5490288982139D+00 -3.2456117573558D-01
1  0.0000000000000D+00 -7.4610539968489D-11 -4.8370855099122D-09
2  1.0000000000000D-02  7.9031181115015D-02  7.2997798481722D-02
3  2.0000000000000D-02  1.5787302328541D-01  1.4540527073433D-01
4  3.0000000000000D-02  2.3633678261256D-01  2.1663837497789D-01
5  4.0000000000000D-02  3.1423490276974D-01  2.8612555348890D-01
6  5.0000000000000D-02  3.9138160250717D-01  3.5331376377929D-01
7  6.0000000000000D-02  4.6759345567366D-01  4.1767426025383D-01
8  7.0000000000000D-02  5.4268996134918D-01  4.7870804894480D-01
9  8.0000000000000D-02  6.1649410175744D-01  5.3595094276038D-01
10  9.0000000000000D-02  6.8883288571857D-01  5.8897815059259D-01
11  1.0000000000000D-01  7.5953787550934D-01  6.3740834052459D-01
12  1.1000000000000D-01  8.2844569511929D-01  6.8090712515208D-01
13  1.2000000000000D-01  8.9539851802491D-01  7.1918992557267D-01
14  1.3000000000000D-01  9.6024453274865D-01  7.5202417977426D-01
15  1.4000000000000D-01  1.0228383846232D+00  7.7923087082793D-01
16  1.5000000000000D-01  1.0830415923420D+00  8.0068536032053D-01
17  1.6000000000000D-01  1.1407229380433D+00  8.1631752269422D-01
18  1.7000000000000D-01  1.1957588298422D+00  8.2611118644053D-01
19  1.8000000000000D-01  1.2480336358981D+00  8.3010289827116D-01
20  1.9000000000000D-01  1.2974399892687D+00  8.2838003630051D-01
21  2.0000000000000D-01  1.3438790629726D+00  8.2107830777829D-01
22  2.1000000000000D-01  1.3872608148391D+00  8.0837867585646D-01
23  2.2000000000000D-01  1.4275042018794D+00  7.9050376813025D-01
24  2.3000000000000D-01  1.4645373640603D+00  7.6771382712746D-01
25  2.4000000000000D-01  1.4982977774951D+00  7.4030226942377D-01
26  2.5000000000000D-01  1.5287323771933D+00  7.0859092552837D-01
27  2.6000000000000D-01  1.5557976496237D+00  6.7292503703319D-01
28  2.7000000000000D-01  1.5794596954464D+00  6.3366809067835D-01
29  2.8000000000000D-01  1.5996942628551D+00  5.9119657090596D-01
30  2.9000000000000D-01  1.6164867520471D+00  5.4589471312313D-01
31  3.0000000000000D-01  1.6298321913981D+00  4.9814933925810D-01
32  3.1000000000000D-01  1.6397351859646D+00  4.4834485527836D-01
33  3.2000000000000D-01  1.6462098389745D+00  3.9685848717259D-01
34  3.3000000000000D-01  1.6492796469852D+00  3.4405582752478D-01
35  3.4000000000000D-01  1.6489773694032D+00  2.9028675929240D-01
36  3.5000000000000D-01  1.6453448730584D+00  2.3588181682543D-01
37  3.6000000000000D-01  1.6384329525207D+00  1.8114903662477D-01
38  3.7000000000000D-01  1.6283011268326D+00  1.2637134195666D-01
39  3.8000000000000D-01  1.6150174133121D+00  7.1804496336452D-02
40  3.9000000000000D-01  1.5986580790572D+00  1.7675651216518D-02
41  4.0000000000000D-01  1.5793073707612D+00 -3.5817496894673D-02
42  4.1000000000000D-01  1.5570572234214D+00 -8.8506935032975D-02
43  4.2000000000000D-01  1.5320069485043D+00 -1.4025395373194D-01
44  4.3000000000000D-01  1.5042629021133D+00 -1.9094817438816D-01
45  4.4000000000000D-01  1.4739381336908D+00 -2.4050601029514D-01
46  4.5000000000000D-01  1.4411520157863D+00 -2.8886859740984D-01
47  4.6000000000000D-01  1.4060298554238D+00 -3.3599924017447D-01
48  4.7000000000000D-01  1.3687024876220D+00 -3.8188042626982D-01
49  4.8000000000000D-01  1.3293058516429D+00 -4.2651047188752D-01
50  4.9000000000000D-01  1.2879805505915D+00 -4.6989986584118D-01
51  5.0000000000000D-01  1.2448713950355D+00 -5.1206738647679D-01
52  5.1000000000000D-01  1.2001269313886D+00 -5.5303606979110D-01
53  5.2000000000000D-01  1.1538989558767D+00 -5.9282911033455D-01
54  5.3000000000000D-01  1.1063420150038D+00 -6.3146577830824D-01
55  5.4000000000000D-01  1.0576128935421D+00 -6.6895743670908D-01
56  5.5000000000000D-01  1.0078700911900D+00 -7.0530374141957D-01
57  5.6000000000000D-01  9.5727328917320D-01 -7.4048910477661D-01
58  5.7000000000000D-01  9.0598280820387D-01 -7.7447949940267D-01
59  5.8000000000000D-01  8.5415905936199D-01 -8.0721967400761D-01
60  5.9000000000000D-01  8.0196198961506D-01 -8.3863084649881D-01
61  6.0000000000000D-01  7.4955052384983D-01 -8.6860893221291D-01
62  6.1000000000000D-01  6.9708200544665D-01 -8.9702335644862D-01
63  6.2000000000000D-01  6.4471163758232D-01 -9.2371649091190D-01
64  6.3000000000000D-01  5.9259192759677D-01 -9.4850374331902D-01
65  6.4000000000000D-01  5.4087213690164D-01 -9.7117431832836D-01
66  6.5000000000000D-01  4.8969773903857D-01 -9.9149265650173D-01
67  6.6000000000000D-01  4.3920988861245D-01 -1.0092005461357D+00
68  6.7000000000000D-01  3.8954490392347D-01 -1.0240198908606D+00
69  6.8000000000000D-01  3.4083376620135D-01 -1.0356561040565D+00
70  6.9000000000000D-01  2.9320163840074D-01 -1.0438020895164D+00
71  7.0000000000000D-01  2.4676740654774D-01 -1.0481427566255D+00
72  7.1000000000000D-01  2.0164324662974D-01 -1.0483600078333D+00
73  7.2000000000000D-01  1.5793421999332D-01 -1.0441381265052D+00
74  7.3000000000000D-01  1.1573790015630D-01 -1.0351694845535D+00
75  7.4000000000000D-01  7.5144033847368D-02 -1.0211604816763D+00
76  7.5000000000000D-01  3.6234238961153D-02 -1.0018376217946D+00
77  7.6000000000000D-01 -9.1825804400119D-04 -9.7695362741250D-01
78  7.7000000000000D-01 -3.6248842972674D-02 -9.4629348928397D-01
79  7.8000000000000D-01 -6.9701690839512D-02 -9.0968034701369D-01
80  7.9000000000000D-01 -1.0122989709346D-01 -8.6698109610793D-01
81  8.0000000000000D-01 -1.3079556156870D-01 -8.1811161855205D-01
82  8.1000000000000D-01 -1.5836982393353D-01 -7.6304153723945D-01
83  8.2000000000000D-01 -1.8393284975659D-01 -7.0179839947243D-01
84  8.3000000000000D-01 -2.0747376668160D-01 -6.3447120126731D-01
85  8.4000000000000D-01 -2.2899055059432D-01 -5.6121317224114D-01
86  8.5000000000000D-01 -2.4848986207324D-01 -4.8224375034030D-01
87  8.6000000000000D-01 -2.6598683383640D-01 -3.9784968646804D-01
88  8.7000000000000D-01 -2.8150481032394D-01 -3.0838523103179D-01
89  8.8000000000000D-01 -2.9507504098681D-01 -2.1427136739928D-01
90  8.9000000000000D-01 -3.0673632927961D-01 -1.1599407103753D-01
91  9.0000000000000D-01 -3.1653463977559D-01 -1.4101587513780D-02
92  9.1000000000000D-01 -3.2452266622921D-01  9.0799262652599D-02
93  9.2000000000000D-01 -3.3075936380003D-01  1.9804772930569D-01
94  9.3000000000000D-01 -3.3530944901757D-01  3.0693469019200D-01
95  9.4000000000000D-01 -3.3824287140358D-01  4.1670906807958D-01
96  9.5000000000000D-01 -3.3963426096917D-01  5.2658504076837D-01
97  9.6000000000000D-01 -3.3956235607371D-01  6.3574996365008D-01
98  9.7000000000000D-01 -3.3810941635214D-01  7.4337291215416D-01
99  9.8000000000000D-01 -3.3536062559573D-01  8.4861374000936D-01
100  9.9000000000000D-01 -3.3140348959955D-01  9.5063253927061D-01
101  1.0000000000000D+00 -3.2632723406592D-01  1.0485993795935D+00
102  1.0100000000000D+00 -3.2022220767561D-01  1.1417041974309D+00
103  1.0200000000000D+00 -3.1317929540203D-01  1.2291667008919D+00
104  1.0300000000000D+00 -3.0528934706301D-01  1.3102461528810D+00
105  1.0400000000000D+00 -2.9664262594912D-01  1.3842508939992D+00
106  1.0500000000000D+00 -2.8732828217270D-01  1.4505474677229D+00
107  1.0600000000000D+00 -2.7743385512745D-01  1.5085692132427D+00
108  1.0700000000000D+00 -2.6704480912515D-01  1.5578241967880D+00
109  1.0800000000000D+00 -2.5624410595332D-01  1.5979023585309D+00
110  1.0900000000000D+00 -2.4511181766608D-01  1.6284817616919D+00
111  1.1000000000000D+00 -2.3372478248586D-01  1.6493338411296D+00
112  1.1100000000000D+00 -2.2215630621808D-01  1.6603275609842D+00
113  1.1200000000000D+00 -2.1047591104135D-01  1.6614324057924D+00
114  1.1300000000000D+00 -1.9874913308871D-01  1.6527201420281D+00
115  1.1400000000000D+00 -1.8703736955221D-01  1.6343653072430D+00
116  1.1500000000000D+00 -1.7539777556640D-01  1.6066443986409D+00
117  1.1600000000000D+00 -1.6388321048761D-01  1.5699337529319D+00
118  1.1700000000000D+00 -1.5254223274466D-01  1.5247061232882D+00
119  1.1800000000000D+00 -1.4141914168350D-01  1.4715259839474D+00
120  1.1900000000000D+00 -1.3055406438468D-01  1.4110436081208D+00
121  1.2000000000000D+00 -1.1998308494775D-01  1.3439879812617D+00
122  1.2100000000000D+00 -1.0973841317632D-01  1.2711586311160D+00
123  1.2200000000000D+00 -9.9848589103484D-02  1.1934164737040D+00
124  1.2300000000000D+00 -9.0338719434217D-02  1.1116737877199D+00
125  1.2400000000000D+00 -8.1230741682707D-02  1.0268834404767D+00
126  1.2500000000000D+00 -7.2543711257142D-02  9.4002750856470D-01
127  1.2600000000000D+00 -6.4294106644998D-02  8.5210544104684D-01
128  1.2700000000000D+00 -5.6496147667124D-02  7.6412191959837D-01
129  1.2800000000000D+00 -4.9162121448519D-02  6.7707458411900D-01
130  1.2900000000000D+00 -4.2302710903523D-02  5.9194178805447D-01
131  1.3000000000000D+00 -3.5927320341494D-02  5.0967055449836D-01
132  1.3100000000000D+00 -3.0044392923090D-02  4.3116490340492D-01
133  1.3200000000000D+00 -2.4661714969547D-02  3.5727471099973D-01
134  1.3300000000000D+00 -1.9786701904602D-02  2.8878527069097D-01
135  1.3400000000000D+00 -1.5426661369473D-02  2.2640770175128D-01
136  1.3500000000000D+00 -1.1589029106880D-02  1.7077034936971D-01
137  1.3600000000000D+00 -8.2815732658069D-03  1.2241131913477D-01
138  1.3700000000000D+00 -5.5140971844399D-03  8.1795668512782D-02
139  1.3800000000000D+00 -3.2911164921523D-03  4.9196646874093D-02
140  1.3900000000000D+00 -1.6154784694231D-03  2.4733139382490D-02
141  1.4000000000000D+00 -5.4263443554040D-04  9.3030491777714D-03
142  1.4100000000000D+00 -4.2831607528567D-05  2.2080245119300D-03
143  1.4200000000000D+00  6.3068291115331D-05  8.6849804696388D-05
144  1.4300000000000D+00  5.3286854793892D-06 -1.8014832928715D-05
145  1.4400000000000D+00 -1.5765523982142D-05  7.4438068417263D-05
146  1.4500000000000D+00  1.3006058279401D-06 -3.1550165202799D-06
147  1.4600000000000D+00  2.4425770104088D-06 -7.5969203132724D-06
148  1.4700000000000D+00 -7.3861300392689D-08 -2.3038001475156D-06
149  1.4800000000000D+00 -4.3885671760484D-08 -1.3688334288470D-06
150  1.4900000000000D+00  0.0000000000000D+00  0.0000000000000D+00
151  1.5000000000000D+00  0.0000000000000D+00  0.0000000000000D+00
152  1.5100000000000D+00  0.0000000000000D+00  0.0000000000000D+00
153  1.5200000000000D+00  0.0000000000000D+00  0.0000000000000D+00
154  1.5300000000000D+00  0.0000000000000D+00  0.0000000000000D+00
155  1.5400000000000D+00  0.0000000000000D+00  0.0000000000000D+00
156  1.5500000000000D+00  0.0000000000000D+00  0.0000000000000D+00
157  1.5600000000000D+00  0.0000000000000D+00  0.0000000000000D+00
158  1.5700000000000D+00  0.0000000000000D+00  0.0000000000000D+00
159  1.5800000000000D+00  0.0000000000000D+00  0.0000000000000D+00
160  1.5900000000000D+00  0.0000000000000D+00  0.0000000000000D+00
161  1.6000000000000D+00  0.0000000000000D+00  0.0000000000000D+00
162  1.6100000000000D+00  0.0000000000000D+00  0.0000000000000D+00
163  1.6200000000000D+00  0.0000000000000D+00  0.0000000000000D+00
164  1.6300000000000D+00  0.0000000000000D+00  0.0000000000000D+00
165  1.6400000000000D+00  0.0000000000000D+00  0.0000000000000D+00
166  1.6500000000000D+00  0.0000000000000D+00  0.0000000000000D+00
167  1.6600000000000D+00  0.0000000000000D+00  0.0000000000000D+00
168  1.6700000000000D+00  0.0000000000000D+00  0.0000000000000D+00
169  1.6800000000000D+00  0.0000000000000D+00  0.0000000000000D+00
170  1.6900000000000D+00  0.0000000000000D+00  0.0000000000000D+00
171  1.7000000000000D+00  0.0000000000000D+00  0.0000000000000D+00
172  1.7100000000000D+00  0.0000000000000D+00  0.0000000000000D+00
173  1.7200000000000D+00  0.0000000000000D+00  0.0000000000000D+00
174  1.7300000000000D+00  0.0000000000000D+00  0.0000000000000D+00
175  1.7400000000000D+00  0.0000000000000D+00  0.0000000000000D+00
176  1.7500000000000D+00  0.0000000000000D+00  0.0000000000000D+00
177  1.7600000000000D+00  0.0000000000000D+00  0.0000000000000D+00
178  1.7700000000000D+00  0.0000000000000D+00  0.0000000000000D+00
179  1.7800000000000D+00  0.0000000000000D+00  0.0000000000000D+00
180  1.7900000000000D+00  0.0000000000000D+00  0.0000000000000D+00
181  1.8000000000000D+00  0.0000000000000D+00  0.0000000000000D+00
182  1.8100000000000D+00  0.0000000000000D+00  0.0000000000000D+00
183  1.8200000000000D+00  0.0000000000000D+00  0.0000000000000D+00
184  1.8300000000000D+00  0.0000000000000D+00  0.0000000000000D+00
185  1.8400000000000D+00  0.0000000000000D+00  0.0000000000000D+00
186  1.8500000000000D+00  0.0000000000000D+00  0.0000000000000D+00
187  1.8600000000000D+00  0.0000000000000D+00  0.0000000000000D+00
188  1.8700000000000D+00  0.0000000000000D+00  0.0000000000000D+00
189  1.8800000000000D+00  0.0000000000000D+00  0.0000000000000D+00
190  1.8900000000000D+00  0.0000000000000D+00  0.0000000000000D+00
191  1.9000000000000D+00  0.0000000000000D+00  0.0000000000000D+00
192  1.9100000000000D+00  0.0000000000000D+00  0.0000000000000D+00
193  1.9200000000000D+00  0.0000000000000D+00  0.0000000000000D+00
194  1.9300000000000D+00  0.0000000000000D+00  0.0000000000000D+00
195  1.9400000000000D+00  0.0000000000000D+00  0.0000000000000D+00
196  1.9500000000000D+00  0.0000000000000D+00  0.0000000000000D+00
197  1.9600000000000D+00  0.0000000000000D+00  0.0000000000000D+00
198  1.9700000000000D+00  0.0000000000000D+00  0.0000000000000D+00
199  1.9800000000000D+00  0.0000000000000D+00  0.0000000000000D+00
200  1.9900000000000D+00  0.0000000000000D+00  0.0000000000000D+00
201  2.0000000000000D+00  0.0000000000000D+00  0.0000000000000D+00
202  2.0100000000000D+00  0.0000000000000D+00  0.0000000000000D+00
203  2.0200000000000D+00  0.0000000000000D+00  0.0000000000000D+00
204  2.0300000000000D+00  0.0000000000000D+00  0.0000000000000D+00
205  2.0400000000000D+00  0.0000000000000D+00  0.0000000000000D+00
206  2.0500000000000D+00  0.0000000000000D+00  0.0000000000000D+00
207  2.0600000000000D+00  0.0000000000000D+00  0.0000000000000D+00
208  2.0700000000000D+00  0.0000000000000D+00  0.0000000000000D+00
209  2.0800000000000D+00  0.0000000000000D+00  0.0000000000000D+00
210  2.0900000000000D+00  0.0000000000000D+00  0.0000000000000D+00
211  2.1000000000000D+00  0.0000000000000D+00  0.0000000000000D+00
212  2.1100000000000D+00  0.0000000000000D+00  0.0000000000000D+00
213  2.1200000000000D+00  0.0000000000000D+00  0.0000000000000D+00
214  2.1300000000000D+00  0.0000000000000D+00  0.0000000000000D+00
215  2.1400000000000D+00  0.0000000000000D+00  0.0000000000000D+00
216  2.1500000000000D+00  0.0000000000000D+00  0.0000000000000D+00
217  2.1600000000000D+00  0.0000000000000D+00  0.0000000000000D+00
218  2.1700000000000D+00  0.0000000000000D+00  0.0000000000000D+00
219  2.1800000000000D+00  0.0000000000000D+00  0.0000000000000D+00
220  2.1900000000000D+00  0.0000000000000D+00  0.0000000000000D+00
221  2.2000000000000D+00  0.0000000000000D+00  0.0000000000000D+00
222  2.2100000000000D+00  0.0000000000000D+00  0.0000000000000D+00
223  2.2200000000000D+00  0.0000000000000D+00  0.0000000000000D+00
224  2.2300000000000D+00  0.0000000000000D+00  0.0000000000000D+00
225  2.2400000000000D+00  0.0000000000000D+00  0.0000000000000D+00
226  2.2500000000000D+00  0.0000000000000D+00  0.0000000000000D+00
227  2.2600000000000D+00  0.0000000000000D+00  0.0000000000000D+00
228  2.2700000000000D+00  0.0000000000000D+00  0.0000000000000D+00
229  2.2800000000000D+00  0.0000000000000D+00  0.0000000000000D+00
230  2.2900000000000D+00  0.0000000000000D+00  0.0000000000000D+00
231  2.3000000000000D+00  0.0000000000000D+00  0.0000000000000D+00
232  2.3100000000000D+00  0.0000000000000D+00  0.0000000000000D+00
233  2.3200000000000D+00  0.0000000000000D+00  0.0000000000000D+00
234  2.3300000000000D+00  0.0000000000000D+00  0.0000000000000D+00
235  2.3400000000000D+00  0.0000000000000D+00  0.0000000000000D+00
236  2.3500000000000D+00  0.0000000000000D+00  0.0000000000000D+00
237  2.3600000000000D+00  0.0000000000000D+00  0.0000000000000D+00
238  2.3700000000000D+00  0.0000000000000D+00  0.0000000000000D+00
239  2.3800000000000D+00  0.0000000000000D+00  0.0000000000000D+00
240  2.3900000000000D+00  0.0000000000000D+00  0.0000000000000D+00
241  2.4000000000000D+00  0.0000000000000D+00  0.0000000000000D+00
242  2.4100000000000D+00  0.0000000000000D+00  0.0000000000000D+00
243  2.4200000000000D+00  0.0000000000000D+00  0.0000000000000D+00
244  2.4300000000000D+00  0.0000000000000D+00  0.0000000000000D+00
245  2.4400000000000D+00  0.0000000000000D+00  0.0000000000000D+00
246  2.4500000000000D+00  0.0000000000000D+00  0.0000000000000D+00
247  2.4600000000000D+00  0.0000000000000D+00  0.0000000000000D+00
248  2.4700000000000D+00  0.0000000000000D+00  0.0000000000000D+00
249  2.4800000000000D+00  0.0000000000000D+00  0.0000000000000D+00
250  2.4900000000000D+00  0.0000000000000D+00  0.0000000000000D+00
251  2.5000000000000D+00  0.0000000000000D+00  0.0000000000000D+00
252  2.5100000000000D+00  0.0000000000000D+00  0.0000000000000D+00
253  2.5200000000000D+00  0.0000000000000D+00  0.0000000000000D+00
254  2.5300000000000D+00  0.0000000000000D+00  0.0000000000000D+00
255  2.5400000000000D+00  0.0000000000000D+00  0.0000000000000D+00
256  2.5500000000000D+00  0.0000000000000D+00  0.0000000000000D+00
257  2.5600000000000D+00  0.0000000000000D+00  0.0000000000000D+00
258  2.5700000000000D+00  0.0000000000000D+00  0.0000000000000D+00
259  2.5800000000000D+00  0.0000000000000D+00  0.0000000000000D+00
260  2.5900000000000D+00  0.0000000000000D+00  0.0000000000000D+00
261  2.6000000000000D+00  0.0000000000000D+00  0.0000000000000D+00
262  2.6100000000000D+00  0.0000000000000D+00  0.0000000000000D+00
263  2.6200000000000D+00  0.0000000000000D+00  0.0000000000000D+00
264  2.6300000000000D+00  0.0000000000000D+00  0.0000000000000D+00
265  2.6400000000000D+00  0.0000000000000D+00  0.0000000000000D+00
266  2.6500000000000D+00  0.0000000000000D+00  0.0000000000000D+00
267  2.6600000000000D+00  0.0000000000000D+00  0.0000000000000D+00
268  2.6700000000000D+00  0.0000000000000D+00  0.0000000000000D+00
269  2.6800000000000D+00  0.0000000000000D+00  0.0000000000000D+00
270  2.6900000000000D+00  0.0000000000000D+00  0.0000000000000D+00
271  2.7000000000000D+00  0.0000000000000D+00  0.0000000000000D+00
272  2.7100000000000D+00  0.0000000000000D+00  0.0000000000000D+00
273  2.7200000000000D+00  0.0000000000000D+00  0.0000000000000D+00
274  2.7300000000000D+00  0.0000000000000D+00  0.0000000000000D+00
275  2.7400000000000D+00  0.0000000000000D+00  0.0000000000000D+00
276  2.7500000000000D+00  0.0000000000000D+00  0.0000000000000D+00
277  2.7600000000000D+00  0.0000000000000D+00  0.0000000000000D+00
278  2.7700000000000D+00  0.0000000000000D+00  0.0000000000000D+00
279  2.7800000000000D+00  0.0000000000000D+00  0.0000000000000D+00
280  2.7900000000000D+00  0.0000000000000D+00  0.0000000000000D+00
281  2.8000000000000D+00  0.0000000000000D+00  0.0000000000000D+00
282  2.8100000000000D+00  0.0000000000000D+00  0.0000000000000D+00
283  2.8200000000000D+00  0.0000000000000D+00  0.0000000000000D+00
284  2.8300000000000D+00  0.0000000000000D+00  0.0000000000000D+00
285  2.8400000000000D+00  0.0000000000000D+00  0.0000000000000D+00
286  2.8500000000000D+00  0.0000000000000D+00  0.0000000000000D+00
287  2.8600000000000D+00  0.0000000000000D+00  0.0000000000000D+00
288  2.8700000000000D+00  0.0000000000000D+00  0.0000000000000D+00
289  2.8800000000000D+00  0.0000000000000D+00  0.0000000000000D+00
290  2.8900000000000D+00  0.0000000000000D+00  0.0000000000000D+00
291  2.9000000000000D+00  0.0000000000000D+00  0.0000000000000D+00
292  2.9100000000000D+00  0.0000000000000D+00  0.0000000000000D+00
293  2.9200000000000D+00  0.0000000000000D+00  0.0000000000000D+00
294  2.9300000000000D+00  0.0000000000000D+00  0.0000000000000D+00
295  2.9400000000000D+00  0.0000000000000D+00  0.0000000000000D+00
296  2.9500000000000D+00  0.0000000000000D+00  0.0000000000000D+00
297  2.9600000000000D+00  0.0000000000000D+00  0.0000000000000D+00
298  2.9700000000000D+00  0.0000000000000D+00  0.0000000000000D+00
299  2.9800000000000D+00  0.0000000000000D+00  0.0000000000000D+00
300  2.9900000000000D+00  0.0000000000000D+00  0.0000000000000D+00
301  3.0000000000000D+00  0.0000000000000D+00  0.0000000000000D+00
302  3.0100000000000D+00  0.0000000000000D+00  0.0000000000000D+00
303  3.0200000000000D+00  0.0000000000000D+00  0.0000000000000D+00
304  3.0300000000000D+00  0.0000000000000D+00  0.0000000000000D+00
305  3.0400000000000D+00  0.0000000000000D+00  0.0000000000000D+00
306  3.0500000000000D+00  0.0000000000000D+00  0.0000000000000D+00
307  3.0600000000000D+00  0.0000000000000D+00  0.0000000000000D+00
308  3.0700000000000D+00  0.0000000000000D+00  0.0000000000000D+00
309  3.0800000000000D+00  0.0000000000000D+00  0.0000000000000D+00
310  3.0900000000000D+00  0.0000000000000D+00  0.0000000000000D+00
311  3.1000000000000D+00  0.0000000000000D+00  0.0000000000000D+00
312  3.1100000000000D+00  0.0000000000000D+00  0.0000000000000D+00
313  3.1200000000000D+00  0.0000000000000D+00  0.0000000000000D+00
314  3.1300000000000D+00  0.0000000000000D+00  0.0000000000000D+00
315  3.1400000000000D+00  0.0000000000000D+00  0.0000000000000D+00
316  3.1500000000000D+00  0.0000000000000D+00  0.0000000000000D+00
317  3.1600000000000D+00  0.0000000000000D+00  0.0000000000000D+00
318  3.1700000000000D+00  0.0000000000000D+00  0.0000000000000D+00
319  3.1800000000000D+00  0.0000000000000D+00  0.0000000000000D+00
320  3.1900000000000D+00  0.0000000000000D+00  0.0000000000000D+00
321  3.2000000000000D+00  0.0000000000000D+00  0.0000000000000D+00
322  3.2100000000000D+00  0.0000000000000D+00  0.0000000000000D+00
323  3.2200000000000D+00  0.0000000000000D+00  0.0000000000000D+00
324  3.2300000000000D+00  0.0000000000000D+00  0.0000000000000D+00
325  3.2400000000000D+00  0.0000000000000D+00  0.0000000000000D+00
326  3.2500000000000D+00  0.0000000000000D+00  0.0000000000000D+00
327  3.2600000000000D+00  0.0000000000000D+00  0.0000000000000D+00
328  3.2700000000000D+00  0.0000000000000D+00  0.0000000000000D+00
329  3.2800000000000D+00  0.0000000000000D+00  0.0000000000000D+00
330  3.2900000000000D+00  0.0000000000000D+00  0.0000000000000D+00
331  3.3000000000000D+00  0.0000000000000D+00  0.0000000000000D+00
332  3.3100000000000D+00  0.0000000000000D+00  0.0000000000000D+00
333  3.3200000000000D+00  0.0000000000000D+00  0.0000000000000D+00
334  3.3300000000000D+00  0.0000000000000D+00  0.0000000000000D+00
335  3.3400000000000D+00  0.0000000000000D+00  0.0000000000000D+00
336  3.3500000000000D+00  0.0000000000000D+00  0.0000000000000D+00
337  3.3600000000000D+00  0.0000000000000D+00  0.0000000000000D+00
338  3.3700000000000D+00  0.0000000000000D+00  0.0000000000000D+00
339  3.3800000000000D+00  0.0000000000000D+00  0.0000000000000D+00
340  3.3900000000000D+00  0.0000000000000D+00  0.0000000000000D+00
341  3.4000000000000D+00  0.0000000000000D+00  0.0000000000000D+00
342  3.4100000000000D+00  0.0000000000000D+00  0.0000000000000D+00
343  3.4200000000000D+00  0.0000000000000D+00  0.0000000000000D+00
344  3.4300000000000D+00  0.0000000000000D+00  0.0000000000000D+00
345  3.4400000000000D+00  0.0000000000000D+00  0.0000000000000D+00
346  3.4500000000000D+00  0.0000000000000D+00  0.0000000000000D+00
347  3.4600000000000D+00  0.0000000000000D+00  0.0000000000000D+00
348  3.4700000000000D+00  0.0000000000000D+00  0.0000000000000D+00
349  3.4800000000000D+00  0.0000000000000D+00  0.0000000000000D+00
350  3.4900000000000D+00  0.0000000000000D+00  0.0000000000000D+00
351  3.5000000000000D+00  0.0000000000000D+00  0.0000000000000D+00
352  3.5100000000000D+00  0.0000000000000D+00  0.0000000000000D+00
353  3.5200000000000D+00  0.0000000000000D+00  0.0000000000000D+00
354  3.5300000000000D+00  0.0000000000000D+00  0.0000000000000D+00
355  3.5400000000000D+00  0.0000000000000D+00  0.0000000000000D+00
356  3.5500000000000D+00  0.0000000000000D+00  0.0000000000000D+00
357  3.5600000000000D+00  0.0000000000000D+00  0.0000000000000D+00
358  3.5700000000000D+00  0.0000000000000D+00  0.0000000000000D+00
359  3.5800000000000D+00  0.0000000000000D+00  0.0000000000000D+00
360  3.5900000000000D+00  0.0000000000000D+00  0.0000000000000D+00
361  3.6000000000000D+00  0.0000000000000D+00  0.0000000000000D+00
362  3.6100000000000D+00  0.0000000000000D+00  0.0000000000000D+00
363  3.6200000000000D+00  0.0000000000000D+00  0.0000000000000D+00
364  3.6300000000000D+00  0.0000000000000D+00  0.0000000000000D+00
365  3.6400000000000D+00  0.0000000000000D+00  0.0000000000000D+00
366  3.6500000000000D+00  0.0000000000000D+00  0.0000000000000D+00
367  3.6600000000000D+00  0.0000000000000D+00  0.0000000000000D+00
368  3.6700000000000D+00  0.0000000000000D+00  0.0000000000000D+00
369  3.6800000000000D+00  0.0000000000000D+00  0.0000000000000D+00
370  3.6900000000000D+00  0.0000000000000D+00  0.0000000000000D+00
371  3.7000000000000D+00  0.0000000000000D+00  0.0000000000000D+00
372  3.7100000000000D+00  0.0000000000000D+00  0.0000000000000D+00
373  3.7200000000000D+00  0.0000000000000D+00  0.0000000000000D+00
374  3.7300000000000D+00  0.0000000000000D+00  0.0000000000000D+00
375  3.7400000000000D+00  0.0000000000000D+00  0.0000000000000D+00
376  3.7500000000000D+00  0.0000000000000D+00  0.0000000000000D+00
377  3.7600000000000D+00  0.0000000000000D+00  0.0000000000000D+00
378  3.7700000000000D+00  0.0000000000000D+00  0.0000000000000D+00
379  3.7800000000000D+00  0.0000000000000D+00  0.0000000000000D+00
380  3.7900000000000D+00  0.0000000000000D+00  0.0000000000000D+00
381  3.8000000000000D+00  0.0000000000000D+00  0.0000000000000D+00
382  3.8100000000000D+00  0.0000000000000D+00  0.0000000000000D+00
383  3.8200000000000D+00  0.0000000000000D+00  0.0000000000000D+00
384  3.8300000000000D+00  0.0000000000000D+00  0.0000000000000D+00
385  3.8400000000000D+00  0.0000000000000D+00  0.0000000000000D+00
386  3.8500000000000D+00  0.0000000000000D+00  0.0000000000000D+00
387  3.8600000000000D+00  0.0000000000000D+00  0.0000000000000D+00
388  3.8700000000000D+00  0.0000000000000D+00  0.0000000000000D+00
389  3.8800000000000D+00  0.0000000000000D+00  0.0000000000000D+00
390  3.8900000000000D+00  0.0000000000000D+00  0.0000000000000D+00
391  3.9000000000000D+00  0.0000000000000D+00  0.0000000000000D+00
392  3.9100000000000D+00  0.0000000000000D+00  0.0000000000000D+00
393  3.9200000000000D+00  0.0000000000000D+00  0.0000000000000D+00
394  3.9300000000000D+00  0.0000000000000D+00  0.0000000000000D+00
395  3.9400000000000D+00  0.0000000000000D+00  0.0000000000000D+00
396  3.9500000000000D+00  0.0000000000000D+00  0.0000000000000D+00
397  3.9600000000000D+00  0.0000000000000D+00  0.0000000000000D+00
398  3.9700000000000D+00  0.0000000000000D+00  0.0000000000000D+00
399  3.9800000000000D+00  0.0000000000000D+00  0.0000000000000D+00
400  3.9900000000000D+00  0.0000000000000D+00  0.0000000000000D+00
401  4.0000000000000D+00  0.0000000000000D+00  0.0000000000000D+00
402  4.0100000000000D+00  0.0000000000000D+00  0.0000000000000D+00
403  4.0200000000000D+00  0.0000000000000D+00  0.0000000000000D+00
404  4.0300000000000D+00  0.0000000000000D+00  0.0000000000000D+00
405  4.0400000000000D+00  0.0000000000000D+00  0.0000000000000D+00
406  4.0500000000000D+00  0.0000000000000D+00  0.0000000000000D+00
407  4.0600000000000D+00  0.0000000000000D+00  0.0000000000000D+00
408  4.0700000000000D+00  0.0000000000000D+00  0.0000000000000D+00
409  4.0800000000000D+00  0.0000000000000D+00  0.0000000000000D+00
410  4.0900000000000D+00  0.0000000000000D+00  0.0000000000000D+00
411  4.1000000000000D+00  0.0000000000000D+00  0.0000000000000D+00
412  4.1100000000000D+00  0.0000000000000D+00  0.0000000000000D+00
413  4.1200000000000D+00  0.0000000000000D+00  0.0000000000000D+00
414  4.1300000000000D+00  0.0000000000000D+00  0.0000000000000D+00
415  4.1400000000000D+00  0.0000000000000D+00  0.0000000000000D+00
416  4.1500000000000D+00  0.0000000000000D+00  0.0000000000000D+00
417  4.1600000000000D+00  0.0000000000000D+00  0.0000000000000D+00
418  4.1700000000000D+00  0.0000000000000D+00  0.0000000000000D+00
419  4.1800000000000D+00  0.0000000000000D+00  0.0000000000000D+00
420  4.1900000000000D+00  0.0000000000000D+00  0.0000000000000D+00
421  4.2000000000000D+00  0.0000000000000D+00  0.0000000000000D+00
422  4.2100000000000D+00  0.0000000000000D+00  0.0000000000000D+00
423  4.2200000000000D+00  0.0000000000000D+00  0.0000000000000D+00
424  4.2300000000000D+00  0.0000000000000D+00  0.0000000000000D+00
425  4.2400000000000D+00  0.0000000000000D+00  0.0000000000000D+00
426  4.2500000000000D+00  0.0000000000000D+00  0.0000000000000D+00
427  4.2600000000000D+00  0.0000000000000D+00  0.0000000000000D+00
428  4.2700000000000D+00  0.0000000000000D+00  0.0000000000000D+00
429  4.2800000000000D+00  0.0000000000000D+00  0.0000000000000D+00
430  4.2900000000000D+00  0.0000000000000D+00  0.0000000000000D+00
431  4.3000000000000D+00  0.0000000000000D+00  0.0000000000000D+00
432  4.3100000000000D+00  0.0000000000000D+00  0.0000000000000D+00
433  4.3200000000000D+00  0.0000000000000D+00  0.0000000000000D+00
434  4.3300000000000D+00  0.0000000000000D+00  0.0000000000000D+00
435  4.3400000000000D+00  0.0000000000000D+00  0.0000000000000D+00
436  4.3500000000000D+00  0.0000000000000D+00  0.0000000000000D+00
437  4.3600000000000D+00  0.0000000000000D+00  0.0000000000000D+00
438  4.3700000000000D+00  0.0000000000000D+00  0.0000000000000D+00
439  4.3800000000000D+00  0.0000000000000D+00  0.0000000000000D+00
440  4.3900000000000D+00  0.0000000000000D+00  0.0000000000000D+00
441  4.4000000000000D+00  0.0000000000000D+00  0.0000000000000D+00
442  4.4100000000000D+00  0.0000000000000D+00  0.0000000000000D+00
443  4.4200000000000D+00  0.0000000000000D+00  0.0000000000000D+00
444  4.4300000000000D+00  0.0000000000000D+00  0.0000000000000D+00