Ba    ONCVPSP-3.3.0  r_core=   1.95835   1.80147   1.91218
56.0000     10.0000      180112    zatom,zion,pspd
8 -116133   2     4   600     0    pspcod,pspxc,lmax,lloc,mmax,r2well
5.99000000  5.00000000  0.00000000    rchrg fchrg qchrg
2     2     2     0     0    nproj
1     1           extension_switch
0                         6.5566824940264D+00  6.3822884894032D-01
1  0.0000000000000D+00  2.3533092141648D-11 -1.1222633933272D-10
2  1.0000000000000D-02  2.4503512709935D-02 -1.7874073838727D-03
3  2.0000000000000D-02  4.9014426356605D-02 -3.6267717408526D-03
4  3.0000000000000D-02  7.3540014845430D-02 -5.5695675975052D-03
5  4.0000000000000D-02  9.8087298878820D-02 -7.6663083125171D-03
6  5.0000000000000D-02  1.2266292149778D-01 -9.9660747772495D-03
7  6.0000000000000D-02  1.4727302617848D-01 -1.2516055177894D-02
8  7.0000000000000D-02  1.7192313830785D-01 -1.5361099374246D-02
9  8.0000000000000D-02  1.9661805083852D-01 -1.8543291337894D-02
10  9.0000000000000D-02  2.2136171489463D-01 -2.2101542954239D-02
11  1.0000000000000D-01  2.4615713606541D-01 -2.6071212328758D-02
12  1.1000000000000D-01  2.7100627708402D-01 -3.0483749549912D-02
13  1.2000000000000D-01  2.9590996754494D-01 -3.5366372650337D-02
14  1.3000000000000D-01  3.2086782126398D-01 -4.0741776275966D-02
15  1.4000000000000D-01  3.4587816183252D-01 -4.6627875321512D-02
16  1.5000000000000D-01  3.7093795686043D-01 -5.3037585521808D-02
17  1.6000000000000D-01  3.9604276134215D-01 -5.9978642704438D-02
18  1.7000000000000D-01  4.2118667051754D-01 -6.7453462111338D-02
19  1.8000000000000D-01  4.4636228253321D-01 -7.5459038888737D-02
20  1.9000000000000D-01  4.7156067114303D-01 -8.3986890527296D-02
21  2.0000000000000D-01  4.9677136861690D-01 -9.3023041711045D-02
22  2.1000000000000D-01  5.2198235895739D-01 -1.0254805170631D-01
23  2.2000000000000D-01  5.4718008145288D-01 -1.1253708409329D-01
24  2.3000000000000D-01  5.7234944452545D-01 -1.2296001831567D-01
25  2.4000000000000D-01  5.9747384976161D-01 -1.3378160220023D-01
26  2.5000000000000D-01  6.2253522594505D-01 -1.4496164428087D-01
27  2.6000000000000D-01  6.4751407284287D-01 -1.5645524445341D-01
28  2.7000000000000D-01  6.7238951443137D-01 -1.6821306118988D-01
29  2.8000000000000D-01  6.9713936118430D-01 -1.8018161325703D-01
30  2.9000000000000D-01  7.2174018098654D-01 -1.9230361361614D-01
31  3.0000000000000D-01  7.4616737817901D-01 -2.0451833293001D-01
32  3.1000000000000D-01  7.7039528018832D-01 -2.1676198987358D-01
33  3.2000000000000D-01  7.9439723114503D-01 -2.2896816523444D-01
34  3.3000000000000D-01  8.1814569185083D-01 -2.4106823660510D-01
35  3.4000000000000D-01  8.4161234541510D-01 -2.5299183030760D-01
36  3.5000000000000D-01  8.6476820784699D-01 -2.6466728705666D-01
37  3.6000000000000D-01  8.8758374286050D-01 -2.7602213776049D-01
38  3.7000000000000D-01  9.1002898012619D-01 -2.8698358577939D-01
39  3.8000000000000D-01  9.3207363618606D-01 -2.9747899191247D-01
40  3.9000000000000D-01  9.5368723723582D-01 -3.0743635836223D-01
41  4.0000000000000D-01  9.7483924297344D-01 -3.1678480793582D-01
42  4.1000000000000D-01  9.9549917071265D-01 -3.2545505478138D-01
43  4.2000000000000D-01  1.0156367189663D+00 -3.3337986302564D-01
44  4.3000000000000D-01  1.0352218897169D+00 -3.4049448977757D-01
45  4.4000000000000D-01  1.0542251086082D+00 -3.4673710908798D-01
46  4.5000000000000D-01  1.0726173423174D+00 -3.5204921361005D-01
47  4.6000000000000D-01  1.0903702123939D+00 -3.5637599088477D-01
48  4.7000000000000D-01  1.1074561048873D+00 -3.5966667138167D-01
49  4.8000000000000D-01  1.1238482751235D+00 -3.6187484565378D-01
50  4.9000000000000D-01  1.1395209470351D+00 -3.6295874821683D-01
51  5.0000000000000D-01  1.1544494064973D+00 -3.6288150603392D-01
52  5.1000000000000D-01  1.1686100881743D+00 -3.6161134977548D-01
53  5.2000000000000D-01  1.1819806554353D+00 -3.5912178632888D-01
54  5.3000000000000D-01  1.1945400729599D+00 -3.5539173135063D-01
55  5.4000000000000D-01  1.2062686717114D+00 -3.5040560098172D-01
56  5.5000000000000D-01  1.2171482060206D+00 -3.4415336218443D-01
57  5.6000000000000D-01  1.2271619025887D+00 -3.3663054150111D-01
58  5.7000000000000D-01  1.2362945012820D+00 -3.2783819238015D-01
59  5.8000000000000D-01  1.2445322876579D+00 -3.1778282156039D-01
60  5.9000000000000D-01  1.2518631172286D+00 -3.0647627534639D-01
61  6.0000000000000D-01  1.2582764315340D+00 -2.9393558694483D-01
62  6.1000000000000D-01  1.2637632661611D+00 -2.8018278635887D-01
63  6.2000000000000D-01  1.2683162509082D+00 -2.6524467465611D-01
64  6.3000000000000D-01  1.2719296023547D+00 -2.4915256472704D-01
65  6.4000000000000D-01  1.2745991091553D+00 -2.3194199093826D-01
66  6.5000000000000D-01  1.2763221104316D+00 -2.1365239035271D-01
67  6.6000000000000D-01  1.2770974676871D+00 -1.9432675843396D-01
68  6.7000000000000D-01  1.2769255307162D+00 -1.7401128237584D-01
69  6.8000000000000D-01  1.2758080980245D+00 -1.5275495539510D-01
70  6.9000000000000D-01  1.2737483723119D+00 -1.3060917549418D-01
71  7.0000000000000D-01  1.2707509116066D+00 -1.0762733234311D-01
72  7.1000000000000D-01  1.2668215766616D+00 -8.3864386038603D-02
73  7.2000000000000D-01  1.2619674752524D+00 -5.9376441578197D-02
74  7.3000000000000D-01  1.2561969040231D+00 -3.4220322932927D-02
75  7.4000000000000D-01  1.2495192885471D+00 -8.4531506152794D-03
76  7.5000000000000D-01  1.2419451222632D+00  1.7868073380972D-02
77  7.6000000000000D-01  1.2334859049521D+00  4.4686869447437D-02
78  7.7000000000000D-01  1.2241540814067D+00  7.1947669299533D-02
79  7.8000000000000D-01  1.2139629809343D+00  9.9596186373519D-02
80  7.9000000000000D-01  1.2029267583100D+00  1.2757976422194D-01
81  8.0000000000000D-01  1.1910603367716D+00  1.5584769963188D-01
82  8.1000000000000D-01  1.1783793536157D+00  1.8435153740617D-01
83  8.2000000000000D-01  1.1649001089154D+00  2.1304533399011D-01
84  8.3000000000000D-01  1.1506395178376D+00  2.4188588739795D-01
85  8.4000000000000D-01  1.1356150669908D+00  2.7083293118825D-01
86  8.5000000000000D-01  1.1198447751813D+00  2.9984929055509D-01
87  8.6000000000000D-01  1.1033471588993D+00  3.2890099894115D-01
88  8.7000000000000D-01  1.0861412027992D+00  3.5795737393377D-01
89  8.8000000000000D-01  1.0682463353731D+00  3.8699105157641D-01
90  8.9000000000000D-01  1.0496824099538D+00  4.1597797860927D-01
91  9.0000000000000D-01  1.0304696911164D+00  4.4489736254450D-01
92  9.1000000000000D-01  1.0106288464805D+00  4.7373157987758D-01
93  9.2000000000000D-01  9.9018094384386D-01  5.0246604313455D-01
94  9.3000000000000D-01  9.6914745351472D-01  5.3108902785234D-01
95  9.4000000000000D-01  9.4755025563794D-01  5.5959146098093D-01
96  9.5000000000000D-01  9.2541165224541D-01  5.8796667258160D-01
97  9.6000000000000D-01  9.0275438369686D-01  6.1621011306722D-01
98  9.7000000000000D-01  8.7960164911419D-01  6.4431903858906D-01
99  9.8000000000000D-01  8.5597713035391D-01  6.7229216751443D-01
100  9.9000000000000D-01  8.3190501900679D-01  7.0012931125860D-01
101  1.0000000000000D+00  8.0741004586251D-01  7.2783098302937D-01
102  1.0100000000000D+00  7.8251751223168D-01  7.5539798830562D-01
103  1.0200000000000D+00  7.5725332247479D-01  7.8283100111810D-01
104  1.0300000000000D+00  7.3164401705396D-01  8.1013013039814D-01
105  1.0400000000000D+00  7.0571680539305D-01  8.3729448083556D-01
106  1.0500000000000D+00  6.7949959780930D-01  8.6432171282156D-01
107  1.0600000000000D+00  6.5302103576413D-01  8.9120760614724D-01
108  1.0700000000000D+00  6.2631051967097D-01  9.1794563218986D-01
109  1.0800000000000D+00  5.9939823349676D-01  9.4452653933574D-01
110  1.0900000000000D+00  5.7231516539949D-01  9.7093795636462D-01
111  1.1000000000000D+00  5.4509312365835D-01  9.9716401845049D-01
112  1.1100000000000D+00  5.1776474717245D-01  1.0231850203337D+00
113  1.1200000000000D+00  4.9036350983167D-01  1.0489771010756D+00
114  1.1300000000000D+00  4.6292371810103D-01  1.0745119646058D+00
115  1.1400000000000D+00  4.3548050120241D-01  1.0997566400432D+00
116  1.1500000000000D+00  4.0806979332681D-01  1.1246732855100D+00
117  1.1600000000000D+00  3.8072830736056D-01  1.1492190388833D+00
118  1.1700000000000D+00  3.5349349968228D-01  1.1733459185330D+00
119  1.1800000000000D+00  3.2640352565457D-01  1.1970007767310D+00
120  1.1900000000000D+00  2.9949718549403D-01  1.2201253080884D+00
121  1.2000000000000D+00  2.7281386029493D-01  1.2426561148824D+00
122  1.2100000000000D+00  2.4639343806636D-01  1.2645248306676D+00
123  1.2200000000000D+00  2.2027622973030D-01  1.2856583030898D+00
124  1.2300000000000D+00  1.9450287508554D-01  1.3059788365050D+00
125  1.2400000000000D+00  1.6911423888449D-01  1.3254044942230D+00
126  1.2500000000000D+00  1.4415129725071D-01  1.3438494597525D+00
127  1.2600000000000D+00  1.1965501469823D-01  1.3612244562400D+00
128  1.2700000000000D+00  9.5666212199310D-02  1.3774372222684D+00
129  1.2800000000000D+00  7.2225426806456D-02  1.3923930418522D+00
130  1.2900000000000D+00  4.9372763362734D-02  1.4059953263105D+00
131  1.3000000000000D+00  2.7147739025855D-02  1.4181462446315D+00
132  1.3100000000000D+00  5.5891213830829D-03  1.4287473986476D+00
133  1.3200000000000D+00 -1.5265239066790D-02  1.4377005393518D+00
134  1.3300000000000D+00 -3.5378581065459D-02  1.4449083194245D+00
135  1.3400000000000D+00 -5.4715408407517D-02  1.4502750771759D+00
136  1.3500000000000D+00 -7.3241668388406D-02  1.4537076468269D+00
137  1.3600000000000D+00 -9.0924931699541D-02  1.4551161890976D+00
138  1.3700000000000D+00 -1.0773457264792D-01  1.4544150364462D+00
139  1.3800000000000D+00 -1.2364194846477D-01  1.4515235466573D+00
140  1.3900000000000D+00 -1.3862057642992D-01  1.4463669581986D+00
141  1.4000000000000D+00 -1.5264630756702D-01  1.4388772409830D+00
142  1.4100000000000D+00 -1.6569749556816D-01  1.4289939355215D+00
143  1.4200000000000D+00 -1.7775515967744D-01  1.4166649738548D+00
144  1.4300000000000D+00 -1.8880314018077D-01  1.4018474752094D+00
145  1.4400000000000D+00 -1.9882824526493D-01  1.3845085097918D+00
146  1.4500000000000D+00 -2.0782038789716D-01  1.3646258236765D+00
147  1.4600000000000D+00 -2.1577271153746D-01  1.3421885183938D+00
148  1.4700000000000D+00 -2.2268170347111D-01  1.3171976787762D+00
149  1.4800000000000D+00 -2.2854729452559D-01  1.2896669424437D+00
150  1.4900000000000D+00 -2.3337294426947D-01  1.2596230059563D+00
151  1.5000000000000D+00 -2.3716571036202D-01  1.2271060605448D+00
152  1.5100000000000D+00 -2.3993630147759D-01  1.1921701540479D+00
153  1.5200000000000D+00 -2.4169911256457D-01  1.1548834724052D+00
154  1.5300000000000D+00 -2.4247224197550D-01  1.1153285379022D+00
155  1.5400000000000D+00 -2.4227748961967D-01  1.0736023194631D+00
156  1.5500000000000D+00 -2.4114033558336D-01  1.0298162517330D+00
157  1.5600000000000D+00 -2.3908989895520D-01  9.8409616120271D-01
158  1.5700000000000D+00 -2.3615887612183D-01  9.3658209520093D-01
159  1.5800000000000D+00 -2.3238345894877D-01  8.8742805545630D-01
160  1.5900000000000D+00 -2.2780323190848D-01  8.3680163100820D-01
161  1.6000000000000D+00 -2.2246104925925D-01  7.8488353570097D-01
162  1.6100000000000D+00 -2.1640289122611D-01  7.3186704445658D-01
163  1.6200000000000D+00 -2.0967770076192D-01  6.7795733601280D-01
164  1.6300000000000D+00 -2.0233720007198D-01  6.2337073749671D-01
165  1.6400000000000D+00 -1.9443568862200D-01  5.6833387926969D-01
166  1.6500000000000D+00 -1.8602982223492D-01  5.1308275757294D-01
167  1.6600000000000D+00 -1.7717837506984D-01  4.5786171380585D-01
168  1.6700000000000D+00 -1.6794198448842D-01  4.0292233002071D-01
169  1.6800000000000D+00 -1.5838288068962D-01  3.4852224993386D-01
170  1.6900000000000D+00 -1.4856460145618D-01  2.9492392677930D-01
171  1.7000000000000D+00 -1.3855169400347D-01  2.4239330788801D-01
172  1.7100000000000D+00 -1.2840940453864D-01  1.9119845868388D-01
173  1.7200000000000D+00 -1.1820335763958D-01  1.4160813661493D-01
174  1.7300000000000D+00 -1.0799922626576D-01  9.3890318761172D-02
175  1.7400000000000D+00 -9.7862394252090D-02  4.8310692042315D-02
176  1.7500000000000D+00 -8.7857613353626D-02  5.1311171347645D-03
177  1.7600000000000D+00 -7.8048657885606D-02 -3.5391917352846D-02
178  1.7700000000000D+00 -6.8497961848042D-02 -7.3008942429585D-02
179  1.7800000000000D+00 -5.9266314120141D-02 -1.0747881957031D-01
180  1.7900000000000D+00 -5.0412459466716D-02 -1.3857057833747D-01
181  1.8000000000000D+00 -4.1992654804129D-02 -1.6606558626607D-01
182  1.8100000000000D+00 -3.4060600272060D-02 -1.8975742579708D-01
183  1.8200000000000D+00 -2.6667260994266D-02 -2.0945241498429D-01
184  1.8300000000000D+00 -1.9860762134875D-02 -2.2496991150751D-01
185  1.8400000000000D+00 -1.3686398269839D-02 -2.3614193658856D-01
186  1.8500000000000D+00 -8.1864188005159D-03 -2.4281418660962D-01
187  1.8600000000000D+00 -3.3997556773330D-03 -2.4484745172791D-01
188  1.8700000000000D+00  6.3816992939836D-04 -2.4211856013038D-01
189  1.8800000000000D+00  3.8956059214637D-03 -2.3452110619735D-01
190  1.8900000000000D+00  6.3431137235440D-03 -2.2194913015833D-01
191  1.9000000000000D+00  7.9372828076393D-03 -2.0411343049810D-01
192  1.9100000000000D+00  8.7172784928722D-03 -1.8162434567119D-01
193  1.9200000000000D+00  8.7800699546421D-03 -1.5576129453437D-01
194  1.9300000000000D+00  7.7850355418100D-03 -1.2271209266457D-01
195  1.9400000000000D+00  5.3715772283042D-03 -7.8306966912569D-02
196  1.9500000000000D+00  2.1887457844442D-03 -3.0242594359428D-02
197  1.9600000000000D+00 -1.7969546311628D-04  2.9200661399967D-03
198  1.9700000000000D+00 -6.2878105348914D-04  8.9293125437750D-03
199  1.9800000000000D+00 -1.2427690101616D-04  1.7330371225975D-03
200  1.9900000000000D+00  1.4224244111994D-04 -2.0815474457400D-03
201  2.0000000000000D+00  9.4530242266984D-05 -1.3756691085249D-03
202  2.0100000000000D+00 -1.0969348942368D-05  1.7255263389291D-04
203  2.0200000000000D+00 -1.7004700117898D-05  2.6687207741857D-04
204  2.0300000000000D+00 -4.7984411881924D-09  1.2179832225685D-08
205  2.0400000000000D+00 -1.0130601447494D-07  2.5714397892254D-07
206  2.0500000000000D+00 -4.8367529947147D-08  1.2277078676648D-07
207  2.0600000000000D+00  0.0000000000000D+00  0.0000000000000D+00
208  2.0700000000000D+00  0.0000000000000D+00  0.0000000000000D+00
209  2.0800000000000D+00  0.0000000000000D+00  0.0000000000000D+00
210  2.0900000000000D+00  0.0000000000000D+00  0.0000000000000D+00
211  2.1000000000000D+00  0.0000000000000D+00  0.0000000000000D+00
212  2.1100000000000D+00  0.0000000000000D+00  0.0000000000000D+00
213  2.1200000000000D+00  0.0000000000000D+00  0.0000000000000D+00
214  2.1300000000000D+00  0.0000000000000D+00  0.0000000000000D+00
215  2.1400000000000D+00  0.0000000000000D+00  0.0000000000000D+00
216  2.1500000000000D+00  0.0000000000000D+00  0.0000000000000D+00
217  2.1600000000000D+00  0.0000000000000D+00  0.0000000000000D+00
218  2.1700000000000D+00  0.0000000000000D+00  0.0000000000000D+00
219  2.1800000000000D+00  0.0000000000000D+00  0.0000000000000D+00
220  2.1900000000000D+00  0.0000000000000D+00  0.0000000000000D+00
221  2.2000000000000D+00  0.0000000000000D+00  0.0000000000000D+00
222  2.2100000000000D+00  0.0000000000000D+00  0.0000000000000D+00
223  2.2200000000000D+00  0.0000000000000D+00  0.0000000000000D+00
224  2.2300000000000D+00  0.0000000000000D+00  0.0000000000000D+00
225  2.2400000000000D+00  0.0000000000000D+00  0.0000000000000D+00
226  2.2500000000000D+00  0.0000000000000D+00  0.0000000000000D+00
227  2.2600000000000D+00  0.0000000000000D+00  0.0000000000000D+00
228  2.2700000000000D+00  0.0000000000000D+00  0.0000000000000D+00
229  2.2800000000000D+00  0.0000000000000D+00  0.0000000000000D+00
230  2.2900000000000D+00  0.0000000000000D+00  0.0000000000000D+00
231  2.3000000000000D+00  0.0000000000000D+00  0.0000000000000D+00
232  2.3100000000000D+00  0.0000000000000D+00  0.0000000000000D+00
233  2.3200000000000D+00  0.0000000000000D+00  0.0000000000000D+00
234  2.3300000000000D+00  0.0000000000000D+00  0.0000000000000D+00
235  2.3400000000000D+00  0.0000000000000D+00  0.0000000000000D+00
236  2.3500000000000D+00  0.0000000000000D+00  0.0000000000000D+00
237  2.3600000000000D+00  0.0000000000000D+00  0.0000000000000D+00
238  2.3700000000000D+00  0.0000000000000D+00  0.0000000000000D+00
239  2.3800000000000D+00  0.0000000000000D+00  0.0000000000000D+00
240  2.3900000000000D+00  0.0000000000000D+00  0.0000000000000D+00
241  2.4000000000000D+00  0.0000000000000D+00  0.0000000000000D+00
242  2.4100000000000D+00  0.0000000000000D+00  0.0000000000000D+00
243  2.4200000000000D+00  0.0000000000000D+00  0.0000000000000D+00
244  2.4300000000000D+00  0.0000000000000D+00  0.0000000000000D+00
245  2.4400000000000D+00  0.0000000000000D+00  0.0000000000000D+00
246  2.4500000000000D+00  0.0000000000000D+00  0.0000000000000D+00
247  2.4600000000000D+00  0.0000000000000D+00  0.0000000000000D+00
248  2.4700000000000D+00  0.0000000000000D+00  0.0000000000000D+00
249  2.4800000000000D+00  0.0000000000000D+00  0.0000000000000D+00
250  2.4900000000000D+00  0.0000000000000D+00  0.0000000000000D+00
251  2.5000000000000D+00  0.0000000000000D+00  0.0000000000000D+00
252  2.5100000000000D+00  0.0000000000000D+00  0.0000000000000D+00
253  2.5200000000000D+00  0.0000000000000D+00  0.0000000000000D+00
254  2.5300000000000D+00  0.0000000000000D+00  0.0000000000000D+00
255  2.5400000000000D+00  0.0000000000000D+00  0.0000000000000D+00
256  2.5500000000000D+00  0.0000000000000D+00  0.0000000000000D+00
257  2.5600000000000D+00  0.0000000000000D+00  0.0000000000000D+00
258  2.5700000000000D+00  0.0000000000000D+00  0.0000000000000D+00
259  2.5800000000000D+00  0.0000000000000D+00  0.0000000000000D+00
260  2.5900000000000D+00  0.0000000000000D+00  0.0000000000000D+00
261  2.6000000000000D+00  0.0000000000000D+00  0.0000000000000D+00
262  2.6100000000000D+00  0.0000000000000D+00  0.0000000000000D+00
263  2.6200000000000D+00  0.0000000000000D+00  0.0000000000000D+00
264  2.6300000000000D+00  0.0000000000000D+00  0.0000000000000D+00
265  2.6400000000000D+00  0.0000000000000D+00  0.0000000000000D+00
266  2.6500000000000D+00  0.0000000000000D+00  0.0000000000000D+00
267  2.6600000000000D+00  0.0000000000000D+00  0.0000000000000D+00
268  2.6700000000000D+00  0.0000000000000D+00  0.0000000000000D+00
269  2.6800000000000D+00  0.0000000000000D+00  0.0000000000000D+00
270  2.6900000000000D+00  0.0000000000000D+00  0.0000000000000D+00
271  2.7000000000000D+00  0.0000000000000D+00  0.0000000000000D+00
272  2.7100000000000D+00  0.0000000000000D+00  0.0000000000000D+00
273  2.7200000000000D+00  0.0000000000000D+00  0.0000000000000D+00
274  2.7300000000000D+00  0.0000000000000D+00  0.0000000000000D+00
275  2.7400000000000D+00  0.0000000000000D+00  0.0000000000000D+00
276  2.7500000000000D+00  0.0000000000000D+00  0.0000000000000D+00
277  2.7600000000000D+00  0.0000000000000D+00  0.0000000000000D+00
278  2.7700000000000D+00  0.0000000000000D+00  0.0000000000000D+00
279  2.7800000000000D+00  0.0000000000000D+00  0.0000000000000D+00
280  2.7900000000000D+00  0.0000000000000D+00  0.0000000000000D+00
281  2.8000000000000D+00  0.0000000000000D+00  0.0000000000000D+00
282  2.8100000000000D+00  0.0000000000000D+00  0.0000000000000D+00
283  2.8200000000000D+00  0.0000000000000D+00  0.0000000000000D+00
284  2.8300000000000D+00  0.0000000000000D+00  0.0000000000000D+00
285  2.8400000000000D+00  0.0000000000000D+00  0.0000000000000D+00
286  2.8500000000000D+00  0.0000000000000D+00  0.0000000000000D+00
287  2.8600000000000D+00  0.0000000000000D+00  0.0000000000000D+00
288  2.8700000000000D+00  0.0000000000000D+00  0.0000000000000D+00
289  2.8800000000000D+00  0.0000000000000D+00  0.0000000000000D+00
290  2.8900000000000D+00  0.0000000000000D+00  0.0000000000000D+00
291  2.9000000000000D+00  0.0000000000000D+00  0.0000000000000D+00
292  2.9100000000000D+00  0.0000000000000D+00  0.0000000000000D+00
293  2.9200000000000D+00  0.0000000000000D+00  0.0000000000000D+00
294  2.9300000000000D+00  0.0000000000000D+00  0.0000000000000D+00
295  2.9400000000000D+00  0.0000000000000D+00  0.0000000000000D+00
296  2.9500000000000D+00  0.0000000000000D+00  0.0000000000000D+00
297  2.9600000000000D+00  0.0000000000000D+00  0.0000000000000D+00
298  2.9700000000000D+00  0.0000000000000D+00  0.0000000000000D+00
299  2.9800000000000D+00  0.0000000000000D+00  0.0000000000000D+00
300  2.9900000000000D+00  0.0000000000000D+00  0.0000000000000D+00
301  3.0000000000000D+00  0.0000000000000D+00  0.0000000000000D+00
302  3.0100000000000D+00  0.0000000000000D+00  0.0000000000000D+00
303  3.0200000000000D+00  0.0000000000000D+00  0.0000000000000D+00
304  3.0300000000000D+00  0.0000000000000D+00  0.0000000000000D+00
305  3.0400000000000D+00  0.0000000000000D+00  0.0000000000000D+00
306  3.0500000000000D+00  0.0000000000000D+00  0.0000000000000D+00
307  3.0600000000000D+00  0.0000000000000D+00  0.0000000000000D+00
308  3.0700000000000D+00  0.0000000000000D+00  0.0000000000000D+00
309  3.0800000000000D+00  0.0000000000000D+00  0.0000000000000D+00
310  3.0900000000000D+00  0.0000000000000D+00  0.0000000000000D+00
311  3.1000000000000D+00  0.0000000000000D+00  0.0000000000000D+00
312  3.1100000000000D+00  0.0000000000000D+00  0.0000000000000D+00
313  3.1200000000000D+00  0.0000000000000D+00  0.0000000000000D+00
314  3.1300000000000D+00  0.0000000000000D+00  0.0000000000000D+00
315  3.1400000000000D+00  0.0000000000000D+00  0.0000000000000D+00
316  3.1500000000000D+00  0.0000000000000D+00  0.0000000000000D+00
317  3.1600000000000D+00  0.0000000000000D+00  0.0000000000000D+00
318  3.1700000000000D+00  0.0000000000000D+00  0.0000000000000D+00
319  3.1800000000000D+00  0.0000000000000D+00  0.0000000000000D+00
320  3.1900000000000D+00  0.0000000000000D+00  0.0000000000000D+00
321  3.2000000000000D+00  0.0000000000000D+00  0.0000000000000D+00
322  3.2100000000000D+00  0.0000000000000D+00  0.0000000000000D+00
323  3.2200000000000D+00  0.0000000000000D+00  0.0000000000000D+00
324  3.2300000000000D+00  0.0000000000000D+00  0.0000000000000D+00
325  3.2400000000000D+00  0.0000000000000D+00  0.0000000000000D+00
326  3.2500000000000D+00  0.0000000000000D+00  0.0000000000000D+00
327  3.2600000000000D+00  0.0000000000000D+00  0.0000000000000D+00
328  3.2700000000000D+00  0.0000000000000D+00  0.0000000000000D+00
329  3.2800000000000D+00  0.0000000000000D+00  0.0000000000000D+00
330  3.2900000000000D+00  0.0000000000000D+00  0.0000000000000D+00
331  3.3000000000000D+00  0.0000000000000D+00  0.0000000000000D+00
332  3.3100000000000D+00  0.0000000000000D+00  0.0000000000000D+00
333  3.3200000000000D+00  0.0000000000000D+00  0.0000000000000D+00
334  3.3300000000000D+00  0.0000000000000D+00  0.0000000000000D+00
335  3.3400000000000D+00  0.0000000000000D+00  0.0000000000000D+00
336  3.3500000000000D+00  0.0000000000000D+00  0.0000000000000D+00
337  3.3600000000000D+00  0.0000000000000D+00  0.0000000000000D+00
338  3.3700000000000D+00  0.0000000000000D+00  0.0000000000000D+00
339  3.3800000000000D+00  0.0000000000000D+00  0.0000000000000D+00
340  3.3900000000000D+00  0.0000000000000D+00  0.0000000000000D+00
341  3.4000000000000D+00  0.0000000000000D+00  0.0000000000000D+00
342  3.4100000000000D+00  0.0000000000000D+00  0.0000000000000D+00
343  3.4200000000000D+00  0.0000000000000D+00  0.0000000000000D+00
344  3.4300000000000D+00  0.0000000000000D+00  0.0000000000000D+00
345  3.4400000000000D+00  0.0000000000000D+00  0.0000000000000D+00
346  3.4500000000000D+00  0.0000000000000D+00  0.0000000000000D+00
347  3.4600000000000D+00  0.0000000000000D+00  0.0000000000000D+00
348  3.4700000000000D+00  0.0000000000000D+00  0.0000000000000D+00
349  3.4800000000000D+00  0.0000000000000D+00  0.0000000000000D+00
350  3.4900000000000D+00  0.0000000000000D+00  0.0000000000000D+00
351  3.5000000000000D+00  0.0000000000000D+00  0.0000000000000D+00
352  3.5100000000000D+00  0.0000000000000D+00  0.0000000000000D+00
353  3.5200000000000D+00  0.0000000000000D+00  0.0000000000000D+00
354  3.5300000000000D+00  0.0000000000000D+00  0.0000000000000D+00
355  3.5400000000000D+00  0.0000000000000D+00  0.0000000000000D+00
356  3.5500000000000D+00  0.0000000000000D+00  0.0000000000000D+00
357  3.5600000000000D+00  0.0000000000000D+00  0.0000000000000D+00
358  3.5700000000000D+00  0.0000000000000D+00  0.0000000000000D+00
359  3.5800000000000D+00  0.0000000000000D+00  0.0000000000000D+00
360  3.5900000000000D+00  0.0000000000000D+00  0.0000000000000D+00
361  3.6000000000000D+00  0.0000000000000D+00  0.0000000000000D+00
362  3.6100000000000D+00  0.0000000000000D+00  0.0000000000000D+00
363  3.6200000000000D+00  0.0000000000000D+00  0.0000000000000D+00
364  3.6300000000000D+00  0.0000000000000D+00  0.0000000000000D+00
365  3.6400000000000D+00  0.0000000000000D+00  0.0000000000000D+00
366  3.6500000000000D+00  0.0000000000000D+00  0.0000000000000D+00
367  3.6600000000000D+00  0.0000000000000D+00  0.0000000000000D+00
368  3.6700000000000D+00  0.0000000000000D+00  0.0000000000000D+00
369  3.6800000000000D+00  0.0000000000000D+00  0.0000000000000D+00
370  3.6900000000000D+00  0.0000000000000D+00  0.0000000000000D+00
371  3.7000000000000D+00  0.0000000000000D+00  0.0000000000000D+00
372  3.7100000000000D+00  0.0000000000000D+00  0.0000000000000D+00
373  3.7200000000000D+00  0.0000000000000D+00  0.0000000000000D+00
374  3.7300000000000D+00  0.0000000000000D+00  0.0000000000000D+00
375  3.7400000000000D+00  0.0000000000000D+00  0.0000000000000D+00
376  3.7500000000000D+00  0.0000000000000D+00  0.0000000000000D+00
377  3.7600000000000D+00  0.0000000000000D+00  0.0000000000000D+00
378  3.7700000000000D+00  0.0000000000000D+00  0.0000000000000D+00
379  3.7800000000000D+00  0.0000000000000D+00  0.0000000000000D+00
380  3.7900000000000D+00  0.0000000000000D+00  0.0000000000000D+00
381  3.8000000000000D+00  0.0000000000000D+00  0.0000000000000D+00
382  3.8100000000000D+00  0.0000000000000D+00  0.0000000000000D+00
383  3.8200000000000D+00  0.0000000000000D+00  0.0000000000000D+00
384  3.8300000000000D+00  0.0000000000000D+00  0.0000000000000D+00
385  3.8400000000000D+00  0.0000000000000D+00  0.0000000000000D+00
386  3.8500000000000D+00  0.0000000000000D+00  0.0000000000000D+00
387  3.8600000000000D+00  0.0000000000000D+00  0.0000000000000D+00
388  3.8700000000000D+00  0.0000000000000D+00  0.0000000000000D+00
389  3.8800000000000D+00  0.0000000000000D+00  0.0000000000000D+00
390  3.8900000000000D+00  0.0000000000000D+00  0.0000000000000D+00
391  3.9000000000000D+00  0.0000000000000D+00  0.0000000000000D+00
392  3.9100000000000D+00  0.0000000000000D+00  0.0000000000000D+00
393  3.9200000000000D+00  0.0000000000000D+00  0.0000000000000D+00
394  3.9300000000000D+00  0.0000000000000D+00  0.0000000000000D+00
395  3.9400000000000D+00  0.0000000000000D+00  0.0000000000000D+00
396  3.9500000000000D+00  0.0000000000000D+00  0.0000000000000D+00
397  3.9600000000000D+00  0.0000000000000D+00  0.0000000000000D+00
398  3.9700000000000D+00  0.0000000000000D+00  0.0000000000000D+00
399  3.9800000000000D+00  0.0000000000000D+00  0.0000000000000D+00
400  3.9900000000000D+00  0.0000000000000D+00  0.0000000000000D+00
401  4.0000000000000D+00  0.0000000000000D+00  0.0000000000000D+00
402  4.0100000000000D+00  0.0000000000000D+00  0.0000000000000D+00
403  4.0200000000000D+00  0.0000000000000D+00  0.0000000000000D+00
404  4.0300000000000D+00  0.0000000000000D+00  0.0000000000000D+00
405  4.0400000000000D+00  0.0000000000000D+00  0.0000000000000D+00
406  4.0500000000000D+00  0.0000000000000D+00  0.0000000000000D+00
407  4.0600000000000D+00  0.0000000000000D+00  0.0000000000000D+00
408  4.0700000000000D+00  0.0000000000000D+00  0.0000000000000D+00
409  4.0800000000000D+00  0.0000000000000D+00  0.0000000000000D+00
410  4.0900000000000D+00  0.0000000000000D+00  0.0000000000000D+00
411  4.1000000000000D+00  0.0000000000000D+00  0.0000000000000D+00
412  4.1100000000000D+00  0.0000000000000D+00  0.0000000000000D+00
413  4.1200000000000D+00  0.0000000000000D+00  0.0000000000000D+00
414  4.1300000000000D+00  0.0000000000000D+00  0.0000000000000D+00
415  4.1400000000000D+00  0.0000000000000D+00  0.0000000000000D+00
416  4.1500000000000D+00  0.0000000000000D+00  0.0000000000000D+00
417  4.1600000000000D+00  0.0000000000000D+00  0.0000000000000D+00
418  4.1700000000000D+00  0.0000000000000D+00  0.0000000000000D+00
419  4.1800000000000D+00  0.0000000000000D+00  0.0000000000000D+00
420  4.1900000000000D+00  0.0000000000000D+00  0.0000000000000D+00
421  4.2000000000000D+00  0.0000000000000D+00  0.0000000000000D+00
422  4.2100000000000D+00  0.0000000000000D+00  0.0000000000000D+00
423  4.2200000000000D+00  0.0000000000000D+00  0.0000000000000D+00
424  4.2300000000000D+00  0.0000000000000D+00  0.0000000000000D+00
425  4.2400000000000D+00  0.0000000000000D+00  0.0000000000000D+00
426  4.2500000000000D+00  0.0000000000000D+00  0.0000000000000D+00
427  4.2600000000000D+00  0.0000000000000D+00  0.0000000000000D+00
428  4.2700000000000D+00  0.0000000000000D+00  0.0000000000000D+00
429  4.2800000000000D+00  0.0000000000000D+00  0.0000000000000D+00
430  4.2900000000000D+00  0.0000000000000D+00  0.0000000000000D+00
431  4.3000000000000D+00  0.0000000000000D+00  0.0000000000000D+00
432  4.3100000000000D+00  0.0000000000000D+00  0.0000000000000D+00
433  4.3200000000000D+00  0.0000000000000D+00  0.0000000000000D+00
434  4.3300000000000D+00  0.0000000000000D+00  0.0000000000000D+00
435  4.3400000000000D+00  0.0000000000000D+00  0.0000000000000D+00
436  4.3500000000000D+00  0.0000000000000D+00  0.0000000000000D+00
437  4.3600000000000D+00  0.0000000000000D+00  0.0000000000000D+00
438  4.3700000000000D+00  0.0000000000000D+00  0.0000000000000D+00
439  4.3800000000000D+00  0.0000000000000D+00  0.0000000000000D+00
440  4.3900000000000D+00  0.0000000000000D+00  0.0000000000000D+00
441  4.4000000000000D+00  0.0000000000000D+00  0.0000000000000D+00
442  4.4100000000000D+00  0.0000000000000D+00  0.0000000000000D+00
443  4.4200000000000D+00  0.0000000000000D+00  0.0000000000000D+00