Ba    ONCVPSP-3.3.0  r_core=   2.20646   1.80147   2.10365   2.51583
56.0000     10.0000      180112    zatom,zion,pspd
8 -116133   3     4   600     0    pspcod,pspxc,lmax,lloc,mmax,r2well
5.99000000  4.80000000  0.00000000    rchrg fchrg qchrg
2     2     2     2     0    nproj
1     1           extension_switch
0                         6.5510721803846D+00  7.3443312244203D-01
1  0.0000000000000D+00 -5.5464799419980D-12  2.7527646828673D-11
2  1.0000000000000D-02  2.7419756997247D-02 -1.2502019808020D-02
3  2.0000000000000D-02  5.4827938809581D-02 -2.4974232333606D-02
4  3.0000000000000D-02  8.2212980602539D-02 -3.7386973765389D-02
5  4.0000000000000D-02  1.0956333808681D-01 -4.9710866191736D-02
6  5.0000000000000D-02  1.3686749740288D-01 -6.1916957951601D-02
7  6.0000000000000D-02  1.6411398454405D-01 -7.3976860886081D-02
8  7.0000000000000D-02  1.9129137417056D-01 -8.5862883489949D-02
9  8.0000000000000D-02  2.1838829767296D-01 -9.7548158989982D-02
10  9.0000000000000D-02  2.4539345034990D-01 -1.0900676741102D-01
11  1.0000000000000D-01  2.7229559757342D-01 -1.2021385073110D-01
12  1.1000000000000D-01  2.9908357982449D-01 -1.3114572027377D-01
13  1.2000000000000D-01  3.2574631649174D-01 -1.4177995553802D-01
14  1.3000000000000D-01  3.5227280833819D-01 -1.5209549372458D-01
15  1.4000000000000D-01  3.7865213855328D-01 -1.6207270928023D-01
16  1.5000000000000D-01  4.0487347232107D-01 -1.7169348285043D-01
17  1.6000000000000D-01  4.3092605484996D-01 -1.8094125910265D-01
18  1.7000000000000D-01  4.5679920782429D-01 -1.8980109295983D-01
19  1.8000000000000D-01  4.8248232425404D-01 -1.9825968386310D-01
20  1.9000000000000D-01  5.0796486171519D-01 -2.0630539776667D-01
21  2.0000000000000D-01  5.3323633398994D-01 -2.1392827665303D-01
22  2.1000000000000D-01  5.5828630113311D-01 -2.2112003544486D-01
23  2.2000000000000D-01  5.8310435800827D-01 -2.2787404627940D-01
24  2.3000000000000D-01  6.0768012135425D-01 -2.3418531020092D-01
25  2.4000000000000D-01  6.3200321546034D-01 -2.4005041641829D-01
26  2.5000000000000D-01  6.5606325654488D-01 -2.4546748936471D-01
27  2.6000000000000D-01  6.7984983594934D-01 -2.5043612388668D-01
28  2.7000000000000D-01  7.0335250227577D-01 -2.5495730897762D-01
29  2.8000000000000D-01  7.2656074261139D-01 -2.5903334055843D-01
30  2.9000000000000D-01  7.4946396299921D-01 -2.6266772389098D-01
31  3.0000000000000D-01  7.7205146832755D-01 -2.6586506629193D-01
32  3.1000000000000D-01  7.9431244182486D-01 -2.6863096089179D-01
33  3.2000000000000D-01  8.1623592435817D-01 -2.7097186225726D-01
34  3.3000000000000D-01  8.3781079374489D-01 -2.7289495476410D-01
35  3.4000000000000D-01  8.5902574429726D-01 -2.7440801467116D-01
36  3.5000000000000D-01  8.7986926682723D-01 -2.7551926690440D-01
37  3.6000000000000D-01  9.0032962934666D-01 -2.7623723761189D-01
38  3.7000000000000D-01  9.2039485870307D-01 -2.7657060359616D-01
39  3.8000000000000D-01  9.4005272339504D-01 -2.7652803976965D-01
40  3.9000000000000D-01  9.5929071781358D-01 -2.7611806580987D-01
41  4.0000000000000D-01  9.7809604815614D-01 -2.7534889321591D-01
42  4.1000000000000D-01  9.9645562025864D-01 -2.7422827398400D-01
43  4.2000000000000D-01  1.0143560295876D+00 -2.7276335212841D-01
44  4.3000000000000D-01  1.0317835536295D+00 -2.7096051927456D-01
45  4.4000000000000D-01  1.0487241469080D+00 -2.6882527554347D-01
46  4.5000000000000D-01  1.0651634388495D+00 -2.6636209693045D-01
47  4.6000000000000D-01  1.0810867347090D+00 -2.6357431035655D-01
48  4.7000000000000D-01  1.0964790197539D+00 -2.6046397753874D-01
49  4.8000000000000D-01  1.1113249668901D+00 -2.5703178878341D-01
50  4.9000000000000D-01  1.1256089478979D+00 -2.5327696775947D-01
51  5.0000000000000D-01  1.1393150484295D+00 -2.4919718824909D-01
52  5.1000000000000D-01  1.1524270868963D+00 -2.4478850381104D-01
53  5.2000000000000D-01  1.1649286373594D+00 -2.4004529121792D-01
54  5.3000000000000D-01  1.1768030565080D+00 -2.3496020845057D-01
55  5.4000000000000D-01  1.1880335147908D+00 -2.2952416794644D-01
56  5.5000000000000D-01  1.1986030317394D+00 -2.2372632570695D-01
57  5.6000000000000D-01  1.2084945154965D+00 -2.1755408677078D-01
58  5.7000000000000D-01  1.2176908065340D+00 -2.1099312745732D-01
59  5.8000000000000D-01  1.2261747255190D+00 -2.0402743467608D-01
60  5.9000000000000D-01  1.2339291252586D+00 -1.9663936248692D-01
61  6.0000000000000D-01  1.2409369466216D+00 -1.8880970598009D-01
62  6.1000000000000D-01  1.2471812783092D+00 -1.8051779242731D-01
63  6.2000000000000D-01  1.2526454203165D+00 -1.7174158953535D-01
64  6.3000000000000D-01  1.2573129508962D+00 -1.6245783051200D-01
65  6.4000000000000D-01  1.2611677968079D+00 -1.5264215553285D-01
66  6.5000000000000D-01  1.2641943066059D+00 -1.4226926907550D-01
67  6.6000000000000D-01  1.2663773266929D+00 -1.3131311246761D-01
68  6.7000000000000D-01  1.2677022798361D+00 -1.1974705087636D-01
69  6.8000000000000D-01  1.2681552458201D+00 -1.0754407385069D-01
70  6.9000000000000D-01  1.2677230438805D+00 -9.4677008415599D-02
71  7.0000000000000D-01  1.2663933165435D+00 -8.1118743608824D-02
72  7.1000000000000D-01  1.2641546144719D+00 -6.6842465247219D-02
73  7.2000000000000D-01  1.2609964818961D+00 -5.1821899612132D-02
74  7.3000000000000D-01  1.2569095421942D+00 -3.6031564652366D-02
75  7.4000000000000D-01  1.2518855831646D+00 -1.9447027218956D-02
76  7.5000000000000D-01  1.2459176415232D+00 -2.0451647701865D-03
77  7.6000000000000D-01  1.2390000861439D+00  1.6195570082638D-02
78  7.7000000000000D-01  1.2311286995523D+00  3.5294883876026D-02
79  7.8000000000000D-01  1.2223007571765D+00  5.5270377178692D-02
80  7.9000000000000D-01  1.2125151038537D+00  7.6137281834161D-02
81  8.0000000000000D-01  1.2017722270916D+00  9.7908202365237D-02
82  8.1000000000000D-01  1.1900743265841D+00  1.2059286336006D-01
83  8.2000000000000D-01  1.1774253794887D+00  1.4419786466615D-01
84  8.3000000000000D-01  1.1638312009752D+00  1.6872644621213D-01
85  8.4000000000000D-01  1.1492994995745D+00  1.9417826426012D-01
86  8.5000000000000D-01  1.1338399268617D+00  2.2054918086166D-01
87  8.6000000000000D-01  1.1174641210320D+00  2.4783106824914D-01
88  8.7000000000000D-01  1.1001857439437D+00  2.7601162984176D-01
89  8.8000000000000D-01  1.0820205112277D+00  3.0507423947945D-01
90  8.9000000000000D-01  1.0629862150886D+00  3.3499780042269D-01
91  9.0000000000000D-01  1.0431027394511D+00  3.6575662556813D-01
92  9.1000000000000D-01  1.0223920671377D+00  3.9732034023115D-01
93  9.2000000000000D-01  1.0008782787964D+00  4.2965380873784D-01
94  9.3000000000000D-01  9.7858754333673D-01  4.6271708594980D-01
95  9.4000000000000D-01  9.5554809966725D-01  4.9646539471650D-01
96  9.5000000000000D-01  9.3179022957231D-01  5.3084913011312D-01
97  9.6000000000000D-01  9.0734622160652D-01  5.6581389117640D-01
98  9.7000000000000D-01  8.8225032593084D-01  6.0130054069831D-01
99  9.8000000000000D-01  8.5653870005975D-01  6.3724529347905D-01
100  9.9000000000000D-01  8.3024934553645D-01  6.7357983327561D-01
101  1.0000000000000D+00  8.0342203560117D-01  7.1023145851240D-01
102  1.0100000000000D+00  7.7609823396539D-01  7.4712325665213D-01
103  1.0200000000000D+00  7.4832100485558D-01  7.8417430694287D-01
104  1.0300000000000D+00  7.2013491453823D-01  8.2129991108580D-01
105  1.0400000000000D+00  6.9158592458702D-01  8.5841185118911D-01
106  1.0500000000000D+00  6.6272127720222D-01  8.9541867419616D-01
107  1.0600000000000D+00  6.3358937294010D-01  9.3222600180073D-01
108  1.0700000000000D+00  6.0423964125479D-01  9.6873686469793D-01
109  1.0800000000000D+00  5.7472240430449D-01  1.0048520598375D+00
110  1.0900000000000D+00  5.4508873451396D-01  1.0404705291958D+00
111  1.1000000000000D+00  5.1539030642964D-01  1.0754897584182D+00
112  1.1100000000000D+00  4.8567924344068D-01  1.1098061935412D+00
113  1.1200000000000D+00  4.5600795997768D-01  1.1433156738627D+00
114  1.1300000000000D+00  4.2642899983636D-01  1.1759138788882D+00
115  1.1400000000000D+00  3.9699487130313D-01  1.2074967871673D+00
116  1.1500000000000D+00  3.6775787978751D-01  1.2379611447273D+00
117  1.1600000000000D+00  3.3876995869062D-01  1.2672049407127D+00
118  1.1700000000000D+00  3.1008249926279D-01  1.2951278877432D+00
119  1.1800000000000D+00  2.8174618021773D-01  1.3216319044443D+00
120  1.1900000000000D+00  2.5381079788315D-01  1.3466215975492D+00
121  1.2000000000000D+00  2.2632509768025D-01  1.3700047409166D+00
122  1.2100000000000D+00  1.9933660772713D-01  1.3916927487874D+00
123  1.2200000000000D+00  1.7289147535971D-01  1.4116011406046D+00
124  1.2300000000000D+00  1.4703430736583D-01  1.4296499946996D+00
125  1.2400000000000D+00  1.2180801471565D-01  1.4457643881866D+00
126  1.2500000000000D+00  9.7253662552916D-02  1.4598748204620D+00
127  1.2600000000000D+00  7.3410326213696D-02  1.4719176176961D+00
128  1.2700000000000D+00  5.0314953998539D-02  1.4818353158371D+00
129  1.2800000000000D+00  2.8002237396165D-02  1.4895770197390D+00
130  1.2900000000000D+00  6.5044894580091D-03  1.4950987360226D+00
131  1.3000000000000D+00 -1.4148468045449D-02  1.4983636775067D+00
132  1.3100000000000D+00 -3.3929408097221D-02  1.4993425371956D+00
133  1.3200000000000D+00 -5.2813791926776D-02  1.4980137297381D+00
134  1.3300000000000D+00 -7.0779852041742D-02  1.4943635987147D+00
135  1.3400000000000D+00 -8.7808664327440D-02  1.4883865881510D+00
136  1.3500000000000D+00 -1.0388420874639D-01  1.4800853766607D+00
137  1.3600000000000D+00 -1.1899341833418D-01  1.4694709732039D+00
138  1.3700000000000D+00 -1.3312621614150D-01  1.4565627732815D+00
139  1.3800000000000D+00 -1.4627553985295D-01  1.4413885746699D+00
140  1.3900000000000D+00 -1.5843735396759D-01  1.4239845523518D+00
141  1.4000000000000D+00 -1.6961064929696D-01  1.4043951918376D+00
142  1.4100000000000D+00 -1.7979742980616D-01  1.3826731810312D+00
143  1.4200000000000D+00 -1.8900268676690D-01  1.3588792605957D+00
144  1.4300000000000D+00 -1.9723436021681D-01  1.3330820328621D+00
145  1.4400000000000D+00 -2.0450328798474D-01  1.3053577302720D+00
146  1.4500000000000D+00 -2.1082314229415D-01  1.2757899434634D+00
147  1.4600000000000D+00 -2.1621035434146D-01  1.2444693104797D+00
148  1.4700000000000D+00 -2.2068402707969D-01  1.2114931679897D+00
149  1.4800000000000D+00 -2.2426583655554D-01  1.1769651658260D+00
150  1.4900000000000D+00 -2.2697992234148D-01  1.1409948468392D+00
151  1.5000000000000D+00 -2.2885276735091D-01  1.1036971931627D+00
152  1.5100000000000D+00 -2.2991306779721D-01  1.0651921416636D+00
153  1.5200000000000D+00 -2.3019159366274D-01  1.0256040699534D+00
154  1.5300000000000D+00 -2.2972104047892D-01  9.8506125587712D-01
155  1.5400000000000D+00 -2.2853587298025D-01  9.4369531254834D-01
156  1.5500000000000D+00 -2.2667216138886D-01  9.0164060169270D-01
157  1.5600000000000D+00 -2.2416741108681D-01  8.5903362804684D-01
158  1.5700000000000D+00 -2.2106038639849D-01  8.1601241745905D-01
159  1.5800000000000D+00 -2.1739092936969D-01  7.7271588187517D-01
160  1.5900000000000D+00 -2.1319977427146D-01  7.2928317388943D-01
161  1.6000000000000D+00 -2.0852835876222D-01  6.8585303417561D-01
162  1.6100000000000D+00 -2.0341863248779D-01  6.4256313467568D-01
163  1.6200000000000D+00 -1.9791286401955D-01  5.9954942070871D-01
164  1.6300000000000D+00 -1.9205344698910D-01  5.5694545515612D-01
165  1.6400000000000D+00 -1.8588270624022D-01  5.1488176758068D-01
166  1.6500000000000D+00 -1.7944270491775D-01  4.7348521163817D-01
167  1.6600000000000D+00 -1.7277505322599D-01  4.3287833330538D-01
168  1.6700000000000D+00 -1.6592071980298D-01  3.9317875335826D-01
169  1.6800000000000D+00 -1.5891984634552D-01  3.5449856625205D-01
170  1.6900000000000D+00 -1.5181156643568D-01  3.1694375883405D-01
171  1.7000000000000D+00 -1.4463382908070D-01  2.8061365057086D-01
172  1.7100000000000D+00 -1.3742322792109D-01  2.4560035872090D-01
173  1.7200000000000D+00 -1.3021483644854D-01  2.1198828948456D-01
174  1.7300000000000D+00 -1.2304205021919D-01  1.7985365866831D-01
175  1.7400000000000D+00 -1.1593643582121D-01  1.4926404018165D-01
176  1.7500000000000D+00 -1.0892758871645D-01  1.2027795173322D-01
177  1.7600000000000D+00 -1.0204300055178D-01  9.2944481308135D-02
178  1.7700000000000D+00 -9.5307921169062D-02  6.7302874804707D-02
179  1.7800000000000D+00 -8.8745286721212D-02  4.3382450194304D-02
180  1.7900000000000D+00 -8.2375564585285D-02  2.1202094203758D-02
181  1.8000000000000D+00 -7.6216560979192D-02  7.6949882307864D-04
182  1.8100000000000D+00 -7.0283601527985D-02 -1.7917611867210D-02
183  1.8200000000000D+00 -6.4589608488544D-02 -3.4870796175054D-02
184  1.8300000000000D+00 -5.9145252393190D-02 -5.0110014949094D-02
185  1.8400000000000D+00 -5.3959216464680D-02 -6.3662168704155D-02
186  1.8500000000000D+00 -4.9038241003695D-02 -7.5560835307814D-02
187  1.8600000000000D+00 -4.4387109143613D-02 -8.5846371411232D-02
188  1.8700000000000D+00 -4.0008705952335D-02 -9.4565629517690D-02
189  1.8800000000000D+00 -3.5904106461892D-02 -1.0177151884434D-01
190  1.8900000000000D+00 -3.2072638844120D-02 -1.0752272961933D-01
191  1.9000000000000D+00 -2.8511974033616D-02 -1.1188332637089D-01
192  1.9100000000000D+00 -2.5218216245647D-02 -1.1492235053197D-01
193  1.9200000000000D+00 -2.2186002859626D-02 -1.1671338698729D-01
194  1.9300000000000D+00 -1.9408610403422D-02 -1.1733410917563D-01
195  1.9400000000000D+00 -1.6878067131356D-02 -1.1686580086712D-01
196  1.9500000000000D+00 -1.4585270755945D-02 -1.1539286012259D-01
197  1.9600000000000D+00 -1.2520110933939D-02 -1.1300228696326D-01
198  1.9700000000000D+00 -1.0671595846309D-02 -1.0978315727534D-01
199  1.9800000000000D+00 -9.0279817511893D-03 -1.0582608722528D-01
200  1.9900000000000D+00 -7.5769051356661D-03 -1.0122268968371D-01
201  2.0000000000000D+00 -6.3055162925486D-03 -9.6065027099871D-02
202  2.0100000000000D+00 -5.2006138514807D-03 -9.0445062562679D-02
203  2.0200000000000D+00 -4.2487793325538D-03 -8.4454112668415D-02
204  2.0300000000000D+00 -3.4365108432280D-03 -7.8182305575609D-02
205  2.0400000000000D+00 -2.7503550162089D-03 -7.1718047719356D-02
206  2.0500000000000D+00 -2.1770370061823D-03 -6.5147499760783D-02
207  2.0600000000000D+00 -1.7035865513358D-03 -5.8554069576012D-02
208  2.0700000000000D+00 -1.3174607058333D-03 -5.2017919847353D-02
209  2.0800000000000D+00 -1.0066616409202D-03 -4.5615496313407D-02
210  2.0900000000000D+00 -7.5984906629616D-04 -3.9419078425340D-02
211  2.1000000000000D+00 -5.6644728503620D-04 -3.3496352362910D-02
212  2.1100000000000D+00 -4.1674426021703D-04 -2.7910016570824D-02
213  2.1200000000000D+00 -3.0198477077373D-04 -2.2717411657178D-02
214  2.1300000000000D+00 -2.1446101516287D-04 -1.7970772802343D-02
215  2.1400000000000D+00 -1.4760538113334D-04 -1.3718517275078D-02
216  2.1500000000000D+00 -9.5911832048341D-05 -9.9910197828339D-03
217  2.1600000000000D+00 -5.5333641882599D-05 -6.8088347370230D-03
218  2.1700000000000D+00 -2.2919211083281D-05 -4.2224541765471D-03
219  2.1800000000000D+00  2.9880774324908D-06 -2.2874002776106D-03
220  2.1900000000000D+00  2.3823453158329D-05 -1.0338466244035D-03
221  2.2000000000000D+00  3.5240820877835D-05 -3.3149970086932D-04
222  2.2100000000000D+00  3.3558015496662D-05 -2.4229296620811D-05
223  2.2200000000000D+00  1.9810847988578D-05  5.0001019757523D-05
224  2.2300000000000D+00  3.9176607569214D-06  1.5516606910894D-05
225  2.2400000000000D+00 -3.8294627893925D-06 -1.8313314166897D-05
226  2.2500000000000D+00 -3.6166327036591D-06 -1.9704193001902D-05
227  2.2600000000000D+00  3.8978196100986D-08  1.3193043881067D-07
228  2.2700000000000D+00  9.3293427331037D-07  3.4737173486996D-06
229  2.2800000000000D+00  6.3362591326735D-07  2.5309976001002D-06
230  2.2900000000000D+00 -4.1863610868075D-08  1.1587403878488D-07
231  2.3000000000000D+00 -1.0311667180092D-07  2.8541602073652D-07
232  2.3100000000000D+00 -4.5899518854324D-08  1.2704500442386D-07
233  2.3200000000000D+00  0.0000000000000D+00  0.0000000000000D+00
234  2.3300000000000D+00  0.0000000000000D+00  0.0000000000000D+00
235  2.3400000000000D+00  0.0000000000000D+00  0.0000000000000D+00
236  2.3500000000000D+00  0.0000000000000D+00  0.0000000000000D+00
237  2.3600000000000D+00  0.0000000000000D+00  0.0000000000000D+00
238  2.3700000000000D+00  0.0000000000000D+00  0.0000000000000D+00
239  2.3800000000000D+00  0.0000000000000D+00  0.0000000000000D+00
240  2.3900000000000D+00  0.0000000000000D+00  0.0000000000000D+00
241  2.4000000000000D+00  0.0000000000000D+00  0.0000000000000D+00
242  2.4100000000000D+00  0.0000000000000D+00  0.0000000000000D+00
243  2.4200000000000D+00  0.0000000000000D+00  0.0000000000000D+00
244  2.4300000000000D+00  0.0000000000000D+00  0.0000000000000D+00
245  2.4400000000000D+00  0.0000000000000D+00  0.0000000000000D+00
246  2.4500000000000D+00  0.0000000000000D+00  0.0000000000000D+00
247  2.4600000000000D+00  0.0000000000000D+00  0.0000000000000D+00
248  2.4700000000000D+00  0.0000000000000D+00  0.0000000000000D+00
249  2.4800000000000D+00  0.0000000000000D+00  0.0000000000000D+00
250  2.4900000000000D+00  0.0000000000000D+00  0.0000000000000D+00
251  2.5000000000000D+00  0.0000000000000D+00  0.0000000000000D+00
252  2.5100000000000D+00  0.0000000000000D+00  0.0000000000000D+00
253  2.5200000000000D+00  0.0000000000000D+00  0.0000000000000D+00
254  2.5300000000000D+00  0.0000000000000D+00  0.0000000000000D+00
255  2.5400000000000D+00  0.0000000000000D+00  0.0000000000000D+00
256  2.5500000000000D+00  0.0000000000000D+00  0.0000000000000D+00
257  2.5600000000000D+00  0.0000000000000D+00  0.0000000000000D+00
258  2.5700000000000D+00  0.0000000000000D+00  0.0000000000000D+00
259  2.5800000000000D+00  0.0000000000000D+00  0.0000000000000D+00
260  2.5900000000000D+00  0.0000000000000D+00  0.0000000000000D+00
261  2.6000000000000D+00  0.0000000000000D+00  0.0000000000000D+00
262  2.6100000000000D+00  0.0000000000000D+00  0.0000000000000D+00
263  2.6200000000000D+00  0.0000000000000D+00  0.0000000000000D+00
264  2.6300000000000D+00  0.0000000000000D+00  0.0000000000000D+00
265  2.6400000000000D+00  0.0000000000000D+00  0.0000000000000D+00
266  2.6500000000000D+00  0.0000000000000D+00  0.0000000000000D+00
267  2.6600000000000D+00  0.0000000000000D+00  0.0000000000000D+00
268  2.6700000000000D+00  0.0000000000000D+00  0.0000000000000D+00
269  2.6800000000000D+00  0.0000000000000D+00  0.0000000000000D+00
270  2.6900000000000D+00  0.0000000000000D+00  0.0000000000000D+00
271  2.7000000000000D+00  0.0000000000000D+00  0.0000000000000D+00
272  2.7100000000000D+00  0.0000000000000D+00  0.0000000000000D+00
273  2.7200000000000D+00  0.0000000000000D+00  0.0000000000000D+00
274  2.7300000000000D+00  0.0000000000000D+00  0.0000000000000D+00
275  2.7400000000000D+00  0.0000000000000D+00  0.0000000000000D+00
276  2.7500000000000D+00  0.0000000000000D+00  0.0000000000000D+00
277  2.7600000000000D+00  0.0000000000000D+00  0.0000000000000D+00
278  2.7700000000000D+00  0.0000000000000D+00  0.0000000000000D+00
279  2.7800000000000D+00  0.0000000000000D+00  0.0000000000000D+00
280  2.7900000000000D+00  0.0000000000000D+00  0.0000000000000D+00
281  2.8000000000000D+00  0.0000000000000D+00  0.0000000000000D+00
282  2.8100000000000D+00  0.0000000000000D+00  0.0000000000000D+00
283  2.8200000000000D+00  0.0000000000000D+00  0.0000000000000D+00
284  2.8300000000000D+00  0.0000000000000D+00  0.0000000000000D+00
285  2.8400000000000D+00  0.0000000000000D+00  0.0000000000000D+00
286  2.8500000000000D+00  0.0000000000000D+00  0.0000000000000D+00
287  2.8600000000000D+00  0.0000000000000D+00  0.0000000000000D+00
288  2.8700000000000D+00  0.0000000000000D+00  0.0000000000000D+00
289  2.8800000000000D+00  0.0000000000000D+00  0.0000000000000D+00
290  2.8900000000000D+00  0.0000000000000D+00  0.0000000000000D+00
291  2.9000000000000D+00  0.0000000000000D+00  0.0000000000000D+00
292  2.9100000000000D+00  0.0000000000000D+00  0.0000000000000D+00
293  2.9200000000000D+00  0.0000000000000D+00  0.0000000000000D+00
294  2.9300000000000D+00  0.0000000000000D+00  0.0000000000000D+00
295  2.9400000000000D+00  0.0000000000000D+00  0.0000000000000D+00
296  2.9500000000000D+00  0.0000000000000D+00  0.0000000000000D+00
297  2.9600000000000D+00  0.0000000000000D+00  0.0000000000000D+00
298  2.9700000000000D+00  0.0000000000000D+00  0.0000000000000D+00
299  2.9800000000000D+00  0.0000000000000D+00  0.0000000000000D+00
300  2.9900000000000D+00  0.0000000000000D+00  0.0000000000000D+00
301  3.0000000000000D+00  0.0000000000000D+00  0.0000000000000D+00
302  3.0100000000000D+00  0.0000000000000D+00  0.0000000000000D+00
303  3.0200000000000D+00  0.0000000000000D+00  0.0000000000000D+00
304  3.0300000000000D+00  0.0000000000000D+00  0.0000000000000D+00
305  3.0400000000000D+00  0.0000000000000D+00  0.0000000000000D+00
306  3.0500000000000D+00  0.0000000000000D+00  0.0000000000000D+00
307  3.0600000000000D+00  0.0000000000000D+00  0.0000000000000D+00
308  3.0700000000000D+00  0.0000000000000D+00  0.0000000000000D+00
309  3.0800000000000D+00  0.0000000000000D+00  0.0000000000000D+00
310  3.0900000000000D+00  0.0000000000000D+00  0.0000000000000D+00
311  3.1000000000000D+00  0.0000000000000D+00  0.0000000000000D+00
312  3.1100000000000D+00  0.0000000000000D+00  0.0000000000000D+00
313  3.1200000000000D+00  0.0000000000000D+00  0.0000000000000D+00
314  3.1300000000000D+00  0.0000000000000D+00  0.0000000000000D+00
315  3.1400000000000D+00  0.0000000000000D+00  0.0000000000000D+00
316  3.1500000000000D+00  0.0000000000000D+00  0.0000000000000D+00
317  3.1600000000000D+00  0.0000000000000D+00  0.0000000000000D+00
318  3.1700000000000D+00  0.0000000000000D+00  0.0000000000000D+00
319  3.1800000000000D+00  0.0000000000000D+00  0.0000000000000D+00
320  3.1900000000000D+00  0.0000000000000D+00  0.0000000000000D+00
321  3.2000000000000D+00  0.0000000000000D+00  0.0000000000000D+00
322  3.2100000000000D+00  0.0000000000000D+00  0.0000000000000D+00
323  3.2200000000000D+00  0.0000000000000D+00  0.0000000000000D+00
324  3.2300000000000D+00  0.0000000000000D+00  0.0000000000000D+00
325  3.2400000000000D+00  0.0000000000000D+00  0.0000000000000D+00
326  3.2500000000000D+00  0.0000000000000D+00  0.0000000000000D+00
327  3.2600000000000D+00  0.0000000000000D+00  0.0000000000000D+00
328  3.2700000000000D+00  0.0000000000000D+00  0.0000000000000D+00
329  3.2800000000000D+00  0.0000000000000D+00  0.0000000000000D+00
330  3.2900000000000D+00  0.0000000000000D+00  0.0000000000000D+00
331  3.3000000000000D+00  0.0000000000000D+00  0.0000000000000D+00
332  3.3100000000000D+00  0.0000000000000D+00  0.0000000000000D+00
333  3.3200000000000D+00  0.0000000000000D+00  0.0000000000000D+00
334  3.3300000000000D+00  0.0000000000000D+00  0.0000000000000D+00
335  3.3400000000000D+00  0.0000000000000D+00  0.0000000000000D+00
336  3.3500000000000D+00  0.0000000000000D+00  0.0000000000000D+00
337  3.3600000000000D+00  0.0000000000000D+00  0.0000000000000D+00
338  3.3700000000000D+00  0.0000000000000D+00  0.0000000000000D+00
339  3.3800000000000D+00  0.0000000000000D+00  0.0000000000000D+00
340  3.3900000000000D+00  0.0000000000000D+00  0.0000000000000D+00
341  3.4000000000000D+00  0.0000000000000D+00  0.0000000000000D+00
342  3.4100000000000D+00  0.0000000000000D+00  0.0000000000000D+00
343  3.4200000000000D+00  0.0000000000000D+00  0.0000000000000D+00
344  3.4300000000000D+00  0.0000000000000D+00  0.0000000000000D+00
345  3.4400000000000D+00  0.0000000000000D+00  0.0000000000000D+00
346  3.4500000000000D+00  0.0000000000000D+00  0.0000000000000D+00
347  3.4600000000000D+00  0.0000000000000D+00  0.0000000000000D+00
348  3.4700000000000D+00  0.0000000000000D+00  0.0000000000000D+00
349  3.4800000000000D+00  0.0000000000000D+00  0.0000000000000D+00
350  3.4900000000000D+00  0.0000000000000D+00  0.0000000000000D+00
351  3.5000000000000D+00  0.0000000000000D+00  0.0000000000000D+00
352  3.5100000000000D+00  0.0000000000000D+00  0.0000000000000D+00
353  3.5200000000000D+00  0.0000000000000D+00  0.0000000000000D+00
354  3.5300000000000D+00  0.0000000000000D+00  0.0000000000000D+00
355  3.5400000000000D+00  0.0000000000000D+00  0.0000000000000D+00
356  3.5500000000000D+00  0.0000000000000D+00  0.0000000000000D+00
357  3.5600000000000D+00  0.0000000000000D+00  0.0000000000000D+00
358  3.5700000000000D+00  0.0000000000000D+00  0.0000000000000D+00
359  3.5800000000000D+00  0.0000000000000D+00  0.0000000000000D+00
360  3.5900000000000D+00  0.0000000000000D+00  0.0000000000000D+00
361  3.6000000000000D+00  0.0000000000000D+00  0.0000000000000D+00
362  3.6100000000000D+00  0.0000000000000D+00  0.0000000000000D+00
363  3.6200000000000D+00  0.0000000000000D+00  0.0000000000000D+00
364  3.6300000000000D+00  0.0000000000000D+00  0.0000000000000D+00
365  3.6400000000000D+00  0.0000000000000D+00  0.0000000000000D+00
366  3.6500000000000D+00  0.0000000000000D+00  0.0000000000000D+00
367  3.6600000000000D+00  0.0000000000000D+00  0.0000000000000D+00
368  3.6700000000000D+00  0.0000000000000D+00  0.0000000000000D+00
369  3.6800000000000D+00  0.0000000000000D+00  0.0000000000000D+00
370  3.6900000000000D+00  0.0000000000000D+00  0.0000000000000D+00
371  3.7000000000000D+00  0.0000000000000D+00  0.0000000000000D+00
372  3.7100000000000D+00  0.0000000000000D+00  0.0000000000000D+00
373  3.7200000000000D+00  0.0000000000000D+00  0.0000000000000D+00
374  3.7300000000000D+00  0.0000000000000D+00  0.0000000000000D+00
375  3.7400000000000D+00  0.0000000000000D+00  0.0000000000000D+00
376  3.7500000000000D+00  0.0000000000000D+00  0.0000000000000D+00
377  3.7600000000000D+00  0.0000000000000D+00  0.0000000000000D+00
378  3.7700000000000D+00  0.0000000000000D+00  0.0000000000000D+00
379  3.7800000000000D+00  0.0000000000000D+00  0.0000000000000D+00
380  3.7900000000000D+00  0.0000000000000D+00  0.0000000000000D+00
381  3.8000000000000D+00  0.0000000000000D+00  0.0000000000000D+00
382  3.8100000000000D+00  0.0000000000000D+00  0.0000000000000D+00
383  3.8200000000000D+00  0.0000000000000D+00  0.0000000000000D+00
384  3.8300000000000D+00  0.0000000000000D+00  0.0000000000000D+00
385  3.8400000000000D+00  0.0000000000000D+00  0.0000000000000D+00
386  3.8500000000000D+00  0.0000000000000D+00  0.0000000000000D+00
387  3.8600000000000D+00  0.0000000000000D+00  0.0000000000000D+00
388  3.8700000000000D+00  0.0000000000000D+00  0.0000000000000D+00
389  3.8800000000000D+00  0.0000000000000D+00  0.0000000000000D+00
390  3.8900000000000D+00  0.0000000000000D+00  0.0000000000000D+00
391  3.9000000000000D+00  0.0000000000000D+00  0.0000000000000D+00
392  3.9100000000000D+00  0.0000000000000D+00  0.0000000000000D+00
393  3.9200000000000D+00  0.0000000000000D+00  0.0000000000000D+00
394  3.9300000000000D+00  0.0000000000000D+00  0.0000000000000D+00
395  3.9400000000000D+00  0.0000000000000D+00  0.0000000000000D+00
396  3.9500000000000D+00  0.0000000000000D+00  0.0000000000000D+00
397  3.9600000000000D+00  0.0000000000000D+00  0.0000000000000D+00
398  3.9700000000000D+00  0.0000000000000D+00  0.0000000000000D+00
399  3.9800000000000D+00  0.0000000000000D+00  0.0000000000000D+00
400  3.9900000000000D+00  0.0000000000000D+00  0.0000000000000D+00
401  4.0000000000000D+00  0.0000000000000D+00  0.0000000000000D+00
402  4.0100000000000D+00  0.0000000000000D+00  0.0000000000000D+00
403  4.0200000000000D+00  0.0000000000000D+00  0.0000000000000D+00
404  4.0300000000000D+00  0.0000000000000D+00  0.0000000000000D+00
405  4.0400000000000D+00  0.0000000000000D+00  0.0000000000000D+00
406  4.0500000000000D+00  0.0000000000000D+00  0.0000000000000D+00
407  4.0600000000000D+00  0.0000000000000D+00  0.0000000000000D+00
408  4.0700000000000D+00  0.0000000000000D+00  0.0000000000000D+00
409  4.0800000000000D+00  0.0000000000000D+00  0.0000000000000D+00
410  4.0900000000000D+00  0.0000000000000D+00  0.0000000000000D+00
411  4.1000000000000D+00  0.0000000000000D+00  0.0000000000000D+00
412  4.1100000000000D+00  0.0000000000000D+00  0.0000000000000D+00
413  4.1200000000000D+00  0.0000000000000D+00  0.0000000000000D+00
414  4.1300000000000D+00  0.0000000000000D+00  0.0000000000000D+00
415  4.1400000000000D+00  0.0000000000000D+00  0.0000000000000D+00
416  4.1500000000000D+00  0.0000000000000D+00  0.0000000000000D+00
417  4.1600000000000D+00  0.0000000000000D+00  0.0000000000000D+00
418  4.1700000000000D+00  0.0000000000000D+00  0.0000000000000D+00
419  4.1800000000000D+00  0.0000000000000D+00  0.0000000000000D+00
420  4.1900000000000D+00  0.0000000000000D+00  0.0000000000000D+00
421  4.2000000000000D+00  0.0000000000000D+00  0.0000000000000D+00
422  4.2100000000000D+00  0.0000000000000D+00  0.0000000000000D+00
423  4.2200000000000D+00  0.0000000000000D+00  0.0000000000000D+00
424  4.2300000000000D+00  0.0000000000000D+00  0.0000000000000D+00
425  4.2400000000000D+00  0.0000000000000D+00  0.0000000000000D+00
426  4.2500000000000D+00  0.0000000000000D+00  0.0000000000000D+00
427  4.2600000000000D+00  0.0000000000000D+00  0.0000000000000D+00
428  4.2700000000000D+00  0.0000000000000D+00  0.0000000000000D+00
429  4.2800000000000D+00  0.0000000000000D+00  0.0000000000000D+00
430  4.2900000000000D+00  0.0000000000000D+00  0.0000000000000D+00
431  4.3000000000000D+00  0.0000000000000D+00  0.0000000000000D+00
432  4.3100000000000D+00  0.0000000000000D+00  0.0000000000000D+00
433  4.3200000000000D+00  0.0000000000000D+00  0.0000000000000D+00
434  4.3300000000000D+00  0.0000000000000D+00  0.0000000000000D+00
435  4.3400000000000D+00  0.0000000000000D+00  0.0000000000000D+00
436  4.3500000000000D+00  0.0000000000000D+00  0.0000000000000D+00
437  4.3600000000000D+00  0.0000000000000D+00  0.0000000000000D+00
438  4.3700000000000D+00  0.0000000000000D+00  0.0000000000000D+00
439  4.3800000000000D+00  0.0000000000000D+00  0.0000000000000D+00
440  4.3900000000000D+00  0.0000000000000D+00  0.0000000000000D+00
441  4.4000000000000D+00  0.0000000000000D+00  0.0000000000000D+00
442  4.4100000000000D+00  0.0000000000000D+00  0.0000000000000D+00
443  4.4200000000000D+00  0.0000000000000D+00  0.0000000000000D+00