<?xml version="1.0" encoding="UTF-8" ?>
<psml version="1.1" energy_unit="hartree" length_unit="bohr"
 uuid="fd0192c0-3432-11eb-641b-71e62fa73b90"
 xmlns="http://esl.cecam.org/PSML/ns/1.1">
<provenance creator="ONCVPSP-3.3.1+psml-3.3.1-75 (scalar-relativistic)"
 date="2020-12-01">
<annotation action="semilocal-pseudopotential-generation"
 action-cont="projectors-generation" />
<input-file name="oncvpsp-input">
<![CDATA[# atsym z nc nv iexc psfile
Ge 32 6 2 -001012 both
# n l f
1 0 2.0
2 0 2.0
2 1 6.0
3 0 2.0
3 1 6.0
3 2 10.0
4 0 2.0
4 1 2.0
# lmax
2
# l rc ep ncon nbas qcut
0 1.85 0.0 3 7 4.9
1 1.7 0.0 3 7 5.4
2 2.2 0.1 3 7 5.2
# lloc lpopt rc5 dvloc0
4 5 1.6 0.0
# l nproj debl
0 2 2.5
1 2 2.5
2 2 3.0
# icmod fcfact rcfact
1 0.5 0.0
# epsh1 epsh2 depsh
-12.0 12.0 0.02
# rlmax drl
6.0 0.01
 0
]]>
</input-file>
</provenance>
<pseudo-atom-spec atomic-label="Ge" atomic-number="32" z-pseudo="4"
 flavor="Hamann&apos;s oncvpsp" relativity="scalar" spin-dft="no"
 core-corrections="yes">
<annotation pseudo-energy="-3.89573745981" cutoff_hint_low="11"
 cutoff_hint_normal="12" cutoff_hint_high="18" />
<exchange-correlation>
<annotation oncvpsp-xc-code="-1012" oncvpsp-xc-type="libxc-interface" />
<libxc-info number-of-functionals="2">
<functional name="Slater exchange (LDA)" type="exchange" id="1" />
<functional name="Perdew &amp; Wang (LDA)" type="correlation" id="12" />
</libxc-info>
</exchange-correlation>
<valence-configuration total-valence-charge="4">
<shell n="4" l="s" occupation="2" />
<shell n="4" l="p" occupation="2" />
</valence-configuration>
</pseudo-atom-spec>
<grid npts="457">
<annotation type="sampled from oncvpsp log grid"
 recipe="r(i:1..N) = r1*exp(a*(i-1)) + r=0; resampled"
 recipe-cont="r1: scale; a: step" scale="0.156250000000E-04"
 step="0.119285708653E-01" delta="0.500000000000E-02" rmax="44.0106814606" />
<grid-data>
  0.000000000000E+00  5.025601837514E-03  1.003824527536E-02  1.505896861607E-02
  2.029121445031E-02  2.545292972101E-02  3.080533800935E-02  3.597266729221E-02
  4.101646976877E-02  4.621291924683E-02  5.145031239924E-02  5.660204419540E-02
  6.226962009944E-02  6.769238310509E-02  7.271481084123E-02  7.810987696307E-02
  8.390522932815E-02  8.906182522060E-02  9.453533200659E-02  1.003452262006E-01
  1.065121812926E-01  1.117175309401E-01  1.171772708801E-01  1.229038334035E-01
  1.289102583787E-01  1.352102229449E-01  1.418180726557E-01  1.469850337403E-01
  1.523402464797E-01  1.578905695834E-01  1.636431116494E-01  1.696052402683E-01
  1.757845914596E-01  1.821890794514E-01  1.888269068167E-01  1.957065749787E-01
  2.028368950993E-01  2.102269993637E-01  2.153027200364E-01  2.205009889089E-01
  2.258247647852E-01  2.312770779061E-01  2.368610316751E-01  2.425798044239E-01
  2.484366512219E-01  2.544349057290E-01  2.605779820929E-01  2.668693768925E-01
  2.733126711282E-01  2.799115322600E-01  2.866697162948E-01  2.935910699251E-01
  3.006795327173E-01  3.079391393553E-01  3.153740219359E-01  3.229884123215E-01
  3.307866445486E-01  3.387731572945E-01  3.469524964043E-01  3.553293174774E-01
  3.639083885186E-01  3.726945926510E-01  3.816929308960E-01  3.909085250195E-01
  4.003466204476E-01  4.100125892517E-01  4.199119332066E-01  4.249508764051E-01
  4.300502869219E-01  4.352108903650E-01  4.404334210494E-01  4.457186221020E-01
  4.510672455672E-01  4.564800525140E-01  4.619578131442E-01  4.675013069019E-01
  4.731113225847E-01  4.787886584557E-01  4.845341223572E-01  4.903485318255E-01
  4.962327142074E-01  5.021875067779E-01  5.082137568592E-01  5.143123219415E-01
  5.204840698048E-01  5.267298786425E-01  5.330506371862E-01  5.394472448324E-01
  5.459206117704E-01  5.524716591117E-01  5.591013190210E-01  5.658105348493E-01
  5.726002612674E-01  5.794714644027E-01  5.864251219755E-01  5.934622234392E-01
  6.005837701205E-01  6.077907753619E-01  6.150842646662E-01  6.224652758422E-01
  6.299348591524E-01  6.374940774622E-01  6.451440063917E-01  6.528857344684E-01
  6.607203632820E-01  6.686490076414E-01  6.766727957331E-01  6.847928692819E-01
  6.930103837133E-01  7.013265083179E-01  7.097424264177E-01  7.182593355347E-01
  7.268784475611E-01  7.356009889318E-01  7.444282007990E-01  7.533613392086E-01
  7.624016752791E-01  7.715504953825E-01  7.808091013271E-01  7.901788105430E-01
  7.996609562695E-01  8.092568877447E-01  8.189679703977E-01  8.287955860424E-01
  8.387411330750E-01  8.488060266719E-01  8.589916989919E-01  8.692995993798E-01
  8.797311945724E-01  8.902879689072E-01  9.009714245341E-01  9.117830816285E-01
  9.227244786081E-01  9.337971723514E-01  9.450027384196E-01  9.563427712806E-01
  9.678188845360E-01  9.794327111504E-01  9.911859036842E-01  1.003080134528E+00
  1.015117096143E+00  1.027298501296E+00  1.039626083312E+00  1.052101596312E+00
  1.064726815468E+00  1.077503537253E+00  1.090433579700E+00  1.103518782657E+00
  1.116761008048E+00  1.130162140145E+00  1.143724085827E+00  1.157448774857E+00
  1.171338160155E+00  1.185394218077E+00  1.199618948694E+00  1.214014376078E+00
  1.228582548591E+00  1.243325539174E+00  1.258245445644E+00  1.273344390992E+00
  1.288624523684E+00  1.304088017968E+00  1.319737074184E+00  1.335573919074E+00
  1.351600806103E+00  1.367820015776E+00  1.384233855965E+00  1.400844662237E+00
  1.417654798184E+00  1.434666655762E+00  1.451882655631E+00  1.469305247499E+00
  1.486936910469E+00  1.504780153394E+00  1.522837515235E+00  1.541111565418E+00
  1.559604904203E+00  1.578320163053E+00  1.597260005010E+00  1.616427125070E+00
  1.635824250571E+00  1.655454141578E+00  1.675319591277E+00  1.695423426372E+00
  1.715768507488E+00  1.736357729578E+00  1.757194022333E+00  1.778280350601E+00
  1.799619714808E+00  1.821215151386E+00  1.843069733203E+00  1.865186570001E+00
  1.887568808841E+00  1.910219634547E+00  1.933142270162E+00  1.956339977404E+00
  1.979816057133E+00  2.003573849818E+00  2.027616736016E+00  2.051948136848E+00
  2.076571514490E+00  2.101490372664E+00  2.126708257136E+00  2.152228756222E+00
  2.178055501297E+00  2.204192167312E+00  2.230642473320E+00  2.257410183000E+00
  2.284499105196E+00  2.311913094458E+00  2.339656051592E+00  2.367731924211E+00
  2.396144707301E+00  2.424898443789E+00  2.453997225114E+00  2.483445191816E+00
  2.513246534117E+00  2.543405492527E+00  2.573926358437E+00  2.604813474738E+00
  2.636071236435E+00  2.667704091273E+00  2.699716540368E+00  2.732113138852E+00
  2.764898496518E+00  2.798077278477E+00  2.831654205818E+00  2.865634056288E+00
  2.900021664964E+00  2.934821924943E+00  2.970039788043E+00  3.005680265499E+00
  3.041748428685E+00  3.078249409829E+00  3.115188402747E+00  3.152570663580E+00
  3.190401511543E+00  3.228686329682E+00  3.267430565638E+00  3.306639732426E+00
  3.346319409215E+00  3.386475242125E+00  3.427112945031E+00  3.468238300371E+00
  3.509857159976E+00  3.551975445895E+00  3.594599151246E+00  3.637734341061E+00
  3.681387153154E+00  3.725563798992E+00  3.770270564579E+00  3.815513811354E+00
  3.861299977091E+00  3.907635576816E+00  3.954527203737E+00  4.001981530182E+00
  4.050005308545E+00  4.098605372247E+00  4.147788636714E+00  4.197562100355E+00
  4.247932845559E+00  4.298908039706E+00  4.350494936182E+00  4.402700875416E+00
  4.455533285921E+00  4.508999685352E+00  4.563107681576E+00  4.617864973755E+00
  4.673279353440E+00  4.729358705682E+00  4.786111010150E+00  4.843544342272E+00
  4.901666874379E+00  4.960486876872E+00  5.020012719394E+00  5.080252872027E+00
  5.141215906491E+00  5.202910497369E+00  5.265345423337E+00  5.328529568417E+00
  5.392471923238E+00  5.457181586317E+00  5.522667765353E+00  5.588939778537E+00
  5.656007055880E+00  5.723879140550E+00  5.792565690237E+00  5.862076478520E+00
  5.932421396262E+00  6.003610453017E+00  6.075653778453E+00  6.148561623795E+00
  6.222344363280E+00  6.297012495640E+00  6.372576645587E+00  6.449047565334E+00
  6.526436136118E+00  6.604753369752E+00  6.684010410189E+00  6.764218535111E+00
  6.845389157533E+00  6.927533827423E+00  7.010664233352E+00  7.094792204152E+00
  7.179929710602E+00  7.266088867129E+00  7.353281933535E+00  7.441521316737E+00
  7.530819572538E+00  7.621189407409E+00  7.712643680297E+00  7.805195404461E+00
  7.898857749315E+00  7.993644042306E+00  8.089567770814E+00  8.186642584064E+00
  8.284882295073E+00  8.384300882613E+00  8.484912493205E+00  8.586731443123E+00
  8.689772220441E+00  8.794049487086E+00  8.899578080931E+00  9.006373017902E+00
  9.114449494117E+00  9.223822888046E+00  9.334508762703E+00  9.446522867855E+00
  9.559881142270E+00  9.674599715977E+00  9.790694912569E+00  9.908183251519E+00
  1.002708145054E+01  1.014740642794E+01  1.026917530508E+01  1.039240540874E+01
  1.051711427365E+01  1.064331964493E+01  1.077103948067E+01  1.090029195444E+01
  1.103109545789E+01  1.116346860338E+01  1.129743022662E+01  1.143299938934E+01
  1.157019538202E+01  1.170903772660E+01  1.184954617932E+01  1.199174073347E+01
  1.213564162227E+01  1.228126932174E+01  1.242864455360E+01  1.257778828824E+01
  1.272872174770E+01  1.288146640868E+01  1.303604400558E+01  1.319247653365E+01
  1.335078625205E+01  1.351099568708E+01  1.367312763532E+01  1.383720516694E+01
  1.400325162895E+01  1.417129064849E+01  1.434134613628E+01  1.451344228991E+01
  1.468760359739E+01  1.486385484056E+01  1.504222109865E+01  1.522272775183E+01
  1.540540048485E+01  1.559026529067E+01  1.577734847416E+01  1.596667665585E+01
  1.615827677572E+01  1.635217609703E+01  1.654840221019E+01  1.674698303671E+01
  1.694794683315E+01  1.715132219515E+01  1.735713806149E+01  1.756542371823E+01
  1.777620880285E+01  1.798952330849E+01  1.820539758819E+01  1.842386235925E+01
  1.864494870756E+01  1.886868809205E+01  1.909511234915E+01  1.932425369734E+01
  1.955614474171E+01  1.979081847861E+01  2.002830830035E+01  2.026864799996E+01
  2.051187177596E+01  2.075801423727E+01  2.100711040812E+01  2.125919573301E+01
  2.151430608181E+01  2.177247775479E+01  2.203374748785E+01  2.229815245770E+01
  2.256573028719E+01  2.283651905064E+01  2.311055727925E+01  2.338788396660E+01
  2.366853857420E+01  2.395256103709E+01  2.423999176953E+01  2.453087167077E+01
  2.482524213082E+01  2.512314503639E+01  2.542462277682E+01  2.572971825015E+01
  2.603847486915E+01  2.635093656758E+01  2.666714780639E+01  2.698715358007E+01
  2.731099942303E+01  2.763873141610E+01  2.797039619310E+01  2.830604094741E+01
  2.864571343878E+01  2.898946200005E+01  2.933733554405E+01  2.968938357058E+01
  3.004565617342E+01  3.040620404750E+01  3.077107849607E+01  3.114033143803E+01
  3.151401541528E+01  3.189218360027E+01  3.227488980347E+01  3.266218848111E+01
  3.305413474289E+01  3.345078435980E+01  3.385219377212E+01  3.425842009738E+01
  3.466952113855E+01  3.508555539221E+01  3.550658205692E+01  3.593266104160E+01
  3.636385297410E+01  3.680021920979E+01  3.724182184031E+01  3.768872370239E+01
  3.814098838682E+01  3.859868024746E+01  3.906186441043E+01  3.953060678336E+01
  4.000497406476E+01  4.048503375354E+01  4.097085415858E+01  4.146250440848E+01
  4.196005446138E+01  4.246357511492E+01  4.297313801630E+01  4.348881567249E+01
  4.401068146056E+01
</grid-data>
</grid>
<valence-charge total-charge="4" is-unscreening-charge="yes"
 rescaled-to-z-pseudo="no">
<radfunc>
<data npts="457">
  3.684979066427E-03  3.690382376466E-03  3.706544569077E-03  3.733541680675E-03
  3.773230174222E-03  3.823999921198E-03  3.888914734421E-03  3.963536419758E-03
  4.047809043513E-03  4.146577752223E-03  4.258545141336E-03  4.381014559182E-03
  4.530096657019E-03  4.687051742145E-03  4.845128728712E-03  5.028804773899E-03
  5.242436343339E-03  5.447041968783E-03  5.679513543224E-03  5.943896819720E-03
  6.244885362453E-03  6.515670849731E-03  6.816564134428E-03  7.151194007878E-03
  7.523676654850E-03  7.938688873720E-03  8.401553220235E-03  8.783723190293E-03
  9.199076487874E-03  9.650787175931E-03  1.014236707576E-02  1.067770484775E-02
  1.126110973050E-02  1.189736046305E-02  1.259175996101E-02  1.335019636295E-02
  1.417921110833E-02  1.508607474888E-02  1.573785573769E-02  1.643042549557E-02
  1.716659140766E-02  1.794936753065E-02  1.878198987917E-02  1.966793272330E-02
  2.061092593729E-02  2.161497343611E-02  2.268437273109E-02  2.382373562956E-02
  2.503801009488E-02  2.633250327267E-02  2.771290567596E-02  2.918531650639E-02
  3.075627006887E-02  3.243276321478E-02  3.422228372120E-02  3.613283948203E-02
  3.817298834906E-02  4.035186841819E-02  4.267922850521E-02  4.516545849863E-02
  4.782161921069E-02  5.065947127355E-02  5.369150254316E-02  5.693095337888E-02
  6.039183906167E-02  6.408896849683E-02  6.803795821905E-02  7.011200384475E-02
  7.225524057745E-02  7.446985011517E-02  7.675806482654E-02  7.912216729421E-02
  8.156448968674E-02  8.408741294463E-02  8.669336576551E-02  8.938482337259E-02
  9.216430604986E-02  9.503437742679E-02  9.799764249452E-02  1.010567453347E-01
  1.042143665417E-01  1.074732203178E-01  1.108360512212E-01  1.143056305439E-01
  1.178847523004E-01  1.215762288009E-01  1.253828857895E-01  1.293075571222E-01
  1.333530789620E-01  1.375222834666E-01  1.418179919461E-01  1.462430074658E-01
  1.508001068718E-01  1.554920322161E-01  1.603214815580E-01  1.652910991217E-01
  1.704034647884E-01  1.756610829046E-01  1.810663703882E-01  1.866216441173E-01
  1.923291075869E-01  1.981908368248E-01  2.042087655554E-01  2.103846696086E-01
  2.167201505721E-01  2.232166186888E-01  2.298752750083E-01  2.366970928024E-01
  2.436827982651E-01  2.508328505184E-01  2.581474209548E-01  2.656263719540E-01
  2.732692350177E-01  2.810751883751E-01  2.890430341194E-01  2.971711749471E-01
  3.054575905763E-01  3.138998139361E-01  3.224949072243E-01  3.312394379445E-01
  3.401294550426E-01  3.491604652761E-01  3.583274099571E-01  3.676246422262E-01
  3.770459050220E-01  3.865843099226E-01  3.962323170503E-01  4.059817162349E-01
  4.158236096469E-01  4.257483961186E-01  4.357457573797E-01  4.458046464428E-01
  4.559132783789E-01  4.660591237303E-01  4.762289048099E-01  4.864085951379E-01
  4.965834222678E-01  5.067378742501E-01  5.168557099767E-01  5.269199736443E-01
  5.369130135620E-01  5.468165055162E-01  5.566114808917E-01  5.662783597266E-01
  5.757969888565E-01  5.851466852793E-01  5.943062848402E-01  6.032541963078E-01
  6.119684608720E-01  6.204268170603E-01  6.286067710240E-01  6.364856721028E-01
  6.440407935299E-01  6.512494180895E-01  6.580889284902E-01  6.645369021644E-01
  6.705712101529E-01  6.761701196828E-01  6.813123999945E-01  6.859774309249E-01
  6.901453137091E-01  6.937969834149E-01  6.969143223900E-01  6.994802740634E-01
  7.014789564140E-01  7.028957743983E-01  7.037175306092E-01  7.039325334317E-01
  7.035307019579E-01  7.025036669277E-01  7.008448669769E-01  6.985496394906E-01
  6.956153053858E-01  6.920412471781E-01  6.878289797201E-01  6.829822130376E-01
  6.775069067274E-01  6.714113154191E-01  6.647060248436E-01  6.574039780819E-01
  6.495204916069E-01  6.410732607552E-01  6.320823542989E-01  6.225701978084E-01
  6.125615455243E-01  6.020844814833E-01  5.911736253144E-01  5.798689817951E-01
  5.682102361434E-01  5.562395214446E-01  5.440003583234E-01  5.315375986838E-01
  5.188949814378E-01  5.061077471602E-01  4.932035729114E-01  4.802131543654E-01
  4.671647473953E-01  4.540857239014E-01  4.410023038538E-01  4.279395410714E-01
  4.149212968815E-01  4.019702192226E-01  3.891077275109E-01  3.763540029731E-01
  3.637279842156E-01  3.512473677786E-01  3.389286134179E-01  3.267869538439E-01
  3.148364086453E-01  3.030898021159E-01  2.915587846999E-01  2.802538577707E-01
  2.691844014533E-01  2.583587052054E-01  2.477840008708E-01  2.374664979241E-01
  2.274114206296E-01  2.176230468423E-01  2.081047481884E-01  1.988590313676E-01
  1.898875803338E-01  1.811912991015E-01  1.727703549804E-01  1.646242219948E-01
  1.567517242972E-01  1.491510793819E-01  1.418199409206E-01  1.347554410531E-01
  1.279542319812E-01  1.214125267250E-01  1.151261389159E-01  1.090905215114E-01
  1.033008043328E-01  9.775183033522E-02  9.243819053549E-02  8.735425753358E-02
  8.249421757447E-02  7.785210110940E-02  7.342181182501E-02  6.919715411968E-02
  6.517185901500E-02  6.133960849967E-02  5.769405831116E-02  5.422885916803E-02
  5.093767647272E-02  4.781420851117E-02  4.485220318126E-02  4.204547328707E-02
  3.938791044067E-02  3.687349761700E-02  3.449632041082E-02  3.225057704753E-02
  3.013058720189E-02  2.813079968067E-02  2.624579902637E-02  2.447031110034E-02
  2.279920770379E-02  2.122751029562E-02  1.975039286548E-02  1.836318402000E-02
  1.706136833944E-02  1.584058706046E-02  1.469663813984E-02  1.362547575204E-02
  1.262320927185E-02  1.168610179160E-02  1.081056822024E-02  9.993173009422E-03
  9.230627549717E-03  8.519787277602E-03  7.857648531739E-03  7.241345194640E-03
  6.668145153516E-03  6.135446611852E-03  5.640774280927E-03  5.181775478308E-03
  4.756216158146E-03  4.361976896039E-03  3.997048849154E-03  3.659529710361E-03
  3.347619673295E-03  3.059617423450E-03  2.793916168752E-03  2.548999721491E-03
  2.323438641979E-03  2.115886452940E-03  1.925075932365E-03  1.749815491342E-03
  1.588985642318E-03  1.441535562224E-03  1.306479754003E-03  1.182894809243E-03
  1.069916273882E-03  9.667356182831E-04  8.725973123933E-04  7.867960061596E-04
  7.086738149341E-04  6.376177091825E-04  5.730570074683E-04  5.144609713841E-04
  4.613365008457E-04  4.132259279492E-04  3.697049074125E-04  3.303804014748E-04
  2.948887570069E-04  2.628938724929E-04  2.340854524674E-04  2.081773469390E-04
  1.849059732930E-04  1.640288181368E-04  1.453230165424E-04  1.285840061313E-04
  1.136242534539E-04  1.002720501236E-04  8.837037618321E-05  7.777582820043E-05
  6.835760961355E-05  5.999658087826E-05  5.258436698984E-05  4.602252000689E-05
  4.022173420306E-05  3.510111154643E-05  3.058747523260E-05  2.661472903073E-05
  2.312326025248E-05  2.005938419855E-05  1.737482798414E-05  1.502625169311E-05
  1.297480486196E-05  1.118571634721E-05  9.627915684421E-06  8.273684103345E-06
  7.098333421869E-06  6.079911100514E-06  5.198929800388E-06  4.438119849302E-06
  3.782203083831E-06  3.217686598772E-06  2.732674999775E-06  2.316699819445E-06
  1.960564821859E-06  1.656205984793E-06  1.396565012932E-06  1.175475298555E-06
  9.875593085076E-07  8.281364373963E-07  6.931404267342E-07  5.790455079752E-07
  4.828004838487E-07  4.017700169991E-07  3.336824475023E-07  2.765835112625E-07
  2.287953795061E-07  1.888804855061E-07  1.556096482544E-07  1.279340440150E-07
  1.049606155351E-07  8.593054517210E-08  7.020045234199E-08  5.722600754141E-08
  4.654768480921E-08  3.777840192643E-08  3.059282299142E-08  2.471812132812E-08
  1.992602208310E-08  1.602596343496E-08  1.285923317779E-08  1.029395364910E-08
  8.220802654581E-09  6.549371298548E-09  5.205071561000E-09  4.126517168371E-09
  3.263310881455E-09  2.574179862868E-09  2.025408376809E-09  1.589523799973E-09
  1.244197864386E-09  9.713302857189E-10  7.562865247010E-10  5.872654500706E-10
  4.547761796548E-10  3.512064275591E-10  2.704673312605E-10  2.077020194086E-10
  1.590471518094E-10  1.214383558407E-10  9.245193302991E-11  7.017644675812E-11
  5.310885477322E-11  4.007074305108E-11  3.014097239256E-11  2.260168525469E-11
  1.689515462773E-11  1.258940411072E-11  9.350901633220E-12  6.922939745026E-12
  5.108572761291E-12  3.757193674315E-12  2.754008810004E-12  2.011811858065E-12
  1.464576372651E-12  1.062481563389E-12  7.680639275699E-13  5.532501716586E-13
  3.970775833431E-13  2.839487573270E-13  2.023001904414E-13  1.435902708370E-13
  1.015328521099E-13  7.151896237364E-14  5.018209914396E-14  3.507269564969E-14
  2.441527486131E-14  1.692799207676E-14  1.168905944644E-14  8.038271284253E-15
  5.504693481812E-15  3.753783033414E-15  2.548875500678E-15  1.723253322620E-15
  1.159973356009E-15  7.773602979056E-16  5.186196129961E-16  3.444326055875E-16
  2.277007864371E-16  1.498323800744E-16  9.813034436029E-17  6.396358275618E-17
  4.149244788690E-17  2.678470234354E-17  1.720522719753E-17  1.099673536410E-17
  6.993111420333E-18  4.424390870524E-18  2.784744518324E-18  1.743563452893E-18
  1.085878998209E-18  6.726441772793E-19  0.000000000000E+00  0.000000000000E+00
  0.000000000000E+00  0.000000000000E+00  0.000000000000E+00  0.000000000000E+00
  0.000000000000E+00  0.000000000000E+00  0.000000000000E+00  0.000000000000E+00
  0.000000000000E+00  0.000000000000E+00  0.000000000000E+00  0.000000000000E+00
  0.000000000000E+00  0.000000000000E+00  0.000000000000E+00  0.000000000000E+00
  0.000000000000E+00
</data>
</radfunc>
</valence-charge>
<pseudocore-charge matching-radius="1.69542342637"
 number-of-continuous-derivatives="4">
<annotation model-charge-form="Polynomial" />
<radfunc>
<data npts="290">
  8.834424434870E+00  8.834424425847E+00  8.834424247247E+00  8.834423415235E+00
  8.834420968889E+00  8.834415728130E+00  8.834405617074E+00  8.834389343361E+00
  8.834365099365E+00  8.834328936627E+00  8.834278069286E+00  8.834210729237E+00
  8.834112728891E+00  8.833991121532E+00  8.833850149843E+00  8.833663812436E+00
  8.833417702306E+00  8.833153477012E+00  8.832820737002E+00  8.832401984520E+00
  8.831875342182E+00  8.831358201609E+00  8.830737619899E+00  8.829993283068E+00
  8.829100986223E+00  8.828031914342E+00  8.826751797077E+00  8.825628990777E+00
  8.824344798189E+00  8.822876576574E+00  8.821198612713E+00  8.819281727153E+00
  8.817092831504E+00  8.814594434023E+00  8.811744088426E+00  8.808493780572E+00
  8.804789247411E+00  8.800569222393E+00  8.797435712204E+00  8.794019964504E+00
  8.790297523156E+00  8.786241933589E+00  8.781824594799E+00  8.777014602369E+00
  8.771778582258E+00  8.766080515109E+00  8.759881550892E+00  8.753139813764E+00
  8.745810197062E+00  8.737844148462E+00  8.729189445420E+00  8.719789961117E+00
  8.709585421277E+00  8.698511152385E+00  8.686497821991E+00  8.673471172019E+00
  8.659351746214E+00  8.644054613139E+00  8.627489086429E+00  8.609558444364E+00
  8.590159651182E+00  8.569183082998E+00  8.546512261672E+00  8.522023600468E+00
  8.495586165965E+00  8.467061461278E+00  8.436303236358E+00  8.420038691447E+00
  8.403157331903E+00  8.385638633074E+00  8.367461564206E+00  8.348604587665E+00
  8.329045659152E+00  8.308762228983E+00  8.287731244512E+00  8.265929153809E+00
  8.243331910658E+00  8.219914980998E+00  8.195653350890E+00  8.170521536128E+00
  8.144493593608E+00  8.117543134553E+00  8.089643339734E+00  8.060766976802E+00
  8.030886419857E+00  7.999973671398E+00  7.968000386776E+00  7.934937901308E+00
  7.900757260182E+00  7.865429251315E+00  7.828924441305E+00  7.791213214641E+00
  7.752265816324E+00  7.712052398059E+00  7.670543068186E+00  7.627707945502E+00
  7.583517217150E+00  7.537941200726E+00  7.490950410783E+00  7.442515629868E+00
  7.392607984279E+00  7.341199024664E+00  7.288260811640E+00  7.233766006550E+00
  7.177687967502E+00  7.120000850816E+00  7.060679717975E+00  6.999700648198E+00
  6.937040856705E+00  6.872678818731E+00  6.806594399357E+00  6.738768989140E+00
  6.669185645577E+00  6.597829240330E+00  6.524686612166E+00  6.449746725498E+00
  6.373000834383E+00  6.294442651776E+00  6.214068523827E+00  6.131877608889E+00
  6.047872060930E+00  5.962057216894E+00  5.874441787557E+00  5.785038051302E+00
  5.693862050192E+00  5.600933787594E+00  5.506277426562E+00  5.409921488042E+00
  5.311899047900E+00  5.212247931612E+00  5.111010905394E+00  5.008235862370E+00
  4.903976002283E+00  4.798290003098E+00  4.691242182705E+00  4.582902648776E+00
  4.473347434685E+00  4.362658619236E+00  4.250924427774E+00  4.138239312093E+00
  4.024704006408E+00  3.910425556446E+00  3.795517318607E+00  3.680098925944E+00
  3.564296217571E+00  3.448241127990E+00  3.332071532679E+00  3.215931046188E+00
  3.099968768913E+00  2.984338978671E+00  2.869200763167E+00  2.754717589514E+00
  2.641056807004E+00  2.528389079530E+00  2.416887744236E+00  2.306728093338E+00
  2.198086576420E+00  2.091139921094E+00  1.986064170575E+00  1.883033637541E+00
  1.782219774709E+00  1.683789963762E+00  1.587906225744E+00  1.494723857825E+00
  1.404390003370E+00  1.317042164691E+00  1.232806670728E+00  1.151797115141E+00
  1.074112784195E+00  9.998370981624E-01  9.290360950936E-01  8.617569916037E-01
  7.980268620161E-01  7.378514848051E-01  6.812144139751E-01  6.280763428829E-01
  5.783748392321E-01  5.320245426735E-01  4.889179308388E-01  4.489267758906E-01
  4.119044320230E-01  3.776891150317E-01  3.461083583521E-01  3.169848561531E-01
  2.901438383727E-01  2.654197699063E-01  2.426580010348E-01  2.217142199993E-01
  2.024538440835E-01  1.847514381670E-01  1.684901604867E-01  1.535612352161E-01
  1.398634513583E-01  1.273026873538E-01  1.157914607231E-01  1.052485019973E-01
  9.559835213645E-02  8.677098259449E-02  7.870143715885E-02  7.132949467153E-02
  6.459935172820E-02  5.845932444688E-02  5.286156840174E-02  4.776181582639E-02
  4.311912920574E-02  3.889567039435E-02  3.505648442161E-02  3.156929716991E-02
  2.840432613973E-02  2.553410354529E-02  2.293331101550E-02  2.057862520691E-02
  1.844857366753E-02  1.652340032290E-02  1.478493998810E-02  1.321650134094E-02
  1.180275782285E-02  1.052964596417E-02  9.384270659677E-03  8.354816948499E-03
  7.430467879342E-03  6.601328067775E-03  5.858352576700E-03  5.193280774289E-03
  4.598574845526E-03  4.067362654083E-03  3.593384670604E-03  3.170944701605E-03
  2.794864170205E-03  2.460439715758E-03  2.163403894312E-03  1.899888775631E-03
  1.666392245437E-03  1.459746833547E-03  1.277090899798E-03  1.115842020096E-03
  9.736724247045E-04  8.484863499446E-04  7.383991730466E-04  6.417182077894E-04
  5.569250460517E-04  4.826593373646E-04  4.177039051178E-04  3.609711042308E-04
  3.114903309038E-04  2.683966005296E-04  2.309201150062E-04  1.983767455668E-04
  1.701593618496E-04  1.457299422964E-04  1.246124050954E-04  1.063861028051E-04
  9.067992750067E-05  7.716697680623E-05  6.555973450985E-05  5.560572261752E-05
  4.708358469738E-05  3.979956319927E-05  3.358433611585E-05  2.829018088672E-05
  2.378843583939E-05  1.996723171833E-05  1.672946797909E-05  1.399101052374E-05
  1.167908943193E-05  9.730877002452E-06  8.092228068270E-06  6.716566088324E-06
  5.563899955524E-06  4.599957797866E-06  3.795425291972E-06  3.125277160522E-06
  2.568191591188E-06  2.106038299194E-06  1.723431862828E-06  1.407342795343E-06
  1.146759581961E-06  9.323956111661E-07  7.564355692513E-07  6.123164500032E-07
  4.945388613696E-07  3.985047915514E-07  3.203784318140E-07  2.569670457931E-07
  2.056192284601E-07  1.641382153168E-07  1.307081867627E-07  1.038317667211E-07
  8.227714116064E-08  6.503342358188E-08
</data>
</radfunc>
</pseudocore-charge>
<semilocal-potentials set="scalar_relativistic">
<slps n="4" l="s" rc="1.86518657000" eref="-0.438995219187">
<radfunc>
<data npts="290">
  4.870936796124E+01  4.868592884109E+01  4.861597434514E+01  4.849964207381E+01
  4.832978965634E+01  4.811451422857E+01  4.784247758262E+01  4.753413311153E+01
  4.719139804729E+01  4.679691858239E+01  4.635884989926E+01  4.589042170478E+01
  4.533475335085E+01  4.476627768181E+01  4.421011590614E+01  4.358355791327E+01
  4.288004222482E+01  4.223029439382E+01  4.151895630893E+01  4.074263909533E+01
  3.989831410891E+01  3.917216656236E+01  3.839985448031E+01  3.758068528284E+01
  3.671433124071E+01  3.580087885088E+01  3.484087489005E+01  3.409093285127E+01
  3.331602164346E+01  3.251695387965E+01  3.169472069219E+01  3.085049304970E+01
  2.998562048555E+01  2.910162705905E+01  2.820020443401E+01  2.728320203212E+01
  2.635261430042E+01  2.541056521778E+01  2.477726502492E+01  2.414054833198E+01
  2.350111607197E+01  2.285968130902E+01  2.221696609702E+01  2.157369825539E+01
  2.093060809277E+01  2.028842511059E+01  1.964787471863E+01  1.900967499479E+01
  1.837453352026E+01  1.774314432051E+01  1.711618494050E+01  1.649431368061E+01
  1.587816701731E+01  1.526835722957E+01  1.466547024932E+01  1.407006375045E+01
  1.348266548812E+01  1.290377189602E+01  1.233384694641E+01  1.177332127399E+01
  1.122259156172E+01  1.068202018357E+01  1.015193509655E+01  9.632629971692E+00
  9.124364551716E+00  8.627365220968E+00  8.141825771884E+00  7.903405380630E+00
  7.667908350847E+00  7.435350187852E+00  7.205744565445E+00  6.979103368023E+00
  6.755436734475E+00  6.534753103714E+00  6.317059261691E+00  6.102360389748E+00
  5.890660114160E+00  5.681960556718E+00  5.476262386212E+00  5.273564870673E+00
  5.073865930230E+00  4.877162190448E+00  4.683449036009E+00  4.492720664606E+00
  4.304970140924E+00  4.120189450572E+00  3.938369553852E+00  3.759500439239E+00
  3.583571176457E+00  3.410569969031E+00  3.240484206215E+00  3.073300514169E+00
  2.909004806298E+00  2.747582332633E+00  2.589017728160E+00  2.433295060007E+00
  2.280397873371E+00  2.130309236112E+00  1.983011781917E+00  1.838487751930E+00
  1.696719034788E+00  1.557687204947E+00  1.421373559243E+00  1.287759151580E+00
  1.156824825693E+00  1.028551245880E+00  9.029189256588E-01  7.799082542446E-01
  6.594995208069E-01  5.416729364198E-01  4.264086536516E-01  3.136867837309E-01
  2.034874112357E-01  9.579060625405E-02 -9.423566026782E-03 -1.121750383408E-01
 -2.124837370033E-01 -3.103695802305E-01 -4.058524791311E-01 -4.989523413663E-01
 -5.896890774671E-01 -6.780826097759E-01 -7.641528839687E-01 -8.479198830896E-01
 -9.294036440101E-01 -1.008624276200E+00 -1.085601982669E+00 -1.160357082912E+00
 -1.232910037642E+00 -1.303281475083E+00 -1.371492218523E+00 -1.437563314813E+00
 -1.501516063417E+00 -1.563372045594E+00 -1.623153153210E+00 -1.680881616642E+00
 -1.736580031135E+00 -1.790271380943E+00 -1.841979060479E+00 -1.891726891643E+00
 -1.939539136395E+00 -1.985440503605E+00 -2.029456149057E+00 -2.071611667495E+00
 -2.111933075432E+00 -2.150446783452E+00 -2.187179556606E+00 -2.222158461491E+00
 -2.255410798546E+00 -2.286964018080E+00 -2.316845618552E+00 -2.345083025652E+00
 -2.371703450804E+00 -2.396733727810E+00 -2.420200126522E+00 -2.442128142631E+00