Li    ONCVPSP-3.2.3  r_core=   1.40824   1.10935
3.0000      3.0000      161006    zatom,zion,pspd
8   -1012   1     4   400     0    pspcod,pspxc,lmax,lloc,mmax,r2well
3.99000000  0.00000000  0.00000000    rchrg fchrg qchrg
2     2     0     0     0    nproj
1     1           extension_switch
0                        -5.0742545188744D+00 -1.7651536410824D+00
1  0.0000000000000D+00  3.4696967521342D-10 -6.9812541858560D-10
2  1.0000000000000D-02  9.5661481904088D-02 -3.2372270086309D-02
3  2.0000000000000D-02  1.9104596359846D-01 -6.4523757306585D-02
4  3.0000000000000D-02  2.8587715338648D-01 -9.6234178009631D-02
5  4.0000000000000D-02  3.7988017904757D-01 -1.2728425443148D-01
6  5.0000000000000D-02  4.7278230360925D-01 -1.5745623610099D-01
7  6.0000000000000D-02  5.6431364810804D-01 -1.8653444289363D-01
8  7.0000000000000D-02  6.5420792325311D-01 -2.1430583611448D-01
9  8.0000000000000D-02  7.4220317155992D-01 -2.4056062329351D-01
10  9.0000000000000D-02  8.2804252109856D-01 -2.6509290152532D-01
11  1.0000000000000D-01  9.1147495151103D-01 -2.8770134319542D-01
12  1.1000000000000D-01  9.9225607240183D-01 -3.0818992682290D-01
13  1.2000000000000D-01  1.0701489136061D+00 -3.2636871453246D-01
14  1.3000000000000D-01  1.1449247262001D+00 -3.4205467636828D-01
15  1.4000000000000D-01  1.2163637924524D+00 -3.5507256029870D-01
16  1.5000000000000D-01  1.2842562422277D+00 -3.6525580535876D-01
17  1.6000000000000D-01  1.3484028726727D+00 -3.7244749395896D-01
18  1.7000000000000D-01  1.4086159673299D+00 -3.7650133797937D-01
19  1.8000000000000D-01  1.4647201101713D+00 -3.7728269189152D-01
20  1.9000000000000D-01  1.5165529894204D+00 -3.7466958483085D-01
21  2.0000000000000D-01  1.5639661854546D+00 -3.6855376230378D-01
22  2.1000000000000D-01  1.6068259365586D+00 -3.5884172707772D-01
23  2.2000000000000D-01  1.6450138758539D+00 -3.4545576779133D-01
24  2.3000000000000D-01  1.6784277323525D+00 -3.2833496295507D-01
25  2.4000000000000D-01  1.7069819888050D+00 -3.0743614730727D-01
26  2.5000000000000D-01  1.7306084888189D+00 -2.8273482696299D-01
27  2.6000000000000D-01  1.7492569856428D+00 -2.5422602945566D-01
28  2.7000000000000D-01  1.7628956250291D+00 -2.2192507463476D-01
29  2.8000000000000D-01  1.7715113547192D+00 -1.8586825245458D-01
30  2.9000000000000D-01  1.7751102533431D+00 -1.4611339397336D-01
31  3.0000000000000D-01  1.7737177718759D+00 -1.0274032238075D-01
32  3.1000000000000D-01  1.7673788812665D+00 -5.5851171582585D-02
33  3.2000000000000D-01  1.7561581204280D+00 -5.5705607909218D-03
34  3.3000000000000D-01  1.7401395394593D+00  4.7954385314528D-02
35  3.4000000000000D-01  1.7194265337433D+00  1.0455417997981D-01
36  3.5000000000000D-01  1.6941415654374D+00  1.6403728896905D-01
37  3.6000000000000D-01  1.6644257698146D+00  2.2619062235880D-01
38  3.7000000000000D-01  1.6304384449325D+00  2.9078020775752D-01
39  3.8000000000000D-01  1.5923564241840D+00  3.5755204727441D-01
40  3.9000000000000D-01  1.5503733323997D+00  4.2623315856888D-01
41  4.0000000000000D-01  1.5046987273287D+00  4.9653279824808D-01
42  4.1000000000000D-01  1.4555571294928D+00  5.6814386377304D-01
43  4.2000000000000D-01  1.4031869445802D+00  6.4074446790971D-01
44  4.3000000000000D-01  1.3478392837110D+00  7.1399967764901D-01
45  4.4000000000000D-01  1.2897766880349D+00  7.8756340744616D-01
46  4.5000000000000D-01  1.2292717652203D+00  8.6108045462345D-01
47  4.6000000000000D-01  1.1666057464248D+00  9.3418866286859D-01
48  4.7000000000000D-01  1.1020669733063D+00  1.0065211979695D+00
49  4.8000000000000D-01  1.0359493255162D+00  1.0777089182811D+00
50  4.9000000000000D-01  9.6855059990049D-01  1.1473828209428D+00
51  5.0000000000000D-01  9.0017085331688D-01  1.2151765435811D+00
52  5.1000000000000D-01  8.3111072153715D-01  1.2807289001535D+00
53  5.2000000000000D-01  7.6166972714187D-01  1.3436864287436D+00
54  5.3000000000000D-01  6.9214458961916D-01  1.4037059285031D+00
55  5.4000000000000D-01  6.2282755104679D-01  1.4604569625821D+00
56  5.5000000000000D-01  5.5400473076222D-01  1.5136243037851D+00
57  5.6000000000000D-01  4.8595452230862D-01  1.5629102998544D+00
58  5.7000000000000D-01  4.1894604568359D-01  1.6080371357051D+00
59  5.8000000000000D-01  3.5323766751635D-01  1.6487489706268D+00
60  5.9000000000000D-01  2.8907560125866D-01  1.6848139294049D+00
61  6.0000000000000D-01  2.2669259880401D-01  1.7160259275026D+00
62  6.1000000000000D-01  1.6630674415014D-01  1.7422063118716D+00
63  6.2000000000000D-01  1.0812035880951D-01  1.7632053005892D+00
64  6.3000000000000D-01  5.2319027647040D-02  1.7789032063734D+00
65  6.4000000000000D-01 -9.2924728625451D-04  1.7892114310346D+00
66  6.5000000000000D-01 -5.1474758555534D-02  1.7940732201062D+00
67  6.6000000000000D-01 -9.9186665679416D-02  1.7934641692070D+00
68  6.7000000000000D-01 -1.4395342421766D-01  1.7873924760897D+00
69  6.8000000000000D-01 -1.8568306918660D-01  1.7758989348302D+00
70  6.9000000000000D-01 -2.2430335176030D-01  1.7590566711420D+00
71  7.0000000000000D-01 -2.5976172960501D-01  1.7369706203606D+00
72  7.1000000000000D-01 -2.9202521256877D-01  1.7097767521729D+00
73  7.2000000000000D-01 -3.2108006680859D-01  1.6776410486812D+00
74  7.3000000000000D-01 -3.4693138174705D-01  1.6407582448131D+00
75  7.4000000000000D-01 -3.6960250550869D-01  1.5993503424206D+00
76  7.5000000000000D-01 -3.8913435567579D-01  1.5536649116208D+00
77  7.6000000000000D-01 -4.0558461330735D-01  1.5039731949803D+00
78  7.7000000000000D-01 -4.1902680917586D-01  1.4505680320323D+00
79  7.8000000000000D-01 -4.2954931208291D-01  1.3937616233017D+00
80  7.9000000000000D-01 -4.3725422990285D-01  1.3338831544891D+00
81  8.0000000000000D-01 -4.4225623467154D-01  1.2712763027105D+00
82  8.1000000000000D-01 -4.4468132357552D-01  1.2062966477009D+00
83  8.2000000000000D-01 -4.4466552810122D-01  1.1393090116439D+00
84  8.3000000000000D-01 -4.4235358387236D-01  1.0706847517959D+00
85  8.4000000000000D-01 -4.3789757383417D-01  1.0007990303155D+00
86  8.5000000000000D-01 -4.3145555743762D-01  9.3002808569273D-01
87  8.6000000000000D-01 -4.2319019833628D-01  8.5874652990734D-01
88  8.7000000000000D-01 -4.1326740283838D-01  7.8732469492449D-01
89  8.8000000000000D-01 -4.0185498096130D-01  7.1612605138154D-01
90  8.9000000000000D-01 -3.8912134142362D-01  6.4550472133703D-01
91  9.0000000000000D-01 -3.7523423128811D-01  5.7580310575923D-01
92  9.1000000000000D-01 -3.6035953024850D-01  5.0734964604405D-01
93  9.2000000000000D-01 -3.4466010874380D-01  4.4045673729020D-01
94  9.3000000000000D-01 -3.2829475819785D-01  3.7541880934452D-01
95  9.4000000000000D-01 -3.1141720073192D-01  3.1251058978519D-01
96  9.5000000000000D-01 -2.9417518469646D-01  2.5198556105845D-01
97  9.6000000000000D-01 -2.7670967133158D-01  1.9407462195710D-01
98  9.7000000000000D-01 -2.5915411678638D-01  1.3898496150728D-01
99  9.8000000000000D-01 -2.4163385269073D-01  8.6899151286389D-02
100  9.9000000000000D-01 -2.2426556735252D-01  3.7974459970632D-02
101  1.0000000000000D+00 -2.0715688863078D-01 -7.6576081278827D-03
102  1.0100000000000D+00 -1.9040606849340D-01 -4.9891550866422D-02
103  1.0200000000000D+00 -1.7410176828107D-01 -8.8647884746015D-02
104  1.0300000000000D+00 -1.5832294275658D-01 -1.2387294430307D-01
105  1.0400000000000D+00 -1.4313882013396D-01 -1.5553847048754D-01
106  1.0500000000000D+00 -1.2860897450341D-01 -1.8364099571417D-01
107  1.0600000000000D+00 -1.1478348627417D-01 -2.0820103494733D-01
108  1.0700000000000D+00 -1.0170318565291D-01 -2.2926209347738D-01
109  1.0800000000000D+00 -8.9399973812478D-02 -2.4688950267657D-01
110  1.0900000000000D+00 -7.7897216044265D-02 -2.6116909590521D-01
111  1.1000000000000D+00 -6.7210185428659D-02 -2.7220578106612D-01
112  1.1100000000000D+00 -5.7346628579636D-02 -2.8012180039625D-01
113  1.1200000000000D+00 -4.8307192336972D-02 -2.8505542518544D-01
114  1.1300000000000D+00 -4.0085566100585D-02 -2.8716048965427D-01
115  1.1400000000000D+00 -3.2668620198426D-02 -2.8660589354742D-01
116  1.1500000000000D+00 -2.6036894751739D-02 -2.8357408636490D-01
117  1.1600000000000D+00 -2.0165237154351D-02 -2.7825913012355D-01
118  1.1700000000000D+00 -1.5023403980761D-02 -2.7086488509062D-01
119  1.1800000000000D+00 -1.0576685351657D-02 -2.6160313951310D-01
120  1.1900000000000D+00 -6.7865329425685D-03 -2.5069173643076D-01
121  1.2000000000000D+00 -3.6111859022673D-03 -2.3835271105988D-01
122  1.2100000000000D+00 -1.0062896858524D-03 -2.2481045071588D-01
123  1.2200000000000D+00  1.0744970928737D-03 -2.1028988941714D-01
124  1.2300000000000D+00  2.6789120766993D-03 -1.9501474818634D-01
125  1.2400000000000D+00  3.8555187015426D-03 -1.7920583122810D-01
126  1.2500000000000D+00  4.6531594663633D-03 -1.6307938772864D-01
127  1.2600000000000D+00  5.1204356862020D-03 -1.4684554733422D-01
128  1.2700000000000D+00  5.3052161826741D-03 -1.3070683672011D-01
129  1.2800000000000D+00  5.2541772046430D-03 -1.1485678438354D-01
130  1.2900000000000D+00  5.0123749517492D-03 -9.9478618856978D-02
131  1.3000000000000D+00  4.6228519513292D-03 -8.4744065173711D-02
132  1.3100000000000D+00  4.1262784154003D-03 -7.0812244241812D-02
133  1.3200000000000D+00  3.5606288682983D-03 -5.7828677793148D-02
134  1.3300000000000D+00  2.9608944568584D-03 -4.5924401725274D-02
135  1.3400000000000D+00  2.3588311033130D-03 -3.5215190188194D-02
136  1.3500000000000D+00  1.7827431813157D-03 -2.5800891253629D-02
137  1.3600000000000D+00  1.2573717056276D-03 -1.7765858564264D-02
138  1.3700000000000D+00  8.0367886108115D-04 -1.1177525136158D-02
139  1.3800000000000D+00  4.3667907475887D-04 -6.0559200202014D-03
140  1.3900000000000D+00  1.7357272016235D-04 -2.4943258593903D-03
141  1.4000000000000D+00  2.7019559895850D-05 -5.6685777195253D-04
142  1.4100000000000D+00 -2.0910357452046D-05  9.5435576218012D-05
143  1.4200000000000D+00 -1.0564720128407D-05  8.1467151831753D-05
144  1.4300000000000D+00  3.9612661541774D-06 -3.3044154305330D-05
145  1.4400000000000D+00  1.5220268633480D-06 -1.3201046054901D-05
146  1.4500000000000D+00 -8.9454234498649D-07  7.1271296878554D-06
147  1.4600000000000D+00  5.0440063535303D-09 -1.2575912396928D-08
148  1.4700000000000D+00  4.8300369857656D-08 -1.2042435665133D-07
149  1.4800000000000D+00  0.0000000000000D+00  0.0000000000000D+00
150  1.4900000000000D+00  0.0000000000000D+00  0.0000000000000D+00
151  1.5000000000000D+00  0.0000000000000D+00  0.0000000000000D+00
152  1.5100000000000D+00  0.0000000000000D+00  0.0000000000000D+00
153  1.5200000000000D+00  0.0000000000000D+00  0.0000000000000D+00
154  1.5300000000000D+00  0.0000000000000D+00  0.0000000000000D+00
155  1.5400000000000D+00  0.0000000000000D+00  0.0000000000000D+00
156  1.5500000000000D+00  0.0000000000000D+00  0.0000000000000D+00
157  1.5600000000000D+00  0.0000000000000D+00  0.0000000000000D+00
158  1.5700000000000D+00  0.0000000000000D+00  0.0000000000000D+00
159  1.5800000000000D+00  0.0000000000000D+00  0.0000000000000D+00
160  1.5900000000000D+00  0.0000000000000D+00  0.0000000000000D+00
161  1.6000000000000D+00  0.0000000000000D+00  0.0000000000000D+00
162  1.6100000000000D+00  0.0000000000000D+00  0.0000000000000D+00
163  1.6200000000000D+00  0.0000000000000D+00  0.0000000000000D+00
164  1.6300000000000D+00  0.0000000000000D+00  0.0000000000000D+00
165  1.6400000000000D+00  0.0000000000000D+00  0.0000000000000D+00
166  1.6500000000000D+00  0.0000000000000D+00  0.0000000000000D+00
167  1.6600000000000D+00  0.0000000000000D+00  0.0000000000000D+00
168  1.6700000000000D+00  0.0000000000000D+00  0.0000000000000D+00
169  1.6800000000000D+00  0.0000000000000D+00  0.0000000000000D+00
170  1.6900000000000D+00  0.0000000000000D+00  0.0000000000000D+00
171  1.7000000000000D+00  0.0000000000000D+00  0.0000000000000D+00
172  1.7100000000000D+00  0.0000000000000D+00  0.0000000000000D+00
173  1.7200000000000D+00  0.0000000000000D+00  0.0000000000000D+00
174  1.7300000000000D+00  0.0000000000000D+00  0.0000000000000D+00
175  1.7400000000000D+00  0.0000000000000D+00  0.0000000000000D+00
176  1.7500000000000D+00  0.0000000000000D+00  0.0000000000000D+00
177  1.7600000000000D+00  0.0000000000000D+00  0.0000000000000D+00
178  1.7700000000000D+00  0.0000000000000D+00  0.0000000000000D+00
179  1.7800000000000D+00  0.0000000000000D+00  0.0000000000000D+00
180  1.7900000000000D+00  0.0000000000000D+00  0.0000000000000D+00
181  1.8000000000000D+00  0.0000000000000D+00  0.0000000000000D+00
182  1.8100000000000D+00  0.0000000000000D+00  0.0000000000000D+00
183  1.8200000000000D+00  0.0000000000000D+00  0.0000000000000D+00
184  1.8300000000000D+00  0.0000000000000D+00  0.0000000000000D+00
185  1.8400000000000D+00  0.0000000000000D+00  0.0000000000000D+00
186  1.8500000000000D+00  0.0000000000000D+00  0.0000000000000D+00
187  1.8600000000000D+00  0.0000000000000D+00  0.0000000000000D+00
188  1.8700000000000D+00  0.0000000000000D+00  0.0000000000000D+00
189  1.8800000000000D+00  0.0000000000000D+00  0.0000000000000D+00
190  1.8900000000000D+00  0.0000000000000D+00  0.0000000000000D+00
191  1.9000000000000D+00  0.0000000000000D+00  0.0000000000000D+00
192  1.9100000000000D+00  0.0000000000000D+00  0.0000000000000D+00
193  1.9200000000000D+00  0.0000000000000D+00  0.0000000000000D+00
194  1.9300000000000D+00  0.0000000000000D+00  0.0000000000000D+00
195  1.9400000000000D+00  0.0000000000000D+00  0.0000000000000D+00
196  1.9500000000000D+00  0.0000000000000D+00  0.0000000000000D+00
197  1.9600000000000D+00  0.0000000000000D+00  0.0000000000000D+00
198  1.9700000000000D+00  0.0000000000000D+00  0.0000000000000D+00
199  1.9800000000000D+00  0.0000000000000D+00  0.0000000000000D+00
200  1.9900000000000D+00  0.0000000000000D+00  0.0000000000000D+00
201  2.0000000000000D+00  0.0000000000000D+00  0.0000000000000D+00
202  2.0100000000000D+00  0.0000000000000D+00  0.0000000000000D+00
203  2.0200000000000D+00  0.0000000000000D+00  0.0000000000000D+00
204  2.0300000000000D+00  0.0000000000000D+00  0.0000000000000D+00
205  2.0400000000000D+00  0.0000000000000D+00  0.0000000000000D+00
206  2.0500000000000D+00  0.0000000000000D+00  0.0000000000000D+00
207  2.0600000000000D+00  0.0000000000000D+00  0.0000000000000D+00
208  2.0700000000000D+00  0.0000000000000D+00  0.0000000000000D+00
209  2.0800000000000D+00  0.0000000000000D+00  0.0000000000000D+00
210  2.0900000000000D+00  0.0000000000000D+00  0.0000000000000D+00
211  2.1000000000000D+00  0.0000000000000D+00  0.0000000000000D+00
212  2.1100000000000D+00  0.0000000000000D+00  0.0000000000000D+00
213  2.1200000000000D+00  0.0000000000000D+00  0.0000000000000D+00
214  2.1300000000000D+00  0.0000000000000D+00  0.0000000000000D+00
215  2.1400000000000D+00  0.0000000000000D+00  0.0000000000000D+00
216  2.1500000000000D+00  0.0000000000000D+00  0.0000000000000D+00
217  2.1600000000000D+00  0.0000000000000D+00  0.0000000000000D+00
218  2.1700000000000D+00  0.0000000000000D+00  0.0000000000000D+00
219  2.1800000000000D+00  0.0000000000000D+00  0.0000000000000D+00
220  2.1900000000000D+00  0.0000000000000D+00  0.0000000000000D+00
221  2.2000000000000D+00  0.0000000000000D+00  0.0000000000000D+00
222  2.2100000000000D+00  0.0000000000000D+00  0.0000000000000D+00
223  2.2200000000000D+00  0.0000000000000D+00  0.0000000000000D+00
224  2.2300000000000D+00  0.0000000000000D+00  0.0000000000000D+00
225  2.2400000000000D+00  0.0000000000000D+00  0.0000000000000D+00
226  2.2500000000000D+00  0.0000000000000D+00  0.0000000000000D+00
227  2.2600000000000D+00  0.0000000000000D+00  0.0000000000000D+00
228  2.2700000000000D+00  0.0000000000000D+00  0.0000000000000D+00
229  2.2800000000000D+00  0.0000000000000D+00  0.0000000000000D+00
230  2.2900000000000D+00  0.0000000000000D+00  0.0000000000000D+00
231  2.3000000000000D+00  0.0000000000000D+00  0.0000000000000D+00
232  2.3100000000000D+00  0.0000000000000D+00  0.0000000000000D+00
233  2.3200000000000D+00  0.0000000000000D+00  0.0000000000000D+00
234  2.3300000000000D+00  0.0000000000000D+00  0.0000000000000D+00
235  2.3400000000000D+00  0.0000000000000D+00  0.0000000000000D+00
236  2.3500000000000D+00  0.0000000000000D+00  0.0000000000000D+00
237  2.3600000000000D+00  0.0000000000000D+00  0.0000000000000D+00
238  2.3700000000000D+00  0.0000000000000D+00  0.0000000000000D+00
239  2.3800000000000D+00  0.0000000000000D+00  0.0000000000000D+00
240  2.3900000000000D+00  0.0000000000000D+00  0.0000000000000D+00
241  2.4000000000000D+00  0.0000000000000D+00  0.0000000000000D+00
242  2.4100000000000D+00  0.0000000000000D+00  0.0000000000000D+00
243  2.4200000000000D+00  0.0000000000000D+00  0.0000000000000D+00
244  2.4300000000000D+00  0.0000000000000D+00  0.0000000000000D+00
245  2.4400000000000D+00  0.0000000000000D+00  0.0000000000000D+00
246  2.4500000000000D+00  0.0000000000000D+00  0.0000000000000D+00
247  2.4600000000000D+00  0.0000000000000D+00  0.0000000000000D+00
248  2.4700000000000D+00  0.0000000000000D+00  0.0000000000000D+00
249  2.4800000000000D+00  0.0000000000000D+00  0.0000000000000D+00
250  2.4900000000000D+00  0.0000000000000D+00  0.0000000000000D+00
251  2.5000000000000D+00  0.0000000000000D+00  0.0000000000000D+00
252  2.5100000000000D+00  0.0000000000000D+00  0.0000000000000D+00
253  2.5200000000000D+00  0.0000000000000D+00  0.0000000000000D+00
254  2.5300000000000D+00  0.0000000000000D+00  0.0000000000000D+00
255  2.5400000000000D+00  0.0000000000000D+00  0.0000000000000D+00
256  2.5500000000000D+00  0.0000000000000D+00  0.0000000000000D+00
257  2.5600000000000D+00  0.0000000000000D+00  0.0000000000000D+00
258  2.5700000000000D+00  0.0000000000000D+00  0.0000000000000D+00
259  2.5800000000000D+00  0.0000000000000D+00  0.0000000000000D+00
260  2.5900000000000D+00  0.0000000000000D+00  0.0000000000000D+00
261  2.6000000000000D+00  0.0000000000000D+00  0.0000000000000D+00
262  2.6100000000000D+00  0.0000000000000D+00  0.0000000000000D+00
263  2.6200000000000D+00  0.0000000000000D+00  0.0000000000000D+00
264  2.6300000000000D+00  0.0000000000000D+00  0.0000000000000D+00
265  2.6400000000000D+00  0.0000000000000D+00  0.0000000000000D+00
266  2.6500000000000D+00  0.0000000000000D+00  0.0000000000000D+00
267  2.6600000000000D+00  0.0000000000000D+00  0.0000000000000D+00
268  2.6700000000000D+00  0.0000000000000D+00  0.0000000000000D+00
269  2.6800000000000D+00  0.0000000000000D+00  0.0000000000000D+00
270  2.6900000000000D+00  0.0000000000000D+00  0.0000000000000D+00
271  2.7000000000000D+00  0.0000000000000D+00  0.0000000000000D+00
272  2.7100000000000D+00  0.0000000000000D+00  0.0000000000000D+00
273  2.7200000000000D+00  0.0000000000000D+00  0.0000000000000D+00
274  2.7300000000000D+00  0.0000000000000D+00  0.0000000000000D+00
275  2.7400000000000D+00  0.0000000000000D+00  0.0000000000000D+00
276  2.7500000000000D+00  0.0000000000000D+00  0.0000000000000D+00
277  2.7600000000000D+00  0.0000000000000D+00  0.0000000000000D+00
278  2.7700000000000D+00  0.0000000000000D+00  0.0000000000000D+00
279  2.7800000000000D+00  0.0000000000000D+00  0.0000000000000D+00
280  2.7900000000000D+00  0.0000000000000D+00  0.0000000000000D+00
281  2.8000000000000D+00  0.0000000000000D+00  0.0000000000000D+00
282  2.8100000000000D+00  0.0000000000000D+00  0.0000000000000D+00
283  2.8200000000000D+00  0.0000000000000D+00  0.0000000000000D+00
284  2.8300000000000D+00  0.0000000000000D+00  0.0000000000000D+00
285  2.8400000000000D+00  0.0000000000000D+00  0.0000000000000D+00
286  2.8500000000000D+00  0.0000000000000D+00  0.0000000000000D+00
287  2.8600000000000D+00  0.0000000000000D+00  0.0000000000000D+00
288  2.8700000000000D+00  0.0000000000000D+00  0.0000000000000D+00
289  2.8800000000000D+00  0.0000000000000D+00  0.0000000000000D+00
290  2.8900000000000D+00  0.0000000000000D+00  0.0000000000000D+00
291  2.9000000000000D+00  0.0000000000000D+00  0.0000000000000D+00
292  2.9100000000000D+00  0.0000000000000D+00  0.0000000000000D+00
293  2.9200000000000D+00  0.0000000000000D+00  0.0000000000000D+00
294  2.9300000000000D+00  0.0000000000000D+00  0.0000000000000D+00
295  2.9400000000000D+00  0.0000000000000D+00  0.0000000000000D+00
296  2.9500000000000D+00  0.0000000000000D+00  0.0000000000000D+00
297  2.9600000000000D+00  0.0000000000000D+00  0.0000000000000D+00
298  2.9700000000000D+00  0.0000000000000D+00  0.0000000000000D+00
299  2.9800000000000D+00  0.0000000000000D+00  0.0000000000000D+00
300  2.9900000000000D+00  0.0000000000000D+00  0.0000000000000D+00
301  3.0000000000000D+00  0.0000000000000D+00  0.0000000000000D+00
302  3.0100000000000D+00  0.0000000000000D+00  0.0000000000000D+00
303  3.0200000000000D+00  0.0000000000000D+00  0.0000000000000D+00
304  3.0300000000000D+00  0.0000000000000D+00  0.0000000000000D+00
305  3.0400000000000D+00  0.0000000000000D+00  0.0000000000000D+00
306  3.0500000000000D+00  0.0000000000000D+00  0.0000000000000D+00
307  3.0600000000000D+00  0.0000000000000D+00  0.0000000000000D+00
308  3.0700000000000D+00  0.0000000000000D+00  0.0000000000000D+00
309  3.0800000000000D+00  0.0000000000000D+00  0.0000000000000D+00
310  3.0900000000000D+00  0.0000000000000D+00  0.0000000000000D+00
311  3.1000000000000D+00  0.0000000000000D+00  0.0000000000000D+00
312  3.1100000000000D+00  0.0000000000000D+00  0.0000000000000D+00
313  3.1200000000000D+00  0.0000000000000D+00  0.0000000000000D+00
314  3.1300000000000D+00  0.0000000000000D+00  0.0000000000000D+00
315  3.1400000000000D+00  0.0000000000000D+00  0.0000000000000D+00
316  3.1500000000000D+00  0.0000000000000D+00  0.0000000000000D+00
317  3.1600000000000D+00  0.0000000000000D+00  0.0000000000000D+00
318  3.1700000000000D+00  0.0000000000000D+00  0.0000000000000D+00
319  3.1800000000000D+00  0.0000000000000D+00  0.0000000000000D+00
320  3.1900000000000D+00  0.0000000000000D+00  0.0000000000000D+00
321  3.2000000000000D+00  0.0000000000000D+00  0.0000000000000D+00
322  3.2100000000000D+00  0.0000000000000D+00  0.0000000000000D+00
323  3.2200000000000D+00  0.0000000000000D+00  0.0000000000000D+00
324  3.2300000000000D+00  0.0000000000000D+00  0.0000000000000D+00
325  3.2400000000000D+00  0.0000000000000D+00  0.0000000000000D+00
326  3.2500000000000D+00  0.0000000000000D+00  0.0000000000000D+00
327  3.2600000000000D+00  0.0000000000000D+00  0.0000000000000D+00
328  3.2700000000000D+00  0.0000000000000D+00  0.0000000000000D+00
329  3.2800000000000D+00  0.0000000000000D+00  0.0000000000000D+00
330  3.2900000000000D+00  0.0000000000000D+00  0.0000000000000D+00
331  3.3000000000000D+00  0.0000000000000D+00  0.0000000000000D+00
332  3.3100000000000D+00  0.0000000000000D+00  0.0000000000000D+00
333  3.3200000000000D+00  0.0000000000000D+00  0.0000000000000D+00
334  3.3300000000000D+00  0.0000000000000D+00  0.0000000000000D+00
335  3.3400000000000D+00  0.0000000000000D+00  0.0000000000000D+00
336  3.3500000000000D+00  0.0000000000000D+00  0.0000000000000D+00
337  3.3600000000000D+00  0.0000000000000D+00  0.0000000000000D+00
338  3.3700000000000D+00  0.0000000000000D+00  0.0000000000000D+00
339  3.3800000000000D+00  0.0000000000000D+00  0.0000000000000D+00
340  3.3900000000000D+00  0.0000000000000D+00  0.0000000000000D+00
341  3.4000000000000D+00  0.0000000000000D+00  0.0000000000000D+00
342  3.4100000000000D+00  0.0000000000000D+00  0.0000000000000D+00
343  3.4200000000000D+00  0.0000000000000D+00  0.0000000000000D+00
344  3.4300000000000D+00  0.0000000000000D+00  0.0000000000000D+00
345  3.4400000000000D+00  0.0000000000000D+00  0.0000000000000D+00
346  3.4500000000000D+00  0.0000000000000D+00  0.0000000000000D+00
347  3.4600000000000D+00  0.0000000000000D+00  0.0000000000000D+00
348  3.4700000000000D+00  0.0000000000000D+00  0.0000000000000D+00
349  3.4800000000000D+00  0.0000000000000D+00  0.0000000000000D+00
350  3.4900000000000D+00  0.0000000000000D+00  0.0000000000000D+00
351  3.5000000000000D+00  0.0000000000000D+00  0.0000000000000D+00
352  3.5100000000000D+00  0.0000000000000D+00  0.0000000000000D+00
353  3.5200000000000D+00  0.0000000000000D+00  0.0000000000000D+00
354  3.5300000000000D+00  0.0000000000000D+00  0.0000000000000D+00
355  3.5400000000000D+00  0.0000000000000D+00  0.0000000000000D+00
356  3.5500000000000D+00  0.0000000000000D+00  0.0000000000000D+00
357  3.5600000000000D+00  0.0000000000000D+00  0.0000000000000D+00
358  3.5700000000000D+00  0.0000000000000D+00  0.0000000000000D+00
359  3.5800000000000D+00  0.0000000000000D+00  0.0000000000000D+00
360  3.5900000000000D+00  0.0000000000000D+00  0.0000000000000D+00
361  3.6000000000000D+00  0.0000000000000D+00  0.0000000000000D+00
362  3.6100000000000D+00  0.0000000000000D+00  0.0000000000000D+00
363  3.6200000000000D+00  0.0000000000000D+00  0.0000000000000D+00
364  3.6300000000000D+00  0.0000000000000D+00  0.0000000000000D+00
365  3.6400000000000D+00  0.0000000000000D+00  0.0000000000000D+00
366  3.6500000000000D+00  0.0000000000000D+00  0.0000000000000D+00
367  3.6600000000000D+00  0.0000000000000D+00  0.0000000000000D+00
368  3.6700000000000D+00  0.0000000000000D+00  0.0000000000000D+00
369  3.6800000000000D+00  0.0000000000000D+00  0.0000000000000D+00
370  3.6900000000000D+00  0.0000000000000D+00  0.0000000000000D+00
371  3.7000000000000D+00  0.0000000000000D+00  0.0000000000000D+00
372  3.7100000000000D+00  0.0000000000000D+00  0.0000000000000D+00
373  3.7200000000000D+00  0.0000000000000D+00  0.0000000000000D+00
374  3.7300000000000D+00  0.0000000000000D+00  0.0000000000000D+00
375  3.7400000000000D+00  0.0000000000000D+00  0.0000000000000D+00
376  3.7500000000000D+00  0.0000000000000D+00  0.0000000000000D+00
377  3.7600000000000D+00  0.0000000000000D+00  0.0000000000000D+00
378  3.7700000000000D+00  0.0000000000000D+00  0.0000000000000D+00
379  3.7800000000000D+00  0.0000000000000D+00  0.0000000000000D+00
380  3.7900000000000D+00  0.0000000000000D+00  0.0000000000000D+00
381  3.8000000000000D+00  0.0000000000000D+00  0.0000000000000D+00
382  3.8100000000000D+00  0.0000000000000D+00  0.0000000000000D+00
383  3.8200000000000D+00  0.0000000000000D+00  0.0000000000000D+00
384  3.8300000000000D+00  0.0000000000000D+00  0.0000000000000D+00
385  3.8400000000000D+00  0.0000000000000D+00  0.0000000000000D+00
386  3.8500000000000D+00  0.0000000000000D+00  0.0000000000000D+00
387  3.8600000000000D+00  0.0000000000000D+00  0.0000000000000D+00
388  3.8700000000000D+00  0.0000000000000D+00  0.0000000000000D+00
389  3.8800000000000D+00  0.0000000000000D+00  0.0000000000000D+00
390  3.8900000000000D+00  0.0000000000000D+00  0.0000000000000D+00
391  3.9000000000000D+00  0.0000000000000D+00  0.0000000000000D+00
392  3.9100000000000D+00  0.0000000000000D+00  0.0000000000000D+00
393  3.9200000000000D+00  0.0000000000000D+00  0.0000000000000D+00
394  3.9300000000000D+00  0.0000000000000D+00  0.0000000000000D+00
395  3.9400000000000D+00  0.0000000000000D+00  0.0000000000000D+00
396  3.9500000000000D+00  0.0000000000000D+00  0.0000000000000D+00
397  3.9600000000000D+00  0.0000000000000D+00  0.0000000000000D+00
398  3.9700000000000D+00  0.0000000000000D+00  0.0000000000000D+00
399  3.9800000000000D+00  0.0000000000000D+00  0.0000000000000D+00
400  3.9900000000000D+00  0.0000000000000D+00  0.0000000000000D+00
1                        -9.3097315676718D+00 -1.1010569226481D+00
1  0.0000000000000D+00 -2.8715635488896D-07  1.2151697523222D-07
2  1.0000000000000D-02 -2.3417813937614D-03  3.4121089441974D-03
3  2.0000000000000D-02 -9.1899299147297D-03  1.3561125253459D-02
4  3.0000000000000D-02 -2.0018999754898D-02  3.0187771014391D-02
5  4.0000000000000D-02 -3.3973533829873D-02  5.2868683881282D-02
6  5.0000000000000D-02 -4.9897851731304D-02  8.1029297535583D-02
7  6.0000000000000D-02 -6.6376489978286D-02  1.1396134069985D-01
8  7.0000000000000D-02 -8.1784075476140D-02  1.5084443947279D-01
9  8.0000000000000D-02 -9.4343125934572D-02  1.9077118623503D-01
10  9.0000000000000D-02 -1.0218802730771D-01  2.3277493512232D-01
11  1.0000000000000D-01 -1.0343324516330D-01  2.7585950204645D-01
12  1.1000000000000D-01 -9.6243689907656D-02  3.1902988883916D-01
13  1.2000000000000D-01 -7.8905079020862D-02  3.6132311800224D-01
14  1.3000000000000D-01 -4.9892125222900D-02  4.0183825775414D-01
15  1.4000000000000D-01 -7.9324283383477D-03  4.3976473680888D-01
16  1.5000000000000D-01  4.7935940695119D-02  4.7440809409104D-01
17  1.6000000000000D-01  1.1831500573500D-01  5.0521237912883D-01
18  1.7000000000000D-01  2.0340721970256D-01  5.3177851221529D-01
19  1.8000000000000D-01  3.0298691415710D-01  5.5387802697788D-01
20  1.9000000000000D-01  4.1638389935355D-01  5.7146174856355D-01
21  2.0000000000000D-01  5.4247990669678D-01  5.8466310455758D-01
22  2.1000000000000D-01  6.7971820042581D-01  5.9379591895419D-01
23  2.2000000000000D-01  8.2612630878778D-01  5.9934669765816D-01
24  2.3000000000000D-01  9.7935144755863D-01  6.0196157264777D-01
25  2.4000000000000D-01  1.1367078412516D+00  6.0242822657253D-01
26  2.5000000000000D-01  1.2952348001759D+00  6.0165326580681D-01
27  2.6000000000000D-01  1.4517640945759D+00  6.0063564366808D-01
28  2.7000000000000D-01  1.6029948894525D+00  6.0043685282532D-01
29  2.8000000000000D-01  1.7455742733390D+00  6.0214870350439D-01
30  2.9000000000000D-01  1.8761812379124D+00  6.0685957913594D-01
31  3.0000000000000D-01  1.9916118480470D+00  6.1562011140313D-01
32  3.1000000000000D-01  2.0888632872379D+00  6.2940924074228D-01
33  3.2000000000000D-01  2.1652144730063D+00  6.4910162547238D-01
34  3.3000000000000D-01  2.2183010108672D+00  6.7543733287817D-01
35  3.4000000000000D-01  2.2461823918497D+00  7.0899468950270D-01
36  3.5000000000000D-01  2.2473995337693D+00  7.5016708711109D-01
37  3.6000000000000D-01  2.2210210152099D+00  7.9914443745092D-01
38  3.7000000000000D-01  2.1666766466684D+00  8.5589984588496D-01
39  3.8000000000000D-01  2.0845773574748D+00  9.2018193457450D-01
40  3.9000000000000D-01  1.9755207407113D+00  9.9151309398771D-01
41  4.0000000000000D-01  1.8408819813741D+00  1.0691937812986D+00
42  4.1000000000000D-01  1.6825902849095D+00  1.1523128201297D+00
43  4.2000000000000D-01  1.5030913131133D+00  1.2397634926456D+00