Ta    ONCVPSP  r_core=  2.57  1.86  2.07
73.0000     11.0000      150909    zatom,zion,pspd
8   -1013   2     4   600     0    pspcod,pspxc,lmax,lloc,mmax,r2well
5.99000000  0.70000000  0.00000000    rchrg fchrg qchrg
2     2     2     0     0    nproj
1                 extension_switch
0                         5.3106775584189D+00  7.0779914556259D-01
1  0.0000000000000D+00  3.8544167857424D-13 -6.1667337902804D-13
2  1.0000000000000D-02  2.3815750320014D-02 -2.8934332009666D-02
3  2.0000000000000D-02  4.7600666987028D-02 -5.7806752116459D-02
4  3.0000000000000D-02  7.1323985668687D-02 -8.6555482606186D-02
5  4.0000000000000D-02  9.4955080554575D-02 -1.1511901391840D-01
6  5.0000000000000D-02  1.1846353331867D-01 -1.4343623816406D-01
7  6.0000000000000D-02  1.4181920172332D-01 -1.7144658197161D-01
8  7.0000000000000D-02  1.6499228774471D-01 -1.9909013843688D-01
9  8.0000000000000D-02  1.8795340509943D-01 -2.2630779795148D-01
10  9.0000000000000D-02  2.1067364605129D-01 -2.5304137768362D-01
11  1.0000000000000D-01  2.3312464737694D-01 -2.7923374948438D-01
12  1.1000000000000D-01  2.5527865536814D-01 -3.0482896599146D-01
13  1.2000000000000D-01  2.7710858974823D-01 -3.2977238470160D-01
14  1.3000000000000D-01  2.9858810637916D-01 -3.5401078978147D-01
15  1.4000000000000D-01  3.1969165863537D-01 -3.7749251138630D-01
16  1.5000000000000D-01  3.4039455731967D-01 -4.0016754225423D-01
17  1.6000000000000D-01  3.6067302899611D-01 -4.2198765134366D-01
18  1.7000000000000D-01  3.8050427261410D-01 -4.4290649428031D-01
19  1.8000000000000D-01  3.9986651429776D-01 -4.6287972038005D-01
20  1.9000000000000D-01  4.1873906017433D-01 -4.8186507601370D-01
21  2.0000000000000D-01  4.3710234711519D-01 -4.9982250407964D-01
22  2.1000000000000D-01  4.5493799126346D-01 -5.1671423935118D-01
23  2.2000000000000D-01  4.7222883422234D-01 -5.3250489946590D-01
24  2.3000000000000D-01  4.8895898677904D-01 -5.4716157132613D-01
25  2.4000000000000D-01  5.0511387004012D-01 -5.6065389268130D-01
26  2.5000000000000D-01  5.2068025385523D-01 -5.7295412866547D-01
27  2.6000000000000D-01  5.3564629240806D-01 -5.8403724306668D-01
28  2.7000000000000D-01  5.5000155685496D-01 -5.9388096410815D-01
29  2.8000000000000D-01  5.6373706489449D-01 -6.0246584452651D-01
30  2.9000000000000D-01  5.7684530715375D-01 -6.0977531573695D-01
31  3.0000000000000D-01  5.8932027028063D-01 -6.1579573588185D-01
32  3.1000000000000D-01  6.0115745663527D-01 -6.2051643156613D-01
33  3.2000000000000D-01  6.1235390047766D-01 -6.2392973309059D-01
34  3.3000000000000D-01  6.2290818055397D-01 -6.2603100300338D-01
35  3.4000000000000D-01  6.3282042898869D-01 -6.2681865779951D-01
36  3.5000000000000D-01  6.4209233639633D-01 -6.2629418260902D-01
37  3.6000000000000D-01  6.5072715313238D-01 -6.2446213872619D-01
38  3.7000000000000D-01  6.5872968661046D-01 -6.2133016384510D-01
39  3.8000000000000D-01  6.6610629462030D-01 -6.1690896488037D-01
40  3.9000000000000D-01  6.7286487458917D-01 -6.1121230326686D-01
41  4.0000000000000D-01  6.7901484873817D-01 -6.0425697264779D-01
42  4.1000000000000D-01  6.8456714509431D-01 -5.9606276887763D-01
43  4.2000000000000D-01  6.8953417432875D-01 -5.8665245228358D-01
44  4.3000000000000D-01  6.9392980240247D-01 -5.7605170214851D-01
45  4.4000000000000D-01  6.9776931901094D-01 -5.6428906339738D-01
46  4.5000000000000D-01  7.0106940183134D-01 -5.5139588548990D-01
47  4.6000000000000D-01  7.0384807658732D-01 -5.3740625354325D-01
48  4.7000000000000D-01  7.0612467295872D-01 -5.2235691173104D-01
49  4.8000000000000D-01  7.0791977637647D-01 -5.0628717902666D-01
50  4.9000000000000D-01  7.0925517575561D-01 -4.8923885738361D-01
51  5.0000000000000D-01  7.1015380723325D-01 -4.7125613246820D-01
52  5.1000000000000D-01  7.1063969399139D-01 -4.5238546708531D-01
53  5.2000000000000D-01  7.1073788225889D-01 -4.3267548746227D-01
54  5.3000000000000D-01  7.1047437360054D-01 -4.1217686258087D-01
55  5.4000000000000D-01  7.0987605361573D-01 -3.9094217677361D-01
56  5.5000000000000D-01  7.0897061718317D-01 -3.6902579582467D-01
57  5.6000000000000D-01  7.0778649040258D-01 -3.4648372684258D-01
58  5.7000000000000D-01  7.0635274939839D-01 -3.2337347219628D-01
59  5.8000000000000D-01  7.0469903616471D-01 -2.9975387783164D-01
60  5.9000000000000D-01  7.0285547164452D-01 -2.7568497631048D-01
61  6.0000000000000D-01  7.0085256625002D-01 -2.5122782493832D-01
62  6.1000000000000D-01  6.9872112804434D-01 -2.2644433937123D-01
63  6.2000000000000D-01  6.9649216881753D-01 -2.0139712311493D-01
64  6.3000000000000D-01  6.9419680830288D-01 -1.7614929335227D-01
65  6.4000000000000D-01  6.9186617679104D-01 -1.5076430355608D-01
66  6.5000000000000D-01  6.8953131641133D-01 -1.2530576336538D-01
67  6.6000000000000D-01  6.8722308136023D-01 -9.9837256221967D-02
68  6.7000000000000D-01  6.8497203736697D-01 -7.4422155282277D-02
69  6.8000000000000D-01  6.8280836069604D-01 -4.9123438136728D-02
70  6.9000000000000D-01  6.8076173699398D-01 -2.4003500883108D-02
71  7.0000000000000D-01  6.7886126029646D-01  8.7602788516494D-04
72  7.1000000000000D-01  6.7713533251720D-01  2.5454472603692D-02
73  7.2000000000000D-01  6.7561156374686D-01  4.9672295191864D-02
74  7.3000000000000D-01  6.7431667369363D-01  7.3471277847218D-02
75  7.4000000000000D-01  6.7327639460150D-01  9.6794703582283D-02
76  7.5000000000000D-01  6.7251537598371D-01  1.1958753390275D-01
77  7.6000000000000D-01  6.7205709151044D-01  1.4179658302373D-01
78  7.7000000000000D-01  6.7192374838937D-01  1.6337068802092D-01
79  7.8000000000000D-01  6.7213619957621D-01  1.8426087431596D-01
80  7.9000000000000D-01  6.7271385914973D-01  2.0442051589975D-01
81  8.0000000000000D-01  6.7367462118162D-01  2.2380548970454D-01
82  8.1000000000000D-01  6.7503478242602D-01  2.4237432354482D-01
83  8.2000000000000D-01  6.7680896914702D-01  2.6008833705905D-01
84  8.3000000000000D-01  6.7901006839399D-01  2.7691177509755D-01
85  8.4000000000000D-01  6.8164916402552D-01  2.9281193301932D-01
86  8.5000000000000D-01  6.8473547777162D-01  3.0775927337830D-01
87  8.6000000000000D-01  6.8827631561190D-01  3.2172753350132D-01
88  8.7000000000000D-01  6.9227701973389D-01  3.3469382348343D-01
89  8.8000000000000D-01  6.9674092632108D-01  3.4663871415131D-01
90  8.9000000000000D-01  7.0166932940419D-01  3.5754631457389D-01
91  9.0000000000000D-01  7.0706145099201D-01  3.6740433872915D-01
92  9.1000000000000D-01  7.1291441767987D-01  3.7620416096790D-01
93  9.2000000000000D-01  7.1922324391424D-01  3.8394085994932D-01
94  9.3000000000000D-01  7.2598082207166D-01  3.9061325075903D-01
95  9.4000000000000D-01  7.3317791948831D-01  3.9622390495777D-01
96  9.5000000000000D-01  7.4080318255466D-01  4.0077915834803D-01
97  9.6000000000000D-01  7.4884314796558D-01  4.0428910628684D-01
98  9.7000000000000D-01  7.5728226119305D-01  4.0676758641444D-01
99  9.8000000000000D-01  7.6610290222320D-01  4.0823214871244D-01
100  9.9000000000000D-01  7.7528541857427D-01  4.0870401284886D-01
101  1.0000000000000D+00  7.8480816558653D-01  4.0820801281236D-01
102  1.0100000000000D+00  7.9464755394785D-01  4.0677252888552D-01
103  1.0200000000000D+00  8.0477810439367D-01  4.0442940705046D-01
104  1.0300000000000D+00  8.1517250949166D-01  4.0121386596986D-01
105  1.0400000000000D+00  8.2580170239524D-01  3.9716439173182D-01
106  1.0500000000000D+00  8.3663493242320D-01  3.9232262059430D-01
107  1.0600000000000D+00  8.4763984729550D-01  3.8673321001163D-01
108  1.0700000000000D+00  8.5878258182827D-01  3.8044369827322D-01
109  1.0800000000000D+00  8.7002785286709D-01  3.7350435312607D-01
110  1.0900000000000D+00  8.8133906020809D-01  3.6596800980404D-01
111  1.1000000000000D+00  8.9267839323430D-01  3.5788989892548D-01
112  1.1100000000000D+00  9.0400694296770D-01  3.4932746476752D-01
113  1.1200000000000D+00  9.1528481921581D-01  3.4034017446289D-01
114  1.1300000000000D+00  9.2647127246753D-01  3.3098931870729D-01
115  1.1400000000000D+00  9.3752482017030D-01  3.2133780460424D-01
116  1.1500000000000D+00  9.4840337700030D-01  3.1144994130982D-01
117  1.1600000000000D+00  9.5906438871897D-01  3.0139121917146D-01
118  1.1700000000000D+00  9.6946496918977D-01  2.9122808308880D-01
119  1.1800000000000D+00  9.7956204011117D-01  2.8102770085510D-01
120  1.1900000000000D+00  9.8931247300650D-01  2.7085772726424D-01
121  1.2000000000000D+00  9.9867323300139D-01  2.6078606478599D-01
122  1.2100000000000D+00  1.0076015239007D+00  2.5088062164334D-01
123  1.2200000000000D+00  1.0160549340705D+00  2.4120906813812D-01
124  1.2300000000000D+00  1.0239915826212D+00  2.3183859208464D-01
125  1.2400000000000D+00  1.0313702653809D+00  2.2283565422633D-01
126  1.2500000000000D+00  1.0381506001416D+00  2.1426574451883D-01
127  1.2600000000000D+00  1.0442931706597D+00  2.0619314016339D-01
128  1.2700000000000D+00  1.0497596688903D+00  1.9868066628259D-01
129  1.2800000000000D+00  1.0545130349334D+00  1.9178946012406D-01
130  1.2900000000000D+00  1.0585175941801D+00  1.8557873966969D-01
131  1.3000000000000D+00  1.0617391911403D+00  1.8010557753136D-01
132  1.3100000000000D+00  1.0641453194507D+00  1.7542468098441D-01
133  1.3200000000000D+00  1.0657052475699D+00  1.7158817898177D-01
134  1.3300000000000D+00  1.0663901396653D+00  1.6864541698698D-01
135  1.3400000000000D+00  1.0661731712330D+00  1.6664276040384D-01
136  1.3500000000000D+00  1.0650296389851D+00  1.6562340739360D-01
137  1.3600000000000D+00  1.0629370645595D+00  1.6562721183051D-01
138  1.3700000000000D+00  1.0598752916535D+00  1.6669051706725D-01
139  1.3800000000000D+00  1.0558265761466D+00  1.6884600124521D-01
140  1.3900000000000D+00  1.0507756688614D+00  1.7212253473557D-01
141  1.4000000000000D+00  1.0447098906066D+00  1.7654505030730D-01
142  1.4100000000000D+00  1.0376191991442D+00  1.8213442662389D-01
143  1.4200000000000D+00  1.0294962478327D+00  1.8890738547043D-01
144  1.4300000000000D+00  1.0203364356167D+00  1.9687640326752D-01
145  1.4400000000000D+00  1.0101379481580D+00  2.0604963719619D-01
146  1.4500000000000D+00  9.9890178990023D-01  2.1643086627574D-01
147  1.4600000000000D+00  9.8663180683598D-01  2.2801944777019D-01
148  1.4700000000000D+00  9.7333469992944D-01  2.4081028897751D-01
149  1.4800000000000D+00  9.5902002895782D-01  2.5479383479122D-01
150  1.4900000000000D+00  9.4370020681681D-01  2.6995607092817D-01
151  1.5000000000000D+00  9.2739048416597D-01  2.8627854301435D-01
152  1.5100000000000D+00  9.1010892443661D-01  3.0373839146344D-01
153  1.5200000000000D+00  8.9187636927196D-01  3.2230840200332D-01
154  1.5300000000000D+00  8.7271639436374D-01  3.4195707188629D-01
155  1.5400000000000D+00  8.5265525595949D-01  3.6264869128478D-01
156  1.5500000000000D+00  8.3172182796378D-01  3.8434343997887D-01
157  1.5600000000000D+00  8.0994753005023D-01  4.0699749859175D-01
158  1.5700000000000D+00  7.8736624677110D-01  4.3056317436947D-01
159  1.5800000000000D+00  7.6401423810777D-01  4.5498904071676D-01
160  1.5900000000000D+00  7.3993004159451D-01  4.8022009023417D-01
161  1.6000000000000D+00  7.1515436643838D-01  5.0619790050444D-01
162  1.6100000000000D+00  6.8972997992541D-01  5.3286081210352D-01
163  1.6200000000000D+00  6.6370158651229D-01  5.6014411812419D-01
164  1.6300000000000D+00  6.3711570003721D-01  5.8798026444481D-01
165  1.6400000000000D+00  6.1002050943559D-01  6.1629906005264D-01
166  1.6500000000000D+00  5.8246573851317D-01  6.4502789645562D-01
167  1.6600000000000D+00  5.5450250016508D-01  6.7409197548515D-01
168  1.6700000000000D+00  5.2618314568060D-01  7.0341454438016D-01
169  1.6800000000000D+00  4.9756110954503D-01  7.3291713741468D-01
170  1.6900000000000D+00  4.6869075043079D-01  7.6251982287595D-01
171  1.7000000000000D+00  4.3962718883111D-01  7.9214145458217D-01
172  1.7100000000000D+00  4.1042614204678D-01  8.2169992672327D-01
173  1.7200000000000D+00  3.8114375703730D-01  8.5111243111393D-01
174  1.7300000000000D+00  3.5183644183444D-01  8.8029571567093D-01
175  1.7400000000000D+00  3.2256069609645D-01  9.0916634309089D-01
176  1.7500000000000D+00  2.9337294146685D-01  9.3764094860518D-01
177  1.7600000000000D+00  2.6432935237917D-01  9.6563649568441D-01
178  1.7700000000000D+00  2.3548568793021D-01  9.9307052864268D-01
179  1.7800000000000D+00  2.0689712550430D-01  1.0198614209546D+00
180  1.7900000000000D+00  1.7861809674509D-01  1.0459286182761D+00
181  1.8000000000000D+00  1.5070212650315D-01  1.0711928741875D+00
182  1.8100000000000D+00  1.2320167559317D-01  1.0955764815559D+00
183  1.8200000000000D+00  9.6167987592456D-02  1.1190034908344D+00
184  1.8300000000000D+00  6.9650940201063D-02  1.1413999139957D+00
185  1.8400000000000D+00  4.3698904062683D-02  1.1626939717506D+00
186  1.8500000000000D+00  1.8358605914703D-02  1.1828162308374D+00
187  1.8600000000000D+00 -6.3250130907433D-03  1.2016996441170D+00
188  1.8700000000000D+00 -3.0308898547967D-02  1.2192800613619D+00
189  1.8800000000000D+00 -5.3551985926671D-02  1.2354965639687D+00
190  1.8900000000000D+00 -7.6015308390362D-02  1.2502918398289D+00
191  1.9000000000000D+00 -9.7662091560385D-02  1.2636126578989D+00
192  1.9100000000000D+00 -1.1845785461877D-01  1.2754101215526D+00
193  1.9200000000000D+00 -1.3837051645069D-01  1.2856397432160D+00
194  1.9300000000000D+00 -1.5737049149811D-01  1.2942615680034D+00
195  1.9400000000000D+00 -1.7543076892608D-01  1.3012403674538D+00
196  1.9500000000000D+00 -1.9252699138795D-01  1.3065457369348D+00
197  1.9600000000000D+00 -2.0863752192392D-01  1.3101522142540D+00
198  1.9700000000000D+00 -2.2374350371574D-01  1.3120393717880D+00
199  1.9800000000000D+00 -2.3782891060173D-01  1.3121918945426D+00
200  1.9900000000000D+00 -2.5088058888297D-01  1.3105996426330D+00
201  2.0000000000000D+00 -2.6288829026350D-01  1.3072576979223D+00
202  2.0100000000000D+00 -2.7384469533852D-01  1.3021663937991D+00
203  2.0200000000000D+00 -2.8374542859555D-01  1.2953313298124D+00
204  2.0300000000000D+00 -2.9258906351832D-01  1.2867633686921D+00
205  2.0400000000000D+00 -3.0037711913831D-01  1.2764786181401D+00
206  2.0500000000000D+00 -3.0711404713676D-01  1.2644983958285D+00
207  2.0600000000000D+00 -3.1280720977940D-01  1.2508491781150D+00
208  2.0700000000000D+00 -3.1746684929284D-01  1.2355625335649D+00
209  2.0800000000000D+00 -3.2110604762390D-01  1.2186750394304D+00
210  2.0900000000000D+00 -3.2374067814375D-01  1.2002281838516D+00
211  2.1000000000000D+00 -3.2538934823316D-01  1.1802682519229D+00
212  2.1100000000000D+00 -3.2607333353500D-01  1.1588461970244D+00
213  2.1200000000000D+00 -3.2581650432887D-01  1.1360174982317D+00
214  2.1300000000000D+00 -3.2464524324990D-01  1.1118420024549D+00
215  2.1400000000000D+00 -3.2258835598724D-01  1.0863837541943D+00
216  2.1500000000000D+00 -3.1967697404775D-01  1.0597108113246D+00
217  2.1600000000000D+00 -3.1594445042679D-01  1.0318950484012D+00
218  2.1700000000000D+00 -3.1142624887338D-01  1.0030119487118D+00
219  2.1800000000000D+00 -3.0615982599313D-01  9.7314038376311D-01
220  2.1900000000000D+00 -3.0018450785427D-01  9.4236238313892D-01
221  2.2000000000000D+00 -2.9354136059047D-01  9.1076289386172D-01
222  2.2100000000000D+00 -2.8627305551967D-01  8.7842953018372D-01
223  2.2200000000000D+00 -2.7842372985969D-01  8.4545231571808D-01
224  2.2300000000000D+00 -2.7003884236721D-01  8.1192341675163D-01
225  2.2400000000000D+00 -2.6116502529820D-01  7.7793686920210D-01
226  2.2500000000000D+00 -2.5184993280820D-01  7.4358829944694D-01
227  2.2600000000000D+00 -2.4214208595908D-01  7.0897463933616D-01
228  2.2700000000000D+00 -2.3209071538882D-01  6.7419383725019D-01
229  2.2800000000000D+00 -2.2174560166348D-01  6.3934456526212D-01
230  2.2900000000000D+00 -2.1115691394943D-01  6.0452592353754D-01
231  2.3000000000000D+00 -2.0037504761364D-01  5.6983714304331D-01
232  2.3100000000000D+00 -1.8945046106351D-01  5.3537728714898D-01
233  2.3200000000000D+00 -1.7843351244087D-01  5.0124495319547D-01
234  2.3300000000000D+00 -1.6737429658377D-01  4.6753797477392D-01
235  2.3400000000000D+00 -1.5632248294886D-01  4.3435312596387D-01
236  2.3500000000000D+00 -1.4532715466616D-01  4.0178582781957D-01
237  2.3600000000000D+00 -1.3443664944832D-01  3.6992985840253D-01
238  2.3700000000000D+00 -1.2369840300924D-01  3.3887706752969D-01
239  2.3800000000000D+00 -1.1315879481072D-01  3.0871709590579D-01
240  2.3900000000000D+00 -1.0286299739181D-01  2.7953710088441D-01
241  2.4000000000000D+00 -9.2854829520152D-02  2.5142148928219D-01
242  2.4100000000000D+00 -8.3176612791880D-02  2.2445165657776D-01
243  2.4200000000000D+00 -7.3869033605072D-02  1.9870573593089D-01
244  2.4300000000000D+00 -6.4971010011371D-02  1.7425835613641D-01
245  2.4400000000000D+00 -5.6519563044246D-02  1.5118040779827D-01
246  2.4500000000000D+00 -4.8549695191192D-02  1.2953882247677D-01
247  2.4600000000000D+00 -4.1094274539523D-02  1.0939636218897D-01
248  2.4700000000000D+00 -3.4183924331826D-02  9.0811418795665D-02
249  2.4800000000000D+00 -2.7847371715257D-02  7.3839014478726D-02
250  2.4900000000000D+00 -2.2115268414058D-02  5.8540933240170D-02
251  2.5000000000000D+00 -1.7000022974179D-02  4.4932724136984D-02
252  2.5100000000000D+00 -1.2518074361154D-02  3.3042397280988D-02
253  2.5200000000000D+00 -8.6729329936452D-03  2.2865964418566D-02
254  2.5300000000000D+00 -5.5356333468284D-03  1.4578557097737D-02
255  2.5400000000000D+00 -3.1390140406120D-03  8.2570463757844D-03
256  2.5500000000000D+00 -1.5018979373745D-03  3.9432666624414D-03
257  2.5600000000000D+00 -4.9928243188090D-04  1.3042641411287D-03
258  2.5700000000000D+00  1.5120612796602D-06 -1.1831327294632D-05
259  2.5800000000000D+00  1.5763227308736D-04 -4.1959595975903D-04
260  2.5900000000000D+00  1.1541024048074D-04 -3.0569657764529D-04
261  2.6000000000000D+00  5.5221089564319D-06 -1.4601903702523D-05
262  2.6100000000000D+00 -4.5228425253638D-05  1.1964845582327D-04
263  2.6200000000000D+00 -4.3994668525227D-05  1.1630883605127D-04
264  2.6300000000000D+00 -7.5546101655245D-06  1.9963159775114D-05
265  2.6400000000000D+00  7.2006950984082D-06 -1.9115284838895D-05
266  2.6500000000000D+00  8.6495374764696D-06 -2.2953475851984D-05
267  2.6600000000000D+00  2.7719985244504D-06 -7.3541307064562D-06
268  2.6700000000000D+00  1.6214487722450D-08 -2.7509364991055D-08
269  2.6800000000000D+00  2.3791230417362D-08 -4.0364003620744D-08
270  2.6900000000000D+00  1.1236704865643D-08 -1.9064100003464D-08
271  2.7000000000000D+00  0.0000000000000D+00  0.0000000000000D+00
272  2.7100000000000D+00  0.0000000000000D+00  0.0000000000000D+00
273  2.7200000000000D+00  0.0000000000000D+00  0.0000000000000D+00
274  2.7300000000000D+00  0.0000000000000D+00  0.0000000000000D+00
275  2.7400000000000D+00  0.0000000000000D+00  0.0000000000000D+00
276  2.7500000000000D+00  0.0000000000000D+00  0.0000000000000D+00
277  2.7600000000000D+00  0.0000000000000D+00  0.0000000000000D+00
278  2.7700000000000D+00  0.0000000000000D+00  0.0000000000000D+00
279  2.7800000000000D+00  0.0000000000000D+00  0.0000000000000D+00
280  2.7900000000000D+00  0.0000000000000D+00  0.0000000000000D+00
281  2.8000000000000D+00  0.0000000000000D+00  0.0000000000000D+00
282  2.8100000000000D+00  0.0000000000000D+00  0.0000000000000D+00
283  2.8200000000000D+00  0.0000000000000D+00  0.0000000000000D+00
284  2.8300000000000D+00  0.0000000000000D+00  0.0000000000000D+00
285  2.8400000000000D+00  0.0000000000000D+00  0.0000000000000D+00
286  2.8500000000000D+00  0.0000000000000D+00  0.0000000000000D+00
287  2.8600000000000D+00  0.0000000000000D+00  0.0000000000000D+00
288  2.8700000000000D+00  0.0000000000000D+00  0.0000000000000D+00
289  2.8800000000000D+00  0.0000000000000D+00  0.0000000000000D+00
290  2.8900000000000D+00  0.0000000000000D+00  0.0000000000000D+00
291  2.9000000000000D+00  0.0000000000000D+00  0.0000000000000D+00
292  2.9100000000000D+00  0.0000000000000D+00  0.0000000000000D+00
293  2.9200000000000D+00  0.0000000000000D+00  0.0000000000000D+00
294  2.9300000000000D+00  0.0000000000000D+00  0.0000000000000D+00
295  2.9400000000000D+00  0.0000000000000D+00  0.0000000000000D+00
296  2.9500000000000D+00  0.0000000000000D+00  0.0000000000000D+00
297  2.9600000000000D+00  0.0000000000000D+00  0.0000000000000D+00
298  2.9700000000000D+00  0.0000000000000D+00  0.0000000000000D+00
299  2.9800000000000D+00  0.0000000000000D+00  0.0000000000000D+00
300  2.9900000000000D+00  0.0000000000000D+00  0.0000000000000D+00
301  3.0000000000000D+00  0.0000000000000D+00  0.0000000000000D+00
302  3.0100000000000D+00  0.0000000000000D+00  0.0000000000000D+00
303  3.0200000000000D+00  0.0000000000000D+00  0.0000000000000D+00
304  3.0300000000000D+00  0.0000000000000D+00  0.0000000000000D+00
305  3.0400000000000D+00  0.0000000000000D+00  0.0000000000000D+00
306  3.0500000000000D+00  0.0000000000000D+00  0.0000000000000D+00
307  3.0600000000000D+00  0.0000000000000D+00  0.0000000000000D+00
308  3.0700000000000D+00  0.0000000000000D+00  0.0000000000000D+00
309  3.0800000000000D+00  0.0000000000000D+00  0.0000000000000D+00
310  3.0900000000000D+00  0.0000000000000D+00  0.0000000000000D+00
311  3.1000000000000D+00  0.0000000000000D+00  0.0000000000000D+00
312  3.1100000000000D+00  0.0000000000000D+00  0.0000000000000D+00
313  3.1200000000000D+00  0.0000000000000D+00  0.0000000000000D+00
314  3.1300000000000D+00  0.0000000000000D+00  0.0000000000000D+00
315  3.1400000000000D+00  0.0000000000000D+00  0.0000000000000D+00
316  3.1500000000000D+00  0.0000000000000D+00  0.0000000000000D+00
317  3.1600000000000D+00  0.0000000000000D+00  0.0000000000000D+00
318  3.1700000000000D+00  0.0000000000000D+00  0.0000000000000D+00
319  3.1800000000000D+00  0.0000000000000D+00  0.0000000000000D+00
320  3.1900000000000D+00  0.0000000000000D+00  0.0000000000000D+00
321  3.2000000000000D+00  0.0000000000000D+00  0.0000000000000D+00
322  3.2100000000000D+00  0.0000000000000D+00  0.0000000000000D+00
323  3.2200000000000D+00  0.0000000000000D+00  0.0000000000000D+00
324  3.2300000000000D+00  0.0000000000000D+00  0.0000000000000D+00
325  3.2400000000000D+00  0.0000000000000D+00  0.0000000000000D+00
326  3.2500000000000D+00  0.0000000000000D+00  0.0000000000000D+00
327  3.2600000000000D+00  0.0000000000000D+00  0.0000000000000D+00
328  3.2700000000000D+00  0.0000000000000D+00  0.0000000000000D+00
329  3.2800000000000D+00  0.0000000000000D+00  0.0000000000000D+00
330  3.2900000000000D+00  0.0000000000000D+00  0.0000000000000D+00
331  3.3000000000000D+00  0.0000000000000D+00  0.0000000000000D+00
332  3.3100000000000D+00  0.0000000000000D+00  0.0000000000000D+00
333  3.3200000000000D+00  0.0000000000000D+00  0.0000000000000D+00
334  3.3300000000000D+00  0.0000000000000D+00  0.0000000000000D+00
335  3.3400000000000D+00  0.0000000000000D+00  0.0000000000000D+00
336  3.3500000000000D+00  0.0000000000000D+00  0.0000000000000D+00
337  3.3600000000000D+00  0.0000000000000D+00  0.0000000000000D+00
338  3.3700000000000D+00  0.0000000000000D+00  0.0000000000000D+00
339  3.3800000000000D+00  0.0000000000000D+00  0.0000000000000D+00
340  3.3900000000000D+00  0.0000000000000D+00  0.0000000000000D+00
341  3.4000000000000D+00  0.0000000000000D+00  0.0000000000000D+00
342  3.4100000000000D+00  0.0000000000000D+00  0.0000000000000D+00
343  3.4200000000000D+00  0.0000000000000D+00  0.0000000000000D+00
344  3.4300000000000D+00  0.0000000000000D+00  0.0000000000000D+00
345  3.4400000000000D+00  0.0000000000000D+00  0.0000000000000D+00
346  3.4500000000000D+00  0.0000000000000D+00  0.0000000000000D+00
347  3.4600000000000D+00  0.0000000000000D+00  0.0000000000000D+00
348  3.4700000000000D+00  0.0000000000000D+00  0.0000000000000D+00
349  3.4800000000000D+00  0.0000000000000D+00  0.0000000000000D+00
350  3.4900000000000D+00  0.0000000000000D+00  0.0000000000000D+00
351  3.5000000000000D+00  0.0000000000000D+00  0.0000000000000D+00
352  3.5100000000000D+00  0.0000000000000D+00  0.0000000000000D+00
353  3.5200000000000D+00  0.0000000000000D+00  0.0000000000000D+00
354  3.5300000000000D+00  0.0000000000000D+00  0.0000000000000D+00
355  3.5400000000000D+00  0.0000000000000D+00  0.0000000000000D+00
356  3.5500000000000D+00  0.0000000000000D+00  0.0000000000000D+00
357  3.5600000000000D+00  0.0000000000000D+00  0.0000000000000D+00
358  3.5700000000000D+00  0.0000000000000D+00  0.0000000000000D+00
359  3.5800000000000D+00  0.0000000000000D+00  0.0000000000000D+00
360  3.5900000000000D+00  0.0000000000000D+00  0.0000000000000D+00
361  3.6000000000000D+00  0.0000000000000D+00  0.0000000000000D+00
362  3.6100000000000D+00  0.0000000000000D+00  0.0000000000000D+00
363  3.6200000000000D+00  0.0000000000000D+00  0.0000000000000D+00
364  3.6300000000000D+00  0.0000000000000D+00  0.0000000000000D+00
365  3.6400000000000D+00  0.0000000000000D+00  0.0000000000000D+00
366  3.6500000000000D+00  0.0000000000000D+00  0.0000000000000D+00
367  3.6600000000000D+00  0.0000000000000D+00  0.0000000000000D+00
368  3.6700000000000D+00  0.0000000000000D+00  0.0000000000000D+00
369  3.6800000000000D+00  0.0000000000000D+00  0.0000000000000D+00
370  3.6900000000000D+00  0.0000000000000D+00  0.0000000000000D+00
371  3.7000000000000D+00  0.0000000000000D+00  0.0000000000000D+00
372  3.7100000000000D+00  0.0000000000000D+00  0.0000000000000D+00
373  3.7200000000000D+00  0.0000000000000D+00  0.0000000000000D+00
374  3.7300000000000D+00  0.0000000000000D+00  0.0000000000000D+00
375  3.7400000000000D+00  0.0000000000000D+00  0.0000000000000D+00
376  3.7500000000000D+00  0.0000000000000D+00  0.0000000000000D+00
377  3.7600000000000D+00  0.0000000000000D+00  0.0000000000000D+00
378  3.7700000000000D+00  0.0000000000000D+00  0.0000000000000D+00
379  3.7800000000000D+00  0.0000000000000D+00  0.0000000000000D+00
380  3.7900000000000D+00  0.0000000000000D+00  0.0000000000000D+00
381  3.8000000000000D+00  0.0000000000000D+00  0.0000000000000D+00
382  3.8100000000000D+00  0.0000000000000D+00  0.0000000000000D+00
383  3.8200000000000D+00  0.0000000000000D+00  0.0000000000000D+00
384  3.8300000000000D+00  0.0000000000000D+00  0.0000000000000D+00
385  3.8400000000000D+00  0.0000000000000D+00  0.0000000000000D+00
386  3.8500000000000D+00  0.0000000000000D+00  0.0000000000000D+00
387  3.8600000000000D+00  0.0000000000000D+00  0.0000000000000D+00
388  3.8700000000000D+00  0.0000000000000D+00  0.0000000000000D+00
389  3.8800000000000D+00  0.0000000000000D+00  0.0000000000000D+00
390  3.8900000000000D+00  0.0000000000000D+00  0.0000000000000D+00
391  3.9000000000000D+00  0.0000000000000D+00  0.0000000000000D+00
392  3.9100000000000D+00  0.0000000000000D+00  0.0000000000000D+00
393  3.9200000000000D+00  0.0000000000000D+00  0.0000000000000D+00
394  3.9300000000000D+00  0.0000000000000D+00  0.0000000000000D+00
395  3.9400000000000D+00  0.0000000000000D+00  0.0000000000000D+00
396  3.9500000000000D+00  0.0000000000000D+00  0.0000000000000D+00
397  3.9600000000000D+00  0.0000000000000D+00  0.0000000000000D+00
398  3.9700000000000D+00  0.0000000000000D+00  0.0000000000000D+00
399  3.9800000000000D+00  0.0000000000000D+00  0.0000000000000D+00
400  3.9900000000000D+00  0.0000000000000D+00  0.0000000000000D+00
401  4.0000000000000D+00  0.0000000000000D+00  0.0000000000000D+00
402  4.0100000000000D+00  0.0000000000000D+00  0.0000000000000D+00
403  4.0200000000000D+00  0.0000000000000D+00  0.0000000000000D+00
404  4.0300000000000D+00  0.0000000000000D+00  0.0000000000000D+00
405  4.0400000000000D+00  0.0000000000000D+00  0.0000000000000D+00
406  4.0500000000000D+00  0.0000000000000D+00  0.0000000000000D+00
407  4.0600000000000D+00  0.0000000000000D+00  0.0000000000000D+00
408  4.0700000000000D+00  0.0000000000000D+00  0.0000000000000D+00
409  4.0800000000000D+00  0.0000000000000D+00  0.0000000000000D+00
410  4.0900000000000D+00  0.0000000000000D+00  0.0000000000000D+00
411  4.1000000000000D+00  0.0000000000000D+00  0.0000000000000D+00
412  4.1100000000000D+00  0.0000000000000D+00  0.0000000000000D+00
413  4.1200000000000D+00  0.0000000000000D+00  0.0000000000000D+00
414  4.1300000000000D+00  0.0000000000000D+00  0.0000000000000D+00
415  4.1400000000000D+00  0.0000000000000D+00  0.0000000000000D+00
416  4.1500000000000D+00  0.0000000000000D+00  0.0000000000000D+00
417  4.1600000000000D+00  0.0000000000000D+00  0.0000000000000D+00
418  4.1700000000000D+00  0.0000000000000D+00  0.0000000000000D+00
419  4.1800000000000D+00  0.0000000000000D+00  0.0000000000000D+00
420  4.1900000000000D+00  0.0000000000000D+00  0.0000000000000D+00
421  4.2000000000000D+00  0.0000000000000D+00  0.0000000000000D+00
422  4.2100000000000D+00  0.0000000000000D+00  0.0000000000000D+00
423  4.2200000000000D+00  0.0000000000000D+00  0.0000000000000D+00
424  4.2300000000000D+00  0.0000000000000D+00  0.0000000000000D+00
425  4.2400000000000D+00  0.0000000000000D+00  0.0000000000000D+00
426  4.2500000000000D+00  0.0000000000000D+00  0.0000000000000D+00
427  4.2600000000000D+00  0.0000000000000D+00  0.0000000000000D+00
428  4.2700000000000D+00  0.0000000000000D+00  0.0000000000000D+00
429  4.2800000000000D+00  0.0000000000000D+00  0.0000000000000D+00
430  4.2900000000000D+00  0.0000000000000D+00  0.0000000000000D+00
431  4.3000000000000D+00  0.0000000000000D+00  0.0000000000000D+00
432  4.3100000000000D+00  0.0000000000000D+00  0.0000000000000D+00
433  4.3200000000000D+00  0.0000000000000D+00  0.0000000000000D+00
434  4.3300000000000D+00  0.0000000000000D+00  0.0000000000000D+00
435  4.3400000000000D+00  0.0000000000000D+00  0.0000000000000D+00
436  4.3500000000000D+00  0.0000000000000D+00  0.0000000000000D+00
437  4.3600000000000D+00  0.0000000000000D+00  0.0000000000000D+00
438  4.3700000000000D+00  0.0000000000000D+00  0.0000000000000D+00
439  4.3800000000000D+00  0.0000000000000D+00  0.0000000000000D+00
440  4.3900000000000D+00  0.0000000000000D+00  0.0000000000000D+00
441  4.4000000000000D+00  0.0000000000000D+00  0.0000000000000D+00
442  4.4100000000000D+00  0.0000000000000D+00  0.0000000000000D+00
443  4.4200000000000D+00  0.0000000000000D+00  0.0000000000000D+00
444  4.4300000000000D+00  0.0000000000000D+00  0.0000000000000D+00