Po    ONCVPSP  r_core=  1.40  1.51  1.40
84.0000     24.0000      161002    zatom,zion,pspd
8      11   2     4   600     0    pspcod,pspxc,lmax,lloc,mmax,r2well
5.99000000  6.00000000  0.00000000    rchrg fchrg qchrg
2     2     2     0     0    nproj
1                 extension_switch
0                         1.6547999238514D+01  2.3625245156007D+00
1  0.0000000000000D+00 -1.3261078901650D-09  3.1247509302279D-09
2  1.0000000000000D-02  8.8431595612271D-02 -2.1315198040562D-02
3  2.0000000000000D-02  1.7656986230885D-01 -4.2323145403609D-02
4  3.0000000000000D-02  2.6412335593021D-01 -6.2720187238585D-02
5  4.0000000000000D-02  3.5080437896354D-01 -8.2209807631153D-02
6  5.0000000000000D-02  4.3633079704636D-01 -1.0050606808802D-01
7  6.0000000000000D-02  5.2042778824517D-01 -1.1733689110044D-01
8  7.0000000000000D-02  6.0282950428368D-01 -1.3244714087461D-01
9  8.0000000000000D-02  6.8328062422101D-01 -1.4560145644191D-01
10  9.0000000000000D-02  7.6153778270056D-01 -1.5658679618054D-01
11  1.0000000000000D-01  8.3737085678003D-01 -1.6521465723491D-01
12  1.1000000000000D-01  9.1056409748412D-01 -1.7132293834510D-01
13  1.2000000000000D-01  9.8091709456177D-01 -1.7477742011930D-01
14  1.3000000000000D-01  1.0482455654440D+00 -1.7547284271658D-01
15  1.4000000000000D-01  1.1123819620478D+00 -1.7333356716374D-01
16  1.5000000000000D-01  1.1731758918182D+00 -1.6831381301746D-01
17  1.6000000000000D-01  1.2304943521958D+00 -1.6039747169907D-01
18  1.7000000000000D-01  1.2842217805112D+00 -1.4959750147711D-01
19  1.8000000000000D-01  1.3342599240765D+00 -1.3595491664656D-01
20  1.9000000000000D-01  1.3805275379496D+00 -1.1953738985473D-01
21  2.0000000000000D-01  1.4229599204218D+00 -1.0043749265064D-01
22  2.1000000000000D-01  1.4615082987024D+00 -7.8770605090945D-02
23  2.2000000000000D-01  1.4961390794927D+00 -5.4672530530119D-02
24  2.3000000000000D-01  1.5268329811306D+00 -2.8296856469897D-02
25  2.4000000000000D-01  1.5535840657007D+00  1.8789353624951D-04
26  2.5000000000000D-01  1.5763986909311D+00  3.0601268500963D-02
27  2.6000000000000D-01  1.5952944027926D+00  6.2754008048769D-02
28  2.7000000000000D-01  1.6102987904742D+00  9.6451216926301D-02
29  2.8000000000000D-01  1.6214483258112D+00  1.3149554198452D-01
30  2.9000000000000D-01  1.6287872092711D+00  1.6769029747563D-01
31  3.0000000000000D-01  1.6323662442686D+00  2.0484248521824D-01
32  3.1000000000000D-01  1.6322417608723D+00  2.4276565776926D-01
33  3.2000000000000D-01  1.6284746088980D+00  2.8128257518396D-01
34  3.3000000000000D-01  1.6211292389677D+00  3.2022760921843D-01
35  3.4000000000000D-01  1.6102728883666D+00  3.5944885288851D-01
36  3.5000000000000D-01  1.5959748864822D+00  3.9880989809162D-01
37  3.6000000000000D-01  1.5783060922806D+00  4.3819124945528D-01
38  3.7000000000000D-01  1.5573384737140D+00  4.7749134861971D-01
39  3.8000000000000D-01  1.5331448361827D+00  5.1662718970422D-01
40  3.9000000000000D-01  1.5057987042497D+00  5.5553451364672D-01
41  4.0000000000000D-01  1.4753743577690D+00  5.9416757634110D-01
42  4.1000000000000D-01  1.4419470204846D+00  6.3249849291211D-01
43  4.2000000000000D-01  1.4055931960415D+00  6.7051616794701D-01
44  4.3000000000000D-01  1.3663911432755D+00  7.0822482892680D-01
45  4.4000000000000D-01  1.3244214796575D+00  7.4564218734644D-01
46  4.5000000000000D-01  1.2797678989292D+00  7.8279725896237D-01
47  4.6000000000000D-01  1.2325179863101D+00  8.1972788113873D-01
48  4.7000000000000D-01  1.1827641122487D+00  8.5647797126903D-01
49  4.8000000000000D-01  1.1306043835658D+00  8.9309457561788D-01
50  4.9000000000000D-01  1.0761436290373D+00  9.2962476256221D-01
51  5.0000000000000D-01  1.0194943950385D+00  9.6611241802161D-01
52  5.1000000000000D-01  9.6077792583007D-01  1.0025950037771D+00
53  5.2000000000000D-01  9.0012510245896D-01  1.0391003413215D+00
54  5.3000000000000D-01  8.3767731407610D-01  1.0756434848148D+00
55  5.4000000000000D-01  7.7358723576123D-01  1.1122237465927D+00
56  5.5000000000000D-01  7.0801948769331D-01  1.1488219374920D+00
57  5.6000000000000D-01  6.4115115171757D-01  1.1853978819864D+00
58  5.7000000000000D-01  5.7317212301719D-01  1.2218882648234D+00
59  5.8000000000000D-01  5.0428527670222D-01  1.2582048614943D+00
60  5.9000000000000D-01  4.3470643162521D-01  1.2942331995862D+00
61  6.0000000000000D-01  3.6466409663550D-01  1.3298316918136D+00
62  6.1000000000000D-01  2.9439898769539D-01  1.3648312745274D+00
63  6.2000000000000D-01  2.2416330782668D-01  1.3990355776963D+00
64  6.3000000000000D-01  1.5421978561349D-01  1.4322216440059D+00
65  6.4000000000000D-01  8.4840471956182D-02  1.4641412058453D+00
66  6.5000000000000D-01  1.6305298871512D-02  1.4945225197081D+00
67  6.6000000000000D-01 -5.1099591720966D-02  1.5230727481360D+00
68  6.7000000000000D-01 -1.1708373711145D-01  1.5494808697990D+00
69  6.8000000000000D-01 -1.8135444460745D-01  1.5734210889043D+00
70  6.9000000000000D-01 -2.4361906387622D-01  1.5945567059637D+00
71  7.0000000000000D-01 -3.0358741691148D-01  1.6125444031860D+00
72  7.1000000000000D-01 -3.6097435821789D-01  1.6270388895173D+00
73  7.2000000000000D-01 -4.1550243466553D-01  1.6376978428500D+00
74  7.3000000000000D-01 -4.6690461170036D-01  1.6441870802102D+00
75  7.4000000000000D-01 -5.1492703028861D-01  1.6461858810116D+00
76  7.5000000000000D-01 -5.5933175714788D-01  1.6433923837795D+00
77  7.6000000000000D-01 -5.9989948953824D-01  1.6355289732557D+00
78  7.7000000000000D-01 -6.3643217517349D-01  1.6223475725483D+00
79  7.8000000000000D-01 -6.6875550769497D-01  1.6036347540488D+00
80  7.9000000000000D-01 -6.9672125864402D-01  1.5792165832564D+00
81  8.0000000000000D-01 -7.2020940798229D-01  1.5489631114441D+00
82  8.1000000000000D-01 -7.3913003693738D-01  1.5127924362690D+00
83  8.2000000000000D-01 -7.5342494928254D-01  1.4706742539549D+00
84  8.3000000000000D-01 -7.6306899007207D-01  1.4226328325079D+00
85  8.4000000000000D-01 -7.6807103431179D-01  1.3687493424974D+00
86  8.5000000000000D-01 -7.6847462200907D-01  1.3091634901671D+00
87  8.6000000000000D-01 -7.6435822047154D-01  1.2440744069200D+00
88  8.7000000000000D-01 -7.5583509953418D-01  1.1737407594091D+00
89  8.8000000000000D-01 -7.4305281055097D-01  1.0984800554550D+00
90  8.9000000000000D-01 -7.2619226537263D-01  1.0186671325644D+00
91  9.0000000000000D-01 -7.0546641713049D-01  9.3473182789278D-01
92  9.1000000000000D-01 -6.8111855031190D-01  8.4715584076766D-01
93  9.2000000000000D-01 -6.5342019329842D-01  7.5646881126045D-01
94  9.3000000000000D-01 -6.2266867214421D-01  6.6324365054233D-01
95  9.4000000000000D-01 -5.8918432981003D-01  5.6809117068934D-01
96  9.5000000000000D-01 -5.5330744025308D-01  4.7165407302394D-01
97  9.6000000000000D-01 -5.1539485161938D-01  3.7460036480455D-01
98  9.7000000000000D-01 -4.7581639721328D-01  2.7761628392154D-01
99  9.8000000000000D-01 -4.3495111685070D-01  1.8139882005593D-01
100  9.9000000000000D-01 -3.9318333458368D-01  8.6647928379266D-02
101  1.0000000000000D+00 -3.5089864150994D-01 -5.9414619109982D-03
102  1.0100000000000D+00 -3.0847983445905D-01 -9.5687537114864D-02
103  1.0200000000000D+00 -2.6630286273229D-01 -1.8192967617600D-01
104  1.0300000000000D+00 -2.2473283563350D-01 -2.6403640349835D-01
105  1.0400000000000D+00 -1.8412014339430D-01 -3.4141310546408D-01
106  1.0500000000000D+00 -1.4479674312322D-01 -4.1350940050191D-01
107  1.0600000000000D+00 -1.0707265966138D-01 -4.7982605607037D-01
108  1.0700000000000D+00 -7.1232748939557D-02 -5.3992135063170D-01
109  1.0800000000000D+00 -3.7533767943206D-02 -5.9341678600689D-01
110  1.0900000000000D+00 -6.2017917395069D-03 -6.4000206323005D-01
111  1.1000000000000D+00  2.2569986827378D-02 -6.7943924533990D-01
112  1.1100000000000D+00  4.8623043854665D-02 -7.1156604056845D-01
113  1.1200000000000D+00  7.1834872404880D-02 -7.3629815184722D-01
114  1.1300000000000D+00  9.2119872968248D-02 -7.5363065198670D-01
115  1.1400000000000D+00  1.0942977381355D-01 -7.6363835751276D-01
116  1.1500000000000D+00  1.2375357509190D-01 -7.6647518800418D-01
117  1.1600000000000D+00  1.3511701708520D-01 -7.6237251189624D-01
118  1.1700000000000D+00  1.4358158072505D-01 -7.5163649648367D-01
119  1.1800000000000D+00  1.4924303497050D-01 -7.3464449388548D-01
120  1.1900000000000D+00  1.5222955100823D-01 -7.1184050640424D-01
121  1.2000000000000D+00  1.5269941118593D-01 -6.8372979198628D-01
122  1.2100000000000D+00  1.5083834616435D-01 -6.5087268262540D-01
123  1.2200000000000D+00  1.4685653896272D-01 -6.1387769984494D-01
124  1.2300000000000D+00  1.4098533878490D-01 -5.7339406056459D-01
125  1.2400000000000D+00  1.3347373406139D-01 -5.3010368092386D-01
126  1.2500000000000D+00  1.2458463611720D-01 -4.8471278992664D-01
127  1.2600000000000D+00  1.1459102754749D-01 -4.3794327068018D-01
128  1.2700000000000D+00  1.0377203582034D-01 -3.9052386153056D-01
129  1.2800000000000D+00  9.2408991500619D-02 -3.4318134617268D-01
130  1.2900000000000D+00  8.0781429320728D-02 -2.9663161890403D-01
131  1.3000000000000D+00  6.9163359679944D-02 -2.5157139713085D-01
132  1.3100000000000D+00  5.7820122525334D-02 -2.0867136269133D-01
133  1.3200000000000D+00  4.7001702660112D-02 -1.6856053353632D-01
134  1.3300000000000D+00  3.6936427952075D-02 -1.3181166383016D-01
135  1.3400000000000D+00  2.7824516002484D-02 -9.8926369115959D-02
136  1.3500000000000D+00  1.9835272600842D-02 -7.0329178993346D-02
137  1.3600000000000D+00  1.3109195742001D-02 -4.6378082568488D-02
138  1.3700000000000D+00  7.7321114763832D-03 -2.7276125880582D-02
139  1.3800000000000D+00  3.7619310062255D-03 -1.3169463121872D-02
140  1.3900000000000D+00  1.3585349871104D-03 -4.5894030536178D-03
141  1.4000000000000D+00  3.1752623024131D-04 -8.6594205867791D-04
142  1.4100000000000D+00  1.9196906270268D-05  7.7257863167061D-05
143  1.4200000000000D+00  1.0011817785992D-06 -9.1754261768557D-06
144  1.4300000000000D+00  8.3222546763270D-06 -5.2372672145217D-05
145  1.4400000000000D+00 -3.6303975962800D-07  5.6532494242887D-06
146  1.4500000000000D+00 -5.0585132273259D-07  5.1520975477793D-06
147  1.4600000000000D+00 -5.4736311452508D-07  1.2658311653645D-06
148  1.4700000000000D+00 -9.4277694719416D-08  2.1802646361748D-07
149  1.4800000000000D+00  0.0000000000000D+00  0.0000000000000D+00
150  1.4900000000000D+00  0.0000000000000D+00  0.0000000000000D+00
151  1.5000000000000D+00  0.0000000000000D+00  0.0000000000000D+00
152  1.5100000000000D+00  0.0000000000000D+00  0.0000000000000D+00
153  1.5200000000000D+00  0.0000000000000D+00  0.0000000000000D+00
154  1.5300000000000D+00  0.0000000000000D+00  0.0000000000000D+00
155  1.5400000000000D+00  0.0000000000000D+00  0.0000000000000D+00
156  1.5500000000000D+00  0.0000000000000D+00  0.0000000000000D+00
157  1.5600000000000D+00  0.0000000000000D+00  0.0000000000000D+00
158  1.5700000000000D+00  0.0000000000000D+00  0.0000000000000D+00
159  1.5800000000000D+00  0.0000000000000D+00  0.0000000000000D+00
160  1.5900000000000D+00  0.0000000000000D+00  0.0000000000000D+00
161  1.6000000000000D+00  0.0000000000000D+00  0.0000000000000D+00
162  1.6100000000000D+00  0.0000000000000D+00  0.0000000000000D+00
163  1.6200000000000D+00  0.0000000000000D+00  0.0000000000000D+00
164  1.6300000000000D+00  0.0000000000000D+00  0.0000000000000D+00
165  1.6400000000000D+00  0.0000000000000D+00  0.0000000000000D+00
166  1.6500000000000D+00  0.0000000000000D+00  0.0000000000000D+00
167  1.6600000000000D+00  0.0000000000000D+00  0.0000000000000D+00
168  1.6700000000000D+00  0.0000000000000D+00  0.0000000000000D+00
169  1.6800000000000D+00  0.0000000000000D+00  0.0000000000000D+00
170  1.6900000000000D+00  0.0000000000000D+00  0.0000000000000D+00
171  1.7000000000000D+00  0.0000000000000D+00  0.0000000000000D+00
172  1.7100000000000D+00  0.0000000000000D+00  0.0000000000000D+00
173  1.7200000000000D+00  0.0000000000000D+00  0.0000000000000D+00
174  1.7300000000000D+00  0.0000000000000D+00  0.0000000000000D+00
175  1.7400000000000D+00  0.0000000000000D+00  0.0000000000000D+00
176  1.7500000000000D+00  0.0000000000000D+00  0.0000000000000D+00
177  1.7600000000000D+00  0.0000000000000D+00  0.0000000000000D+00
178  1.7700000000000D+00  0.0000000000000D+00  0.0000000000000D+00
179  1.7800000000000D+00  0.0000000000000D+00  0.0000000000000D+00
180  1.7900000000000D+00  0.0000000000000D+00  0.0000000000000D+00
181  1.8000000000000D+00  0.0000000000000D+00  0.0000000000000D+00
182  1.8100000000000D+00  0.0000000000000D+00  0.0000000000000D+00
183  1.8200000000000D+00  0.0000000000000D+00  0.0000000000000D+00
184  1.8300000000000D+00  0.0000000000000D+00  0.0000000000000D+00
185  1.8400000000000D+00  0.0000000000000D+00  0.0000000000000D+00
186  1.8500000000000D+00  0.0000000000000D+00  0.0000000000000D+00
187  1.8600000000000D+00  0.0000000000000D+00  0.0000000000000D+00
188  1.8700000000000D+00  0.0000000000000D+00  0.0000000000000D+00
189  1.8800000000000D+00  0.0000000000000D+00  0.0000000000000D+00
190  1.8900000000000D+00  0.0000000000000D+00  0.0000000000000D+00
191  1.9000000000000D+00  0.0000000000000D+00  0.0000000000000D+00
192  1.9100000000000D+00  0.0000000000000D+00  0.0000000000000D+00
193  1.9200000000000D+00  0.0000000000000D+00  0.0000000000000D+00
194  1.9300000000000D+00  0.0000000000000D+00  0.0000000000000D+00
195  1.9400000000000D+00  0.0000000000000D+00  0.0000000000000D+00
196  1.9500000000000D+00  0.0000000000000D+00  0.0000000000000D+00
197  1.9600000000000D+00  0.0000000000000D+00  0.0000000000000D+00
198  1.9700000000000D+00  0.0000000000000D+00  0.0000000000000D+00
199  1.9800000000000D+00  0.0000000000000D+00  0.0000000000000D+00
200  1.9900000000000D+00  0.0000000000000D+00  0.0000000000000D+00
201  2.0000000000000D+00  0.0000000000000D+00  0.0000000000000D+00
202  2.0100000000000D+00  0.0000000000000D+00  0.0000000000000D+00
203  2.0200000000000D+00  0.0000000000000D+00  0.0000000000000D+00
204  2.0300000000000D+00  0.0000000000000D+00  0.0000000000000D+00
205  2.0400000000000D+00  0.0000000000000D+00  0.0000000000000D+00
206  2.0500000000000D+00  0.0000000000000D+00  0.0000000000000D+00
207  2.0600000000000D+00  0.0000000000000D+00  0.0000000000000D+00
208  2.0700000000000D+00  0.0000000000000D+00  0.0000000000000D+00
209  2.0800000000000D+00  0.0000000000000D+00  0.0000000000000D+00
210  2.0900000000000D+00  0.0000000000000D+00  0.0000000000000D+00
211  2.1000000000000D+00  0.0000000000000D+00  0.0000000000000D+00
212  2.1100000000000D+00  0.0000000000000D+00  0.0000000000000D+00
213  2.1200000000000D+00  0.0000000000000D+00  0.0000000000000D+00
214  2.1300000000000D+00  0.0000000000000D+00  0.0000000000000D+00
215  2.1400000000000D+00  0.0000000000000D+00  0.0000000000000D+00
216  2.1500000000000D+00  0.0000000000000D+00  0.0000000000000D+00
217  2.1600000000000D+00  0.0000000000000D+00  0.0000000000000D+00
218  2.1700000000000D+00  0.0000000000000D+00  0.0000000000000D+00
219  2.1800000000000D+00  0.0000000000000D+00  0.0000000000000D+00
220  2.1900000000000D+00  0.0000000000000D+00  0.0000000000000D+00
221  2.2000000000000D+00  0.0000000000000D+00  0.0000000000000D+00
222  2.2100000000000D+00  0.0000000000000D+00  0.0000000000000D+00
223  2.2200000000000D+00  0.0000000000000D+00  0.0000000000000D+00
224  2.2300000000000D+00  0.0000000000000D+00  0.0000000000000D+00
225  2.2400000000000D+00  0.0000000000000D+00  0.0000000000000D+00
226  2.2500000000000D+00  0.0000000000000D+00  0.0000000000000D+00
227  2.2600000000000D+00  0.0000000000000D+00  0.0000000000000D+00
228  2.2700000000000D+00  0.0000000000000D+00  0.0000000000000D+00
229  2.2800000000000D+00  0.0000000000000D+00  0.0000000000000D+00
230  2.2900000000000D+00  0.0000000000000D+00  0.0000000000000D+00
231  2.3000000000000D+00  0.0000000000000D+00  0.0000000000000D+00
232  2.3100000000000D+00  0.0000000000000D+00  0.0000000000000D+00
233  2.3200000000000D+00  0.0000000000000D+00  0.0000000000000D+00
234  2.3300000000000D+00  0.0000000000000D+00  0.0000000000000D+00
235  2.3400000000000D+00  0.0000000000000D+00  0.0000000000000D+00
236  2.3500000000000D+00  0.0000000000000D+00  0.0000000000000D+00
237  2.3600000000000D+00  0.0000000000000D+00  0.0000000000000D+00
238  2.3700000000000D+00  0.0000000000000D+00  0.0000000000000D+00
239  2.3800000000000D+00  0.0000000000000D+00  0.0000000000000D+00
240  2.3900000000000D+00  0.0000000000000D+00  0.0000000000000D+00
241  2.4000000000000D+00  0.0000000000000D+00  0.0000000000000D+00
242  2.4100000000000D+00  0.0000000000000D+00  0.0000000000000D+00
243  2.4200000000000D+00  0.0000000000000D+00  0.0000000000000D+00
244  2.4300000000000D+00  0.0000000000000D+00  0.0000000000000D+00
245  2.4400000000000D+00  0.0000000000000D+00  0.0000000000000D+00
246  2.4500000000000D+00  0.0000000000000D+00  0.0000000000000D+00
247  2.4600000000000D+00  0.0000000000000D+00  0.0000000000000D+00
248  2.4700000000000D+00  0.0000000000000D+00  0.0000000000000D+00
249  2.4800000000000D+00  0.0000000000000D+00  0.0000000000000D+00
250  2.4900000000000D+00  0.0000000000000D+00  0.0000000000000D+00
251  2.5000000000000D+00  0.0000000000000D+00  0.0000000000000D+00
252  2.5100000000000D+00  0.0000000000000D+00  0.0000000000000D+00
253  2.5200000000000D+00  0.0000000000000D+00  0.0000000000000D+00
254  2.5300000000000D+00  0.0000000000000D+00  0.0000000000000D+00
255  2.5400000000000D+00  0.0000000000000D+00  0.0000000000000D+00
256  2.5500000000000D+00  0.0000000000000D+00  0.0000000000000D+00
257  2.5600000000000D+00  0.0000000000000D+00  0.0000000000000D+00
258  2.5700000000000D+00  0.0000000000000D+00  0.0000000000000D+00
259  2.5800000000000D+00  0.0000000000000D+00  0.0000000000000D+00
260  2.5900000000000D+00  0.0000000000000D+00  0.0000000000000D+00
261  2.6000000000000D+00  0.0000000000000D+00  0.0000000000000D+00
262  2.6100000000000D+00  0.0000000000000D+00  0.0000000000000D+00
263  2.6200000000000D+00  0.0000000000000D+00  0.0000000000000D+00
264  2.6300000000000D+00  0.0000000000000D+00  0.0000000000000D+00
265  2.6400000000000D+00  0.0000000000000D+00  0.0000000000000D+00
266  2.6500000000000D+00  0.0000000000000D+00  0.0000000000000D+00
267  2.6600000000000D+00  0.0000000000000D+00  0.0000000000000D+00
268  2.6700000000000D+00  0.0000000000000D+00  0.0000000000000D+00
269  2.6800000000000D+00  0.0000000000000D+00  0.0000000000000D+00
270  2.6900000000000D+00  0.0000000000000D+00  0.0000000000000D+00
271  2.7000000000000D+00  0.0000000000000D+00  0.0000000000000D+00
272  2.7100000000000D+00  0.0000000000000D+00  0.0000000000000D+00
273  2.7200000000000D+00  0.0000000000000D+00  0.0000000000000D+00
274  2.7300000000000D+00  0.0000000000000D+00  0.0000000000000D+00
275  2.7400000000000D+00  0.0000000000000D+00  0.0000000000000D+00
276  2.7500000000000D+00  0.0000000000000D+00  0.0000000000000D+00
277  2.7600000000000D+00  0.0000000000000D+00  0.0000000000000D+00
278  2.7700000000000D+00  0.0000000000000D+00  0.0000000000000D+00
279  2.7800000000000D+00  0.0000000000000D+00  0.0000000000000D+00
280  2.7900000000000D+00  0.0000000000000D+00  0.0000000000000D+00
281  2.8000000000000D+00  0.0000000000000D+00  0.0000000000000D+00
282  2.8100000000000D+00  0.0000000000000D+00  0.0000000000000D+00
283  2.8200000000000D+00  0.0000000000000D+00  0.0000000000000D+00
284  2.8300000000000D+00  0.0000000000000D+00  0.0000000000000D+00
285  2.8400000000000D+00  0.0000000000000D+00  0.0000000000000D+00
286  2.8500000000000D+00  0.0000000000000D+00  0.0000000000000D+00
287  2.8600000000000D+00  0.0000000000000D+00  0.0000000000000D+00
288  2.8700000000000D+00  0.0000000000000D+00  0.0000000000000D+00
289  2.8800000000000D+00  0.0000000000000D+00  0.0000000000000D+00
290  2.8900000000000D+00  0.0000000000000D+00  0.0000000000000D+00
291  2.9000000000000D+00  0.0000000000000D+00  0.0000000000000D+00
292  2.9100000000000D+00  0.0000000000000D+00  0.0000000000000D+00
293  2.9200000000000D+00  0.0000000000000D+00  0.0000000000000D+00
294  2.9300000000000D+00  0.0000000000000D+00  0.0000000000000D+00
295  2.9400000000000D+00  0.0000000000000D+00  0.0000000000000D+00
296  2.9500000000000D+00  0.0000000000000D+00  0.0000000000000D+00
297  2.9600000000000D+00  0.0000000000000D+00  0.0000000000000D+00
298  2.9700000000000D+00  0.0000000000000D+00  0.0000000000000D+00
299  2.9800000000000D+00  0.0000000000000D+00  0.0000000000000D+00
300  2.9900000000000D+00  0.0000000000000D+00  0.0000000000000D+00
301  3.0000000000000D+00  0.0000000000000D+00  0.0000000000000D+00
302  3.0100000000000D+00  0.0000000000000D+00  0.0000000000000D+00
303  3.0200000000000D+00  0.0000000000000D+00  0.0000000000000D+00
304  3.0300000000000D+00  0.0000000000000D+00  0.0000000000000D+00
305  3.0400000000000D+00  0.0000000000000D+00  0.0000000000000D+00
306  3.0500000000000D+00  0.0000000000000D+00  0.0000000000000D+00
307  3.0600000000000D+00  0.0000000000000D+00  0.0000000000000D+00
308  3.0700000000000D+00  0.0000000000000D+00  0.0000000000000D+00
309  3.0800000000000D+00  0.0000000000000D+00  0.0000000000000D+00
310  3.0900000000000D+00  0.0000000000000D+00  0.0000000000000D+00
311  3.1000000000000D+00  0.0000000000000D+00  0.0000000000000D+00
312  3.1100000000000D+00  0.0000000000000D+00  0.0000000000000D+00
313  3.1200000000000D+00  0.0000000000000D+00  0.0000000000000D+00
314  3.1300000000000D+00  0.0000000000000D+00  0.0000000000000D+00
315  3.1400000000000D+00  0.0000000000000D+00  0.0000000000000D+00
316  3.1500000000000D+00  0.0000000000000D+00  0.0000000000000D+00
317  3.1600000000000D+00  0.0000000000000D+00  0.0000000000000D+00
318  3.1700000000000D+00  0.0000000000000D+00  0.0000000000000D+00
319  3.1800000000000D+00  0.0000000000000D+00  0.0000000000000D+00
320  3.1900000000000D+00  0.0000000000000D+00  0.0000000000000D+00
321  3.2000000000000D+00  0.0000000000000D+00  0.0000000000000D+00
322  3.2100000000000D+00  0.0000000000000D+00  0.0000000000000D+00
323  3.2200000000000D+00  0.0000000000000D+00  0.0000000000000D+00
324  3.2300000000000D+00  0.0000000000000D+00  0.0000000000000D+00
325  3.2400000000000D+00  0.0000000000000D+00  0.0000000000000D+00
326  3.2500000000000D+00  0.0000000000000D+00  0.0000000000000D+00
327  3.2600000000000D+00  0.0000000000000D+00  0.0000000000000D+00
328  3.2700000000000D+00  0.0000000000000D+00  0.0000000000000D+00
329  3.2800000000000D+00  0.0000000000000D+00  0.0000000000000D+00
330  3.2900000000000D+00  0.0000000000000D+00  0.0000000000000D+00
331  3.3000000000000D+00  0.0000000000000D+00  0.0000000000000D+00
332  3.3100000000000D+00  0.0000000000000D+00  0.0000000000000D+00
333  3.3200000000000D+00  0.0000000000000D+00  0.0000000000000D+00
334  3.3300000000000D+00  0.0000000000000D+00  0.0000000000000D+00
335  3.3400000000000D+00  0.0000000000000D+00  0.0000000000000D+00
336  3.3500000000000D+00  0.0000000000000D+00  0.0000000000000D+00
337  3.3600000000000D+00  0.0000000000000D+00  0.0000000000000D+00
338  3.3700000000000D+00  0.0000000000000D+00  0.0000000000000D+00
339  3.3800000000000D+00  0.0000000000000D+00  0.0000000000000D+00
340  3.3900000000000D+00  0.0000000000000D+00  0.0000000000000D+00
341  3.4000000000000D+00  0.0000000000000D+00  0.0000000000000D+00
342  3.4100000000000D+00  0.0000000000000D+00  0.0000000000000D+00
343  3.4200000000000D+00  0.0000000000000D+00  0.0000000000000D+00
344  3.4300000000000D+00  0.0000000000000D+00  0.0000000000000D+00
345  3.4400000000000D+00  0.0000000000000D+00  0.0000000000000D+00
346  3.4500000000000D+00  0.0000000000000D+00  0.0000000000000D+00
347  3.4600000000000D+00  0.0000000000000D+00  0.0000000000000D+00
348  3.4700000000000D+00  0.0000000000000D+00  0.0000000000000D+00
349  3.4800000000000D+00  0.0000000000000D+00  0.0000000000000D+00
350  3.4900000000000D+00  0.0000000000000D+00  0.0000000000000D+00
351  3.5000000000000D+00  0.0000000000000D+00  0.0000000000000D+00
352  3.5100000000000D+00  0.0000000000000D+00  0.0000000000000D+00
353  3.5200000000000D+00  0.0000000000000D+00  0.0000000000000D+00
354  3.5300000000000D+00  0.0000000000000D+00  0.0000000000000D+00
355  3.5400000000000D+00  0.0000000000000D+00  0.0000000000000D+00
356  3.5500000000000D+00  0.0000000000000D+00  0.0000000000000D+00
357  3.5600000000000D+00  0.0000000000000D+00  0.0000000000000D+00
358  3.5700000000000D+00  0.0000000000000D+00  0.0000000000000D+00
359  3.5800000000000D+00  0.0000000000000D+00  0.0000000000000D+00
360  3.5900000000000D+00  0.0000000000000D+00  0.0000000000000D+00
361  3.6000000000000D+00  0.0000000000000D+00  0.0000000000000D+00
362  3.6100000000000D+00  0.0000000000000D+00  0.0000000000000D+00
363  3.6200000000000D+00  0.0000000000000D+00  0.0000000000000D+00
364  3.6300000000000D+00  0.0000000000000D+00  0.0000000000000D+00
365  3.6400000000000D+00  0.0000000000000D+00  0.0000000000000D+00
366  3.6500000000000D+00  0.0000000000000D+00  0.0000000000000D+00
367  3.6600000000000D+00  0.0000000000000D+00  0.0000000000000D+00
368  3.6700000000000D+00  0.0000000000000D+00  0.0000000000000D+00
369  3.6800000000000D+00  0.0000000000000D+00  0.0000000000000D+00
370  3.6900000000000D+00  0.0000000000000D+00  0.0000000000000D+00
371  3.7000000000000D+00  0.0000000000000D+00  0.0000000000000D+00
372  3.7100000000000D+00  0.0000000000000D+00  0.0000000000000D+00
373  3.7200000000000D+00  0.0000000000000D+00  0.0000000000000D+00
374  3.7300000000000D+00  0.0000000000000D+00  0.0000000000000D+00
375  3.7400000000000D+00  0.0000000000000D+00  0.0000000000000D+00
376  3.7500000000000D+00  0.0000000000000D+00  0.0000000000000D+00
377  3.7600000000000D+00  0.0000000000000D+00  0.0000000000000D+00
378  3.7700000000000D+00  0.0000000000000D+00  0.0000000000000D+00
379  3.7800000000000D+00  0.0000000000000D+00  0.0000000000000D+00
380  3.7900000000000D+00  0.0000000000000D+00  0.0000000000000D+00
381  3.8000000000000D+00  0.0000000000000D+00  0.0000000000000D+00
382  3.8100000000000D+00  0.0000000000000D+00  0.0000000000000D+00
383  3.8200000000000D+00  0.0000000000000D+00  0.0000000000000D+00
384  3.8300000000000D+00  0.0000000000000D+00  0.0000000000000D+00
385  3.8400000000000D+00  0.0000000000000D+00  0.0000000000000D+00
386  3.8500000000000D+00  0.0000000000000D+00  0.0000000000000D+00
387  3.8600000000000D+00  0.0000000000000D+00  0.0000000000000D+00
388  3.8700000000000D+00  0.0000000000000D+00  0.0000000000000D+00
389  3.8800000000000D+00  0.0000000000000D+00  0.0000000000000D+00
390  3.8900000000000D+00  0.0000000000000D+00  0.0000000000000D+00
391  3.9000000000000D+00  0.0000000000000D+00  0.0000000000000D+00
392  3.9100000000000D+00  0.0000000000000D+00  0.0000000000000D+00
393  3.9200000000000D+00  0.0000000000000D+00  0.0000000000000D+00
394  3.9300000000000D+00  0.0000000000000D+00  0.0000000000000D+00
395  3.9400000000000D+00  0.0000000000000D+00  0.0000000000000D+00
396  3.9500000000000D+00  0.0000000000000D+00  0.0000000000000D+00
397  3.9600000000000D+00  0.0000000000000D+00  0.0000000000000D+00
398  3.9700000000000D+00  0.0000000000000D+00  0.0000000000000D+00
399  3.9800000000000D+00  0.0000000000000D+00  0.0000000000000D+00
400  3.9900000000000D+00  0.0000000000000D+00  0.0000000000000D+00
401  4.0000000000000D+00  0.0000000000000D+00  0.0000000000000D+00
402  4.0100000000000D+00  0.0000000000000D+00  0.0000000000000D+00
403  4.0200000000000D+00  0.0000000000000D+00  0.0000000000000D+00
404  4.0300000000000D+00  0.0000000000000D+00  0.0000000000000D+00
405  4.0400000000000D+00  0.0000000000000D+00  0.0000000000000D+00
406  4.0500000000000D+00  0.0000000000000D+00  0.0000000000000D+00
407  4.0600000000000D+00  0.0000000000000D+00  0.0000000000000D+00
408  4.0700000000000D+00  0.0000000000000D+00  0.0000000000000D+00
409  4.0800000000000D+00  0.0000000000000D+00  0.0000000000000D+00
410  4.0900000000000D+00  0.0000000000000D+00  0.0000000000000D+00
411  4.1000000000000D+00  0.0000000000000D+00  0.0000000000000D+00
412  4.1100000000000D+00  0.0000000000000D+00  0.0000000000000D+00
413  4.1200000000000D+00  0.0000000000000D+00  0.0000000000000D+00
414  4.1300000000000D+00  0.0000000000000D+00  0.0000000000000D+00
415  4.1400000000000D+00  0.0000000000000D+00  0.0000000000000D+00
416  4.1500000000000D+00  0.0000000000000D+00  0.0000000000000D+00
417  4.1600000000000D+00  0.0000000000000D+00  0.0000000000000D+00
418  4.1700000000000D+00  0.0000000000000D+00  0.0000000000000D+00
419  4.1800000000000D+00  0.0000000000000D+00  0.0000000000000D+00
420  4.1900000000000D+00  0.0000000000000D+00  0.0000000000000D+00
421  4.2000000000000D+00  0.0000000000000D+00  0.0000000000000D+00
422  4.2100000000000D+00  0.0000000000000D+00  0.0000000000000D+00
423  4.2200000000000D+00  0.0000000000000D+00  0.0000000000000D+00
424  4.2300000000000D+00  0.0000000000000D+00  0.0000000000000D+00
425  4.2400000000000D+00  0.0000000000000D+00  0.0000000000000D+00
426  4.2500000000000D+00  0.0000000000000D+00  0.0000000000000D+00
427  4.2600000000000D+00  0.0000000000000D+00  0.0000000000000D+00
428  4.2700000000000D+00  0.0000000000000D+00  0.0000000000000D+00
429  4.2800000000000D+00  0.0000000000000D+00  0.0000000000000D+00
430  4.2900000000000D+00  0.0000000000000D+00  0.0000000000000D+00
431  4.3000000000000D+00  0.0000000000000D+00  0.0000000000000D+00
432  4.3100000000000D+00  0.0000000000000D+00  0.0000000000000D+00
433  4.3200000000000D+00  0.0000000000000D+00  0.0000000000000D+00
434  4.3300000000000D+00  0.0000000000000D+00  0.0000000000000D+00
435  4.3400000000000D+00  0.0000000000000D+00  0.0000000000000D+00
436  4.3500000000000D+00  0.0000000000000D+00  0.0000000000000D+00
437  4.3600000000000D+00  0.0000000000000D+00  0.0000000000000D+00
438  4.3700000000000D+00  0.0000000000000D+00  0.0000000000000D+00
439  4.3800000000000D+00  0.0000000000000D+00  0.0000000000000D+00
440  4.3900000000000D+00  0.0000000000000D+00  0.0000000000000D+00
441  4.4000000000000D+00  0.0000000000000D+00  0.0000000000000D+00
442  4.4100000000000D+00  0.0000000000000D+00  0.0000000000000D+00
443  4.4200000000000D+00  0.0000000000000D+00  0.0000000000000D+00
444  4.4300000000000D+00  0.0000000000000D+00  0.0000000000000D+00