Au    ONCVPSP  r_core=  1.36  1.36  1.31  1.11
79.0000     33.0000      160315    zatom,zion,pspd
8   -1013   3     4   500     0    pspcod,pspxc,lmax,lloc,mmax,r2well
4.99000000  5.00000000  0.00000000    rchrg fchrg qchrg
2     2     2     1     0    nproj
0                 extension_switch
0                         1.7141304716266D+01  1.7497848257333D+00
1  0.0000000000000D+00 -2.0595638527965D-09  4.1288394925232D-09
2  1.0000000000000D-02  7.1978395491550D-02 -3.0309444127559D-02
3  2.0000000000000D-02  1.4378184353955D-01 -6.0413319750514D-02
4  3.0000000000000D-02  2.1523661019651D-01 -9.0108468078474D-02
5  4.0000000000000D-02  2.8617136292884D-01 -1.1919648414721D-01
6  5.0000000000000D-02  3.5641831156589D-01 -1.4748594801041D-01
7  6.0000000000000D-02  4.2581428311534D-01 -1.7479450212177D-01
8  7.0000000000000D-02  4.9420171309418D-01 -2.0095073750088D-01
9  8.0000000000000D-02  5.6142953808404D-01 -2.2579585540482D-01
10  9.0000000000000D-02  6.2735397649665D-01 -2.4918507597605D-01
11  1.0000000000000D-01  6.9183918698642D-01 -2.7098877060097D-01
12  1.1000000000000D-01  7.5475779652604D-01 -2.9109330038313D-01
13  1.2000000000000D-01  8.1599129282253D-01 -3.0940154909399D-01
14  1.3000000000000D-01  8.7543027844634D-01 -3.2583314509495D-01
15  1.4000000000000D-01  9.3297458673044D-01 -3.4032437290880D-01
16  1.5000000000000D-01  9.8853326212237D-01 -3.5282778123778D-01
17  1.6000000000000D-01  1.0420244101980D+00 -3.6331150016853D-01
18  1.7000000000000D-01  1.0933749249289D+00 -3.7175828595925D-01
19  1.8000000000000D-01  1.1425201029993D+00 -3.7816431707379D-01
20  1.9000000000000D-01  1.1894031569566D+00 -3.8253776991599D-01
21  2.0000000000000D-01  1.2339746407259D+00 -3.8489720694410D-01
22  2.1000000000000D-01  1.2761918024920D+00 -3.8526981343841D-01
23  2.2000000000000D-01  1.3160178811378D+00 -3.8368952209567D-01
24  2.3000000000000D-01  1.3534213633039D+00 -3.8019506678560D-01
25  2.4000000000000D-01  1.3883752186959D+00 -3.7482800819513D-01
26  2.5000000000000D-01  1.4208561315042D+00 -3.6763077468593D-01
27  2.6000000000000D-01  1.4508437457144D+00 -3.5864476149369D-01
28  2.7000000000000D-01  1.4783199416890D+00 -3.4790853041340D-01
29  2.8000000000000D-01  1.5032681606890D+00 -3.3545615036200D-01
30  2.9000000000000D-01  1.5256727930055D+00 -3.2131571672393D-01
31  3.0000000000000D-01  1.5455186440958D+00 -3.0550808420942D-01
32  3.1000000000000D-01  1.5627904915954D+00 -2.8804584414613D-01
33  3.2000000000000D-01  1.5774727443278D+00 -2.6893257274803D-01
34  3.3000000000000D-01  1.5895492124946D+00 -2.4816237203298D-01
35  3.4000000000000D-01  1.5990029961237D+00 -2.2571971977522D-01
36  3.5000000000000D-01  1.6058164966247D+00 -2.0157963926669D-01
37  3.6000000000000D-01  1.6099715539810D+00 -1.7570819381231D-01
38  3.7000000000000D-01  1.6114497097337D+00 -1.4806330489513D-01
39  3.8000000000000D-01  1.6102325935235D+00 -1.1859588691157D-01
40  3.9000000000000D-01  1.6063024285899D+00 -8.7251285392356D-02
41  4.0000000000000D-01  1.5996426493167D+00 -5.3970999786205D-02
42  4.1000000000000D-01  1.5902386217017D+00 -1.8694666282547D-02
43  4.2000000000000D-01  1.5780784555417D+00  1.8637729122507D-02
44  4.3000000000000D-01  1.5631538952035D+00  5.8083441973153D-02
45  4.4000000000000D-01  1.5454612741182D+00  9.9694404140051D-02
46  4.5000000000000D-01  1.5250025166286D+00  1.4351454487899D-01
47  4.6000000000000D-01  1.5017861695468D+00  1.8957704417731D-01
48  4.7000000000000D-01  1.4758284447776D+00  2.3790156690359D-01
49  4.8000000000000D-01  1.4471542536406D+00  2.8849152804951D-01
50  4.9000000000000D-01  1.4157982130908D+00  3.4133144036361D-01
51  5.0000000000000D-01  1.3818056039168D+00  3.9638439589779D-01
52  5.1000000000000D-01  1.3452332611737D+00  4.5358973240740D-01
53  5.2000000000000D-01  1.3061503776005D+00  5.1286093415651D-01
54  5.3000000000000D-01  1.2646392015673D+00  5.7408381449112D-01
55  5.4000000000000D-01  1.2207956121906D+00  6.3711502457679D-01
56  5.5000000000000D-01  1.1747295556326D+00  7.0178092897233D-01
57  5.6000000000000D-01  1.1265653282492D+00  7.6787688428131D-01
58  5.7000000000000D-01  1.0764416941447D+00  8.3516695203322D-01
59  5.8000000000000D-01  1.0245118268171D+00  9.0338407124549D-01
60  5.9000000000000D-01  9.7094306689045D-01  9.7223070991097D-01
61  6.0000000000000D-01  9.1591649042931D-01  1.0413800079656D+00
62  6.1000000000000D-01  8.5962628494136D-01  1.1104774172743D+00
63  6.2000000000000D-01  8.0227893290664D-01  1.1791428368553D+00
64  6.3000000000000D-01  7.4409220545594D-01  1.2469732340865D+00
65  6.4000000000000D-01  6.8529397162403D-01  1.3135457351126D+00
66  6.5000000000000D-01  6.2612083140990D-01  1.3784211601412D+00
67  6.6000000000000D-01  5.6681658360649D-01  1.4411479719832D+00
68  6.7000000000000D-01  5.0763054200578D-01  1.5012665991003D+00
69  6.8000000000000D-01  4.4881571610064D-01  1.5583140876783D+00
70  6.9000000000000D-01  3.9062687473568D-01  1.6118290310000D+00
71  7.0000000000000D-01  3.3331851328348D-01  1.6613567187235D+00
72  7.1000000000000D-01  2.7714274681106D-01  1.7064544436389D+00
73  7.2000000000000D-01  2.2234715330721D-01  1.7466968992400D+00
74  7.3000000000000D-01  1.6917259234706D-01  1.7816815980251D+00
75  7.4000000000000D-01  1.1785102555168D-01  1.8110342379323D+00
76  7.5000000000000D-01  6.8603365834052D-02  1.8344139427661D+00
77  7.6000000000000D-01  2.1637382699321D-02  1.8515183019220D+00
78  7.7000000000000D-01 -2.2854309229477D-02  1.8620881352102D+00
79  7.8000000000000D-01 -6.4696151757514D-02  1.8659119101118D+00
80  7.9000000000000D-01 -1.0373140887476D-01  1.8628297413848D+00
81  8.0000000000000D-01 -1.3982377206873D-01  1.8527369065413D+00
82  8.1000000000000D-01 -1.7285878209833D-01  1.8355868153206D+00
83  8.2000000000000D-01 -2.0274504602725D-01  1.8113933768173D+00
84  8.3000000000000D-01 -2.2941523051814D-01  1.7802327143372D+00
85  8.4000000000000D-01 -2.5282681487263D-01  1.7422441852484D+00
86  8.5000000000000D-01 -2.7296259003136D-01  1.6976306709849D+00
87  8.6000000000000D-01 -2.8983089268501D-01  1.6466581108222D+00
88  8.7000000000000D-01 -3.0346556674779D-01  1.5896542619616D+00
89  8.8000000000000D-01 -3.1392564766373D-01  1.5270066776988D+00
90  8.9000000000000D-01 -3.2129476830354D-01  1.4591599048622D+00
91  9.0000000000000D-01 -3.2568028851573D-01  1.3866119111477D+00
92  9.1000000000000D-01 -3.2721215366767D-01  1.3099097622929D+00
93  9.2000000000000D-01 -3.2604149069845D-01  1.2296445780736D+00
94  9.3000000000000D-01 -3.2233895325377D-01  1.1464458047106D+00
95  9.4000000000000D-01 -3.1629283033469D-01  1.0609748493129D+00
96  9.5000000000000D-01 -3.0810693551827D-01  9.7391812929736D-01
97  9.6000000000000D-01 -2.9799829615608D-01  8.8597959619719D-01
98  9.7000000000000D-01 -2.8619466398438D-01  7.9787279877743D-01
99  9.8000000000000D-01 -2.7293187025988D-01  7.1031255482744D-01
100  9.9000000000000D-01 -2.5845104981497D-01  6.2400630425520D-01
101  1.0000000000000D+00 -2.4299575932472D-01  5.3964521821920D-01
102  1.0100000000000D+00 -2.2680901554573D-01  4.5789513983393D-01
103  1.0200000000000D+00 -2.1013027931086D-01  3.7938743148445D-01
104  1.0300000000000D+00 -1.9319241067633D-01  3.0470980203856D-01
105  1.0400000000000D+00 -1.7621861980266D-01  2.3439718423154D-01
106  1.0500000000000D+00 -1.5941943684552D-01  1.6892272801130D-01
107  1.0600000000000D+00 -1.4298972270604D-01  1.0868897085674D-01
108  1.0700000000000D+00 -1.2710573822350D-01  5.4019228827478D-02
109  1.0800000000000D+00 -1.1192230288448D-01  5.1493217191278D-03
110  1.0900000000000D+00 -9.7569996472939D-02 -3.7780624210004D-02
111  1.1000000000000D+00 -8.4152759871910D-02 -7.4732618424873D-02
112  1.1100000000000D+00 -7.1744420386151D-02 -1.0578264970566D-01
113  1.1200000000000D+00 -6.0390184091948D-02 -1.3110840824130D-01
114  1.1300000000000D+00 -5.0111890495778D-02 -1.5096039470608D-01
115  1.1400000000000D+00 -4.0914192051684D-02 -1.6563167588204D-01
116  1.1500000000000D+00 -3.2785352413391D-02 -1.7545546887024D-01
117  1.1600000000000D+00 -2.5698475321180D-02 -1.8080108312496D-01
118  1.1700000000000D+00 -1.9612986742605D-02 -1.8206887335367D-01
119  1.1800000000000D+00 -1.4476223240095D-02 -1.7968502634839D-01
120  1.1900000000000D+00 -1.0225132548139D-02 -1.7409606526937D-01
121  1.2000000000000D+00 -6.7880783873057D-03 -1.6576306640349D-01
122  1.2100000000000D+00 -4.0867202949206D-03 -1.5515568458548D-01
123  1.2200000000000D+00 -2.0379431783466D-03 -1.4274606158532D-01
124  1.2300000000000D+00 -5.5581020074773D-04 -1.2900269537178D-01
125  1.2400000000000D+00  4.4648729851010D-04 -1.1438434805564D-01
126  1.2500000000000D+00  1.0547091287441D-03 -9.9334070398666D-02
127  1.2600000000000D+00  1.3517011567474D-03 -8.4273421151265D-02
128  1.2700000000000D+00  1.4156106930062D-03 -6.9596955333324D-02
129  1.2800000000000D+00  1.3182064484119D-03 -5.5667053215156D-02
130  1.2900000000000D+00  1.1233265502925D-03 -4.2809160088726D-02
131  1.3000000000000D+00  8.8547460185217D-04 -3.1307496492772D-02
132  1.3100000000000D+00  6.4870604669104D-04 -2.1403806958555D-02
133  1.3200000000000D+00  4.4518931038741D-04 -1.3286259535910D-02
134  1.3300000000000D+00  2.9142387531994D-04 -7.0488005575212D-03
135  1.3400000000000D+00  2.0522142765094D-04 -2.9242934566641D-03
136  1.3500000000000D+00  1.8190901253258D-04 -9.4979008674906D-04
137  1.3600000000000D+00  1.1886377826704D-04 -2.3480375531342D-04
138  1.3700000000000D+00  1.4237545342371D-05 -1.3876835433161D-05
139  1.3800000000000D+00 -1.6042011067938D-05  9.0415203321416D-06
140  1.3900000000000D+00  1.5097123422229D-06 -1.7662523274586D-06
141  1.4000000000000D+00  2.7345057781766D-06 -2.7606891977852D-06
142  1.4100000000000D+00 -3.9546198711927D-07  1.1724729023605D-06
143  1.4200000000000D+00 -1.3490088128183D-07  3.9995658991060D-07
144  1.4300000000000D+00  0.0000000000000D+00  0.0000000000000D+00
145  1.4400000000000D+00  0.0000000000000D+00  0.0000000000000D+00
146  1.4500000000000D+00  0.0000000000000D+00  0.0000000000000D+00
147  1.4600000000000D+00  0.0000000000000D+00  0.0000000000000D+00
148  1.4700000000000D+00  0.0000000000000D+00  0.0000000000000D+00
149  1.4800000000000D+00  0.0000000000000D+00  0.0000000000000D+00
150  1.4900000000000D+00  0.0000000000000D+00  0.0000000000000D+00
151  1.5000000000000D+00  0.0000000000000D+00  0.0000000000000D+00
152  1.5100000000000D+00  0.0000000000000D+00  0.0000000000000D+00
153  1.5200000000000D+00  0.0000000000000D+00  0.0000000000000D+00
154  1.5300000000000D+00  0.0000000000000D+00  0.0000000000000D+00
155  1.5400000000000D+00  0.0000000000000D+00  0.0000000000000D+00
156  1.5500000000000D+00  0.0000000000000D+00  0.0000000000000D+00
157  1.5600000000000D+00  0.0000000000000D+00  0.0000000000000D+00
158  1.5700000000000D+00  0.0000000000000D+00  0.0000000000000D+00
159  1.5800000000000D+00  0.0000000000000D+00  0.0000000000000D+00
160  1.5900000000000D+00  0.0000000000000D+00  0.0000000000000D+00
161  1.6000000000000D+00  0.0000000000000D+00  0.0000000000000D+00
162  1.6100000000000D+00  0.0000000000000D+00  0.0000000000000D+00
163  1.6200000000000D+00  0.0000000000000D+00  0.0000000000000D+00
164  1.6300000000000D+00  0.0000000000000D+00  0.0000000000000D+00
165  1.6400000000000D+00  0.0000000000000D+00  0.0000000000000D+00
166  1.6500000000000D+00  0.0000000000000D+00  0.0000000000000D+00
167  1.6600000000000D+00  0.0000000000000D+00  0.0000000000000D+00
168  1.6700000000000D+00  0.0000000000000D+00  0.0000000000000D+00
169  1.6800000000000D+00  0.0000000000000D+00  0.0000000000000D+00
170  1.6900000000000D+00  0.0000000000000D+00  0.0000000000000D+00
171  1.7000000000000D+00  0.0000000000000D+00  0.0000000000000D+00
172  1.7100000000000D+00  0.0000000000000D+00  0.0000000000000D+00
173  1.7200000000000D+00  0.0000000000000D+00  0.0000000000000D+00
174  1.7300000000000D+00  0.0000000000000D+00  0.0000000000000D+00
175  1.7400000000000D+00  0.0000000000000D+00  0.0000000000000D+00
176  1.7500000000000D+00  0.0000000000000D+00  0.0000000000000D+00
177  1.7600000000000D+00  0.0000000000000D+00  0.0000000000000D+00
178  1.7700000000000D+00  0.0000000000000D+00  0.0000000000000D+00
179  1.7800000000000D+00  0.0000000000000D+00  0.0000000000000D+00
180  1.7900000000000D+00  0.0000000000000D+00  0.0000000000000D+00
181  1.8000000000000D+00  0.0000000000000D+00  0.0000000000000D+00
182  1.8100000000000D+00  0.0000000000000D+00  0.0000000000000D+00
183  1.8200000000000D+00  0.0000000000000D+00  0.0000000000000D+00
184  1.8300000000000D+00  0.0000000000000D+00  0.0000000000000D+00
185  1.8400000000000D+00  0.0000000000000D+00  0.0000000000000D+00
186  1.8500000000000D+00  0.0000000000000D+00  0.0000000000000D+00
187  1.8600000000000D+00  0.0000000000000D+00  0.0000000000000D+00
188  1.8700000000000D+00  0.0000000000000D+00  0.0000000000000D+00
189  1.8800000000000D+00  0.0000000000000D+00  0.0000000000000D+00
190  1.8900000000000D+00  0.0000000000000D+00  0.0000000000000D+00
191  1.9000000000000D+00  0.0000000000000D+00  0.0000000000000D+00
192  1.9100000000000D+00  0.0000000000000D+00  0.0000000000000D+00
193  1.9200000000000D+00  0.0000000000000D+00  0.0000000000000D+00
194  1.9300000000000D+00  0.0000000000000D+00  0.0000000000000D+00
195  1.9400000000000D+00  0.0000000000000D+00  0.0000000000000D+00
196  1.9500000000000D+00  0.0000000000000D+00  0.0000000000000D+00
197  1.9600000000000D+00  0.0000000000000D+00  0.0000000000000D+00
198  1.9700000000000D+00  0.0000000000000D+00  0.0000000000000D+00
199  1.9800000000000D+00  0.0000000000000D+00  0.0000000000000D+00
200  1.9900000000000D+00  0.0000000000000D+00  0.0000000000000D+00
201  2.0000000000000D+00  0.0000000000000D+00  0.0000000000000D+00
202  2.0100000000000D+00  0.0000000000000D+00  0.0000000000000D+00
203  2.0200000000000D+00  0.0000000000000D+00  0.0000000000000D+00
204  2.0300000000000D+00  0.0000000000000D+00  0.0000000000000D+00
205  2.0400000000000D+00  0.0000000000000D+00  0.0000000000000D+00
206  2.0500000000000D+00  0.0000000000000D+00  0.0000000000000D+00
207  2.0600000000000D+00  0.0000000000000D+00  0.0000000000000D+00
208  2.0700000000000D+00  0.0000000000000D+00  0.0000000000000D+00
209  2.0800000000000D+00  0.0000000000000D+00  0.0000000000000D+00
210  2.0900000000000D+00  0.0000000000000D+00  0.0000000000000D+00
211  2.1000000000000D+00  0.0000000000000D+00  0.0000000000000D+00
212  2.1100000000000D+00  0.0000000000000D+00  0.0000000000000D+00
213  2.1200000000000D+00  0.0000000000000D+00  0.0000000000000D+00
214  2.1300000000000D+00  0.0000000000000D+00  0.0000000000000D+00
215  2.1400000000000D+00  0.0000000000000D+00  0.0000000000000D+00
216  2.1500000000000D+00  0.0000000000000D+00  0.0000000000000D+00
217  2.1600000000000D+00  0.0000000000000D+00  0.0000000000000D+00
218  2.1700000000000D+00  0.0000000000000D+00  0.0000000000000D+00
219  2.1800000000000D+00  0.0000000000000D+00  0.0000000000000D+00
220  2.1900000000000D+00  0.0000000000000D+00  0.0000000000000D+00
221  2.2000000000000D+00  0.0000000000000D+00  0.0000000000000D+00
222  2.2100000000000D+00  0.0000000000000D+00  0.0000000000000D+00
223  2.2200000000000D+00  0.0000000000000D+00  0.0000000000000D+00
224  2.2300000000000D+00  0.0000000000000D+00  0.0000000000000D+00
225  2.2400000000000D+00  0.0000000000000D+00  0.0000000000000D+00
226  2.2500000000000D+00  0.0000000000000D+00  0.0000000000000D+00
227  2.2600000000000D+00  0.0000000000000D+00  0.0000000000000D+00
228  2.2700000000000D+00  0.0000000000000D+00  0.0000000000000D+00
229  2.2800000000000D+00  0.0000000000000D+00  0.0000000000000D+00
230  2.2900000000000D+00  0.0000000000000D+00  0.0000000000000D+00
231  2.3000000000000D+00  0.0000000000000D+00  0.0000000000000D+00
232  2.3100000000000D+00  0.0000000000000D+00  0.0000000000000D+00
233  2.3200000000000D+00  0.0000000000000D+00  0.0000000000000D+00
234  2.3300000000000D+00  0.0000000000000D+00  0.0000000000000D+00
235  2.3400000000000D+00  0.0000000000000D+00  0.0000000000000D+00
236  2.3500000000000D+00  0.0000000000000D+00  0.0000000000000D+00
237  2.3600000000000D+00  0.0000000000000D+00  0.0000000000000D+00
238  2.3700000000000D+00  0.0000000000000D+00  0.0000000000000D+00
239  2.3800000000000D+00  0.0000000000000D+00  0.0000000000000D+00
240  2.3900000000000D+00  0.0000000000000D+00  0.0000000000000D+00
241  2.4000000000000D+00  0.0000000000000D+00  0.0000000000000D+00
242  2.4100000000000D+00  0.0000000000000D+00  0.0000000000000D+00
243  2.4200000000000D+00  0.0000000000000D+00  0.0000000000000D+00
244  2.4300000000000D+00  0.0000000000000D+00  0.0000000000000D+00
245  2.4400000000000D+00  0.0000000000000D+00  0.0000000000000D+00
246  2.4500000000000D+00  0.0000000000000D+00  0.0000000000000D+00
247  2.4600000000000D+00  0.0000000000000D+00  0.0000000000000D+00
248  2.4700000000000D+00  0.0000000000000D+00  0.0000000000000D+00
249  2.4800000000000D+00  0.0000000000000D+00  0.0000000000000D+00
250  2.4900000000000D+00  0.0000000000000D+00  0.0000000000000D+00
251  2.5000000000000D+00  0.0000000000000D+00  0.0000000000000D+00
252  2.5100000000000D+00  0.0000000000000D+00  0.0000000000000D+00
253  2.5200000000000D+00  0.0000000000000D+00  0.0000000000000D+00
254  2.5300000000000D+00  0.0000000000000D+00  0.0000000000000D+00
255  2.5400000000000D+00  0.0000000000000D+00  0.0000000000000D+00
256  2.5500000000000D+00  0.0000000000000D+00  0.0000000000000D+00
257  2.5600000000000D+00  0.0000000000000D+00  0.0000000000000D+00
258  2.5700000000000D+00  0.0000000000000D+00  0.0000000000000D+00
259  2.5800000000000D+00  0.0000000000000D+00  0.0000000000000D+00
260  2.5900000000000D+00  0.0000000000000D+00  0.0000000000000D+00
261  2.6000000000000D+00  0.0000000000000D+00  0.0000000000000D+00
262  2.6100000000000D+00  0.0000000000000D+00  0.0000000000000D+00
263  2.6200000000000D+00  0.0000000000000D+00  0.0000000000000D+00
264  2.6300000000000D+00  0.0000000000000D+00  0.0000000000000D+00
265  2.6400000000000D+00  0.0000000000000D+00  0.0000000000000D+00
266  2.6500000000000D+00  0.0000000000000D+00  0.0000000000000D+00
267  2.6600000000000D+00  0.0000000000000D+00  0.0000000000000D+00
268  2.6700000000000D+00  0.0000000000000D+00  0.0000000000000D+00
269  2.6800000000000D+00  0.0000000000000D+00  0.0000000000000D+00
270  2.6900000000000D+00  0.0000000000000D+00  0.0000000000000D+00
271  2.7000000000000D+00  0.0000000000000D+00  0.0000000000000D+00
272  2.7100000000000D+00  0.0000000000000D+00  0.0000000000000D+00
273  2.7200000000000D+00  0.0000000000000D+00  0.0000000000000D+00
274  2.7300000000000D+00  0.0000000000000D+00  0.0000000000000D+00
275  2.7400000000000D+00  0.0000000000000D+00  0.0000000000000D+00
276  2.7500000000000D+00  0.0000000000000D+00  0.0000000000000D+00
277  2.7600000000000D+00  0.0000000000000D+00  0.0000000000000D+00
278  2.7700000000000D+00  0.0000000000000D+00  0.0000000000000D+00
279  2.7800000000000D+00  0.0000000000000D+00  0.0000000000000D+00
280  2.7900000000000D+00  0.0000000000000D+00  0.0000000000000D+00
281  2.8000000000000D+00  0.0000000000000D+00  0.0000000000000D+00
282  2.8100000000000D+00  0.0000000000000D+00  0.0000000000000D+00
283  2.8200000000000D+00  0.0000000000000D+00  0.0000000000000D+00
284  2.8300000000000D+00  0.0000000000000D+00  0.0000000000000D+00
285  2.8400000000000D+00  0.0000000000000D+00  0.0000000000000D+00
286  2.8500000000000D+00  0.0000000000000D+00  0.0000000000000D+00
287  2.8600000000000D+00  0.0000000000000D+00  0.0000000000000D+00
288  2.8700000000000D+00  0.0000000000000D+00  0.0000000000000D+00
289  2.8800000000000D+00  0.0000000000000D+00  0.0000000000000D+00
290  2.8900000000000D+00  0.0000000000000D+00  0.0000000000000D+00
291  2.9000000000000D+00  0.0000000000000D+00  0.0000000000000D+00
292  2.9100000000000D+00  0.0000000000000D+00  0.0000000000000D+00
293  2.9200000000000D+00  0.0000000000000D+00  0.0000000000000D+00
294  2.9300000000000D+00  0.0000000000000D+00  0.0000000000000D+00
295  2.9400000000000D+00  0.0000000000000D+00  0.0000000000000D+00
296  2.9500000000000D+00  0.0000000000000D+00  0.0000000000000D+00
297  2.9600000000000D+00  0.0000000000000D+00  0.0000000000000D+00
298  2.9700000000000D+00  0.0000000000000D+00  0.0000000000000D+00
299  2.9800000000000D+00  0.0000000000000D+00  0.0000000000000D+00
300  2.9900000000000D+00  0.0000000000000D+00  0.0000000000000D+00
301  3.0000000000000D+00  0.0000000000000D+00  0.0000000000000D+00
302  3.0100000000000D+00  0.0000000000000D+00  0.0000000000000D+00
303  3.0200000000000D+00  0.0000000000000D+00  0.0000000000000D+00
304  3.0300000000000D+00  0.0000000000000D+00  0.0000000000000D+00
305  3.0400000000000D+00  0.0000000000000D+00  0.0000000000000D+00
306  3.0500000000000D+00  0.0000000000000D+00  0.0000000000000D+00
307  3.0600000000000D+00  0.0000000000000D+00  0.0000000000000D+00
308  3.0700000000000D+00  0.0000000000000D+00  0.0000000000000D+00
309  3.0800000000000D+00  0.0000000000000D+00  0.0000000000000D+00
310  3.0900000000000D+00  0.0000000000000D+00  0.0000000000000D+00
311  3.1000000000000D+00  0.0000000000000D+00  0.0000000000000D+00
312  3.1100000000000D+00  0.0000000000000D+00  0.0000000000000D+00
313  3.1200000000000D+00  0.0000000000000D+00  0.0000000000000D+00
314  3.1300000000000D+00  0.0000000000000D+00  0.0000000000000D+00
315  3.1400000000000D+00  0.0000000000000D+00  0.0000000000000D+00
316  3.1500000000000D+00  0.0000000000000D+00  0.0000000000000D+00
317  3.1600000000000D+00  0.0000000000000D+00  0.0000000000000D+00
318  3.1700000000000D+00  0.0000000000000D+00  0.0000000000000D+00
319  3.1800000000000D+00  0.0000000000000D+00  0.0000000000000D+00
320  3.1900000000000D+00  0.0000000000000D+00  0.0000000000000D+00
321  3.2000000000000D+00  0.0000000000000D+00  0.0000000000000D+00
322  3.2100000000000D+00  0.0000000000000D+00  0.0000000000000D+00
323  3.2200000000000D+00  0.0000000000000D+00  0.0000000000000D+00
324  3.2300000000000D+00  0.0000000000000D+00  0.0000000000000D+00
325  3.2400000000000D+00  0.0000000000000D+00  0.0000000000000D+00
326  3.2500000000000D+00  0.0000000000000D+00  0.0000000000000D+00
327  3.2600000000000D+00  0.0000000000000D+00  0.0000000000000D+00
328  3.2700000000000D+00  0.0000000000000D+00  0.0000000000000D+00
329  3.2800000000000D+00  0.0000000000000D+00  0.0000000000000D+00
330  3.2900000000000D+00  0.0000000000000D+00  0.0000000000000D+00
331  3.3000000000000D+00  0.0000000000000D+00  0.0000000000000D+00
332  3.3100000000000D+00  0.0000000000000D+00  0.0000000000000D+00
333  3.3200000000000D+00  0.0000000000000D+00  0.0000000000000D+00
334  3.3300000000000D+00  0.0000000000000D+00  0.0000000000000D+00
335  3.3400000000000D+00  0.0000000000000D+00  0.0000000000000D+00
336  3.3500000000000D+00  0.0000000000000D+00  0.0000000000000D+00
337  3.3600000000000D+00  0.0000000000000D+00  0.0000000000000D+00
338  3.3700000000000D+00  0.0000000000000D+00  0.0000000000000D+00
339  3.3800000000000D+00  0.0000000000000D+00  0.0000000000000D+00
340  3.3900000000000D+00  0.0000000000000D+00  0.0000000000000D+00
341  3.4000000000000D+00  0.0000000000000D+00  0.0000000000000D+00
342  3.4100000000000D+00  0.0000000000000D+00  0.0000000000000D+00
343  3.4200000000000D+00  0.0000000000000D+00  0.0000000000000D+00
344  3.4300000000000D+00  0.0000000000000D+00  0.0000000000000D+00
345  3.4400000000000D+00  0.0000000000000D+00  0.0000000000000D+00
346  3.4500000000000D+00  0.0000000000000D+00  0.0000000000000D+00
347  3.4600000000000D+00  0.0000000000000D+00  0.0000000000000D+00
348  3.4700000000000D+00  0.0000000000000D+00  0.0000000000000D+00
349  3.4800000000000D+00  0.0000000000000D+00  0.0000000000000D+00
350  3.4900000000000D+00  0.0000000000000D+00  0.0000000000000D+00
351  3.5000000000000D+00  0.0000000000000D+00  0.0000000000000D+00
352  3.5100000000000D+00  0.0000000000000D+00  0.0000000000000D+00
353  3.5200000000000D+00  0.0000000000000D+00  0.0000000000000D+00
354  3.5300000000000D+00  0.0000000000000D+00  0.0000000000000D+00
355  3.5400000000000D+00  0.0000000000000D+00  0.0000000000000D+00
356  3.5500000000000D+00  0.0000000000000D+00  0.0000000000000D+00
357  3.5600000000000D+00  0.0000000000000D+00  0.0000000000000D+00
358  3.5700000000000D+00  0.0000000000000D+00  0.0000000000000D+00
359  3.5800000000000D+00  0.0000000000000D+00  0.0000000000000D+00
360  3.5900000000000D+00  0.0000000000000D+00  0.0000000000000D+00
361  3.6000000000000D+00  0.0000000000000D+00  0.0000000000000D+00
362  3.6100000000000D+00  0.0000000000000D+00  0.0000000000000D+00
363  3.6200000000000D+00  0.0000000000000D+00  0.0000000000000D+00
364  3.6300000000000D+00  0.0000000000000D+00  0.0000000000000D+00
365  3.6400000000000D+00  0.0000000000000D+00  0.0000000000000D+00
366  3.6500000000000D+00  0.0000000000000D+00  0.0000000000000D+00
367  3.6600000000000D+00  0.0000000000000D+00  0.0000000000000D+00
368  3.6700000000000D+00  0.0000000000000D+00  0.0000000000000D+00
369  3.6800000000000D+00  0.0000000000000D+00  0.0000000000000D+00
370  3.6900000000000D+00  0.0000000000000D+00  0.0000000000000D+00
371  3.7000000000000D+00  0.0000000000000D+00  0.0000000000000D+00
372  3.7100000000000D+00  0.0000000000000D+00  0.0000000000000D+00
373  3.7200000000000D+00  0.0000000000000D+00  0.0000000000000D+00
374  3.7300000000000D+00  0.0000000000000D+00  0.0000000000000D+00
375  3.7400000000000D+00  0.0000000000000D+00  0.0000000000000D+00
376  3.7500000000000D+00  0.0000000000000D+00  0.0000000000000D+00
377  3.7600000000000D+00  0.0000000000000D+00  0.0000000000000D+00
378  3.7700000000000D+00  0.0000000000000D+00  0.0000000000000D+00
379  3.7800000000000D+00  0.0000000000000D+00  0.0000000000000D+00
380  3.7900000000000D+00  0.0000000000000D+00  0.0000000000000D+00
381  3.8000000000000D+00  0.0000000000000D+00  0.0000000000000D+00
382  3.8100000000000D+00  0.0000000000000D+00  0.0000000000000D+00
383  3.8200000000000D+00  0.0000000000000D+00  0.0000000000000D+00
384  3.8300000000000D+00  0.0000000000000D+00  0.0000000000000D+00
385  3.8400000000000D+00  0.0000000000000D+00  0.0000000000000D+00
386  3.8500000000000D+00  0.0000000000000D+00  0.0000000000000D+00
387  3.8600000000000D+00  0.0000000000000D+00  0.0000000000000D+00
388  3.8700000000000D+00  0.0000000000000D+00  0.0000000000000D+00
389  3.8800000000000D+00  0.0000000000000D+00  0.0000000000000D+00
390  3.8900000000000D+00  0.0000000000000D+00  0.0000000000000D+00
391  3.9000000000000D+00  0.0000000000000D+00  0.0000000000000D+00
392  3.9100000000000D+00  0.0000000000000D+00  0.0000000000000D+00
393  3.9200000000000D+00  0.0000000000000D+00  0.0000000000000D+00
394  3.9300000000000D+00  0.0000000000000D+00  0.0000000000000D+00
395  3.9400000000000D+00  0.0000000000000D+00  0.0000000000000D+00
396  3.9500000000000D+00  0.0000000000000D+00  0.0000000000000D+00
397  3.9600000000000D+00  0.0000000000000D+00  0.0000000000000D+00
398  3.9700000000000D+00  0.0000000000000D+00  0.0000000000000D+00
399  3.9800000000000D+00  0.0000000000000D+00  0.0000000000000D+00
400  3.9900000000000D+00  0.0000000000000D+00  0.0000000000000D+00
401  4.0000000000000D+00  0.0000000000000D+00  0.0000000000000D+00
402  4.0100000000000D+00  0.0000000000000D+00  0.0000000000000D+00
403  4.0200000000000D+00  0.0000000000000D+00  0.0000000000000D+00
404  4.0300000000000D+00  0.0000000000000D+00  0.0000000000000D+00
405  4.0400000000000D+00  0.0000000000000D+00  0.0000000000000D+00
406  4.0500000000000D+00  0.0000000000000D+00  0.0000000000000D+00
407  4.0600000000000D+00  0.0000000000000D+00  0.0000000000000D+00
408  4.0700000000000D+00  0.0000000000000D+00  0.0000000000000D+00
409  4.0800000000000D+00  0.0000000000000D+00  0.0000000000000D+00
410  4.0900000000000D+00  0.0000000000000D+00  0.0000000000000D+00
411  4.1000000000000D+00  0.0000000000000D+00  0.0000000000000D+00
412  4.1100000000000D+00  0.0000000000000D+00  0.0000000000000D+00
413  4.1200000000000D+00  0.0000000000000D+00  0.0000000000000D+00
414  4.1300000000000D+00  0.0000000000000D+00  0.0000000000000D+00
415  4.1400000000000D+00  0.0000000000000D+00  0.0000000000000D+00
416  4.1500000000000D+00  0.0000000000000D+00  0.0000000000000D+00
417  4.1600000000000D+00  0.0000000000000D+00  0.0000000000000D+00
418  4.1700000000000D+00  0.0000000000000D+00  0.0000000000000D+00
419  4.1800000000000D+00  0.0000000000000D+00  0.0000000000000D+00
420  4.1900000000000D+00  0.0000000000000D+00  0.0000000000000D+00
421  4.2000000000000D+00  0.0000000000000D+00  0.0000000000000D+00
422  4.2100000000000D+00  0.0000000000000D+00  0.0000000000000D+00
423  4.2200000000000D+00  0.0000000000000D+00  0.0000000000000D+00
424  4.2300000000000D+00  0.0000000000000D+00  0.0000000000000D+00
425  4.2400000000000D+00  0.0000000000000D+00  0.0000000000000D+00
426  4.2500000000000D+00  0.0000000000000D+00  0.0000000000000D+00
427  4.2600000000000D+00  0.0000000000000D+00  0.0000000000000D+00
428  4.2700000000000D+00  0.0000000000000D+00  0.0000000000000D+00
429  4.2800000000000D+00  0.0000000000000D+00  0.0000000000000D+00
430  4.2900000000000D+00  0.0000000000000D+00  0.0000000000000D+00
431  4.3000000000000D+00  0.0000000000000D+00  0.0000000000000D+00
432  4.3100000000000D+00  0.0000000000000D+00  0.0000000000000D+00
433  4.3200000000000D+00  0.0000000000000D+00  0.0000000000000D+00
434  4.3300000000000D+00  0.0000000000000D+00  0.0000000000000D+00
435  4.3400000000000D+00  0.0000000000000D+00  0.0000000000000D+00
436  4.3500000000000D+00  0.0000000000000D+00  0.0000000000000D+00
437  4.3600000000000D+00  0.0000000000000D+00  0.0000000000000D+00
438  4.3700000000000D+00  0.0000000000000D+00  0.0000000000000D+00
439  4.3800000000000D+00  0.0000000000000D+00  0.0000000000000D+00
440  4.3900000000000D+00  0.0000000000000D+00  0.0000000000000D+00
441  4.4000000000000D+00  0.0000000000000D+00  0.0000000000000D+00
442  4.4100000000000D+00  0.0000000000000D+00  0.0000000000000D+00
443  4.4200000000000D+00  0.0000000000000D+00  0.0000000000000D+00