Au    ONCVPSP  r_core=  1.46  1.56  1.46  1.51
79.0000     19.0000      160315    zatom,zion,pspd
8   -1013   3     4   500     0    pspcod,pspxc,lmax,lloc,mmax,r2well
4.99000000  9.00000000  0.00000000    rchrg fchrg qchrg
2     2     2     1     0    nproj
1                 extension_switch
0                         9.4499525739377D+00 -2.0031307164763D-01
1  0.0000000000000D+00 -5.2545134909820D-10 -4.9634637511176D-09
2  1.0000000000000D-02  8.1258082375409D-02  4.3595311381731D-02
3  2.0000000000000D-02  1.6229305800704D-01  8.6758120946480D-02
4  3.0000000000000D-02  2.4288287721988D-01  1.2906178719260D-01
5  4.0000000000000D-02  3.2280759698627D-01  1.7009128410193D-01
6  5.0000000000000D-02  4.0185041392285D-01  2.0944876593388D-01
7  6.0000000000000D-02  4.7979867152805D-01  2.4675886326296D-01
8  7.0000000000000D-02  5.5644483290385D-01  2.8167363576402D-01
9  8.0000000000000D-02  6.3158741073109D-01  3.1387711221302D-01
10  9.0000000000000D-02  7.0503184688164D-01  3.4308935420430D-01
11  1.0000000000000D-01  7.7659133474499D-01  3.6906998708969D-01
12  1.1000000000000D-01  8.4608757811044D-01  3.9162114950920D-01
13  1.2000000000000D-01  9.1335148126911D-01  4.1058982148071D-01
14  1.3000000000000D-01  9.7822376587069D-01  4.2586950021543D-01
15  1.4000000000000D-01  1.0405555109761D+00  4.3740120248052D-01
16  1.5000000000000D-01  1.1002086136777D+00  4.4517378229411D-01
17  1.6000000000000D-01  1.1570561685991D+00  4.4922356285686D-01
18  1.7000000000000D-01  1.2109827655285D+00  4.4963329174430D-01
19  1.8000000000000D-01  1.2618847053643D+00  4.4653043835327D-01
20  1.9000000000000D-01  1.3096701354567D+00  4.4008486226252D-01
21  2.0000000000000D-01  1.3542591062896D+00  4.3050589038920D-01
22  2.1000000000000D-01  1.3955835522727D+00  4.1803884946052D-01
23  2.2000000000000D-01  1.4335872001675D+00  4.0296110824749D-01
24  2.3000000000000D-01  1.4682254093723D+00  3.8557769110763D-01
25  2.4000000000000D-01  1.4994649489101D+00  3.6621653055302D-01
26  2.5000000000000D-01  1.5272837165046D+00  3.4522343171007D-01
27  2.6000000000000D-01  1.5516704055849D+00  3.2295682559297D-01
28  2.7000000000000D-01  1.5726241264213D+00  2.9978239101815D-01
29  2.8000000000000D-01  1.5901539878671D+00  2.7606762670089D-01
30  2.9000000000000D-01  1.6042786463523D+00  2.5217645557594D-01
31  3.0000000000000D-01  1.6150258288551D+00  2.2846394266536D-01
32  3.1000000000000D-01  1.6224318365608D+00  2.0527120589442D-01
33  3.2000000000000D-01  1.6265410358038D+00  1.8292059615778D-01
34  3.3000000000000D-01  1.6274053426929D+00  1.6171121871367D-01
35  3.4000000000000D-01  1.6250837075333D+00  1.4191486269461D-01
36  3.5000000000000D-01  1.6196416047946D+00  1.2377239925073D-01
37  3.6000000000000D-01  1.6111505339397D+00  1.0749070167551D-01
38  3.7000000000000D-01  1.5996875359273D+00  9.3240132913202D-02
39  3.8000000000000D-01  1.5853347296429D+00  8.1152637224567D-02
40  3.9000000000000D-01  1.5681788719132D+00  7.1320463621434D-02
41  4.0000000000000D-01  1.5483109441113D+00  6.3795539104239D-02
42  4.1000000000000D-01  1.5258257676978D+00  5.8589499886091D-02
43  4.2000000000000D-01  1.5008216503544D+00  5.5674378809664D-02
44  4.3000000000000D-01  1.4734000636744D+00  5.4983937198592D-02
45  4.4000000000000D-01  1.4436653526923D+00  5.6415619580954D-02
46  4.5000000000000D-01  1.4117244768550D+00  5.9833100219088D-02
47  4.6000000000000D-01  1.3776867813972D+00  6.5069381314230D-02
48  4.7000000000000D-01  1.3416637974628D+00  7.1930394259899D-02
49  4.8000000000000D-01  1.3037690687496D+00  8.0199047516125D-02
50  4.9000000000000D-01  1.2641180019324D+00  8.9639657682122D-02
51  5.0000000000000D-01  1.2228277376610D+00  1.0000269426130D-01
52  5.1000000000000D-01  1.1800170385362D+00  1.1102976352963D-01
53  5.2000000000000D-01  1.1358061901443D+00  1.2245875291024D-01
54  5.3000000000000D-01  1.0903169109831D+00  1.3402905439102D-01
55  5.4000000000000D-01  1.0436722669473D+00  1.4548678383788D-01
56  5.5000000000000D-01  9.9599658595349D-01  1.5658991258680D-01
57  5.6000000000000D-01  9.4741536828533D-01  1.6711322845724D-01
58  5.7000000000000D-01  8.9805518831711D-01  1.7685304530700D-01
59  5.8000000000000D-01  8.4804358343785D-01  1.8563158343763D-01
60  5.9000000000000D-01  7.9750892623745D-01  1.9330094749395D-01
61  6.0000000000000D-01  7.4658027633391D-01  1.9974663397389D-01
62  6.1000000000000D-01  6.9538720860599D-01  2.0489050694110D-01
63  6.2000000000000D-01  6.4405961504847D-01  2.0869318799512D-01
64  6.3000000000000D-01  5.9272747797680D-01  2.1115581486409D-01
65  6.4000000000000D-01  5.4152061286636D-01  2.1232113200789D-01
66  6.5000000000000D-01  4.9056837971653D-01  2.1227388633290D-01
67  6.6000000000000D-01  4.3999936246265D-01  2.1114051125667D-01
68  6.7000000000000D-01  3.8994101661750D-01  2.0908809286675D-01
69  6.8000000000000D-01  3.4051928599716D-01  2.0632262266868D-01
70  6.9000000000000D-01  2.9185819005993D-01  2.0308655217507D-01
71  7.0000000000000D-01  2.4407938405346D-01  1.9965567524599D-01
72  7.1000000000000D-01  1.9730169481600D-01  1.9633537454859D-01
73  7.2000000000000D-01  1.5164063569858D-01  1.9345627851497D-01
74  7.3000000000000D-01  1.0720790465732D-01  1.9136938465308D-01
75  7.4000000000000D-01  6.4110870101498D-02  1.9044071386950D-01
76  7.5000000000000D-01  2.2452049559508D-02  1.9104556840751D-01
77  7.6000000000000D-01 -1.7671413359176D-02  1.9356247306284D-01
78  7.7000000000000D-01 -5.6168267888702D-02  1.9836688529152D-01
79  7.8000000000000D-01 -9.2953664838409D-02  2.0582476464791D-01
80  7.9000000000000D-01 -1.2794964887405D-01  2.1628609557524D-01
81  8.0000000000000D-01 -1.6108562800302D-01  2.3007845985086D-01
82  8.1000000000000D-01 -1.9229881392129D-01  2.4750075591512D-01
83  8.2000000000000D-01 -2.2153462697720D-01  2.6881716185556D-01
84  8.3000000000000D-01 -2.4874705969885D-01  2.9425143696252D-01
85  8.4000000000000D-01 -2.7389899311730D-01  3.2398165352703D-01
86  8.5000000000000D-01 -2.9696246049435D-01  3.5813544594035D-01
87  8.6000000000000D-01 -3.1791885352863D-01  3.9678585822566D-01
88  8.7000000000000D-01 -3.3675906666127D-01  4.3994786394815D-01
89  8.8000000000000D-01 -3.5348357572738D-01  4.8757562409563D-01
90  8.9000000000000D-01 -3.6810244789397D-01  5.3956053909737D-01
91  9.0000000000000D-01 -3.8063528058062D-01  5.9573014077392D-01
92  9.1000000000000D-01 -3.9111106786683D-01  6.5584785881587D-01
93  9.2000000000000D-01 -3.9956799373853D-01  7.1961368452428D-01
94  9.3000000000000D-01 -4.0605315240563D-01  7.8666574216574D-01
95  9.4000000000000D-01 -4.1062219681942D-01  8.5658276557156D-01
96  9.5000000000000D-01 -4.1333891742265D-01  9.2888746471787D-01
97  9.6000000000000D-01 -4.1427475406141D-01  1.0030507541431D+00
98  9.7000000000000D-01 -4.1350824486527D-01  1.0784968023877D+00
99  9.8000000000000D-01 -4.1112441675092D-01  1.1546088492850D+00
100  9.9000000000000D-01 -4.0721412300104D-01  1.2307357262573D+00
101  1.0000000000000D+00 -4.0187333411050D-01  1.3061990038347D+00
102  1.0100000000000D+00 -3.9520238878286D-01  1.3803006802936D+00
103  1.0200000000000D+00 -3.8730521254174D-01  1.4523313165229D+00
104  1.0300000000000D+00 -3.7828851193615D-01  1.5215785143135D+00
105  1.0400000000000D+00 -3.6826095272918D-01  1.5873356288132D+00
106  1.0500000000000D+00 -3.5733233076016D-01  1.6489106009173D+00
107  1.0600000000000D+00 -3.4561274436455D-01  1.7056347919789D+00
108  1.0700000000000D+00 -3.3321177732057D-01  1.7568717012062D+00
109  1.0800000000000D+00 -3.2023770123918D-01  1.8020254461966D+00
110  1.0900000000000D+00 -3.0679670615451D-01  1.8405488885460D+00
111  1.1000000000000D+00 -2.9299216776207D-01  1.8719512901269D+00
112  1.1100000000000D+00 -2.7892395942322D-01  1.8958053896405D+00
113  1.1200000000000D+00 -2.6468781643839D-01  1.9117537969544D+00
114  1.1300000000000D+00 -2.5037475954385D-01  1.9195146099285D+00
115  1.1400000000000D+00 -2.3607058371566D-01  1.9188861700212D+00
116  1.1500000000000D+00 -2.2185541782420D-01  1.9097508801895D+00
117  1.1600000000000D+00 -2.0780335942868D-01  1.8920780255549D+00
118  1.1700000000000D+00 -1.9398218822899D-01  1.8659255478772D+00
119  1.1800000000000D+00 -1.8045316050193D-01  1.8314407411776D+00
120  1.1900000000000D+00 -1.6727088606647D-01  1.7888598465862D+00
121  1.2000000000000D+00 -1.5448328776119D-01  1.7385065460718D+00
122  1.2100000000000D+00 -1.4213164244293D-01  1.6807893682612D+00
123  1.2200000000000D+00 -1.3025070166238D-01  1.6161980313819D+00
124  1.2300000000000D+00 -1.1886888863739D-01  1.5452987697542D+00
125  1.2400000000000D+00 -1.0800856709408D-01  1.4687287049859D+00
126  1.2500000000000D+00 -9.7686376764797D-02  1.3871893339587D+00
127  1.2600000000000D+00 -8.7913629213963D-02  1.3014392213601D+00
128  1.2700000000000D+00 -7.8696756433769D-02  1.2122860018442D+00
129  1.2800000000000D+00 -7.0037804308395D-02  1.1205778017530D+00
130  1.2900000000000D+00 -6.1934962143480D-02  1.0271942030312D+00
131  1.3000000000000D+00 -5.4383118528388D-02  9.3303688515919D-01
132  1.3100000000000D+00 -4.7374433862819D-02  8.3902008002950D-01
133  1.3200000000000D+00 -4.0898919082081D-02  7.4606098598998D-01
134  1.3300000000000D+00 -3.4945010036869D-02  6.5507028847350D-01
135  1.3400000000000D+00 -2.9500127032168D-02  5.6694293391461D-01
136  1.3500000000000D+00 -2.4551208666198D-02  4.8254930889691D-01
137  1.3600000000000D+00 -2.0085208679594D-02  4.0272699715605D-01
138  1.3700000000000D+00 -1.6089554531831D-02  3.2827303641210D-01
139  1.3800000000000D+00 -1.2552519525630D-02  2.5993772291163D-01
140  1.3900000000000D+00 -9.4636499111747D-03  1.9841662172130D-01
141  1.4000000000000D+00 -6.8138461337486D-03  1.4434989784093D-01
142  1.4100000000000D+00 -4.5966442175106D-03  9.8342357126384D-02
143  1.4200000000000D+00 -2.8045018572975D-03  6.0826639572547D-02
144  1.4300000000000D+00 -1.4302343029020D-03  3.2024692944326D-02
145  1.4400000000000D+00 -5.0519909047492D-04  1.2894773607310D-02
146  1.4500000000000D+00 -3.0216126940130D-05  3.3432687174832D-03
147  1.4600000000000D+00  9.1850667058237D-05  1.4937026972101D-04
148  1.4700000000000D+00  2.8869129489727D-05 -1.2807347147080D-04
149  1.4800000000000D+00 -1.8384027150638D-05  1.1036034074061D-04
150  1.4900000000000D+00 -3.3039884056930D-06  2.2865214577454D-05
151  1.5000000000000D+00  3.7607830035401D-06 -1.7038114515514D-05
152  1.5100000000000D+00 -4.1450480298921D-08 -4.8598794907904D-07
153  1.5200000000000D+00 -2.0490120444454D-07 -2.4023730338879D-06
154  1.5300000000000D+00  0.0000000000000D+00  0.0000000000000D+00
155  1.5400000000000D+00  0.0000000000000D+00  0.0000000000000D+00
156  1.5500000000000D+00  0.0000000000000D+00  0.0000000000000D+00
157  1.5600000000000D+00  0.0000000000000D+00  0.0000000000000D+00
158  1.5700000000000D+00  0.0000000000000D+00  0.0000000000000D+00
159  1.5800000000000D+00  0.0000000000000D+00  0.0000000000000D+00
160  1.5900000000000D+00  0.0000000000000D+00  0.0000000000000D+00
161  1.6000000000000D+00  0.0000000000000D+00  0.0000000000000D+00
162  1.6100000000000D+00  0.0000000000000D+00  0.0000000000000D+00
163  1.6200000000000D+00  0.0000000000000D+00  0.0000000000000D+00
164  1.6300000000000D+00  0.0000000000000D+00  0.0000000000000D+00
165  1.6400000000000D+00  0.0000000000000D+00  0.0000000000000D+00
166  1.6500000000000D+00  0.0000000000000D+00  0.0000000000000D+00
167  1.6600000000000D+00  0.0000000000000D+00  0.0000000000000D+00
168  1.6700000000000D+00  0.0000000000000D+00  0.0000000000000D+00
169  1.6800000000000D+00  0.0000000000000D+00  0.0000000000000D+00
170  1.6900000000000D+00  0.0000000000000D+00  0.0000000000000D+00
171  1.7000000000000D+00  0.0000000000000D+00  0.0000000000000D+00
172  1.7100000000000D+00  0.0000000000000D+00  0.0000000000000D+00
173  1.7200000000000D+00  0.0000000000000D+00  0.0000000000000D+00
174  1.7300000000000D+00  0.0000000000000D+00  0.0000000000000D+00
175  1.7400000000000D+00  0.0000000000000D+00  0.0000000000000D+00
176  1.7500000000000D+00  0.0000000000000D+00  0.0000000000000D+00
177  1.7600000000000D+00  0.0000000000000D+00  0.0000000000000D+00
178  1.7700000000000D+00  0.0000000000000D+00  0.0000000000000D+00
179  1.7800000000000D+00  0.0000000000000D+00  0.0000000000000D+00
180  1.7900000000000D+00  0.0000000000000D+00  0.0000000000000D+00
181  1.8000000000000D+00  0.0000000000000D+00  0.0000000000000D+00
182  1.8100000000000D+00  0.0000000000000D+00  0.0000000000000D+00
183  1.8200000000000D+00  0.0000000000000D+00  0.0000000000000D+00
184  1.8300000000000D+00  0.0000000000000D+00  0.0000000000000D+00
185  1.8400000000000D+00  0.0000000000000D+00  0.0000000000000D+00
186  1.8500000000000D+00  0.0000000000000D+00  0.0000000000000D+00
187  1.8600000000000D+00  0.0000000000000D+00  0.0000000000000D+00
188  1.8700000000000D+00  0.0000000000000D+00  0.0000000000000D+00
189  1.8800000000000D+00  0.0000000000000D+00  0.0000000000000D+00
190  1.8900000000000D+00  0.0000000000000D+00  0.0000000000000D+00
191  1.9000000000000D+00  0.0000000000000D+00  0.0000000000000D+00
192  1.9100000000000D+00  0.0000000000000D+00  0.0000000000000D+00
193  1.9200000000000D+00  0.0000000000000D+00  0.0000000000000D+00
194  1.9300000000000D+00  0.0000000000000D+00  0.0000000000000D+00
195  1.9400000000000D+00  0.0000000000000D+00  0.0000000000000D+00
196  1.9500000000000D+00  0.0000000000000D+00  0.0000000000000D+00
197  1.9600000000000D+00  0.0000000000000D+00  0.0000000000000D+00
198  1.9700000000000D+00  0.0000000000000D+00  0.0000000000000D+00
199  1.9800000000000D+00  0.0000000000000D+00  0.0000000000000D+00
200  1.9900000000000D+00  0.0000000000000D+00  0.0000000000000D+00
201  2.0000000000000D+00  0.0000000000000D+00  0.0000000000000D+00
202  2.0100000000000D+00  0.0000000000000D+00  0.0000000000000D+00
203  2.0200000000000D+00  0.0000000000000D+00  0.0000000000000D+00
204  2.0300000000000D+00  0.0000000000000D+00  0.0000000000000D+00
205  2.0400000000000D+00  0.0000000000000D+00  0.0000000000000D+00
206  2.0500000000000D+00  0.0000000000000D+00  0.0000000000000D+00
207  2.0600000000000D+00  0.0000000000000D+00  0.0000000000000D+00
208  2.0700000000000D+00  0.0000000000000D+00  0.0000000000000D+00
209  2.0800000000000D+00  0.0000000000000D+00  0.0000000000000D+00
210  2.0900000000000D+00  0.0000000000000D+00  0.0000000000000D+00
211  2.1000000000000D+00  0.0000000000000D+00  0.0000000000000D+00
212  2.1100000000000D+00  0.0000000000000D+00  0.0000000000000D+00
213  2.1200000000000D+00  0.0000000000000D+00  0.0000000000000D+00
214  2.1300000000000D+00  0.0000000000000D+00  0.0000000000000D+00
215  2.1400000000000D+00  0.0000000000000D+00  0.0000000000000D+00
216  2.1500000000000D+00  0.0000000000000D+00  0.0000000000000D+00
217  2.1600000000000D+00  0.0000000000000D+00  0.0000000000000D+00
218  2.1700000000000D+00  0.0000000000000D+00  0.0000000000000D+00
219  2.1800000000000D+00  0.0000000000000D+00  0.0000000000000D+00
220  2.1900000000000D+00  0.0000000000000D+00  0.0000000000000D+00
221  2.2000000000000D+00  0.0000000000000D+00  0.0000000000000D+00
222  2.2100000000000D+00  0.0000000000000D+00  0.0000000000000D+00
223  2.2200000000000D+00  0.0000000000000D+00  0.0000000000000D+00
224  2.2300000000000D+00  0.0000000000000D+00  0.0000000000000D+00
225  2.2400000000000D+00  0.0000000000000D+00  0.0000000000000D+00
226  2.2500000000000D+00  0.0000000000000D+00  0.0000000000000D+00
227  2.2600000000000D+00  0.0000000000000D+00  0.0000000000000D+00
228  2.2700000000000D+00  0.0000000000000D+00  0.0000000000000D+00
229  2.2800000000000D+00  0.0000000000000D+00  0.0000000000000D+00
230  2.2900000000000D+00  0.0000000000000D+00  0.0000000000000D+00
231  2.3000000000000D+00  0.0000000000000D+00  0.0000000000000D+00
232  2.3100000000000D+00  0.0000000000000D+00  0.0000000000000D+00
233  2.3200000000000D+00  0.0000000000000D+00  0.0000000000000D+00
234  2.3300000000000D+00  0.0000000000000D+00  0.0000000000000D+00
235  2.3400000000000D+00  0.0000000000000D+00  0.0000000000000D+00
236  2.3500000000000D+00  0.0000000000000D+00  0.0000000000000D+00
237  2.3600000000000D+00  0.0000000000000D+00  0.0000000000000D+00
238  2.3700000000000D+00  0.0000000000000D+00  0.0000000000000D+00
239  2.3800000000000D+00  0.0000000000000D+00  0.0000000000000D+00
240  2.3900000000000D+00  0.0000000000000D+00  0.0000000000000D+00
241  2.4000000000000D+00  0.0000000000000D+00  0.0000000000000D+00
242  2.4100000000000D+00  0.0000000000000D+00  0.0000000000000D+00
243  2.4200000000000D+00  0.0000000000000D+00  0.0000000000000D+00
244  2.4300000000000D+00  0.0000000000000D+00  0.0000000000000D+00
245  2.4400000000000D+00  0.0000000000000D+00  0.0000000000000D+00
246  2.4500000000000D+00  0.0000000000000D+00  0.0000000000000D+00
247  2.4600000000000D+00  0.0000000000000D+00  0.0000000000000D+00
248  2.4700000000000D+00  0.0000000000000D+00  0.0000000000000D+00
249  2.4800000000000D+00  0.0000000000000D+00  0.0000000000000D+00
250  2.4900000000000D+00  0.0000000000000D+00  0.0000000000000D+00
251  2.5000000000000D+00  0.0000000000000D+00  0.0000000000000D+00
252  2.5100000000000D+00  0.0000000000000D+00  0.0000000000000D+00
253  2.5200000000000D+00  0.0000000000000D+00  0.0000000000000D+00
254  2.5300000000000D+00  0.0000000000000D+00  0.0000000000000D+00
255  2.5400000000000D+00  0.0000000000000D+00  0.0000000000000D+00
256  2.5500000000000D+00  0.0000000000000D+00  0.0000000000000D+00
257  2.5600000000000D+00  0.0000000000000D+00  0.0000000000000D+00
258  2.5700000000000D+00  0.0000000000000D+00  0.0000000000000D+00
259  2.5800000000000D+00  0.0000000000000D+00  0.0000000000000D+00
260  2.5900000000000D+00  0.0000000000000D+00  0.0000000000000D+00
261  2.6000000000000D+00  0.0000000000000D+00  0.0000000000000D+00
262  2.6100000000000D+00  0.0000000000000D+00  0.0000000000000D+00
263  2.6200000000000D+00  0.0000000000000D+00  0.0000000000000D+00
264  2.6300000000000D+00  0.0000000000000D+00  0.0000000000000D+00
265  2.6400000000000D+00  0.0000000000000D+00  0.0000000000000D+00
266  2.6500000000000D+00  0.0000000000000D+00  0.0000000000000D+00
267  2.6600000000000D+00  0.0000000000000D+00  0.0000000000000D+00
268  2.6700000000000D+00  0.0000000000000D+00  0.0000000000000D+00
269  2.6800000000000D+00  0.0000000000000D+00  0.0000000000000D+00
270  2.6900000000000D+00  0.0000000000000D+00  0.0000000000000D+00
271  2.7000000000000D+00  0.0000000000000D+00  0.0000000000000D+00
272  2.7100000000000D+00  0.0000000000000D+00  0.0000000000000D+00
273  2.7200000000000D+00  0.0000000000000D+00  0.0000000000000D+00
274  2.7300000000000D+00  0.0000000000000D+00  0.0000000000000D+00
275  2.7400000000000D+00  0.0000000000000D+00  0.0000000000000D+00
276  2.7500000000000D+00  0.0000000000000D+00  0.0000000000000D+00
277  2.7600000000000D+00  0.0000000000000D+00  0.0000000000000D+00
278  2.7700000000000D+00  0.0000000000000D+00  0.0000000000000D+00
279  2.7800000000000D+00  0.0000000000000D+00  0.0000000000000D+00
280  2.7900000000000D+00  0.0000000000000D+00  0.0000000000000D+00
281  2.8000000000000D+00  0.0000000000000D+00  0.0000000000000D+00
282  2.8100000000000D+00  0.0000000000000D+00  0.0000000000000D+00
283  2.8200000000000D+00  0.0000000000000D+00  0.0000000000000D+00
284  2.8300000000000D+00  0.0000000000000D+00  0.0000000000000D+00
285  2.8400000000000D+00  0.0000000000000D+00  0.0000000000000D+00
286  2.8500000000000D+00  0.0000000000000D+00  0.0000000000000D+00
287  2.8600000000000D+00  0.0000000000000D+00  0.0000000000000D+00
288  2.8700000000000D+00  0.0000000000000D+00  0.0000000000000D+00
289  2.8800000000000D+00  0.0000000000000D+00  0.0000000000000D+00
290  2.8900000000000D+00  0.0000000000000D+00  0.0000000000000D+00
291  2.9000000000000D+00  0.0000000000000D+00  0.0000000000000D+00
292  2.9100000000000D+00  0.0000000000000D+00  0.0000000000000D+00
293  2.9200000000000D+00  0.0000000000000D+00  0.0000000000000D+00
294  2.9300000000000D+00  0.0000000000000D+00  0.0000000000000D+00
295  2.9400000000000D+00  0.0000000000000D+00  0.0000000000000D+00
296  2.9500000000000D+00  0.0000000000000D+00  0.0000000000000D+00
297  2.9600000000000D+00  0.0000000000000D+00  0.0000000000000D+00
298  2.9700000000000D+00  0.0000000000000D+00  0.0000000000000D+00
299  2.9800000000000D+00  0.0000000000000D+00  0.0000000000000D+00
300  2.9900000000000D+00  0.0000000000000D+00  0.0000000000000D+00
301  3.0000000000000D+00  0.0000000000000D+00  0.0000000000000D+00
302  3.0100000000000D+00  0.0000000000000D+00  0.0000000000000D+00
303  3.0200000000000D+00  0.0000000000000D+00  0.0000000000000D+00
304  3.0300000000000D+00  0.0000000000000D+00  0.0000000000000D+00
305  3.0400000000000D+00  0.0000000000000D+00  0.0000000000000D+00
306  3.0500000000000D+00  0.0000000000000D+00  0.0000000000000D+00
307  3.0600000000000D+00  0.0000000000000D+00  0.0000000000000D+00
308  3.0700000000000D+00  0.0000000000000D+00  0.0000000000000D+00
309  3.0800000000000D+00  0.0000000000000D+00  0.0000000000000D+00
310  3.0900000000000D+00  0.0000000000000D+00  0.0000000000000D+00
311  3.1000000000000D+00  0.0000000000000D+00  0.0000000000000D+00
312  3.1100000000000D+00  0.0000000000000D+00  0.0000000000000D+00
313  3.1200000000000D+00  0.0000000000000D+00  0.0000000000000D+00
314  3.1300000000000D+00  0.0000000000000D+00  0.0000000000000D+00
315  3.1400000000000D+00  0.0000000000000D+00  0.0000000000000D+00
316  3.1500000000000D+00  0.0000000000000D+00  0.0000000000000D+00
317  3.1600000000000D+00  0.0000000000000D+00  0.0000000000000D+00
318  3.1700000000000D+00  0.0000000000000D+00  0.0000000000000D+00
319  3.1800000000000D+00  0.0000000000000D+00  0.0000000000000D+00
320  3.1900000000000D+00  0.0000000000000D+00  0.0000000000000D+00
321  3.2000000000000D+00  0.0000000000000D+00  0.0000000000000D+00
322  3.2100000000000D+00  0.0000000000000D+00  0.0000000000000D+00
323  3.2200000000000D+00  0.0000000000000D+00  0.0000000000000D+00
324  3.2300000000000D+00  0.0000000000000D+00  0.0000000000000D+00
325  3.2400000000000D+00  0.0000000000000D+00  0.0000000000000D+00
326  3.2500000000000D+00  0.0000000000000D+00  0.0000000000000D+00
327  3.2600000000000D+00  0.0000000000000D+00  0.0000000000000D+00
328  3.2700000000000D+00  0.0000000000000D+00  0.0000000000000D+00
329  3.2800000000000D+00  0.0000000000000D+00  0.0000000000000D+00
330  3.2900000000000D+00  0.0000000000000D+00  0.0000000000000D+00
331  3.3000000000000D+00  0.0000000000000D+00  0.0000000000000D+00
332  3.3100000000000D+00  0.0000000000000D+00  0.0000000000000D+00
333  3.3200000000000D+00  0.0000000000000D+00  0.0000000000000D+00
334  3.3300000000000D+00  0.0000000000000D+00  0.0000000000000D+00
335  3.3400000000000D+00  0.0000000000000D+00  0.0000000000000D+00
336  3.3500000000000D+00  0.0000000000000D+00  0.0000000000000D+00
337  3.3600000000000D+00  0.0000000000000D+00  0.0000000000000D+00
338  3.3700000000000D+00  0.0000000000000D+00  0.0000000000000D+00
339  3.3800000000000D+00  0.0000000000000D+00  0.0000000000000D+00
340  3.3900000000000D+00  0.0000000000000D+00  0.0000000000000D+00
341  3.4000000000000D+00  0.0000000000000D+00  0.0000000000000D+00
342  3.4100000000000D+00  0.0000000000000D+00  0.0000000000000D+00
343  3.4200000000000D+00  0.0000000000000D+00  0.0000000000000D+00
344  3.4300000000000D+00  0.0000000000000D+00  0.0000000000000D+00
345  3.4400000000000D+00  0.0000000000000D+00  0.0000000000000D+00
346  3.4500000000000D+00  0.0000000000000D+00  0.0000000000000D+00
347  3.4600000000000D+00  0.0000000000000D+00  0.0000000000000D+00
348  3.4700000000000D+00  0.0000000000000D+00  0.0000000000000D+00
349  3.4800000000000D+00  0.0000000000000D+00  0.0000000000000D+00
350  3.4900000000000D+00  0.0000000000000D+00  0.0000000000000D+00
351  3.5000000000000D+00  0.0000000000000D+00  0.0000000000000D+00
352  3.5100000000000D+00  0.0000000000000D+00  0.0000000000000D+00
353  3.5200000000000D+00  0.0000000000000D+00  0.0000000000000D+00
354  3.5300000000000D+00  0.0000000000000D+00  0.0000000000000D+00
355  3.5400000000000D+00  0.0000000000000D+00  0.0000000000000D+00
356  3.5500000000000D+00  0.0000000000000D+00  0.0000000000000D+00
357  3.5600000000000D+00  0.0000000000000D+00  0.0000000000000D+00
358  3.5700000000000D+00  0.0000000000000D+00  0.0000000000000D+00
359  3.5800000000000D+00  0.0000000000000D+00  0.0000000000000D+00
360  3.5900000000000D+00  0.0000000000000D+00  0.0000000000000D+00
361  3.6000000000000D+00  0.0000000000000D+00  0.0000000000000D+00
362  3.6100000000000D+00  0.0000000000000D+00  0.0000000000000D+00
363  3.6200000000000D+00  0.0000000000000D+00  0.0000000000000D+00
364  3.6300000000000D+00  0.0000000000000D+00  0.0000000000000D+00
365  3.6400000000000D+00  0.0000000000000D+00  0.0000000000000D+00
366  3.6500000000000D+00  0.0000000000000D+00  0.0000000000000D+00
367  3.6600000000000D+00  0.0000000000000D+00  0.0000000000000D+00
368  3.6700000000000D+00  0.0000000000000D+00  0.0000000000000D+00
369  3.6800000000000D+00  0.0000000000000D+00  0.0000000000000D+00
370  3.6900000000000D+00  0.0000000000000D+00  0.0000000000000D+00
371  3.7000000000000D+00  0.0000000000000D+00  0.0000000000000D+00
372  3.7100000000000D+00  0.0000000000000D+00  0.0000000000000D+00
373  3.7200000000000D+00  0.0000000000000D+00  0.0000000000000D+00
374  3.7300000000000D+00  0.0000000000000D+00  0.0000000000000D+00
375  3.7400000000000D+00  0.0000000000000D+00  0.0000000000000D+00
376  3.7500000000000D+00  0.0000000000000D+00  0.0000000000000D+00
377  3.7600000000000D+00  0.0000000000000D+00  0.0000000000000D+00
378  3.7700000000000D+00  0.0000000000000D+00  0.0000000000000D+00
379  3.7800000000000D+00  0.0000000000000D+00  0.0000000000000D+00
380  3.7900000000000D+00  0.0000000000000D+00  0.0000000000000D+00
381  3.8000000000000D+00  0.0000000000000D+00  0.0000000000000D+00
382  3.8100000000000D+00  0.0000000000000D+00  0.0000000000000D+00
383  3.8200000000000D+00  0.0000000000000D+00  0.0000000000000D+00
384  3.8300000000000D+00  0.0000000000000D+00  0.0000000000000D+00
385  3.8400000000000D+00  0.0000000000000D+00  0.0000000000000D+00
386  3.8500000000000D+00  0.0000000000000D+00  0.0000000000000D+00
387  3.8600000000000D+00  0.0000000000000D+00  0.0000000000000D+00
388  3.8700000000000D+00  0.0000000000000D+00  0.0000000000000D+00
389  3.8800000000000D+00  0.0000000000000D+00  0.0000000000000D+00
390  3.8900000000000D+00  0.0000000000000D+00  0.0000000000000D+00
391  3.9000000000000D+00  0.0000000000000D+00  0.0000000000000D+00
392  3.9100000000000D+00  0.0000000000000D+00  0.0000000000000D+00
393  3.9200000000000D+00  0.0000000000000D+00  0.0000000000000D+00
394  3.9300000000000D+00  0.0000000000000D+00  0.0000000000000D+00
395  3.9400000000000D+00  0.0000000000000D+00  0.0000000000000D+00
396  3.9500000000000D+00  0.0000000000000D+00  0.0000000000000D+00
397  3.9600000000000D+00  0.0000000000000D+00  0.0000000000000D+00
398  3.9700000000000D+00  0.0000000000000D+00  0.0000000000000D+00
399  3.9800000000000D+00  0.0000000000000D+00  0.0000000000000D+00
400  3.9900000000000D+00  0.0000000000000D+00  0.0000000000000D+00
401  4.0000000000000D+00  0.0000000000000D+00  0.0000000000000D+00
402  4.0100000000000D+00  0.0000000000000D+00  0.0000000000000D+00
403  4.0200000000000D+00  0.0000000000000D+00  0.0000000000000D+00
404  4.0300000000000D+00  0.0000000000000D+00  0.0000000000000D+00
405  4.0400000000000D+00  0.0000000000000D+00  0.0000000000000D+00
406  4.0500000000000D+00  0.0000000000000D+00  0.0000000000000D+00
407  4.0600000000000D+00  0.0000000000000D+00  0.0000000000000D+00
408  4.0700000000000D+00  0.0000000000000D+00  0.0000000000000D+00
409  4.0800000000000D+00  0.0000000000000D+00  0.0000000000000D+00
410  4.0900000000000D+00  0.0000000000000D+00  0.0000000000000D+00
411  4.1000000000000D+00  0.0000000000000D+00  0.0000000000000D+00
412  4.1100000000000D+00  0.0000000000000D+00  0.0000000000000D+00
413  4.1200000000000D+00  0.0000000000000D+00  0.0000000000000D+00
414  4.1300000000000D+00  0.0000000000000D+00  0.0000000000000D+00
415  4.1400000000000D+00  0.0000000000000D+00  0.0000000000000D+00
416  4.1500000000000D+00  0.0000000000000D+00  0.0000000000000D+00
417  4.1600000000000D+00  0.0000000000000D+00  0.0000000000000D+00
418  4.1700000000000D+00  0.0000000000000D+00  0.0000000000000D+00
419  4.1800000000000D+00  0.0000000000000D+00  0.0000000000000D+00
420  4.1900000000000D+00  0.0000000000000D+00  0.0000000000000D+00
421  4.2000000000000D+00  0.0000000000000D+00  0.0000000000000D+00
422  4.2100000000000D+00  0.0000000000000D+00  0.0000000000000D+00
423  4.2200000000000D+00  0.0000000000000D+00  0.0000000000000D+00
424  4.2300000000000D+00  0.0000000000000D+00  0.0000000000000D+00
425  4.2400000000000D+00  0.0000000000000D+00  0.0000000000000D+00
426  4.2500000000000D+00  0.0000000000000D+00  0.0000000000000D+00
427  4.2600000000000D+00  0.0000000000000D+00  0.0000000000000D+00
428  4.2700000000000D+00  0.0000000000000D+00  0.0000000000000D+00
429  4.2800000000000D+00  0.0000000000000D+00  0.0000000000000D+00
430  4.2900000000000D+00  0.0000000000000D+00  0.0000000000000D+00
431  4.3000000000000D+00  0.0000000000000D+00  0.0000000000000D+00
432  4.3100000000000D+00  0.0000000000000D+00  0.0000000000000D+00
433  4.3200000000000D+00  0.0000000000000D+00  0.0000000000000D+00
434  4.3300000000000D+00  0.0000000000000D+00  0.0000000000000D+00
435  4.3400000000000D+00  0.0000000000000D+00  0.0000000000000D+00
436  4.3500000000000D+00  0.0000000000000D+00  0.0000000000000D+00
437  4.3600000000000D+00  0.0000000000000D+00  0.0000000000000D+00
438  4.3700000000000D+00  0.0000000000000D+00  0.0000000000000D+00
439  4.3800000000000D+00  0.0000000000000D+00  0.0000000000000D+00
440  4.3900000000000D+00  0.0000000000000D+00  0.0000000000000D+00
441  4.4000000000000D+00  0.0000000000000D+00  0.0000000000000D+00
442  4.4100000000000D+00  0.0000000000000D+00  0.0000000000000D+00
443  4.4200000000000D+00  0.0000000000000D+00  0.0000000000000D+00