Ir    ONCVPSP-3.3.0  r_core=   1.66316   1.66316   1.51179   2.26792
77.0000     17.0000      171127    zatom,zion,pspd
8   -1012   3     4   500     0    pspcod,pspxc,lmax,lloc,mmax,r2well
4.99000000  5.00000000  0.00000000    rchrg fchrg qchrg
2     2     2     2     0    nproj
1     1           extension_switch
0                         1.5016916190803D+01  1.8160741075386D+00
1  0.0000000000000D+00 -8.4170448388932D-11  1.7748547076479D-10
2  1.0000000000000D-02  7.3686115504416D-02 -1.3910343447607D-02
3  2.0000000000000D-02  1.4720398268785D-01 -2.7695632470139D-02
4  3.0000000000000D-02  2.2038586193398D-01 -4.1231460482275D-02
5  4.0000000000000D-02  2.9306502852512D-01 -5.4394711897771D-02
6  5.0000000000000D-02  3.6507627383666D-01 -6.7064195973499D-02
7  6.0000000000000D-02  4.3625639908567D-01 -7.9121266793989D-02
8  7.0000000000000D-02  5.0644469925198D-01 -9.0450424987093D-02
9  8.0000000000000D-02  5.7548343487348D-01 -1.0093989693887D-01
10  9.0000000000000D-02  6.4321828952169D-01 -1.1048218749422D-01
11  1.0000000000000D-01  7.0949881088492D-01 -1.1897460238672D-01
12  1.1000000000000D-01  7.7417883352544D-01 -1.2631973693397D-01
13  1.2000000000000D-01  8.3711688153137D-01 -1.3242592786024D-01
14  1.3000000000000D-01  8.9817654945215D-01 -1.3720766546331D-01
15  1.4000000000000D-01  9.5722686008668D-01 -1.4058596372281D-01
16  1.5000000000000D-01  1.0141425978837D+00 -1.4248868634942D-01
17  1.6000000000000D-01  1.0688046169124D+00 -1.4285082719370D-01
18  1.7000000000000D-01  1.1211001225664D+00 -1.4161474386566D-01
19  1.8000000000000D-01  1.1709229263710D+00 -1.3873034385625D-01
20  1.9000000000000D-01  1.2181736734760D+00 -1.3415522289616D-01
21  2.0000000000000D-01  1.2627600426237D+00 -1.2785475572989D-01
22  2.1000000000000D-01  1.3045969185882D+00 -1.1980213991962D-01
23  2.2000000000000D-01  1.3436065372849D+00 -1.0997839371930D-01
24  2.3000000000000D-01  1.3797186039420D+00 -9.8372309469747D-02
25  2.4000000000000D-01  1.4128703849086D+00 -8.4980364356713D-02
26  2.5000000000000D-01  1.4430067738527D+00 -6.9806590739511D-02
27  2.6000000000000D-01  1.4700803332543D+00 -5.2862408597147D-02
28  2.7000000000000D-01  1.4940513122518D+00 -3.4166422944795D-02
29  2.8000000000000D-01  1.5148876420236D+00 -1.3744189344843D-02
30  2.9000000000000D-01  1.5325649099983D+00  8.3720491301991D-03
31  3.0000000000000D-01  1.5470663142803D+00  3.2143649933934D-02
32  3.1000000000000D-01  1.5583825997465D+00  5.7525880383288D-02
33  3.2000000000000D-01  1.5665119773251D+00  8.4468244494942D-02
34  3.3000000000000D-01  1.5714600279917D+00  1.1291482346056D-01
35  3.4000000000000D-01  1.5732395930321D+00  1.4280462588995D-01
36  3.5000000000000D-01  1.5718706521053D+00  1.7407194398596D-01
37  3.6000000000000D-01  1.5673801906068D+00  2.0664671189787D-01
38  3.7000000000000D-01  1.5598020577793D+00  2.4045486262710D-01
39  3.8000000000000D-01  1.5491768169435D+00  2.7541868003124D-01
40  3.9000000000000D-01  1.5355515891301D+00  3.1145714268626D-01
41  4.0000000000000D-01  1.5189798912824D+00  3.4848625662058D-01
42  4.1000000000000D-01  1.4995214700783D+00  3.8641937422458D-01
43  4.2000000000000D-01  1.4772421322765D+00  4.2516749696349D-01
44  4.3000000000000D-01  1.4522135723443D+00  4.6463955987341D-01
45  4.4000000000000D-01  1.4245131979633D+00  5.0474269619926D-01
46  4.5000000000000D-01  1.3942239538387D+00  5.4538248093089D-01
47  4.6000000000000D-01  1.3614341440695D+00  5.8646315240798D-01
48  4.7000000000000D-01  1.3262372531560D+00  6.2788781158820D-01
49  4.8000000000000D-01  1.2887317655504D+00  6.6955859900202D-01
50  4.9000000000000D-01  1.2490209834809D+00  7.1137684984621D-01
51  5.0000000000000D-01  1.2072128426136D+00  7.5324322808957D-01
52  5.1000000000000D-01  1.1634197249583D+00  7.9505784087529D-01
53  5.2000000000000D-01  1.1177582682752D+00  8.3672033489637D-01
54  5.3000000000000D-01  1.0703491711070D+00  8.7812997679118D-01
55  5.4000000000000D-01  1.0213169924394D+00  9.1918571994703D-01
56  5.5000000000000D-01  9.7078994489519D-01  9.5978626040939D-01
57  5.6000000000000D-01  9.1889968028447D-01  9.9983008486381D-01
58  5.7000000000000D-01  8.6578106627692D-01  1.0392155138875D+00
59  5.8000000000000D-01  8.1157195292577D-01  1.0778407438494D+00
60  5.9000000000000D-01  7.5641292776462D-01  1.1156038909708D+00
61  6.0000000000000D-01  7.0044705821420D-01  1.1524030411408D+00
62  6.1000000000000D-01  6.4381962008001D-01  1.1881363091054D+00
63  6.2000000000000D-01  5.8667781099208D-01  1.2227019106225D+00
64  6.3000000000000D-01  5.2917044773719D-01  1.2559982510860D+00
65  6.4000000000000D-01  4.7144764655846D-01  1.2879240339806D+00
66  6.5000000000000D-01  4.1366048565012D-01  1.3183783923273D+00
67  6.6000000000000D-01  3.5596064925285D-01  1.3472610460248D+00
68  6.7000000000000D-01  2.9850005295643D-01  1.3744724876812D+00
69  6.8000000000000D-01  2.4143045004198D-01  1.3999141991704D+00
70  6.9000000000000D-01  1.8490301894035D-01  1.4234889007388D+00
71  7.0000000000000D-01  1.2906793214712D-01  1.4451008340344D+00
72  7.1000000000000D-01  7.4073907212077D-02  1.4646560799422D+00
73  7.2000000000000D-01  2.0067740713558D-02  1.4820629115791D+00
74  7.3000000000000D-01 -3.2806173572710D-02  1.4972321822521D+00
75  7.4000000000000D-01 -8.4406340794418D-02  1.5100777476060D+00
76  7.5000000000000D-01 -1.3459467360892D-01  1.5205169205942D+00
77  7.6000000000000D-01 -1.8323701110552D-01  1.5284709573130D+00
78  7.7000000000000D-01 -2.3020364563254D-01  1.5338655711320D+00
79  7.8000000000000D-01 -2.7536985480811D-01  1.5366314719660D+00
80  7.9000000000000D-01 -3.1861643571621D-01  1.5367049269549D+00
81  8.0000000000000D-01 -3.5983023803043D-01  1.5340283382579D+00
82  8.1000000000000D-01 -3.9890469257020D-01  1.5285508331476D+00
83  8.2000000000000D-01 -4.3574033158259D-01  1.5202288610965D+00
84  8.3000000000000D-01 -4.7024529685930D-01  1.5090267921058D+00
85  8.4000000000000D-01 -5.0233583164903D-01  1.4949175101357D+00
86  8.5000000000000D-01 -5.3193675221017D-01  1.4778829951585D+00
87  8.6000000000000D-01 -5.5898189477330D-01  1.4579148870882D+00
88  8.7000000000000D-01 -5.8341453364782D-01  1.4350150246398D+00
89  8.8000000000000D-01 -6.0518776621572D-01  1.4091959520436D+00
90  8.9000000000000D-01 -6.2426486060818D-01  1.3804813864914D+00
91  9.0000000000000D-01 -6.4061956196025D-01  1.3489066392264D+00
92  9.1000000000000D-01 -6.5423635328457D-01  1.3145189833030D+00
93  9.2000000000000D-01 -6.6511066719811D-01  1.2773779612446D+00
94  9.3000000000000D-01 -6.7324904497509D-01  1.2375556261145D+00
95  9.4000000000000D-01 -6.7866923968487D-01  1.1951367098844D+00
96  9.5000000000000D-01 -6.8140026050259D-01  1.1502187134417D+00
97  9.6000000000000D-01 -6.8148235565208D-01  1.1029119131066D+00
98  9.7000000000000D-01 -6.7896693185534D-01  1.0533392791489D+00
99  9.8000000000000D-01 -6.7391640860586D-01  1.0016363024667D+00
100  9.9000000000000D-01 -6.6640400606762D-01  9.4795072634357D-01
101  1.0000000000000D+00 -6.5651346591633D-01  8.9244218101466D-01
102  1.0100000000000D+00 -6.4433870497041D-01  8.3528171962661D-01
103  1.0200000000000D+00 -6.2998340201831D-01  7.7665125508644D-01
104  1.0300000000000D+00 -6.1356051881545D-01  7.1674289822976D-01
105  1.0400000000000D+00 -5.9519175682645D-01  6.5575819874365D-01
106  1.0500000000000D+00 -5.7500695182022D-01  5.9390729117539D-01
107  1.0600000000000D+00 -5.5314340907213D-01  5.3140794945832D-01
108  1.0700000000000D+00 -5.2974518245773D-01  4.6848455429861D-01
109  1.0800000000000D+00 -5.0496230129153D-01  4.0536697875230D-01
110  1.0900000000000D+00 -4.7894994932858D-01  3.4228939831253D-01
111  1.1000000000000D+00 -4.5186760078784D-01  2.7948903260472D-01
112  1.1100000000000D+00 -4.2387811882508D-01  2.1720482680471D-01
113  1.1200000000000D+00 -3.9514682226213D-01  1.5567608158301D-01
114  1.1300000000000D+00 -3.6584052680879D-01  9.5141041166636D-02
115  1.1400000000000D+00 -3.3612656732239D-01  3.5835449687291D-02
116  1.1500000000000D+00 -3.0617180798546D-01 -2.2008913378936D-02
117  1.1600000000000D+00 -2.7614164750815D-01 -7.8165707423523D-02
118  1.1700000000000D+00 -2.4619902662192D-01 -1.3241550296942D-01
119  1.1800000000000D+00 -2.1650344524049D-01 -1.8454724014900D-01
120  1.1900000000000D+00 -1.8720999674155D-01 -2.3435966133695D-01
121  1.2000000000000D+00 -1.5846842676132D-01 -2.8166270592152D-01
122  1.2100000000000D+00 -1.3042222377298D-01 -3.2627885533371D-01
123  1.2200000000000D+00 -1.0320774866706D-01 -3.6804441649353D-01
124  1.2300000000000D+00 -7.6953410199024D-02 -4.0681073233881D-01
125  1.2400000000000D+00 -5.1778892804006D-02 -4.4244530867447D-01
126  1.2500000000000D+00 -2.7794443210480D-02 -4.7483284666458D-01
127  1.2600000000000D+00 -5.1002215126524D-03 -5.0387617150278D-01
128  1.2700000000000D+00  1.6214278139920D-02 -5.2949704862249D-01
129  1.2800000000000D+00  3.6070732201117D-02 -5.5163687899350D-01
130  1.2900000000000D+00  5.4402413779373D-02 -5.7025726680792D-01
131  1.3000000000000D+00  7.1154536865489D-02 -5.8534045409968D-01
132  1.3100000000000D+00  8.6284515434823D-02 -5.9688961668319D-01
133  1.3200000000000D+00  9.9762135756004D-02 -6.0492901851526D-01
134  1.3300000000000D+00  1.1156964092893D-01 -6.0950402276285D-01
135  1.3400000000000D+00  1.2170172629165D-01 -6.1068095719550D-01
136  1.3500000000000D+00  1.3016544693538D-01 -6.0854683590991D-01
137  1.3600000000000D+00  1.3698003815468D-01 -6.0320893871260D-01
138  1.3700000000000D+00  1.4217665025923D-01 -5.9479425048278D-01
139  1.3800000000000D+00  1.4579800150531D-01 -5.8344876682112D-01
140  1.3900000000000D+00  1.4789795165201D-01 -5.6933667015057D-01
141  1.4000000000000D+00  1.4854100084498D-01 -5.5263938418381D-01
142  1.4100000000000D+00  1.4780171922888D-01 -5.3355451588425D-01
143  1.4200000000000D+00  1.4576411176457D-01 -5.1229469244618D-01
144  1.4300000000000D+00  1.4252092597875D-01 -4.8908630641618D-01
145  1.4400000000000D+00  1.3817290834527D-01 -4.6416817858788D-01
146  1.4500000000000D+00  1.3282801724411D-01 -4.3779015216926D-01
147  1.4600000000000D+00  1.2660060167829D-01 -4.1021163436263D-01
148  1.4700000000000D+00  1.1961054983725D-01 -3.8170009081078D-01
149  1.4800000000000D+00  1.1198242868655D-01 -3.5252953336746D-01
150  1.4900000000000D+00  1.0384455561827D-01 -3.2297887620764D-01
151  1.5000000000000D+00  9.5328032978947D-02 -2.9333021460775D-01
152  1.5100000000000D+00  8.6566574436591D-02 -2.6386878392894D-01
153  1.5200000000000D+00  7.7694434397938D-02 -2.3487890592977D-01
154  1.5300000000000D+00  6.8843420564392D-02 -2.0663797518282D-01
155  1.5400000000000D+00  6.0140270208805D-02 -1.7941132170196D-01
156  1.5500000000000D+00  5.1703449765613D-02 -1.5344586577449D-01
157  1.5600000000000D+00  4.3642735795551D-02 -1.2896965735949D-01
158  1.5700000000000D+00  3.6058577605682D-02 -1.0619095026934D-01
159  1.5800000000000D+00  2.9041037317481D-02 -8.5296324374956D-02
160  1.5900000000000D+00  2.2669152370189D-02 -6.6449684575026D-02
161  1.6000000000000D+00  1.7010261760764D-02 -4.9791144764822D-02
162  1.6100000000000D+00  1.2122077156084D-02 -3.5443825806612D-02
163  1.6200000000000D+00  8.0415937181455D-03 -2.3481932752096D-02
164  1.6300000000000D+00  4.7801942280645D-03 -1.3918206634978D-02
165  1.6400000000000D+00  2.3984656939462D-03 -6.9181646704531D-03
166  1.6500000000000D+00  9.5316543442369D-04 -2.6440338770058D-03
167  1.6600000000000D+00  2.7218420968100D-04 -6.2951448366764D-04
168  1.6700000000000D+00  3.4004945794512D-05  1.4279361763816D-05
169  1.6800000000000D+00 -3.7123195187257D-06  3.4422790062566D-05
170  1.6900000000000D+00  6.4868524680208D-06 -3.6537907163595D-05
171  1.7000000000000D+00  3.8168108480456D-06 -1.8500544458950D-05
172  1.7100000000000D+00 -4.8878428702519D-07  5.0972243078739D-06
173  1.7200000000000D+00 -4.0239521476342D-07  3.1629778430931D-06
174  1.7300000000000D+00 -4.0695973254126D-07  7.9611584782712D-07
175  1.7400000000000D+00 -2.7959320977379D-07  5.4695481505212D-07
176  1.7500000000000D+00  0.0000000000000D+00  0.0000000000000D+00
177  1.7600000000000D+00  0.0000000000000D+00  0.0000000000000D+00
178  1.7700000000000D+00  0.0000000000000D+00  0.0000000000000D+00
179  1.7800000000000D+00  0.0000000000000D+00  0.0000000000000D+00
180  1.7900000000000D+00  0.0000000000000D+00  0.0000000000000D+00
181  1.8000000000000D+00  0.0000000000000D+00  0.0000000000000D+00
182  1.8100000000000D+00  0.0000000000000D+00  0.0000000000000D+00
183  1.8200000000000D+00  0.0000000000000D+00  0.0000000000000D+00
184  1.8300000000000D+00  0.0000000000000D+00  0.0000000000000D+00
185  1.8400000000000D+00  0.0000000000000D+00  0.0000000000000D+00
186  1.8500000000000D+00  0.0000000000000D+00  0.0000000000000D+00
187  1.8600000000000D+00  0.0000000000000D+00  0.0000000000000D+00
188  1.8700000000000D+00  0.0000000000000D+00  0.0000000000000D+00
189  1.8800000000000D+00  0.0000000000000D+00  0.0000000000000D+00
190  1.8900000000000D+00  0.0000000000000D+00  0.0000000000000D+00
191  1.9000000000000D+00  0.0000000000000D+00  0.0000000000000D+00
192  1.9100000000000D+00  0.0000000000000D+00  0.0000000000000D+00
193  1.9200000000000D+00  0.0000000000000D+00  0.0000000000000D+00
194  1.9300000000000D+00  0.0000000000000D+00  0.0000000000000D+00
195  1.9400000000000D+00  0.0000000000000D+00  0.0000000000000D+00
196  1.9500000000000D+00  0.0000000000000D+00  0.0000000000000D+00
197  1.9600000000000D+00  0.0000000000000D+00  0.0000000000000D+00
198  1.9700000000000D+00  0.0000000000000D+00  0.0000000000000D+00
199  1.9800000000000D+00  0.0000000000000D+00  0.0000000000000D+00
200  1.9900000000000D+00  0.0000000000000D+00  0.0000000000000D+00
201  2.0000000000000D+00  0.0000000000000D+00  0.0000000000000D+00
202  2.0100000000000D+00  0.0000000000000D+00  0.0000000000000D+00
203  2.0200000000000D+00  0.0000000000000D+00  0.0000000000000D+00
204  2.0300000000000D+00  0.0000000000000D+00  0.0000000000000D+00
205  2.0400000000000D+00  0.0000000000000D+00  0.0000000000000D+00
206  2.0500000000000D+00  0.0000000000000D+00  0.0000000000000D+00
207  2.0600000000000D+00  0.0000000000000D+00  0.0000000000000D+00
208  2.0700000000000D+00  0.0000000000000D+00  0.0000000000000D+00
209  2.0800000000000D+00  0.0000000000000D+00  0.0000000000000D+00
210  2.0900000000000D+00  0.0000000000000D+00  0.0000000000000D+00
211  2.1000000000000D+00  0.0000000000000D+00  0.0000000000000D+00
212  2.1100000000000D+00  0.0000000000000D+00  0.0000000000000D+00
213  2.1200000000000D+00  0.0000000000000D+00  0.0000000000000D+00
214  2.1300000000000D+00  0.0000000000000D+00  0.0000000000000D+00
215  2.1400000000000D+00  0.0000000000000D+00  0.0000000000000D+00
216  2.1500000000000D+00  0.0000000000000D+00  0.0000000000000D+00
217  2.1600000000000D+00  0.0000000000000D+00  0.0000000000000D+00
218  2.1700000000000D+00  0.0000000000000D+00  0.0000000000000D+00
219  2.1800000000000D+00  0.0000000000000D+00  0.0000000000000D+00
220  2.1900000000000D+00  0.0000000000000D+00  0.0000000000000D+00
221  2.2000000000000D+00  0.0000000000000D+00  0.0000000000000D+00
222  2.2100000000000D+00  0.0000000000000D+00  0.0000000000000D+00
223  2.2200000000000D+00  0.0000000000000D+00  0.0000000000000D+00
224  2.2300000000000D+00  0.0000000000000D+00  0.0000000000000D+00
225  2.2400000000000D+00  0.0000000000000D+00  0.0000000000000D+00
226  2.2500000000000D+00  0.0000000000000D+00  0.0000000000000D+00
227  2.2600000000000D+00  0.0000000000000D+00  0.0000000000000D+00
228  2.2700000000000D+00  0.0000000000000D+00  0.0000000000000D+00
229  2.2800000000000D+00  0.0000000000000D+00  0.0000000000000D+00
230  2.2900000000000D+00  0.0000000000000D+00  0.0000000000000D+00
231  2.3000000000000D+00  0.0000000000000D+00  0.0000000000000D+00
232  2.3100000000000D+00  0.0000000000000D+00  0.0000000000000D+00
233  2.3200000000000D+00  0.0000000000000D+00  0.0000000000000D+00
234  2.3300000000000D+00  0.0000000000000D+00  0.0000000000000D+00
235  2.3400000000000D+00  0.0000000000000D+00  0.0000000000000D+00
236  2.3500000000000D+00  0.0000000000000D+00  0.0000000000000D+00
237  2.3600000000000D+00  0.0000000000000D+00  0.0000000000000D+00
238  2.3700000000000D+00  0.0000000000000D+00  0.0000000000000D+00
239  2.3800000000000D+00  0.0000000000000D+00  0.0000000000000D+00
240  2.3900000000000D+00  0.0000000000000D+00  0.0000000000000D+00
241  2.4000000000000D+00  0.0000000000000D+00  0.0000000000000D+00
242  2.4100000000000D+00  0.0000000000000D+00  0.0000000000000D+00
243  2.4200000000000D+00  0.0000000000000D+00  0.0000000000000D+00
244  2.4300000000000D+00  0.0000000000000D+00  0.0000000000000D+00
245  2.4400000000000D+00  0.0000000000000D+00  0.0000000000000D+00
246  2.4500000000000D+00  0.0000000000000D+00  0.0000000000000D+00
247  2.4600000000000D+00  0.0000000000000D+00  0.0000000000000D+00
248  2.4700000000000D+00  0.0000000000000D+00  0.0000000000000D+00
249  2.4800000000000D+00  0.0000000000000D+00  0.0000000000000D+00
250  2.4900000000000D+00  0.0000000000000D+00  0.0000000000000D+00
251  2.5000000000000D+00  0.0000000000000D+00  0.0000000000000D+00
252  2.5100000000000D+00  0.0000000000000D+00  0.0000000000000D+00
253  2.5200000000000D+00  0.0000000000000D+00  0.0000000000000D+00
254  2.5300000000000D+00  0.0000000000000D+00  0.0000000000000D+00
255  2.5400000000000D+00  0.0000000000000D+00  0.0000000000000D+00
256  2.5500000000000D+00  0.0000000000000D+00  0.0000000000000D+00
257  2.5600000000000D+00  0.0000000000000D+00  0.0000000000000D+00
258  2.5700000000000D+00  0.0000000000000D+00  0.0000000000000D+00
259  2.5800000000000D+00  0.0000000000000D+00  0.0000000000000D+00
260  2.5900000000000D+00  0.0000000000000D+00  0.0000000000000D+00
261  2.6000000000000D+00  0.0000000000000D+00  0.0000000000000D+00
262  2.6100000000000D+00  0.0000000000000D+00  0.0000000000000D+00
263  2.6200000000000D+00  0.0000000000000D+00  0.0000000000000D+00
264  2.6300000000000D+00  0.0000000000000D+00  0.0000000000000D+00
265  2.6400000000000D+00  0.0000000000000D+00  0.0000000000000D+00
266  2.6500000000000D+00  0.0000000000000D+00  0.0000000000000D+00
267  2.6600000000000D+00  0.0000000000000D+00  0.0000000000000D+00
268  2.6700000000000D+00  0.0000000000000D+00  0.0000000000000D+00
269  2.6800000000000D+00  0.0000000000000D+00  0.0000000000000D+00
270  2.6900000000000D+00  0.0000000000000D+00  0.0000000000000D+00
271  2.7000000000000D+00  0.0000000000000D+00  0.0000000000000D+00
272  2.7100000000000D+00  0.0000000000000D+00  0.0000000000000D+00
273  2.7200000000000D+00  0.0000000000000D+00  0.0000000000000D+00
274  2.7300000000000D+00  0.0000000000000D+00  0.0000000000000D+00
275  2.7400000000000D+00  0.0000000000000D+00  0.0000000000000D+00
276  2.7500000000000D+00  0.0000000000000D+00  0.0000000000000D+00
277  2.7600000000000D+00  0.0000000000000D+00  0.0000000000000D+00
278  2.7700000000000D+00  0.0000000000000D+00  0.0000000000000D+00
279  2.7800000000000D+00  0.0000000000000D+00  0.0000000000000D+00
280  2.7900000000000D+00  0.0000000000000D+00  0.0000000000000D+00
281  2.8000000000000D+00  0.0000000000000D+00  0.0000000000000D+00
282  2.8100000000000D+00  0.0000000000000D+00  0.0000000000000D+00
283  2.8200000000000D+00  0.0000000000000D+00  0.0000000000000D+00
284  2.8300000000000D+00  0.0000000000000D+00  0.0000000000000D+00
285  2.8400000000000D+00  0.0000000000000D+00  0.0000000000000D+00
286  2.8500000000000D+00  0.0000000000000D+00  0.0000000000000D+00
287  2.8600000000000D+00  0.0000000000000D+00  0.0000000000000D+00
288  2.8700000000000D+00  0.0000000000000D+00  0.0000000000000D+00
289  2.8800000000000D+00  0.0000000000000D+00  0.0000000000000D+00
290  2.8900000000000D+00  0.0000000000000D+00  0.0000000000000D+00
291  2.9000000000000D+00  0.0000000000000D+00  0.0000000000000D+00
292  2.9100000000000D+00  0.0000000000000D+00  0.0000000000000D+00
293  2.9200000000000D+00  0.0000000000000D+00  0.0000000000000D+00
294  2.9300000000000D+00  0.0000000000000D+00  0.0000000000000D+00
295  2.9400000000000D+00  0.0000000000000D+00  0.0000000000000D+00
296  2.9500000000000D+00  0.0000000000000D+00  0.0000000000000D+00
297  2.9600000000000D+00  0.0000000000000D+00  0.0000000000000D+00
298  2.9700000000000D+00  0.0000000000000D+00  0.0000000000000D+00
299  2.9800000000000D+00  0.0000000000000D+00  0.0000000000000D+00
300  2.9900000000000D+00  0.0000000000000D+00  0.0000000000000D+00
301  3.0000000000000D+00  0.0000000000000D+00  0.0000000000000D+00
302  3.0100000000000D+00  0.0000000000000D+00  0.0000000000000D+00
303  3.0200000000000D+00  0.0000000000000D+00  0.0000000000000D+00
304  3.0300000000000D+00  0.0000000000000D+00  0.0000000000000D+00
305  3.0400000000000D+00  0.0000000000000D+00  0.0000000000000D+00
306  3.0500000000000D+00  0.0000000000000D+00  0.0000000000000D+00
307  3.0600000000000D+00  0.0000000000000D+00  0.0000000000000D+00
308  3.0700000000000D+00  0.0000000000000D+00  0.0000000000000D+00
309  3.0800000000000D+00  0.0000000000000D+00  0.0000000000000D+00
310  3.0900000000000D+00  0.0000000000000D+00  0.0000000000000D+00
311  3.1000000000000D+00  0.0000000000000D+00  0.0000000000000D+00
312  3.1100000000000D+00  0.0000000000000D+00  0.0000000000000D+00
313  3.1200000000000D+00  0.0000000000000D+00  0.0000000000000D+00
314  3.1300000000000D+00  0.0000000000000D+00  0.0000000000000D+00
315  3.1400000000000D+00  0.0000000000000D+00  0.0000000000000D+00
316  3.1500000000000D+00  0.0000000000000D+00  0.0000000000000D+00
317  3.1600000000000D+00  0.0000000000000D+00  0.0000000000000D+00
318  3.1700000000000D+00  0.0000000000000D+00  0.0000000000000D+00
319  3.1800000000000D+00  0.0000000000000D+00  0.0000000000000D+00
320  3.1900000000000D+00  0.0000000000000D+00  0.0000000000000D+00
321  3.2000000000000D+00  0.0000000000000D+00  0.0000000000000D+00
322  3.2100000000000D+00  0.0000000000000D+00  0.0000000000000D+00
323  3.2200000000000D+00  0.0000000000000D+00  0.0000000000000D+00
324  3.2300000000000D+00  0.0000000000000D+00  0.0000000000000D+00
325  3.2400000000000D+00  0.0000000000000D+00  0.0000000000000D+00
326  3.2500000000000D+00  0.0000000000000D+00  0.0000000000000D+00
327  3.2600000000000D+00  0.0000000000000D+00  0.0000000000000D+00
328  3.2700000000000D+00  0.0000000000000D+00  0.0000000000000D+00
329  3.2800000000000D+00  0.0000000000000D+00  0.0000000000000D+00
330  3.2900000000000D+00  0.0000000000000D+00  0.0000000000000D+00
331  3.3000000000000D+00  0.0000000000000D+00  0.0000000000000D+00
332  3.3100000000000D+00  0.0000000000000D+00  0.0000000000000D+00
333  3.3200000000000D+00  0.0000000000000D+00  0.0000000000000D+00
334  3.3300000000000D+00  0.0000000000000D+00  0.0000000000000D+00
335  3.3400000000000D+00  0.0000000000000D+00  0.0000000000000D+00
336  3.3500000000000D+00  0.0000000000000D+00  0.0000000000000D+00
337  3.3600000000000D+00  0.0000000000000D+00  0.0000000000000D+00
338  3.3700000000000D+00  0.0000000000000D+00  0.0000000000000D+00
339  3.3800000000000D+00  0.0000000000000D+00  0.0000000000000D+00
340  3.3900000000000D+00  0.0000000000000D+00  0.0000000000000D+00
341  3.4000000000000D+00  0.0000000000000D+00  0.0000000000000D+00
342  3.4100000000000D+00  0.0000000000000D+00  0.0000000000000D+00
343  3.4200000000000D+00  0.0000000000000D+00  0.0000000000000D+00
344  3.4300000000000D+00  0.0000000000000D+00  0.0000000000000D+00
345  3.4400000000000D+00  0.0000000000000D+00  0.0000000000000D+00
346  3.4500000000000D+00  0.0000000000000D+00  0.0000000000000D+00
347  3.4600000000000D+00  0.0000000000000D+00  0.0000000000000D+00
348  3.4700000000000D+00  0.0000000000000D+00  0.0000000000000D+00
349  3.4800000000000D+00  0.0000000000000D+00  0.0000000000000D+00
350  3.4900000000000D+00  0.0000000000000D+00  0.0000000000000D+00
351  3.5000000000000D+00  0.0000000000000D+00  0.0000000000000D+00
352  3.5100000000000D+00  0.0000000000000D+00  0.0000000000000D+00
353  3.5200000000000D+00  0.0000000000000D+00  0.0000000000000D+00
354  3.5300000000000D+00  0.0000000000000D+00  0.0000000000000D+00
355  3.5400000000000D+00  0.0000000000000D+00  0.0000000000000D+00
356  3.5500000000000D+00  0.0000000000000D+00  0.0000000000000D+00
357  3.5600000000000D+00  0.0000000000000D+00  0.0000000000000D+00
358  3.5700000000000D+00  0.0000000000000D+00  0.0000000000000D+00
359  3.5800000000000D+00  0.0000000000000D+00  0.0000000000000D+00
360  3.5900000000000D+00  0.0000000000000D+00  0.0000000000000D+00
361  3.6000000000000D+00  0.0000000000000D+00  0.0000000000000D+00
362  3.6100000000000D+00  0.0000000000000D+00  0.0000000000000D+00
363  3.6200000000000D+00  0.0000000000000D+00  0.0000000000000D+00
364  3.6300000000000D+00  0.0000000000000D+00  0.0000000000000D+00
365  3.6400000000000D+00  0.0000000000000D+00  0.0000000000000D+00
366  3.6500000000000D+00  0.0000000000000D+00  0.0000000000000D+00
367  3.6600000000000D+00  0.0000000000000D+00  0.0000000000000D+00
368  3.6700000000000D+00  0.0000000000000D+00  0.0000000000000D+00
369  3.6800000000000D+00  0.0000000000000D+00  0.0000000000000D+00
370  3.6900000000000D+00  0.0000000000000D+00  0.0000000000000D+00
371  3.7000000000000D+00  0.0000000000000D+00  0.0000000000000D+00
372  3.7100000000000D+00  0.0000000000000D+00  0.0000000000000D+00
373  3.7200000000000D+00  0.0000000000000D+00  0.0000000000000D+00
374  3.7300000000000D+00  0.0000000000000D+00  0.0000000000000D+00
375  3.7400000000000D+00  0.0000000000000D+00  0.0000000000000D+00
376  3.7500000000000D+00  0.0000000000000D+00  0.0000000000000D+00
377  3.7600000000000D+00  0.0000000000000D+00  0.0000000000000D+00
378  3.7700000000000D+00  0.0000000000000D+00  0.0000000000000D+00
379  3.7800000000000D+00  0.0000000000000D+00  0.0000000000000D+00
380  3.7900000000000D+00  0.0000000000000D+00  0.0000000000000D+00
381  3.8000000000000D+00  0.0000000000000D+00  0.0000000000000D+00
382  3.8100000000000D+00  0.0000000000000D+00  0.0000000000000D+00
383  3.8200000000000D+00  0.0000000000000D+00  0.0000000000000D+00
384  3.8300000000000D+00  0.0000000000000D+00  0.0000000000000D+00
385  3.8400000000000D+00  0.0000000000000D+00  0.0000000000000D+00
386  3.8500000000000D+00  0.0000000000000D+00  0.0000000000000D+00
387  3.8600000000000D+00  0.0000000000000D+00  0.0000000000000D+00
388  3.8700000000000D+00  0.0000000000000D+00  0.0000000000000D+00
389  3.8800000000000D+00  0.0000000000000D+00  0.0000000000000D+00
390  3.8900000000000D+00  0.0000000000000D+00  0.0000000000000D+00
391  3.9000000000000D+00  0.0000000000000D+00  0.0000000000000D+00
392  3.9100000000000D+00  0.0000000000000D+00  0.0000000000000D+00
393  3.9200000000000D+00  0.0000000000000D+00  0.0000000000000D+00
394  3.9300000000000D+00  0.0000000000000D+00  0.0000000000000D+00
395  3.9400000000000D+00  0.0000000000000D+00  0.0000000000000D+00
396  3.9500000000000D+00  0.0000000000000D+00  0.0000000000000D+00
397  3.9600000000000D+00  0.0000000000000D+00  0.0000000000000D+00
398  3.9700000000000D+00  0.0000000000000D+00  0.0000000000000D+00
399  3.9800000000000D+00  0.0000000000000D+00  0.0000000000000D+00
400  3.9900000000000D+00  0.0000000000000D+00  0.0000000000000D+00
401  4.0000000000000D+00  0.0000000000000D+00  0.0000000000000D+00
402  4.0100000000000D+00  0.0000000000000D+00  0.0000000000000D+00
403  4.0200000000000D+00  0.0000000000000D+00  0.0000000000000D+00
404  4.0300000000000D+00  0.0000000000000D+00  0.0000000000000D+00
405  4.0400000000000D+00  0.0000000000000D+00  0.0000000000000D+00
406  4.0500000000000D+00  0.0000000000000D+00  0.0000000000000D+00
407  4.0600000000000D+00  0.0000000000000D+00  0.0000000000000D+00
408  4.0700000000000D+00  0.0000000000000D+00  0.0000000000000D+00
409  4.0800000000000D+00  0.0000000000000D+00  0.0000000000000D+00
410  4.0900000000000D+00  0.0000000000000D+00  0.0000000000000D+00
411  4.1000000000000D+00  0.0000000000000D+00  0.0000000000000D+00
412  4.1100000000000D+00  0.0000000000000D+00  0.0000000000000D+00
413  4.1200000000000D+00  0.0000000000000D+00  0.0000000000000D+00
414  4.1300000000000D+00  0.0000000000000D+00  0.0000000000000D+00
415  4.1400000000000D+00  0.0000000000000D+00  0.0000000000000D+00
416  4.1500000000000D+00  0.0000000000000D+00  0.0000000000000D+00
417  4.1600000000000D+00  0.0000000000000D+00  0.0000000000000D+00
418  4.1700000000000D+00  0.0000000000000D+00  0.0000000000000D+00
419  4.1800000000000D+00  0.0000000000000D+00  0.0000000000000D+00
420  4.1900000000000D+00  0.0000000000000D+00  0.0000000000000D+00
421  4.2000000000000D+00  0.0000000000000D+00  0.0000000000000D+00
422  4.2100000000000D+00  0.0000000000000D+00  0.0000000000000D+00
423  4.2200000000000D+00  0.0000000000000D+00  0.0000000000000D+00
424  4.2300000000000D+00  0.0000000000000D+00  0.0000000000000D+00
425  4.2400000000000D+00  0.0000000000000D+00  0.0000000000000D+00
426  4.2500000000000D+00  0.0000000000000D+00  0.0000000000000D+00
427  4.2600000000000D+00  0.0000000000000D+00  0.0000000000000D+00
428  4.2700000000000D+00  0.0000000000000D+00  0.0000000000000D+00
429  4.2800000000000D+00  0.0000000000000D+00  0.0000000000000D+00
430  4.2900000000000D+00  0.0000000000000D+00  0.0000000000000D+00
431  4.3000000000000D+00  0.0000000000000D+00  0.0000000000000D+00
432  4.3100000000000D+00  0.0000000000000D+00  0.0000000000000D+00
433  4.3200000000000D+00  0.0000000000000D+00  0.0000000000000D+00
434  4.3300000000000D+00  0.0000000000000D+00  0.0000000000000D+00
435  4.3400000000000D+00  0.0000000000000D+00  0.0000000000000D+00
436  4.3500000000000D+00  0.0000000000000D+00  0.0000000000000D+00
437  4.3600000000000D+00  0.0000000000000D+00  0.0000000000000D+00
438  4.3700000000000D+00  0.0000000000000D+00  0.0000000000000D+00
439  4.3800000000000D+00  0.0000000000000D+00  0.0000000000000D+00
440  4.3900000000000D+00  0.0000000000000D+00  0.0000000000000D+00
441  4.4000000000000D+00  0.0000000000000D+00  0.0000000000000D+00
442  4.4100000000000D+00  0.0000000000000D+00  0.0000000000000D+00
443  4.4200000000000D+00  0.0000000000000D+00  0.0000000000000D+00