Zn    ONCVPSP-3.2.3  r_core=   2.21501   2.21501   1.91959
30.0000     12.0000      161006    zatom,zion,pspd
8   -1012   2     4   600     0    pspcod,pspxc,lmax,lloc,mmax,r2well
5.99000000  5.00000000  0.00000000    rchrg fchrg qchrg
2     2     2     0     0    nproj
1     1           extension_switch
0                         4.7811418764328D+00  9.6562286027741D-01
1  0.0000000000000D+00  1.1812495426256D-12 -1.4683944164762D-11
2  1.0000000000000D-02  2.7326344933295D-02 -1.1284449743391D-04
3  2.0000000000000D-02  5.4642646181813D-02 -2.6512411596256D-04
4  3.0000000000000D-02  8.1938844656468D-02 -4.9604537697626D-04
5  4.0000000000000D-02  1.0920485054334D-01 -8.4435857104721D-04
6  5.0000000000000D-02  1.3643052815046D-01 -1.3481320603056D-03
7  6.0000000000000D-02  1.6360568100475D-01 -2.0445294717999D-03
8  7.0000000000000D-02  1.9072003728118D-01 -2.9695907283080D-03
9  8.0000000000000D-02  2.1776323564500D-01 -4.1580178483813D-03
10  9.0000000000000D-02  2.4472481158638D-01 -5.6429664291645D-03
11  1.0000000000000D-01  2.7159418432507D-01 -7.4558437038032D-03
12  1.1000000000000D-01  2.9836064436084D-01 -9.6261140400428D-03
13  1.2000000000000D-01  3.2501334174283D-01 -1.2181112718149D-02
14  1.3000000000000D-01  3.5154127512878D-01 -1.5145868794496D-02
15  1.4000000000000D-01  3.7793328170199D-01 -1.8542937822302D-02
16  1.5000000000000D-01  4.0417802801108D-01 -2.2392245163115D-02
17  1.6000000000000D-01  4.3026400179413D-01 -2.6710940581890D-02
18  1.7000000000000D-01  4.5617950484547D-01 -3.1513264775043D-02
19  1.8000000000000D-01  4.8191264697962D-01 -3.6810428434842D-02
20  1.9000000000000D-01  5.0745134114291D-01 -4.2610504405000D-02
21  2.0000000000000D-01  5.3278329971947D-01 -4.8918333431792D-02
22  2.1000000000000D-01  5.5789603207378D-01 -5.5735443962128D-02
23  2.2000000000000D-01  5.8277684336775D-01 -6.3059986385670D-02
24  2.3000000000000D-01  6.0741283468572D-01 -7.0886682061615D-02
25  2.4000000000000D-01  6.3179090449615D-01 -7.9206787413325D-02
26  2.5000000000000D-01  6.5589775147402D-01 -8.8008073314856D-02
27  2.6000000000000D-01  6.7971987870302D-01 -9.7274819933631D-02
28  2.7000000000000D-01  7.0324359927188D-01 -1.0698782713268D-01
29  2.8000000000000D-01  7.2645504327405D-01 -1.1712444047449D-01
30  2.9000000000000D-01  7.4934016621502D-01 -1.2765859280683D-01
31  3.0000000000000D-01  7.7188475882659D-01 -1.3856086134912D-01
32  3.1000000000000D-01  7.9407445828209D-01 -1.4979854013603D-01
33  3.2000000000000D-01  8.1589476080200D-01 -1.6133572761371D-01
34  3.3000000000000D-01  8.3733103563392D-01 -1.7313342912308D-01
35  3.4000000000000D-01  8.5836854038620D-01 -1.8514967394459D-01
36  3.5000000000000D-01  8.7899243768955D-01 -1.9733964651985D-01
37  3.6000000000000D-01  8.9918781315614D-01 -2.0965583140751D-01
38  3.7000000000000D-01  9.1893969460086D-01 -2.2204817147463D-01
39  3.8000000000000D-01  9.3823307248513D-01 -2.3446423876996D-01
40  3.9000000000000D-01  9.5705292153858D-01 -2.4684941747280D-01
41  4.0000000000000D-01  9.7538422351014D-01 -2.5914709826046D-01
42  4.1000000000000D-01  9.9321199099556D-01 -2.7129888338878D-01
43  4.2000000000000D-01  1.0105212922842D+00 -2.8324480173447D-01
44  4.3000000000000D-01  1.0272972771646D+00 -2.9492353300476D-01
45  4.4000000000000D-01  1.0435252036235D+00 -3.0627264027919D-01
46  4.5000000000000D-01  1.0591904653715D+00 -3.1722881001164D-01
47  4.6000000000000D-01  1.0742786201228D+00 -3.2772809858567D-01
48  4.7000000000000D-01  1.0887754185551D+00 -3.3770618448627D-01
49  4.8000000000000D-01  1.1026668338723D+00 -3.4709862512289D-01
50  4.9000000000000D-01  1.1159390918906D+00 -3.5584111731560D-01
51  5.0000000000000D-01  1.1285787015650D+00 -3.6386976043527D-01
52  5.1000000000000D-01  1.1405724858723D+00 -3.7112132117311D-01
53  5.2000000000000D-01  1.1519076129638D+00 -3.7753349890165D-01
54  5.3000000000000D-01  1.1625716275013D+00 -3.8304519058149D-01
55  5.4000000000000D-01  1.1725524820846D+00 -3.8759675416280D-01
56  5.5000000000000D-01  1.1818385686835D+00 -3.9113026943072D-01
57  5.6000000000000D-01  1.1904187499803D+00 -3.9358979524679D-01
58  5.7000000000000D-01  1.1982823905321D+00 -3.9492162214657D-01
59  5.8000000000000D-01  1.2054193876626D+00 -3.9507451926501D-01
60  5.9000000000000D-01  1.2118202019878D+00 -3.9399997457687D-01
61  6.0000000000000D-01  1.2174758874882D+00 -3.9165242745935D-01
62  6.1000000000000D-01  1.2223781210326D+00 -3.8798949260767D-01
63  6.2000000000000D-01  1.2265192312649D+00 -3.8297217436161D-01
64  6.3000000000000D-01  1.2298922267651D+00 -3.7656507053309D-01
65  6.4000000000000D-01  1.2324908233942D+00 -3.6873656485911D-01
66  6.5000000000000D-01  1.2343094707386D+00 -3.5945900724354D-01
67  6.6000000000000D-01  1.2353433775677D+00 -3.4870888099338D-01
68  6.7000000000000D-01  1.2355885362232D+00 -3.3646695630016D-01
69  6.8000000000000D-01  1.2350417458585D+00 -3.2271842926629D-01
70  6.9000000000000D-01  1.2337006344501D+00 -3.0745304582740D-01
71  7.0000000000000D-01  1.2315636795070D+00 -2.9066520997643D-01
72  7.1000000000000D-01  1.2286302274041D+00 -2.7235407575198D-01
73  7.2000000000000D-01  1.2249005112707D+00 -2.5252362251338D-01
74  7.3000000000000D-01  1.2203756673680D+00 -2.3118271308615D-01
75  7.4000000000000D-01  1.2150577498934D+00 -2.0834513442553D-01
76  7.5000000000000D-01  1.2089497441518D+00 -1.8402962051124D-01
77  7.6000000000000D-01  1.2020555780385D+00 -1.5825985725289D-01
78  7.7000000000000D-01  1.1943801317837D+00 -1.3106446925472D-01
79  7.8000000000000D-01  1.1859292459096D+00 -1.0247698835637D-01
80  7.9000000000000D-01  1.1767097273579D+00 -7.2535803937140D-02
81  8.0000000000000D-01  1.1667293537494D+00 -4.1284095040779D-02
82  8.1000000000000D-01  1.1559968757400D+00 -8.7697444490292D-03
83  8.2000000000000D-01  1.1445220174442D+00  2.4954765098042D-02
84  8.3000000000000D-01  1.1323154749007D+00  5.9832472266575D-02
85  8.4000000000000D-01  1.1193889125586D+00  9.5802075740537D-02
86  8.5000000000000D-01  1.1057549577697D+00  1.3279808967459D-01
87  8.6000000000000D-01  1.0914271932741D+00  1.7075101551463D-01
88  8.7000000000000D-01  1.0764201476736D+00  2.0958752964722D-01
89  8.8000000000000D-01  1.0607492838911D+00  2.4923068627467D-01
90  8.9000000000000D-01  1.0444309856189D+00  2.8960013485104D-01
91  9.0000000000000D-01  1.0274825417641D+00  3.3061235135416D-01
92  9.1000000000000D-01  1.0099221289036D+00  3.7218088261198D-01
93  9.2000000000000D-01  9.9176879176687D-01  4.1421660284693D-01
94  9.3000000000000D-01  9.7304242176752D-01  4.5662798155080D-01
95  9.4000000000000D-01  9.5376373361233D-01  4.9932136175413D-01
96  9.5000000000000D-01  9.3395424001792D-01  5.4220124770978D-01
97  9.6000000000000D-01  9.1363622457206D-01  5.8517060096895D-01
98  9.7000000000000D-01  8.9283271278010D-01  6.2813114379062D-01
99  9.8000000000000D-01  8.7156744134177D-01  6.7098366879234D-01
100  9.9000000000000D-01  8.4986482570776D-01  7.1362835372106D-01
101  1.0000000000000D+00  8.2774992596992D-01  7.5596508019744D-01
102  1.0100000000000D+00  8.0524841114292D-01  7.9789375526716D-01
103  1.0200000000000D+00  7.8238652189917D-01  8.3931463457661D-01
104  1.0300000000000D+00  7.5919103182306D-01  8.8012864597857D-01
105  1.0400000000000D+00  7.3568920725370D-01  9.2023771236788D-01
106  1.0500000000000D+00  7.1190876578966D-01  9.5954507254382D-01
107  1.0600000000000D+00  6.8787783353215D-01  9.9795559889963D-01
108  1.0700000000000D+00  6.6362490114666D-01  1.0353761107469D+00
109  1.0800000000000D+00  6.3917877882631D-01  1.0717156820945D+00
110  1.0900000000000D+00  6.1456855024301D-01  1.1068859427208D+00
111  1.1000000000000D+00  5.8982352557516D-01  1.1408013713952D+00
112  1.1100000000000D+00  5.6497319370391D-01  1.1733795801372D+00
113  1.1200000000000D+00  5.4004717367185D-01  1.2045415884255D+00
114  1.1300000000000D+00  5.1507516550060D-01  1.2342120863147D+00
115  1.1400000000000D+00  4.9008690046576D-01  1.2623196854443D+00
116  1.1500000000000D+00  4.6511209092959D-01  1.2887971569770D+00
117  1.1600000000000D+00  4.4018037983371D-01  1.3135816555495D+00
118  1.1700000000000D+00  4.1532128995525D-01  1.3366149283752D+00
119  1.1800000000000D+00  3.9056417303142D-01  1.3578435086766D+00
120  1.1900000000000D+00  3.6593815885862D-01  1.3772188927045D+00
121  1.2000000000000D+00  3.4147210447291D-01  1.3946976996529D+00
122  1.2100000000000D+00  3.1719454351942D-01  1.4102418138481D+00
123  1.2200000000000D+00  2.9313363591875D-01  1.4238185086393D+00
124  1.2300000000000D+00  2.6931711793885D-01  1.4354005515170D+00
125  1.2400000000000D+00  2.4577225278020D-01  1.4449662900537D+00
126  1.2500000000000D+00  2.2252578178299D-01  1.4524997182891D+00
127  1.2600000000000D+00  1.9960387636376D-01  1.4579905233228D+00
128  1.2700000000000D+00  1.7703209078829D-01  1.4614341119350D+00
129  1.2800000000000D+00  1.5483531588756D-01  1.4628316170786D+00
130  1.2900000000000D+00  1.3303773382175D-01  1.4621898842418D+00
131  1.3000000000000D+00  1.1166277399541D-01  1.4595214377444D+00
132  1.3100000000000D+00  9.0733070227558D-02  1.4548444270268D+00
133  1.3200000000000D+00  7.0270419276514D-02  1.4481825531876D+00
134  1.3300000000000D+00  5.0295740817304D-02  1.4395649760537D+00
135  1.3400000000000D+00  3.0829038970699D-02  1.4290262020684D+00
136  1.3500000000000D+00  1.1889365475472D-02  1.4166059535092D+00
137  1.3600000000000D+00 -6.5052154037314D-03  1.4023490195001D+00
138  1.3700000000000D+00 -2.4337660142072D-02  1.3863050893610D+00
139  1.3800000000000D+00 -4.1591977312030D-02  1.3685285690202D+00
140  1.3900000000000D+00 -5.8253256945746D-02  1.3490783811072D+00
141  1.4000000000000D+00 -7.4307697824725D-02  1.3280177495503D+00
142  1.4100000000000D+00 -8.9742632623814D-02  1.3054139695329D+00
143  1.4200000000000D+00 -1.0454655083029D-01  1.2813381636092D+00
144  1.4300000000000D+00 -1.1870911937922D-01  1.2558650250429D+00
145  1.4400000000000D+00 -1.3222120093329D-01  1.2290725492562D+00
146  1.4500000000000D+00 -1.4507486975052D-01  1.2010417544854D+00
147  1.4600000000000D+00 -1.5726342508812D-01  1.1718563927230D+00
148  1.4700000000000D+00 -1.6878140208116D-01  1.1416026520088D+00
149  1.4800000000000D+00 -1.7962458006612D-01  1.1103688513014D+00
150  1.4900000000000D+00 -1.8978998828980D-01  1.0782451290130D+00
151  1.5000000000000D+00 -1.9927590898363D-01  1.0453231264830D+00
152  1.5100000000000D+00 -2.0808187776230D-01  1.0116956675466D+00
153  1.5200000000000D+00 -2.1620868132219D-01  9.7745643546182D-01
154  1.5300000000000D+00 -2.2365835242735D-01  9.4269964839655D-01
155  1.5400000000000D+00 -2.3043416214942D-01  9.0751973474811D-01
156  1.5500000000000D+00 -2.3654060938020D-01  8.7201100946454D-01
157  1.5600000000000D+00 -2.4198340757646D-01  8.3626735268053D-01
158  1.5700000000000D+00 -2.4676946877835D-01  8.0038189175655D-01
159  1.5800000000000D+00 -2.5090688486975D-01  7.6444668804570D-01
160  1.5900000000000D+00 -2.5440490612772D-01  7.2855242941424D-01
161  1.6000000000000D+00 -2.5727391705137D-01  6.9278812977847D-01
162  1.6100000000000D+00 -2.5952540951576D-01  6.5724083665748D-01
163  1.6200000000000D+00 -2.6117195326622D-01  6.2199534787177D-01
164  1.6300000000000D+00 -2.6222716379658D-01  5.8713393838767D-01
165  1.6400000000000D+00 -2.6270566765128D-01  5.5273609824862D-01
166  1.6500000000000D+00 -2.6262306519338D-01  5.1887828260747D-01
167  1.6600000000000D+00 -2.6199589090160D-01  4.8563367457286D-01
168  1.6700000000000D+00 -2.6084157123866D-01  4.5307196189623D-01
169  1.6800000000000D+00 -2.5917838017432D-01  4.2125912796712D-01
170  1.6900000000000D+00 -2.5702539240859D-01  3.9025725813395D-01
171  1.7000000000000D+00 -2.5440243439450D-01  3.6012436158072D-01
172  1.7100000000000D+00 -2.5133003321293D-01  3.3091420972302D-01
173  1.7200000000000D+00 -2.4782936340998D-01  3.0267619115381D-01
174  1.7300000000000D+00 -2.4392219186051D-01  2.7545518397842D-01
175  1.7400000000000D+00 -2.3963082077385D-01  2.4929144543822D-01
176  1.7500000000000D+00 -2.3497802892104D-01  2.2422051944136D-01
177  1.7600000000000D+00 -2.2998701119921D-01  2.0027316186977D-01
178  1.7700000000000D+00 -2.2468131663244D-01  1.7747528393793D-01
179  1.7800000000000D+00 -2.1908478491887D-01  1.5584791357043D-01
180  1.7900000000000D+00 -2.1322148164679D-01  1.3540717459203D-01
181  1.8000000000000D+00 -2.0711563227938D-01  1.1616428393878D-01
182  1.8100000000000D+00 -2.0079155505537D-01  9.8125566063267D-02
183  1.8200000000000D+00 -1.9427359289383D-01  8.1292485120053D-02
184  1.8300000000000D+00 -1.8758604447256D-01  6.5661693375971D-02
185  1.8400000000000D+00 -1.8075309455941D-01  5.1225096890868D-02
186  1.8500000000000D+00 -1.7379874378028D-01  3.7969936196833D-02
187  1.8600000000000D+00 -1.6674673717755D-01  2.5878881002522D-02
188  1.8700000000000D+00 -1.5962049628187D-01  1.4930150820537D-02
189  1.8800000000000D+00 -1.5244303928914D-01  5.0976139639784D-03
190  1.8900000000000D+00 -1.4523692699627D-01 -3.6490222377879D-03
191  1.9000000000000D+00 -1.3802418705198D-01 -1.1344072321692D-02
192  1.9100000000000D+00 -1.3082620901521D-01 -1.8025816584208D-02
193  1.9200000000000D+00 -1.2366367503693D-01 -2.3736328183137D-02
194  1.9300000000000D+00 -1.1655661735532D-01 -2.8520885125584D-02
195  1.9400000000000D+00 -1.0952442005895D-01 -3.2427542173326D-02
196  1.9500000000000D+00 -1.0258584942375D-01 -3.5506675135136D-02
197  1.9600000000000D+00 -9.5759143807682D-02 -3.7810313916549D-02
198  1.9700000000000D+00 -8.9061968772186D-02 -3.9391912601691D-02
199  1.9800000000000D+00 -8.2511360607000D-02 -4.0306164965657D-02
200  1.9900000000000D+00 -7.6123689547501D-02 -4.0608757268052D-02
201  2.0000000000000D+00 -6.9914648007545D-02 -4.0356033188218D-02
202  2.0100000000000D+00 -6.3899211728489D-02 -3.9604756159652D-02
203  2.0200000000000D+00 -5.8091616006293D-02 -3.8411825735061D-02
204  2.0300000000000D+00 -5.2505327979875D-02 -3.6834012588102D-02
205  2.0400000000000D+00 -4.7153020884850D-02 -3.4927694637142D-02
206  2.0500000000000D+00 -4.2046549369078D-02 -3.2748598067811D-02
207  2.0600000000000D+00 -3.7196925892174D-02 -3.0351544205770D-02
208  2.0700000000000D+00 -3.2614298282041D-02 -2.7790204333793D-02
209  2.0800000000000D+00 -2.8307928409738D-02 -2.5116861776687D-02
210  2.0900000000000D+00 -2.4286172082468D-02 -2.2382184356395D-02
211  2.1000000000000D+00 -2.0556460127575D-02 -1.9635006575792D-02
212  2.1100000000000D+00 -1.7125280703857D-02 -1.6922122855988D-02
213  2.1200000000000D+00 -1.3998162900083D-02 -1.4288094034370D-02
214  2.1300000000000D+00 -1.1179661565748D-02 -1.1775065111540D-02
215  2.1400000000000D+00 -8.6739823843187D-03 -9.4235903708166D-03
216  2.1500000000000D+00 -6.4837942607674D-03 -7.2706560554111D-03
217  2.1600000000000D+00 -4.6073104517936D-03 -5.3450281076980D-03
218  2.1700000000000D+00 -3.0396439159473D-03 -3.6683647138427D-03
219  2.1800000000000D+00 -1.7944002153075D-03 -2.2919419360326D-03
220  2.1900000000000D+00 -8.8272687180873D-04 -1.2621310000415D-03
221  2.2000000000000D+00 -2.9953973677893D-04 -5.9943522138559D-04
222  2.2100000000000D+00  9.4677932429055D-06 -2.2683826936799D-04
223  2.2200000000000D+00  1.0896305552977D-04 -5.3729477126478D-05
224  2.2300000000000D+00  8.0874887440577D-05  2.9334031675581D-06
225  2.2400000000000D+00  1.0490462675948D-05  2.0964064543266D-06
226  2.2500000000000D+00 -2.3026203249632D-05 -5.7673995149146D-06
227  2.2600000000000D+00 -1.8942008052509D-05 -5.8356105382704D-06
228  2.2700000000000D+00  1.0437832976840D-06  8.1772201621009D-08
229  2.2800000000000D+00  4.9090847815552D-06  5.6459817395279D-07
230  2.2900000000000D+00  2.8328289632033D-06  4.0508721909074D-07
231  2.3000000000000D+00 -1.2262869304529D-07  1.8467066857197D-07
232  2.3100000000000D+00 -2.2921018474690D-07  3.4517531753421D-07
233  2.3200000000000D+00 -7.9223263248809D-08  1.1930497363457D-07
234  2.3300000000000D+00  0.0000000000000D+00  0.0000000000000D+00
235  2.3400000000000D+00  0.0000000000000D+00  0.0000000000000D+00
236  2.3500000000000D+00  0.0000000000000D+00  0.0000000000000D+00
237  2.3600000000000D+00  0.0000000000000D+00  0.0000000000000D+00
238  2.3700000000000D+00  0.0000000000000D+00  0.0000000000000D+00
239  2.3800000000000D+00  0.0000000000000D+00  0.0000000000000D+00
240  2.3900000000000D+00  0.0000000000000D+00  0.0000000000000D+00
241  2.4000000000000D+00  0.0000000000000D+00  0.0000000000000D+00
242  2.4100000000000D+00  0.0000000000000D+00  0.0000000000000D+00
243  2.4200000000000D+00  0.0000000000000D+00  0.0000000000000D+00
244  2.4300000000000D+00  0.0000000000000D+00  0.0000000000000D+00
245  2.4400000000000D+00  0.0000000000000D+00  0.0000000000000D+00
246  2.4500000000000D+00  0.0000000000000D+00  0.0000000000000D+00
247  2.4600000000000D+00  0.0000000000000D+00  0.0000000000000D+00
248  2.4700000000000D+00  0.0000000000000D+00  0.0000000000000D+00
249  2.4800000000000D+00  0.0000000000000D+00  0.0000000000000D+00
250  2.4900000000000D+00  0.0000000000000D+00  0.0000000000000D+00
251  2.5000000000000D+00  0.0000000000000D+00  0.0000000000000D+00
252  2.5100000000000D+00  0.0000000000000D+00  0.0000000000000D+00
253  2.5200000000000D+00  0.0000000000000D+00  0.0000000000000D+00
254  2.5300000000000D+00  0.0000000000000D+00  0.0000000000000D+00
255  2.5400000000000D+00  0.0000000000000D+00  0.0000000000000D+00
256  2.5500000000000D+00  0.0000000000000D+00  0.0000000000000D+00
257  2.5600000000000D+00  0.0000000000000D+00  0.0000000000000D+00
258  2.5700000000000D+00  0.0000000000000D+00  0.0000000000000D+00
259  2.5800000000000D+00  0.0000000000000D+00  0.0000000000000D+00
260  2.5900000000000D+00  0.0000000000000D+00  0.0000000000000D+00
261  2.6000000000000D+00  0.0000000000000D+00  0.0000000000000D+00
262  2.6100000000000D+00  0.0000000000000D+00  0.0000000000000D+00
263  2.6200000000000D+00  0.0000000000000D+00  0.0000000000000D+00
264  2.6300000000000D+00  0.0000000000000D+00  0.0000000000000D+00
265  2.6400000000000D+00  0.0000000000000D+00  0.0000000000000D+00
266  2.6500000000000D+00  0.0000000000000D+00  0.0000000000000D+00
267  2.6600000000000D+00  0.0000000000000D+00  0.0000000000000D+00
268  2.6700000000000D+00  0.0000000000000D+00  0.0000000000000D+00
269  2.6800000000000D+00  0.0000000000000D+00  0.0000000000000D+00
270  2.6900000000000D+00  0.0000000000000D+00  0.0000000000000D+00
271  2.7000000000000D+00  0.0000000000000D+00  0.0000000000000D+00
272  2.7100000000000D+00  0.0000000000000D+00  0.0000000000000D+00
273  2.7200000000000D+00  0.0000000000000D+00  0.0000000000000D+00
274  2.7300000000000D+00  0.0000000000000D+00  0.0000000000000D+00
275  2.7400000000000D+00  0.0000000000000D+00  0.0000000000000D+00
276  2.7500000000000D+00  0.0000000000000D+00  0.0000000000000D+00
277  2.7600000000000D+00  0.0000000000000D+00  0.0000000000000D+00
278  2.7700000000000D+00  0.0000000000000D+00  0.0000000000000D+00
279  2.7800000000000D+00  0.0000000000000D+00  0.0000000000000D+00
280  2.7900000000000D+00  0.0000000000000D+00  0.0000000000000D+00
281  2.8000000000000D+00  0.0000000000000D+00  0.0000000000000D+00
282  2.8100000000000D+00  0.0000000000000D+00  0.0000000000000D+00
283  2.8200000000000D+00  0.0000000000000D+00  0.0000000000000D+00
284  2.8300000000000D+00  0.0000000000000D+00  0.0000000000000D+00
285  2.8400000000000D+00  0.0000000000000D+00  0.0000000000000D+00
286  2.8500000000000D+00  0.0000000000000D+00  0.0000000000000D+00
287  2.8600000000000D+00  0.0000000000000D+00  0.0000000000000D+00
288  2.8700000000000D+00  0.0000000000000D+00  0.0000000000000D+00
289  2.8800000000000D+00  0.0000000000000D+00  0.0000000000000D+00
290  2.8900000000000D+00  0.0000000000000D+00  0.0000000000000D+00
291  2.9000000000000D+00  0.0000000000000D+00  0.0000000000000D+00
292  2.9100000000000D+00  0.0000000000000D+00  0.0000000000000D+00
293  2.9200000000000D+00  0.0000000000000D+00  0.0000000000000D+00
294  2.9300000000000D+00  0.0000000000000D+00  0.0000000000000D+00
295  2.9400000000000D+00  0.0000000000000D+00  0.0000000000000D+00
296  2.9500000000000D+00  0.0000000000000D+00  0.0000000000000D+00
297  2.9600000000000D+00  0.0000000000000D+00  0.0000000000000D+00
298  2.9700000000000D+00  0.0000000000000D+00  0.0000000000000D+00
299  2.9800000000000D+00  0.0000000000000D+00  0.0000000000000D+00
300  2.9900000000000D+00  0.0000000000000D+00  0.0000000000000D+00
301  3.0000000000000D+00  0.0000000000000D+00  0.0000000000000D+00
302  3.0100000000000D+00  0.0000000000000D+00  0.0000000000000D+00
303  3.0200000000000D+00  0.0000000000000D+00  0.0000000000000D+00
304  3.0300000000000D+00  0.0000000000000D+00  0.0000000000000D+00
305  3.0400000000000D+00  0.0000000000000D+00  0.0000000000000D+00
306  3.0500000000000D+00  0.0000000000000D+00  0.0000000000000D+00
307  3.0600000000000D+00  0.0000000000000D+00  0.0000000000000D+00
308  3.0700000000000D+00  0.0000000000000D+00  0.0000000000000D+00
309  3.0800000000000D+00  0.0000000000000D+00  0.0000000000000D+00
310  3.0900000000000D+00  0.0000000000000D+00  0.0000000000000D+00
311  3.1000000000000D+00  0.0000000000000D+00  0.0000000000000D+00
312  3.1100000000000D+00  0.0000000000000D+00  0.0000000000000D+00
313  3.1200000000000D+00  0.0000000000000D+00  0.0000000000000D+00
314  3.1300000000000D+00  0.0000000000000D+00  0.0000000000000D+00
315  3.1400000000000D+00  0.0000000000000D+00  0.0000000000000D+00
316  3.1500000000000D+00  0.0000000000000D+00  0.0000000000000D+00
317  3.1600000000000D+00  0.0000000000000D+00  0.0000000000000D+00
318  3.1700000000000D+00  0.0000000000000D+00  0.0000000000000D+00
319  3.1800000000000D+00  0.0000000000000D+00  0.0000000000000D+00
320  3.1900000000000D+00  0.0000000000000D+00  0.0000000000000D+00
321  3.2000000000000D+00  0.0000000000000D+00  0.0000000000000D+00
322  3.2100000000000D+00  0.0000000000000D+00  0.0000000000000D+00
323  3.2200000000000D+00  0.0000000000000D+00  0.0000000000000D+00
324  3.2300000000000D+00  0.0000000000000D+00  0.0000000000000D+00
325  3.2400000000000D+00  0.0000000000000D+00  0.0000000000000D+00
326  3.2500000000000D+00  0.0000000000000D+00  0.0000000000000D+00
327  3.2600000000000D+00  0.0000000000000D+00  0.0000000000000D+00
328  3.2700000000000D+00  0.0000000000000D+00  0.0000000000000D+00
329  3.2800000000000D+00  0.0000000000000D+00  0.0000000000000D+00
330  3.2900000000000D+00  0.0000000000000D+00  0.0000000000000D+00
331  3.3000000000000D+00  0.0000000000000D+00  0.0000000000000D+00
332  3.3100000000000D+00  0.0000000000000D+00  0.0000000000000D+00
333  3.3200000000000D+00  0.0000000000000D+00  0.0000000000000D+00
334  3.3300000000000D+00  0.0000000000000D+00  0.0000000000000D+00
335  3.3400000000000D+00  0.0000000000000D+00  0.0000000000000D+00
336  3.3500000000000D+00  0.0000000000000D+00  0.0000000000000D+00
337  3.3600000000000D+00  0.0000000000000D+00  0.0000000000000D+00
338  3.3700000000000D+00  0.0000000000000D+00  0.0000000000000D+00
339  3.3800000000000D+00  0.0000000000000D+00  0.0000000000000D+00
340  3.3900000000000D+00  0.0000000000000D+00  0.0000000000000D+00
341  3.4000000000000D+00  0.0000000000000D+00  0.0000000000000D+00
342  3.4100000000000D+00  0.0000000000000D+00  0.0000000000000D+00
343  3.4200000000000D+00  0.0000000000000D+00  0.0000000000000D+00
344  3.4300000000000D+00  0.0000000000000D+00  0.0000000000000D+00
345  3.4400000000000D+00  0.0000000000000D+00  0.0000000000000D+00
346  3.4500000000000D+00  0.0000000000000D+00  0.0000000000000D+00
347  3.4600000000000D+00  0.0000000000000D+00  0.0000000000000D+00
348  3.4700000000000D+00  0.0000000000000D+00  0.0000000000000D+00
349  3.4800000000000D+00  0.0000000000000D+00  0.0000000000000D+00
350  3.4900000000000D+00  0.0000000000000D+00  0.0000000000000D+00
351  3.5000000000000D+00  0.0000000000000D+00  0.0000000000000D+00
352  3.5100000000000D+00  0.0000000000000D+00  0.0000000000000D+00
353  3.5200000000000D+00  0.0000000000000D+00  0.0000000000000D+00
354  3.5300000000000D+00  0.0000000000000D+00  0.0000000000000D+00
355  3.5400000000000D+00  0.0000000000000D+00  0.0000000000000D+00
356  3.5500000000000D+00  0.0000000000000D+00  0.0000000000000D+00
357  3.5600000000000D+00  0.0000000000000D+00  0.0000000000000D+00
358  3.5700000000000D+00  0.0000000000000D+00  0.0000000000000D+00
359  3.5800000000000D+00  0.0000000000000D+00  0.0000000000000D+00
360  3.5900000000000D+00  0.0000000000000D+00  0.0000000000000D+00
361  3.6000000000000D+00  0.0000000000000D+00  0.0000000000000D+00
362  3.6100000000000D+00  0.0000000000000D+00  0.0000000000000D+00
363  3.6200000000000D+00  0.0000000000000D+00  0.0000000000000D+00
364  3.6300000000000D+00  0.0000000000000D+00  0.0000000000000D+00
365  3.6400000000000D+00  0.0000000000000D+00  0.0000000000000D+00
366  3.6500000000000D+00  0.0000000000000D+00  0.0000000000000D+00
367  3.6600000000000D+00  0.0000000000000D+00  0.0000000000000D+00
368  3.6700000000000D+00  0.0000000000000D+00  0.0000000000000D+00
369  3.6800000000000D+00  0.0000000000000D+00  0.0000000000000D+00
370  3.6900000000000D+00  0.0000000000000D+00  0.0000000000000D+00
371  3.7000000000000D+00  0.0000000000000D+00  0.0000000000000D+00
372  3.7100000000000D+00  0.0000000000000D+00  0.0000000000000D+00
373  3.7200000000000D+00  0.0000000000000D+00  0.0000000000000D+00
374  3.7300000000000D+00  0.0000000000000D+00  0.0000000000000D+00
375  3.7400000000000D+00  0.0000000000000D+00  0.0000000000000D+00
376  3.7500000000000D+00  0.0000000000000D+00  0.0000000000000D+00
377  3.7600000000000D+00  0.0000000000000D+00  0.0000000000000D+00
378  3.7700000000000D+00  0.0000000000000D+00  0.0000000000000D+00
379  3.7800000000000D+00  0.0000000000000D+00  0.0000000000000D+00
380  3.7900000000000D+00  0.0000000000000D+00  0.0000000000000D+00
381  3.8000000000000D+00  0.0000000000000D+00  0.0000000000000D+00
382  3.8100000000000D+00  0.0000000000000D+00  0.0000000000000D+00
383  3.8200000000000D+00  0.0000000000000D+00  0.0000000000000D+00
384  3.8300000000000D+00  0.0000000000000D+00  0.0000000000000D+00
385  3.8400000000000D+00  0.0000000000000D+00  0.0000000000000D+00
386  3.8500000000000D+00  0.0000000000000D+00  0.0000000000000D+00
387  3.8600000000000D+00  0.0000000000000D+00  0.0000000000000D+00
388  3.8700000000000D+00  0.0000000000000D+00  0.0000000000000D+00
389  3.8800000000000D+00  0.0000000000000D+00  0.0000000000000D+00
390  3.8900000000000D+00  0.0000000000000D+00  0.0000000000000D+00
391  3.9000000000000D+00  0.0000000000000D+00  0.0000000000000D+00
392  3.9100000000000D+00  0.0000000000000D+00  0.0000000000000D+00
393  3.9200000000000D+00  0.0000000000000D+00  0.0000000000000D+00
394  3.9300000000000D+00  0.0000000000000D+00  0.0000000000000D+00
395  3.9400000000000D+00  0.0000000000000D+00  0.0000000000000D+00
396  3.9500000000000D+00  0.0000000000000D+00  0.0000000000000D+00
397  3.9600000000000D+00  0.0000000000000D+00  0.0000000000000D+00
398  3.9700000000000D+00  0.0000000000000D+00  0.0000000000000D+00
399  3.9800000000000D+00  0.0000000000000D+00  0.0000000000000D+00
400  3.9900000000000D+00  0.0000000000000D+00  0.0000000000000D+00
401  4.0000000000000D+00  0.0000000000000D+00  0.0000000000000D+00
402  4.0100000000000D+00  0.0000000000000D+00  0.0000000000000D+00
403  4.0200000000000D+00  0.0000000000000D+00  0.0000000000000D+00
404  4.0300000000000D+00  0.0000000000000D+00  0.0000000000000D+00
405  4.0400000000000D+00  0.0000000000000D+00  0.0000000000000D+00
406  4.0500000000000D+00  0.0000000000000D+00  0.0000000000000D+00
407  4.0600000000000D+00  0.0000000000000D+00  0.0000000000000D+00
408  4.0700000000000D+00  0.0000000000000D+00  0.0000000000000D+00
409  4.0800000000000D+00  0.0000000000000D+00  0.0000000000000D+00
410  4.0900000000000D+00  0.0000000000000D+00  0.0000000000000D+00
411  4.1000000000000D+00  0.0000000000000D+00  0.0000000000000D+00
412  4.1100000000000D+00  0.0000000000000D+00  0.0000000000000D+00
413  4.1200000000000D+00  0.0000000000000D+00  0.0000000000000D+00
414  4.1300000000000D+00  0.0000000000000D+00  0.0000000000000D+00
415  4.1400000000000D+00  0.0000000000000D+00  0.0000000000000D+00
416  4.1500000000000D+00  0.0000000000000D+00  0.0000000000000D+00
417  4.1600000000000D+00  0.0000000000000D+00  0.0000000000000D+00
418  4.1700000000000D+00  0.0000000000000D+00  0.0000000000000D+00
419  4.1800000000000D+00  0.0000000000000D+00  0.0000000000000D+00
420  4.1900000000000D+00  0.0000000000000D+00  0.0000000000000D+00
421  4.2000000000000D+00  0.0000000000000D+00  0.0000000000000D+00
422  4.2100000000000D+00  0.0000000000000D+00  0.0000000000000D+00
423  4.2200000000000D+00  0.0000000000000D+00  0.0000000000000D+00
424  4.2300000000000D+00  0.0000000000000D+00  0.0000000000000D+00
425  4.2400000000000D+00  0.0000000000000D+00  0.0000000000000D+00
426  4.2500000000000D+00  0.0000000000000D+00  0.0000000000000D+00
427  4.2600000000000D+00  0.0000000000000D+00  0.0000000000000D+00
428  4.2700000000000D+00  0.0000000000000D+00  0.0000000000000D+00
429  4.2800000000000D+00  0.0000000000000D+00  0.0000000000000D+00
430  4.2900000000000D+00  0.0000000000000D+00  0.0000000000000D+00
431  4.3000000000000D+00  0.0000000000000D+00  0.0000000000000D+00
432  4.3100000000000D+00  0.0000000000000D+00  0.0000000000000D+00
433  4.3200000000000D+00  0.0000000000000D+00  0.0000000000000D+00
434  4.3300000000000D+00  0.0000000000000D+00  0.0000000000000D+00
435  4.3400000000000D+00  0.0000000000000D+00  0.0000000000000D+00
436  4.3500000000000D+00  0.0000000000000D+00  0.0000000000000D+00
437  4.3600000000000D+00  0.0000000000000D+00  0.0000000000000D+00
438  4.3700000000000D+00  0.0000000000000D+00  0.0000000000000D+00
439  4.3800000000000D+00  0.0000000000000D+00  0.0000000000000D+00
440  4.3900000000000D+00  0.0000000000000D+00  0.0000000000000D+00
441  4.4000000000000D+00  0.0000000000000D+00  0.0000000000000D+00
442  4.4100000000000D+00  0.0000000000000D+00  0.0000000000000D+00
443  4.4200000000000D+00  0.0000000000000D+00  0.0000000000000D+00