O     ONCVPSP  r_core=  1.31  1.46  1.37
      8.0000      6.0000      141008    zatom,zion,pspd
     8    11     2     4   601     0    pspcod,pspxc,lmax,lloc,mmax,r2well
  6.00000000  0.10000000  0.00000000    rchrg fchrg qchrg
     2     2     1     0     0    nproj
     0                 extension_switch
   0                         3.4229936712407D+00 -1.3255618287534D+00
     1  0.0000000000000D+00  0.0000000000000D+00  0.0000000000000D+00
     2  1.0000000000000D-02 -7.2838302198489D-02  9.1980171548168D-02
     3  2.0000000000000D-02 -1.4564198607002D-01  1.8217664728388D-01
     4  3.0000000000000D-02 -2.1837387078966D-01  2.6883952349740D-01
     5  4.0000000000000D-02 -2.9099170736553D-01  3.5028586154061D-01
     6  5.0000000000000D-02 -3.6344578557399D-01  4.2493163356286D-01
     7  6.0000000000000D-02 -4.3567670718386D-01  4.9132185489555D-01
     8  7.0000000000000D-02 -5.0761337606886D-01  5.4815834935531D-01
     9  8.0000000000000D-02 -5.7917125177064D-01  5.9432463616571D-01
    10  9.0000000000000D-02 -6.5025090818969D-01  6.2890747844771D-01
    11  1.0000000000000D-01 -7.2073693335201D-01  6.5121469364593D-01
    12  1.1000000000000D-01 -7.9049719989656D-01  6.6078889224779D-01
    13  1.2000000000000D-01 -8.5938252892202D-01  6.5741688519158D-01
    14  1.3000000000000D-01 -9.2722676248575D-01  6.4113457723327D-01
    15  1.4000000000000D-01 -9.9384725233197D-01  6.1222724616168D-01
    16  1.5000000000000D-01 -1.0590457645371D+00  5.7122518806287D-01
    17  1.6000000000000D-01 -1.1226097920436D+00  5.1889479523710D-01
    18  1.7000000000000D-01 -1.1843142585158D+00  4.5622521633854D-01
    19  1.8000000000000D-01 -1.2439235906085D+00  3.8441082490147D-01
    20  1.9000000000000D-01 -1.3011941283298D+00  3.0482979445354D-01
    21  2.0000000000000D-01 -1.3558768339596D+00  2.1901917342114D-01
    22  2.1000000000000D-01 -1.4077202589945D+00  1.2864687704448D-01
    23  2.2000000000000D-01 -1.4564737175122D+00  3.5481116113878D-02
    24  2.3000000000000D-01 -1.5018906167726D+00 -5.8642227882646D-02
    25  2.4000000000000D-01 -1.5437318835501D+00 -1.5185365451574D-01
    26  2.5000000000000D-01 -1.5817694262009D+00 -2.4228490050691D-01
    27  2.6000000000000D-01 -1.6157895890239D+00 -3.2810414068853D-01
    28  2.7000000000000D-01 -1.6455965056610D+00 -4.0755058604262D-01
    29  2.8000000000000D-01 -1.6710153175072D+00 -4.7896810212520D-01
    30  2.9000000000000D-01 -1.6918951936744D+00 -5.4083719043325D-01
    31  3.0000000000000D-01 -1.7081120909281D+00 -5.9180468857826D-01
    32  3.1000000000000D-01 -1.7195712044855D+00 -6.3071066840180D-01
    33  3.2000000000000D-01 -1.7262090605981D+00 -6.5661201140526D-01
    34  3.3000000000000D-01 -1.7279951844918D+00 -6.6880194575313D-01
    35  3.4000000000000D-01 -1.7249334346697D+00 -6.6682652023256D-01
    36  3.5000000000000D-01 -1.7170627027103D+00 -6.5049477905044D-01
    37  3.6000000000000D-01 -1.7044573297269D+00 -6.1988641990157D-01
    38  3.7000000000000D-01 -1.6872268439400D+00 -5.7535259394275D-01
    39  3.8000000000000D-01 -1.6655153446581D+00 -5.1751344872044D-01
    40  3.9000000000000D-01 -1.6395003104516D+00 -4.4724989698678D-01
    41  4.0000000000000D-01 -1.6093909407752D+00 -3.6569077426249D-01
    42  4.1000000000000D-01 -1.5754260510942D+00 -2.7419561703641D-01
    43  4.2000000000000D-01 -1.5378715276691D+00 -1.7433305635054D-01
    44  4.3000000000000D-01 -1.4970173859128D+00 -6.7855267431970D-02
    45  4.4000000000000D-01 -1.4531744757807D+00  4.3331097856497D-02
    46  4.5000000000000D-01 -1.4066708832532D+00  1.5719701085313D-01
    47  4.6000000000000D-01 -1.3578480825140D+00  2.7162565662922D-01
    48  4.7000000000000D-01 -1.3070568992335D+00  3.8444891505679D-01
    49  4.8000000000000D-01 -1.2546533533599D+00  4.9348505564211D-01
    50  4.9000000000000D-01 -1.2009945656193D+00  5.9657596621518D-01
    51  5.0000000000000D-01 -1.1464341985785D+00  6.9162834854615D-01
    52  5.1000000000000D-01 -1.0913185885250D+00  7.7664894371123D-01
    53  5.2000000000000D-01 -1.0359829194590D+00  8.4977908520277D-01
    54  5.3000000000000D-01 -9.8074683587365D-01  9.0933388959740D-01
    55  5.4000000000000D-01 -9.2591139266354D-01  9.5382947100076D-01
    56  5.5000000000000D-01 -8.7175586296976D-01  9.8201093419803D-01
    57  5.6000000000000D-01 -8.1853423944870D-01  9.9288252656199D-01
    58  5.7000000000000D-01 -7.6647390351081D-01  9.8571840101626D-01
    59  5.8000000000000D-01 -7.1577224603528D-01  9.6009045042178D-01
    60  5.9000000000000D-01 -6.6659658158325D-01  9.1586708332649D-01
    61  6.0000000000000D-01 -6.1908196233295D-01  8.5322920570825D-01
    62  6.1000000000000D-01 -5.7333134242450D-01  7.7266539410329D-01
    63  6.2000000000000D-01 -5.2941577018762D-01  6.7496617948959D-01
    64  6.3000000000000D-01 -4.8737401409048D-01  5.6122168104595D-01
    65  6.4000000000000D-01 -4.4721476161928D-01  4.3279777744610D-01
    66  6.5000000000000D-01 -4.0891756716957D-01  2.9132125333380D-01
    67  6.6000000000000D-01 -3.7243466967331D-01  1.3865646378076D-01
    68  6.7000000000000D-01 -3.3769391515823D-01 -2.3126424848070D-02
    69  6.8000000000000D-01 -3.0460134379002D-01 -1.9178129063960D-01
    70  6.9000000000000D-01 -2.7304411700838D-01 -3.6492167739991D-01
    71  7.0000000000000D-01 -2.4289415444122D-01 -5.4005938903136D-01
    72  7.1000000000000D-01 -2.1401163626162D-01 -7.1464353932928D-01
    73  7.2000000000000D-01 -1.8624869951499D-01 -8.8610149366572D-01
    74  7.3000000000000D-01 -1.5945303213073D-01 -1.0518777059655D+00
    75  7.4000000000000D-01 -1.3347221866365D-01 -1.2094829611500D+00
    76  7.5000000000000D-01 -1.0815706036342D-01 -1.3565286688213D+00
    77  7.6000000000000D-01 -8.3365254068637D-02 -1.4907672379462D+00
    78  7.7000000000000D-01 -5.8964820962765D-02 -1.6101292464254D+00
    79  7.8000000000000D-01 -3.4837266030901D-02 -1.7127575800638D+00
    80  7.9000000000000D-01 -1.0880425534890D-02 -1.7970381612457D+00
    81  8.0000000000000D-01  1.2989049238026D-02 -1.8616267299093D+00
    82  8.1000000000000D-01  3.6833616935418D-02 -1.9054712088466D+00
    83  8.2000000000000D-01  6.0693217268089D-02 -1.9278292626433D+00
    84  8.3000000000000D-01  8.4584117644297D-02 -1.9282807430542D+00
    85  8.4000000000000D-01  1.0849825608788D-01 -1.9067348016460D+00
    86  8.5000000000000D-01  1.3240309237381D-01 -1.8634315415676D+00
    87  8.6000000000000D-01  1.5624197032536D-01 -1.7989381728971D+00
    88  8.7000000000000D-01  1.7993498520770D-01 -1.7141397289071D+00
    89  8.8000000000000D-01  2.0338034123218D-01 -1.6102244926669D+00
    90  8.9000000000000D-01  2.2645617545192D-01 -1.4886643736918D+00
    91  9.0000000000000D-01  2.4902281587536D-01 -1.3511905619182D+00
    92  9.1000000000000D-01  2.7092543354801D-01 -1.1997648701497D+00
    93  9.2000000000000D-01  2.9199704077005D-01 -1.0365472551276D+00
    94  9.3000000000000D-01  3.1206178067473D-01 -8.6386008005890D-01
    95  9.4000000000000D-01  3.3093844727805D-01 -6.8414974588161D-01
    96  9.5000000000000D-01  3.4844417006204D-01 -4.9994637235085D-01
    97  9.6000000000000D-01  3.6439819345958D-01 -3.1382225024792D-01
    98  9.7000000000000D-01  3.7862553644862D-01 -1.2835127808544D-01
    99  9.8000000000000D-01  3.9096041874735D-01  5.3929222588184D-02
   100  9.9000000000000D-01  4.0125153052668D-01  2.3057632292601D-01
   101  1.0000000000000D+00  4.0936408177571D-01  3.9926638239282D-01
   102  1.0100000000000D+00  4.1518344288548D-01  5.5783622296230D-01
   103  1.0200000000000D+00  4.1861805679864D-01  7.0431712992286D-01
   104  1.0300000000000D+00  4.1960197891777D-01  8.3696518710916D-01
   105  1.0400000000000D+00  4.1809501801923D-01  9.5426518215260D-01
   106  1.0500000000000D+00  4.1409068522604D-01  1.0550220257917D+00
   107  1.0600000000000D+00  4.0761173829613D-01  1.1383157343788D+00
   108  1.0700000000000D+00  3.9871237816212D-01  1.2035297684601D+00
   109  1.0800000000000D+00  3.8747818178791D-01  1.2503547677285D+00
   110  1.0900000000000D+00  3.7402466059944D-01  1.2787755122188D+00
   111  1.1000000000000D+00  3.5850252284717D-01  1.2891418380651D+00
   112  1.1100000000000D+00  3.4108924854362D-01  1.2820763507359D+00
   113  1.1200000000000D+00  3.2198932998938D-01  1.2584847705639D+00
   114  1.1300000000000D+00  3.0143111404800D-01  1.2195211371824D+00
   115  1.1400000000000D+00  2.7966845343735D-01  1.1666309166734D+00
   116  1.1500000000000D+00  2.5697209481070D-01  1.1014507547839D+00
   117  1.1600000000000D+00  2.3362772028808D-01  1.0257940631434D+00
   118  1.1700000000000D+00  2.0993408416793D-01  9.4163067738207D-01
   119  1.1800000000000D+00  1.8619616479030D-01  8.5105106854518D-01
   120  1.1900000000000D+00  1.6272138849320D-01  7.5620185840709D-01
   121  1.2000000000000D+00  1.3981896373436D-01  6.5928117119385D-01
   122  1.2100000000000D+00  1.1779071377652D-01  5.6247425857429D-01
   123  1.2200000000000D+00  9.6926087229626D-02  4.6789650363247D-01
   124  1.2300000000000D+00  7.7505083266517D-02  3.7760790551821D-01
   125  1.2400000000000D+00  5.9790677076936D-02  2.9355546258431D-01
   126  1.2500000000000D+00  4.4015937340631D-02  2.1746256155735D-01
   127  1.2600000000000D+00  3.0396936067764D-02  1.5092333253868D-01
   128  1.2700000000000D+00  1.9124475232705D-02  9.5337818669466D-02
   129  1.2800000000000D+00  1.0345784571890D-02  5.1758429183088D-02
   130  1.2900000000000D+00  4.1882936282871D-03  2.1079377282699D-02
   131  1.3000000000000D+00  9.5055424639664D-04  4.9468164421340D-03
   132  1.3100000000000D+00 -1.7089107990447D-04 -6.8635867978769D-04
   133  1.3200000000000D+00 -1.1810714747717D-04 -5.5255178031531D-04
   134  1.3300000000000D+00  2.1113815047231D-06 -2.4232997321078D-06
   135  1.3400000000000D+00  0.0000000000000D+00  0.0000000000000D+00
   136  1.3500000000000D+00  0.0000000000000D+00  0.0000000000000D+00
   137  1.3600000000000D+00  0.0000000000000D+00  0.0000000000000D+00
   138  1.3700000000000D+00  0.0000000000000D+00  0.0000000000000D+00
   139  1.3800000000000D+00  0.0000000000000D+00  0.0000000000000D+00
   140  1.3900000000000D+00  0.0000000000000D+00  0.0000000000000D+00
   141  1.4000000000000D+00  0.0000000000000D+00  0.0000000000000D+00
   142  1.4100000000000D+00  0.0000000000000D+00  0.0000000000000D+00
   143  1.4200000000000D+00  0.0000000000000D+00  0.0000000000000D+00
   144  1.4300000000000D+00  0.0000000000000D+00  0.0000000000000D+00
   145  1.4400000000000D+00  0.0000000000000D+00  0.0000000000000D+00
   146  1.4500000000000D+00  0.0000000000000D+00  0.0000000000000D+00
   147  1.4600000000000D+00  0.0000000000000D+00  0.0000000000000D+00
   148  1.4700000000000D+00  0.0000000000000D+00  0.0000000000000D+00
   149  1.4800000000000D+00  0.0000000000000D+00  0.0000000000000D+00
   150  1.4900000000000D+00  0.0000000000000D+00  0.0000000000000D+00
   151  1.5000000000000D+00  0.0000000000000D+00  0.0000000000000D+00
   152  1.5100000000000D+00  0.0000000000000D+00  0.0000000000000D+00
   153  1.5200000000000D+00  0.0000000000000D+00  0.0000000000000D+00
   154  1.5300000000000D+00  0.0000000000000D+00  0.0000000000000D+00
   155  1.5400000000000D+00  0.0000000000000D+00  0.0000000000000D+00
   156  1.5500000000000D+00  0.0000000000000D+00  0.0000000000000D+00
   157  1.5600000000000D+00  0.0000000000000D+00  0.0000000000000D+00
   158  1.5700000000000D+00  0.0000000000000D+00  0.0000000000000D+00
   159  1.5800000000000D+00  0.0000000000000D+00  0.0000000000000D+00
   160  1.5900000000000D+00  0.0000000000000D+00  0.0000000000000D+00
   161  1.6000000000000D+00  0.0000000000000D+00  0.0000000000000D+00
   162  1.6100000000000D+00  0.0000000000000D+00  0.0000000000000D+00
   163  1.6200000000000D+00  0.0000000000000D+00  0.0000000000000D+00
   164  1.6300000000000D+00  0.0000000000000D+00  0.0000000000000D+00
   165  1.6400000000000D+00  0.0000000000000D+00  0.0000000000000D+00
   166  1.6500000000000D+00  0.0000000000000D+00  0.0000000000000D+00
   167  1.6600000000000D+00  0.0000000000000D+00  0.0000000000000D+00
   168  1.6700000000000D+00  0.0000000000000D+00  0.0000000000000D+00
   169  1.6800000000000D+00  0.0000000000000D+00  0.0000000000000D+00
   170  1.6900000000000D+00  0.0000000000000D+00  0.0000000000000D+00
   171  1.7000000000000D+00  0.0000000000000D+00  0.0000000000000D+00
   172  1.7100000000000D+00  0.0000000000000D+00  0.0000000000000D+00
   173  1.7200000000000D+00  0.0000000000000D+00  0.0000000000000D+00
   174  1.7300000000000D+00  0.0000000000000D+00  0.0000000000000D+00
   175  1.7400000000000D+00  0.0000000000000D+00  0.0000000000000D+00
   176  1.7500000000000D+00  0.0000000000000D+00  0.0000000000000D+00
   177  1.7600000000000D+00  0.0000000000000D+00  0.0000000000000D+00
   178  1.7700000000000D+00  0.0000000000000D+00  0.0000000000000D+00
   179  1.7800000000000D+00  0.0000000000000D+00  0.0000000000000D+00
   180  1.7900000000000D+00  0.0000000000000D+00  0.0000000000000D+00
   181  1.8000000000000D+00  0.0000000000000D+00  0.0000000000000D+00
   182  1.8100000000000D+00  0.0000000000000D+00  0.0000000000000D+00
   183  1.8200000000000D+00  0.0000000000000D+00  0.0000000000000D+00
   184  1.8300000000000D+00  0.0000000000000D+00  0.0000000000000D+00
   185  1.8400000000000D+00  0.0000000000000D+00  0.0000000000000D+00
   186  1.8500000000000D+00  0.0000000000000D+00  0.0000000000000D+00
   187  1.8600000000000D+00  0.0000000000000D+00  0.0000000000000D+00
   188  1.8700000000000D+00  0.0000000000000D+00  0.0000000000000D+00
   189  1.8800000000000D+00  0.0000000000000D+00  0.0000000000000D+00
   190  1.8900000000000D+00  0.0000000000000D+00  0.0000000000000D+00
   191  1.9000000000000D+00  0.0000000000000D+00  0.0000000000000D+00
   192  1.9100000000000D+00  0.0000000000000D+00  0.0000000000000D+00
   193  1.9200000000000D+00  0.0000000000000D+00  0.0000000000000D+00
   194  1.9300000000000D+00  0.0000000000000D+00  0.0000000000000D+00
   195  1.9400000000000D+00  0.0000000000000D+00  0.0000000000000D+00
   196  1.9500000000000D+00  0.0000000000000D+00  0.0000000000000D+00
   197  1.9600000000000D+00  0.0000000000000D+00  0.0000000000000D+00
   198  1.9700000000000D+00  0.0000000000000D+00  0.0000000000000D+00
   199  1.9800000000000D+00  0.0000000000000D+00  0.0000000000000D+00
   200  1.9900000000000D+00  0.0000000000000D+00  0.0000000000000D+00
   201  2.0000000000000D+00  0.0000000000000D+00  0.0000000000000D+00
   202  2.0100000000000D+00  0.0000000000000D+00  0.0000000000000D+00
   203  2.0200000000000D+00  0.0000000000000D+00  0.0000000000000D+00
   204  2.0300000000000D+00  0.0000000000000D+00  0.0000000000000D+00
   205  2.0400000000000D+00  0.0000000000000D+00  0.0000000000000D+00
   206  2.0500000000000D+00  0.0000000000000D+00  0.0000000000000D+00
   207  2.0600000000000D+00  0.0000000000000D+00  0.0000000000000D+00
   208  2.0700000000000D+00  0.0000000000000D+00  0.0000000000000D+00
   209  2.0800000000000D+00  0.0000000000000D+00  0.0000000000000D+00
   210  2.0900000000000D+00  0.0000000000000D+00  0.0000000000000D+00
   211  2.1000000000000D+00  0.0000000000000D+00  0.0000000000000D+00
   212  2.1100000000000D+00  0.0000000000000D+00  0.0000000000000D+00
   213  2.1200000000000D+00  0.0000000000000D+00  0.0000000000000D+00
   214  2.1300000000000D+00  0.0000000000000D+00  0.0000000000000D+00
   215  2.1400000000000D+00  0.0000000000000D+00  0.0000000000000D+00
   216  2.1500000000000D+00  0.0000000000000D+00  0.0000000000000D+00
   217  2.1600000000000D+00  0.0000000000000D+00  0.0000000000000D+00
   218  2.1700000000000D+00  0.0000000000000D+00  0.0000000000000D+00
   219  2.1800000000000D+00  0.0000000000000D+00  0.0000000000000D+00
   220  2.1900000000000D+00  0.0000000000000D+00  0.0000000000000D+00
   221  2.2000000000000D+00  0.0000000000000D+00  0.0000000000000D+00
   222  2.2100000000000D+00  0.0000000000000D+00  0.0000000000000D+00
   223  2.2200000000000D+00  0.0000000000000D+00  0.0000000000000D+00
   224  2.2300000000000D+00  0.0000000000000D+00  0.0000000000000D+00
   225  2.2400000000000D+00  0.0000000000000D+00  0.0000000000000D+00
   226  2.2500000000000D+00  0.0000000000000D+00  0.0000000000000D+00
   227  2.2600000000000D+00  0.0000000000000D+00  0.0000000000000D+00
   228  2.2700000000000D+00  0.0000000000000D+00  0.0000000000000D+00
   229  2.2800000000000D+00  0.0000000000000D+00  0.0000000000000D+00
   230  2.2900000000000D+00  0.0000000000000D+00  0.0000000000000D+00
   231  2.3000000000000D+00  0.0000000000000D+00  0.0000000000000D+00
   232  2.3100000000000D+00  0.0000000000000D+00  0.0000000000000D+00
   233  2.3200000000000D+00  0.0000000000000D+00  0.0000000000000D+00
   234  2.3300000000000D+00  0.0000000000000D+00  0.0000000000000D+00
   235  2.3400000000000D+00  0.0000000000000D+00  0.0000000000000D+00
   236  2.3500000000000D+00  0.0000000000000D+00  0.0000000000000D+00
   237  2.3600000000000D+00  0.0000000000000D+00  0.0000000000000D+00
   238  2.3700000000000D+00  0.0000000000000D+00  0.0000000000000D+00
   239  2.3800000000000D+00  0.0000000000000D+00  0.0000000000000D+00
   240  2.3900000000000D+00  0.0000000000000D+00  0.0000000000000D+00
   241  2.4000000000000D+00  0.0000000000000D+00  0.0000000000000D+00
   242  2.4100000000000D+00  0.0000000000000D+00  0.0000000000000D+00
   243  2.4200000000000D+00  0.0000000000000D+00  0.0000000000000D+00
   244  2.4300000000000D+00  0.0000000000000D+00  0.0000000000000D+00
   245  2.4400000000000D+00  0.0000000000000D+00  0.0000000000000D+00
   246  2.4500000000000D+00  0.0000000000000D+00  0.0000000000000D+00
   247  2.4600000000000D+00  0.0000000000000D+00  0.0000000000000D+00
   248  2.4700000000000D+00  0.0000000000000D+00  0.0000000000000D+00
   249  2.4800000000000D+00  0.0000000000000D+00  0.0000000000000D+00
   250  2.4900000000000D+00  0.0000000000000D+00  0.0000000000000D+00
   251  2.5000000000000D+00  0.0000000000000D+00  0.0000000000000D+00
   252  2.5100000000000D+00  0.0000000000000D+00  0.0000000000000D+00
   253  2.5200000000000D+00  0.0000000000000D+00  0.0000000000000D+00
   254  2.5300000000000D+00  0.0000000000000D+00  0.0000000000000D+00
   255  2.5400000000000D+00  0.0000000000000D+00  0.0000000000000D+00
   256  2.5500000000000D+00  0.0000000000000D+00  0.0000000000000D+00
   257  2.5600000000000D+00  0.0000000000000D+00  0.0000000000000D+00
   258  2.5700000000000D+00  0.0000000000000D+00  0.0000000000000D+00
   259  2.5800000000000D+00  0.0000000000000D+00  0.0000000000000D+00
   260  2.5900000000000D+00  0.0000000000000D+00  0.0000000000000D+00
   261  2.6000000000000D+00  0.0000000000000D+00  0.0000000000000D+00
   262  2.6100000000000D+00  0.0000000000000D+00  0.0000000000000D+00
   263  2.6200000000000D+00  0.0000000000000D+00  0.0000000000000D+00
   264  2.6300000000000D+00  0.0000000000000D+00  0.0000000000000D+00
   265  2.6400000000000D+00  0.0000000000000D+00  0.0000000000000D+00
   266  2.6500000000000D+00  0.0000000000000D+00  0.0000000000000D+00
   267  2.6600000000000D+00  0.0000000000000D+00  0.0000000000000D+00
   268  2.6700000000000D+00  0.0000000000000D+00  0.0000000000000D+00
   269  2.6800000000000D+00  0.0000000000000D+00  0.0000000000000D+00
   270  2.6900000000000D+00  0.0000000000000D+00  0.0000000000000D+00
   271  2.7000000000000D+00  0.0000000000000D+00  0.0000000000000D+00
   272  2.7100000000000D+00  0.0000000000000D+00  0.0000000000000D+00
   273  2.7200000000000D+00  0.0000000000000D+00  0.0000000000000D+00
   274  2.7300000000000D+00  0.0000000000000D+00  0.0000000000000D+00
   275  2.7400000000000D+00  0.0000000000000D+00  0.0000000000000D+00
   276  2.7500000000000D+00  0.0000000000000D+00  0.0000000000000D+00
   277  2.7600000000000D+00  0.0000000000000D+00  0.0000000000000D+00
   278  2.7700000000000D+00  0.0000000000000D+00  0.0000000000000D+00
   279  2.7800000000000D+00  0.0000000000000D+00  0.0000000000000D+00
   280  2.7900000000000D+00  0.0000000000000D+00  0.0000000000000D+00
   281  2.8000000000000D+00  0.0000000000000D+00  0.0000000000000D+00
   282  2.8100000000000D+00  0.0000000000000D+00  0.0000000000000D+00
   283  2.8200000000000D+00  0.0000000000000D+00  0.0000000000000D+00
   284  2.8300000000000D+00  0.0000000000000D+00  0.0000000000000D+00
   285  2.8400000000000D+00  0.0000000000000D+00  0.0000000000000D+00
   286  2.8500000000000D+00  0.0000000000000D+00  0.0000000000000D+00
   287  2.8600000000000D+00  0.0000000000000D+00  0.0000000000000D+00
   288  2.8700000000000D+00  0.0000000000000D+00  0.0000000000000D+00
   289  2.8800000000000D+00  0.0000000000000D+00  0.0000000000000D+00
   290  2.8900000000000D+00  0.0000000000000D+00  0.0000000000000D+00
   291  2.9000000000000D+00  0.0000000000000D+00  0.0000000000000D+00
   292  2.9100000000000D+00  0.0000000000000D+00  0.0000000000000D+00
   293  2.9200000000000D+00  0.0000000000000D+00  0.0000000000000D+00
   294  2.9300000000000D+00  0.0000000000000D+00  0.0000000000000D+00
   295  2.9400000000000D+00  0.0000000000000D+00  0.0000000000000D+00
   296  2.9500000000000D+00  0.0000000000000D+00  0.0000000000000D+00
   297  2.9600000000000D+00  0.0000000000000D+00  0.0000000000000D+00
   298  2.9700000000000D+00  0.0000000000000D+00  0.0000000000000D+00
   299  2.9800000000000D+00  0.0000000000000D+00  0.0000000000000D+00
   300  2.9900000000000D+00  0.0000000000000D+00  0.0000000000000D+00
   301  3.0000000000000D+00  0.0000000000000D+00  0.0000000000000D+00
   302  3.0100000000000D+00  0.0000000000000D+00  0.0000000000000D+00
   303  3.0200000000000D+00  0.0000000000000D+00  0.0000000000000D+00
   304  3.0300000000000D+00  0.0000000000000D+00  0.0000000000000D+00
   305  3.0400000000000D+00  0.0000000000000D+00  0.0000000000000D+00
   306  3.0500000000000D+00  0.0000000000000D+00  0.0000000000000D+00
   307  3.0600000000000D+00  0.0000000000000D+00  0.0000000000000D+00
   308  3.0700000000000D+00  0.0000000000000D+00  0.0000000000000D+00
   309  3.0800000000000D+00  0.0000000000000D+00  0.0000000000000D+00
   310  3.0900000000000D+00  0.0000000000000D+00  0.0000000000000D+00
   311  3.1000000000000D+00  0.0000000000000D+00  0.0000000000000D+00
   312  3.1100000000000D+00  0.0000000000000D+00  0.0000000000000D+00
   313  3.1200000000000D+00  0.0000000000000D+00  0.0000000000000D+00
   314  3.1300000000000D+00  0.0000000000000D+00  0.0000000000000D+00
   315  3.1400000000000D+00  0.0000000000000D+00  0.0000000000000D+00
   316  3.1500000000000D+00  0.0000000000000D+00  0.0000000000000D+00
   317  3.1600000000000D+00  0.0000000000000D+00  0.0000000000000D+00
   318  3.1700000000000D+00  0.0000000000000D+00  0.0000000000000D+00
   319  3.1800000000000D+00  0.0000000000000D+00  0.0000000000000D+00
   320  3.1900000000000D+00  0.0000000000000D+00  0.0000000000000D+00
   321  3.2000000000000D+00  0.0000000000000D+00  0.0000000000000D+00
   322  3.2100000000000D+00  0.0000000000000D+00  0.0000000000000D+00
   323  3.2200000000000D+00  0.0000000000000D+00  0.0000000000000D+00
   324  3.2300000000000D+00  0.0000000000000D+00  0.0000000000000D+00
   325  3.2400000000000D+00  0.0000000000000D+00  0.0000000000000D+00
   326  3.2500000000000D+00  0.0000000000000D+00  0.0000000000000D+00
   327  3.2600000000000D+00  0.0000000000000D+00  0.0000000000000D+00
   328  3.2700000000000D+00  0.0000000000000D+00  0.0000000000000D+00
   329  3.2800000000000D+00  0.0000000000000D+00  0.0000000000000D+00
   330  3.2900000000000D+00  0.0000000000000D+00  0.0000000000000D+00
   331  3.3000000000000D+00  0.0000000000000D+00  0.0000000000000D+00
   332  3.3100000000000D+00  0.0000000000000D+00  0.0000000000000D+00
   333  3.3200000000000D+00  0.0000000000000D+00  0.0000000000000D+00
   334  3.3300000000000D+00  0.0000000000000D+00  0.0000000000000D+00
   335  3.3400000000000D+00  0.0000000000000D+00  0.0000000000000D+00
   336  3.3500000000000D+00  0.0000000000000D+00  0.0000000000000D+00
   337  3.3600000000000D+00  0.0000000000000D+00  0.0000000000000D+00
   338  3.3700000000000D+00  0.0000000000000D+00  0.0000000000000D+00
   339  3.3800000000000D+00  0.0000000000000D+00  0.0000000000000D+00
   340  3.3900000000000D+00  0.0000000000000D+00  0.0000000000000D+00
   341  3.4000000000000D+00  0.0000000000000D+00  0.0000000000000D+00
   342  3.4100000000000D+00  0.0000000000000D+00  0.0000000000000D+00
   343  3.4200000000000D+00  0.0000000000000D+00  0.0000000000000D+00
   344  3.4300000000000D+00  0.0000000000000D+00  0.0000000000000D+00
   345  3.4400000000000D+00  0.0000000000000D+00  0.0000000000000D+00
   346  3.4500000000000D+00  0.0000000000000D+00  0.0000000000000D+00
   347  3.4600000000000D+00  0.0000000000000D+00  0.0000000000000D+00
   348  3.4700000000000D+00  0.0000000000000D+00  0.0000000000000D+00
   349  3.4800000000000D+00  0.0000000000000D+00  0.0000000000000D+00
   350  3.4900000000000D+00  0.0000000000000D+00  0.0000000000000D+00
   351  3.5000000000000D+00  0.0000000000000D+00  0.0000000000000D+00
   352  3.5100000000000D+00  0.0000000000000D+00  0.0000000000000D+00
   353  3.5200000000000D+00  0.0000000000000D+00  0.0000000000000D+00
   354  3.5300000000000D+00  0.0000000000000D+00  0.0000000000000D+00
   355  3.5400000000000D+00  0.0000000000000D+00  0.0000000000000D+00
   356  3.5500000000000D+00  0.0000000000000D+00  0.0000000000000D+00
   357  3.5600000000000D+00  0.0000000000000D+00  0.0000000000000D+00
   358  3.5700000000000D+00  0.0000000000000D+00  0.0000000000000D+00
   359  3.5800000000000D+00  0.0000000000000D+00  0.0000000000000D+00
   360  3.5900000000000D+00  0.0000000000000D+00  0.0000000000000D+00
   361  3.6000000000000D+00  0.0000000000000D+00  0.0000000000000D+00
   362  3.6100000000000D+00  0.0000000000000D+00  0.0000000000000D+00
   363  3.6200000000000D+00  0.0000000000000D+00  0.0000000000000D+00
   364  3.6300000000000D+00  0.0000000000000D+00  0.0000000000000D+00
   365  3.6400000000000D+00  0.0000000000000D+00  0.0000000000000D+00
   366  3.6500000000000D+00  0.0000000000000D+00  0.0000000000000D+00
   367  3.6600000000000D+00  0.0000000000000D+00  0.0000000000000D+00
   368  3.6700000000000D+00  0.0000000000000D+00  0.0000000000000D+00
   369  3.6800000000000D+00  0.0000000000000D+00  0.0000000000000D+00
   370  3.6900000000000D+00  0.0000000000000D+00  0.0000000000000D+00
   371  3.7000000000000D+00  0.0000000000000D+00  0.0000000000000D+00
   372  3.7100000000000D+00  0.0000000000000D+00  0.0000000000000D+00
   373  3.7200000000000D+00  0.0000000000000D+00  0.0000000000000D+00
   374  3.7300000000000D+00  0.0000000000000D+00  0.0000000000000D+00
   375  3.7400000000000D+00  0.0000000000000D+00  0.0000000000000D+00
   376  3.7500000000000D+00  0.0000000000000D+00  0.0000000000000D+00
   377  3.7600000000000D+00  0.0000000000000D+00  0.0000000000000D+00
   378  3.7700000000000D+00  0.0000000000000D+00  0.0000000000000D+00
   379  3.7800000000000D+00  0.0000000000000D+00  0.0000000000000D+00
   380  3.7900000000000D+00  0.0000000000000D+00  0.0000000000000D+00
   381  3.8000000000000D+00  0.0000000000000D+00  0.0000000000000D+00
   382  3.8100000000000D+00  0.0000000000000D+00  0.0000000000000D+00
   383  3.8200000000000D+00  0.0000000000000D+00  0.0000000000000D+00
   384  3.8300000000000D+00  0.0000000000000D+00  0.0000000000000D+00
   385  3.8400000000000D+00  0.0000000000000D+00  0.0000000000000D+00
   386  3.8500000000000D+00  0.0000000000000D+00  0.0000000000000D+00
   387  3.8600000000000D+00  0.0000000000000D+00  0.0000000000000D+00
   388  3.8700000000000D+00  0.0000000000000D+00  0.0000000000000D+00
   389  3.8800000000000D+00  0.0000000000000D+00  0.0000000000000D+00
   390  3.8900000000000D+00  0.0000000000000D+00  0.0000000000000D+00
   391  3.9000000000000D+00  0.0000000000000D+00  0.0000000000000D+00
   392  3.9100000000000D+00  0.0000000000000D+00  0.0000000000000D+00
   393  3.9200000000000D+00  0.0000000000000D+00  0.0000000000000D+00
   394  3.9300000000000D+00  0.0000000000000D+00  0.0000000000000D+00
   395  3.9400000000000D+00  0.0000000000000D+00  0.0000000000000D+00
   396  3.9500000000000D+00  0.0000000000000D+00  0.0000000000000D+00
   397  3.9600000000000D+00  0.0000000000000D+00  0.0000000000000D+00
   398  3.9700000000000D+00  0.0000000000000D+00  0.0000000000000D+00
   399  3.9800000000000D+00  0.0000000000000D+00  0.0000000000000D+00
   400  3.9900000000000D+00  0.0000000000000D+00  0.0000000000000D+00
   401  4.0000000000000D+00  0.0000000000000D+00  0.0000000000000D+00
   402  4.0100000000000D+00  0.0000000000000D+00  0.0000000000000D+00
   403  4.0200000000000D+00  0.0000000000000D+00  0.0000000000000D+00
   404  4.0300000000000D+00  0.0000000000000D+00  0.0000000000000D+00
   405  4.0400000000000D+00  0.0000000000000D+00  0.0000000000000D+00
   406  4.0500000000000D+00  0.0000000000000D+00  0.0000000000000D+00
   407  4.0600000000000D+00  0.0000000000000D+00  0.0000000000000D+00
   408  4.0700000000000D+00  0.0000000000000D+00  0.0000000000000D+00
   409  4.0800000000000D+00  0.0000000000000D+00  0.0000000000000D+00
   410  4.0900000000000D+00  0.0000000000000D+00  0.0000000000000D+00
   411  4.1000000000000D+00  0.0000000000000D+00  0.0000000000000D+00
   412  4.1100000000000D+00  0.0000000000000D+00  0.0000000000000D+00
   413  4.1200000000000D+00  0.0000000000000D+00  0.0000000000000D+00
   414  4.1300000000000D+00  0.0000000000000D+00  0.0000000000000D+00
   415  4.1400000000000D+00  0.0000000000000D+00  0.0000000000000D+00
   416  4.1500000000000D+00  0.0000000000000D+00  0.0000000000000D+00
   417  4.1600000000000D+00  0.0000000000000D+00  0.0000000000000D+00
   418  4.1700000000000D+00  0.0000000000000D+00  0.0000000000000D+00
   419  4.1800000000000D+00  0.0000000000000D+00  0.0000000000000D+00
   420  4.1900000000000D+00  0.0000000000000D+00  0.0000000000000D+00
   421  4.2000000000000D+00  0.0000000000000D+00  0.0000000000000D+00
   422  4.2100000000000D+00  0.0000000000000D+00  0.0000000000000D+00
   423  4.2200000000000D+00  0.0000000000000D+00  0.0000000000000D+00