Al    ONCVPSP  r_core=  1.77  1.77  1.92
     13.0000      3.0000      141002    zatom,zion,pspd
     8    11     2     4   601     0    pspcod,pspxc,lmax,lloc,mmax,r2well
  6.00000000  1.65000000  0.00000000    rchrg fchrg qchrg
     2     2     2     0     0    nproj
     0                 extension_switch
   0                         5.3597525032092D+00  6.9677951169433D-01
     1  0.0000000000000D+00  0.0000000000000D+00  0.0000000000000D+00
     2  1.0000000000000D-02 -2.1390820318454D-02  1.0596304415515D-02
     3  2.0000000000000D-02 -4.2900714180565D-02  2.0950061372246D-02
     4  3.0000000000000D-02 -6.4647232299651D-02  3.0821566578713D-02
     5  4.0000000000000D-02 -8.6744895376795D-02  3.9976772832898D-02
     6  5.0000000000000D-02 -1.0930371806138D-01  4.8190045743708D-02
     7  6.0000000000000D-02 -1.3242777924370D-01  5.5246832866600D-02
     8  7.0000000000000D-02 -1.5621385340518D-01  6.0946218738494D-02
     9  8.0000000000000D-02 -1.8075011716686D-01  6.5103339393010D-02
    10  9.0000000000000D-02 -2.0611494440952D-01  6.7551631376003D-02
    11  1.0000000000000D-01 -2.3237580249663D-01  6.8144891859162D-02
    12  1.1000000000000D-01 -2.5958826111546D-01  6.6759128354208D-02
    13  1.2000000000000D-01 -2.8779512412963D-01  6.3294178632565D-02
    14  1.3000000000000D-01 -3.1702569361561D-01  5.7675083743212D-02
    15  1.4000000000000D-01 -3.4729517411643D-01  4.9853199157829D-02
    16  1.5000000000000D-01 -3.7860422327657D-01  3.9807032570599D-02
    17  1.6000000000000D-01 -4.1093865440799D-01  2.7542798037651D-02
    18  1.7000000000000D-01 -4.4426929392305D-01  1.3094681029019D-02
    19  1.8000000000000D-01 -4.7855199626739D-01 -3.4751904568552D-03
    20  1.9000000000000D-01 -5.1372781628016D-01 -2.2077068508713D-02
    21  2.0000000000000D-01 -5.4972333808975D-01 -4.2594199898392D-02
    22  2.1000000000000D-01 -5.8645115797983D-01 -6.4883727782280D-02
    23  2.2000000000000D-01 -6.2381051666125D-01 -8.8777871883318D-02
    24  2.3000000000000D-01 -6.6168807564798D-01 -1.1408537715698D-01
    25  2.4000000000000D-01 -6.9995882891184D-01 -1.4059321435503D-01
    26  2.5000000000000D-01 -7.3848714733981D-01 -1.6806852774504D-01
    27  2.6000000000000D-01 -7.7712793186370D-01 -1.9626078483906D-01
    28  2.7000000000000D-01 -8.1572788752185D-01 -2.2490415086709D-01
    29  2.8000000000000D-01 -8.5412687944782D-01 -2.5372001510440D-01
    30  2.9000000000000D-01 -8.9215937823136D-01 -2.8241968280088D-01
    31  3.0000000000000D-01 -9.2965597184643D-01 -3.1070719003936D-01
    32  3.1000000000000D-01 -9.6644493073334D-01 -3.3828221637248D-01
    33  3.2000000000000D-01 -1.0023538011852D+00 -3.6484304880175D-01
    34  3.3000000000000D-01 -1.0372110515491D+00 -3.9008964254997D-01
    35  3.4000000000000D-01 -1.0708476813261D+00 -4.1372661106263D-01
    36  3.5000000000000D-01 -1.1030988495315D+00 -4.3546625003501D-01
    37  3.6000000000000D-01 -1.1338054707381D+00 -4.5503149926350D-01
    38  3.7000000000000D-01 -1.1628157783655D+00 -4.7215884136991D-01
    39  3.8000000000000D-01 -1.1899867867026D+00 -4.8660100994400D-01
    40  3.9000000000000D-01 -1.2151857459734D+00 -4.9812968218642D-01
    41  4.0000000000000D-01 -1.2382914759581D+00 -5.0653794315612D-01
    42  4.1000000000000D-01 -1.2591955823301D+00 -5.1164252939613D-01
    43  4.2000000000000D-01 -1.2778035871506D+00 -5.1328591015426D-01
    44  4.3000000000000D-01 -1.2940359255201D+00 -5.1133811703382D-01
    45  4.4000000000000D-01 -1.3078288063978D+00 -5.0569831836312D-01
    46  4.5000000000000D-01 -1.3191349284268D+00 -4.9629612129143D-01
    47  4.6000000000000D-01 -1.3279240426526D+00 -4.8309258659721D-01
    48  4.7000000000000D-01 -1.3341833460060D+00 -4.6608092657100D-01
    49  4.8000000000000D-01 -1.3379177284978D+00 -4.4528692836572D-01
    50  4.9000000000000D-01 -1.3391498855720D+00 -4.2076912311736D-01
    51  5.0000000000000D-01 -1.3379201662965D+00 -3.9261846427874D-01
    52  5.1000000000000D-01 -1.3342862976414D+00 -3.6095777396782D-01
    53  5.2000000000000D-01 -1.3283230304250D+00 -3.2594103754045D-01
    54  5.3000000000000D-01 -1.3201214923433D+00 -2.8775215602255D-01
    55  5.4000000000000D-01 -1.3097883969850D+00 -2.4660343596624D-01
    56  5.5000000000000D-01 -1.2974452374578D+00 -2.0273402926957D-01
    57  5.6000000000000D-01 -1.2832271353935D+00 -1.5640776334193D-01
    58  5.7000000000000D-01 -1.2672817017513D+00 -1.0791095900588D-01
    59  5.8000000000000D-01 -1.2497677394919D+00 -5.7549988671051D-02
    60  5.9000000000000D-01 -1.2308537262829D+00 -5.6483897271239D-03
    61  6.0000000000000D-01 -1.2107164998440D+00  4.7455598544828D-02
    62  6.1000000000000D-01 -1.1895393143956D+00  1.0141272338557D-01
    63  6.2000000000000D-01 -1.1675105070670D+00  1.5586521027711D-01
    64  6.3000000000000D-01 -1.1448215945796D+00  2.1045035454415D-01
    65  6.4000000000000D-01 -1.1216653666409D+00  2.6480410753366D-01
    66  6.5000000000000D-01 -1.0982344374846D+00  3.1856378588542D-01
    67  6.6000000000000D-01 -1.0747192387391D+00  3.7137184377085D-01
    68  6.7000000000000D-01 -1.0513060259298D+00  4.2287961161967D-01
    69  6.8000000000000D-01 -1.0281754928949D+00  4.7274987990174D-01
    70  6.9000000000000D-01 -1.0055010856396D+00  5.2066005286340D-01
    71  7.0000000000000D-01 -9.8344702843255D-01  5.6630584116982D-01
    72  7.1000000000000D-01 -9.6216680409065D-01  6.0940409278828D-01
    73  7.2000000000000D-01 -9.4180194130699D-01  6.4969504402255D-01
    74  7.3000000000000D-01 -9.2248054343442D-01  6.8694505618104D-01
    75  7.4000000000000D-01 -9.0431605260217D-01  7.2094890619900D-01
    76  7.5000000000000D-01 -8.8740634722556D-01  7.5153144920038D-01
    77  7.6000000000000D-01 -8.7183220410358D-01  7.7855046941164D-01
    78  7.7000000000000D-01 -8.5765705417702D-01  8.0189710152468D-01
    79  7.8000000000000D-01 -8.4492623997332D-01  8.2149718549829D-01
    80  7.9000000000000D-01 -8.3366653820594D-01  8.3731212137726D-01
    81  8.0000000000000D-01 -8.2388588751148D-01  8.4933933742384D-01
    82  8.1000000000000D-01 -8.1557329863559D-01  8.5761241440944D-01
    83  8.2000000000000D-01 -8.0869894883229D-01  8.6220086306034D-01
    84  8.3000000000000D-01 -8.0321446047808D-01  8.6320955497099D-01
    85  8.4000000000000D-01 -7.9905336215502D-01  8.6077781058727D-01
    86  8.5000000000000D-01 -7.9613172873441D-01  8.5507815110173D-01
    87  8.6000000000000D-01 -7.9434899530254D-01  8.4631472428040D-01
    88  8.7000000000000D-01 -7.9358893811492D-01  8.3472141735102D-01
    89  8.8000000000000D-01 -7.9372081414713D-01  8.2055967312083D-01
    90  8.9000000000000D-01 -7.9460064922972D-01  8.0411602845941D-01
    91  9.0000000000000D-01 -7.9607266321338D-01  7.8569939717175D-01
    92  9.1000000000000D-01 -7.9797081911502D-01  7.6563812208891D-01
    93  9.2000000000000D-01 -8.0012048175698D-01  7.4427682389579D-01
    94  9.3000000000000D-01 -8.0234017005223D-01  7.2197307675464D-01
    95  9.4000000000000D-01 -8.0444338584147D-01  6.9909394310745D-01
    96  9.5000000000000D-01 -8.0624033203125D-01  6.7601272994385D-01
    97  9.6000000000000D-01 -8.0754013038077D-01  6.5310477563972D-01
    98  9.7000000000000D-01 -8.0815279766451D-01  6.3074372751993D-01
    99  9.8000000000000D-01 -8.0789103383976D-01  6.0929817605617D-01
   100  9.9000000000000D-01 -8.0657224275284D-01  5.8912784185729D-01
   101  1.0000000000000D+00 -8.0402044487390D-01  5.7057997505196D-01
   102  1.0100000000000D+00 -8.0006813116717D-01  5.5398586941131D-01
   103  1.0200000000000D+00 -7.9455732405918D-01  5.3965888646433D-01
   104  1.0300000000000D+00 -7.8734293221005D-01  5.2788811408181D-01
   105  1.0400000000000D+00 -7.7829383806611D-01  5.1893635580705D-01
   106  1.0500000000000D+00 -7.6729369597140D-01  5.1303865841694D-01
   107  1.0600000000000D+00 -7.5424259836376D-01  5.1039919022613D-01
   108  1.0700000000000D+00 -7.3905735618032D-01  5.1119074570716D-01
   109  1.0800000000000D+00 -7.2167425974829D-01  5.1554955570465D-01
   110  1.0900000000000D+00 -7.0205069514665D-01  5.2357228374274D-01
   111  1.1000000000000D+00 -6.8016338234707D-01  5.3531939614041D-01
   112  1.1100000000000D+00 -6.5600950422223D-01  5.5081306304716D-01
   113  1.1200000000000D+00 -6.2960575653134D-01  5.7003897564809D-01
   114  1.1300000000000D+00 -6.0099456694003D-01  5.9293469178021D-01
   115  1.1400000000000D+00 -5.7023741501556D-01  6.1940225945223D-01
   116  1.1500000000000D+00 -5.3741597198486D-01  6.4930610080330D-01
   117  1.1600000000000D+00 -5.0263177151253D-01  6.8247365856056D-01
   118  1.1700000000000D+00 -4.6600977077406D-01  7.1868880827137D-01
   119  1.1800000000000D+00 -4.2769161580997D-01  7.5770452092826D-01
   120  1.1900000000000D+00 -3.8783553125872D-01  7.9924308086908D-01
   121  1.2000000000000D+00 -3.4661897440648D-01  8.4299122719826D-01
   122  1.2100000000000D+00 -3.0423429026908D-01  8.8860835472803D-01
   123  1.2200000000000D+00 -2.6088631174157D-01  9.3573098728798D-01
   124  1.2300000000000D+00 -2.1679292990655D-01  9.8397178548927D-01
   125  1.2400000000000D+00 -1.7218256249109D-01  1.0329244839904D+00
   126  1.2500000000000D+00 -1.2729104758326D-01  1.0821695604337D+00
   127  1.2600000000000D+00 -8.2362092523248D-02  1.1312734486467D+00
   128  1.2700000000000D+00 -3.7641842395756D-02  1.1797990531314D+00
   129  1.2800000000000D+00  6.6208053542746D-03  1.2273048398171D+00
   130  1.2900000000000D+00  5.0174560346512D-02  1.2733456143091D+00
   131  1.3000000000000D+00  9.2775366583337D-02  1.3174909373887D+00
   132  1.3100000000000D+00  1.3417972156964D-01  1.3593121424384D+00
   133  1.3200000000000D+00  1.7414976713768D-01  1.3983921449486D+00
   134  1.3300000000000D+00  2.1246282466495D-01  1.4343435142344D+00
   135  1.3400000000000D+00  2.4889809526118D-01  1.4667830542219D+00
   136  1.3500000000000D+00  2.8325368968413D-01  1.4953642455848D+00
   137  1.3600000000000D+00  3.1534488468862D-01  1.5197737628090D+00
   138  1.3700000000000D+00  3.4498889753639D-01  1.5397026181473D+00
   139  1.3800000000000D+00  3.7204149897500D-01  1.5549155052124D+00
   140  1.3900000000000D+00  3.9636331730983D-01  1.5651868547789D+00
   141  1.4000000000000D+00  4.1783756233847D-01  1.5703344391743D+00
   142  1.4100000000000D+00  4.3637995366730D-01  1.5702379359845D+00
   143  1.4200000000000D+00  4.5190766309708D-01  1.5647803803574D+00
   144  1.4300000000000D+00  4.6438663603792D-01  1.5539372339314D+00
   145  1.4400000000000D+00  4.7378838453319D-01  1.5376949378462D+00
   146  1.4500000000000D+00  4.8011469909265D-01  1.5160974391910D+00
   147  1.4600000000000D+00  4.8339797390831D-01  1.4892465109335D+00
   148  1.4700000000000D+00  4.8367702647301D-01  1.4572566347196D+00
   149  1.4800000000000D+00  4.8103972904553D-01  1.4203343580989D+00
   150  1.4900000000000D+00  4.7557179006923D-01  1.3786828137007D+00
   151  1.5000000000000D+00  4.6740215558833D-01  1.3325860463112D+00
   152  1.5100000000000D+00  4.5666756196603D-01  1.2823430085179D+00
   153  1.5200000000000D+00  4.4353107554162D-01  1.2283019829245D+00
   154  1.5300000000000D+00  4.2817485974806D-01  1.1708466240005D+00
   155  1.5400000000000D+00  4.1079350585184D-01  1.1103842764178D+00
   156  1.5500000000000D+00  3.9160501180584D-01  1.0473646952767D+00
   157  1.5600000000000D+00  3.7083218356909D-01  9.8224771819668D-01
   158  1.5700000000000D+00  3.4871765433369D-01  9.1552770529842D-01
   159  1.5800000000000D+00  3.2550816713250D-01  8.4770822631799D-01
   160  1.5900000000000D+00  3.0145985841598D-01  7.7930721858765D-01
   161  1.6000000000000D+00  2.7683497301747D-01  7.1085530004790D-01
   162  1.6100000000000D+00  2.5189491934499D-01  6.4287831786436D-01
   163  1.6200000000000D+00  2.2690655056626D-01  5.7591288594420D-01
   164  1.6300000000000D+00  2.0212862423575D-01  5.1047743173758D-01
   165  1.6400000000000D+00  1.7782163592987D-01  4.4709350496950D-01
   166  1.6500000000000D+00  1.5423314179555D-01  3.8625558030202D-01
   167  1.6600000000000D+00  1.3160716931601D-01  3.2845075873377D-01
   168  1.6700000000000D+00  1.1017102762804D-01  2.7413208373908D-01
   169  1.6800000000000D+00  9.0143503679120D-02  2.2373541292772D-01
   170  1.6900000000000D+00  7.1722353854607D-02  1.7765431410338D-01
   171  1.7000000000000D+00  5.5094049710001D-02  1.3625996894364D-01
   172  1.7100000000000D+00  4.0417503241564D-02  9.9868046037419D-02
   173  1.7200000000000D+00  2.7841898525505D-02  6.8776744314403D-02
   174  1.7300000000000D+00  1.7479847799357D-02  4.3214549805693D-02
   175  1.7400000000000D+00  9.4404256216132D-03  2.3403719892094D-02
   176  1.7500000000000D+00  3.8979444299133D-03  9.7625833913983D-03
   177  1.7600000000000D+00  8.9717627496410D-04  2.3785829020114D-03
   178  1.7700000000000D+00 -3.6519291691224D-04 -7.5173846656179D-04
   179  1.7800000000000D+00 -4.3458595815569D-04 -1.0005602384007D-03
   180  1.7900000000000D+00  2.7013107216218D-06  4.7897790398494D-06
   181  1.8000000000000D+00  1.5188349776163D-05  2.6930940904158D-05
   182  1.8100000000000D+00  1.3514263513622D-06  2.3962565875312D-06
   183  1.8200000000000D+00  0.0000000000000D+00  0.0000000000000D+00
   184  1.8300000000000D+00  0.0000000000000D+00  0.0000000000000D+00
   185  1.8400000000000D+00  0.0000000000000D+00  0.0000000000000D+00
   186  1.8500000000000D+00  0.0000000000000D+00  0.0000000000000D+00
   187  1.8600000000000D+00  0.0000000000000D+00  0.0000000000000D+00
   188  1.8700000000000D+00  0.0000000000000D+00  0.0000000000000D+00
   189  1.8800000000000D+00  0.0000000000000D+00  0.0000000000000D+00
   190  1.8900000000000D+00  0.0000000000000D+00  0.0000000000000D+00
   191  1.9000000000000D+00  0.0000000000000D+00  0.0000000000000D+00
   192  1.9100000000000D+00  0.0000000000000D+00  0.0000000000000D+00
   193  1.9200000000000D+00  0.0000000000000D+00  0.0000000000000D+00
   194  1.9300000000000D+00  0.0000000000000D+00  0.0000000000000D+00
   195  1.9400000000000D+00  0.0000000000000D+00  0.0000000000000D+00
   196  1.9500000000000D+00  0.0000000000000D+00  0.0000000000000D+00
   197  1.9600000000000D+00  0.0000000000000D+00  0.0000000000000D+00
   198  1.9700000000000D+00  0.0000000000000D+00  0.0000000000000D+00
   199  1.9800000000000D+00  0.0000000000000D+00  0.0000000000000D+00
   200  1.9900000000000D+00  0.0000000000000D+00  0.0000000000000D+00
   201  2.0000000000000D+00  0.0000000000000D+00  0.0000000000000D+00
   202  2.0100000000000D+00  0.0000000000000D+00  0.0000000000000D+00
   203  2.0200000000000D+00  0.0000000000000D+00  0.0000000000000D+00
   204  2.0300000000000D+00  0.0000000000000D+00  0.0000000000000D+00
   205  2.0400000000000D+00  0.0000000000000D+00  0.0000000000000D+00
   206  2.0500000000000D+00  0.0000000000000D+00  0.0000000000000D+00
   207  2.0600000000000D+00  0.0000000000000D+00  0.0000000000000D+00
   208  2.0700000000000D+00  0.0000000000000D+00  0.0000000000000D+00
   209  2.0800000000000D+00  0.0000000000000D+00  0.0000000000000D+00
   210  2.0900000000000D+00  0.0000000000000D+00  0.0000000000000D+00
   211  2.1000000000000D+00  0.0000000000000D+00  0.0000000000000D+00
   212  2.1100000000000D+00  0.0000000000000D+00  0.0000000000000D+00
   213  2.1200000000000D+00  0.0000000000000D+00  0.0000000000000D+00
   214  2.1300000000000D+00  0.0000000000000D+00  0.0000000000000D+00
   215  2.1400000000000D+00  0.0000000000000D+00  0.0000000000000D+00
   216  2.1500000000000D+00  0.0000000000000D+00  0.0000000000000D+00
   217  2.1600000000000D+00  0.0000000000000D+00  0.0000000000000D+00
   218  2.1700000000000D+00  0.0000000000000D+00  0.0000000000000D+00
   219  2.1800000000000D+00  0.0000000000000D+00  0.0000000000000D+00
   220  2.1900000000000D+00  0.0000000000000D+00  0.0000000000000D+00
   221  2.2000000000000D+00  0.0000000000000D+00  0.0000000000000D+00
   222  2.2100000000000D+00  0.0000000000000D+00  0.0000000000000D+00
   223  2.2200000000000D+00  0.0000000000000D+00  0.0000000000000D+00
   224  2.2300000000000D+00  0.0000000000000D+00  0.0000000000000D+00
   225  2.2400000000000D+00  0.0000000000000D+00  0.0000000000000D+00
   226  2.2500000000000D+00  0.0000000000000D+00  0.0000000000000D+00
   227  2.2600000000000D+00  0.0000000000000D+00  0.0000000000000D+00
   228  2.2700000000000D+00  0.0000000000000D+00  0.0000000000000D+00
   229  2.2800000000000D+00  0.0000000000000D+00  0.0000000000000D+00
   230  2.2900000000000D+00  0.0000000000000D+00  0.0000000000000D+00
   231  2.3000000000000D+00  0.0000000000000D+00  0.0000000000000D+00
   232  2.3100000000000D+00  0.0000000000000D+00  0.0000000000000D+00
   233  2.3200000000000D+00  0.0000000000000D+00  0.0000000000000D+00
   234  2.3300000000000D+00  0.0000000000000D+00  0.0000000000000D+00
   235  2.3400000000000D+00  0.0000000000000D+00  0.0000000000000D+00
   236  2.3500000000000D+00  0.0000000000000D+00  0.0000000000000D+00
   237  2.3600000000000D+00  0.0000000000000D+00  0.0000000000000D+00
   238  2.3700000000000D+00  0.0000000000000D+00  0.0000000000000D+00
   239  2.3800000000000D+00  0.0000000000000D+00  0.0000000000000D+00
   240  2.3900000000000D+00  0.0000000000000D+00  0.0000000000000D+00
   241  2.4000000000000D+00  0.0000000000000D+00  0.0000000000000D+00
   242  2.4100000000000D+00  0.0000000000000D+00  0.0000000000000D+00
   243  2.4200000000000D+00  0.0000000000000D+00  0.0000000000000D+00
   244  2.4300000000000D+00  0.0000000000000D+00  0.0000000000000D+00
   245  2.4400000000000D+00  0.0000000000000D+00  0.0000000000000D+00
   246  2.4500000000000D+00  0.0000000000000D+00  0.0000000000000D+00
   247  2.4600000000000D+00  0.0000000000000D+00  0.0000000000000D+00
   248  2.4700000000000D+00  0.0000000000000D+00  0.0000000000000D+00
   249  2.4800000000000D+00  0.0000000000000D+00  0.0000000000000D+00
   250  2.4900000000000D+00  0.0000000000000D+00  0.0000000000000D+00
   251  2.5000000000000D+00  0.0000000000000D+00  0.0000000000000D+00
   252  2.5100000000000D+00  0.0000000000000D+00  0.0000000000000D+00
   253  2.5200000000000D+00  0.0000000000000D+00  0.0000000000000D+00
   254  2.5300000000000D+00  0.0000000000000D+00  0.0000000000000D+00
   255  2.5400000000000D+00  0.0000000000000D+00  0.0000000000000D+00
   256  2.5500000000000D+00  0.0000000000000D+00  0.0000000000000D+00
   257  2.5600000000000D+00  0.0000000000000D+00  0.0000000000000D+00
   258  2.5700000000000D+00  0.0000000000000D+00  0.0000000000000D+00
   259  2.5800000000000D+00  0.0000000000000D+00  0.0000000000000D+00
   260  2.5900000000000D+00  0.0000000000000D+00  0.0000000000000D+00
   261  2.6000000000000D+00  0.0000000000000D+00  0.0000000000000D+00
   262  2.6100000000000D+00  0.0000000000000D+00  0.0000000000000D+00
   263  2.6200000000000D+00  0.0000000000000D+00  0.0000000000000D+00
   264  2.6300000000000D+00  0.0000000000000D+00  0.0000000000000D+00
   265  2.6400000000000D+00  0.0000000000000D+00  0.0000000000000D+00
   266  2.6500000000000D+00  0.0000000000000D+00  0.0000000000000D+00
   267  2.6600000000000D+00  0.0000000000000D+00  0.0000000000000D+00
   268  2.6700000000000D+00  0.0000000000000D+00  0.0000000000000D+00
   269  2.6800000000000D+00  0.0000000000000D+00  0.0000000000000D+00
   270  2.6900000000000D+00  0.0000000000000D+00  0.0000000000000D+00
   271  2.7000000000000D+00  0.0000000000000D+00  0.0000000000000D+00
   272  2.7100000000000D+00  0.0000000000000D+00  0.0000000000000D+00
   273  2.7200000000000D+00  0.0000000000000D+00  0.0000000000000D+00
   274  2.7300000000000D+00  0.0000000000000D+00  0.0000000000000D+00
   275  2.7400000000000D+00  0.0000000000000D+00  0.0000000000000D+00
   276  2.7500000000000D+00  0.0000000000000D+00  0.0000000000000D+00
   277  2.7600000000000D+00  0.0000000000000D+00  0.0000000000000D+00
   278  2.7700000000000D+00  0.0000000000000D+00  0.0000000000000D+00
   279  2.7800000000000D+00  0.0000000000000D+00  0.0000000000000D+00
   280  2.7900000000000D+00  0.0000000000000D+00  0.0000000000000D+00
   281  2.8000000000000D+00  0.0000000000000D+00  0.0000000000000D+00
   282  2.8100000000000D+00  0.0000000000000D+00  0.0000000000000D+00
   283  2.8200000000000D+00  0.0000000000000D+00  0.0000000000000D+00
   284  2.8300000000000D+00  0.0000000000000D+00  0.0000000000000D+00
   285  2.8400000000000D+00  0.0000000000000D+00  0.0000000000000D+00
   286  2.8500000000000D+00  0.0000000000000D+00  0.0000000000000D+00
   287  2.8600000000000D+00  0.0000000000000D+00  0.0000000000000D+00
   288  2.8700000000000D+00  0.0000000000000D+00  0.0000000000000D+00
   289  2.8800000000000D+00  0.0000000000000D+00  0.0000000000000D+00
   290  2.8900000000000D+00  0.0000000000000D+00  0.0000000000000D+00
   291  2.9000000000000D+00  0.0000000000000D+00  0.0000000000000D+00
   292  2.9100000000000D+00  0.0000000000000D+00  0.0000000000000D+00
   293  2.9200000000000D+00  0.0000000000000D+00  0.0000000000000D+00
   294  2.9300000000000D+00  0.0000000000000D+00  0.0000000000000D+00
   295  2.9400000000000D+00  0.0000000000000D+00  0.0000000000000D+00
   296  2.9500000000000D+00  0.0000000000000D+00  0.0000000000000D+00
   297  2.9600000000000D+00  0.0000000000000D+00  0.0000000000000D+00
   298  2.9700000000000D+00  0.0000000000000D+00  0.0000000000000D+00
   299  2.9800000000000D+00  0.0000000000000D+00  0.0000000000000D+00
   300  2.9900000000000D+00  0.0000000000000D+00  0.0000000000000D+00
   301  3.0000000000000D+00  0.0000000000000D+00  0.0000000000000D+00
   302  3.0100000000000D+00  0.0000000000000D+00  0.0000000000000D+00
   303  3.0200000000000D+00  0.0000000000000D+00  0.0000000000000D+00
   304  3.0300000000000D+00  0.0000000000000D+00  0.0000000000000D+00
   305  3.0400000000000D+00  0.0000000000000D+00  0.0000000000000D+00
   306  3.0500000000000D+00  0.0000000000000D+00  0.0000000000000D+00
   307  3.0600000000000D+00  0.0000000000000D+00  0.0000000000000D+00
   308  3.0700000000000D+00  0.0000000000000D+00  0.0000000000000D+00
   309  3.0800000000000D+00  0.0000000000000D+00  0.0000000000000D+00
   310  3.0900000000000D+00  0.0000000000000D+00  0.0000000000000D+00
   311  3.1000000000000D+00  0.0000000000000D+00  0.0000000000000D+00
   312  3.1100000000000D+00  0.0000000000000D+00  0.0000000000000D+00
   313  3.1200000000000D+00  0.0000000000000D+00  0.0000000000000D+00
   314  3.1300000000000D+00  0.0000000000000D+00  0.0000000000000D+00
   315  3.1400000000000D+00  0.0000000000000D+00  0.0000000000000D+00
   316  3.1500000000000D+00  0.0000000000000D+00  0.0000000000000D+00
   317  3.1600000000000D+00  0.0000000000000D+00  0.0000000000000D+00
   318  3.1700000000000D+00  0.0000000000000D+00  0.0000000000000D+00
   319  3.1800000000000D+00  0.0000000000000D+00  0.0000000000000D+00
   320  3.1900000000000D+00  0.0000000000000D+00  0.0000000000000D+00
   321  3.2000000000000D+00  0.0000000000000D+00  0.0000000000000D+00
   322  3.2100000000000D+00  0.0000000000000D+00  0.0000000000000D+00
   323  3.2200000000000D+00  0.0000000000000D+00  0.0000000000000D+00
   324  3.2300000000000D+00  0.0000000000000D+00  0.0000000000000D+00
   325  3.2400000000000D+00  0.0000000000000D+00  0.0000000000000D+00
   326  3.2500000000000D+00  0.0000000000000D+00  0.0000000000000D+00
   327  3.2600000000000D+00  0.0000000000000D+00  0.0000000000000D+00
   328  3.2700000000000D+00  0.0000000000000D+00  0.0000000000000D+00
   329  3.2800000000000D+00  0.0000000000000D+00  0.0000000000000D+00
   330  3.2900000000000D+00  0.0000000000000D+00  0.0000000000000D+00
   331  3.3000000000000D+00  0.0000000000000D+00  0.0000000000000D+00
   332  3.3100000000000D+00  0.0000000000000D+00  0.0000000000000D+00
   333  3.3200000000000D+00  0.0000000000000D+00  0.0000000000000D+00
   334  3.3300000000000D+00  0.0000000000000D+00  0.0000000000000D+00
   335  3.3400000000000D+00  0.0000000000000D+00  0.0000000000000D+00
   336  3.3500000000000D+00  0.0000000000000D+00  0.0000000000000D+00
   337  3.3600000000000D+00  0.0000000000000D+00  0.0000000000000D+00
   338  3.3700000000000D+00  0.0000000000000D+00  0.0000000000000D+00
   339  3.3800000000000D+00  0.0000000000000D+00  0.0000000000000D+00
   340  3.3900000000000D+00  0.0000000000000D+00  0.0000000000000D+00
   341  3.4000000000000D+00  0.0000000000000D+00  0.0000000000000D+00
   342  3.4100000000000D+00  0.0000000000000D+00  0.0000000000000D+00
   343  3.4200000000000D+00  0.0000000000000D+00  0.0000000000000D+00
   344  3.4300000000000D+00  0.0000000000000D+00  0.0000000000000D+00
   345  3.4400000000000D+00  0.0000000000000D+00  0.0000000000000D+00
   346  3.4500000000000D+00  0.0000000000000D+00  0.0000000000000D+00
   347  3.4600000000000D+00  0.0000000000000D+00  0.0000000000000D+00
   348  3.4700000000000D+00  0.0000000000000D+00  0.0000000000000D+00
   349  3.4800000000000D+00  0.0000000000000D+00  0.0000000000000D+00
   350  3.4900000000000D+00  0.0000000000000D+00  0.0000000000000D+00
   351  3.5000000000000D+00  0.0000000000000D+00  0.0000000000000D+00
   352  3.5100000000000D+00  0.0000000000000D+00  0.0000000000000D+00
   353  3.5200000000000D+00  0.0000000000000D+00  0.0000000000000D+00
   354  3.5300000000000D+00  0.0000000000000D+00  0.0000000000000D+00
   355  3.5400000000000D+00  0.0000000000000D+00  0.0000000000000D+00
   356  3.5500000000000D+00  0.0000000000000D+00  0.0000000000000D+00
   357  3.5600000000000D+00  0.0000000000000D+00  0.0000000000000D+00
   358  3.5700000000000D+00  0.0000000000000D+00  0.0000000000000D+00
   359  3.5800000000000D+00  0.0000000000000D+00  0.0000000000000D+00
   360  3.5900000000000D+00  0.0000000000000D+00  0.0000000000000D+00
   361  3.6000000000000D+00  0.0000000000000D+00  0.0000000000000D+00
   362  3.6100000000000D+00  0.0000000000000D+00  0.0000000000000D+00
   363  3.6200000000000D+00  0.0000000000000D+00  0.0000000000000D+00
   364  3.6300000000000D+00  0.0000000000000D+00  0.0000000000000D+00
   365  3.6400000000000D+00  0.0000000000000D+00  0.0000000000000D+00
   366  3.6500000000000D+00  0.0000000000000D+00  0.0000000000000D+00
   367  3.6600000000000D+00  0.0000000000000D+00  0.0000000000000D+00
   368  3.6700000000000D+00  0.0000000000000D+00  0.0000000000000D+00
   369  3.6800000000000D+00  0.0000000000000D+00  0.0000000000000D+00
   370  3.6900000000000D+00  0.0000000000000D+00  0.0000000000000D+00
   371  3.7000000000000D+00  0.0000000000000D+00  0.0000000000000D+00
   372  3.7100000000000D+00  0.0000000000000D+00  0.0000000000000D+00
   373  3.7200000000000D+00  0.0000000000000D+00  0.0000000000000D+00
   374  3.7300000000000D+00  0.0000000000000D+00  0.0000000000000D+00
   375  3.7400000000000D+00  0.0000000000000D+00  0.0000000000000D+00
   376  3.7500000000000D+00  0.0000000000000D+00  0.0000000000000D+00
   377  3.7600000000000D+00  0.0000000000000D+00  0.0000000000000D+00
   378  3.7700000000000D+00  0.0000000000000D+00  0.0000000000000D+00
   379  3.7800000000000D+00  0.0000000000000D+00  0.0000000000000D+00
   380  3.7900000000000D+00  0.0000000000000D+00  0.0000000000000D+00
   381  3.8000000000000D+00  0.0000000000000D+00  0.0000000000000D+00
   382  3.8100000000000D+00  0.0000000000000D+00  0.0000000000000D+00
   383  3.8200000000000D+00  0.0000000000000D+00  0.0000000000000D+00
   384  3.8300000000000D+00  0.0000000000000D+00  0.0000000000000D+00
   385  3.8400000000000D+00  0.0000000000000D+00  0.0000000000000D+00
   386  3.8500000000000D+00  0.0000000000000D+00  0.0000000000000D+00
   387  3.8600000000000D+00  0.0000000000000D+00  0.0000000000000D+00
   388  3.8700000000000D+00  0.0000000000000D+00  0.0000000000000D+00
   389  3.8800000000000D+00  0.0000000000000D+00  0.0000000000000D+00
   390  3.8900000000000D+00  0.0000000000000D+00  0.0000000000000D+00
   391  3.9000000000000D+00  0.0000000000000D+00  0.0000000000000D+00
   392  3.9100000000000D+00  0.0000000000000D+00  0.0000000000000D+00
   393  3.9200000000000D+00  0.0000000000000D+00  0.0000000000000D+00
   394  3.9300000000000D+00  0.0000000000000D+00  0.0000000000000D+00
   395  3.9400000000000D+00  0.0000000000000D+00  0.0000000000000D+00
   396  3.9500000000000D+00  0.0000000000000D+00  0.0000000000000D+00
   397  3.9600000000000D+00  0.0000000000000D+00  0.0000000000000D+00
   398  3.9700000000000D+00  0.0000000000000D+00  0.0000000000000D+00
   399  3.9800000000000D+00  0.0000000000000D+00  0.0000000000000D+00
   400  3.9900000000000D+00  0.0000000000000D+00  0.0000000000000D+00
   401  4.0000000000000D+00  0.0000000000000D+00  0.0000000000000D+00
   402  4.0100000000000D+00  0.0000000000000D+00  0.0000000000000D+00
   403  4.0200000000000D+00  0.0000000000000D+00  0.0000000000000D+00
   404  4.0300000000000D+00  0.0000000000000D+00  0.0000000000000D+00
   405  4.0400000000000D+00  0.0000000000000D+00  0.0000000000000D+00
   406  4.0500000000000D+00  0.0000000000000D+00  0.0000000000000D+00
   407  4.0600000000000D+00  0.0000000000000D+00  0.0000000000000D+00
   408  4.0700000000000D+00  0.0000000000000D+00  0.0000000000000D+00
   409  4.0800000000000D+00  0.0000000000000D+00  0.0000000000000D+00
   410  4.0900000000000D+00  0.0000000000000D+00  0.0000000000000D+00
   411  4.1000000000000D+00  0.0000000000000D+00  0.0000000000000D+00
   412  4.1100000000000D+00  0.0000000000000D+00  0.0000000000000D+00
   413  4.1200000000000D+00  0.0000000000000D+00  0.0000000000000D+00
   414  4.1300000000000D+00  0.0000000000000D+00  0.0000000000000D+00
   415  4.1400000000000D+00  0.0000000000000D+00  0.0000000000000D+00
   416  4.1500000000000D+00  0.0000000000000D+00  0.0000000000000D+00
   417  4.1600000000000D+00  0.0000000000000D+00  0.0000000000000D+00
   418  4.1700000000000D+00  0.0000000000000D+00  0.0000000000000D+00
   419  4.1800000000000D+00  0.0000000000000D+00  0.0000000000000D+00
   420  4.1900000000000D+00  0.0000000000000D+00  0.0000000000000D+00
   421  4.2000000000000D+00  0.0000000000000D+00  0.0000000000000D+00
   422  4.2100000000000D+00  0.0000000000000D+00  0.0000000000000D+00
   423  4.2200000000000D+00  0.0000000000000D+00  0.0000000000000D+00