Mn    ONCVPSP  r_core=  1.41  1.21  1.61
25.0000     15.0000      161004    zatom,zion,pspd
8 -116133   2     4   600     0    pspcod,pspxc,lmax,lloc,mmax,r2well
5.99000000  4.00000000  0.00000000    rchrg fchrg qchrg
2     2     2     0     0    nproj
1                 extension_switch
0                         9.1163176743303D+00  1.5302917231532D+00
1  0.0000000000000D+00  3.8724323747630D-10 -7.4145127537673D-10
2  1.0000000000000D-02  7.8092702563346D-02  4.2666272405014D-03
3  2.0000000000000D-02  1.5604149952858D-01  8.4931283435493D-03
4  3.0000000000000D-02  2.3370218955955D-01  1.2640732254541D-02
5  4.0000000000000D-02  3.1092998837034D-01  1.6673359950220D-02
6  5.0000000000000D-02  3.8757925846724D-01  2.0558925307969D-02
7  6.0000000000000D-02  4.6350326407439D-01  2.4270582328473D-02
8  7.0000000000000D-02  5.3855395917955D-01  2.7787901706206D-02
9  8.0000000000000D-02  6.1258181624923D-01  3.1097960483681D-02
10  9.0000000000000D-02  6.8543570268492D-01  3.4196329439856D-02
11  1.0000000000000D-01  7.5696281152933D-01  3.7087943942401D-02
12  1.1000000000000D-01  8.2700865228773D-01  3.9787845227992D-02
13  1.2000000000000D-01  8.9541710701188D-01  4.2321780453520D-02
14  1.3000000000000D-01  9.6203055600790D-01  4.4726651371422D-02
15  1.4000000000000D-01  1.0266900766837D+00  4.7050803110608D-02
16  1.5000000000000D-01  1.0892357181532D+00  4.9354146275971D-02
17  1.6000000000000D-01  1.1495068532722D+00  5.1708107398080D-02
18  1.7000000000000D-01  1.2073426088045D+00  5.4195404653349D-02
19  1.8000000000000D-01  1.2625823734153D+00  5.6909647716456D-02
20  1.9000000000000D-01  1.3150663821721D+00  5.9954762582308D-02
21  2.0000000000000D-01  1.3646363752098D+00  6.3444244185405D-02
22  2.1000000000000D-01  1.4111363272044D+00  6.7500241631076D-02
23  2.2000000000000D-01  1.4544132432936D+00  7.2252482815928D-02
24  2.3000000000000D-01  1.4943180161129D+00  7.7837047134282D-02
25  2.4000000000000D-01  1.5307063376754D+00  8.4394996824078D-02
26  2.5000000000000D-01  1.5634396589338D+00  9.2070879280542D-02
27  2.6000000000000D-01  1.5923861890283D+00  1.0101111433940D-01
28  2.7000000000000D-01  1.6174219254569D+00  1.1136228208665D-01
29  2.8000000000000D-01  1.6384317057135D+00  1.2326932817019D-01
30  2.9000000000000D-01  1.6553102703273D+00  1.3687370485498D-01
31  3.0000000000000D-01  1.6679633267267D+00  1.5231146716101D-01
32  3.1000000000000D-01  1.6763086029274D+00  1.6971134434096D-01
33  3.2000000000000D-01  1.6802768797373D+00  1.8919280767599D-01
34  3.3000000000000D-01  1.6798129899689D+00  2.1086415608699D-01
35  3.4000000000000D-01  1.6748767730608D+00  2.3482064136279D-01
36  3.5000000000000D-01  1.6654439735505D+00  2.6114265489020D-01
37  3.6000000000000D-01  1.6515070719866D+00  2.8989399762977D-01
38  3.7000000000000D-01  1.6330760371511D+00  3.2112025471018D-01
39  3.8000000000000D-01  1.6101789888591D+00  3.5484729541486D-01
40  3.9000000000000D-01  1.5828627611220D+00  3.9107991850776D-01
41  4.0000000000000D-01  1.5511933561003D+00  4.2980066179391D-01
42  4.1000000000000D-01  1.5152562800244D+00  4.7096879354264D-01
43  4.2000000000000D-01  1.4751567531243D+00  5.1451950192398D-01
44  4.3000000000000D-01  1.4310197865755D+00  5.6036329693374D-01
45  4.4000000000000D-01  1.3829901205324D+00  6.0838563742211D-01
46  4.5000000000000D-01  1.3312320184702D+00  6.5844679381125D-01
47  4.6000000000000D-01  1.2759289142835D+00  7.1038195490432D-01
48  4.7000000000000D-01  1.2172829098894D+00  7.6400158487281D-01
49  4.8000000000000D-01  1.1555141224311D+00  8.1909203408164D-01
50  4.9000000000000D-01  1.0908598815776D+00  8.7541640489328D-01
51  5.0000000000000D-01  1.0235737788367D+00  9.3271567101063D-01
52  5.1000000000000D-01  9.5392457224647D-01  9.9071004629408D-01
53  5.2000000000000D-01  8.8219495125030D-01  1.0491005963526D+00
54  5.3000000000000D-01  8.0868016799786D-01  1.1075710835849D+00
55  5.4000000000000D-01  7.3368654271791D-01  1.1657900337638D+00
56  5.5000000000000D-01  6.5752985217428D-01  1.2234130097408D+00
57  5.6000000000000D-01  5.8053361152316D-01  1.2800850754320D+00
58  5.7000000000000D-01  5.0302726112818D-01  1.3354434309467D+00
59  5.8000000000000D-01  4.2534427103887D-01  1.3891201975752D+00
60  5.9000000000000D-01  3.4782017689400D-01  1.4407453293781D+00
61  6.0000000000000D-01  2.7079056194993D-01  1.4899496263480D+00
62  6.1000000000000D-01  1.9458900075543D-01  1.5363678225563D+00
63  6.2000000000000D-01  1.1954498067628D-01  1.5796417213923D+00
64  6.3000000000000D-01  4.5981818015396D-02  1.6194233489448D+00
65  6.4000000000000D-01 -2.5785414137831D-02  1.6553780958023D+00
66  6.5000000000000D-01 -9.5451928965672D-02  1.6871878170625D+00
67  6.6000000000000D-01 -1.6272522245829D-01  1.7145538601516D+00
68  6.7000000000000D-01 -2.2732700610259D-01  1.7371999901768D+00
69  6.8000000000000D-01 -2.8899505866917D-01  1.7548751829650D+00
70  6.9000000000000D-01 -3.4748498048741D-01  1.7673562566852D+00
71  7.0000000000000D-01 -4.0257183421014D-01  1.7744503140081D+00
72  7.1000000000000D-01 -4.5405165684812D-01  1.7759969681153D+00
73  7.2000000000000D-01 -5.0174282878940D-01  1.7718703275204D+00
74  7.3000000000000D-01 -5.4548728661307D-01  1.7619807166097D+00
75  7.4000000000000D-01 -5.8515156774204D-01  1.7462761110083D+00
76  7.5000000000000D-01 -6.2062767634922D-01  1.7247432693348D+00
77  7.6000000000000D-01 -6.5183376142423D-01  1.6974085455846D+00
78  7.7000000000000D-01 -6.7871459951009D-01  1.6643383692631D+00
79  7.8000000000000D-01 -7.0124187631324D-01  1.6256393834467D+00
80  7.9000000000000D-01 -7.1941426316150D-01  1.5814582341401D+00
81  8.0000000000000D-01 -7.3325728612218D-01  1.5319810076216D+00
82  8.1000000000000D-01 -7.4282298746316D-01  1.4774323158460D+00
83  8.2000000000000D-01 -7.4818938104024D-01  1.4180740334118D+00
84  8.3000000000000D-01 -7.4945970509569D-01  1.3542036930368D+00
85  8.4000000000000D-01 -7.4676147783939D-01  1.2861525498981D+00
86  8.5000000000000D-01 -7.4024536303393D-01  1.2142833285329D+00
87  8.6000000000000D-01 -7.3008385460011D-01  1.1389876692378D+00
88  8.7000000000000D-01 -7.1646979097856D-01  1.0606832940045D+00
89  8.8000000000000D-01 -6.9961471160927D-01  9.7981091495654D-01
90  8.9000000000000D-01 -6.7974706940452D-01  8.9683091096527D-01
91  9.0000000000000D-01 -6.5711031447536D-01  8.1221980060642D-01
92  9.1000000000000D-01 -6.3196086561196D-01  7.2646654182107D-01
93  9.2000000000000D-01 -6.0456598709834D-01  6.4006869055888D-01
94  9.3000000000000D-01 -5.7520158935048D-01  5.5352845227078D-01
95  9.4000000000000D-01 -5.4414997259228D-01  4.6734866136903D-01
96  9.5000000000000D-01 -5.1169753331382D-01  3.8202872465865D-01
97  9.6000000000000D-01 -4.7813245359158D-01  2.9806056526902D-01
98  9.7000000000000D-01 -4.4374239347751D-01  2.1592460375097D-01
99  9.8000000000000D-01 -4.0881220658233D-01  1.3608581275398D-01
100  9.9000000000000D-01 -3.7362169869087D-01  5.8989881065118D-02
101  1.0000000000000D+00 -3.3844344875234D-01 -1.4940478227781D-02
102  1.0100000000000D+00 -3.0354071089600D-01 -8.5309042070733D-02
103  1.0200000000000D+00 -2.6916541520042D-01 -1.5174938271066D-01
104  1.0300000000000D+00 -2.3555628391867D-01 -2.1392793432691D-01
105  1.0400000000000D+00 -2.0293707855529D-01 -2.7154679398564D-01
106  1.0500000000000D+00 -1.7151499177848D-01 -3.2434623258799D-01
107  1.0600000000000D+00 -1.4147919659614D-01 -3.7210689445955D-01
108  1.0700000000000D+00 -1.1299956348599D-01 -4.1465166754404D-01
109  1.0800000000000D+00 -8.6225554355164D-02 -4.5184720961342D-01
110  1.0900000000000D+00 -6.1285300392594D-02 -4.8360511934544D-01
111  1.1000000000000D+00 -3.8284868684341D-02 -5.0988274526757D-01
112  1.1100000000000D+00 -1.7307720609349D-02 -5.3068362906253D-01
113  1.1200000000000D+00  1.5856372755242D-03 -5.4605758407707D-01
114  1.1300000000000D+00  1.8357810824642D-02 -5.5610041301929D-01
115  1.1400000000000D+00  3.2994487880939D-02 -5.6095327361183D-01
116  1.1500000000000D+00  4.5504225077719D-02 -5.6080170418597D-01
117  1.1600000000000D+00  5.5918059346442D-02 -5.5587432538394D-01
118  1.1700000000000D+00  6.4288954761900D-02 -5.4644124098299D-01
119  1.1800000000000D+00  7.0691084401141D-02 -5.3281213309007D-01
120  1.1900000000000D+00  7.5219010481082D-02 -5.1533419820550D-01
121  1.2000000000000D+00  7.7986521897965D-02 -4.9438934629494D-01
122  1.2100000000000D+00  7.9126120832456D-02 -4.7039302313857D-01
123  1.2200000000000D+00  7.8786521560520D-02 -4.4378832832465D-01
124  1.2300000000000D+00  7.7128019941426D-02 -4.1503511354948D-01
125  1.2400000000000D+00  7.4317492433210D-02 -3.8459865636571D-01
126  1.2500000000000D+00  7.0525274653751D-02 -3.5294301796469D-01
127  1.2600000000000D+00  6.5923655720279D-02 -3.2052841462553D-01
128  1.2700000000000D+00  6.0684629348283D-02 -2.8780675337053D-01
129  1.2800000000000D+00  5.4977905496988D-02 -2.5521781465632D-01
130  1.2900000000000D+00  4.8968915944473D-02 -2.2318540552164D-01
131  1.3000000000000D+00  4.2816900458870D-02 -1.9211368651630D-01
132  1.3100000000000D+00  3.6673075344514D-02 -1.6238366608499D-01
133  1.3200000000000D+00  3.0678903914399D-02 -1.3434990065157D-01
134  1.3300000000000D+00  2.4964486698572D-02 -1.0833743392948D-01
135  1.3400000000000D+00  1.9647086116111D-02 -8.4639003123825D-02
136  1.3500000000000D+00  1.4829799214868D-02 -6.3512537591205D-02
137  1.3600000000000D+00  1.0600393022551D-02 -4.5178977301981D-02
138  1.3700000000000D+00  7.0326858380473D-03 -2.9830282004036D-02
139  1.3800000000000D+00  4.1717388827832D-03 -1.7570244232036D-02
140  1.3900000000000D+00  2.0517206200551D-03 -8.4907898346275D-03
141  1.4000000000000D+00  7.6511738787948D-04 -2.9382226363646D-03
142  1.4100000000000D+00  2.0233475897160D-04 -5.0800968343914D-04
143  1.4200000000000D+00  2.5962562734926D-05  8.6992955546821D-05
144  1.4300000000000D+00 -2.7746239360210D-08 -5.5091202465040D-06
145  1.4400000000000D+00  2.2702113147199D-06 -4.1134594033925D-05
146  1.4500000000000D+00  2.4126297661312D-07  4.4468821602844D-06
147  1.4600000000000D+00  8.2396834764695D-08  4.6262270243966D-06
148  1.4700000000000D+00 -3.5690239944018D-07  6.3604868951521D-07
149  1.4800000000000D+00 -9.8855260103904D-08  1.7617353859038D-07
150  1.4900000000000D+00  0.0000000000000D+00  0.0000000000000D+00
151  1.5000000000000D+00  0.0000000000000D+00  0.0000000000000D+00
152  1.5100000000000D+00  0.0000000000000D+00  0.0000000000000D+00
153  1.5200000000000D+00  0.0000000000000D+00  0.0000000000000D+00
154  1.5300000000000D+00  0.0000000000000D+00  0.0000000000000D+00
155  1.5400000000000D+00  0.0000000000000D+00  0.0000000000000D+00
156  1.5500000000000D+00  0.0000000000000D+00  0.0000000000000D+00
157  1.5600000000000D+00  0.0000000000000D+00  0.0000000000000D+00
158  1.5700000000000D+00  0.0000000000000D+00  0.0000000000000D+00
159  1.5800000000000D+00  0.0000000000000D+00  0.0000000000000D+00
160  1.5900000000000D+00  0.0000000000000D+00  0.0000000000000D+00
161  1.6000000000000D+00  0.0000000000000D+00  0.0000000000000D+00
162  1.6100000000000D+00  0.0000000000000D+00  0.0000000000000D+00
163  1.6200000000000D+00  0.0000000000000D+00  0.0000000000000D+00
164  1.6300000000000D+00  0.0000000000000D+00  0.0000000000000D+00
165  1.6400000000000D+00  0.0000000000000D+00  0.0000000000000D+00
166  1.6500000000000D+00  0.0000000000000D+00  0.0000000000000D+00
167  1.6600000000000D+00  0.0000000000000D+00  0.0000000000000D+00
168  1.6700000000000D+00  0.0000000000000D+00  0.0000000000000D+00
169  1.6800000000000D+00  0.0000000000000D+00  0.0000000000000D+00
170  1.6900000000000D+00  0.0000000000000D+00  0.0000000000000D+00
171  1.7000000000000D+00  0.0000000000000D+00  0.0000000000000D+00
172  1.7100000000000D+00  0.0000000000000D+00  0.0000000000000D+00
173  1.7200000000000D+00  0.0000000000000D+00  0.0000000000000D+00
174  1.7300000000000D+00  0.0000000000000D+00  0.0000000000000D+00
175  1.7400000000000D+00  0.0000000000000D+00  0.0000000000000D+00
176  1.7500000000000D+00  0.0000000000000D+00  0.0000000000000D+00
177  1.7600000000000D+00  0.0000000000000D+00  0.0000000000000D+00
178  1.7700000000000D+00  0.0000000000000D+00  0.0000000000000D+00
179  1.7800000000000D+00  0.0000000000000D+00  0.0000000000000D+00
180  1.7900000000000D+00  0.0000000000000D+00  0.0000000000000D+00
181  1.8000000000000D+00  0.0000000000000D+00  0.0000000000000D+00
182  1.8100000000000D+00  0.0000000000000D+00  0.0000000000000D+00
183  1.8200000000000D+00  0.0000000000000D+00  0.0000000000000D+00
184  1.8300000000000D+00  0.0000000000000D+00  0.0000000000000D+00
185  1.8400000000000D+00  0.0000000000000D+00  0.0000000000000D+00
186  1.8500000000000D+00  0.0000000000000D+00  0.0000000000000D+00
187  1.8600000000000D+00  0.0000000000000D+00  0.0000000000000D+00
188  1.8700000000000D+00  0.0000000000000D+00  0.0000000000000D+00
189  1.8800000000000D+00  0.0000000000000D+00  0.0000000000000D+00
190  1.8900000000000D+00  0.0000000000000D+00  0.0000000000000D+00
191  1.9000000000000D+00  0.0000000000000D+00  0.0000000000000D+00
192  1.9100000000000D+00  0.0000000000000D+00  0.0000000000000D+00
193  1.9200000000000D+00  0.0000000000000D+00  0.0000000000000D+00
194  1.9300000000000D+00  0.0000000000000D+00  0.0000000000000D+00
195  1.9400000000000D+00  0.0000000000000D+00  0.0000000000000D+00
196  1.9500000000000D+00  0.0000000000000D+00  0.0000000000000D+00
197  1.9600000000000D+00  0.0000000000000D+00  0.0000000000000D+00
198  1.9700000000000D+00  0.0000000000000D+00  0.0000000000000D+00
199  1.9800000000000D+00  0.0000000000000D+00  0.0000000000000D+00
200  1.9900000000000D+00  0.0000000000000D+00  0.0000000000000D+00
201  2.0000000000000D+00  0.0000000000000D+00  0.0000000000000D+00
202  2.0100000000000D+00  0.0000000000000D+00  0.0000000000000D+00
203  2.0200000000000D+00  0.0000000000000D+00  0.0000000000000D+00
204  2.0300000000000D+00  0.0000000000000D+00  0.0000000000000D+00
205  2.0400000000000D+00  0.0000000000000D+00  0.0000000000000D+00
206  2.0500000000000D+00  0.0000000000000D+00  0.0000000000000D+00
207  2.0600000000000D+00  0.0000000000000D+00  0.0000000000000D+00
208  2.0700000000000D+00  0.0000000000000D+00  0.0000000000000D+00
209  2.0800000000000D+00  0.0000000000000D+00  0.0000000000000D+00
210  2.0900000000000D+00  0.0000000000000D+00  0.0000000000000D+00
211  2.1000000000000D+00  0.0000000000000D+00  0.0000000000000D+00
212  2.1100000000000D+00  0.0000000000000D+00  0.0000000000000D+00
213  2.1200000000000D+00  0.0000000000000D+00  0.0000000000000D+00
214  2.1300000000000D+00  0.0000000000000D+00  0.0000000000000D+00
215  2.1400000000000D+00  0.0000000000000D+00  0.0000000000000D+00
216  2.1500000000000D+00  0.0000000000000D+00  0.0000000000000D+00
217  2.1600000000000D+00  0.0000000000000D+00  0.0000000000000D+00
218  2.1700000000000D+00  0.0000000000000D+00  0.0000000000000D+00
219  2.1800000000000D+00  0.0000000000000D+00  0.0000000000000D+00
220  2.1900000000000D+00  0.0000000000000D+00  0.0000000000000D+00
221  2.2000000000000D+00  0.0000000000000D+00  0.0000000000000D+00
222  2.2100000000000D+00  0.0000000000000D+00  0.0000000000000D+00
223  2.2200000000000D+00  0.0000000000000D+00  0.0000000000000D+00
224  2.2300000000000D+00  0.0000000000000D+00  0.0000000000000D+00
225  2.2400000000000D+00  0.0000000000000D+00  0.0000000000000D+00
226  2.2500000000000D+00  0.0000000000000D+00  0.0000000000000D+00
227  2.2600000000000D+00  0.0000000000000D+00  0.0000000000000D+00
228  2.2700000000000D+00  0.0000000000000D+00  0.0000000000000D+00
229  2.2800000000000D+00  0.0000000000000D+00  0.0000000000000D+00
230  2.2900000000000D+00  0.0000000000000D+00  0.0000000000000D+00
231  2.3000000000000D+00  0.0000000000000D+00  0.0000000000000D+00
232  2.3100000000000D+00  0.0000000000000D+00  0.0000000000000D+00
233  2.3200000000000D+00  0.0000000000000D+00  0.0000000000000D+00
234  2.3300000000000D+00  0.0000000000000D+00  0.0000000000000D+00
235  2.3400000000000D+00  0.0000000000000D+00  0.0000000000000D+00
236  2.3500000000000D+00  0.0000000000000D+00  0.0000000000000D+00
237  2.3600000000000D+00  0.0000000000000D+00  0.0000000000000D+00
238  2.3700000000000D+00  0.0000000000000D+00  0.0000000000000D+00
239  2.3800000000000D+00  0.0000000000000D+00  0.0000000000000D+00
240  2.3900000000000D+00  0.0000000000000D+00  0.0000000000000D+00
241  2.4000000000000D+00  0.0000000000000D+00  0.0000000000000D+00
242  2.4100000000000D+00  0.0000000000000D+00  0.0000000000000D+00
243  2.4200000000000D+00  0.0000000000000D+00  0.0000000000000D+00
244  2.4300000000000D+00  0.0000000000000D+00  0.0000000000000D+00
245  2.4400000000000D+00  0.0000000000000D+00  0.0000000000000D+00
246  2.4500000000000D+00  0.0000000000000D+00  0.0000000000000D+00
247  2.4600000000000D+00  0.0000000000000D+00  0.0000000000000D+00
248  2.4700000000000D+00  0.0000000000000D+00  0.0000000000000D+00
249  2.4800000000000D+00  0.0000000000000D+00  0.0000000000000D+00
250  2.4900000000000D+00  0.0000000000000D+00  0.0000000000000D+00
251  2.5000000000000D+00  0.0000000000000D+00  0.0000000000000D+00
252  2.5100000000000D+00  0.0000000000000D+00  0.0000000000000D+00
253  2.5200000000000D+00  0.0000000000000D+00  0.0000000000000D+00
254  2.5300000000000D+00  0.0000000000000D+00  0.0000000000000D+00
255  2.5400000000000D+00  0.0000000000000D+00  0.0000000000000D+00
256  2.5500000000000D+00  0.0000000000000D+00  0.0000000000000D+00
257  2.5600000000000D+00  0.0000000000000D+00  0.0000000000000D+00
258  2.5700000000000D+00  0.0000000000000D+00  0.0000000000000D+00
259  2.5800000000000D+00  0.0000000000000D+00  0.0000000000000D+00
260  2.5900000000000D+00  0.0000000000000D+00  0.0000000000000D+00
261  2.6000000000000D+00  0.0000000000000D+00  0.0000000000000D+00
262  2.6100000000000D+00  0.0000000000000D+00  0.0000000000000D+00
263  2.6200000000000D+00  0.0000000000000D+00  0.0000000000000D+00
264  2.6300000000000D+00  0.0000000000000D+00  0.0000000000000D+00
265  2.6400000000000D+00  0.0000000000000D+00  0.0000000000000D+00
266  2.6500000000000D+00  0.0000000000000D+00  0.0000000000000D+00
267  2.6600000000000D+00  0.0000000000000D+00  0.0000000000000D+00
268  2.6700000000000D+00  0.0000000000000D+00  0.0000000000000D+00
269  2.6800000000000D+00  0.0000000000000D+00  0.0000000000000D+00
270  2.6900000000000D+00  0.0000000000000D+00  0.0000000000000D+00
271  2.7000000000000D+00  0.0000000000000D+00  0.0000000000000D+00
272  2.7100000000000D+00  0.0000000000000D+00  0.0000000000000D+00
273  2.7200000000000D+00  0.0000000000000D+00  0.0000000000000D+00
274  2.7300000000000D+00  0.0000000000000D+00  0.0000000000000D+00
275  2.7400000000000D+00  0.0000000000000D+00  0.0000000000000D+00
276  2.7500000000000D+00  0.0000000000000D+00  0.0000000000000D+00
277  2.7600000000000D+00  0.0000000000000D+00  0.0000000000000D+00
278  2.7700000000000D+00  0.0000000000000D+00  0.0000000000000D+00
279  2.7800000000000D+00  0.0000000000000D+00  0.0000000000000D+00
280  2.7900000000000D+00  0.0000000000000D+00  0.0000000000000D+00
281  2.8000000000000D+00  0.0000000000000D+00  0.0000000000000D+00
282  2.8100000000000D+00  0.0000000000000D+00  0.0000000000000D+00
283  2.8200000000000D+00  0.0000000000000D+00  0.0000000000000D+00
284  2.8300000000000D+00  0.0000000000000D+00  0.0000000000000D+00
285  2.8400000000000D+00  0.0000000000000D+00  0.0000000000000D+00
286  2.8500000000000D+00  0.0000000000000D+00  0.0000000000000D+00
287  2.8600000000000D+00  0.0000000000000D+00  0.0000000000000D+00
288  2.8700000000000D+00  0.0000000000000D+00  0.0000000000000D+00
289  2.8800000000000D+00  0.0000000000000D+00  0.0000000000000D+00
290  2.8900000000000D+00  0.0000000000000D+00  0.0000000000000D+00
291  2.9000000000000D+00  0.0000000000000D+00  0.0000000000000D+00
292  2.9100000000000D+00  0.0000000000000D+00  0.0000000000000D+00
293  2.9200000000000D+00  0.0000000000000D+00  0.0000000000000D+00
294  2.9300000000000D+00  0.0000000000000D+00  0.0000000000000D+00
295  2.9400000000000D+00  0.0000000000000D+00  0.0000000000000D+00
296  2.9500000000000D+00  0.0000000000000D+00  0.0000000000000D+00
297  2.9600000000000D+00  0.0000000000000D+00  0.0000000000000D+00
298  2.9700000000000D+00  0.0000000000000D+00  0.0000000000000D+00
299  2.9800000000000D+00  0.0000000000000D+00  0.0000000000000D+00
300  2.9900000000000D+00  0.0000000000000D+00  0.0000000000000D+00
301  3.0000000000000D+00  0.0000000000000D+00  0.0000000000000D+00
302  3.0100000000000D+00  0.0000000000000D+00  0.0000000000000D+00
303  3.0200000000000D+00  0.0000000000000D+00  0.0000000000000D+00
304  3.0300000000000D+00  0.0000000000000D+00  0.0000000000000D+00
305  3.0400000000000D+00  0.0000000000000D+00  0.0000000000000D+00
306  3.0500000000000D+00  0.0000000000000D+00  0.0000000000000D+00
307  3.0600000000000D+00  0.0000000000000D+00  0.0000000000000D+00
308  3.0700000000000D+00  0.0000000000000D+00  0.0000000000000D+00
309  3.0800000000000D+00  0.0000000000000D+00  0.0000000000000D+00
310  3.0900000000000D+00  0.0000000000000D+00  0.0000000000000D+00
311  3.1000000000000D+00  0.0000000000000D+00  0.0000000000000D+00
312  3.1100000000000D+00  0.0000000000000D+00  0.0000000000000D+00
313  3.1200000000000D+00  0.0000000000000D+00  0.0000000000000D+00
314  3.1300000000000D+00  0.0000000000000D+00  0.0000000000000D+00
315  3.1400000000000D+00  0.0000000000000D+00  0.0000000000000D+00
316  3.1500000000000D+00  0.0000000000000D+00  0.0000000000000D+00
317  3.1600000000000D+00  0.0000000000000D+00  0.0000000000000D+00
318  3.1700000000000D+00  0.0000000000000D+00  0.0000000000000D+00
319  3.1800000000000D+00  0.0000000000000D+00  0.0000000000000D+00
320  3.1900000000000D+00  0.0000000000000D+00  0.0000000000000D+00
321  3.2000000000000D+00  0.0000000000000D+00  0.0000000000000D+00
322  3.2100000000000D+00  0.0000000000000D+00  0.0000000000000D+00
323  3.2200000000000D+00  0.0000000000000D+00  0.0000000000000D+00
324  3.2300000000000D+00  0.0000000000000D+00  0.0000000000000D+00
325  3.2400000000000D+00  0.0000000000000D+00  0.0000000000000D+00
326  3.2500000000000D+00  0.0000000000000D+00  0.0000000000000D+00
327  3.2600000000000D+00  0.0000000000000D+00  0.0000000000000D+00
328  3.2700000000000D+00  0.0000000000000D+00  0.0000000000000D+00
329  3.2800000000000D+00  0.0000000000000D+00  0.0000000000000D+00
330  3.2900000000000D+00  0.0000000000000D+00  0.0000000000000D+00
331  3.3000000000000D+00  0.0000000000000D+00  0.0000000000000D+00
332  3.3100000000000D+00  0.0000000000000D+00  0.0000000000000D+00
333  3.3200000000000D+00  0.0000000000000D+00  0.0000000000000D+00
334  3.3300000000000D+00  0.0000000000000D+00  0.0000000000000D+00
335  3.3400000000000D+00  0.0000000000000D+00  0.0000000000000D+00
336  3.3500000000000D+00  0.0000000000000D+00  0.0000000000000D+00
337  3.3600000000000D+00  0.0000000000000D+00  0.0000000000000D+00
338  3.3700000000000D+00  0.0000000000000D+00  0.0000000000000D+00
339  3.3800000000000D+00  0.0000000000000D+00  0.0000000000000D+00
340  3.3900000000000D+00  0.0000000000000D+00  0.0000000000000D+00
341  3.4000000000000D+00  0.0000000000000D+00  0.0000000000000D+00
342  3.4100000000000D+00  0.0000000000000D+00  0.0000000000000D+00
343  3.4200000000000D+00  0.0000000000000D+00  0.0000000000000D+00
344  3.4300000000000D+00  0.0000000000000D+00  0.0000000000000D+00
345  3.4400000000000D+00  0.0000000000000D+00  0.0000000000000D+00
346  3.4500000000000D+00  0.0000000000000D+00  0.0000000000000D+00
347  3.4600000000000D+00  0.0000000000000D+00  0.0000000000000D+00
348  3.4700000000000D+00  0.0000000000000D+00  0.0000000000000D+00
349  3.4800000000000D+00  0.0000000000000D+00  0.0000000000000D+00
350  3.4900000000000D+00  0.0000000000000D+00  0.0000000000000D+00
351  3.5000000000000D+00  0.0000000000000D+00  0.0000000000000D+00
352  3.5100000000000D+00  0.0000000000000D+00  0.0000000000000D+00
353  3.5200000000000D+00  0.0000000000000D+00  0.0000000000000D+00
354  3.5300000000000D+00  0.0000000000000D+00  0.0000000000000D+00
355  3.5400000000000D+00  0.0000000000000D+00  0.0000000000000D+00
356  3.5500000000000D+00  0.0000000000000D+00  0.0000000000000D+00
357  3.5600000000000D+00  0.0000000000000D+00  0.0000000000000D+00
358  3.5700000000000D+00  0.0000000000000D+00  0.0000000000000D+00
359  3.5800000000000D+00  0.0000000000000D+00  0.0000000000000D+00
360  3.5900000000000D+00  0.0000000000000D+00  0.0000000000000D+00
361  3.6000000000000D+00  0.0000000000000D+00  0.0000000000000D+00
362  3.6100000000000D+00  0.0000000000000D+00  0.0000000000000D+00
363  3.6200000000000D+00  0.0000000000000D+00  0.0000000000000D+00
364  3.6300000000000D+00  0.0000000000000D+00  0.0000000000000D+00
365  3.6400000000000D+00  0.0000000000000D+00  0.0000000000000D+00
366  3.6500000000000D+00  0.0000000000000D+00  0.0000000000000D+00
367  3.6600000000000D+00  0.0000000000000D+00  0.0000000000000D+00
368  3.6700000000000D+00  0.0000000000000D+00  0.0000000000000D+00
369  3.6800000000000D+00  0.0000000000000D+00  0.0000000000000D+00
370  3.6900000000000D+00  0.0000000000000D+00  0.0000000000000D+00
371  3.7000000000000D+00  0.0000000000000D+00  0.0000000000000D+00
372  3.7100000000000D+00  0.0000000000000D+00  0.0000000000000D+00
373  3.7200000000000D+00  0.0000000000000D+00  0.0000000000000D+00
374  3.7300000000000D+00  0.0000000000000D+00  0.0000000000000D+00
375  3.7400000000000D+00  0.0000000000000D+00  0.0000000000000D+00
376  3.7500000000000D+00  0.0000000000000D+00  0.0000000000000D+00
377  3.7600000000000D+00  0.0000000000000D+00  0.0000000000000D+00
378  3.7700000000000D+00  0.0000000000000D+00  0.0000000000000D+00
379  3.7800000000000D+00  0.0000000000000D+00  0.0000000000000D+00
380  3.7900000000000D+00  0.0000000000000D+00  0.0000000000000D+00
381  3.8000000000000D+00  0.0000000000000D+00  0.0000000000000D+00
382  3.8100000000000D+00  0.0000000000000D+00  0.0000000000000D+00
383  3.8200000000000D+00  0.0000000000000D+00  0.0000000000000D+00
384  3.8300000000000D+00  0.0000000000000D+00  0.0000000000000D+00
385  3.8400000000000D+00  0.0000000000000D+00  0.0000000000000D+00
386  3.8500000000000D+00  0.0000000000000D+00  0.0000000000000D+00
387  3.8600000000000D+00  0.0000000000000D+00  0.0000000000000D+00
388  3.8700000000000D+00  0.0000000000000D+00  0.0000000000000D+00
389  3.8800000000000D+00  0.0000000000000D+00  0.0000000000000D+00
390  3.8900000000000D+00  0.0000000000000D+00  0.0000000000000D+00
391  3.9000000000000D+00  0.0000000000000D+00  0.0000000000000D+00
392  3.9100000000000D+00  0.0000000000000D+00  0.0000000000000D+00
393  3.9200000000000D+00  0.0000000000000D+00  0.0000000000000D+00
394  3.9300000000000D+00  0.0000000000000D+00  0.0000000000000D+00
395  3.9400000000000D+00  0.0000000000000D+00  0.0000000000000D+00
396  3.9500000000000D+00  0.0000000000000D+00  0.0000000000000D+00
397  3.9600000000000D+00  0.0000000000000D+00  0.0000000000000D+00
398  3.9700000000000D+00  0.0000000000000D+00  0.0000000000000D+00
399  3.9800000000000D+00  0.0000000000000D+00  0.0000000000000D+00
400  3.9900000000000D+00  0.0000000000000D+00  0.0000000000000D+00
401  4.0000000000000D+00  0.0000000000000D+00  0.0000000000000D+00
402  4.0100000000000D+00  0.0000000000000D+00  0.0000000000000D+00
403  4.0200000000000D+00  0.0000000000000D+00  0.0000000000000D+00
404  4.0300000000000D+00  0.0000000000000D+00  0.0000000000000D+00
405  4.0400000000000D+00  0.0000000000000D+00  0.0000000000000D+00
406  4.0500000000000D+00  0.0000000000000D+00  0.0000000000000D+00
407  4.0600000000000D+00  0.0000000000000D+00  0.0000000000000D+00
408  4.0700000000000D+00  0.0000000000000D+00  0.0000000000000D+00
409  4.0800000000000D+00  0.0000000000000D+00  0.0000000000000D+00
410  4.0900000000000D+00  0.0000000000000D+00  0.0000000000000D+00
411  4.1000000000000D+00  0.0000000000000D+00  0.0000000000000D+00
412  4.1100000000000D+00  0.0000000000000D+00  0.0000000000000D+00
413  4.1200000000000D+00  0.0000000000000D+00  0.0000000000000D+00
414  4.1300000000000D+00  0.0000000000000D+00  0.0000000000000D+00
415  4.1400000000000D+00  0.0000000000000D+00  0.0000000000000D+00
416  4.1500000000000D+00  0.0000000000000D+00  0.0000000000000D+00
417  4.1600000000000D+00  0.0000000000000D+00  0.0000000000000D+00
418  4.1700000000000D+00  0.0000000000000D+00  0.0000000000000D+00
419  4.1800000000000D+00  0.0000000000000D+00  0.0000000000000D+00
420  4.1900000000000D+00  0.0000000000000D+00  0.0000000000000D+00
421  4.2000000000000D+00  0.0000000000000D+00  0.0000000000000D+00
422  4.2100000000000D+00  0.0000000000000D+00  0.0000000000000D+00
423  4.2200000000000D+00  0.0000000000000D+00  0.0000000000000D+00
424  4.2300000000000D+00  0.0000000000000D+00  0.0000000000000D+00
425  4.2400000000000D+00  0.0000000000000D+00  0.0000000000000D+00
426  4.2500000000000D+00  0.0000000000000D+00  0.0000000000000D+00
427  4.2600000000000D+00  0.0000000000000D+00  0.0000000000000D+00
428  4.2700000000000D+00  0.0000000000000D+00  0.0000000000000D+00
429  4.2800000000000D+00  0.0000000000000D+00  0.0000000000000D+00
430  4.2900000000000D+00  0.0000000000000D+00  0.0000000000000D+00
431  4.3000000000000D+00  0.0000000000000D+00  0.0000000000000D+00
432  4.3100000000000D+00  0.0000000000000D+00  0.0000000000000D+00
433  4.3200000000000D+00  0.0000000000000D+00  0.0000000000000D+00
434  4.3300000000000D+00  0.0000000000000D+00  0.0000000000000D+00
435  4.3400000000000D+00  0.0000000000000D+00  0.0000000000000D+00
436  4.3500000000000D+00  0.0000000000000D+00  0.0000000000000D+00
437  4.3600000000000D+00  0.0000000000000D+00  0.0000000000000D+00
438  4.3700000000000D+00  0.0000000000000D+00  0.0000000000000D+00
439  4.3800000000000D+00  0.0000000000000D+00  0.0000000000000D+00
440  4.3900000000000D+00  0.0000000000000D+00  0.0000000000000D+00
441  4.4000000000000D+00  0.0000000000000D+00  0.0000000000000D+00
442  4.4100000000000D+00  0.0000000000000D+00  0.0000000000000D+00
443  4.4200000000000D+00  0.0000000000000D+00  0.0000000000000D+00
444  4.4300000000000D+00  0.0000000000000D+00  0.0000000000000D+00