Mo    ONCVPSP  r_core=  1.46  1.46  1.35
42.0000     14.0000      150122    zatom,zion,pspd
8      11   2     4   600     0    pspcod,pspxc,lmax,lloc,mmax,r2well
5.99000000  0.06500000  0.00000000    rchrg fchrg qchrg
2     2     2     0     0    nproj
0                 extension_switch
0                         1.3872909360976D+01  1.3544986404835D+00
1  0.0000000000000D+00  0.0000000000000D+00 -0.0000000000000D+00
2  1.0000000000000D-02  5.6233984527823D-02 -1.9219321690569D-02
3  2.0000000000000D-02  1.1242496575124D-01 -3.8454843492190D-02
4  3.0000000000000D-02  1.6852955492946D-01 -5.7721663722827D-02
5  4.0000000000000D-02  2.2450359745638D-01 -7.7032690118016D-02
6  5.0000000000000D-02  2.8030180240078D-01 -9.6397576928605D-02
7  6.0000000000000D-02  3.3587738688529D-01 -1.1582170054824D-01
8  7.0000000000000D-02  3.9118174003800D-01 -1.3530518595685D-01
9  8.0000000000000D-02  4.4616411106900D-01 -1.5484199578977D-01
10  9.0000000000000D-02  5.0077132580514D-01 -1.7441909326987D-01
11  1.0000000000000D-01  5.5494753574472D-01 -1.9401568952350D-01
12  1.1000000000000D-01  6.0863400340544D-01 -2.1360258505050D-01
13  1.2000000000000D-01  6.6176892738829D-01 -2.3314161419263D-01
14  1.3000000000000D-01  7.1428731022431D-01 -2.5258520052041D-01
15  1.4000000000000D-01  7.6612087163510D-01 -2.7187602988939D-01
16  1.5000000000000D-01  8.1719800948590D-01 -2.9094684704807D-01
17  1.6000000000000D-01  8.6744381014913D-01 -3.0972038011210D-01
18  1.7000000000000D-01  9.1678010964178D-01 -3.2810939643815D-01
19  1.8000000000000D-01  9.6512560629557D-01 -3.4601689164956D-01
20  1.9000000000000D-01  1.0123960253768D+00 -3.6333641280142D-01
21  2.0000000000000D-01  1.0585043353645D+00 -3.7995251488780D-01
22  2.1000000000000D-01  1.1033610152798D+00 -3.9574134879892D-01
23  2.2000000000000D-01  1.1468743717667D+00 -4.1057137732197D-01
24  2.3000000000000D-01  1.1889509044839D+00 -4.2430421510982D-01
25  2.4000000000000D-01  1.2294957172859D+00 -4.3679558605972D-01
26  2.5000000000000D-01  1.2684129720951D+00 -4.4789638991301D-01
27  2.6000000000000D-01  1.3056063848210D+00 -4.5745387544817D-01
28  2.7000000000000D-01  1.3409797554519D+00 -4.6531290098223D-01
29  2.8000000000000D-01  1.3744375318573D+00 -4.7131727957657D-01
30  2.9000000000000D-01  1.4058854021949D+00 -4.7531119580298D-01
31  3.0000000000000D-01  1.4352309106876D+00 -4.7714068039893D-01
32  3.1000000000000D-01  1.4623840921588D+00 -4.7665513051405D-01
33  3.2000000000000D-01  1.4872581198102D+00 -4.7370886108458D-01
34  3.3000000000000D-01  1.5097699541922D+00 -4.6816265730791D-01
35  3.4000000000000D-01  1.5298410173756D+00 -4.5988538384504D-01
36  3.5000000000000D-01  1.5473978236028D+00 -4.4875548614226D-01
37  3.6000000000000D-01  1.5623726498280D+00 -4.3466258051850D-01
38  3.7000000000000D-01  1.5747041380559D+00 -4.1750887506917D-01
39  3.8000000000000D-01  1.5843379254704D+00 -3.9721064785366D-01
40  3.9000000000000D-01  1.5912272178596D+00 -3.7369958061304D-01
41  4.0000000000000D-01  1.5953333342827D+00 -3.4692401331700D-01
42  4.1000000000000D-01  1.5966262208920D+00 -3.1685011335466D-01
43  4.2000000000000D-01  1.5950849184935D+00 -2.8346292193517D-01
44  4.3000000000000D-01  1.5906979817237D+00 -2.4676727187398D-01
45  4.4000000000000D-01  1.5834638454210D+00 -2.0678856564348D-01
46  4.5000000000000D-01  1.5733911340261D+00 -1.6357340333209D-01
47  4.6000000000000D-01  1.5604989100835D+00 -1.1719005092369D-01
48  4.7000000000000D-01  1.5448168582171D+00 -6.7728740245211D-02
49  4.8000000000000D-01  1.5263854013984D+00 -1.5301793319355D-02
50  4.9000000000000D-01  1.5052557337562D+00  3.9956460789251D-02
51  5.0000000000000D-01  1.4814898431400D+00  9.7889825607497D-02
52  5.1000000000000D-01  1.4551603709860D+00  1.5832075391005D-01
53  5.2000000000000D-01  1.4263504415578D+00  2.2105094976289D-01
54  5.3000000000000D-01  1.3951534616420D+00  2.8586208366447D-01
55  5.4000000000000D-01  1.3616727669627D+00  3.5251684037676D-01
56  5.5000000000000D-01  1.3260212508290D+00  4.2076002440931D-01
57  5.6000000000000D-01  1.2883209126783D+00  4.9031991058380D-01
58  5.7000000000000D-01  1.2487023377214D+00  5.6090965273965D-01
59  5.8000000000000D-01  1.2073040901292D+00  6.3222905530874D-01
60  5.9000000000000D-01  1.1642721134058D+00  7.0396614073881D-01
61  6.0000000000000D-01  1.1197589665857D+00  7.7579928692908D-01
62  6.1000000000000D-01  1.0739231166320D+00  8.4739908111399D-01
63  6.2000000000000D-01  1.0269281637791D+00  9.1843036946595D-01
64  6.3000000000000D-01  9.7894187128464D-01  9.8855484506654D-01
65  6.4000000000000D-01  9.3013547322393D-01  1.0574327707951D+00
66  6.5000000000000D-01  8.8068267212822D-01  1.1247255891761D+00
67  6.6000000000000D-01  8.3075862242075D-01  1.1900985119428D+00
68  6.7000000000000D-01  7.8053915045864D-01  1.2532224223925D+00
69  6.8000000000000D-01  7.3019986311224D-01  1.3137760780379D+00
70  6.9000000000000D-01  6.7991486607236D-01  1.3714493106947D+00
71  7.0000000000000D-01  6.2985608783506D-01  1.4259445666914D+00
72  7.1000000000000D-01  5.8019231211450D-01  1.4769792049370D+00
73  7.2000000000000D-01  5.3108824696366D-01  1.5242876588001D+00
74  7.3000000000000D-01  4.8270377555133D-01  1.5676231023926D+00
75  7.4000000000000D-01  4.3519267430539D-01  1.6067604116867D+00
76  7.5000000000000D-01  3.8870222320063D-01  1.6414968356811D+00
77  7.6000000000000D-01  3.4337231071937D-01  1.6716539092268D+00
78  7.7000000000000D-01  2.9933471917765D-01  1.6970788668313D+00
79  7.8000000000000D-01  2.5671246782736D-01  1.7176458700476D+00
80  7.9000000000000D-01  2.1561921843216D-01  1.7332570371508D+00
81  8.0000000000000D-01  1.7615874765013D-01  1.7438432650681D+00
82  8.1000000000000D-01  1.3842448995624D-01  1.7493648353778D+00
83  8.2000000000000D-01  1.0249915421682D-01  1.7498117981032D+00
84  8.3000000000000D-01  6.8454416392978D-02  1.7452041289648D+00
85  8.4000000000000D-01  3.6350690207754D-02  1.7355916577021D+00
86  8.5000000000000D-01  6.2369769680254D-03  1.7210537670338D+00
87  8.6000000000000D-01 -2.1849204910053D-02  1.7016988637561D+00
88  8.7000000000000D-01 -4.7881810762055D-02  1.6776636254085D+00
89  8.8000000000000D-01 -7.1846181647009D-02  1.6491120278414D+00
90  8.9000000000000D-01 -9.3738878786686D-02  1.6162341609150D+00
91  9.0000000000000D-01 -1.1356744246032D-01  1.5792448414437D+00
92  9.1000000000000D-01 -1.3135007797602D-01  1.5383820343793D+00
93  9.2000000000000D-01 -1.4711527197597D-01  1.4939050950986D+00
94  9.3000000000000D-01 -1.6090134297113D-01  1.4460928475171D+00
95  9.4000000000000D-01 -1.7275593063801D-01  1.3952415145690D+00
96  9.5000000000000D-01 -1.8273542903782D-01  1.3416625193440D+00
97  9.6000000000000D-01 -1.9090436952192D-01  1.2856801767904D+00
98  9.7000000000000D-01 -1.9733475776186D-01  1.2276293367776D+00
99  9.8000000000000D-01 -2.0210540619254D-01  1.1678532726876D+00
100  9.9000000000000D-01 -2.0530120042914D-01  1.1067000936379D+00
101  1.0000000000000D+00 -2.0701225280963D-01  1.0445210181078D+00
102  1.0100000000000D+00 -2.0733316432043D-01  9.8166758953905D-01
103  1.0200000000000D+00 -2.0636223331913D-01  9.1848913341115D-01
104  1.0300000000000D+00 -2.0420066266790D-01  8.5533026203618D-01
105  1.0400000000000D+00 -2.0095208037537D-01  7.9252993923409D-01
106  1.0500000000000D+00 -1.9672093451112D-01  7.3041487050599D-01
107  1.0600000000000D+00 -1.9161228080134D-01  6.6930051186039D-01
108  1.0700000000000D+00 -1.8573094513579D-01  6.0948829051005D-01
109  1.0800000000000D+00 -1.7918080981462D-01  5.5126357946505D-01
110  1.0900000000000D+00 -1.7206475315004D-01  4.9489621578543D-01
111  1.1000000000000D+00 -1.6448187772228D-01  4.4063040898082D-01
112  1.1100000000000D+00 -1.5652877684559D-01  3.8869096758828D-01
113  1.1200000000000D+00 -1.4829844523935D-01  3.3927970377202D-01
114  1.1300000000000D+00 -1.3988069027448D-01  2.9257745719725D-01
115  1.1400000000000D+00 -1.3135883833861D-01  2.4873305889315D-01
116  1.1500000000000D+00 -1.2281141262486D-01  2.0787033985579D-01
117  1.1600000000000D+00 -1.1431169413024D-01  1.7008706394155D-01
118  1.1700000000000D+00 -1.0592821864219D-01  1.3545687312493D-01
119  1.1800000000000D+00 -9.7720375250250D-02  1.0401581214686D-01
120  1.1900000000000D+00 -8.9742270300649D-02  7.5775714430624D-02
121  1.2000000000000D+00 -8.2042383372304D-02  5.0723191618949D-02
122  1.2100000000000D+00 -7.4660740977027D-02  2.8811588040163D-02
123  1.2200000000000D+00 -6.7629636396661D-02  9.9643231314106D-03
124  1.2300000000000D+00 -6.0975681868468D-02 -5.9187901758328D-03
125  1.2400000000000D+00 -5.4718096592334D-02 -1.8966198400436D-02
126  1.2500000000000D+00 -4.8866597916030D-02 -2.9339132229761D-02
127  1.2600000000000D+00 -4.3425660303423D-02 -3.7219383036557D-02
128  1.2700000000000D+00 -3.8392387834760D-02 -4.2816070541512D-02
129  1.2800000000000D+00 -3.3756681185709D-02 -4.6355881595489D-02
130  1.2900000000000D+00 -2.9506209442827D-02 -4.8071699318020D-02
131  1.3000000000000D+00 -2.5625362606053D-02 -4.8201487364849D-02
132  1.3100000000000D+00 -2.2096310656079D-02 -4.6978681996445D-02
133  1.3200000000000D+00 -1.8900170088860D-02 -4.4638946152972D-02
134  1.3300000000000D+00 -1.6016795623303D-02 -4.1411878126532D-02
135  1.3400000000000D+00 -1.3426464030677D-02 -3.7514879557012D-02
136  1.3500000000000D+00 -1.1108890337227D-02 -3.3166378487402D-02
137  1.3600000000000D+00 -9.0457088360102D-03 -2.8561600560538D-02
138  1.3700000000000D+00 -7.2199545760010D-03 -2.3885475312059D-02
139  1.3800000000000D+00 -5.6152800534955D-03 -1.9316003209407D-02
140  1.3900000000000D+00 -4.2203679367582D-03 -1.4995554513118D-02
141  1.4000000000000D+00 -3.0241666198563D-03 -1.1065701452167D-02
142  1.4100000000000D+00 -2.0205345057107D-03 -7.6357139990057D-03
143  1.4200000000000D+00 -1.2070358485210D-03 -4.7930016304926D-03
144  1.4300000000000D+00 -5.8262142766767D-04 -2.6167048450208D-03
145  1.4400000000000D+00 -1.5863815257730D-04 -1.1605014815310D-03
146  1.4500000000000D+00  5.6128336690841D-05 -4.6804005787319D-04
147  1.4600000000000D+00  9.6415884063547D-05 -1.5080692542513D-04
148  1.4700000000000D+00  2.4545269282346D-05 -1.2654165517532D-05
149  1.4800000000000D+00 -6.8649906500727D-06  1.8876306730489D-05
150  1.4900000000000D+00 -5.5610791389957D-07  1.5291009257106D-06
151  1.5000000000000D+00  0.0000000000000D+00  0.0000000000000D+00
152  1.5100000000000D+00  0.0000000000000D+00  0.0000000000000D+00
153  1.5200000000000D+00  0.0000000000000D+00  0.0000000000000D+00
154  1.5300000000000D+00  0.0000000000000D+00  0.0000000000000D+00
155  1.5400000000000D+00  0.0000000000000D+00  0.0000000000000D+00
156  1.5500000000000D+00  0.0000000000000D+00  0.0000000000000D+00
157  1.5600000000000D+00  0.0000000000000D+00  0.0000000000000D+00
158  1.5700000000000D+00  0.0000000000000D+00  0.0000000000000D+00
159  1.5800000000000D+00  0.0000000000000D+00  0.0000000000000D+00
160  1.5900000000000D+00  0.0000000000000D+00  0.0000000000000D+00
161  1.6000000000000D+00  0.0000000000000D+00  0.0000000000000D+00
162  1.6100000000000D+00  0.0000000000000D+00  0.0000000000000D+00
163  1.6200000000000D+00  0.0000000000000D+00  0.0000000000000D+00
164  1.6300000000000D+00  0.0000000000000D+00  0.0000000000000D+00
165  1.6400000000000D+00  0.0000000000000D+00  0.0000000000000D+00
166  1.6500000000000D+00  0.0000000000000D+00  0.0000000000000D+00
167  1.6600000000000D+00  0.0000000000000D+00  0.0000000000000D+00
168  1.6700000000000D+00  0.0000000000000D+00  0.0000000000000D+00
169  1.6800000000000D+00  0.0000000000000D+00  0.0000000000000D+00
170  1.6900000000000D+00  0.0000000000000D+00  0.0000000000000D+00
171  1.7000000000000D+00  0.0000000000000D+00  0.0000000000000D+00
172  1.7100000000000D+00  0.0000000000000D+00  0.0000000000000D+00
173  1.7200000000000D+00  0.0000000000000D+00  0.0000000000000D+00
174  1.7300000000000D+00  0.0000000000000D+00  0.0000000000000D+00
175  1.7400000000000D+00  0.0000000000000D+00  0.0000000000000D+00
176  1.7500000000000D+00  0.0000000000000D+00  0.0000000000000D+00
177  1.7600000000000D+00  0.0000000000000D+00  0.0000000000000D+00
178  1.7700000000000D+00  0.0000000000000D+00  0.0000000000000D+00
179  1.7800000000000D+00  0.0000000000000D+00  0.0000000000000D+00
180  1.7900000000000D+00  0.0000000000000D+00  0.0000000000000D+00
181  1.8000000000000D+00  0.0000000000000D+00  0.0000000000000D+00
182  1.8100000000000D+00  0.0000000000000D+00  0.0000000000000D+00
183  1.8200000000000D+00  0.0000000000000D+00  0.0000000000000D+00
184  1.8300000000000D+00  0.0000000000000D+00  0.0000000000000D+00
185  1.8400000000000D+00  0.0000000000000D+00  0.0000000000000D+00
186  1.8500000000000D+00  0.0000000000000D+00  0.0000000000000D+00
187  1.8600000000000D+00  0.0000000000000D+00  0.0000000000000D+00
188  1.8700000000000D+00  0.0000000000000D+00  0.0000000000000D+00
189  1.8800000000000D+00  0.0000000000000D+00  0.0000000000000D+00
190  1.8900000000000D+00  0.0000000000000D+00  0.0000000000000D+00
191  1.9000000000000D+00  0.0000000000000D+00  0.0000000000000D+00
192  1.9100000000000D+00  0.0000000000000D+00  0.0000000000000D+00
193  1.9200000000000D+00  0.0000000000000D+00  0.0000000000000D+00
194  1.9300000000000D+00  0.0000000000000D+00  0.0000000000000D+00
195  1.9400000000000D+00  0.0000000000000D+00  0.0000000000000D+00
196  1.9500000000000D+00  0.0000000000000D+00  0.0000000000000D+00
197  1.9600000000000D+00  0.0000000000000D+00  0.0000000000000D+00
198  1.9700000000000D+00  0.0000000000000D+00  0.0000000000000D+00
199  1.9800000000000D+00  0.0000000000000D+00  0.0000000000000D+00
200  1.9900000000000D+00  0.0000000000000D+00  0.0000000000000D+00
201  2.0000000000000D+00  0.0000000000000D+00  0.0000000000000D+00
202  2.0100000000000D+00  0.0000000000000D+00  0.0000000000000D+00
203  2.0200000000000D+00  0.0000000000000D+00  0.0000000000000D+00
204  2.0300000000000D+00  0.0000000000000D+00  0.0000000000000D+00
205  2.0400000000000D+00  0.0000000000000D+00  0.0000000000000D+00
206  2.0500000000000D+00  0.0000000000000D+00  0.0000000000000D+00
207  2.0600000000000D+00  0.0000000000000D+00  0.0000000000000D+00
208  2.0700000000000D+00  0.0000000000000D+00  0.0000000000000D+00
209  2.0800000000000D+00  0.0000000000000D+00  0.0000000000000D+00
210  2.0900000000000D+00  0.0000000000000D+00  0.0000000000000D+00
211  2.1000000000000D+00  0.0000000000000D+00  0.0000000000000D+00
212  2.1100000000000D+00  0.0000000000000D+00  0.0000000000000D+00
213  2.1200000000000D+00  0.0000000000000D+00  0.0000000000000D+00
214  2.1300000000000D+00  0.0000000000000D+00  0.0000000000000D+00
215  2.1400000000000D+00  0.0000000000000D+00  0.0000000000000D+00
216  2.1500000000000D+00  0.0000000000000D+00  0.0000000000000D+00
217  2.1600000000000D+00  0.0000000000000D+00  0.0000000000000D+00
218  2.1700000000000D+00  0.0000000000000D+00  0.0000000000000D+00
219  2.1800000000000D+00  0.0000000000000D+00  0.0000000000000D+00
220  2.1900000000000D+00  0.0000000000000D+00  0.0000000000000D+00
221  2.2000000000000D+00  0.0000000000000D+00  0.0000000000000D+00
222  2.2100000000000D+00  0.0000000000000D+00  0.0000000000000D+00
223  2.2200000000000D+00  0.0000000000000D+00  0.0000000000000D+00
224  2.2300000000000D+00  0.0000000000000D+00  0.0000000000000D+00
225  2.2400000000000D+00  0.0000000000000D+00  0.0000000000000D+00
226  2.2500000000000D+00  0.0000000000000D+00  0.0000000000000D+00
227  2.2600000000000D+00  0.0000000000000D+00  0.0000000000000D+00
228  2.2700000000000D+00  0.0000000000000D+00  0.0000000000000D+00
229  2.2800000000000D+00  0.0000000000000D+00  0.0000000000000D+00
230  2.2900000000000D+00  0.0000000000000D+00  0.0000000000000D+00
231  2.3000000000000D+00  0.0000000000000D+00  0.0000000000000D+00
232  2.3100000000000D+00  0.0000000000000D+00  0.0000000000000D+00
233  2.3200000000000D+00  0.0000000000000D+00  0.0000000000000D+00
234  2.3300000000000D+00  0.0000000000000D+00  0.0000000000000D+00
235  2.3400000000000D+00  0.0000000000000D+00  0.0000000000000D+00
236  2.3500000000000D+00  0.0000000000000D+00  0.0000000000000D+00
237  2.3600000000000D+00  0.0000000000000D+00  0.0000000000000D+00
238  2.3700000000000D+00  0.0000000000000D+00  0.0000000000000D+00
239  2.3800000000000D+00  0.0000000000000D+00  0.0000000000000D+00
240  2.3900000000000D+00  0.0000000000000D+00  0.0000000000000D+00
241  2.4000000000000D+00  0.0000000000000D+00  0.0000000000000D+00
242  2.4100000000000D+00  0.0000000000000D+00  0.0000000000000D+00
243  2.4200000000000D+00  0.0000000000000D+00  0.0000000000000D+00
244  2.4300000000000D+00  0.0000000000000D+00  0.0000000000000D+00
245  2.4400000000000D+00  0.0000000000000D+00  0.0000000000000D+00
246  2.4500000000000D+00  0.0000000000000D+00  0.0000000000000D+00
247  2.4600000000000D+00  0.0000000000000D+00  0.0000000000000D+00
248  2.4700000000000D+00  0.0000000000000D+00  0.0000000000000D+00
249  2.4800000000000D+00  0.0000000000000D+00  0.0000000000000D+00
250  2.4900000000000D+00  0.0000000000000D+00  0.0000000000000D+00
251  2.5000000000000D+00  0.0000000000000D+00  0.0000000000000D+00
252  2.5100000000000D+00  0.0000000000000D+00  0.0000000000000D+00
253  2.5200000000000D+00  0.0000000000000D+00  0.0000000000000D+00
254  2.5300000000000D+00  0.0000000000000D+00  0.0000000000000D+00
255  2.5400000000000D+00  0.0000000000000D+00  0.0000000000000D+00
256  2.5500000000000D+00  0.0000000000000D+00  0.0000000000000D+00
257  2.5600000000000D+00  0.0000000000000D+00  0.0000000000000D+00
258  2.5700000000000D+00  0.0000000000000D+00  0.0000000000000D+00
259  2.5800000000000D+00  0.0000000000000D+00  0.0000000000000D+00
260  2.5900000000000D+00  0.0000000000000D+00  0.0000000000000D+00
261  2.6000000000000D+00  0.0000000000000D+00  0.0000000000000D+00
262  2.6100000000000D+00  0.0000000000000D+00  0.0000000000000D+00
263  2.6200000000000D+00  0.0000000000000D+00  0.0000000000000D+00
264  2.6300000000000D+00  0.0000000000000D+00  0.0000000000000D+00
265  2.6400000000000D+00  0.0000000000000D+00  0.0000000000000D+00
266  2.6500000000000D+00  0.0000000000000D+00  0.0000000000000D+00
267  2.6600000000000D+00  0.0000000000000D+00  0.0000000000000D+00
268  2.6700000000000D+00  0.0000000000000D+00  0.0000000000000D+00
269  2.6800000000000D+00  0.0000000000000D+00  0.0000000000000D+00
270  2.6900000000000D+00  0.0000000000000D+00  0.0000000000000D+00
271  2.7000000000000D+00  0.0000000000000D+00  0.0000000000000D+00
272  2.7100000000000D+00  0.0000000000000D+00  0.0000000000000D+00
273  2.7200000000000D+00  0.0000000000000D+00  0.0000000000000D+00
274  2.7300000000000D+00  0.0000000000000D+00  0.0000000000000D+00
275  2.7400000000000D+00  0.0000000000000D+00  0.0000000000000D+00
276  2.7500000000000D+00  0.0000000000000D+00  0.0000000000000D+00
277  2.7600000000000D+00  0.0000000000000D+00  0.0000000000000D+00
278  2.7700000000000D+00  0.0000000000000D+00  0.0000000000000D+00
279  2.7800000000000D+00  0.0000000000000D+00  0.0000000000000D+00
280  2.7900000000000D+00  0.0000000000000D+00  0.0000000000000D+00
281  2.8000000000000D+00  0.0000000000000D+00  0.0000000000000D+00
282  2.8100000000000D+00  0.0000000000000D+00  0.0000000000000D+00
283  2.8200000000000D+00  0.0000000000000D+00  0.0000000000000D+00
284  2.8300000000000D+00  0.0000000000000D+00  0.0000000000000D+00
285  2.8400000000000D+00  0.0000000000000D+00  0.0000000000000D+00
286  2.8500000000000D+00  0.0000000000000D+00  0.0000000000000D+00
287  2.8600000000000D+00  0.0000000000000D+00  0.0000000000000D+00
288  2.8700000000000D+00  0.0000000000000D+00  0.0000000000000D+00
289  2.8800000000000D+00  0.0000000000000D+00  0.0000000000000D+00
290  2.8900000000000D+00  0.0000000000000D+00  0.0000000000000D+00
291  2.9000000000000D+00  0.0000000000000D+00  0.0000000000000D+00
292  2.9100000000000D+00  0.0000000000000D+00  0.0000000000000D+00
293  2.9200000000000D+00  0.0000000000000D+00  0.0000000000000D+00
294  2.9300000000000D+00  0.0000000000000D+00  0.0000000000000D+00
295  2.9400000000000D+00  0.0000000000000D+00  0.0000000000000D+00
296  2.9500000000000D+00  0.0000000000000D+00  0.0000000000000D+00
297  2.9600000000000D+00  0.0000000000000D+00  0.0000000000000D+00
298  2.9700000000000D+00  0.0000000000000D+00  0.0000000000000D+00
299  2.9800000000000D+00  0.0000000000000D+00  0.0000000000000D+00
300  2.9900000000000D+00  0.0000000000000D+00  0.0000000000000D+00
301  3.0000000000000D+00  0.0000000000000D+00  0.0000000000000D+00
302  3.0100000000000D+00  0.0000000000000D+00  0.0000000000000D+00
303  3.0200000000000D+00  0.0000000000000D+00  0.0000000000000D+00
304  3.0300000000000D+00  0.0000000000000D+00  0.0000000000000D+00
305  3.0400000000000D+00  0.0000000000000D+00  0.0000000000000D+00
306  3.0500000000000D+00  0.0000000000000D+00  0.0000000000000D+00
307  3.0600000000000D+00  0.0000000000000D+00  0.0000000000000D+00
308  3.0700000000000D+00  0.0000000000000D+00  0.0000000000000D+00
309  3.0800000000000D+00  0.0000000000000D+00  0.0000000000000D+00
310  3.0900000000000D+00  0.0000000000000D+00  0.0000000000000D+00
311  3.1000000000000D+00  0.0000000000000D+00  0.0000000000000D+00
312  3.1100000000000D+00  0.0000000000000D+00  0.0000000000000D+00
313  3.1200000000000D+00  0.0000000000000D+00  0.0000000000000D+00
314  3.1300000000000D+00  0.0000000000000D+00  0.0000000000000D+00
315  3.1400000000000D+00  0.0000000000000D+00  0.0000000000000D+00
316  3.1500000000000D+00  0.0000000000000D+00  0.0000000000000D+00
317  3.1600000000000D+00  0.0000000000000D+00  0.0000000000000D+00
318  3.1700000000000D+00  0.0000000000000D+00  0.0000000000000D+00
319  3.1800000000000D+00  0.0000000000000D+00  0.0000000000000D+00
320  3.1900000000000D+00  0.0000000000000D+00  0.0000000000000D+00
321  3.2000000000000D+00  0.0000000000000D+00  0.0000000000000D+00
322  3.2100000000000D+00  0.0000000000000D+00  0.0000000000000D+00
323  3.2200000000000D+00  0.0000000000000D+00  0.0000000000000D+00
324  3.2300000000000D+00  0.0000000000000D+00  0.0000000000000D+00
325  3.2400000000000D+00  0.0000000000000D+00  0.0000000000000D+00
326  3.2500000000000D+00  0.0000000000000D+00  0.0000000000000D+00
327  3.2600000000000D+00  0.0000000000000D+00  0.0000000000000D+00
328  3.2700000000000D+00  0.0000000000000D+00  0.0000000000000D+00
329  3.2800000000000D+00  0.0000000000000D+00  0.0000000000000D+00
330  3.2900000000000D+00  0.0000000000000D+00  0.0000000000000D+00
331  3.3000000000000D+00  0.0000000000000D+00  0.0000000000000D+00
332  3.3100000000000D+00  0.0000000000000D+00  0.0000000000000D+00
333  3.3200000000000D+00  0.0000000000000D+00  0.0000000000000D+00
334  3.3300000000000D+00  0.0000000000000D+00  0.0000000000000D+00
335  3.3400000000000D+00  0.0000000000000D+00  0.0000000000000D+00
336  3.3500000000000D+00  0.0000000000000D+00  0.0000000000000D+00
337  3.3600000000000D+00  0.0000000000000D+00  0.0000000000000D+00
338  3.3700000000000D+00  0.0000000000000D+00  0.0000000000000D+00
339  3.3800000000000D+00  0.0000000000000D+00  0.0000000000000D+00
340  3.3900000000000D+00  0.0000000000000D+00  0.0000000000000D+00
341  3.4000000000000D+00  0.0000000000000D+00  0.0000000000000D+00
342  3.4100000000000D+00  0.0000000000000D+00  0.0000000000000D+00
343  3.4200000000000D+00  0.0000000000000D+00  0.0000000000000D+00
344  3.4300000000000D+00  0.0000000000000D+00  0.0000000000000D+00
345  3.4400000000000D+00  0.0000000000000D+00  0.0000000000000D+00
346  3.4500000000000D+00  0.0000000000000D+00  0.0000000000000D+00
347  3.4600000000000D+00  0.0000000000000D+00  0.0000000000000D+00
348  3.4700000000000D+00  0.0000000000000D+00  0.0000000000000D+00
349  3.4800000000000D+00  0.0000000000000D+00  0.0000000000000D+00
350  3.4900000000000D+00  0.0000000000000D+00  0.0000000000000D+00
351  3.5000000000000D+00  0.0000000000000D+00  0.0000000000000D+00
352  3.5100000000000D+00  0.0000000000000D+00  0.0000000000000D+00
353  3.5200000000000D+00  0.0000000000000D+00  0.0000000000000D+00
354  3.5300000000000D+00  0.0000000000000D+00  0.0000000000000D+00
355  3.5400000000000D+00  0.0000000000000D+00  0.0000000000000D+00
356  3.5500000000000D+00  0.0000000000000D+00  0.0000000000000D+00
357  3.5600000000000D+00  0.0000000000000D+00  0.0000000000000D+00
358  3.5700000000000D+00  0.0000000000000D+00  0.0000000000000D+00
359  3.5800000000000D+00  0.0000000000000D+00  0.0000000000000D+00
360  3.5900000000000D+00  0.0000000000000D+00  0.0000000000000D+00
361  3.6000000000000D+00  0.0000000000000D+00  0.0000000000000D+00
362  3.6100000000000D+00  0.0000000000000D+00  0.0000000000000D+00
363  3.6200000000000D+00  0.0000000000000D+00  0.0000000000000D+00
364  3.6300000000000D+00  0.0000000000000D+00  0.0000000000000D+00
365  3.6400000000000D+00  0.0000000000000D+00  0.0000000000000D+00
366  3.6500000000000D+00  0.0000000000000D+00  0.0000000000000D+00
367  3.6600000000000D+00  0.0000000000000D+00  0.0000000000000D+00
368  3.6700000000000D+00  0.0000000000000D+00  0.0000000000000D+00
369  3.6800000000000D+00  0.0000000000000D+00  0.0000000000000D+00
370  3.6900000000000D+00  0.0000000000000D+00  0.0000000000000D+00
371  3.7000000000000D+00  0.0000000000000D+00  0.0000000000000D+00
372  3.7100000000000D+00  0.0000000000000D+00  0.0000000000000D+00
373  3.7200000000000D+00  0.0000000000000D+00  0.0000000000000D+00
374  3.7300000000000D+00  0.0000000000000D+00  0.0000000000000D+00
375  3.7400000000000D+00  0.0000000000000D+00  0.0000000000000D+00
376  3.7500000000000D+00  0.0000000000000D+00  0.0000000000000D+00
377  3.7600000000000D+00  0.0000000000000D+00  0.0000000000000D+00
378  3.7700000000000D+00  0.0000000000000D+00  0.0000000000000D+00
379  3.7800000000000D+00  0.0000000000000D+00  0.0000000000000D+00
380  3.7900000000000D+00  0.0000000000000D+00  0.0000000000000D+00
381  3.8000000000000D+00  0.0000000000000D+00  0.0000000000000D+00
382  3.8100000000000D+00  0.0000000000000D+00  0.0000000000000D+00
383  3.8200000000000D+00  0.0000000000000D+00  0.0000000000000D+00
384  3.8300000000000D+00  0.0000000000000D+00  0.0000000000000D+00
385  3.8400000000000D+00  0.0000000000000D+00  0.0000000000000D+00
386  3.8500000000000D+00  0.0000000000000D+00  0.0000000000000D+00
387  3.8600000000000D+00  0.0000000000000D+00  0.0000000000000D+00
388  3.8700000000000D+00  0.0000000000000D+00  0.0000000000000D+00
389  3.8800000000000D+00  0.0000000000000D+00  0.0000000000000D+00
390  3.8900000000000D+00  0.0000000000000D+00  0.0000000000000D+00
391  3.9000000000000D+00  0.0000000000000D+00  0.0000000000000D+00
392  3.9100000000000D+00  0.0000000000000D+00  0.0000000000000D+00
393  3.9200000000000D+00  0.0000000000000D+00  0.0000000000000D+00
394  3.9300000000000D+00  0.0000000000000D+00  0.0000000000000D+00
395  3.9400000000000D+00  0.0000000000000D+00  0.0000000000000D+00
396  3.9500000000000D+00  0.0000000000000D+00  0.0000000000000D+00
397  3.9600000000000D+00  0.0000000000000D+00  0.0000000000000D+00
398  3.9700000000000D+00  0.0000000000000D+00  0.0000000000000D+00
399  3.9800000000000D+00  0.0000000000000D+00  0.0000000000000D+00
400  3.9900000000000D+00  0.0000000000000D+00  0.0000000000000D+00
401  4.0000000000000D+00  0.0000000000000D+00  0.0000000000000D+00
402  4.0100000000000D+00  0.0000000000000D+00  0.0000000000000D+00
403  4.0200000000000D+00  0.0000000000000D+00  0.0000000000000D+00
404  4.0300000000000D+00  0.0000000000000D+00  0.0000000000000D+00
405  4.0400000000000D+00  0.0000000000000D+00  0.0000000000000D+00
406  4.0500000000000D+00  0.0000000000000D+00  0.0000000000000D+00
407  4.0600000000000D+00  0.0000000000000D+00  0.0000000000000D+00
408  4.0700000000000D+00  0.0000000000000D+00  0.0000000000000D+00
409  4.0800000000000D+00  0.0000000000000D+00  0.0000000000000D+00
410  4.0900000000000D+00  0.0000000000000D+00  0.0000000000000D+00
411  4.1000000000000D+00  0.0000000000000D+00  0.0000000000000D+00
412  4.1100000000000D+00  0.0000000000000D+00  0.0000000000000D+00
413  4.1200000000000D+00  0.0000000000000D+00  0.0000000000000D+00
414  4.1300000000000D+00  0.0000000000000D+00  0.0000000000000D+00
415  4.1400000000000D+00  0.0000000000000D+00  0.0000000000000D+00
416  4.1500000000000D+00  0.0000000000000D+00  0.0000000000000D+00
417  4.1600000000000D+00  0.0000000000000D+00  0.0000000000000D+00
418  4.1700000000000D+00  0.0000000000000D+00  0.0000000000000D+00
419  4.1800000000000D+00  0.0000000000000D+00  0.0000000000000D+00
420  4.1900000000000D+00  0.0000000000000D+00  0.0000000000000D+00
421  4.2000000000000D+00  0.0000000000000D+00  0.0000000000000D+00
422  4.2100000000000D+00  0.0000000000000D+00  0.0000000000000D+00
423  4.2200000000000D+00  0.0000000000000D+00  0.0000000000000D+00
424  4.2300000000000D+00  0.0000000000000D+00  0.0000000000000D+00
425  4.2400000000000D+00  0.0000000000000D+00  0.0000000000000D+00
426  4.2500000000000D+00  0.0000000000000D+00  0.0000000000000D+00
427  4.2600000000000D+00  0.0000000000000D+00  0.0000000000000D+00
428  4.2700000000000D+00  0.0000000000000D+00  0.0000000000000D+00
429  4.2800000000000D+00  0.0000000000000D+00  0.0000000000000D+00
430  4.2900000000000D+00  0.0000000000000D+00  0.0000000000000D+00
431  4.3000000000000D+00  0.0000000000000D+00  0.0000000000000D+00
432  4.3100000000000D+00  0.0000000000000D+00  0.0000000000000D+00
433  4.3200000000000D+00  0.0000000000000D+00  0.0000000000000D+00
434  4.3300000000000D+00  0.0000000000000D+00  0.0000000000000D+00
435  4.3400000000000D+00  0.0000000000000D+00  0.0000000000000D+00
436  4.3500000000000D+00  0.0000000000000D+00  0.0000000000000D+00
437  4.3600000000000D+00  0.0000000000000D+00  0.0000000000000D+00
438  4.3700000000000D+00  0.0000000000000D+00  0.0000000000000D+00
439  4.3800000000000D+00  0.0000000000000D+00  0.0000000000000D+00
440  4.3900000000000D+00  0.0000000000000D+00  0.0000000000000D+00
441  4.4000000000000D+00  0.0000000000000D+00  0.0000000000000D+00
442  4.4100000000000D+00  0.0000000000000D+00  0.0000000000000D+00
443  4.4200000000000D+00  0.0000000000000D+00  0.0000000000000D+00
444  4.4300000000000D+00  0.0000000000000D+00  0.0000000000000D+00