Mo    ONCVPSP  r_core=  1.40  1.40  1.26
42.0000     14.0000      150104    zatom,zion,pspd
8    11     2     4   601     0    pspcod,pspxc,lmax,lloc,mmax,r2well
6.00000000  0.06500000  0.00000000    rchrg fchrg qchrg
2     2     2     0     0    nproj
0                 extension_switch
0                         1.2663282373050D+01  1.2365623311338D+00
1  0.0000000000000D+00 -0.0000000000000D+00 -0.0000000000000D+00
2  1.0000000000000D-02 -5.5529916130003D-02 -2.5422158011703D-02
3  2.0000000000000D-02 -1.1099915884862D-01 -5.0766666249047D-02
4  3.0000000000000D-02 -1.6634696373409D-01 -7.5955944991329D-02
5  4.0000000000000D-02 -2.2151238604558D-01 -1.0091255512445D-01
6  5.0000000000000D-02 -2.7643421480346D-01 -1.2555926968880D-01
7  6.0000000000000D-02 -3.3105089191599D-01 -1.4981914691065D-01
8  7.0000000000000D-02 -3.8530043796664D-01 -1.7361560519479D-01
9  8.0000000000000D-02 -4.3912038621830D-01 -1.9687250054261D-01
10  9.0000000000000D-02 -4.9244772631998D-01 -2.1951420684147D-01
11  1.0000000000000D-01 -5.4521885911593D-01 -2.4146569945371D-01
12  1.1000000000000D-01 -5.9736956386329D-01 -2.6265264250685D-01
13  1.2000000000000D-01 -6.4883497905424D-01 -2.8300148026510D-01
14  1.3000000000000D-01 -6.9954959792151D-01 -3.0243953292731D-01
15  1.4000000000000D-01 -7.4944727957668D-01 -3.2089509718981D-01
16  1.5000000000000D-01 -7.9846127659668D-01 -3.3829755182750D-01
17  1.6000000000000D-01 -8.4652427973204D-01 -3.5457746860858D-01
18  1.7000000000000D-01 -8.9356848023863D-01 -3.6966672867136D-01
19  1.8000000000000D-01 -9.3952565021787D-01 -3.8349864465674D-01
20  1.9000000000000D-01 -9.8432724118991D-01 -3.9600808872177D-01
21  2.0000000000000D-01 -1.0279045008645D+00 -4.0713162642828D-01
22  2.1000000000000D-01 -1.0701886080830D+00 -4.1680765676283D-01
23  2.2000000000000D-01 -1.1111108255564D+00 -4.2497655816453D-01
24  2.3000000000000D-01 -1.1506026701070D+00 -4.3158084075095D-01
25  2.4000000000000D-01 -1.1885960996169D+00 -4.3656530446389D-01
26  2.5000000000000D-01 -1.2250237157520D+00 -4.3987720294890D-01
27  2.6000000000000D-01 -1.2598189827051D+00 -4.4146641407216D-01
28  2.7000000000000D-01 -1.2929164588515D+00 -4.4128561500736D-01
29  2.8000000000000D-01 -1.3242520418102D+00 -4.3929046327822D-01
30  2.9000000000000D-01 -1.3537632251887D+00 -4.3543978305584D-01
31  3.0000000000000D-01 -1.3813893653165D+00 -4.2969575618766D-01
32  3.1000000000000D-01 -1.4070719565882D+00 -4.2202411774082D-01
33  3.2000000000000D-01 -1.4307549136423D+00 -4.1239435554270D-01
34  3.3000000000000D-01 -1.4523848557192D+00 -4.0077991107699D-01
35  3.4000000000000D-01 -1.4719114044879D+00 -3.8715839094736D-01
36  3.5000000000000D-01 -1.4892874655875D+00 -3.7151176749358D-01
37  3.6000000000000D-01 -1.5044695315012D+00 -3.5382659733834D-01
38  3.7000000000000D-01 -1.5174179583638D+00 -3.3409422336639D-01
39  3.8000000000000D-01 -1.5280972600650D+00 -3.1231099286531D-01
40  3.9000000000000D-01 -1.5364763825204D+00 -2.8847846495466D-01
41  4.0000000000000D-01 -1.5425289709725D+00 -2.6260361722864D-01
42  4.1000000000000D-01 -1.5462336299459D+00 -2.3469905171389D-01
43  4.2000000000000D-01 -1.5475741692646D+00 -2.0478319551050D-01
44  4.3000000000000D-01 -1.5465398354526D+00 -1.7288049571913D-01
45  4.4000000000000D-01 -1.5431255267096D+00 -1.3902160728790D-01
46  4.5000000000000D-01 -1.5373319896767D+00 -1.0324357227504D-01
47  4.6000000000000D-01 -1.5291659961968D+00 -6.5589988858861D-02
48  4.7000000000000D-01 -1.5186404982715D+00 -2.6111168240158D-02
49  4.8000000000000D-01 -1.5057747594423D+00  1.5135722604458D-02
50  4.9000000000000D-01 -1.4905944524631D+00  5.8086542129418D-02
51  5.0000000000000D-01 -1.4731317678641D+00  1.0267004064962D-01
52  5.1000000000000D-01 -1.4534254429107D+00  1.4880779209782D-01
53  5.2000000000000D-01 -1.4315207819155D+00  1.9641413270363D-01
54  5.3000000000000D-01 -1.4074696832825D+00  2.4539608889534D-01
55  5.4000000000000D-01 -1.3813305794186D+00  2.9565338527534D-01
56  5.5000000000000D-01 -1.3531683746696D+00  3.4707845684356D-01
57  5.6000000000000D-01 -1.3230543713864D+00  3.9955646864491D-01
58  5.7000000000000D-01 -1.2910661108185D+00  4.5296543032597D-01
59  5.8000000000000D-01 -1.2572872482049D+00  5.0717626900071D-01
60  5.9000000000000D-01 -1.2218073381767D+00  5.6205301406432D-01
61  6.0000000000000D-01 -1.1847216277100D+00  6.1745296678934D-01
62  6.1000000000000D-01 -1.1461307999822D+00  6.7322694384798D-01
63  6.2000000000000D-01 -1.1061407013200D+00  7.2921954654572D-01
64  6.3000000000000D-01 -1.0648620066967D+00  7.8526950207547D-01
65  6.4000000000000D-01 -1.0224099158726D+00  8.4121000563015D-01
66  6.5000000000000D-01 -9.7890376949310D-01  8.9686915170910D-01
67  6.6000000000000D-01 -9.3446662667794D-01  9.5207043466136D-01
68  6.7000000000000D-01 -8.8922489281076D-01  1.0066332219869D+00
69  6.8000000000000D-01 -8.4330790689080D-01  1.0603732868466D+00
70  6.9000000000000D-01 -7.9684736350759D-01  1.1131035614567D+00
71  7.0000000000000D-01 -7.4997692157726D-01  1.1646347061813D+00
72  7.1000000000000D-01 -7.0283169560293D-01  1.2147758382331D+00
73  7.2000000000000D-01 -6.5554773523087D-01  1.2633353057479D+00
74  7.3000000000000D-01 -6.0826156059144D-01  1.3101214151153D+00
75  7.4000000000000D-01 -5.6110943161607D-01  1.3549435492610D+00
76  7.5000000000000D-01 -5.1422698490858D-01  1.3976128244727D+00
77  7.6000000000000D-01 -4.6774862641794D-01  1.4379431009170D+00
78  7.7000000000000D-01 -4.2180697556006D-01  1.4757519567076D+00
79  7.8000000000000D-01 -3.7653230905386D-01  1.5108616925897D+00
80  7.9000000000000D-01 -3.3205200718485D-01  1.5431003625874D+00
81  8.0000000000000D-01 -2.8849000532006D-01  1.5723028253588D+00
82  8.1000000000000D-01 -2.4596625350379D-01  1.5983118105429D+00
83  8.2000000000000D-01 -2.0459618695873D-01  1.6209789939434D+00
84  8.3000000000000D-01 -1.6449021029993D-01  1.6401660749804D+00
85  8.4000000000000D-01 -1.2575319824467D-01  1.6557458494510D+00
86  8.5000000000000D-01 -8.8484015567320D-02  1.6676032702812D+00
87  8.6000000000000D-01 -5.2775059008767D-02  1.6756364886154D+00
88  8.7000000000000D-01 -1.8711823802664D-02  1.6797578672874D+00
89  8.8000000000000D-01  1.3627502572804D-02  1.6798949584453D+00
90  8.9000000000000D-01  4.4172416871519D-02  1.6759914368679D+00
91  9.0000000000000D-01  7.2860444311944D-02  1.6680079803210D+00
92  9.1000000000000D-01  9.9637448181605D-02  1.6559230881666D+00
93  9.2000000000000D-01  1.2445790253854D-01  1.6397338293785D+00
94  9.3000000000000D-01  1.4728512587093D-01  1.6194565111495D+00
95  9.4000000000000D-01  1.6809147374747D-01  1.5951272594304D+00
96  9.5000000000000D-01  1.8685848870738D-01  1.5668025030558D+00
97  9.6000000000000D-01  2.0357700590988D-01  1.5345593536180D+00
98  9.7000000000000D-01  2.1824718815843D-01  1.4984958201947D+00
99  9.8000000000000D-01  2.3087840807231D-01  1.4587306755762D+00
100  9.9000000000000D-01  2.4148979956427D-01  1.4154047381452D+00
101  1.0000000000000D+00  2.5010955634659D-01  1.3686794485340D+00
102  1.0100000000000D+00  2.5677500417730D-01  1.3187370563218D+00
103  1.0200000000000D+00  2.6153242174178D-01  1.2657802381837D+00
104  1.0300000000000D+00  2.6443681489024D-01  1.2100315772980D+00
105  1.0400000000000D+00  2.6555145321242D-01  1.1517325191720D+00
106  1.0500000000000D+00  2.6494822803506D-01  1.0911439783030D+00
107  1.0600000000000D+00  2.6270660086256D-01  1.0285439146652D+00
108  1.0700000000000D+00  2.5891335995450D-01  9.6422658862874D-01
109  1.0800000000000D+00  2.5366218960258D-01  8.9850137048541D-01
110  1.0900000000000D+00  2.4705320420555D-01  8.3169160577943D-01
111  1.1000000000000D+00  2.3919257048963D-01  7.6413293558736D-01
112  1.1100000000000D+00  2.3019157364544D-01  6.9617121175803D-01
113  1.1200000000000D+00  2.2016616022986D-01  6.2816094922424D-01
114  1.1300000000000D+00  2.0923661710998D-01  5.6046457557555D-01
115  1.1400000000000D+00  1.9752626939143D-01  4.9344790330270D-01
116  1.1500000000000D+00  1.8516098710356D-01  4.2747911277878D-01
117  1.1600000000000D+00  1.7226862287376D-01  3.6292696387680D-01
118  1.1700000000000D+00  1.5897897695428D-01  3.0016081651365D-01
119  1.1800000000000D+00  1.4542071901241D-01  2.3954037541040D-01
120  1.1900000000000D+00  1.3172251737748D-01  1.8141982157388D-01
121  1.2000000000000D+00  1.1801273710382D-01  1.2614680309536D-01
122  1.2100000000000D+00  1.0441675569347D-01  7.4053565206261D-02
123  1.2200000000000D+00  9.1056155226572D-02  2.5454414207655D-02
124  1.2300000000000D+00  7.8050120752135D-02 -1.9349611403746D-02
125  1.2400000000000D+00  6.5513525577341D-02 -6.0077070123876D-02
126  1.2500000000000D+00  5.3552943215743D-02 -9.6479329619830D-02
127  1.2600000000000D+00  4.2270936159025D-02 -1.2832611386946D-01
128  1.2700000000000D+00  3.1763625990875D-02 -1.5541451201769D-01
129  1.2800000000000D+00  2.2117085088045D-02 -1.7757471247228D-01
130  1.2900000000000D+00  1.3414434535457D-02 -1.9464755310050D-01
131  1.3000000000000D+00  5.7331503190950D-03 -2.0649071874166D-01
132  1.3100000000000D+00 -8.5837765358614D-04 -2.1298725958445D-01
133  1.3200000000000D+00 -6.2945145302753D-03 -2.1403040760358D-01
134  1.3300000000000D+00 -1.0517788379733D-02 -2.0953690084280D-01
135  1.3400000000000D+00 -1.3479151593214D-02 -1.9944805662449D-01
136  1.3500000000000D+00 -1.5132037354305D-02 -1.8371483053537D-01
137  1.3600000000000D+00 -1.5441844728297D-02 -1.6232182971702D-01
138  1.3700000000000D+00 -1.4379195219810D-02 -1.3527041488870D-01
139  1.3800000000000D+00 -1.1919558725879D-02 -1.0257770096159D-01
140  1.3900000000000D+00 -7.7590997552352D-03 -6.2287047180449D-02
141  1.4000000000000D+00 -2.0731122287437D-03 -1.5733293567553D-02
142  1.4100000000000D+00  5.2122961630954D-04  4.6070834544692D-03
143  1.4200000000000D+00  9.7096819824028D-05  8.2328856074002D-04
144  1.4300000000000D+00  6.0002276993799D-06  1.6296900568799D-05
145  1.4400000000000D+00  0.0000000000000D+00  0.0000000000000D+00
146  1.4500000000000D+00  0.0000000000000D+00  0.0000000000000D+00
147  1.4600000000000D+00  0.0000000000000D+00  0.0000000000000D+00
148  1.4700000000000D+00  0.0000000000000D+00  0.0000000000000D+00
149  1.4800000000000D+00  0.0000000000000D+00  0.0000000000000D+00
150  1.4900000000000D+00  0.0000000000000D+00  0.0000000000000D+00
151  1.5000000000000D+00  0.0000000000000D+00  0.0000000000000D+00
152  1.5100000000000D+00  0.0000000000000D+00  0.0000000000000D+00
153  1.5200000000000D+00  0.0000000000000D+00  0.0000000000000D+00
154  1.5300000000000D+00  0.0000000000000D+00  0.0000000000000D+00
155  1.5400000000000D+00  0.0000000000000D+00  0.0000000000000D+00
156  1.5500000000000D+00  0.0000000000000D+00  0.0000000000000D+00
157  1.5600000000000D+00  0.0000000000000D+00  0.0000000000000D+00
158  1.5700000000000D+00  0.0000000000000D+00  0.0000000000000D+00
159  1.5800000000000D+00  0.0000000000000D+00  0.0000000000000D+00
160  1.5900000000000D+00  0.0000000000000D+00  0.0000000000000D+00
161  1.6000000000000D+00  0.0000000000000D+00  0.0000000000000D+00
162  1.6100000000000D+00  0.0000000000000D+00  0.0000000000000D+00
163  1.6200000000000D+00  0.0000000000000D+00  0.0000000000000D+00
164  1.6300000000000D+00  0.0000000000000D+00  0.0000000000000D+00
165  1.6400000000000D+00  0.0000000000000D+00  0.0000000000000D+00
166  1.6500000000000D+00  0.0000000000000D+00  0.0000000000000D+00
167  1.6600000000000D+00  0.0000000000000D+00  0.0000000000000D+00
168  1.6700000000000D+00  0.0000000000000D+00  0.0000000000000D+00
169  1.6800000000000D+00  0.0000000000000D+00  0.0000000000000D+00
170  1.6900000000000D+00  0.0000000000000D+00  0.0000000000000D+00
171  1.7000000000000D+00  0.0000000000000D+00  0.0000000000000D+00
172  1.7100000000000D+00  0.0000000000000D+00  0.0000000000000D+00
173  1.7200000000000D+00  0.0000000000000D+00  0.0000000000000D+00
174  1.7300000000000D+00  0.0000000000000D+00  0.0000000000000D+00
175  1.7400000000000D+00  0.0000000000000D+00  0.0000000000000D+00
176  1.7500000000000D+00  0.0000000000000D+00  0.0000000000000D+00
177  1.7600000000000D+00  0.0000000000000D+00  0.0000000000000D+00
178  1.7700000000000D+00  0.0000000000000D+00  0.0000000000000D+00
179  1.7800000000000D+00  0.0000000000000D+00  0.0000000000000D+00
180  1.7900000000000D+00  0.0000000000000D+00  0.0000000000000D+00
181  1.8000000000000D+00  0.0000000000000D+00  0.0000000000000D+00
182  1.8100000000000D+00  0.0000000000000D+00  0.0000000000000D+00
183  1.8200000000000D+00  0.0000000000000D+00  0.0000000000000D+00
184  1.8300000000000D+00  0.0000000000000D+00  0.0000000000000D+00
185  1.8400000000000D+00  0.0000000000000D+00  0.0000000000000D+00
186  1.8500000000000D+00  0.0000000000000D+00  0.0000000000000D+00
187  1.8600000000000D+00  0.0000000000000D+00  0.0000000000000D+00
188  1.8700000000000D+00  0.0000000000000D+00  0.0000000000000D+00
189  1.8800000000000D+00  0.0000000000000D+00  0.0000000000000D+00
190  1.8900000000000D+00  0.0000000000000D+00  0.0000000000000D+00
191  1.9000000000000D+00  0.0000000000000D+00  0.0000000000000D+00
192  1.9100000000000D+00  0.0000000000000D+00  0.0000000000000D+00
193  1.9200000000000D+00  0.0000000000000D+00  0.0000000000000D+00
194  1.9300000000000D+00  0.0000000000000D+00  0.0000000000000D+00
195  1.9400000000000D+00  0.0000000000000D+00  0.0000000000000D+00
196  1.9500000000000D+00  0.0000000000000D+00  0.0000000000000D+00
197  1.9600000000000D+00  0.0000000000000D+00  0.0000000000000D+00
198  1.9700000000000D+00  0.0000000000000D+00  0.0000000000000D+00
199  1.9800000000000D+00  0.0000000000000D+00  0.0000000000000D+00
200  1.9900000000000D+00  0.0000000000000D+00  0.0000000000000D+00
201  2.0000000000000D+00  0.0000000000000D+00  0.0000000000000D+00
202  2.0100000000000D+00  0.0000000000000D+00  0.0000000000000D+00
203  2.0200000000000D+00  0.0000000000000D+00  0.0000000000000D+00
204  2.0300000000000D+00  0.0000000000000D+00  0.0000000000000D+00
205  2.0400000000000D+00  0.0000000000000D+00  0.0000000000000D+00
206  2.0500000000000D+00  0.0000000000000D+00  0.0000000000000D+00
207  2.0600000000000D+00  0.0000000000000D+00  0.0000000000000D+00
208  2.0700000000000D+00  0.0000000000000D+00  0.0000000000000D+00
209  2.0800000000000D+00  0.0000000000000D+00  0.0000000000000D+00
210  2.0900000000000D+00  0.0000000000000D+00  0.0000000000000D+00
211  2.1000000000000D+00  0.0000000000000D+00  0.0000000000000D+00
212  2.1100000000000D+00  0.0000000000000D+00  0.0000000000000D+00
213  2.1200000000000D+00  0.0000000000000D+00  0.0000000000000D+00
214  2.1300000000000D+00  0.0000000000000D+00  0.0000000000000D+00
215  2.1400000000000D+00  0.0000000000000D+00  0.0000000000000D+00
216  2.1500000000000D+00  0.0000000000000D+00  0.0000000000000D+00
217  2.1600000000000D+00  0.0000000000000D+00  0.0000000000000D+00
218  2.1700000000000D+00  0.0000000000000D+00  0.0000000000000D+00
219  2.1800000000000D+00  0.0000000000000D+00  0.0000000000000D+00
220  2.1900000000000D+00  0.0000000000000D+00  0.0000000000000D+00
221  2.2000000000000D+00  0.0000000000000D+00  0.0000000000000D+00
222  2.2100000000000D+00  0.0000000000000D+00  0.0000000000000D+00
223  2.2200000000000D+00  0.0000000000000D+00  0.0000000000000D+00
224  2.2300000000000D+00  0.0000000000000D+00  0.0000000000000D+00
225  2.2400000000000D+00  0.0000000000000D+00  0.0000000000000D+00
226  2.2500000000000D+00  0.0000000000000D+00  0.0000000000000D+00
227  2.2600000000000D+00  0.0000000000000D+00  0.0000000000000D+00
228  2.2700000000000D+00  0.0000000000000D+00  0.0000000000000D+00
229  2.2800000000000D+00  0.0000000000000D+00  0.0000000000000D+00
230  2.2900000000000D+00  0.0000000000000D+00  0.0000000000000D+00
231  2.3000000000000D+00  0.0000000000000D+00  0.0000000000000D+00
232  2.3100000000000D+00  0.0000000000000D+00  0.0000000000000D+00
233  2.3200000000000D+00  0.0000000000000D+00  0.0000000000000D+00
234  2.3300000000000D+00  0.0000000000000D+00  0.0000000000000D+00
235  2.3400000000000D+00  0.0000000000000D+00  0.0000000000000D+00
236  2.3500000000000D+00  0.0000000000000D+00  0.0000000000000D+00
237  2.3600000000000D+00  0.0000000000000D+00  0.0000000000000D+00
238  2.3700000000000D+00  0.0000000000000D+00  0.0000000000000D+00
239  2.3800000000000D+00  0.0000000000000D+00  0.0000000000000D+00
240  2.3900000000000D+00  0.0000000000000D+00  0.0000000000000D+00
241  2.4000000000000D+00  0.0000000000000D+00  0.0000000000000D+00
242  2.4100000000000D+00  0.0000000000000D+00  0.0000000000000D+00
243  2.4200000000000D+00  0.0000000000000D+00  0.0000000000000D+00
244  2.4300000000000D+00  0.0000000000000D+00  0.0000000000000D+00
245  2.4400000000000D+00  0.0000000000000D+00  0.0000000000000D+00
246  2.4500000000000D+00  0.0000000000000D+00  0.0000000000000D+00
247  2.4600000000000D+00  0.0000000000000D+00  0.0000000000000D+00
248  2.4700000000000D+00  0.0000000000000D+00  0.0000000000000D+00
249  2.4800000000000D+00  0.0000000000000D+00  0.0000000000000D+00
250  2.4900000000000D+00  0.0000000000000D+00  0.0000000000000D+00
251  2.5000000000000D+00  0.0000000000000D+00  0.0000000000000D+00
252  2.5100000000000D+00  0.0000000000000D+00  0.0000000000000D+00
253  2.5200000000000D+00  0.0000000000000D+00  0.0000000000000D+00
254  2.5300000000000D+00  0.0000000000000D+00  0.0000000000000D+00
255  2.5400000000000D+00  0.0000000000000D+00  0.0000000000000D+00
256  2.5500000000000D+00  0.0000000000000D+00  0.0000000000000D+00
257  2.5600000000000D+00  0.0000000000000D+00  0.0000000000000D+00
258  2.5700000000000D+00  0.0000000000000D+00  0.0000000000000D+00
259  2.5800000000000D+00  0.0000000000000D+00  0.0000000000000D+00
260  2.5900000000000D+00  0.0000000000000D+00  0.0000000000000D+00
261  2.6000000000000D+00  0.0000000000000D+00  0.0000000000000D+00
262  2.6100000000000D+00  0.0000000000000D+00  0.0000000000000D+00
263  2.6200000000000D+00  0.0000000000000D+00  0.0000000000000D+00
264  2.6300000000000D+00  0.0000000000000D+00  0.0000000000000D+00
265  2.6400000000000D+00  0.0000000000000D+00  0.0000000000000D+00
266  2.6500000000000D+00  0.0000000000000D+00  0.0000000000000D+00
267  2.6600000000000D+00  0.0000000000000D+00  0.0000000000000D+00
268  2.6700000000000D+00  0.0000000000000D+00  0.0000000000000D+00
269  2.6800000000000D+00  0.0000000000000D+00  0.0000000000000D+00
270  2.6900000000000D+00  0.0000000000000D+00  0.0000000000000D+00
271  2.7000000000000D+00  0.0000000000000D+00  0.0000000000000D+00
272  2.7100000000000D+00  0.0000000000000D+00  0.0000000000000D+00
273  2.7200000000000D+00  0.0000000000000D+00  0.0000000000000D+00
274  2.7300000000000D+00  0.0000000000000D+00  0.0000000000000D+00
275  2.7400000000000D+00  0.0000000000000D+00  0.0000000000000D+00
276  2.7500000000000D+00  0.0000000000000D+00  0.0000000000000D+00
277  2.7600000000000D+00  0.0000000000000D+00  0.0000000000000D+00
278  2.7700000000000D+00  0.0000000000000D+00  0.0000000000000D+00
279  2.7800000000000D+00  0.0000000000000D+00  0.0000000000000D+00
280  2.7900000000000D+00  0.0000000000000D+00  0.0000000000000D+00
281  2.8000000000000D+00  0.0000000000000D+00  0.0000000000000D+00
282  2.8100000000000D+00  0.0000000000000D+00  0.0000000000000D+00
283  2.8200000000000D+00  0.0000000000000D+00  0.0000000000000D+00
284  2.8300000000000D+00  0.0000000000000D+00  0.0000000000000D+00
285  2.8400000000000D+00  0.0000000000000D+00  0.0000000000000D+00
286  2.8500000000000D+00  0.0000000000000D+00  0.0000000000000D+00
287  2.8600000000000D+00  0.0000000000000D+00  0.0000000000000D+00
288  2.8700000000000D+00  0.0000000000000D+00  0.0000000000000D+00
289  2.8800000000000D+00  0.0000000000000D+00  0.0000000000000D+00
290  2.8900000000000D+00  0.0000000000000D+00  0.0000000000000D+00
291  2.9000000000000D+00  0.0000000000000D+00  0.0000000000000D+00
292  2.9100000000000D+00  0.0000000000000D+00  0.0000000000000D+00
293  2.9200000000000D+00  0.0000000000000D+00  0.0000000000000D+00
294  2.9300000000000D+00  0.0000000000000D+00  0.0000000000000D+00
295  2.9400000000000D+00  0.0000000000000D+00  0.0000000000000D+00
296  2.9500000000000D+00  0.0000000000000D+00  0.0000000000000D+00
297  2.9600000000000D+00  0.0000000000000D+00  0.0000000000000D+00
298  2.9700000000000D+00  0.0000000000000D+00  0.0000000000000D+00
299  2.9800000000000D+00  0.0000000000000D+00  0.0000000000000D+00
300  2.9900000000000D+00  0.0000000000000D+00  0.0000000000000D+00
301  3.0000000000000D+00  0.0000000000000D+00  0.0000000000000D+00
302  3.0100000000000D+00  0.0000000000000D+00  0.0000000000000D+00
303  3.0200000000000D+00  0.0000000000000D+00  0.0000000000000D+00
304  3.0300000000000D+00  0.0000000000000D+00  0.0000000000000D+00
305  3.0400000000000D+00  0.0000000000000D+00  0.0000000000000D+00
306  3.0500000000000D+00  0.0000000000000D+00  0.0000000000000D+00
307  3.0600000000000D+00  0.0000000000000D+00  0.0000000000000D+00
308  3.0700000000000D+00  0.0000000000000D+00  0.0000000000000D+00
309  3.0800000000000D+00  0.0000000000000D+00  0.0000000000000D+00
310  3.0900000000000D+00  0.0000000000000D+00  0.0000000000000D+00
311  3.1000000000000D+00  0.0000000000000D+00  0.0000000000000D+00
312  3.1100000000000D+00  0.0000000000000D+00  0.0000000000000D+00
313  3.1200000000000D+00  0.0000000000000D+00  0.0000000000000D+00
314  3.1300000000000D+00  0.0000000000000D+00  0.0000000000000D+00
315  3.1400000000000D+00  0.0000000000000D+00  0.0000000000000D+00
316  3.1500000000000D+00  0.0000000000000D+00  0.0000000000000D+00
317  3.1600000000000D+00  0.0000000000000D+00  0.0000000000000D+00
318  3.1700000000000D+00  0.0000000000000D+00  0.0000000000000D+00
319  3.1800000000000D+00  0.0000000000000D+00  0.0000000000000D+00
320  3.1900000000000D+00  0.0000000000000D+00  0.0000000000000D+00
321  3.2000000000000D+00  0.0000000000000D+00  0.0000000000000D+00
322  3.2100000000000D+00  0.0000000000000D+00  0.0000000000000D+00
323  3.2200000000000D+00  0.0000000000000D+00  0.0000000000000D+00
324  3.2300000000000D+00  0.0000000000000D+00  0.0000000000000D+00
325  3.2400000000000D+00  0.0000000000000D+00  0.0000000000000D+00
326  3.2500000000000D+00  0.0000000000000D+00  0.0000000000000D+00
327  3.2600000000000D+00  0.0000000000000D+00  0.0000000000000D+00
328  3.2700000000000D+00  0.0000000000000D+00  0.0000000000000D+00
329  3.2800000000000D+00  0.0000000000000D+00  0.0000000000000D+00
330  3.2900000000000D+00  0.0000000000000D+00  0.0000000000000D+00
331  3.3000000000000D+00  0.0000000000000D+00  0.0000000000000D+00
332  3.3100000000000D+00  0.0000000000000D+00  0.0000000000000D+00
333  3.3200000000000D+00  0.0000000000000D+00  0.0000000000000D+00
334  3.3300000000000D+00  0.0000000000000D+00  0.0000000000000D+00
335  3.3400000000000D+00  0.0000000000000D+00  0.0000000000000D+00
336  3.3500000000000D+00  0.0000000000000D+00  0.0000000000000D+00
337  3.3600000000000D+00  0.0000000000000D+00  0.0000000000000D+00
338  3.3700000000000D+00  0.0000000000000D+00  0.0000000000000D+00
339  3.3800000000000D+00  0.0000000000000D+00  0.0000000000000D+00
340  3.3900000000000D+00  0.0000000000000D+00  0.0000000000000D+00
341  3.4000000000000D+00  0.0000000000000D+00  0.0000000000000D+00
342  3.4100000000000D+00  0.0000000000000D+00  0.0000000000000D+00
343  3.4200000000000D+00  0.0000000000000D+00  0.0000000000000D+00
344  3.4300000000000D+00  0.0000000000000D+00  0.0000000000000D+00
345  3.4400000000000D+00  0.0000000000000D+00  0.0000000000000D+00
346  3.4500000000000D+00  0.0000000000000D+00  0.0000000000000D+00
347  3.4600000000000D+00  0.0000000000000D+00  0.0000000000000D+00
348  3.4700000000000D+00  0.0000000000000D+00  0.0000000000000D+00
349  3.4800000000000D+00  0.0000000000000D+00  0.0000000000000D+00
350  3.4900000000000D+00  0.0000000000000D+00  0.0000000000000D+00
351  3.5000000000000D+00  0.0000000000000D+00  0.0000000000000D+00
352  3.5100000000000D+00  0.0000000000000D+00  0.0000000000000D+00
353  3.5200000000000D+00  0.0000000000000D+00  0.0000000000000D+00
354  3.5300000000000D+00  0.0000000000000D+00  0.0000000000000D+00
355  3.5400000000000D+00  0.0000000000000D+00  0.0000000000000D+00
356  3.5500000000000D+00  0.0000000000000D+00  0.0000000000000D+00
357  3.5600000000000D+00  0.0000000000000D+00  0.0000000000000D+00
358  3.5700000000000D+00  0.0000000000000D+00  0.0000000000000D+00
359  3.5800000000000D+00  0.0000000000000D+00  0.0000000000000D+00
360  3.5900000000000D+00  0.0000000000000D+00  0.0000000000000D+00
361  3.6000000000000D+00  0.0000000000000D+00  0.0000000000000D+00
362  3.6100000000000D+00  0.0000000000000D+00  0.0000000000000D+00
363  3.6200000000000D+00  0.0000000000000D+00  0.0000000000000D+00
364  3.6300000000000D+00  0.0000000000000D+00  0.0000000000000D+00
365  3.6400000000000D+00  0.0000000000000D+00  0.0000000000000D+00
366  3.6500000000000D+00  0.0000000000000D+00  0.0000000000000D+00
367  3.6600000000000D+00  0.0000000000000D+00  0.0000000000000D+00
368  3.6700000000000D+00  0.0000000000000D+00  0.0000000000000D+00
369  3.6800000000000D+00  0.0000000000000D+00  0.0000000000000D+00
370  3.6900000000000D+00  0.0000000000000D+00  0.0000000000000D+00
371  3.7000000000000D+00  0.0000000000000D+00  0.0000000000000D+00
372  3.7100000000000D+00  0.0000000000000D+00  0.0000000000000D+00
373  3.7200000000000D+00  0.0000000000000D+00  0.0000000000000D+00
374  3.7300000000000D+00  0.0000000000000D+00  0.0000000000000D+00
375  3.7400000000000D+00  0.0000000000000D+00  0.0000000000000D+00
376  3.7500000000000D+00  0.0000000000000D+00  0.0000000000000D+00
377  3.7600000000000D+00  0.0000000000000D+00  0.0000000000000D+00
378  3.7700000000000D+00  0.0000000000000D+00  0.0000000000000D+00
379  3.7800000000000D+00  0.0000000000000D+00  0.0000000000000D+00
380  3.7900000000000D+00  0.0000000000000D+00  0.0000000000000D+00
381  3.8000000000000D+00  0.0000000000000D+00  0.0000000000000D+00
382  3.8100000000000D+00  0.0000000000000D+00  0.0000000000000D+00
383  3.8200000000000D+00  0.0000000000000D+00  0.0000000000000D+00
384  3.8300000000000D+00  0.0000000000000D+00  0.0000000000000D+00
385  3.8400000000000D+00  0.0000000000000D+00  0.0000000000000D+00
386  3.8500000000000D+00  0.0000000000000D+00  0.0000000000000D+00
387  3.8600000000000D+00  0.0000000000000D+00  0.0000000000000D+00
388  3.8700000000000D+00  0.0000000000000D+00  0.0000000000000D+00
389  3.8800000000000D+00  0.0000000000000D+00  0.0000000000000D+00
390  3.8900000000000D+00  0.0000000000000D+00  0.0000000000000D+00
391  3.9000000000000D+00  0.0000000000000D+00  0.0000000000000D+00
392  3.9100000000000D+00  0.0000000000000D+00  0.0000000000000D+00
393  3.9200000000000D+00  0.0000000000000D+00  0.0000000000000D+00
394  3.9300000000000D+00  0.0000000000000D+00  0.0000000000000D+00
395  3.9400000000000D+00  0.0000000000000D+00  0.0000000000000D+00
396  3.9500000000000D+00  0.0000000000000D+00  0.0000000000000D+00
397  3.9600000000000D+00  0.0000000000000D+00  0.0000000000000D+00
398  3.9700000000000D+00  0.0000000000000D+00  0.0000000000000D+00
399  3.9800000000000D+00  0.0000000000000D+00  0.0000000000000D+00
400  3.9900000000000D+00  0.0000000000000D+00  0.0000000000000D+00
401  4.0000000000000D+00  0.0000000000000D+00  0.0000000000000D+00
402  4.0100000000000D+00  0.0000000000000D+00  0.0000000000000D+00
403  4.0200000000000D+00  0.0000000000000D+00  0.0000000000000D+00
404  4.0300000000000D+00  0.0000000000000D+00  0.0000000000000D+00
405  4.0400000000000D+00  0.0000000000000D+00  0.0000000000000D+00
406  4.0500000000000D+00  0.0000000000000D+00  0.0000000000000D+00
407  4.0600000000000D+00  0.0000000000000D+00  0.0000000000000D+00
408  4.0700000000000D+00  0.0000000000000D+00  0.0000000000000D+00
409  4.0800000000000D+00  0.0000000000000D+00  0.0000000000000D+00
410  4.0900000000000D+00  0.0000000000000D+00  0.0000000000000D+00
411  4.1000000000000D+00  0.0000000000000D+00  0.0000000000000D+00
412  4.1100000000000D+00  0.0000000000000D+00  0.0000000000000D+00
413  4.1200000000000D+00  0.0000000000000D+00  0.0000000000000D+00
414  4.1300000000000D+00  0.0000000000000D+00  0.0000000000000D+00
415  4.1400000000000D+00  0.0000000000000D+00  0.0000000000000D+00
416  4.1500000000000D+00  0.0000000000000D+00  0.0000000000000D+00
417  4.1600000000000D+00  0.0000000000000D+00  0.0000000000000D+00
418  4.1700000000000D+00  0.0000000000000D+00  0.0000000000000D+00
419  4.1800000000000D+00  0.0000000000000D+00  0.0000000000000D+00
420  4.1900000000000D+00  0.0000000000000D+00  0.0000000000000D+00
421  4.2000000000000D+00  0.0000000000000D+00  0.0000000000000D+00
422  4.2100000000000D+00  0.0000000000000D+00  0.0000000000000D+00
423  4.2200000000000D+00  0.0000000000000D+00  0.0000000000000D+00
424  4.2300000000000D+00  0.0000000000000D+00  0.0000000000000D+00
425  4.2400000000000D+00  0.0000000000000D+00  0.0000000000000D+00
426  4.2500000000000D+00  0.0000000000000D+00  0.0000000000000D+00
427  4.2600000000000D+00  0.0000000000000D+00  0.0000000000000D+00
428  4.2700000000000D+00  0.0000000000000D+00  0.0000000000000D+00
429  4.2800000000000D+00  0.0000000000000D+00  0.0000000000000D+00
430  4.2900000000000D+00  0.0000000000000D+00  0.0000000000000D+00
431  4.3000000000000D+00  0.0000000000000D+00  0.0000000000000D+00
432  4.3100000000000D+00  0.0000000000000D+00  0.0000000000000D+00
433  4.3200000000000D+00  0.0000000000000D+00  0.0000000000000D+00
434  4.3300000000000D+00  0.0000000000000D+00  0.0000000000000D+00
435  4.3400000000000D+00  0.0000000000000D+00  0.0000000000000D+00
436  4.3500000000000D+00  0.0000000000000D+00  0.0000000000000D+00
437  4.3600000000000D+00  0.0000000000000D+00  0.0000000000000D+00
438  4.3700000000000D+00  0.0000000000000D+00  0.0000000000000D+00
439  4.3800000000000D+00  0.0000000000000D+00  0.0000000000000D+00
440  4.3900000000000D+00  0.0000000000000D+00  0.0000000000000D+00
441  4.4000000000000D+00  0.0000000000000D+00  0.0000000000000D+00
442  4.4100000000000D+00  0.0000000000000D+00  0.0000000000000D+00
443  4.4200000000000D+00  0.0000000000000D+00  0.0000000000000D+00
444  4.4300000000000D+00  0.0000000000000D+00  0.0000000000000D+00