Mo    ONCVPSP  r_core=  1.51  1.56  1.51
42.0000     14.0000      140908    zatom,zion,pspd
8    11     2     4   601     0    pspcod,pspxc,lmax,lloc,mmax,r2well
6.00000000  0.30000000  0.00000000    rchrg fchrg qchrg
2     2     2     0     0    nproj
0                 extension_switch
0                         1.1601281194758D+01  9.2634320423752D-01
1  0.0000000000000D+00 -0.0000000000000D+00  0.0000000000000D+00
2  1.0000000000000D-02 -6.5932923299966D-02  3.7730098905556D-02
3  2.0000000000000D-02 -1.3171880678171D-01  7.5164546765149D-02
4  3.0000000000000D-02 -1.9721140912610D-01  1.1201083958292D-01
5  4.0000000000000D-02 -2.6226607705974D-01  1.4798272572672D-01
6  5.0000000000000D-02 -3.2674051711712D-01  1.8280322833418D-01
7  6.0000000000000D-02 -3.9049554102551D-01  2.1620754476564D-01
8  7.0000000000000D-02 -4.5339577647395D-01  2.4794578472212D-01
9  8.0000000000000D-02 -5.1531033549576D-01  2.7778551084653D-01
10  9.0000000000000D-02 -5.7611343325624D-01  3.0551404827683D-01
11  1.0000000000000D-01 -6.3568495072383D-01  3.3094053283225D-01
12  1.1000000000000D-01 -6.9391093542896D-01  3.5389767095695D-01
13  1.2000000000000D-01 -7.5068403537819D-01  3.7424318858268D-01
14  1.3000000000000D-01 -8.0590386205409D-01  3.9186095018381D-01
15  1.4000000000000D-01 -8.5947727948108D-01  4.0666173410177D-01
16  1.5000000000000D-01 -9.1131861712699D-01  4.1858365427275D-01
17  1.6000000000000D-01 -9.6134980576001D-01  4.2759222429119D-01
18  1.7000000000000D-01 -1.0095004360049D+00  4.3368006357437D-01
19  1.8000000000000D-01 -1.0557077408675D+00  4.3686625146879D-01
20  1.9000000000000D-01 -1.0999165040751D+00  4.3719533868668D-01
21  2.0000000000000D-01 -1.1420788972864D+00  4.3473603153229D-01
22  2.1000000000000D-01 -1.1821542502830D+00  4.2957956796169D-01
23  2.2000000000000D-01 -1.2201087589823D+00  4.2183780965084D-01
24  2.3000000000000D-01 -1.2559151368693D+00  4.1164107628300D-01
25  2.4000000000000D-01 -1.2895522165437D+00  3.9913575532038D-01
26  2.5000000000000D-01 -1.3210045090084D+00  3.8448172415795D-01
27  2.6000000000000D-01 -1.3502617261730D+00  3.6784960784700D-01
28  2.7000000000000D-01 -1.3773182785876D+00  3.4941793654285D-01
29  2.8000000000000D-01 -1.4021727538598D+00  3.2937022368316D-01
30  2.9000000000000D-01 -1.4248273851299D+00  3.0789201193262D-01
31  3.0000000000000D-01 -1.4452875189829D+00  2.8516793297176D-01
32  3.1000000000000D-01 -1.4635610913134D+00  2.6137882211126D-01
33  3.2000000000000D-01 -1.4796581200801D+00  2.3669893155148D-01
34  3.3000000000000D-01 -1.4935902284557D+00  2.1129331222128D-01
35  3.4000000000000D-01 -1.5053701826827D+00  1.8531526949082D-01
36  3.5000000000000D-01 -1.5150115023699D+00  1.5890421450537D-01
37  3.6000000000000D-01 -1.5225280800360D+00  1.3218354864624D-01
38  3.7000000000000D-01 -1.5279338936098D+00  1.0525905067916D-01
39  3.8000000000000D-01 -1.5312427426691D+00  7.8217372787464D-02
40  3.9000000000000D-01 -1.5324680694510D+00  5.1124987859162D-02
41  4.0000000000000D-01 -1.5316228428624D+00  2.4027464515681D-02
42  4.1000000000000D-01 -1.5287195071960D+00 -3.0509207185248D-03
43  4.2000000000000D-01 -1.5237700032524D+00 -3.0107189519850D-02
44  4.3000000000000D-01 -1.5167858601049D+00 -5.7159293963084D-02
45  4.4000000000000D-01 -1.5077783564279D+00 -8.4245377725445D-02
46  4.5000000000000D-01 -1.4967587492955D+00 -1.1142267392343D-01
47  4.6000000000000D-01 -1.4837385673172D+00 -1.3876605208401D-01
48  4.7000000000000D-01 -1.4687299638260D+00 -1.6636623221148D-01
49  4.8000000000000D-01 -1.4517461245087D+00 -1.9432769040812D-01
50  4.9000000000000D-01 -1.4328017154313D+00 -2.2276632102438D-01
51  5.0000000000000D-01 -1.4119133947359D+00 -2.5180674789514D-01
52  5.1000000000000D-01 -1.3891003353832D+00 -2.8157951327732D-01
53  5.2000000000000D-01 -1.3643847583656D+00 -3.1221818044088D-01
54  5.3000000000000D-01 -1.3377925433625D+00 -3.4385598640372D-01
55  5.4000000000000D-01 -1.3093537744646D+00 -3.7662275898461D-01
56  5.5000000000000D-01 -1.2791032875604D+00 -4.1064178257709D-01
57  5.6000000000000D-01 -1.2470813081864D+00 -4.4602609328478D-01
58  5.7000000000000D-01 -1.2133338392843D+00 -4.8287606286363D-01
59  5.8000000000000D-01 -1.1779133355796D+00 -5.2127530905575D-01
60  5.9000000000000D-01 -1.1408789529202D+00 -5.6128888781126D-01
61  6.0000000000000D-01 -1.1022971159647D+00 -6.0295956271796D-01
62  6.1000000000000D-01 -1.0622417354136D+00 -6.4630596911048D-01
63  6.2000000000000D-01 -1.0207944513297D+00 -6.9132051621778D-01
64  6.3000000000000D-01 -9.7804494529236D-01 -7.3796665653146D-01
65  6.4000000000000D-01 -9.3409083805901D-01 -7.8617859800088D-01
66  6.5000000000000D-01 -8.8903779157956D-01 -8.3585952452181D-01
67  6.6000000000000D-01 -8.4299943727488D-01 -8.8688063534273D-01
68  6.7000000000000D-01 -7.9609707350764D-01 -9.3908161026871D-01
69  6.8000000000000D-01 -7.4845938077184D-01 -9.9227078988690D-01
70  6.9000000000000D-01 -7.0022209150610D-01 -1.0462249912248D+00
71  7.0000000000000D-01 -6.5152738927028D-01 -1.1006914427131D+00
72  7.1000000000000D-01 -6.0252331695555D-01 -1.1553892175944D+00
73  7.2000000000000D-01 -5.5336307295916D-01 -1.2100112113147D+00
74  7.3000000000000D-01 -5.0420424580026D-01 -1.2642266306409D+00
75  7.4000000000000D-01 -4.5520783412069D-01 -1.3176836755930D+00
76  7.5000000000000D-01 -4.0653734626567D-01 -1.3700130854665D+00
77  7.6000000000000D-01 -3.5835775014560D-01 -1.4208316125462D+00
78  7.7000000000000D-01 -3.1083437771532D-01 -1.4697459167613D+00
79  7.8000000000000D-01 -2.6413178043204D-01 -1.5163567213244D+00
80  7.9000000000000D-01 -2.1841254761210D-01 -1.5602631796451D+00
81  8.0000000000000D-01 -1.7383610038248D-01 -1.6010674003071D+00
82  8.1000000000000D-01 -1.3055747449229D-01 -1.6383790740121D+00
83  8.2000000000000D-01 -8.8726105648215D-02 -1.6718201442708D+00
84  8.3000000000000D-01 -4.8484631264646D-02 -1.7010294622640D+00
85  8.4000000000000D-01 -9.9677225778415D-03 -1.7256673656918D+00
86  8.5000000000000D-01  2.6699039031832D-02 -1.7454201215648D+00
87  8.6000000000000D-01  6.1400227929279D-02 -1.7600041737359D+00
88  8.7000000000000D-01  9.4031569162096D-02 -1.7691701375140D+00
89  8.8000000000000D-01  1.2450084984925D-01 -1.7727064859112D+00
90  8.9000000000000D-01  1.5272873514073D-01 -1.7704428749624D+00
91  9.0000000000000D-01  1.7864947773752D-01 -1.7622530591244D+00
92  9.1000000000000D-01  2.0221151099148D-01 -1.7480573520424D+00
93  9.2000000000000D-01  2.2337791680691D-01 -1.7278245930087D+00
94  9.3000000000000D-01  2.4212676095316D-01 -1.7015735852886D+00
95  9.4000000000000D-01  2.5845128998262D-01 -1.6693739792002D+00
96  9.5000000000000D-01  2.7235998574080D-01 -1.6313465804448D+00
97  9.6000000000000D-01  2.8387647545290D-01 -1.5876630726929D+00
98  9.7000000000000D-01  2.9303926105225D-01 -1.5385450251524D+00
99  9.8000000000000D-01  2.9990118164105D-01 -1.4842619001831D+00
100  9.9000000000000D-01  3.0452971551483D-01 -1.4251318856537D+00
101  1.0000000000000D+00  3.0700539519601D-01 -1.3615160353952D+00
102  1.0100000000000D+00  3.0742132837278D-01 -1.2938162206567D+00
103  1.0200000000000D+00  3.0588228814389D-01 -1.2224714948232D+00
104  1.0300000000000D+00  3.0250369827718D-01 -1.1479540264479D+00
105  1.0400000000000D+00  2.9741053499443D-01 -1.0707649061022D+00
106  1.0500000000000D+00  2.9073635323071D-01 -9.9142955742412D-01
107  1.0600000000000D+00  2.8262152169671D-01 -9.1049123812850D-01
108  1.0700000000000D+00  2.7321205127001D-01 -8.2850618459142D-01
109  1.0800000000000D+00  2.6265826405889D-01 -7.4603824793494D-01
110  1.0900000000000D+00  2.5111403517579D-01 -6.6365607547948D-01
111  1.1000000000000D+00  2.3873358305800D-01 -5.8191935916598D-01
112  1.1100000000000D+00  2.2567133655325D-01 -5.0137919940272D-01
113  1.1200000000000D+00  2.1208028615909D-01 -4.2257125826247D-01
114  1.1300000000000D+00  1.9811193485893D-01 -3.4601585446146D-01
115  1.1400000000000D+00  1.8391148838887D-01 -2.7219792518074D-01
116  1.1500000000000D+00  1.6961894873081D-01 -2.0157225585005D-01
117  1.1600000000000D+00  1.5536812418784D-01 -1.3455957568419D-01
118  1.1700000000000D+00  1.4128707560836D-01 -7.1548550650183D-02
119  1.1800000000000D+00  1.2749070854841D-01 -1.2865670725028D-02
120  1.1900000000000D+00  1.1408609923226D-01  4.1202305607254D-02
121  1.2000000000000D+00  1.0117192286446D-01  9.0410633575751D-02
122  1.2100000000000D+00  8.8833425111857D-02  1.3457661754345D-01
123  1.2200000000000D+00  7.7143171312804D-02  1.7357578873542D-01
124  1.2300000000000D+00  6.6164525000340D-02  2.0732772565566D-01
125  1.2400000000000D+00  5.5948604334506D-02  2.3580798541017D-01
126  1.2500000000000D+00  4.6530702435227D-02  2.5906095836419D-01
127  1.2600000000000D+00  3.7937600527822D-02  2.7717090697943D-01
128  1.2700000000000D+00  3.0184738184586D-02  2.9027292558696D-01
129  1.2800000000000D+00  2.3271883502517D-02  2.9856736547566D-01
130  1.2900000000000D+00  1.7191920929924D-02  3.0228655465728D-01
131  1.3000000000000D+00  1.1926936445165D-02  3.0170916864479D-01
132  1.3100000000000D+00  7.4468089801062D-03  2.9716193929444D-01
133  1.3200000000000D+00  3.7163621987582D-03  2.8899528342441D-01
134  1.3300000000000D+00  6.9070689334188D-04  2.7759747662401D-01
135  1.3400000000000D+00 -1.6816636257366D-03  2.6338001830011D-01
136  1.3500000000000D+00 -3.4561770183015D-03  2.4677323315934D-01
137  1.3600000000000D+00 -4.6944541514146D-03  2.2822389539643D-01
138  1.3700000000000D+00 -5.4597571023120D-03  2.0818328804268D-01
139  1.3800000000000D+00 -5.8186417861846D-03  1.8711541508174D-01
140  1.3900000000000D+00 -5.8367739080533D-03  1.6546648636558D-01
141  1.4000000000000D+00 -5.5811414684837D-03  1.4369032842099D-01
142  1.4100000000000D+00 -5.1162326694650D-03  1.2221788870205D-01
143  1.4200000000000D+00 -4.5029733591465D-03  1.0145738355338D-01
144  1.4300000000000D+00 -3.8027151441800D-03  8.1817540773469D-02
145  1.4400000000000D+00 -3.0659718281460D-03  6.3641187994708D-02
146  1.4500000000000D+00 -2.3450352425379D-03  4.7282002313700D-02
147  1.4600000000000D+00 -1.6808639599622D-03  3.3026701284110D-02
148  1.4700000000000D+00 -1.1089884631713D-03  2.1132483163156D-02
149  1.4800000000000D+00 -6.5847423127311D-04  1.1819550458041D-02
150  1.4900000000000D+00 -3.3983867250097D-04  5.2066270035435D-03
151  1.5000000000000D+00 -1.8295582152472D-04  1.7230993768803D-03
152  1.5100000000000D+00 -1.0378980540547D-04  2.5954351366979D-04
153  1.5200000000000D+00 -3.0358318355853D-05 -1.0300612635264D-04
154  1.5300000000000D+00  5.6823520424270D-06 -1.9654523178936D-05
155  1.5400000000000D+00  5.0827508448797D-06 -1.7580579933724D-05
156  1.5500000000000D+00  0.0000000000000D+00  0.0000000000000D+00
157  1.5600000000000D+00  0.0000000000000D+00  0.0000000000000D+00
158  1.5700000000000D+00  0.0000000000000D+00  0.0000000000000D+00
159  1.5800000000000D+00  0.0000000000000D+00  0.0000000000000D+00
160  1.5900000000000D+00  0.0000000000000D+00  0.0000000000000D+00
161  1.6000000000000D+00  0.0000000000000D+00  0.0000000000000D+00
162  1.6100000000000D+00  0.0000000000000D+00  0.0000000000000D+00
163  1.6200000000000D+00  0.0000000000000D+00  0.0000000000000D+00
164  1.6300000000000D+00  0.0000000000000D+00  0.0000000000000D+00
165  1.6400000000000D+00  0.0000000000000D+00  0.0000000000000D+00
166  1.6500000000000D+00  0.0000000000000D+00  0.0000000000000D+00
167  1.6600000000000D+00  0.0000000000000D+00  0.0000000000000D+00
168  1.6700000000000D+00  0.0000000000000D+00  0.0000000000000D+00
169  1.6800000000000D+00  0.0000000000000D+00  0.0000000000000D+00
170  1.6900000000000D+00  0.0000000000000D+00  0.0000000000000D+00
171  1.7000000000000D+00  0.0000000000000D+00  0.0000000000000D+00
172  1.7100000000000D+00  0.0000000000000D+00  0.0000000000000D+00
173  1.7200000000000D+00  0.0000000000000D+00  0.0000000000000D+00
174  1.7300000000000D+00  0.0000000000000D+00  0.0000000000000D+00
175  1.7400000000000D+00  0.0000000000000D+00  0.0000000000000D+00
176  1.7500000000000D+00  0.0000000000000D+00  0.0000000000000D+00
177  1.7600000000000D+00  0.0000000000000D+00  0.0000000000000D+00
178  1.7700000000000D+00  0.0000000000000D+00  0.0000000000000D+00
179  1.7800000000000D+00  0.0000000000000D+00  0.0000000000000D+00
180  1.7900000000000D+00  0.0000000000000D+00  0.0000000000000D+00
181  1.8000000000000D+00  0.0000000000000D+00  0.0000000000000D+00
182  1.8100000000000D+00  0.0000000000000D+00  0.0000000000000D+00
183  1.8200000000000D+00  0.0000000000000D+00  0.0000000000000D+00
184  1.8300000000000D+00  0.0000000000000D+00  0.0000000000000D+00
185  1.8400000000000D+00  0.0000000000000D+00  0.0000000000000D+00
186  1.8500000000000D+00  0.0000000000000D+00  0.0000000000000D+00
187  1.8600000000000D+00  0.0000000000000D+00  0.0000000000000D+00
188  1.8700000000000D+00  0.0000000000000D+00  0.0000000000000D+00
189  1.8800000000000D+00  0.0000000000000D+00  0.0000000000000D+00
190  1.8900000000000D+00  0.0000000000000D+00  0.0000000000000D+00
191  1.9000000000000D+00  0.0000000000000D+00  0.0000000000000D+00
192  1.9100000000000D+00  0.0000000000000D+00  0.0000000000000D+00
193  1.9200000000000D+00  0.0000000000000D+00  0.0000000000000D+00
194  1.9300000000000D+00  0.0000000000000D+00  0.0000000000000D+00
195  1.9400000000000D+00  0.0000000000000D+00  0.0000000000000D+00
196  1.9500000000000D+00  0.0000000000000D+00  0.0000000000000D+00
197  1.9600000000000D+00  0.0000000000000D+00  0.0000000000000D+00
198  1.9700000000000D+00  0.0000000000000D+00  0.0000000000000D+00
199  1.9800000000000D+00  0.0000000000000D+00  0.0000000000000D+00
200  1.9900000000000D+00  0.0000000000000D+00  0.0000000000000D+00
201  2.0000000000000D+00  0.0000000000000D+00  0.0000000000000D+00
202  2.0100000000000D+00  0.0000000000000D+00  0.0000000000000D+00
203  2.0200000000000D+00  0.0000000000000D+00  0.0000000000000D+00
204  2.0300000000000D+00  0.0000000000000D+00  0.0000000000000D+00
205  2.0400000000000D+00  0.0000000000000D+00  0.0000000000000D+00
206  2.0500000000000D+00  0.0000000000000D+00  0.0000000000000D+00
207  2.0600000000000D+00  0.0000000000000D+00  0.0000000000000D+00
208  2.0700000000000D+00  0.0000000000000D+00  0.0000000000000D+00
209  2.0800000000000D+00  0.0000000000000D+00  0.0000000000000D+00
210  2.0900000000000D+00  0.0000000000000D+00  0.0000000000000D+00
211  2.1000000000000D+00  0.0000000000000D+00  0.0000000000000D+00
212  2.1100000000000D+00  0.0000000000000D+00  0.0000000000000D+00
213  2.1200000000000D+00  0.0000000000000D+00  0.0000000000000D+00
214  2.1300000000000D+00  0.0000000000000D+00  0.0000000000000D+00
215  2.1400000000000D+00  0.0000000000000D+00  0.0000000000000D+00
216  2.1500000000000D+00  0.0000000000000D+00  0.0000000000000D+00
217  2.1600000000000D+00  0.0000000000000D+00  0.0000000000000D+00
218  2.1700000000000D+00  0.0000000000000D+00  0.0000000000000D+00
219  2.1800000000000D+00  0.0000000000000D+00  0.0000000000000D+00
220  2.1900000000000D+00  0.0000000000000D+00  0.0000000000000D+00
221  2.2000000000000D+00  0.0000000000000D+00  0.0000000000000D+00
222  2.2100000000000D+00  0.0000000000000D+00  0.0000000000000D+00
223  2.2200000000000D+00  0.0000000000000D+00  0.0000000000000D+00
224  2.2300000000000D+00  0.0000000000000D+00  0.0000000000000D+00
225  2.2400000000000D+00  0.0000000000000D+00  0.0000000000000D+00
226  2.2500000000000D+00  0.0000000000000D+00  0.0000000000000D+00
227  2.2600000000000D+00  0.0000000000000D+00  0.0000000000000D+00
228  2.2700000000000D+00  0.0000000000000D+00  0.0000000000000D+00
229  2.2800000000000D+00  0.0000000000000D+00  0.0000000000000D+00
230  2.2900000000000D+00  0.0000000000000D+00  0.0000000000000D+00
231  2.3000000000000D+00  0.0000000000000D+00  0.0000000000000D+00
232  2.3100000000000D+00  0.0000000000000D+00  0.0000000000000D+00
233  2.3200000000000D+00  0.0000000000000D+00  0.0000000000000D+00
234  2.3300000000000D+00  0.0000000000000D+00  0.0000000000000D+00
235  2.3400000000000D+00  0.0000000000000D+00  0.0000000000000D+00
236  2.3500000000000D+00  0.0000000000000D+00  0.0000000000000D+00
237  2.3600000000000D+00  0.0000000000000D+00  0.0000000000000D+00
238  2.3700000000000D+00  0.0000000000000D+00  0.0000000000000D+00
239  2.3800000000000D+00  0.0000000000000D+00  0.0000000000000D+00
240  2.3900000000000D+00  0.0000000000000D+00  0.0000000000000D+00
241  2.4000000000000D+00  0.0000000000000D+00  0.0000000000000D+00
242  2.4100000000000D+00  0.0000000000000D+00  0.0000000000000D+00
243  2.4200000000000D+00  0.0000000000000D+00  0.0000000000000D+00
244  2.4300000000000D+00  0.0000000000000D+00  0.0000000000000D+00
245  2.4400000000000D+00  0.0000000000000D+00  0.0000000000000D+00
246  2.4500000000000D+00  0.0000000000000D+00  0.0000000000000D+00
247  2.4600000000000D+00  0.0000000000000D+00  0.0000000000000D+00
248  2.4700000000000D+00  0.0000000000000D+00  0.0000000000000D+00
249  2.4800000000000D+00  0.0000000000000D+00  0.0000000000000D+00
250  2.4900000000000D+00  0.0000000000000D+00  0.0000000000000D+00
251  2.5000000000000D+00  0.0000000000000D+00  0.0000000000000D+00
252  2.5100000000000D+00  0.0000000000000D+00  0.0000000000000D+00
253  2.5200000000000D+00  0.0000000000000D+00  0.0000000000000D+00
254  2.5300000000000D+00  0.0000000000000D+00  0.0000000000000D+00
255  2.5400000000000D+00  0.0000000000000D+00  0.0000000000000D+00
256  2.5500000000000D+00  0.0000000000000D+00  0.0000000000000D+00
257  2.5600000000000D+00  0.0000000000000D+00  0.0000000000000D+00
258  2.5700000000000D+00  0.0000000000000D+00  0.0000000000000D+00
259  2.5800000000000D+00  0.0000000000000D+00  0.0000000000000D+00
260  2.5900000000000D+00  0.0000000000000D+00  0.0000000000000D+00
261  2.6000000000000D+00  0.0000000000000D+00  0.0000000000000D+00
262  2.6100000000000D+00  0.0000000000000D+00  0.0000000000000D+00
263  2.6200000000000D+00  0.0000000000000D+00  0.0000000000000D+00
264  2.6300000000000D+00  0.0000000000000D+00  0.0000000000000D+00
265  2.6400000000000D+00  0.0000000000000D+00  0.0000000000000D+00
266  2.6500000000000D+00  0.0000000000000D+00  0.0000000000000D+00
267  2.6600000000000D+00  0.0000000000000D+00  0.0000000000000D+00
268  2.6700000000000D+00  0.0000000000000D+00  0.0000000000000D+00
269  2.6800000000000D+00  0.0000000000000D+00  0.0000000000000D+00
270  2.6900000000000D+00  0.0000000000000D+00  0.0000000000000D+00
271  2.7000000000000D+00  0.0000000000000D+00  0.0000000000000D+00
272  2.7100000000000D+00  0.0000000000000D+00  0.0000000000000D+00
273  2.7200000000000D+00  0.0000000000000D+00  0.0000000000000D+00
274  2.7300000000000D+00  0.0000000000000D+00  0.0000000000000D+00
275  2.7400000000000D+00  0.0000000000000D+00  0.0000000000000D+00
276  2.7500000000000D+00  0.0000000000000D+00  0.0000000000000D+00
277  2.7600000000000D+00  0.0000000000000D+00  0.0000000000000D+00
278  2.7700000000000D+00  0.0000000000000D+00  0.0000000000000D+00
279  2.7800000000000D+00  0.0000000000000D+00  0.0000000000000D+00
280  2.7900000000000D+00  0.0000000000000D+00  0.0000000000000D+00
281  2.8000000000000D+00  0.0000000000000D+00  0.0000000000000D+00
282  2.8100000000000D+00  0.0000000000000D+00  0.0000000000000D+00
283  2.8200000000000D+00  0.0000000000000D+00  0.0000000000000D+00
284  2.8300000000000D+00  0.0000000000000D+00  0.0000000000000D+00
285  2.8400000000000D+00  0.0000000000000D+00  0.0000000000000D+00
286  2.8500000000000D+00  0.0000000000000D+00  0.0000000000000D+00
287  2.8600000000000D+00  0.0000000000000D+00  0.0000000000000D+00
288  2.8700000000000D+00  0.0000000000000D+00  0.0000000000000D+00
289  2.8800000000000D+00  0.0000000000000D+00  0.0000000000000D+00
290  2.8900000000000D+00  0.0000000000000D+00  0.0000000000000D+00
291  2.9000000000000D+00  0.0000000000000D+00  0.0000000000000D+00
292  2.9100000000000D+00  0.0000000000000D+00  0.0000000000000D+00
293  2.9200000000000D+00  0.0000000000000D+00  0.0000000000000D+00
294  2.9300000000000D+00  0.0000000000000D+00  0.0000000000000D+00
295  2.9400000000000D+00  0.0000000000000D+00  0.0000000000000D+00
296  2.9500000000000D+00  0.0000000000000D+00  0.0000000000000D+00
297  2.9600000000000D+00  0.0000000000000D+00  0.0000000000000D+00
298  2.9700000000000D+00  0.0000000000000D+00  0.0000000000000D+00
299  2.9800000000000D+00  0.0000000000000D+00  0.0000000000000D+00
300  2.9900000000000D+00  0.0000000000000D+00  0.0000000000000D+00
301  3.0000000000000D+00  0.0000000000000D+00  0.0000000000000D+00
302  3.0100000000000D+00  0.0000000000000D+00  0.0000000000000D+00
303  3.0200000000000D+00  0.0000000000000D+00  0.0000000000000D+00
304  3.0300000000000D+00  0.0000000000000D+00  0.0000000000000D+00
305  3.0400000000000D+00  0.0000000000000D+00  0.0000000000000D+00
306  3.0500000000000D+00  0.0000000000000D+00  0.0000000000000D+00
307  3.0600000000000D+00  0.0000000000000D+00  0.0000000000000D+00
308  3.0700000000000D+00  0.0000000000000D+00  0.0000000000000D+00
309  3.0800000000000D+00  0.0000000000000D+00  0.0000000000000D+00
310  3.0900000000000D+00  0.0000000000000D+00  0.0000000000000D+00
311  3.1000000000000D+00  0.0000000000000D+00  0.0000000000000D+00
312  3.1100000000000D+00  0.0000000000000D+00  0.0000000000000D+00
313  3.1200000000000D+00  0.0000000000000D+00  0.0000000000000D+00
314  3.1300000000000D+00  0.0000000000000D+00  0.0000000000000D+00
315  3.1400000000000D+00  0.0000000000000D+00  0.0000000000000D+00
316  3.1500000000000D+00  0.0000000000000D+00  0.0000000000000D+00
317  3.1600000000000D+00  0.0000000000000D+00  0.0000000000000D+00
318  3.1700000000000D+00  0.0000000000000D+00  0.0000000000000D+00
319  3.1800000000000D+00  0.0000000000000D+00  0.0000000000000D+00
320  3.1900000000000D+00  0.0000000000000D+00  0.0000000000000D+00
321  3.2000000000000D+00  0.0000000000000D+00  0.0000000000000D+00
322  3.2100000000000D+00  0.0000000000000D+00  0.0000000000000D+00
323  3.2200000000000D+00  0.0000000000000D+00  0.0000000000000D+00
324  3.2300000000000D+00  0.0000000000000D+00  0.0000000000000D+00
325  3.2400000000000D+00  0.0000000000000D+00  0.0000000000000D+00
326  3.2500000000000D+00  0.0000000000000D+00  0.0000000000000D+00
327  3.2600000000000D+00  0.0000000000000D+00  0.0000000000000D+00
328  3.2700000000000D+00  0.0000000000000D+00  0.0000000000000D+00
329  3.2800000000000D+00  0.0000000000000D+00  0.0000000000000D+00
330  3.2900000000000D+00  0.0000000000000D+00  0.0000000000000D+00
331  3.3000000000000D+00  0.0000000000000D+00  0.0000000000000D+00
332  3.3100000000000D+00  0.0000000000000D+00  0.0000000000000D+00
333  3.3200000000000D+00  0.0000000000000D+00  0.0000000000000D+00
334  3.3300000000000D+00  0.0000000000000D+00  0.0000000000000D+00
335  3.3400000000000D+00  0.0000000000000D+00  0.0000000000000D+00
336  3.3500000000000D+00  0.0000000000000D+00  0.0000000000000D+00
337  3.3600000000000D+00  0.0000000000000D+00  0.0000000000000D+00
338  3.3700000000000D+00  0.0000000000000D+00  0.0000000000000D+00
339  3.3800000000000D+00  0.0000000000000D+00  0.0000000000000D+00
340  3.3900000000000D+00  0.0000000000000D+00  0.0000000000000D+00
341  3.4000000000000D+00  0.0000000000000D+00  0.0000000000000D+00
342  3.4100000000000D+00  0.0000000000000D+00  0.0000000000000D+00
343  3.4200000000000D+00  0.0000000000000D+00  0.0000000000000D+00
344  3.4300000000000D+00  0.0000000000000D+00  0.0000000000000D+00
345  3.4400000000000D+00  0.0000000000000D+00  0.0000000000000D+00
346  3.4500000000000D+00  0.0000000000000D+00  0.0000000000000D+00
347  3.4600000000000D+00  0.0000000000000D+00  0.0000000000000D+00
348  3.4700000000000D+00  0.0000000000000D+00  0.0000000000000D+00
349  3.4800000000000D+00  0.0000000000000D+00  0.0000000000000D+00
350  3.4900000000000D+00  0.0000000000000D+00  0.0000000000000D+00
351  3.5000000000000D+00  0.0000000000000D+00  0.0000000000000D+00
352  3.5100000000000D+00  0.0000000000000D+00  0.0000000000000D+00
353  3.5200000000000D+00  0.0000000000000D+00  0.0000000000000D+00
354  3.5300000000000D+00  0.0000000000000D+00  0.0000000000000D+00
355  3.5400000000000D+00  0.0000000000000D+00  0.0000000000000D+00
356  3.5500000000000D+00  0.0000000000000D+00  0.0000000000000D+00
357  3.5600000000000D+00  0.0000000000000D+00  0.0000000000000D+00
358  3.5700000000000D+00  0.0000000000000D+00  0.0000000000000D+00
359  3.5800000000000D+00  0.0000000000000D+00  0.0000000000000D+00
360  3.5900000000000D+00  0.0000000000000D+00  0.0000000000000D+00
361  3.6000000000000D+00  0.0000000000000D+00  0.0000000000000D+00
362  3.6100000000000D+00  0.0000000000000D+00  0.0000000000000D+00
363  3.6200000000000D+00  0.0000000000000D+00  0.0000000000000D+00
364  3.6300000000000D+00  0.0000000000000D+00  0.0000000000000D+00
365  3.6400000000000D+00  0.0000000000000D+00  0.0000000000000D+00
366  3.6500000000000D+00  0.0000000000000D+00  0.0000000000000D+00
367  3.6600000000000D+00  0.0000000000000D+00  0.0000000000000D+00
368  3.6700000000000D+00  0.0000000000000D+00  0.0000000000000D+00
369  3.6800000000000D+00  0.0000000000000D+00  0.0000000000000D+00
370  3.6900000000000D+00  0.0000000000000D+00  0.0000000000000D+00
371  3.7000000000000D+00  0.0000000000000D+00  0.0000000000000D+00
372  3.7100000000000D+00  0.0000000000000D+00  0.0000000000000D+00
373  3.7200000000000D+00  0.0000000000000D+00  0.0000000000000D+00
374  3.7300000000000D+00  0.0000000000000D+00  0.0000000000000D+00
375  3.7400000000000D+00  0.0000000000000D+00  0.0000000000000D+00
376  3.7500000000000D+00  0.0000000000000D+00  0.0000000000000D+00
377  3.7600000000000D+00  0.0000000000000D+00  0.0000000000000D+00
378  3.7700000000000D+00  0.0000000000000D+00  0.0000000000000D+00
379  3.7800000000000D+00  0.0000000000000D+00  0.0000000000000D+00
380  3.7900000000000D+00  0.0000000000000D+00  0.0000000000000D+00
381  3.8000000000000D+00  0.0000000000000D+00  0.0000000000000D+00
382  3.8100000000000D+00  0.0000000000000D+00  0.0000000000000D+00
383  3.8200000000000D+00  0.0000000000000D+00  0.0000000000000D+00
384  3.8300000000000D+00  0.0000000000000D+00  0.0000000000000D+00
385  3.8400000000000D+00  0.0000000000000D+00  0.0000000000000D+00
386  3.8500000000000D+00  0.0000000000000D+00  0.0000000000000D+00
387  3.8600000000000D+00  0.0000000000000D+00  0.0000000000000D+00
388  3.8700000000000D+00  0.0000000000000D+00  0.0000000000000D+00
389  3.8800000000000D+00  0.0000000000000D+00  0.0000000000000D+00
390  3.8900000000000D+00  0.0000000000000D+00  0.0000000000000D+00
391  3.9000000000000D+00  0.0000000000000D+00  0.0000000000000D+00
392  3.9100000000000D+00  0.0000000000000D+00  0.0000000000000D+00
393  3.9200000000000D+00  0.0000000000000D+00  0.0000000000000D+00
394  3.9300000000000D+00  0.0000000000000D+00  0.0000000000000D+00
395  3.9400000000000D+00  0.0000000000000D+00  0.0000000000000D+00
396  3.9500000000000D+00  0.0000000000000D+00  0.0000000000000D+00
397  3.9600000000000D+00  0.0000000000000D+00  0.0000000000000D+00
398  3.9700000000000D+00  0.0000000000000D+00  0.0000000000000D+00
399  3.9800000000000D+00  0.0000000000000D+00  0.0000000000000D+00
400  3.9900000000000D+00  0.0000000000000D+00  0.0000000000000D+00
401  4.0000000000000D+00  0.0000000000000D+00  0.0000000000000D+00
402  4.0100000000000D+00  0.0000000000000D+00  0.0000000000000D+00
403  4.0200000000000D+00  0.0000000000000D+00  0.0000000000000D+00
404  4.0300000000000D+00  0.0000000000000D+00  0.0000000000000D+00
405  4.0400000000000D+00  0.0000000000000D+00  0.0000000000000D+00
406  4.0500000000000D+00  0.0000000000000D+00  0.0000000000000D+00
407  4.0600000000000D+00  0.0000000000000D+00  0.0000000000000D+00
408  4.0700000000000D+00  0.0000000000000D+00  0.0000000000000D+00
409  4.0800000000000D+00  0.0000000000000D+00  0.0000000000000D+00
410  4.0900000000000D+00  0.0000000000000D+00  0.0000000000000D+00
411  4.1000000000000D+00  0.0000000000000D+00  0.0000000000000D+00
412  4.1100000000000D+00  0.0000000000000D+00  0.0000000000000D+00
413  4.1200000000000D+00  0.0000000000000D+00  0.0000000000000D+00
414  4.1300000000000D+00  0.0000000000000D+00  0.0000000000000D+00
415  4.1400000000000D+00  0.0000000000000D+00  0.0000000000000D+00
416  4.1500000000000D+00  0.0000000000000D+00  0.0000000000000D+00
417  4.1600000000000D+00  0.0000000000000D+00  0.0000000000000D+00
418  4.1700000000000D+00  0.0000000000000D+00  0.0000000000000D+00
419  4.1800000000000D+00  0.0000000000000D+00  0.0000000000000D+00
420  4.1900000000000D+00  0.0000000000000D+00  0.0000000000000D+00
421  4.2000000000000D+00  0.0000000000000D+00  0.0000000000000D+00
422  4.2100000000000D+00  0.0000000000000D+00  0.0000000000000D+00
423  4.2200000000000D+00  0.0000000000000D+00  0.0000000000000D+00
424  4.2300000000000D+00  0.0000000000000D+00  0.0000000000000D+00
425  4.2400000000000D+00  0.0000000000000D+00  0.0000000000000D+00
426  4.2500000000000D+00  0.0000000000000D+00  0.0000000000000D+00
427  4.2600000000000D+00  0.0000000000000D+00  0.0000000000000D+00
428  4.2700000000000D+00  0.0000000000000D+00  0.0000000000000D+00
429  4.2800000000000D+00  0.0000000000000D+00  0.0000000000000D+00
430  4.2900000000000D+00  0.0000000000000D+00  0.0000000000000D+00
431  4.3000000000000D+00  0.0000000000000D+00  0.0000000000000D+00
432  4.3100000000000D+00  0.0000000000000D+00  0.0000000000000D+00
433  4.3200000000000D+00  0.0000000000000D+00  0.0000000000000D+00
434  4.3300000000000D+00  0.0000000000000D+00  0.0000000000000D+00
435  4.3400000000000D+00  0.0000000000000D+00  0.0000000000000D+00
436  4.3500000000000D+00  0.0000000000000D+00  0.0000000000000D+00
437  4.3600000000000D+00  0.0000000000000D+00  0.0000000000000D+00
438  4.3700000000000D+00  0.0000000000000D+00  0.0000000000000D+00
439  4.3800000000000D+00  0.0000000000000D+00  0.0000000000000D+00
440  4.3900000000000D+00  0.0000000000000D+00  0.0000000000000D+00
441  4.4000000000000D+00  0.0000000000000D+00  0.0000000000000D+00
442  4.4100000000000D+00  0.0000000000000D+00  0.0000000000000D+00
443  4.4200000000000D+00  0.0000000000000D+00  0.0000000000000D+00
444  4.4300000000000D+00  0.0000000000000D+00  0.0000000000000D+00