Be    ONCVPSP-3.2.3.1  r_core=   1.20427   1.05618
4.0000      4.0000      170503    zatom,zion,pspd
8      11   1     4   400     0    pspcod,pspxc,lmax,lloc,mmax,r2well
3.99000000  0.00000000  0.00000000    rchrg fchrg qchrg
2     2     0     0     0    nproj
1     1           extension_switch
0                        -8.3829432481741D+00 -2.9225583586193D+00
1  0.0000000000000D+00  5.7427396171761D-11 -4.5533471437764D-10
2  1.0000000000000D-02  1.1781122843743D-01 -4.3937479223227D-02
3  2.0000000000000D-02  2.3515261385150D-01 -8.7460421165252D-02
4  3.0000000000000D-02  3.5155648082580D-01 -1.3015656276051D-01
5  4.0000000000000D-02  4.6655948093853D-01 -1.7161818411924D-01
6  5.0000000000000D-02  5.7970473569439D-01 -2.1144436685514D-01
7  6.0000000000000D-02  6.9054395473111D-01 -2.4924323616352D-01
8  7.0000000000000D-02  7.9863952098448D-01 -2.8463418068075D-01
9  8.0000000000000D-02  9.0356653443787D-01 -3.1725004370046D-01
10  9.0000000000000D-02  1.0049148060189D+00 -3.4673927877576D-01
11  1.0000000000000D-01  1.1022907931406D+00 -3.7276806211372D-01
12  1.1000000000000D-01  1.1953194683244D+00 -3.9502235348603D-01
13  1.2000000000000D-01  1.2836461122934D+00 -4.1320989665692D-01
14  1.3000000000000D-01  1.3669380228935D+00 -4.2706214958667D-01
15  1.4000000000000D-01  1.4448861311963D+00 -4.3633613392885D-01
16  1.5000000000000D-01  1.5172065161661D+00 -4.4081619262469D-01
17  1.6000000000000D-01  1.5836418093470D+00 -4.4031564373277D-01
18  1.7000000000000D-01  1.6439624811442D+00 -4.3467831803962D-01
19  1.8000000000000D-01  1.6979680004557D+00 -4.2377996750201D-01
20  1.9000000000000D-01  1.7454878596501D+00 -4.0752953119546D-01
21  2.0000000000000D-01  1.7863824572056D+00 -3.8587024520966D-01
22  2.1000000000000D-01  1.8205438307123D+00 -3.5878058285862D-01
23  2.2000000000000D-01  1.8478962334185D+00 -3.2627501168092D-01
24  2.3000000000000D-01  1.8683965480589D+00 -2.8840455400759D-01
25  2.4000000000000D-01  1.8820345323553D+00 -2.4525713838747D-01
26  2.5000000000000D-01  1.8888328913184D+00 -1.9695772988902D-01
27  2.6000000000000D-01  1.8888471723125D+00 -1.4366822825395D-01
28  2.7000000000000D-01  1.8821654797653D+00 -8.5587124061139D-02
29  2.8000000000000D-01  1.8689080074112D+00 -2.2948904471546D-02
30  2.9000000000000D-01  1.8492263870496D+00  4.3976798240533D-02
31  3.0000000000000D-01  1.8233028539615D+00  1.1488632031475D-01
32  3.1000000000000D-01  1.7913492303675D+00  1.8944334518348D-01
33  3.2000000000000D-01  1.7536057296004D+00  2.6728054785701D-01
34  3.3000000000000D-01  1.7103395850133D+00  3.4800150326669D-01
35  3.4000000000000D-01  1.6618435090221D+00  4.3118285427155D-01
36  3.5000000000000D-01  1.6084339890885D+00  5.1637673237427D-01
37  3.6000000000000D-01  1.5504494288634D+00  6.0311342144678D-01
38  3.7000000000000D-01  1.4882481441214D+00  6.9090425197045D-01
39  3.8000000000000D-01  1.4222062245020D+00  7.7924471048296D-01
40  3.9000000000000D-01  1.3527152734282D+00  8.6761774613317D-01
41  4.0000000000000D-01  1.2801800398617D+00  9.5549725351443D-01
42  4.1000000000000D-01  1.2050159567815D+00  1.0423517083145D+00
43  4.2000000000000D-01  1.1276466024031D+00  1.1276479298281D+00
44  4.3000000000000D-01  1.0485011011828D+00  1.2108549420637D+00
45  4.4000000000000D-01  9.6801148255764D-01  1.2914479030807D+00
46  4.5000000000000D-01  8.8661001613825D-01  1.3689120703490D+00
47  4.6000000000000D-01  8.0472654268711D-01  1.4427467683728D+00
48  4.7000000000000D-01  7.2278582066751D-01  1.5124693235887D+00
49  4.8000000000000D-01  6.4120490842264D-01  1.5776189306685D+00
50  4.9000000000000D-01  5.6039060213468D-01  1.6377604138566D+00
51  5.0000000000000D-01  4.8073694961062D-01  1.6924878468644D+00
52  5.1000000000000D-01  4.0262285963941D-01  1.7414279951573D+00
53  5.2000000000000D-01  3.2640982616195D-01  1.7842435452027D+00
54  5.3000000000000D-01  2.5243978578822D-01  1.8206360864179D+00
55  5.4000000000000D-01  1.8103312628957D-01  1.8503488131564D+00
56  5.5000000000000D-01  1.1248686258857D-01  1.8731689160979D+00
57  5.6000000000000D-01  4.7072995475139D-02  1.8889296348536D+00
58  5.7000000000000D-01 -1.4962933197659D-02  1.8975119464379D+00
59  5.8000000000000D-01 -7.3403076730453D-02  1.8988458674775D+00
60  5.9000000000000D-01 -1.2805830089688D-01  1.8929113515932D+00
61  6.0000000000000D-01 -1.7876897399502D-01  1.8797387672673D+00
62  6.1000000000000D-01 -2.2540552331753D-01  1.8594089456615D+00
63  6.2000000000000D-01 -2.6786875388154D-01  1.8320527922238D+00
64  6.3000000000000D-01 -3.0608992750030D-01  1.7978504604996D+00
65  6.4000000000000D-01 -3.4003060255367D-01  1.7570300912268D+00
66  6.5000000000000D-01 -3.6968223714087D-01  1.7098661245822D+00
67  6.6000000000000D-01 -3.9506556061217D-01  1.6566771982191D+00
68  6.7000000000000D-01 -4.1622972076202D-01  1.5978236484579D+00
69  6.8000000000000D-01 -4.3325121622001D-01  1.5337046366534D+00
70  6.9000000000000D-01 -4.4623262573225D-01  1.4647549272170D+00
71  7.0000000000000D-01 -4.5530114808814D-01  1.3914413480313D+00
72  7.1000000000000D-01 -4.6060696837774D-01  1.3142589679610D+00
73  7.2000000000000D-01 -4.6232146804703D-01  1.2337270298195D+00
74  7.3000000000000D-01 -4.6063529781670D-01  1.1503846803894D+00
75  7.4000000000000D-01 -4.5575633393732D-01  1.0647865419308D+00
76  7.5000000000000D-01 -4.4790753944404D-01  9.7749817195126D-01
77  7.6000000000000D-01 -4.3732475303069D-01  8.8909145984889D-01
78  7.7000000000000D-01 -4.2425442887959D-01  8.0014001033559D-01
79  7.8000000000000D-01 -4.0895135123730D-01  7.1121456426423D-01
80  7.9000000000000D-01 -3.9167634772167D-01  6.2287850762448D-01
81  8.0000000000000D-01 -3.7269402527038D-01  5.3568351901147D-01
82  8.1000000000000D-01 -3.5227055229763D-01  4.5016540481427D-01
83  8.2000000000000D-01 -3.3067151001505D-01  3.6684016971966D-01
84  8.3000000000000D-01 -3.0815983500095D-01  2.8620036789591D-01
85  8.4000000000000D-01 -2.8499387397836D-01  2.0871177743080D-01
86  8.5000000000000D-01 -2.6142557039834D-01  1.3481043727775D-01
87  8.6000000000000D-01 -2.3769880083705D-01  6.4900082148455D-02
88  8.7000000000000D-01 -2.1404787742084D-01 -6.4999347631280D-04
89  8.8000000000000D-01 -1.9069623051437D-01 -6.1506615715760D-02
90  8.9000000000000D-01 -1.6785528376666D-01 -1.1737393455302D-01
91  9.0000000000000D-01 -1.4572353133367D-01 -1.6799413381398D-01
92  9.1000000000000D-01 -1.2448582471237D-01 -2.1314763720903D-01
93  9.2000000000000D-01 -1.0431287415824D-01 -2.5265280546976D-01
94  9.3000000000000D-01 -8.5360969663635D-02 -2.8636511679567D-01
95  9.4000000000000D-01 -6.7771910182873D-02 -3.1417587631941D-01
96  9.5000000000000D-01 -5.1673135844848D-02 -3.3601047102315D-01
97  9.6000000000000D-01 -3.7178180022687D-02 -3.5182578570690D-01
98  9.7000000000000D-01 -2.4386181512800D-02 -3.6161105779723D-01
99  9.8000000000000D-01 -1.3376644570780D-02 -3.6540493869890D-01
100  9.9000000000000D-01 -4.1993336791006D-03 -3.6332822101894D-01
101  1.0000000000000D+00  3.1320224284387D-03 -3.5560270282084D-01
102  1.0100000000000D+00  8.6452167739634D-03 -3.4256685262463D-01
103  1.0200000000000D+00  1.2414736998420D-02 -3.2469022477327D-01
104  1.0300000000000D+00  1.4565213014005D-02 -3.0258205227858D-01
105  1.0400000000000D+00  1.5272059747752D-02 -2.7699077417850D-01
106  1.0500000000000D+00  1.4758152159111D-02 -2.4879106357578D-01
107  1.0600000000000D+00  1.3285604430466D-02 -2.1895577445799D-01
108  1.0700000000000D+00  1.1142351015350D-02 -1.8851226235324D-01
109  1.0800000000000D+00  8.6241146684149D-03 -1.5848531754257D-01
110  1.0900000000000D+00  6.0134131838509D-03 -1.2983218330763D-01
111  1.1000000000000D+00  3.5581156575828D-03 -1.0337765578787D-01
112  1.1100000000000D+00  1.4527908539435D-03 -7.9759265850155D-02
113  1.1200000000000D+00 -1.7418724949656D-04 -5.9391377893376D-02
114  1.1300000000000D+00 -1.2657977615132D-03 -4.2453783583582D-02
115  1.1400000000000D+00 -1.8331102952167D-03 -2.8906263330905D-02
116  1.1500000000000D+00 -1.9445828930083D-03 -1.8525413339213D-02
117  1.1600000000000D+00 -1.7105110557549D-03 -1.0955331872010D-02
118  1.1700000000000D+00 -1.2662406888370D-03 -5.7642988245348D-03
119  1.1800000000000D+00 -7.4768823790481D-04 -2.4875993868889D-03
120  1.1900000000000D+00 -3.0424733670803D-04 -6.9968533248011D-04
121  1.2000000000000D+00 -6.2101515448612D-05 -1.0035796446295D-05
122  1.2100000000000D+00  6.6488183058940D-06  7.4567678745174D-05
123  1.2200000000000D+00 -1.0318075943666D-06 -6.5003546202189D-06
124  1.2300000000000D+00 -2.0170997226517D-06 -1.0137204823688D-05
125  1.2400000000000D+00  4.1784181606159D-07  3.9007020231961D-06
126  1.2500000000000D+00  2.0358147768924D-08 -8.8294129601585D-08
127  1.2600000000000D+00  2.7106626511677D-08 -1.1756256126292D-07
128  1.2700000000000D+00  0.0000000000000D+00  0.0000000000000D+00
129  1.2800000000000D+00  0.0000000000000D+00  0.0000000000000D+00
130  1.2900000000000D+00  0.0000000000000D+00  0.0000000000000D+00
131  1.3000000000000D+00  0.0000000000000D+00  0.0000000000000D+00
132  1.3100000000000D+00  0.0000000000000D+00  0.0000000000000D+00
133  1.3200000000000D+00  0.0000000000000D+00  0.0000000000000D+00
134  1.3300000000000D+00  0.0000000000000D+00  0.0000000000000D+00
135  1.3400000000000D+00  0.0000000000000D+00  0.0000000000000D+00
136  1.3500000000000D+00  0.0000000000000D+00  0.0000000000000D+00
137  1.3600000000000D+00  0.0000000000000D+00  0.0000000000000D+00
138  1.3700000000000D+00  0.0000000000000D+00  0.0000000000000D+00
139  1.3800000000000D+00  0.0000000000000D+00  0.0000000000000D+00
140  1.3900000000000D+00  0.0000000000000D+00  0.0000000000000D+00
141  1.4000000000000D+00  0.0000000000000D+00  0.0000000000000D+00
142  1.4100000000000D+00  0.0000000000000D+00  0.0000000000000D+00
143  1.4200000000000D+00  0.0000000000000D+00  0.0000000000000D+00
144  1.4300000000000D+00  0.0000000000000D+00  0.0000000000000D+00
145  1.4400000000000D+00  0.0000000000000D+00  0.0000000000000D+00
146  1.4500000000000D+00  0.0000000000000D+00  0.0000000000000D+00
147  1.4600000000000D+00  0.0000000000000D+00  0.0000000000000D+00
148  1.4700000000000D+00  0.0000000000000D+00  0.0000000000000D+00
149  1.4800000000000D+00  0.0000000000000D+00  0.0000000000000D+00
150  1.4900000000000D+00  0.0000000000000D+00  0.0000000000000D+00
151  1.5000000000000D+00  0.0000000000000D+00  0.0000000000000D+00
152  1.5100000000000D+00  0.0000000000000D+00  0.0000000000000D+00
153  1.5200000000000D+00  0.0000000000000D+00  0.0000000000000D+00
154  1.5300000000000D+00  0.0000000000000D+00  0.0000000000000D+00
155  1.5400000000000D+00  0.0000000000000D+00  0.0000000000000D+00
156  1.5500000000000D+00  0.0000000000000D+00  0.0000000000000D+00
157  1.5600000000000D+00  0.0000000000000D+00  0.0000000000000D+00
158  1.5700000000000D+00  0.0000000000000D+00  0.0000000000000D+00
159  1.5800000000000D+00  0.0000000000000D+00  0.0000000000000D+00
160  1.5900000000000D+00  0.0000000000000D+00  0.0000000000000D+00
161  1.6000000000000D+00  0.0000000000000D+00  0.0000000000000D+00
162  1.6100000000000D+00  0.0000000000000D+00  0.0000000000000D+00
163  1.6200000000000D+00  0.0000000000000D+00  0.0000000000000D+00
164  1.6300000000000D+00  0.0000000000000D+00  0.0000000000000D+00
165  1.6400000000000D+00  0.0000000000000D+00  0.0000000000000D+00
166  1.6500000000000D+00  0.0000000000000D+00  0.0000000000000D+00
167  1.6600000000000D+00  0.0000000000000D+00  0.0000000000000D+00
168  1.6700000000000D+00  0.0000000000000D+00  0.0000000000000D+00
169  1.6800000000000D+00  0.0000000000000D+00  0.0000000000000D+00
170  1.6900000000000D+00  0.0000000000000D+00  0.0000000000000D+00
171  1.7000000000000D+00  0.0000000000000D+00  0.0000000000000D+00
172  1.7100000000000D+00  0.0000000000000D+00  0.0000000000000D+00
173  1.7200000000000D+00  0.0000000000000D+00  0.0000000000000D+00
174  1.7300000000000D+00  0.0000000000000D+00  0.0000000000000D+00
175  1.7400000000000D+00  0.0000000000000D+00  0.0000000000000D+00
176  1.7500000000000D+00  0.0000000000000D+00  0.0000000000000D+00
177  1.7600000000000D+00  0.0000000000000D+00  0.0000000000000D+00
178  1.7700000000000D+00  0.0000000000000D+00  0.0000000000000D+00
179  1.7800000000000D+00  0.0000000000000D+00  0.0000000000000D+00
180  1.7900000000000D+00  0.0000000000000D+00  0.0000000000000D+00
181  1.8000000000000D+00  0.0000000000000D+00  0.0000000000000D+00
182  1.8100000000000D+00  0.0000000000000D+00  0.0000000000000D+00
183  1.8200000000000D+00  0.0000000000000D+00  0.0000000000000D+00
184  1.8300000000000D+00  0.0000000000000D+00  0.0000000000000D+00
185  1.8400000000000D+00  0.0000000000000D+00  0.0000000000000D+00
186  1.8500000000000D+00  0.0000000000000D+00  0.0000000000000D+00
187  1.8600000000000D+00  0.0000000000000D+00  0.0000000000000D+00
188  1.8700000000000D+00  0.0000000000000D+00  0.0000000000000D+00
189  1.8800000000000D+00  0.0000000000000D+00  0.0000000000000D+00
190  1.8900000000000D+00  0.0000000000000D+00  0.0000000000000D+00
191  1.9000000000000D+00  0.0000000000000D+00  0.0000000000000D+00
192  1.9100000000000D+00  0.0000000000000D+00  0.0000000000000D+00
193  1.9200000000000D+00  0.0000000000000D+00  0.0000000000000D+00
194  1.9300000000000D+00  0.0000000000000D+00  0.0000000000000D+00
195  1.9400000000000D+00  0.0000000000000D+00  0.0000000000000D+00
196  1.9500000000000D+00  0.0000000000000D+00  0.0000000000000D+00
197  1.9600000000000D+00  0.0000000000000D+00  0.0000000000000D+00
198  1.9700000000000D+00  0.0000000000000D+00  0.0000000000000D+00
199  1.9800000000000D+00  0.0000000000000D+00  0.0000000000000D+00
200  1.9900000000000D+00  0.0000000000000D+00  0.0000000000000D+00
201  2.0000000000000D+00  0.0000000000000D+00  0.0000000000000D+00
202  2.0100000000000D+00  0.0000000000000D+00  0.0000000000000D+00
203  2.0200000000000D+00  0.0000000000000D+00  0.0000000000000D+00
204  2.0300000000000D+00  0.0000000000000D+00  0.0000000000000D+00
205  2.0400000000000D+00  0.0000000000000D+00  0.0000000000000D+00
206  2.0500000000000D+00  0.0000000000000D+00  0.0000000000000D+00
207  2.0600000000000D+00  0.0000000000000D+00  0.0000000000000D+00
208  2.0700000000000D+00  0.0000000000000D+00  0.0000000000000D+00
209  2.0800000000000D+00  0.0000000000000D+00  0.0000000000000D+00
210  2.0900000000000D+00  0.0000000000000D+00  0.0000000000000D+00
211  2.1000000000000D+00  0.0000000000000D+00  0.0000000000000D+00
212  2.1100000000000D+00  0.0000000000000D+00  0.0000000000000D+00
213  2.1200000000000D+00  0.0000000000000D+00  0.0000000000000D+00
214  2.1300000000000D+00  0.0000000000000D+00  0.0000000000000D+00
215  2.1400000000000D+00  0.0000000000000D+00  0.0000000000000D+00
216  2.1500000000000D+00  0.0000000000000D+00  0.0000000000000D+00
217  2.1600000000000D+00  0.0000000000000D+00  0.0000000000000D+00
218  2.1700000000000D+00  0.0000000000000D+00  0.0000000000000D+00
219  2.1800000000000D+00  0.0000000000000D+00  0.0000000000000D+00
220  2.1900000000000D+00  0.0000000000000D+00  0.0000000000000D+00
221  2.2000000000000D+00  0.0000000000000D+00  0.0000000000000D+00
222  2.2100000000000D+00  0.0000000000000D+00  0.0000000000000D+00
223  2.2200000000000D+00  0.0000000000000D+00  0.0000000000000D+00
224  2.2300000000000D+00  0.0000000000000D+00  0.0000000000000D+00
225  2.2400000000000D+00  0.0000000000000D+00  0.0000000000000D+00
226  2.2500000000000D+00  0.0000000000000D+00  0.0000000000000D+00
227  2.2600000000000D+00  0.0000000000000D+00  0.0000000000000D+00
228  2.2700000000000D+00  0.0000000000000D+00  0.0000000000000D+00
229  2.2800000000000D+00  0.0000000000000D+00  0.0000000000000D+00
230  2.2900000000000D+00  0.0000000000000D+00  0.0000000000000D+00
231  2.3000000000000D+00  0.0000000000000D+00  0.0000000000000D+00
232  2.3100000000000D+00  0.0000000000000D+00  0.0000000000000D+00
233  2.3200000000000D+00  0.0000000000000D+00  0.0000000000000D+00
234  2.3300000000000D+00  0.0000000000000D+00  0.0000000000000D+00
235  2.3400000000000D+00  0.0000000000000D+00  0.0000000000000D+00
236  2.3500000000000D+00  0.0000000000000D+00  0.0000000000000D+00
237  2.3600000000000D+00  0.0000000000000D+00  0.0000000000000D+00
238  2.3700000000000D+00  0.0000000000000D+00  0.0000000000000D+00
239  2.3800000000000D+00  0.0000000000000D+00  0.0000000000000D+00
240  2.3900000000000D+00  0.0000000000000D+00  0.0000000000000D+00
241  2.4000000000000D+00  0.0000000000000D+00  0.0000000000000D+00
242  2.4100000000000D+00  0.0000000000000D+00  0.0000000000000D+00
243  2.4200000000000D+00  0.0000000000000D+00  0.0000000000000D+00
244  2.4300000000000D+00  0.0000000000000D+00  0.0000000000000D+00
245  2.4400000000000D+00  0.0000000000000D+00  0.0000000000000D+00
246  2.4500000000000D+00  0.0000000000000D+00  0.0000000000000D+00
247  2.4600000000000D+00  0.0000000000000D+00  0.0000000000000D+00
248  2.4700000000000D+00  0.0000000000000D+00  0.0000000000000D+00
249  2.4800000000000D+00  0.0000000000000D+00  0.0000000000000D+00
250  2.4900000000000D+00  0.0000000000000D+00  0.0000000000000D+00
251  2.5000000000000D+00  0.0000000000000D+00  0.0000000000000D+00
252  2.5100000000000D+00  0.0000000000000D+00  0.0000000000000D+00
253  2.5200000000000D+00  0.0000000000000D+00  0.0000000000000D+00
254  2.5300000000000D+00  0.0000000000000D+00  0.0000000000000D+00
255  2.5400000000000D+00  0.0000000000000D+00  0.0000000000000D+00
256  2.5500000000000D+00  0.0000000000000D+00  0.0000000000000D+00
257  2.5600000000000D+00  0.0000000000000D+00  0.0000000000000D+00
258  2.5700000000000D+00  0.0000000000000D+00  0.0000000000000D+00
259  2.5800000000000D+00  0.0000000000000D+00  0.0000000000000D+00
260  2.5900000000000D+00  0.0000000000000D+00  0.0000000000000D+00
261  2.6000000000000D+00  0.0000000000000D+00  0.0000000000000D+00
262  2.6100000000000D+00  0.0000000000000D+00  0.0000000000000D+00
263  2.6200000000000D+00  0.0000000000000D+00  0.0000000000000D+00
264  2.6300000000000D+00  0.0000000000000D+00  0.0000000000000D+00
265  2.6400000000000D+00  0.0000000000000D+00  0.0000000000000D+00
266  2.6500000000000D+00  0.0000000000000D+00  0.0000000000000D+00
267  2.6600000000000D+00  0.0000000000000D+00  0.0000000000000D+00
268  2.6700000000000D+00  0.0000000000000D+00  0.0000000000000D+00
269  2.6800000000000D+00  0.0000000000000D+00  0.0000000000000D+00
270  2.6900000000000D+00  0.0000000000000D+00  0.0000000000000D+00
271  2.7000000000000D+00  0.0000000000000D+00  0.0000000000000D+00
272  2.7100000000000D+00  0.0000000000000D+00  0.0000000000000D+00
273  2.7200000000000D+00  0.0000000000000D+00  0.0000000000000D+00
274  2.7300000000000D+00  0.0000000000000D+00  0.0000000000000D+00
275  2.7400000000000D+00  0.0000000000000D+00  0.0000000000000D+00
276  2.7500000000000D+00  0.0000000000000D+00  0.0000000000000D+00
277  2.7600000000000D+00  0.0000000000000D+00  0.0000000000000D+00
278  2.7700000000000D+00  0.0000000000000D+00  0.0000000000000D+00
279  2.7800000000000D+00  0.0000000000000D+00  0.0000000000000D+00
280  2.7900000000000D+00  0.0000000000000D+00  0.0000000000000D+00
281  2.8000000000000D+00  0.0000000000000D+00  0.0000000000000D+00
282  2.8100000000000D+00  0.0000000000000D+00  0.0000000000000D+00
283  2.8200000000000D+00  0.0000000000000D+00  0.0000000000000D+00
284  2.8300000000000D+00  0.0000000000000D+00  0.0000000000000D+00
285  2.8400000000000D+00  0.0000000000000D+00  0.0000000000000D+00
286  2.8500000000000D+00  0.0000000000000D+00  0.0000000000000D+00
287  2.8600000000000D+00  0.0000000000000D+00  0.0000000000000D+00
288  2.8700000000000D+00  0.0000000000000D+00  0.0000000000000D+00
289  2.8800000000000D+00  0.0000000000000D+00  0.0000000000000D+00
290  2.8900000000000D+00  0.0000000000000D+00  0.0000000000000D+00
291  2.9000000000000D+00  0.0000000000000D+00  0.0000000000000D+00
292  2.9100000000000D+00  0.0000000000000D+00  0.0000000000000D+00
293  2.9200000000000D+00  0.0000000000000D+00  0.0000000000000D+00
294  2.9300000000000D+00  0.0000000000000D+00  0.0000000000000D+00
295  2.9400000000000D+00  0.0000000000000D+00  0.0000000000000D+00
296  2.9500000000000D+00  0.0000000000000D+00  0.0000000000000D+00
297  2.9600000000000D+00  0.0000000000000D+00  0.0000000000000D+00
298  2.9700000000000D+00  0.0000000000000D+00  0.0000000000000D+00
299  2.9800000000000D+00  0.0000000000000D+00  0.0000000000000D+00
300  2.9900000000000D+00  0.0000000000000D+00  0.0000000000000D+00
301  3.0000000000000D+00  0.0000000000000D+00  0.0000000000000D+00
302  3.0100000000000D+00  0.0000000000000D+00  0.0000000000000D+00
303  3.0200000000000D+00  0.0000000000000D+00  0.0000000000000D+00
304  3.0300000000000D+00  0.0000000000000D+00  0.0000000000000D+00
305  3.0400000000000D+00  0.0000000000000D+00  0.0000000000000D+00
306  3.0500000000000D+00  0.0000000000000D+00  0.0000000000000D+00
307  3.0600000000000D+00  0.0000000000000D+00  0.0000000000000D+00
308  3.0700000000000D+00  0.0000000000000D+00  0.0000000000000D+00
309  3.0800000000000D+00  0.0000000000000D+00  0.0000000000000D+00
310  3.0900000000000D+00  0.0000000000000D+00  0.0000000000000D+00
311  3.1000000000000D+00  0.0000000000000D+00  0.0000000000000D+00
312  3.1100000000000D+00  0.0000000000000D+00  0.0000000000000D+00
313  3.1200000000000D+00  0.0000000000000D+00  0.0000000000000D+00
314  3.1300000000000D+00  0.0000000000000D+00  0.0000000000000D+00
315  3.1400000000000D+00  0.0000000000000D+00  0.0000000000000D+00
316  3.1500000000000D+00  0.0000000000000D+00  0.0000000000000D+00
317  3.1600000000000D+00  0.0000000000000D+00  0.0000000000000D+00
318  3.1700000000000D+00  0.0000000000000D+00  0.0000000000000D+00
319  3.1800000000000D+00  0.0000000000000D+00  0.0000000000000D+00
320  3.1900000000000D+00  0.0000000000000D+00  0.0000000000000D+00
321  3.2000000000000D+00  0.0000000000000D+00  0.0000000000000D+00
322  3.2100000000000D+00  0.0000000000000D+00  0.0000000000000D+00
323  3.2200000000000D+00  0.0000000000000D+00  0.0000000000000D+00
324  3.2300000000000D+00  0.0000000000000D+00  0.0000000000000D+00
325  3.2400000000000D+00  0.0000000000000D+00  0.0000000000000D+00
326  3.2500000000000D+00  0.0000000000000D+00  0.0000000000000D+00
327  3.2600000000000D+00  0.0000000000000D+00  0.0000000000000D+00
328  3.2700000000000D+00  0.0000000000000D+00  0.0000000000000D+00
329  3.2800000000000D+00  0.0000000000000D+00  0.0000000000000D+00
330  3.2900000000000D+00  0.0000000000000D+00  0.0000000000000D+00
331  3.3000000000000D+00  0.0000000000000D+00  0.0000000000000D+00
332  3.3100000000000D+00  0.0000000000000D+00  0.0000000000000D+00
333  3.3200000000000D+00  0.0000000000000D+00  0.0000000000000D+00
334  3.3300000000000D+00  0.0000000000000D+00  0.0000000000000D+00
335  3.3400000000000D+00  0.0000000000000D+00  0.0000000000000D+00
336  3.3500000000000D+00  0.0000000000000D+00  0.0000000000000D+00
337  3.3600000000000D+00  0.0000000000000D+00  0.0000000000000D+00
338  3.3700000000000D+00  0.0000000000000D+00  0.0000000000000D+00
339  3.3800000000000D+00  0.0000000000000D+00  0.0000000000000D+00
340  3.3900000000000D+00  0.0000000000000D+00  0.0000000000000D+00
341  3.4000000000000D+00  0.0000000000000D+00  0.0000000000000D+00
342  3.4100000000000D+00  0.0000000000000D+00  0.0000000000000D+00
343  3.4200000000000D+00  0.0000000000000D+00  0.0000000000000D+00
344  3.4300000000000D+00  0.0000000000000D+00  0.0000000000000D+00
345  3.4400000000000D+00  0.0000000000000D+00  0.0000000000000D+00
346  3.4500000000000D+00  0.0000000000000D+00  0.0000000000000D+00
347  3.4600000000000D+00  0.0000000000000D+00  0.0000000000000D+00
348  3.4700000000000D+00  0.0000000000000D+00  0.0000000000000D+00
349  3.4800000000000D+00  0.0000000000000D+00  0.0000000000000D+00
350  3.4900000000000D+00  0.0000000000000D+00  0.0000000000000D+00
351  3.5000000000000D+00  0.0000000000000D+00  0.0000000000000D+00
352  3.5100000000000D+00  0.0000000000000D+00  0.0000000000000D+00
353  3.5200000000000D+00  0.0000000000000D+00  0.0000000000000D+00
354  3.5300000000000D+00  0.0000000000000D+00  0.0000000000000D+00
355  3.5400000000000D+00  0.0000000000000D+00  0.0000000000000D+00
356  3.5500000000000D+00  0.0000000000000D+00  0.0000000000000D+00
357  3.5600000000000D+00  0.0000000000000D+00  0.0000000000000D+00
358  3.5700000000000D+00  0.0000000000000D+00  0.0000000000000D+00
359  3.5800000000000D+00  0.0000000000000D+00  0.0000000000000D+00
360  3.5900000000000D+00  0.0000000000000D+00  0.0000000000000D+00
361  3.6000000000000D+00  0.0000000000000D+00  0.0000000000000D+00
362  3.6100000000000D+00  0.0000000000000D+00  0.0000000000000D+00
363  3.6200000000000D+00  0.0000000000000D+00  0.0000000000000D+00
364  3.6300000000000D+00  0.0000000000000D+00  0.0000000000000D+00
365  3.6400000000000D+00  0.0000000000000D+00  0.0000000000000D+00
366  3.6500000000000D+00  0.0000000000000D+00  0.0000000000000D+00
367  3.6600000000000D+00  0.0000000000000D+00  0.0000000000000D+00
368  3.6700000000000D+00  0.0000000000000D+00  0.0000000000000D+00
369  3.6800000000000D+00  0.0000000000000D+00  0.0000000000000D+00
370  3.6900000000000D+00  0.0000000000000D+00  0.0000000000000D+00
371  3.7000000000000D+00  0.0000000000000D+00  0.0000000000000D+00
372  3.7100000000000D+00  0.0000000000000D+00  0.0000000000000D+00
373  3.7200000000000D+00  0.0000000000000D+00  0.0000000000000D+00
374  3.7300000000000D+00  0.0000000000000D+00  0.0000000000000D+00
375  3.7400000000000D+00  0.0000000000000D+00  0.0000000000000D+00
376  3.7500000000000D+00  0.0000000000000D+00  0.0000000000000D+00
377  3.7600000000000D+00  0.0000000000000D+00  0.0000000000000D+00
378  3.7700000000000D+00  0.0000000000000D+00  0.0000000000000D+00
379  3.7800000000000D+00  0.0000000000000D+00  0.0000000000000D+00
380  3.7900000000000D+00  0.0000000000000D+00  0.0000000000000D+00
381  3.8000000000000D+00  0.0000000000000D+00  0.0000000000000D+00
382  3.8100000000000D+00  0.0000000000000D+00  0.0000000000000D+00
383  3.8200000000000D+00  0.0000000000000D+00  0.0000000000000D+00
384  3.8300000000000D+00  0.0000000000000D+00  0.0000000000000D+00
385  3.8400000000000D+00  0.0000000000000D+00  0.0000000000000D+00
386  3.8500000000000D+00  0.0000000000000D+00  0.0000000000000D+00
387  3.8600000000000D+00  0.0000000000000D+00  0.0000000000000D+00
388  3.8700000000000D+00  0.0000000000000D+00  0.0000000000000D+00
389  3.8800000000000D+00  0.0000000000000D+00  0.0000000000000D+00
390  3.8900000000000D+00  0.0000000000000D+00  0.0000000000000D+00
391  3.9000000000000D+00  0.0000000000000D+00  0.0000000000000D+00
392  3.9100000000000D+00  0.0000000000000D+00  0.0000000000000D+00
393  3.9200000000000D+00  0.0000000000000D+00  0.0000000000000D+00
394  3.9300000000000D+00  0.0000000000000D+00  0.0000000000000D+00
395  3.9400000000000D+00  0.0000000000000D+00  0.0000000000000D+00
396  3.9500000000000D+00  0.0000000000000D+00  0.0000000000000D+00
397  3.9600000000000D+00  0.0000000000000D+00  0.0000000000000D+00
398  3.9700000000000D+00  0.0000000000000D+00  0.0000000000000D+00
399  3.9800000000000D+00  0.0000000000000D+00  0.0000000000000D+00
400  3.9900000000000D+00  0.0000000000000D+00  0.0000000000000D+00
1                        -3.1675660943590D+00 -7.6154760646757D-01
1  0.0000000000000D+00 -3.2276814221355D-08  7.2531642941742D-08
2  1.0000000000000D-02  2.0632654129368D-03  1.6322999064961D-03
3  2.0000000000000D-02  8.2659561166206D-03  6.4671067492270D-03
4  3.0000000000000D-02  1.8646019070287D-02  1.4319931283032D-02
5  4.0000000000000D-02  3.3264264132879D-02  2.4889211848246D-02
6  5.0000000000000D-02  5.2200779977767D-02  3.7765041318923D-02
7  6.0000000000000D-02  7.5550051780617D-02  5.2441081127289D-02
8  7.0000000000000D-02  1.0341491229041D-01  6.8329367094620D-02
9  8.0000000000000D-02  1.3589949017048D-01  8.4777639267159D-02
10  9.0000000000000D-02  1.7310134793491D-01  1.0108876394346D-01
11  1.0000000000000D-01  2.1510302574215D-01  1.1654176206818D-01
12  1.1000000000000D-01  2.6196322615646D-01  1.3041391544594D-01
13  1.2000000000000D-01  3.1370788829431D-01  1.4200339181041D-01
14  1.3000000000000D-01  3.7032140719736D-01  1.5065181241577D-01
15  1.4000000000000D-01  4.3173825560771D-01  1.5576618195851D-01
16  1.5000000000000D-01  4.9783526049648D-01  1.5683961043422D-01
17  1.6000000000000D-01  5.6842477578087D-01  1.5347027983037D-01
18  1.7000000000000D-01  6.4324897586386D-01  1.4537814488906D-01
19  1.8000000000000D-01  7.2197547228139D-01  1.3241890578802D-01
20  1.9000000000000D-01  8.0419442831318D-01  1.1459485043889D-01
21  2.0000000000000D-01  8.8941731448452D-01  9.2062233895865D-02
22  2.1000000000000D-01  9.7707741214425D-01  6.5134940575991D-02
23  2.2000000000000D-01  1.0665321335287D+00  3.4284259883382D-02
24  2.3000000000000D-01  1.1570671857560D+00  1.3469552348747D-04
25  2.4000000000000D-01  1.2479025639517D+00 -3.6544178724622D-02
26  2.5000000000000D-01  1.3382003161177D+00 -7.4849710818467D-02
27  2.6000000000000D-01  1.4270739803830D+00 -1.1376181209657D-01
28  2.7000000000000D-01  1.5135995548621D+00 -1.5216196272537D-01
29  2.8000000000000D-01  1.5968278224119D+00 -1.8885521216058D-01
30  2.9000000000000D-01  1.6757978180067D+00 -2.2259473054068D-01
31  3.0000000000000D-01  1.7495511960366D+00 -2.5210840086266D-01
32  3.1000000000000D-01  1.8171472293073D+00 -2.7612688652957D-01
33  3.2000000000000D-01  1.8776781514953D+00 -2.9341256575718D-01
34  3.3000000000000D-01  1.9302845408008D+00 -3.0278869447094D-01
35  3.4000000000000D-01  1.9741704349090D+00 -3.0316814351854D-01
36  3.5000000000000D-01  2.0086178663669D+00 -2.9358105476051D-01
37  3.6000000000000D-01  2.0330005132000D+00 -2.7320077406562D-01
38  3.7000000000000D-01  2.0467961719774D+00 -2.4136744726570D-01
39  3.8000000000000D-01  2.0495977793957D+00 -1.9760870725829D-01
40  3.9000000000000D-01  2.0411227334452D+00 -1.4165693587541D-01
41  4.0000000000000D-01  2.0212202958717D+00 -7.3462651773997D-02
42  4.1000000000000D-01  1.9898768933530D+00  6.7963459226746D-03
43  4.2000000000000D-01  1.9472191748426D+00  9.8710360837544D-02