B     ONCVPSP  r_core=  1.21  1.21
5.0000      3.0000      161003    zatom,zion,pspd
8 -116133   1     4   600     0    pspcod,pspxc,lmax,lloc,mmax,r2well
5.99000000  2.80000000  0.00000000    rchrg fchrg qchrg
2     2     0     0     0    nproj
1                 extension_switch
0                         7.3054886034351D+00  1.8398414378726D+00
1  0.0000000000000D+00  3.8627475440478D-08 -4.6021520927475D-08
2  1.0000000000000D-02 -3.3955761518292D-02  1.0852586068275D-01
3  2.0000000000000D-02 -6.6836881976696D-02  2.1570715512104D-01
4  3.0000000000000D-02 -9.7591289992945D-02  3.2022621035192D-01
5  4.0000000000000D-02 -1.2521157215614D-01  4.2081856702817D-01
6  5.0000000000000D-02 -1.4875610873325D-01  5.1629816598791D-01
7  6.0000000000000D-02 -1.6736880573394D-01  6.0558086424868D-01
8  7.0000000000000D-02 -1.8029700197689D-01  6.8770577899827D-01
9  8.0000000000000D-02 -1.8690716842839D-01  7.6185400417617D-01
10  9.0000000000000D-02 -1.8669806383579D-01  8.2736429993909D-01
11  1.0000000000000D-01 -1.7931106458039D-01  8.8374541952008D-01
12  1.1000000000000D-01 -1.6453744660050D-01  9.3068480938065D-01
13  1.2000000000000D-01 -1.4232246193555D-01  9.6805349562848D-01
14  1.3000000000000D-01 -1.1276612056245D-01  9.9590705081604D-01
15  1.4000000000000D-01 -7.6120658312439D-02  1.0144826187498D+00
16  1.5000000000000D-01 -3.2784742299270D-02  1.0241920590731D+00
17  1.6000000000000D-01  1.6705465022402D-02  1.0256113563725D+00
18  1.7000000000000D-01  7.1688194782936D-02  1.0194665186500D+00
19  1.8000000000000D-01  1.3139066179316D-01  1.0066162655136D+00
20  1.9000000000000D-01  1.9494604574385D-01  9.8803187576914D-01
21  2.0000000000000D-01  2.6141250160645D-01  9.6477462577354D-01
22  2.1000000000000D-01  3.2979379301310D-01  9.3797130261978D-01
23  2.2000000000000D-01  3.9906110654448D-01  9.0878831883245D-01
24  2.3000000000000D-01  4.6817557825038D-01  8.7840498683622D-01
25  2.4000000000000D-01  5.3611104695743D-01  8.4798653131827D-01
26  2.5000000000000D-01  6.0187654236511D-01  8.1865742528514D-01
27  2.6000000000000D-01  6.6453801976694D-01  7.9147563090982D-01
28  2.7000000000000D-01  7.2323886741566D-01  7.6740830923003D-01
29  2.8000000000000D-01  7.7721873682121D-01  7.4730953370385D-01
30  2.9000000000000D-01  8.2583028015778D-01  7.3190050211514D-01
31  3.0000000000000D-01  8.6855342179247D-01  7.2175269015082D-01
32  3.1000000000000D-01  9.0500684187101D-01  7.1727432917220D-01
33  3.2000000000000D-01  9.3495640787749D-01  7.1870052150247D-01
34  3.3000000000000D-01  9.5832035394127D-01  7.2608723036507D-01
35  3.4000000000000D-01  9.7517107608773D-01  7.3930929999346D-01
36  3.5000000000000D-01  9.8573348321216D-01  7.5806257607181D-01
37  3.6000000000000D-01  9.9037991681370D-01  7.8187010932999D-01
38  3.7000000000000D-01  9.8962172594266D-01  8.1009233761265D-01
39  3.8000000000000D-01  9.8409765584822D-01  8.4194105591067D-01
40  3.9000000000000D-01  9.7455927796416D-01  8.7649690147201D-01
41  4.0000000000000D-01  9.6185375366814D-01  9.1273000395103D-01
42  4.1000000000000D-01  9.4690428332462D-01  9.4952338024443D-01
43  4.2000000000000D-01  9.3068864420970D-01  9.8569859170199D-01
44  4.3000000000000D-01  9.1421626488461D-01  1.0200431291433D+00
45  4.4000000000000D-01  8.9850431847379D-01  1.0513389496980D+00
46  4.5000000000000D-01  8.8455334232885D-01  1.0783915598514D+00
47  4.6000000000000D-01  8.7332290613760D-01  1.1000590219137D+00
48  4.7000000000000D-01  8.6570785429820D-01  1.1152802568748D+00
49  4.8000000000000D-01  8.6251564116908D-01  1.1231020254402D+00
50  4.9000000000000D-01  8.6444525971000D-01  1.1227039908617D+00
51  5.0000000000000D-01  8.7206823533640D-01  1.1134213016326D+00
52  5.1000000000000D-01  8.8581211805177D-01  1.0947641785694D+00
53  5.2000000000000D-01  9.0594685780366D-01  1.0664340484118D+00
54  5.3000000000000D-01  9.3257439153825D-01  1.0283358336322D+00
55  5.4000000000000D-01  9.6562170655950D-01  9.8058608450597D-01
56  5.5000000000000D-01  1.0048375749485D+00  9.2351672297671D-01
57  5.6000000000000D-01  1.0497930793586D+00  8.5767425677751D-01
58  5.7000000000000D-01  1.0998859726767D+00  7.8381441521107D-01
59  5.8000000000000D-01  1.1543488350732D+00  7.0289225226585D-01
60  5.9000000000000D-01  1.2122609124335D+00  6.1604785766188D-01
61  6.0000000000000D-01  1.2725634430322D+00  5.2458790843614D-01
62  6.1000000000000D-01  1.3340782046643D+00  4.2996338270870D-01
63  6.2000000000000D-01  1.3955289453595D+00  3.3374383962382D-01
64  6.3000000000000D-01  1.4555652974079D+00  2.3758874499839D-01
65  6.4000000000000D-01  1.5127887189531D+00  1.4321638826426D-01
66  6.5000000000000D-01  1.5657799607474D+00  5.2370991790601D-02
67  6.6000000000000D-01  1.6131275185852D+00 -3.3211342277223D-02
68  6.7000000000000D-01  1.6534565058050D+00 -1.1183717157908D-01
69  6.8000000000000D-01  1.6854573652069D+00 -1.8189004571062D-01
70  6.9000000000000D-01  1.7079138363892D+00 -2.4186393349094D-01
71  7.0000000000000D-01  1.7197296030244D+00 -2.9039505825512D-01
72  7.1000000000000D-01  1.7199530648823D+00 -3.2629147860053D-01
73  7.2000000000000D-01  1.7077997108565D+00 -3.4855978983727D-01
74  7.3000000000000D-01  1.6826716120146D+00 -3.5642837272810D-01
75  7.4000000000000D-01  1.6441736061168D+00 -3.4936667895017D-01
76  7.5000000000000D-01  1.5921258067927D+00 -3.2710011668933D-01
77  7.6000000000000D-01  1.5265721401578D+00 -2.8962018309348D-01
78  7.7000000000000D-01  1.4477846879817D+00 -2.3718958166541D-01
79  7.8000000000000D-01  1.3562636974071D+00 -1.7034215943586D-01
80  7.9000000000000D-01  1.2527332025270D+00 -8.9877600779487D-02
81  8.0000000000000D-01  1.1381322893080D+00  3.1490822357348D-03
82  8.1000000000000D-01  1.0136021221754D+00  1.0744311930244D-01
83  8.2000000000000D-01  8.8046893557121D-01  2.2149036591755D-01
84  8.3000000000000D-01  7.4022327545296D-01  3.4358215927245D-01
85  8.4000000000000D-01  5.9449585233303D-01  4.7184421175030D-01
86  8.5000000000000D-01  4.4503043750507D-01  6.0426902419567D-01
87  8.6000000000000D-01  2.9365429611759D-01  7.3875122715220D-01
88  8.7000000000000D-01  1.4224670344813D-01  8.7312519545808D-01
89  8.8000000000000D-01 -7.2938670061774D-03  1.0052042312720D+00
90  8.9000000000000D-01 -1.5308326408124D-01  1.1328205738551D+00
91  9.0000000000000D-01 -2.9328524969985D-01  1.2538654720722D+00
92  9.1000000000000D-01 -4.2614451495313D-01  1.3663285481323D+00
93  9.2000000000000D-01 -5.5001848287558D-01  1.4683356887977D+00
94  9.3000000000000D-01 -6.6340727813847D-01  1.5581847230908D+00
95  9.4000000000000D-01 -7.6498127497776D-01  1.6343781829502D+00
96  9.5000000000000D-01 -8.5360567799821D-01  1.6956524953345D+00
97  9.6000000000000D-01 -9.2836164376404D-01  1.7410030181992D+00
98  9.7000000000000D-01 -9.8856351527841D-01  1.7697044097454D+00
99  9.8000000000000D-01 -1.0337718143671D+00  1.7813259077355D+00
100  9.9000000000000D-01 -1.0638017164840D+00  1.7757411909221D+00
101  1.0000000000000D+00 -1.0787268184713D+00  1.7531325976617D+00
102  1.0100000000000D+00 -1.0788780995695D+00  1.7139895842727D+00
103  1.0200000000000D+00 -1.0648380686233D+00  1.6591014166165D+00
104  1.0300000000000D+00 -1.0374301837672D+00  1.5895442001031D+00
105  1.0400000000000D+00 -9.9770371902700D-01  1.5066624588174D+00
106  1.0500000000000D+00 -9.4691434672974D-01  1.4120455874819D+00
107  1.0600000000000D+00 -8.8650078348799D-01  1.3074995943284D+00
108  1.0700000000000D+00 -8.1805792637685D-01  1.1950146472613D+00
109  1.0800000000000D+00 -7.4330697706909D-01  1.0767290207719D+00
110  1.0900000000000D+00 -6.6406310470587D-01  9.5489010443586D-01
111  1.1000000000000D+00 -5.8220125718013D-01  8.3181320421188D-01
112  1.1100000000000D+00 -4.9962076078901D-01  7.0983890390730D-01
113  1.1200000000000D+00 -4.1820937563741D-01  5.9128978688690D-01
114  1.1300000000000D+00 -3.3980748509299D-01  4.7842733106693D-01
115  1.1400000000000D+00 -2.6617310022535D-01  3.7340979326989D-01
116  1.1500000000000D+00 -1.9894834301657D-01  2.7825187837593D-01
117  1.1600000000000D+00 -1.3962804186117D-01  1.9478695236408D-01
118  1.1700000000000D+00 -8.9551607529101D-02  1.2466100685174D-01
119  1.1800000000000D+00 -4.9774788245607D-02  6.9159647190981D-02
120  1.1900000000000D+00 -2.1097694643469D-02  2.9251308998428D-02
121  1.2000000000000D+00 -5.1445116924907D-03  7.0805274993795D-03
122  1.2100000000000D+00  1.9728630407549D-04 -3.2381102285639D-04
123  1.2200000000000D+00  2.5893447064651D-04 -3.6918343325845D-04
124  1.2300000000000D+00 -1.8461616213393D-04  2.6182496756286D-04
125  1.2400000000000D+00  1.7379164939549D-05 -2.4864081613217D-05
126  1.2500000000000D+00  1.5800048361277D-05 -2.2543682613260D-05
127  1.2600000000000D+00  3.8746177786615D-07 -3.8279050131184D-07
128  1.2700000000000D+00  0.0000000000000D+00  0.0000000000000D+00
129  1.2800000000000D+00  0.0000000000000D+00  0.0000000000000D+00
130  1.2900000000000D+00  0.0000000000000D+00  0.0000000000000D+00
131  1.3000000000000D+00  0.0000000000000D+00  0.0000000000000D+00
132  1.3100000000000D+00  0.0000000000000D+00  0.0000000000000D+00
133  1.3200000000000D+00  0.0000000000000D+00  0.0000000000000D+00
134  1.3300000000000D+00  0.0000000000000D+00  0.0000000000000D+00
135  1.3400000000000D+00  0.0000000000000D+00  0.0000000000000D+00
136  1.3500000000000D+00  0.0000000000000D+00  0.0000000000000D+00
137  1.3600000000000D+00  0.0000000000000D+00  0.0000000000000D+00
138  1.3700000000000D+00  0.0000000000000D+00  0.0000000000000D+00
139  1.3800000000000D+00  0.0000000000000D+00  0.0000000000000D+00
140  1.3900000000000D+00  0.0000000000000D+00  0.0000000000000D+00
141  1.4000000000000D+00  0.0000000000000D+00  0.0000000000000D+00
142  1.4100000000000D+00  0.0000000000000D+00  0.0000000000000D+00
143  1.4200000000000D+00  0.0000000000000D+00  0.0000000000000D+00
144  1.4300000000000D+00  0.0000000000000D+00  0.0000000000000D+00
145  1.4400000000000D+00  0.0000000000000D+00  0.0000000000000D+00
146  1.4500000000000D+00  0.0000000000000D+00  0.0000000000000D+00
147  1.4600000000000D+00  0.0000000000000D+00  0.0000000000000D+00
148  1.4700000000000D+00  0.0000000000000D+00  0.0000000000000D+00
149  1.4800000000000D+00  0.0000000000000D+00  0.0000000000000D+00
150  1.4900000000000D+00  0.0000000000000D+00  0.0000000000000D+00
151  1.5000000000000D+00  0.0000000000000D+00  0.0000000000000D+00
152  1.5100000000000D+00  0.0000000000000D+00  0.0000000000000D+00
153  1.5200000000000D+00  0.0000000000000D+00  0.0000000000000D+00
154  1.5300000000000D+00  0.0000000000000D+00  0.0000000000000D+00
155  1.5400000000000D+00  0.0000000000000D+00  0.0000000000000D+00
156  1.5500000000000D+00  0.0000000000000D+00  0.0000000000000D+00
157  1.5600000000000D+00  0.0000000000000D+00  0.0000000000000D+00
158  1.5700000000000D+00  0.0000000000000D+00  0.0000000000000D+00
159  1.5800000000000D+00  0.0000000000000D+00  0.0000000000000D+00
160  1.5900000000000D+00  0.0000000000000D+00  0.0000000000000D+00
161  1.6000000000000D+00  0.0000000000000D+00  0.0000000000000D+00
162  1.6100000000000D+00  0.0000000000000D+00  0.0000000000000D+00
163  1.6200000000000D+00  0.0000000000000D+00  0.0000000000000D+00
164  1.6300000000000D+00  0.0000000000000D+00  0.0000000000000D+00
165  1.6400000000000D+00  0.0000000000000D+00  0.0000000000000D+00
166  1.6500000000000D+00  0.0000000000000D+00  0.0000000000000D+00
167  1.6600000000000D+00  0.0000000000000D+00  0.0000000000000D+00
168  1.6700000000000D+00  0.0000000000000D+00  0.0000000000000D+00
169  1.6800000000000D+00  0.0000000000000D+00  0.0000000000000D+00
170  1.6900000000000D+00  0.0000000000000D+00  0.0000000000000D+00
171  1.7000000000000D+00  0.0000000000000D+00  0.0000000000000D+00
172  1.7100000000000D+00  0.0000000000000D+00  0.0000000000000D+00
173  1.7200000000000D+00  0.0000000000000D+00  0.0000000000000D+00
174  1.7300000000000D+00  0.0000000000000D+00  0.0000000000000D+00
175  1.7400000000000D+00  0.0000000000000D+00  0.0000000000000D+00
176  1.7500000000000D+00  0.0000000000000D+00  0.0000000000000D+00
177  1.7600000000000D+00  0.0000000000000D+00  0.0000000000000D+00
178  1.7700000000000D+00  0.0000000000000D+00  0.0000000000000D+00
179  1.7800000000000D+00  0.0000000000000D+00  0.0000000000000D+00
180  1.7900000000000D+00  0.0000000000000D+00  0.0000000000000D+00
181  1.8000000000000D+00  0.0000000000000D+00  0.0000000000000D+00
182  1.8100000000000D+00  0.0000000000000D+00  0.0000000000000D+00
183  1.8200000000000D+00  0.0000000000000D+00  0.0000000000000D+00
184  1.8300000000000D+00  0.0000000000000D+00  0.0000000000000D+00
185  1.8400000000000D+00  0.0000000000000D+00  0.0000000000000D+00
186  1.8500000000000D+00  0.0000000000000D+00  0.0000000000000D+00
187  1.8600000000000D+00  0.0000000000000D+00  0.0000000000000D+00
188  1.8700000000000D+00  0.0000000000000D+00  0.0000000000000D+00
189  1.8800000000000D+00  0.0000000000000D+00  0.0000000000000D+00
190  1.8900000000000D+00  0.0000000000000D+00  0.0000000000000D+00
191  1.9000000000000D+00  0.0000000000000D+00  0.0000000000000D+00
192  1.9100000000000D+00  0.0000000000000D+00  0.0000000000000D+00
193  1.9200000000000D+00  0.0000000000000D+00  0.0000000000000D+00
194  1.9300000000000D+00  0.0000000000000D+00  0.0000000000000D+00
195  1.9400000000000D+00  0.0000000000000D+00  0.0000000000000D+00
196  1.9500000000000D+00  0.0000000000000D+00  0.0000000000000D+00
197  1.9600000000000D+00  0.0000000000000D+00  0.0000000000000D+00
198  1.9700000000000D+00  0.0000000000000D+00  0.0000000000000D+00
199  1.9800000000000D+00  0.0000000000000D+00  0.0000000000000D+00
200  1.9900000000000D+00  0.0000000000000D+00  0.0000000000000D+00
201  2.0000000000000D+00  0.0000000000000D+00  0.0000000000000D+00
202  2.0100000000000D+00  0.0000000000000D+00  0.0000000000000D+00
203  2.0200000000000D+00  0.0000000000000D+00  0.0000000000000D+00
204  2.0300000000000D+00  0.0000000000000D+00  0.0000000000000D+00
205  2.0400000000000D+00  0.0000000000000D+00  0.0000000000000D+00
206  2.0500000000000D+00  0.0000000000000D+00  0.0000000000000D+00
207  2.0600000000000D+00  0.0000000000000D+00  0.0000000000000D+00
208  2.0700000000000D+00  0.0000000000000D+00  0.0000000000000D+00
209  2.0800000000000D+00  0.0000000000000D+00  0.0000000000000D+00
210  2.0900000000000D+00  0.0000000000000D+00  0.0000000000000D+00
211  2.1000000000000D+00  0.0000000000000D+00  0.0000000000000D+00
212  2.1100000000000D+00  0.0000000000000D+00  0.0000000000000D+00
213  2.1200000000000D+00  0.0000000000000D+00  0.0000000000000D+00
214  2.1300000000000D+00  0.0000000000000D+00  0.0000000000000D+00
215  2.1400000000000D+00  0.0000000000000D+00  0.0000000000000D+00
216  2.1500000000000D+00  0.0000000000000D+00  0.0000000000000D+00
217  2.1600000000000D+00  0.0000000000000D+00  0.0000000000000D+00
218  2.1700000000000D+00  0.0000000000000D+00  0.0000000000000D+00
219  2.1800000000000D+00  0.0000000000000D+00  0.0000000000000D+00
220  2.1900000000000D+00  0.0000000000000D+00  0.0000000000000D+00
221  2.2000000000000D+00  0.0000000000000D+00  0.0000000000000D+00
222  2.2100000000000D+00  0.0000000000000D+00  0.0000000000000D+00
223  2.2200000000000D+00  0.0000000000000D+00  0.0000000000000D+00
224  2.2300000000000D+00  0.0000000000000D+00  0.0000000000000D+00
225  2.2400000000000D+00  0.0000000000000D+00  0.0000000000000D+00
226  2.2500000000000D+00  0.0000000000000D+00  0.0000000000000D+00
227  2.2600000000000D+00  0.0000000000000D+00  0.0000000000000D+00
228  2.2700000000000D+00  0.0000000000000D+00  0.0000000000000D+00
229  2.2800000000000D+00  0.0000000000000D+00  0.0000000000000D+00
230  2.2900000000000D+00  0.0000000000000D+00  0.0000000000000D+00
231  2.3000000000000D+00  0.0000000000000D+00  0.0000000000000D+00
232  2.3100000000000D+00  0.0000000000000D+00  0.0000000000000D+00
233  2.3200000000000D+00  0.0000000000000D+00  0.0000000000000D+00
234  2.3300000000000D+00  0.0000000000000D+00  0.0000000000000D+00
235  2.3400000000000D+00  0.0000000000000D+00  0.0000000000000D+00
236  2.3500000000000D+00  0.0000000000000D+00  0.0000000000000D+00
237  2.3600000000000D+00  0.0000000000000D+00  0.0000000000000D+00
238  2.3700000000000D+00  0.0000000000000D+00  0.0000000000000D+00
239  2.3800000000000D+00  0.0000000000000D+00  0.0000000000000D+00
240  2.3900000000000D+00  0.0000000000000D+00  0.0000000000000D+00
241  2.4000000000000D+00  0.0000000000000D+00  0.0000000000000D+00
242  2.4100000000000D+00  0.0000000000000D+00  0.0000000000000D+00
243  2.4200000000000D+00  0.0000000000000D+00  0.0000000000000D+00
244  2.4300000000000D+00  0.0000000000000D+00  0.0000000000000D+00
245  2.4400000000000D+00  0.0000000000000D+00  0.0000000000000D+00
246  2.4500000000000D+00  0.0000000000000D+00  0.0000000000000D+00
247  2.4600000000000D+00  0.0000000000000D+00  0.0000000000000D+00
248  2.4700000000000D+00  0.0000000000000D+00  0.0000000000000D+00
249  2.4800000000000D+00  0.0000000000000D+00  0.0000000000000D+00
250  2.4900000000000D+00  0.0000000000000D+00  0.0000000000000D+00
251  2.5000000000000D+00  0.0000000000000D+00  0.0000000000000D+00
252  2.5100000000000D+00  0.0000000000000D+00  0.0000000000000D+00
253  2.5200000000000D+00  0.0000000000000D+00  0.0000000000000D+00
254  2.5300000000000D+00  0.0000000000000D+00  0.0000000000000D+00
255  2.5400000000000D+00  0.0000000000000D+00  0.0000000000000D+00
256  2.5500000000000D+00  0.0000000000000D+00  0.0000000000000D+00
257  2.5600000000000D+00  0.0000000000000D+00  0.0000000000000D+00
258  2.5700000000000D+00  0.0000000000000D+00  0.0000000000000D+00
259  2.5800000000000D+00  0.0000000000000D+00  0.0000000000000D+00
260  2.5900000000000D+00  0.0000000000000D+00  0.0000000000000D+00
261  2.6000000000000D+00  0.0000000000000D+00  0.0000000000000D+00
262  2.6100000000000D+00  0.0000000000000D+00  0.0000000000000D+00
263  2.6200000000000D+00  0.0000000000000D+00  0.0000000000000D+00
264  2.6300000000000D+00  0.0000000000000D+00  0.0000000000000D+00
265  2.6400000000000D+00  0.0000000000000D+00  0.0000000000000D+00
266  2.6500000000000D+00  0.0000000000000D+00  0.0000000000000D+00
267  2.6600000000000D+00  0.0000000000000D+00  0.0000000000000D+00
268  2.6700000000000D+00  0.0000000000000D+00  0.0000000000000D+00
269  2.6800000000000D+00  0.0000000000000D+00  0.0000000000000D+00
270  2.6900000000000D+00  0.0000000000000D+00  0.0000000000000D+00
271  2.7000000000000D+00  0.0000000000000D+00  0.0000000000000D+00
272  2.7100000000000D+00  0.0000000000000D+00  0.0000000000000D+00
273  2.7200000000000D+00  0.0000000000000D+00  0.0000000000000D+00
274  2.7300000000000D+00  0.0000000000000D+00  0.0000000000000D+00
275  2.7400000000000D+00  0.0000000000000D+00  0.0000000000000D+00
276  2.7500000000000D+00  0.0000000000000D+00  0.0000000000000D+00
277  2.7600000000000D+00  0.0000000000000D+00  0.0000000000000D+00
278  2.7700000000000D+00  0.0000000000000D+00  0.0000000000000D+00
279  2.7800000000000D+00  0.0000000000000D+00  0.0000000000000D+00
280  2.7900000000000D+00  0.0000000000000D+00  0.0000000000000D+00
281  2.8000000000000D+00  0.0000000000000D+00  0.0000000000000D+00
282  2.8100000000000D+00  0.0000000000000D+00  0.0000000000000D+00
283  2.8200000000000D+00  0.0000000000000D+00  0.0000000000000D+00
284  2.8300000000000D+00  0.0000000000000D+00  0.0000000000000D+00
285  2.8400000000000D+00  0.0000000000000D+00  0.0000000000000D+00
286  2.8500000000000D+00  0.0000000000000D+00  0.0000000000000D+00
287  2.8600000000000D+00  0.0000000000000D+00  0.0000000000000D+00
288  2.8700000000000D+00  0.0000000000000D+00  0.0000000000000D+00
289  2.8800000000000D+00  0.0000000000000D+00  0.0000000000000D+00
290  2.8900000000000D+00  0.0000000000000D+00  0.0000000000000D+00
291  2.9000000000000D+00  0.0000000000000D+00  0.0000000000000D+00
292  2.9100000000000D+00  0.0000000000000D+00  0.0000000000000D+00
293  2.9200000000000D+00  0.0000000000000D+00  0.0000000000000D+00
294  2.9300000000000D+00  0.0000000000000D+00  0.0000000000000D+00
295  2.9400000000000D+00  0.0000000000000D+00  0.0000000000000D+00
296  2.9500000000000D+00  0.0000000000000D+00  0.0000000000000D+00
297  2.9600000000000D+00  0.0000000000000D+00  0.0000000000000D+00
298  2.9700000000000D+00  0.0000000000000D+00  0.0000000000000D+00
299  2.9800000000000D+00  0.0000000000000D+00  0.0000000000000D+00
300  2.9900000000000D+00  0.0000000000000D+00  0.0000000000000D+00
301  3.0000000000000D+00  0.0000000000000D+00  0.0000000000000D+00
302  3.0100000000000D+00  0.0000000000000D+00  0.0000000000000D+00
303  3.0200000000000D+00  0.0000000000000D+00  0.0000000000000D+00
304  3.0300000000000D+00  0.0000000000000D+00  0.0000000000000D+00
305  3.0400000000000D+00  0.0000000000000D+00  0.0000000000000D+00
306  3.0500000000000D+00  0.0000000000000D+00  0.0000000000000D+00
307  3.0600000000000D+00  0.0000000000000D+00  0.0000000000000D+00
308  3.0700000000000D+00  0.0000000000000D+00  0.0000000000000D+00
309  3.0800000000000D+00  0.0000000000000D+00  0.0000000000000D+00
310  3.0900000000000D+00  0.0000000000000D+00  0.0000000000000D+00
311  3.1000000000000D+00  0.0000000000000D+00  0.0000000000000D+00
312  3.1100000000000D+00  0.0000000000000D+00  0.0000000000000D+00
313  3.1200000000000D+00  0.0000000000000D+00  0.0000000000000D+00
314  3.1300000000000D+00  0.0000000000000D+00  0.0000000000000D+00
315  3.1400000000000D+00  0.0000000000000D+00  0.0000000000000D+00
316  3.1500000000000D+00  0.0000000000000D+00  0.0000000000000D+00
317  3.1600000000000D+00  0.0000000000000D+00  0.0000000000000D+00
318  3.1700000000000D+00  0.0000000000000D+00  0.0000000000000D+00
319  3.1800000000000D+00  0.0000000000000D+00  0.0000000000000D+00
320  3.1900000000000D+00  0.0000000000000D+00  0.0000000000000D+00
321  3.2000000000000D+00  0.0000000000000D+00  0.0000000000000D+00
322  3.2100000000000D+00  0.0000000000000D+00  0.0000000000000D+00
323  3.2200000000000D+00  0.0000000000000D+00  0.0000000000000D+00
324  3.2300000000000D+00  0.0000000000000D+00  0.0000000000000D+00
325  3.2400000000000D+00  0.0000000000000D+00  0.0000000000000D+00
326  3.2500000000000D+00  0.0000000000000D+00  0.0000000000000D+00
327  3.2600000000000D+00  0.0000000000000D+00  0.0000000000000D+00
328  3.2700000000000D+00  0.0000000000000D+00  0.0000000000000D+00
329  3.2800000000000D+00  0.0000000000000D+00  0.0000000000000D+00
330  3.2900000000000D+00  0.0000000000000D+00  0.0000000000000D+00
331  3.3000000000000D+00  0.0000000000000D+00  0.0000000000000D+00
332  3.3100000000000D+00  0.0000000000000D+00  0.0000000000000D+00
333  3.3200000000000D+00  0.0000000000000D+00  0.0000000000000D+00
334  3.3300000000000D+00  0.0000000000000D+00  0.0000000000000D+00
335  3.3400000000000D+00  0.0000000000000D+00  0.0000000000000D+00
336  3.3500000000000D+00  0.0000000000000D+00  0.0000000000000D+00
337  3.3600000000000D+00  0.0000000000000D+00  0.0000000000000D+00
338  3.3700000000000D+00  0.0000000000000D+00  0.0000000000000D+00
339  3.3800000000000D+00  0.0000000000000D+00  0.0000000000000D+00
340  3.3900000000000D+00  0.0000000000000D+00  0.0000000000000D+00
341  3.4000000000000D+00  0.0000000000000D+00  0.0000000000000D+00
342  3.4100000000000D+00  0.0000000000000D+00  0.0000000000000D+00
343  3.4200000000000D+00  0.0000000000000D+00  0.0000000000000D+00
344  3.4300000000000D+00  0.0000000000000D+00  0.0000000000000D+00
345  3.4400000000000D+00  0.0000000000000D+00  0.0000000000000D+00
346  3.4500000000000D+00  0.0000000000000D+00  0.0000000000000D+00
347  3.4600000000000D+00  0.0000000000000D+00  0.0000000000000D+00
348  3.4700000000000D+00  0.0000000000000D+00  0.0000000000000D+00
349  3.4800000000000D+00  0.0000000000000D+00  0.0000000000000D+00
350  3.4900000000000D+00  0.0000000000000D+00  0.0000000000000D+00
351  3.5000000000000D+00  0.0000000000000D+00  0.0000000000000D+00
352  3.5100000000000D+00  0.0000000000000D+00  0.0000000000000D+00
353  3.5200000000000D+00  0.0000000000000D+00  0.0000000000000D+00
354  3.5300000000000D+00  0.0000000000000D+00  0.0000000000000D+00
355  3.5400000000000D+00  0.0000000000000D+00  0.0000000000000D+00
356  3.5500000000000D+00  0.0000000000000D+00  0.0000000000000D+00
357  3.5600000000000D+00  0.0000000000000D+00  0.0000000000000D+00
358  3.5700000000000D+00  0.0000000000000D+00  0.0000000000000D+00
359  3.5800000000000D+00  0.0000000000000D+00  0.0000000000000D+00
360  3.5900000000000D+00  0.0000000000000D+00  0.0000000000000D+00
361  3.6000000000000D+00  0.0000000000000D+00  0.0000000000000D+00
362  3.6100000000000D+00  0.0000000000000D+00  0.0000000000000D+00
363  3.6200000000000D+00  0.0000000000000D+00  0.0000000000000D+00
364  3.6300000000000D+00  0.0000000000000D+00  0.0000000000000D+00
365  3.6400000000000D+00  0.0000000000000D+00  0.0000000000000D+00
366  3.6500000000000D+00  0.0000000000000D+00  0.0000000000000D+00
367  3.6600000000000D+00  0.0000000000000D+00  0.0000000000000D+00
368  3.6700000000000D+00  0.0000000000000D+00  0.0000000000000D+00
369  3.6800000000000D+00  0.0000000000000D+00  0.0000000000000D+00
370  3.6900000000000D+00  0.0000000000000D+00  0.0000000000000D+00
371  3.7000000000000D+00  0.0000000000000D+00  0.0000000000000D+00
372  3.7100000000000D+00  0.0000000000000D+00  0.0000000000000D+00
373  3.7200000000000D+00  0.0000000000000D+00  0.0000000000000D+00
374  3.7300000000000D+00  0.0000000000000D+00  0.0000000000000D+00
375  3.7400000000000D+00  0.0000000000000D+00  0.0000000000000D+00
376  3.7500000000000D+00  0.0000000000000D+00  0.0000000000000D+00
377  3.7600000000000D+00  0.0000000000000D+00  0.0000000000000D+00
378  3.7700000000000D+00  0.0000000000000D+00  0.0000000000000D+00
379  3.7800000000000D+00  0.0000000000000D+00  0.0000000000000D+00
380  3.7900000000000D+00  0.0000000000000D+00  0.0000000000000D+00
381  3.8000000000000D+00  0.0000000000000D+00  0.0000000000000D+00
382  3.8100000000000D+00  0.0000000000000D+00  0.0000000000000D+00
383  3.8200000000000D+00  0.0000000000000D+00  0.0000000000000D+00
384  3.8300000000000D+00  0.0000000000000D+00  0.0000000000000D+00
385  3.8400000000000D+00  0.0000000000000D+00  0.0000000000000D+00
386  3.8500000000000D+00  0.0000000000000D+00  0.0000000000000D+00
387  3.8600000000000D+00  0.0000000000000D+00  0.0000000000000D+00
388  3.8700000000000D+00  0.0000000000000D+00  0.0000000000000D+00
389  3.8800000000000D+00  0.0000000000000D+00  0.0000000000000D+00
390  3.8900000000000D+00  0.0000000000000D+00  0.0000000000000D+00
391  3.9000000000000D+00  0.0000000000000D+00  0.0000000000000D+00
392  3.9100000000000D+00  0.0000000000000D+00  0.0000000000000D+00
393  3.9200000000000D+00  0.0000000000000D+00  0.0000000000000D+00
394  3.9300000000000D+00  0.0000000000000D+00  0.0000000000000D+00
395  3.9400000000000D+00  0.0000000000000D+00  0.0000000000000D+00
396  3.9500000000000D+00  0.0000000000000D+00  0.0000000000000D+00
397  3.9600000000000D+00  0.0000000000000D+00  0.0000000000000D+00
398  3.9700000000000D+00  0.0000000000000D+00  0.0000000000000D+00
399  3.9800000000000D+00  0.0000000000000D+00  0.0000000000000D+00
400  3.9900000000000D+00  0.0000000000000D+00  0.0000000000000D+00
401  4.0000000000000D+00  0.0000000000000D+00  0.0000000000000D+00
402  4.0100000000000D+00  0.0000000000000D+00  0.0000000000000D+00
403  4.0200000000000D+00  0.0000000000000D+00  0.0000000000000D+00
404  4.0300000000000D+00  0.0000000000000D+00  0.0000000000000D+00
405  4.0400000000000D+00  0.0000000000000D+00  0.0000000000000D+00
406  4.0500000000000D+00  0.0000000000000D+00  0.0000000000000D+00
407  4.0600000000000D+00  0.0000000000000D+00  0.0000000000000D+00
408  4.0700000000000D+00  0.0000000000000D+00  0.0000000000000D+00
409  4.0800000000000D+00  0.0000000000000D+00  0.0000000000000D+00
410  4.0900000000000D+00  0.0000000000000D+00  0.0000000000000D+00
411  4.1000000000000D+00  0.0000000000000D+00  0.0000000000000D+00
412  4.1100000000000D+00  0.0000000000000D+00  0.0000000000000D+00
413  4.1200000000000D+00  0.0000000000000D+00  0.0000000000000D+00
414  4.1300000000000D+00  0.0000000000000D+00  0.0000000000000D+00
415  4.1400000000000D+00  0.0000000000000D+00  0.0000000000000D+00
416  4.1500000000000D+00  0.0000000000000D+00  0.0000000000000D+00
417  4.1600000000000D+00  0.0000000000000D+00  0.0000000000000D+00
418  4.1700000000000D+00  0.0000000000000D+00  0.0000000000000D+00
419  4.1800000000000D+00  0.0000000000000D+00  0.0000000000000D+00
420  4.1900000000000D+00  0.0000000000000D+00  0.0000000000000D+00
421  4.2000000000000D+00  0.0000000000000D+00  0.0000000000000D+00
422  4.2100000000000D+00  0.0000000000000D+00  0.0000000000000D+00
423  4.2200000000000D+00  0.0000000000000D+00  0.0000000000000D+00
424  4.2300000000000D+00  0.0000000000000D+00  0.0000000000000D+00
425  4.2400000000000D+00  0.0000000000000D+00  0.0000000000000D+00
426  4.2500000000000D+00  0.0000000000000D+00  0.0000000000000D+00
427  4.2600000000000D+00  0.0000000000000D+00  0.0000000000000D+00
428  4.2700000000000D+00  0.0000000000000D+00  0.0000000000000D+00
429  4.2800000000000D+00  0.0000000000000D+00  0.0000000000000D+00
430  4.2900000000000D+00  0.0000000000000D+00  0.0000000000000D+00
431  4.3000000000000D+00  0.0000000000000D+00  0.0000000000000D+00
432  4.3100000000000D+00  0.0000000000000D+00  0.0000000000000D+00
433  4.3200000000000D+00  0.0000000000000D+00  0.0000000000000D+00
434  4.3300000000000D+00  0.0000000000000D+00  0.0000000000000D+00
435  4.3400000000000D+00  0.0000000000000D+00  0.0000000000000D+00
436  4.3500000000000D+00  0.0000000000000D+00  0.0000000000000D+00
437  4.3600000000000D+00  0.0000000000000D+00  0.0000000000000D+00
438  4.3700000000000D+00  0.0000000000000D+00  0.0000000000000D+00
439  4.3800000000000D+00  0.0000000000000D+00  0.0000000000000D+00
440  4.3900000000000D+00  0.0000000000000D+00  0.0000000000000D+00
441  4.4000000000000D+00  0.0000000000000D+00  0.0000000000000D+00
442  4.4100000000000D+00  0.0000000000000D+00  0.0000000000000D+00
443  4.4200000000000D+00  0.0000000000000D+00  0.0000000000000D+00
444  4.4300000000000D+00  0.0000000000000D+00  0.0000000000000D+00