Te    ONCVPSP-3.2.3.1  r_core=   2.40470   2.21206   2.61411
52.0000      6.0000      170428    zatom,zion,pspd
8      11   2     4   600     0    pspcod,pspxc,lmax,lloc,mmax,r2well
5.99000000  9.00000000  0.00000000    rchrg fchrg qchrg
2     2     2     0     0    nproj
1     1           extension_switch
0                         4.4705518945495D+00  4.0951328464794D-01
1  0.0000000000000D+00 -1.0246914428080D-11  4.5094844525195D-11
2  1.0000000000000D-02  2.4984479628954D-02 -1.1640218201615D-02
3  2.0000000000000D-02  4.9946796074258D-02 -2.3215448321567D-02
4  3.0000000000000D-02  7.4864871557286D-02 -3.4661082932139D-02
5  4.0000000000000D-02  9.9716798628828D-02 -4.5913273764240D-02
6  5.0000000000000D-02  1.2448092413480D-01 -5.6909305924918D-02
7  6.0000000000000D-02  1.4913593175042D-01 -6.7587965712640D-02
8  7.0000000000000D-02  1.7366092261767D-01 -7.7889899949217D-02
9  8.0000000000000D-02  1.9803549363121D-01 -8.7757964792362D-02
10  9.0000000000000D-02  2.2223981293048D-01 -9.7137562048767D-02
11  1.0000000000000D-01  2.4625469217093D-01 -1.0597696107405D-01
12  1.1000000000000D-01  2.7006165516477D-01 -1.1422760442260D-01
13  1.2000000000000D-01  2.9364300250104D-01 -1.2184439549697D-01
14  1.3000000000000D-01  3.1698187177701D-01 -1.2878596654219D-01
15  1.4000000000000D-01  3.4006229309632D-01 -1.3501492543535D-01
16  1.5000000000000D-01  3.6286923951522D-01 -1.4049807983407D-01
17  1.6000000000000D-01  3.8538867214564D-01 -1.4520663736819D-01
18  1.7000000000000D-01  4.0760757965297D-01 -1.4911638068762D-01
19  1.8000000000000D-01  4.2951401191696D-01 -1.5220781631351D-01
20  1.9000000000000D-01  4.5109710765618D-01 -1.5446629638110D-01
21  2.0000000000000D-01  4.7234711584924D-01 -1.5588211250773D-01
22  2.1000000000000D-01  4.9325541082046D-01 -1.5645056116993D-01
23  2.2000000000000D-01  5.1381450089201D-01 -1.5617198012715D-01
24  2.3000000000000D-01  5.3401803054057D-01 -1.5505175558632D-01
25  2.4000000000000D-01  5.5386077603200D-01 -1.5310029995974D-01
26  2.5000000000000D-01  5.7333863454401D-01 -1.5033300022906D-01
27  2.6000000000000D-01  5.9244860682302D-01 -1.4677013708777D-01
28  2.7000000000000D-01  6.1118877345747D-01 -1.4243677519480D-01
29  2.8000000000000D-01  6.2955826488570D-01 -1.3736262503010D-01
30  2.9000000000000D-01  6.4755722529203D-01 -1.3158187699950D-01
31  3.0000000000000D-01  6.6518677057895D-01 -1.2513300858959D-01
32  3.1000000000000D-01  6.8244894063769D-01 -1.1805856552328D-01
33  3.2000000000000D-01  6.9934664617160D-01 -1.1040491801181D-01
34  3.3000000000000D-01  7.1588361035868D-01 -1.0222199333912D-01
35  3.4000000000000D-01  7.3206430566970D-01 -9.3562986148436D-02
36  3.5000000000000D-01  7.4789388618683D-01 -8.4484047928231D-02
37  3.6000000000000D-01  7.6337811579458D-01 -7.5043957314705D-02
38  3.7000000000000D-01  7.7852329264010D-01 -6.5303772939620D-02
39  3.8000000000000D-01  7.9333617028255D-01 -5.5326470655610D-02
40  3.9000000000000D-01  8.0782387597250D-01 -4.5176567064989D-02
41  4.0000000000000D-01  8.2199382652093D-01 -3.4919731362497D-02
42  4.1000000000000D-01  8.3585364223334D-01 -2.4622387575938D-02
43  4.2000000000000D-01  8.4941105939895D-01 -1.4351309352593D-02
44  4.3000000000000D-01  8.6267384183590D-01 -4.1732094911480D-03
45  4.4000000000000D-01  8.7564969200202D-01  5.8456735399397D-03
46  4.5000000000000D-01  8.8834616218723D-01  1.5639989827396D-02
47  4.6000000000000D-01  9.0077056630651D-01  2.5145690693556D-02
48  4.7000000000000D-01  9.1292989281331D-01  3.4300437538894D-02
49  4.8000000000000D-01  9.2483071925099D-01  4.3044004559648D-02
50  4.9000000000000D-01  9.3647912895496D-01  5.1318673072067D-02
51  5.0000000000000D-01  9.4788063041059D-01  5.9069615205227D-02
52  5.1000000000000D-01  9.5904007976153D-01  6.6245264767056D-02
53  5.2000000000000D-01  9.6996160694988D-01  7.2797673141992D-02
54  5.3000000000000D-01  9.8064854595414D-01  7.8682848145093D-02
55  5.4000000000000D-01  9.9110336957237D-01  8.3861073833689D-02
56  5.5000000000000D-01  1.0013276291771D+00  8.8297209366342D-02
57  5.6000000000000D-01  1.0113218998457D+00  9.1960965096949D-02
58  5.7000000000000D-01  1.0210857312438D+00  9.4827154200346D-02
59  5.8000000000000D-01  1.0306176046126D+00  9.6875918244539D-02
60  5.9000000000000D-01  1.0399148961794D+00  9.8092925250785D-02
61  6.0000000000000D-01  1.0489738472815D+00  9.8469538919549D-02
62  6.1000000000000D-01  1.0577895414579D+00  9.8002957842687D-02
63  6.2000000000000D-01  1.0663558887296D+00  9.6696323673270D-02
64  6.3000000000000D-01  1.0746656172514D+00  9.4558797380861D-02
65  6.4000000000000D-01  1.0827102724837D+00  9.1605602882430D-02
66  6.5000000000000D-01  1.0904802239881D+00  8.7858037506079D-02
67  6.6000000000000D-01  1.0979646799175D+00  8.3343448916151D-02
68  6.7000000000000D-01  1.1051517092272D+00  7.8095178301255D-02
69  6.8000000000000D-01  1.1120282715921D+00  7.2152469804149D-02
70  6.9000000000000D-01  1.1185802549778D+00  6.5560346349208D-02
71  7.0000000000000D-01  1.1247925207676D+00  5.8369452201195D-02
72  7.1000000000000D-01  1.1306489563107D+00  5.0635862766175D-02
73  7.2000000000000D-01  1.1361325347131D+00  4.2420862321757D-02
74  7.3000000000000D-01  1.1412253816537D+00  3.3790690536943D-02
75  7.4000000000000D-01  1.1459088489701D+00  2.4816258812127D-02
76  7.5000000000000D-01  1.1501635947184D+00  1.5572837636030D-02
77  7.6000000000000D-01  1.1539696693753D+00  6.1397163166366D-03
78  7.7000000000000D-01  1.1573066078150D+00 -3.4001634003643D-03
79  7.8000000000000D-01  1.1601535266592D+00 -1.2960598165573D-02
80  7.9000000000000D-01  1.1624892265663D+00 -2.2452536510147D-02
81  8.0000000000000D-01  1.1642922989958D+00 -3.1784513046396D-02
82  8.1000000000000D-01  1.1655412369549D+00 -4.0863101327517D-02
83  8.2000000000000D-01  1.1662145492093D+00 -4.9593383195468D-02
84  8.3000000000000D-01  1.1662908774159D+00 -5.7879432342804D-02
85  8.4000000000000D-01  1.1657491156157D+00 -6.5624809722603D-02
86  8.5000000000000D-01  1.1645685315040D+00 -7.2733068359524D-02
87  8.6000000000000D-01  1.1627288888833D+00 -7.9108265046781D-02
88  8.7000000000000D-01  1.1602105706884D+00 -8.4655476357867D-02
89  8.8000000000000D-01  1.1569947019670D+00 -8.9281316358310D-02
90  8.9000000000000D-01  1.1530632721886D+00 -9.2894453373102D-02
91  9.0000000000000D-01  1.1483992562561D+00 -9.5406123148505D-02
92  9.1000000000000D-01  1.1429867335894D+00 -9.6730635743956D-02
93  9.2000000000000D-01  1.1368110046573D+00 -9.6785873500375D-02
94  9.3000000000000D-01  1.1298587043376D+00 -9.5493777455323D-02
95  9.4000000000000D-01  1.1221179114965D+00 -9.2780819613682D-02
96  9.5000000000000D-01  1.1135782541891D+00 -8.8578458533795D-02
97  9.6000000000000D-01  1.1042310099011D+00 -8.2823575753822D-02
98  9.7000000000000D-01  1.0940692002671D+00 -7.5458890661164D-02
99  9.8000000000000D-01  1.0830876797264D+00 -6.6433351499930D-02
100  9.9000000000000D-01  1.0712832175987D+00 -5.5702500311211D-02
101  1.0000000000000D+00  1.0586545730909D+00 -4.3228809720213D-02
102  1.0100000000000D+00  1.0452025627775D+00 -2.8981989608742D-02
103  1.0200000000000D+00  1.0309301201264D+00 -1.2939261849617D-02
104  1.0300000000000D+00  1.0158423466801D+00  4.9143985729674D-03
105  1.0400000000000D+00  9.9994655453980D-01  2.4586057573463D-02
106  1.0500000000000D+00  9.8325229983465D-01  4.6074652458036D-02
107  1.0600000000000D+00  9.6577140690572D-01  6.9370860081681D-02
108  1.0700000000000D+00  9.4751798297259D-01  9.4457003660466D-02
109  1.0800000000000D+00  9.2850842309700D-01  1.2130699905150D-01
110  1.0900000000000D+00  9.0876140530372D-01  1.4988634111098D-01
111  1.1000000000000D+00  8.8829787576389D-01  1.8015213055291D-01
112  1.1100000000000D+00  8.6714102399338D-01  2.1205314152960D-01
113  1.1200000000000D+00  8.4531624806969D-01  2.4552992994005D-01
114  1.1300000000000D+00  8.2285110991624D-01  2.8051498227979D-01
115  1.1400000000000D+00  7.9977528075448D-01  3.1693290462862D-01
116  1.1500000000000D+00  7.7612047686441D-01  3.5470065120113D-01
117  1.1600000000000D+00  7.5192038585397D-01  3.9372779163334D-01
118  1.1700000000000D+00  7.2721058367777D-01  4.3391681600887D-01
119  1.1800000000000D+00  7.0202844269186D-01  4.7516347643257D-01
120  1.1900000000000D+00  6.7641303107502D-01  5.1735716377610D-01
121  1.2000000000000D+00  6.5040500399763D-01  5.6038131800459D-01
122  1.2100000000000D+00  6.2404648696067D-01  6.0411387032075D-01
123  1.2200000000000D+00  5.9738095175154D-01  6.4842771525995D-01
124  1.2300000000000D+00  5.7045308552616D-01  6.9319121060642D-01
125  1.2400000000000D+00  5.4330865355111D-01  7.3826870289883D-01
126  1.2500000000000D+00  5.1599435616564D-01  7.8352107618490D-01
127  1.2600000000000D+00  4.8855768056679D-01  8.2880632150162D-01
128  1.2700000000000D+00  4.6104674804952D-01  8.7398012444097D-01
129  1.2800000000000D+00  4.3351015734561D-01  9.1889646810978D-01
130  1.2900000000000D+00  4.0599682473946D-01  9.6340824865087D-01
131  1.3000000000000D+00  3.7855582165950D-01  1.0073679004096D+00
132  1.3100000000000D+00  3.5123621044580D-01  1.0506280278213D+00
133  1.3200000000000D+00  3.2408687902194D-01  1.0930420409840D+00
134  1.3300000000000D+00  2.9715637520062D-01  1.1344647918797D+00
135  1.3400000000000D+00  2.7049274135534D-01  1.1747532081936D+00
136  1.3500000000000D+00  2.4414335020270D-01  1.2137669216378D+00
137  1.3600000000000D+00  2.1815474241855D-01  1.2513688877789D+00
138  1.3700000000000D+00  1.9257246683384D-01  1.2874259942717D+00
139  1.3800000000000D+00  1.6744092391670D-01  1.3218096545818D+00
140  1.3900000000000D+00  1.4280321324961D-01  1.3543963842637D+00
141  1.4000000000000D+00  1.1870098571234D-01  1.3850683568631D+00
142  1.4100000000000D+00  9.5174300999612D-02  1.4137139368661D+00
143  1.4200000000000D+00  7.2261491175985D-02  1.4402281867973D+00
144  1.4300000000000D+00  4.9999030845311D-02  1.4645133461219D+00
145  1.4400000000000D+00  2.8421414534446D-02  1.4864792795019D+00
146  1.4500000000000D+00  7.5610418951954D-03  1.5060438919453D+00
147  1.4600000000000D+00 -1.2551888854087D-02  1.5231335091781D+00
148  1.4700000000000D+00 -3.1889478619941D-02  1.5376832206742D+00
149  1.4800000000000D+00 -5.0426215957644D-02  1.5496371841992D+00
150  1.4900000000000D+00 -6.8139055924019D-02  1.5589488898391D+00
151  1.5000000000000D+00 -8.5007488935859D-02  1.5655813822717D+00
152  1.5100000000000D+00 -1.0101359937558D-01  1.5695074403110D+00
153  1.5200000000000D+00 -1.1614211354205D-01  1.5707097121417D+00
154  1.5300000000000D+00 -1.3038043696869D-01  1.5691808064823D+00
155  1.5400000000000D+00 -1.4371868064750D-01  1.5649233378394D+00
156  1.5500000000000D+00 -1.5614967637779D-01  1.5579499269349D+00
157  1.5600000000000D+00 -1.6766898088542D-01  1.5482831549296D+00
158  1.5700000000000D+00 -1.7827486895330D-01  1.5359554726161D+00
159  1.5800000000000D+00 -1.8796831544354D-01  1.5210090642103D+00
160  1.5900000000000D+00 -1.9675296641078D-01  1.5034956667354D+00
161  1.6000000000000D+00 -2.0463509944554D-01  1.4834763457302D+00
162  1.6100000000000D+00 -2.1162357339881D-01  1.4610212280695D+00
163  1.6200000000000D+00 -2.1772976787547D-01  1.4362091936822D+00
164  1.6300000000000D+00 -2.2296751261100D-01  1.4091275268038D+00
165  1.6400000000000D+00 -2.2735300733961D-01  1.3798715294724D+00
166  1.6500000000000D+00 -2.3090473225507D-01  1.3485440978583D+00
167  1.6600000000000D+00 -2.3364334985041D-01  1.3152552648755D+00
168  1.6700000000000D+00 -2.3559159825643D-01  1.2801217097514D+00
169  1.6800000000000D+00 -2.3677417699080D-01  1.2432662385159D+00
170  1.6900000000000D+00 -2.3721762529229D-01  1.2048172363285D+00
171  1.7000000000000D+00 -2.3695019401955D-01  1.1649080958621D+00
172  1.7100000000000D+00 -2.3600171137978D-01  1.1236766230610D+00
173  1.7200000000000D+00 -2.3440344347526D-01  1.0812644244949D+00
174  1.7300000000000D+00 -2.3218795005557D-01  1.0378162781563D+00
175  1.7400000000000D+00 -2.2938893641790D-01  9.9347949169864D-01
176  1.7500000000000D+00 -2.2604110198710D-01  9.4840325057338D-01
177  1.7600000000000D+00 -2.2217998643030D-01  9.0273795966845D-01
178  1.7700000000000D+00 -2.1784181398358D-01  8.5663458151273D-01
179  1.7800000000000D+00 -2.1306333674061D-01  8.1024397419143D-01
180  1.7900000000000D+00 -2.0788167769565D-01  7.6371623249351D-01
181  1.8000000000000D+00 -2.0233417420772D-01  7.1720003509091D-01
182  1.8100000000000D+00 -1.9645822271559D-01  6.7084200136991D-01
183  1.8200000000000D+00 -1.9029112536250D-01  6.2478606071687D-01
184  1.8300000000000D+00 -1.8386993926105D-01  5.7917283736283D-01
185  1.8400000000000D+00 -1.7723132918699D-01  5.3413905421393D-01
186  1.8500000000000D+00 -1.7041142413469D-01  4.8981695737007D-01
187  1.8600000000000D+00 -1.6344567885019D-01  4.4633376626341D-01
188  1.8700000000000D+00 -1.5636874024366D-01  4.0381114868916D-01
189  1.8800000000000D+00 -1.4921432025563D-01  3.6236472772781D-01
190  1.8900000000000D+00 -1.4201507460511D-01  3.2210361770548D-01
191  1.9000000000000D+00 -1.3480248908361D-01  2.8312999655018D-01
192  1.9100000000000D+00 -1.2760677289235D-01  2.4553871205253D-01
193  1.9200000000000D+00 -1.2045676016198D-01  2.0941692697047D-01
194  1.9300000000000D+00 -1.1337981978607D-01  1.7484380337616D-01
195  1.9400000000000D+00 -1.0640177364116D-01  1.4189022637197D-01
196  1.9500000000000D+00 -9.9546824436983D-02  1.1061857256044D-01
197  1.9600000000000D+00 -9.2837491822801D-02  8.1082516937094D-02
198  1.9700000000000D+00 -8.6294559097887D-02  5.3326888495339D-02
199  1.9800000000000D+00 -7.9937028481782D-02  2.7387565255670D-02
200  1.9900000000000D+00 -7.3782086781320D-02  3.2914167001362D-03
201  2.0000000000000D+00 -6.7845080588454D-02 -1.8943710410297D-02
202  2.0100000000000D+00 -6.2139500922952D-02 -3.9308963400604D-02
203  2.0200000000000D+00 -5.6676978387913D-02 -5.7804407690194D-02
204  2.0300000000000D+00 -5.1467286704695D-02 -7.4438913040207D-02
205  2.0400000000000D+00 -4.6518356959721D-02 -8.9229991952470D-02
206  2.0500000000000D+00 -4.1836300105011D-02 -1.0220360121331D-01
207  2.0600000000000D+00 -3.7425438774083D-02 -1.1339390211068D-01
208  2.0700000000000D+00 -3.3288348077553D-02 -1.2284298098618D-01
209  2.0800000000000D+00 -2.9425903759295D-02 -1.3060053738805D-01
210  2.0900000000000D+00 -2.5837339485944D-02 -1.3672353229655D-01
211  2.1000000000000D+00 -2.2520310541384D-02 -1.4127580848827D-01
212  2.1100000000000D+00 -1.9470965051212D-02 -1.4432767836803D-01
213  2.1200000000000D+00 -1.6684021775330D-02 -1.4595548364350D-01
214  2.1300000000000D+00 -1.4152853188270D-02 -1.4624113256837D-01
215  2.1400000000000D+00 -1.1869574093034D-02 -1.4527161500088D-01
216  2.1500000000000D+00 -9.8251373623665D-03 -1.4313848297516D-01
217  2.1600000000000D+00 -8.0094302853685D-03 -1.3993733530506D-01
218  2.1700000000000D+00 -6.4113646040079D-03 -1.3576734351939D-01
219  2.1800000000000D+00 -5.0190189076893D-03 -1.3073048921561D-01
220  2.1900000000000D+00 -3.8197093610654D-03 -1.2493120287764D-01
221  2.2000000000000D+00 -2.8000760863020D-03 -1.1847593194309D-01
222  2.2100000000000D+00 -1.9461972885248D-03 -1.1147254870940D-01
223  2.2200000000000D+00 -1.2437995444051D-03 -1.0402920490669D-01
224  2.2300000000000D+00 -6.7840838287971D-04 -9.6253508436632D-02
225  2.2400000000000D+00 -2.3552226743912D-04 -8.8251637183629D-02
226  2.2500000000000D+00  9.9221790865538D-05 -8.0127489840322D-02
227  2.2600000000000D+00  3.3981993571895D-04 -7.1981477076834D-02
228  2.2700000000000D+00  4.9985918305348D-04 -6.3910387867421D-02
229  2.2800000000000D+00  5.9240333104075D-04 -5.6006851586055D-02
230  2.2900000000000D+00  6.2989535623466D-04 -4.8358885736035D-02
231  2.3000000000000D+00  6.2403826356549D-04 -4.1049300582000D-02
232  2.3100000000000D+00  5.8571060428758D-04 -3.4155312624192D-02
233  2.3200000000000D+00  5.2487749399177D-04 -2.7748119748363D-02
234  2.3300000000000D+00  4.5071934562592D-04 -2.1898959115613D-02
235  2.3400000000000D+00  3.7071942241827D-04 -1.6652928036323D-02
236  2.3500000000000D+00  2.9125399289145D-04 -1.2052095931157D-02
237  2.3600000000000D+00  2.1755581621155D-04 -8.1348476060234D-03
238  2.3700000000000D+00  1.5693213889463D-04 -5.0034256496164D-03
239  2.3800000000000D+00  1.1456356303607D-04 -2.7202425755116D-03
240  2.3900000000000D+00  8.9679540492197D-05 -1.2553693435825D-03
241  2.4000000000000D+00  7.2388272500109D-05 -4.3380530263200D-04
242  2.4100000000000D+00  5.2178357943232D-05 -5.8796846908091D-05
243  2.4200000000000D+00  2.7715645373379D-05  4.7382001704535D-05
244  2.4300000000000D+00  6.0365523193069D-06  2.0057760641883D-05
245  2.4400000000000D+00 -4.6816239728305D-06 -1.9571337072414D-05
246  2.4500000000000D+00 -5.3525150987990D-06 -2.7184677851567D-05
247  2.4600000000000D+00 -1.3386246105967D-06 -7.6942496476503D-06
248  2.4700000000000D+00  1.0694967634493D-06  2.9187242987508D-06
249  2.4800000000000D+00  1.2694992492992D-06  3.8777807999049D-06
250  2.4900000000000D+00  2.9534878611080D-07  9.8299382540889D-07
251  2.5000000000000D+00 -1.4291957260235D-07  4.8164012005326D-07
252  2.5100000000000D+00 -1.7143906895202D-07  5.7775105430531D-07
253  2.5200000000000D+00 -3.9836543930871D-08  1.3424947648533D-07
254  2.5300000000000D+00  0.0000000000000D+00  0.0000000000000D+00
255  2.5400000000000D+00  0.0000000000000D+00  0.0000000000000D+00
256  2.5500000000000D+00  0.0000000000000D+00  0.0000000000000D+00
257  2.5600000000000D+00  0.0000000000000D+00  0.0000000000000D+00
258  2.5700000000000D+00  0.0000000000000D+00  0.0000000000000D+00
259  2.5800000000000D+00  0.0000000000000D+00  0.0000000000000D+00
260  2.5900000000000D+00  0.0000000000000D+00  0.0000000000000D+00
261  2.6000000000000D+00  0.0000000000000D+00  0.0000000000000D+00
262  2.6100000000000D+00  0.0000000000000D+00  0.0000000000000D+00
263  2.6200000000000D+00  0.0000000000000D+00  0.0000000000000D+00
264  2.6300000000000D+00  0.0000000000000D+00  0.0000000000000D+00
265  2.6400000000000D+00  0.0000000000000D+00  0.0000000000000D+00
266  2.6500000000000D+00  0.0000000000000D+00  0.0000000000000D+00
267  2.6600000000000D+00  0.0000000000000D+00  0.0000000000000D+00
268  2.6700000000000D+00  0.0000000000000D+00  0.0000000000000D+00
269  2.6800000000000D+00  0.0000000000000D+00  0.0000000000000D+00
270  2.6900000000000D+00  0.0000000000000D+00  0.0000000000000D+00
271  2.7000000000000D+00  0.0000000000000D+00  0.0000000000000D+00
272  2.7100000000000D+00  0.0000000000000D+00  0.0000000000000D+00
273  2.7200000000000D+00  0.0000000000000D+00  0.0000000000000D+00
274  2.7300000000000D+00  0.0000000000000D+00  0.0000000000000D+00
275  2.7400000000000D+00  0.0000000000000D+00  0.0000000000000D+00
276  2.7500000000000D+00  0.0000000000000D+00  0.0000000000000D+00
277  2.7600000000000D+00  0.0000000000000D+00  0.0000000000000D+00
278  2.7700000000000D+00  0.0000000000000D+00  0.0000000000000D+00
279  2.7800000000000D+00  0.0000000000000D+00  0.0000000000000D+00
280  2.7900000000000D+00  0.0000000000000D+00  0.0000000000000D+00
281  2.8000000000000D+00  0.0000000000000D+00  0.0000000000000D+00
282  2.8100000000000D+00  0.0000000000000D+00  0.0000000000000D+00
283  2.8200000000000D+00  0.0000000000000D+00  0.0000000000000D+00
284  2.8300000000000D+00  0.0000000000000D+00  0.0000000000000D+00
285  2.8400000000000D+00  0.0000000000000D+00  0.0000000000000D+00
286  2.8500000000000D+00  0.0000000000000D+00  0.0000000000000D+00
287  2.8600000000000D+00  0.0000000000000D+00  0.0000000000000D+00
288  2.8700000000000D+00  0.0000000000000D+00  0.0000000000000D+00
289  2.8800000000000D+00  0.0000000000000D+00  0.0000000000000D+00
290  2.8900000000000D+00  0.0000000000000D+00  0.0000000000000D+00
291  2.9000000000000D+00  0.0000000000000D+00  0.0000000000000D+00
292  2.9100000000000D+00  0.0000000000000D+00  0.0000000000000D+00
293  2.9200000000000D+00  0.0000000000000D+00  0.0000000000000D+00
294  2.9300000000000D+00  0.0000000000000D+00  0.0000000000000D+00
295  2.9400000000000D+00  0.0000000000000D+00  0.0000000000000D+00
296  2.9500000000000D+00  0.0000000000000D+00  0.0000000000000D+00
297  2.9600000000000D+00  0.0000000000000D+00  0.0000000000000D+00
298  2.9700000000000D+00  0.0000000000000D+00  0.0000000000000D+00
299  2.9800000000000D+00  0.0000000000000D+00  0.0000000000000D+00
300  2.9900000000000D+00  0.0000000000000D+00  0.0000000000000D+00
301  3.0000000000000D+00  0.0000000000000D+00  0.0000000000000D+00
302  3.0100000000000D+00  0.0000000000000D+00  0.0000000000000D+00
303  3.0200000000000D+00  0.0000000000000D+00  0.0000000000000D+00
304  3.0300000000000D+00  0.0000000000000D+00  0.0000000000000D+00
305  3.0400000000000D+00  0.0000000000000D+00  0.0000000000000D+00
306  3.0500000000000D+00  0.0000000000000D+00  0.0000000000000D+00
307  3.0600000000000D+00  0.0000000000000D+00  0.0000000000000D+00
308  3.0700000000000D+00  0.0000000000000D+00  0.0000000000000D+00
309  3.0800000000000D+00  0.0000000000000D+00  0.0000000000000D+00
310  3.0900000000000D+00  0.0000000000000D+00  0.0000000000000D+00
311  3.1000000000000D+00  0.0000000000000D+00  0.0000000000000D+00
312  3.1100000000000D+00  0.0000000000000D+00  0.0000000000000D+00
313  3.1200000000000D+00  0.0000000000000D+00  0.0000000000000D+00
314  3.1300000000000D+00  0.0000000000000D+00  0.0000000000000D+00
315  3.1400000000000D+00  0.0000000000000D+00  0.0000000000000D+00
316  3.1500000000000D+00  0.0000000000000D+00  0.0000000000000D+00
317  3.1600000000000D+00  0.0000000000000D+00  0.0000000000000D+00
318  3.1700000000000D+00  0.0000000000000D+00  0.0000000000000D+00
319  3.1800000000000D+00  0.0000000000000D+00  0.0000000000000D+00
320  3.1900000000000D+00  0.0000000000000D+00  0.0000000000000D+00
321  3.2000000000000D+00  0.0000000000000D+00  0.0000000000000D+00
322  3.2100000000000D+00  0.0000000000000D+00  0.0000000000000D+00
323  3.2200000000000D+00  0.0000000000000D+00  0.0000000000000D+00
324  3.2300000000000D+00  0.0000000000000D+00  0.0000000000000D+00
325  3.2400000000000D+00  0.0000000000000D+00  0.0000000000000D+00
326  3.2500000000000D+00  0.0000000000000D+00  0.0000000000000D+00
327  3.2600000000000D+00  0.0000000000000D+00  0.0000000000000D+00
328  3.2700000000000D+00  0.0000000000000D+00  0.0000000000000D+00
329  3.2800000000000D+00  0.0000000000000D+00  0.0000000000000D+00
330  3.2900000000000D+00  0.0000000000000D+00  0.0000000000000D+00
331  3.3000000000000D+00  0.0000000000000D+00  0.0000000000000D+00
332  3.3100000000000D+00  0.0000000000000D+00  0.0000000000000D+00
333  3.3200000000000D+00  0.0000000000000D+00  0.0000000000000D+00
334  3.3300000000000D+00  0.0000000000000D+00  0.0000000000000D+00
335  3.3400000000000D+00  0.0000000000000D+00  0.0000000000000D+00
336  3.3500000000000D+00  0.0000000000000D+00  0.0000000000000D+00
337  3.3600000000000D+00  0.0000000000000D+00  0.0000000000000D+00
338  3.3700000000000D+00  0.0000000000000D+00  0.0000000000000D+00
339  3.3800000000000D+00  0.0000000000000D+00  0.0000000000000D+00
340  3.3900000000000D+00  0.0000000000000D+00  0.0000000000000D+00
341  3.4000000000000D+00  0.0000000000000D+00  0.0000000000000D+00
342  3.4100000000000D+00  0.0000000000000D+00  0.0000000000000D+00
343  3.4200000000000D+00  0.0000000000000D+00  0.0000000000000D+00
344  3.4300000000000D+00  0.0000000000000D+00  0.0000000000000D+00
345  3.4400000000000D+00  0.0000000000000D+00  0.0000000000000D+00
346  3.4500000000000D+00  0.0000000000000D+00  0.0000000000000D+00
347  3.4600000000000D+00  0.0000000000000D+00  0.0000000000000D+00
348  3.4700000000000D+00  0.0000000000000D+00  0.0000000000000D+00
349  3.4800000000000D+00  0.0000000000000D+00  0.0000000000000D+00
350  3.4900000000000D+00  0.0000000000000D+00  0.0000000000000D+00
351  3.5000000000000D+00  0.0000000000000D+00  0.0000000000000D+00
352  3.5100000000000D+00  0.0000000000000D+00  0.0000000000000D+00
353  3.5200000000000D+00  0.0000000000000D+00  0.0000000000000D+00
354  3.5300000000000D+00  0.0000000000000D+00  0.0000000000000D+00
355  3.5400000000000D+00  0.0000000000000D+00  0.0000000000000D+00
356  3.5500000000000D+00  0.0000000000000D+00  0.0000000000000D+00
357  3.5600000000000D+00  0.0000000000000D+00  0.0000000000000D+00
358  3.5700000000000D+00  0.0000000000000D+00  0.0000000000000D+00
359  3.5800000000000D+00  0.0000000000000D+00  0.0000000000000D+00
360  3.5900000000000D+00  0.0000000000000D+00  0.0000000000000D+00
361  3.6000000000000D+00  0.0000000000000D+00  0.0000000000000D+00
362  3.6100000000000D+00  0.0000000000000D+00  0.0000000000000D+00
363  3.6200000000000D+00  0.0000000000000D+00  0.0000000000000D+00
364  3.6300000000000D+00  0.0000000000000D+00  0.0000000000000D+00
365  3.6400000000000D+00  0.0000000000000D+00  0.0000000000000D+00
366  3.6500000000000D+00  0.0000000000000D+00  0.0000000000000D+00
367  3.6600000000000D+00  0.0000000000000D+00  0.0000000000000D+00
368  3.6700000000000D+00  0.0000000000000D+00  0.0000000000000D+00
369  3.6800000000000D+00  0.0000000000000D+00  0.0000000000000D+00
370  3.6900000000000D+00  0.0000000000000D+00  0.0000000000000D+00
371  3.7000000000000D+00  0.0000000000000D+00  0.0000000000000D+00
372  3.7100000000000D+00  0.0000000000000D+00  0.0000000000000D+00
373  3.7200000000000D+00  0.0000000000000D+00  0.0000000000000D+00
374  3.7300000000000D+00  0.0000000000000D+00  0.0000000000000D+00
375  3.7400000000000D+00  0.0000000000000D+00  0.0000000000000D+00
376  3.7500000000000D+00  0.0000000000000D+00  0.0000000000000D+00
377  3.7600000000000D+00  0.0000000000000D+00  0.0000000000000D+00
378  3.7700000000000D+00  0.0000000000000D+00  0.0000000000000D+00
379  3.7800000000000D+00  0.0000000000000D+00  0.0000000000000D+00
380  3.7900000000000D+00  0.0000000000000D+00  0.0000000000000D+00
381  3.8000000000000D+00  0.0000000000000D+00  0.0000000000000D+00
382  3.8100000000000D+00  0.0000000000000D+00  0.0000000000000D+00
383  3.8200000000000D+00  0.0000000000000D+00  0.0000000000000D+00
384  3.8300000000000D+00  0.0000000000000D+00  0.0000000000000D+00
385  3.8400000000000D+00  0.0000000000000D+00  0.0000000000000D+00
386  3.8500000000000D+00  0.0000000000000D+00  0.0000000000000D+00
387  3.8600000000000D+00  0.0000000000000D+00  0.0000000000000D+00
388  3.8700000000000D+00  0.0000000000000D+00  0.0000000000000D+00
389  3.8800000000000D+00  0.0000000000000D+00  0.0000000000000D+00
390  3.8900000000000D+00  0.0000000000000D+00  0.0000000000000D+00
391  3.9000000000000D+00  0.0000000000000D+00  0.0000000000000D+00
392  3.9100000000000D+00  0.0000000000000D+00  0.0000000000000D+00
393  3.9200000000000D+00  0.0000000000000D+00  0.0000000000000D+00
394  3.9300000000000D+00  0.0000000000000D+00  0.0000000000000D+00
395  3.9400000000000D+00  0.0000000000000D+00  0.0000000000000D+00
396  3.9500000000000D+00  0.0000000000000D+00  0.0000000000000D+00
397  3.9600000000000D+00  0.0000000000000D+00  0.0000000000000D+00
398  3.9700000000000D+00  0.0000000000000D+00  0.0000000000000D+00
399  3.9800000000000D+00  0.0000000000000D+00  0.0000000000000D+00
400  3.9900000000000D+00  0.0000000000000D+00  0.0000000000000D+00
401  4.0000000000000D+00  0.0000000000000D+00  0.0000000000000D+00
402  4.0100000000000D+00  0.0000000000000D+00  0.0000000000000D+00
403  4.0200000000000D+00  0.0000000000000D+00  0.0000000000000D+00
404  4.0300000000000D+00  0.0000000000000D+00  0.0000000000000D+00
405  4.0400000000000D+00  0.0000000000000D+00  0.0000000000000D+00
406  4.0500000000000D+00  0.0000000000000D+00  0.0000000000000D+00
407  4.0600000000000D+00  0.0000000000000D+00  0.0000000000000D+00
408  4.0700000000000D+00  0.0000000000000D+00  0.0000000000000D+00
409  4.0800000000000D+00  0.0000000000000D+00  0.0000000000000D+00
410  4.0900000000000D+00  0.0000000000000D+00  0.0000000000000D+00
411  4.1000000000000D+00  0.0000000000000D+00  0.0000000000000D+00
412  4.1100000000000D+00  0.0000000000000D+00  0.0000000000000D+00
413  4.1200000000000D+00  0.0000000000000D+00  0.0000000000000D+00
414  4.1300000000000D+00  0.0000000000000D+00  0.0000000000000D+00
415  4.1400000000000D+00  0.0000000000000D+00  0.0000000000000D+00
416  4.1500000000000D+00  0.0000000000000D+00  0.0000000000000D+00
417  4.1600000000000D+00  0.0000000000000D+00  0.0000000000000D+00
418  4.1700000000000D+00  0.0000000000000D+00  0.0000000000000D+00
419  4.1800000000000D+00  0.0000000000000D+00  0.0000000000000D+00
420  4.1900000000000D+00  0.0000000000000D+00  0.0000000000000D+00
421  4.2000000000000D+00  0.0000000000000D+00  0.0000000000000D+00
422  4.2100000000000D+00  0.0000000000000D+00  0.0000000000000D+00
423  4.2200000000000D+00  0.0000000000000D+00  0.0000000000000D+00
424  4.2300000000000D+00  0.0000000000000D+00  0.0000000000000D+00
425  4.2400000000000D+00  0.0000000000000D+00  0.0000000000000D+00
426  4.2500000000000D+00  0.0000000000000D+00  0.0000000000000D+00
427  4.2600000000000D+00  0.0000000000000D+00  0.0000000000000D+00
428  4.2700000000000D+00  0.0000000000000D+00  0.0000000000000D+00
429  4.2800000000000D+00  0.0000000000000D+00  0.0000000000000D+00
430  4.2900000000000D+00  0.0000000000000D+00  0.0000000000000D+00
431  4.3000000000000D+00  0.0000000000000D+00  0.0000000000000D+00
432  4.3100000000000D+00  0.0000000000000D+00  0.0000000000000D+00
433  4.3200000000000D+00  0.0000000000000D+00  0.0000000000000D+00
434  4.3300000000000D+00  0.0000000000000D+00  0.0000000000000D+00
435  4.3400000000000D+00  0.0000000000000D+00  0.0000000000000D+00
436  4.3500000000000D+00  0.0000000000000D+00  0.0000000000000D+00
437  4.3600000000000D+00  0.0000000000000D+00  0.0000000000000D+00
438  4.3700000000000D+00  0.0000000000000D+00  0.0000000000000D+00
439  4.3800000000000D+00  0.0000000000000D+00  0.0000000000000D+00
440  4.3900000000000D+00  0.0000000000000D+00  0.0000000000000D+00
441  4.4000000000000D+00  0.0000000000000D+00  0.0000000000000D+00
442  4.4100000000000D+00  0.0000000000000D+00  0.0000000000000D+00
443  4.4200000000000D+00  0.0000000000000D+00  0.0000000000000D+00