Sn    ONCVPSP-3.2.3.1  r_core=   2.27326   2.62311   1.85601
50.0000     14.0000      170510    zatom,zion,pspd
8      11   2     4   600     0    pspcod,pspxc,lmax,lloc,mmax,r2well
5.99000000  6.50000000  0.00000000    rchrg fchrg qchrg
2     2     2     0     0    nproj
1     1           extension_switch
0                         5.5821840259785D+00  7.4896945783376D-01
1  0.0000000000000D+00  7.4508454961375D-13 -5.6747176402361D-12
2  1.0000000000000D-02  1.3703030313959D-02  7.2511158485300D-03
3  2.0000000000000D-02  2.7418287692237D-02  1.4452116488732D-02
4  3.0000000000000D-02  4.1157951256844D-02  2.1553077611627D-02
5  4.0000000000000D-02  5.4934104357114D-02  2.8504456124030D-02
6  5.0000000000000D-02  6.8758686963027D-02  3.5257279300592D-02
7  6.0000000000000D-02  8.2643448393605D-02  4.1763332192820D-02
8  7.0000000000000D-02  9.6599900491183D-02  4.7975342720727D-02
9  8.0000000000000D-02  1.1063927135163D-01  5.3847163878428D-02
10  9.0000000000000D-02  1.2477245971960D-01  5.9333952492176D-02
11  1.0000000000000D-01  1.3900999015688D-01  6.4392343977768D-02
12  1.1000000000000D-01  1.5336196909040D-01  6.8980622554204D-02
13  1.2000000000000D-01  1.6783804184516D-01  7.3058886381802D-02
14  1.3000000000000D-01  1.8244735076551D-01  7.6589207105584D-02
15  1.4000000000000D-01  1.9719849452641D-01  7.9535783298826D-02
16  1.5000000000000D-01  2.1209948873413D-01  8.1865087317022D-02
17  1.6000000000000D-01  2.2715772791371D-01  8.3546005089186D-02
18  1.7000000000000D-01  2.4237994897809D-01  8.4549968391518D-02
19  1.8000000000000D-01  2.5777219627094D-01  8.4851079167510D-02
20  1.9000000000000D-01  2.7333978827274D-01  8.4426225479405D-02
21  2.0000000000000D-01  2.8908728605648D-01  8.3255188697413D-02
22  2.1000000000000D-01  3.0501846357624D-01  8.1320741556164D-02
23  2.2000000000000D-01  3.2113627986838D-01  7.8608736731984D-02
24  2.3000000000000D-01  3.3744285324193D-01  7.5108185619717D-02
25  2.4000000000000D-01  3.5393943753068D-01  7.0811327014182D-02
26  2.5000000000000D-01  3.7062640047566D-01  6.5713685428715D-02
27  2.6000000000000D-01  3.8750320430295D-01  5.9814118811403D-02
28  2.7000000000000D-01  4.0456838855700D-01  5.3114855449046D-02
29  2.8000000000000D-01  4.2181955524595D-01  4.5621519878844D-02
30  2.9000000000000D-01  4.3925335635009D-01  3.7343147658865D-02
31  3.0000000000000D-01  4.5686548374069D-01  2.8292188879890D-02
32  3.1000000000000D-01  4.7465066155106D-01  1.8484500333671D-02
33  3.2000000000000D-01  4.9260264103689D-01  7.9393262856262D-03
34  3.3000000000000D-01  5.1071419795781D-01 -3.3207321665835D-03
35  3.4000000000000D-01  5.2897713250683D-01 -1.5269759133152D-02
36  3.5000000000000D-01  5.4738227180899D-01 -2.7878577321117D-02
37  3.6000000000000D-01  5.6591947500478D-01 -4.1114812687859D-02
38  3.7000000000000D-01  5.8457764092888D-01 -5.4942970240012D-02
39  3.8000000000000D-01  6.0334471838832D-01 -6.9324520823658D-02
40  3.9000000000000D-01  6.2220771903902D-01 -8.4217998716912D-02
41  4.0000000000000D-01  6.4115273285330D-01 -9.9579109801023D-02
42  4.1000000000000D-01  6.6016494616540D-01 -1.1536085005189D-01
43  4.2000000000000D-01  6.7922866227583D-01 -1.3151363405922D-01
44  4.3000000000000D-01  6.9832732458926D-01 -1.4798543324689D-01
45  4.4000000000000D-01  7.1744354225490D-01 -1.6472192343485D-01
46  4.5000000000000D-01  7.3655911827181D-01 -1.8166664135002D-01
47  4.6000000000000D-01  7.5565508001581D-01 -1.9876114966188D-01
48  4.7000000000000D-01  7.7471171213837D-01 -2.1594521008734D-01
49  4.8000000000000D-01  7.9370859178182D-01 -2.3315696407938D-01
50  4.9000000000000D-01  8.1262462604919D-01 -2.5033312058519D-01
51  5.0000000000000D-01  8.3143809166107D-01 -2.6740915033148D-01
52  5.1000000000000D-01  8.5012667672554D-01 -2.8431948606845D-01
53  5.2000000000000D-01  8.6866752454219D-01 -3.0099772817902D-01
54  5.3000000000000D-01  8.8703727935449D-01 -3.1737685503629D-01
55  5.4000000000000D-01  9.0521213395982D-01 -3.3338943747030D-01
56  5.5000000000000D-01  9.2316787908084D-01 -3.4896785668593D-01
57  5.6000000000000D-01  9.4087995439622D-01 -3.6404452495460D-01
58  5.7000000000000D-01  9.5832350112377D-01 -3.7855210838702D-01
59  5.8000000000000D-01  9.7547341604404D-01 -3.9242375107988D-01
60  5.9000000000000D-01  9.9230440684736D-01 -4.0559329991737D-01
61  6.0000000000000D-01  1.0087910486829D+00 -4.1799552929861D-01
62  6.1000000000000D-01  1.0249078417837D+00 -4.2956636505485D-01
63  6.2000000000000D-01  1.0406292700381D+00 -4.4024310681482D-01
64  6.3000000000000D-01  1.0559298603723D+00 -4.4996464807432D-01
65  6.4000000000000D-01  1.0707842428084D+00 -4.5867169322565D-01
66  6.5000000000000D-01  1.0851672110551D+00 -4.6630697080492D-01
67  6.6000000000000D-01  1.0990537834881D+00 -4.7281544222008D-01
68  6.7000000000000D-01  1.1124192643735D+00 -4.7814450523019D-01
69  6.8000000000000D-01  1.1252393051844D+00 -4.8224419145592D-01
70  6.9000000000000D-01  1.1374899658601D+00 -4.8506735721480D-01
71  7.0000000000000D-01  1.1491477758558D+00 -4.8656986698909D-01
72  7.1000000000000D-01  1.1601897948263D+00 -4.8671076885282D-01
73  7.2000000000000D-01  1.1705936727917D+00 -4.8545246120405D-01
74  7.3000000000000D-01  1.1803377096272D+00 -4.8276085017249D-01
75  7.4000000000000D-01  1.1894009137216D+00 -4.7860549709690D-01
76  7.5000000000000D-01  1.1977630596497D+00 -4.7295975549554D-01
77  7.6000000000000D-01  1.2054047447036D+00 -4.6580089698244D-01
78  7.7000000000000D-01  1.2123074441273D+00 -4.5711022561558D-01
79  7.8000000000000D-01  1.2184535649052D+00 -4.4687318019682D-01
80  7.9000000000000D-01  1.2238264979514D+00 -4.3507942408144D-01
81  8.0000000000000D-01  1.2284106685531D+00 -4.2172292209302D-01
82  8.1000000000000D-01  1.2321915849222D+00 -4.0680200418083D-01
83  8.2000000000000D-01  1.2351558847136D+00 -3.9031941549902D-01
84  8.3000000000000D-01  1.2372913793702D+00 -3.7228235263115D-01
85  8.4000000000000D-01  1.2385870961619D+00 -3.5270248572927D-01
86  8.5000000000000D-01  1.2390333177870D+00 -3.3159596638360D-01
87  8.6000000000000D-01  1.2386216194116D+00 -3.0898342108699D-01
88  8.7000000000000D-01  1.2373449030265D+00 -2.8488993020746D-01
89  8.8000000000000D-01  1.2351974290075D+00 -2.5934499243177D-01
90  8.9000000000000D-01  1.2321748447710D+00 -2.3238247469398D-01
91  9.0000000000000D-01  1.2282742104221D+00 -2.0404054765351D-01
92  9.1000000000000D-01  1.2234940213011D+00 -1.7436160683844D-01
93  9.2000000000000D-01  1.2178342273395D+00 -1.4339217962152D-01
94  9.3000000000000D-01  1.2112962491455D+00 -1.1118281824704D-01
95  9.4000000000000D-01  1.2038829907453D+00 -7.7787979177723D-02
96  9.5000000000000D-01  1.1955988489163D+00 -4.3265889081096D-02
97  9.6000000000000D-01  1.1864497190546D+00 -7.6783978245127D-03
98  9.7000000000000D-01  1.1764429975301D+00  2.8909181104091D-02
99  9.8000000000000D-01  1.1655875804885D+00  6.6428242284148D-02
100  9.9000000000000D-01  1.1538938590716D+00  1.0480707164830D-01
101  1.0000000000000D+00  1.1413737110336D+00  1.4397104081022D-01
102  1.0100000000000D+00  1.1280404887431D+00  1.8384281183584D-01
103  1.0200000000000D+00  1.1139090035672D+00  2.2434255181875D-01
104  1.0300000000000D+00  1.0989955066477D+00  2.6538815658023D-01
105  1.0400000000000D+00  1.0833176660834D+00  3.0689548278078D-01
106  1.0500000000000D+00  1.0668945405489D+00  3.4877858769216D-01
107  1.0600000000000D+00  1.0497465493843D+00  3.9094997584997D-01
108  1.0700000000000D+00  1.0318954392042D+00  4.3332085177682D-01
109  1.0800000000000D+00  1.0133642470814D+00  4.7580137793975D-01
110  1.0900000000000D+00  9.9417726037215D-01  5.1830093708450D-01
111  1.1000000000000D+00  9.7435997325903D-01  5.6072839806657D-01
112  1.1100000000000D+00  9.5393904009589D-01  6.0299238428375D-01
113  1.1200000000000D+00  9.3294222565139D-01  6.4500154380122D-01
114  1.1300000000000D+00  9.1139835235422D-01  6.8666482025030D-01
115  1.1400000000000D+00  8.8933724465311D-01  7.2789172357487D-01
116  1.1500000000000D+00  8.6678967061425D-01  7.6859259969586D-01
117  1.1600000000000D+00  8.4378728088692D-01  8.0867889816571D-01
118  1.1700000000000D+00  8.2036254517574D-01  8.4806343688793D-01
119  1.1800000000000D+00  7.9654868636628D-01  8.8666066298271D-01
120  1.1900000000000D+00  7.7237961245942D-01  9.2438690889210D-01
121  1.2000000000000D+00  7.4788984647671D-01  9.6116064283540D-01
122  1.2100000000000D+00  7.2311445450368D-01  9.9690271273340D-01
123  1.2200000000000D+00  6.9808897204842D-01  1.0315365827515D+00
124  1.2300000000000D+00  6.7284932889651D-01  1.0649885616344D+00
125  1.2400000000000D+00  6.4743177264887D-01  1.0971880220268D+00
126  1.2500000000000D+00  6.2187279113476D-01  1.1280676100058D+00
127  1.2600000000000D+00  5.9620903389809D-01  1.1575634440970D+00
128  1.2700000000000D+00  5.7047723295712D-01  1.1856153030678D+00
129  1.2800000000000D+00  5.4471412304231D-01  1.2121668018280D+00
130  1.2900000000000D+00  5.1895636152142D-01  1.2371655548345D+00
131  1.3000000000000D+00  4.9324044822126D-01  1.2605633264161D+00
132  1.3100000000000D+00  4.6760264535899D-01  1.2823161674745D+00
133  1.3200000000000D+00  4.4207889779742D-01  1.3023845381130D+00
134  1.3300000000000D+00  4.1670475383823D-01  1.3207334157338D+00
135  1.3400000000000D+00  3.9151528676947D-01  1.3373323882230D+00
136  1.3500000000000D+00  3.6654501738056D-01  1.3521557319400D+00
137  1.3600000000000D+00  3.4182783766020D-01  1.3651824741747D+00
138  1.3700000000000D+00  3.1739693588931D-01  1.3763964399025D+00
139  1.3800000000000D+00  2.9328472333684D-01  1.3857862826884D+00
140  1.3900000000000D+00  2.6952276277134D-01  1.3933454995636D+00
141  1.4000000000000D+00  2.4614169898610D-01  1.3990724299292D+00
142  1.4100000000000D+00  2.2317119154286D-01  1.4029702384151D+00
143  1.4200000000000D+00  2.0063984993066D-01  1.4050468817829D+00
144  1.4300000000000D+00  1.7857517132273D-01  1.4053150600525D+00
145  1.4400000000000D+00  1.5700348113173D-01  1.4037921519044D+00
146  1.4500000000000D+00  1.3594987652510D-01  1.4005001347415D+00
147  1.4600000000000D+00  1.1543817308747D-01  1.3954654895689D+00
148  1.4700000000000D+00  9.5490854789922D-02  1.3887190910940D+00
149  1.4800000000000D+00  7.6129027417447D-02  1.3802960834472D+00
150  1.4900000000000D+00  5.7372375625179D-02  1.3702357418658D+00
151  1.5000000000000D+00  3.9239123730331D-02  1.3585813209813D+00
152  1.5100000000000D+00  2.1746000415390D-02  1.3453798900406D+00
153  1.5200000000000D+00  4.9082074220296D-03  1.3306821558189D+00
154  1.5300000000000D+00 -1.1260607616515D-02  1.3145422736813D+00
155  1.5400000000000D+00 -2.6748374121593D-02  1.2970176475272D+00
156  1.5500000000000D+00 -4.1544617198399D-02  1.2781687192598D+00
157  1.5600000000000D+00 -5.5640471850325D-02  1.2580587484708D+00
158  1.5700000000000D+00 -6.9028692743589D-02  1.2367535831317D+00
159  1.5800000000000D+00 -8.1703659405647D-02  1.2143214219613D+00
160  1.5900000000000D+00 -9.3661376886382D-02  1.1908325693567D+00
161  1.6000000000000D+00 -1.0489947174989D-01  1.1663591835694D+00
162  1.6100000000000D+00 -1.1541718348034D-01  1.1409750190432D+00
163  1.6200000000000D+00 -1.2521535117409D-01  1.1147551636493D+00
164  1.6300000000000D+00 -1.3429639563133D-01  1.0877757717056D+00
165  1.6400000000000D+00 -1.4266429674797D-01  1.0601137935819D+00
166  1.6500000000000D+00 -1.5032456633393D-01  1.0318467027259D+00
167  1.6600000000000D+00 -1.5728421629515D-01  1.0030522209603D+00
168  1.6700000000000D+00 -1.6355172231750D-01  9.7380804283081D-01
169  1.6800000000000D+00 -1.6913698302285D-01  9.4419155988003D-01
170  1.6900000000000D+00 -1.7405127475248D-01  9.1427958556301D-01
171  1.7000000000000D+00 -1.7830720197408D-01  8.8414808169420D-01
172  1.7100000000000D+00 -1.8191864349094D-01  8.5387188705610D-01
173  1.7200000000000D+00 -1.8490069446714D-01  8.2352444907764D-01
174  1.7300000000000D+00 -1.8726960447794D-01  7.9317755909063D-01
175  1.7400000000000D+00 -1.8904271160730D-01  7.6290109211492D-01
176  1.7500000000000D+00 -1.9023837283971D-01  7.3276275150295D-01
177  1.7600000000000D+00 -1.9087589076659D-01  7.0282781948189D-01
178  1.7700000000000D+00 -1.9097543689905D-01  6.7315891367327D-01
179  1.7800000000000D+00 -1.9055797159734D-01  6.4381575077981D-01
180  1.7900000000000D+00 -1.8964516095565D-01  6.1485491718754D-01
181  1.8000000000000D+00 -1.8825929007175D-01  5.8632964379889D-01
182  1.8100000000000D+00 -1.8642317684564D-01  5.5828961136297D-01
183  1.8200000000000D+00 -1.8416007190356D-01  5.3078068837165D-01
184  1.8300000000000D+00 -1.8149358564824D-01  5.0384487004438D-01
185  1.8400000000000D+00 -1.7844757707919D-01  4.7752000594448D-01
186  1.8500000000000D+00 -1.7504602193860D-01  4.5183936632254D-01
187  1.8600000000000D+00 -1.7131296237997D-01  4.2683182535065D-01
188  1.8700000000000D+00 -1.6727248798108D-01  4.0252231663351D-01
189  1.8800000000000D+00 -1.6294871190987D-01  3.7893218504194D-01
190  1.8900000000000D+00 -1.5836578249356D-01  3.5607965870838D-01
191  1.9000000000000D+00 -1.5354791184608D-01  3.3398048442161D-01
192  1.9100000000000D+00 -1.4851928499267D-01  3.1264768109656D-01
193  1.9200000000000D+00 -1.4330399944468D-01  2.9209146445342D-01
194  1.9300000000000D+00 -1.3792603218508D-01  2.7231944890751D-01
195  1.9400000000000D+00 -1.3240918715454D-01  2.5333668019815D-01
196  1.9500000000000D+00 -1.2677704800769D-01  2.3514571474324D-01
197  1.9600000000000D+00 -1.2105293263865D-01  2.1774671578351D-01
198  1.9700000000000D+00 -1.1525984745372D-01  2.0113754859397D-01
199  1.9800000000000D+00 -1.0942044297011D-01  1.8531388589714D-01
200  1.9900000000000D+00 -1.0355697031645D-01  1.7026931952788D-01
201  2.0000000000000D+00 -9.7691238919321D-02  1.5599547867157D-01
202  2.0100000000000D+00 -9.1844575202423D-02  1.4248215307693D-01
203  2.0200000000000D+00 -8.6037782486435D-02  1.2971742096488D-01
204  2.0300000000000D+00 -8.0291102071556D-02  1.1768778073805D-01
205  2.0400000000000D+00 -7.4624175505053D-02  1.0637828566101D-01
206  2.0500000000000D+00 -6.9056008154077D-02  9.5772680748801D-02
207  2.0600000000000D+00 -6.3604933995890D-02  8.5853541259680D-02
208  2.0700000000000D+00 -5.8288581752969D-02  7.6602411637153D-02
209  2.0800000000000D+00 -5.3123842331520D-02  6.7999944556178D-02
210  2.0900000000000D+00 -4.8126837602028D-02  6.0026039156809D-02
211  2.1000000000000D+00 -4.3312890562648D-02  5.2659977374579D-02
212  2.1100000000000D+00 -3.8696496865328D-02  4.5880558650917D-02
213  2.1200000000000D+00 -3.4291297763041D-02  3.9666230891586D-02
214  2.1300000000000D+00 -3.0110054469074D-02  3.3995218334549D-02
215  2.1400000000000D+00 -2.6164623955523D-02  2.8845645129976D-02
216  2.1500000000000D+00 -2.2465936214251D-02  2.4195653415001D-02
217  2.1600000000000D+00 -1.9023972981922D-02  2.0023517040622D-02
218  2.1700000000000D+00 -1.5847747965608D-02  1.6307748125245D-02
219  2.1800000000000D+00 -1.2945288570320D-02  1.3027197717102D-02
220  2.1900000000000D+00 -1.0323619146982D-02  1.0161149810258D-02
221  2.2000000000000D+00 -7.9901995624603D-03  7.6904719821653D-03
222  2.2100000000000D+00 -5.9477184041135D-03  5.5938894061128D-03
223  2.2200000000000D+00 -4.1978104576008D-03  3.8508041077658D-03
224  2.2300000000000D+00 -2.7376946764915D-03  2.4392442929631D-03
225  2.2400000000000D+00 -1.5905388749298D-03  1.3565581999765D-03
226  2.2500000000000D+00 -7.6690218529030D-04  5.9216243949956D-04
227  2.2600000000000D+00 -2.5134146831661D-04  1.2026760837587D-04
228  2.2700000000000D+00  1.3183220373285D-05 -1.0965474370327D-04
229  2.2800000000000D+00  9.2197089430706D-05 -1.5294041774241D-04
230  2.2900000000000D+00  6.4150232881651D-05 -9.0630057369838D-05
231  2.3000000000000D+00  3.0874894214668D-06 -4.1181264522608D-06
232  2.3100000000000D+00 -2.1720785039960D-05  2.8581504115444D-05
233  2.3200000000000D+00 -1.6472822008406D-05  2.1202674893803D-05
234  2.3300000000000D+00  1.0963491366071D-06 -1.5540662655848D-06
235  2.3400000000000D+00  4.3837086349348D-06 -6.1294251602043D-06
236  2.3500000000000D+00  2.6236554345742D-06 -3.6299623363666D-06
237  2.3600000000000D+00 -7.6220589724547D-08  1.9299947690159D-07
238  2.3700000000000D+00 -1.5897468862343D-07  4.0254256567415D-07
239  2.3800000000000D+00 -7.0015376381834D-08  1.7728714859852D-07
240  2.3900000000000D+00  0.0000000000000D+00  0.0000000000000D+00
241  2.4000000000000D+00  0.0000000000000D+00  0.0000000000000D+00
242  2.4100000000000D+00  0.0000000000000D+00  0.0000000000000D+00
243  2.4200000000000D+00  0.0000000000000D+00  0.0000000000000D+00
244  2.4300000000000D+00  0.0000000000000D+00  0.0000000000000D+00
245  2.4400000000000D+00  0.0000000000000D+00  0.0000000000000D+00
246  2.4500000000000D+00  0.0000000000000D+00  0.0000000000000D+00
247  2.4600000000000D+00  0.0000000000000D+00  0.0000000000000D+00
248  2.4700000000000D+00  0.0000000000000D+00  0.0000000000000D+00
249  2.4800000000000D+00  0.0000000000000D+00  0.0000000000000D+00
250  2.4900000000000D+00  0.0000000000000D+00  0.0000000000000D+00
251  2.5000000000000D+00  0.0000000000000D+00  0.0000000000000D+00
252  2.5100000000000D+00  0.0000000000000D+00  0.0000000000000D+00
253  2.5200000000000D+00  0.0000000000000D+00  0.0000000000000D+00
254  2.5300000000000D+00  0.0000000000000D+00  0.0000000000000D+00
255  2.5400000000000D+00  0.0000000000000D+00  0.0000000000000D+00
256  2.5500000000000D+00  0.0000000000000D+00  0.0000000000000D+00
257  2.5600000000000D+00  0.0000000000000D+00  0.0000000000000D+00
258  2.5700000000000D+00  0.0000000000000D+00  0.0000000000000D+00
259  2.5800000000000D+00  0.0000000000000D+00  0.0000000000000D+00
260  2.5900000000000D+00  0.0000000000000D+00  0.0000000000000D+00
261  2.6000000000000D+00  0.0000000000000D+00  0.0000000000000D+00
262  2.6100000000000D+00  0.0000000000000D+00  0.0000000000000D+00
263  2.6200000000000D+00  0.0000000000000D+00  0.0000000000000D+00
264  2.6300000000000D+00  0.0000000000000D+00  0.0000000000000D+00
265  2.6400000000000D+00  0.0000000000000D+00  0.0000000000000D+00
266  2.6500000000000D+00  0.0000000000000D+00  0.0000000000000D+00
267  2.6600000000000D+00  0.0000000000000D+00  0.0000000000000D+00
268  2.6700000000000D+00  0.0000000000000D+00  0.0000000000000D+00
269  2.6800000000000D+00  0.0000000000000D+00  0.0000000000000D+00
270  2.6900000000000D+00  0.0000000000000D+00  0.0000000000000D+00
271  2.7000000000000D+00  0.0000000000000D+00  0.0000000000000D+00
272  2.7100000000000D+00  0.0000000000000D+00  0.0000000000000D+00
273  2.7200000000000D+00  0.0000000000000D+00  0.0000000000000D+00
274  2.7300000000000D+00  0.0000000000000D+00  0.0000000000000D+00
275  2.7400000000000D+00  0.0000000000000D+00  0.0000000000000D+00
276  2.7500000000000D+00  0.0000000000000D+00  0.0000000000000D+00
277  2.7600000000000D+00  0.0000000000000D+00  0.0000000000000D+00
278  2.7700000000000D+00  0.0000000000000D+00  0.0000000000000D+00
279  2.7800000000000D+00  0.0000000000000D+00  0.0000000000000D+00
280  2.7900000000000D+00  0.0000000000000D+00  0.0000000000000D+00
281  2.8000000000000D+00  0.0000000000000D+00  0.0000000000000D+00
282  2.8100000000000D+00  0.0000000000000D+00  0.0000000000000D+00
283  2.8200000000000D+00  0.0000000000000D+00  0.0000000000000D+00
284  2.8300000000000D+00  0.0000000000000D+00  0.0000000000000D+00
285  2.8400000000000D+00  0.0000000000000D+00  0.0000000000000D+00
286  2.8500000000000D+00  0.0000000000000D+00  0.0000000000000D+00
287  2.8600000000000D+00  0.0000000000000D+00  0.0000000000000D+00
288  2.8700000000000D+00  0.0000000000000D+00  0.0000000000000D+00
289  2.8800000000000D+00  0.0000000000000D+00  0.0000000000000D+00
290  2.8900000000000D+00  0.0000000000000D+00  0.0000000000000D+00
291  2.9000000000000D+00  0.0000000000000D+00  0.0000000000000D+00
292  2.9100000000000D+00  0.0000000000000D+00  0.0000000000000D+00
293  2.9200000000000D+00  0.0000000000000D+00  0.0000000000000D+00
294  2.9300000000000D+00  0.0000000000000D+00  0.0000000000000D+00
295  2.9400000000000D+00  0.0000000000000D+00  0.0000000000000D+00
296  2.9500000000000D+00  0.0000000000000D+00  0.0000000000000D+00
297  2.9600000000000D+00  0.0000000000000D+00  0.0000000000000D+00
298  2.9700000000000D+00  0.0000000000000D+00  0.0000000000000D+00
299  2.9800000000000D+00  0.0000000000000D+00  0.0000000000000D+00
300  2.9900000000000D+00  0.0000000000000D+00  0.0000000000000D+00
301  3.0000000000000D+00  0.0000000000000D+00  0.0000000000000D+00
302  3.0100000000000D+00  0.0000000000000D+00  0.0000000000000D+00
303  3.0200000000000D+00  0.0000000000000D+00  0.0000000000000D+00
304  3.0300000000000D+00  0.0000000000000D+00  0.0000000000000D+00
305  3.0400000000000D+00  0.0000000000000D+00  0.0000000000000D+00
306  3.0500000000000D+00  0.0000000000000D+00  0.0000000000000D+00
307  3.0600000000000D+00  0.0000000000000D+00  0.0000000000000D+00
308  3.0700000000000D+00  0.0000000000000D+00  0.0000000000000D+00
309  3.0800000000000D+00  0.0000000000000D+00  0.0000000000000D+00
310  3.0900000000000D+00  0.0000000000000D+00  0.0000000000000D+00
311  3.1000000000000D+00  0.0000000000000D+00  0.0000000000000D+00
312  3.1100000000000D+00  0.0000000000000D+00  0.0000000000000D+00
313  3.1200000000000D+00  0.0000000000000D+00  0.0000000000000D+00
314  3.1300000000000D+00  0.0000000000000D+00  0.0000000000000D+00
315  3.1400000000000D+00  0.0000000000000D+00  0.0000000000000D+00
316  3.1500000000000D+00  0.0000000000000D+00  0.0000000000000D+00
317  3.1600000000000D+00  0.0000000000000D+00  0.0000000000000D+00
318  3.1700000000000D+00  0.0000000000000D+00  0.0000000000000D+00
319  3.1800000000000D+00  0.0000000000000D+00  0.0000000000000D+00
320  3.1900000000000D+00  0.0000000000000D+00  0.0000000000000D+00
321  3.2000000000000D+00  0.0000000000000D+00  0.0000000000000D+00
322  3.2100000000000D+00  0.0000000000000D+00  0.0000000000000D+00
323  3.2200000000000D+00  0.0000000000000D+00  0.0000000000000D+00
324  3.2300000000000D+00  0.0000000000000D+00  0.0000000000000D+00
325  3.2400000000000D+00  0.0000000000000D+00  0.0000000000000D+00
326  3.2500000000000D+00  0.0000000000000D+00  0.0000000000000D+00
327  3.2600000000000D+00  0.0000000000000D+00  0.0000000000000D+00
328  3.2700000000000D+00  0.0000000000000D+00  0.0000000000000D+00
329  3.2800000000000D+00  0.0000000000000D+00  0.0000000000000D+00
330  3.2900000000000D+00  0.0000000000000D+00  0.0000000000000D+00
331  3.3000000000000D+00  0.0000000000000D+00  0.0000000000000D+00
332  3.3100000000000D+00  0.0000000000000D+00  0.0000000000000D+00
333  3.3200000000000D+00  0.0000000000000D+00  0.0000000000000D+00
334  3.3300000000000D+00  0.0000000000000D+00  0.0000000000000D+00
335  3.3400000000000D+00  0.0000000000000D+00  0.0000000000000D+00
336  3.3500000000000D+00  0.0000000000000D+00  0.0000000000000D+00
337  3.3600000000000D+00  0.0000000000000D+00  0.0000000000000D+00
338  3.3700000000000D+00  0.0000000000000D+00  0.0000000000000D+00
339  3.3800000000000D+00  0.0000000000000D+00  0.0000000000000D+00
340  3.3900000000000D+00  0.0000000000000D+00  0.0000000000000D+00
341  3.4000000000000D+00  0.0000000000000D+00  0.0000000000000D+00
342  3.4100000000000D+00  0.0000000000000D+00  0.0000000000000D+00
343  3.4200000000000D+00  0.0000000000000D+00  0.0000000000000D+00
344  3.4300000000000D+00  0.0000000000000D+00  0.0000000000000D+00
345  3.4400000000000D+00  0.0000000000000D+00  0.0000000000000D+00
346  3.4500000000000D+00  0.0000000000000D+00  0.0000000000000D+00
347  3.4600000000000D+00  0.0000000000000D+00  0.0000000000000D+00
348  3.4700000000000D+00  0.0000000000000D+00  0.0000000000000D+00
349  3.4800000000000D+00  0.0000000000000D+00  0.0000000000000D+00
350  3.4900000000000D+00  0.0000000000000D+00  0.0000000000000D+00
351  3.5000000000000D+00  0.0000000000000D+00  0.0000000000000D+00
352  3.5100000000000D+00  0.0000000000000D+00  0.0000000000000D+00
353  3.5200000000000D+00  0.0000000000000D+00  0.0000000000000D+00
354  3.5300000000000D+00  0.0000000000000D+00  0.0000000000000D+00
355  3.5400000000000D+00  0.0000000000000D+00  0.0000000000000D+00
356  3.5500000000000D+00  0.0000000000000D+00  0.0000000000000D+00
357  3.5600000000000D+00  0.0000000000000D+00  0.0000000000000D+00
358  3.5700000000000D+00  0.0000000000000D+00  0.0000000000000D+00
359  3.5800000000000D+00  0.0000000000000D+00  0.0000000000000D+00
360  3.5900000000000D+00  0.0000000000000D+00  0.0000000000000D+00
361  3.6000000000000D+00  0.0000000000000D+00  0.0000000000000D+00
362  3.6100000000000D+00  0.0000000000000D+00  0.0000000000000D+00
363  3.6200000000000D+00  0.0000000000000D+00  0.0000000000000D+00
364  3.6300000000000D+00  0.0000000000000D+00  0.0000000000000D+00
365  3.6400000000000D+00  0.0000000000000D+00  0.0000000000000D+00
366  3.6500000000000D+00  0.0000000000000D+00  0.0000000000000D+00
367  3.6600000000000D+00  0.0000000000000D+00  0.0000000000000D+00
368  3.6700000000000D+00  0.0000000000000D+00  0.0000000000000D+00
369  3.6800000000000D+00  0.0000000000000D+00  0.0000000000000D+00
370  3.6900000000000D+00  0.0000000000000D+00  0.0000000000000D+00
371  3.7000000000000D+00  0.0000000000000D+00  0.0000000000000D+00
372  3.7100000000000D+00  0.0000000000000D+00  0.0000000000000D+00
373  3.7200000000000D+00  0.0000000000000D+00  0.0000000000000D+00
374  3.7300000000000D+00  0.0000000000000D+00  0.0000000000000D+00
375  3.7400000000000D+00  0.0000000000000D+00  0.0000000000000D+00
376  3.7500000000000D+00  0.0000000000000D+00  0.0000000000000D+00
377  3.7600000000000D+00  0.0000000000000D+00  0.0000000000000D+00
378  3.7700000000000D+00  0.0000000000000D+00  0.0000000000000D+00
379  3.7800000000000D+00  0.0000000000000D+00  0.0000000000000D+00
380  3.7900000000000D+00  0.0000000000000D+00  0.0000000000000D+00
381  3.8000000000000D+00  0.0000000000000D+00  0.0000000000000D+00
382  3.8100000000000D+00  0.0000000000000D+00  0.0000000000000D+00
383  3.8200000000000D+00  0.0000000000000D+00  0.0000000000000D+00
384  3.8300000000000D+00  0.0000000000000D+00  0.0000000000000D+00
385  3.8400000000000D+00  0.0000000000000D+00  0.0000000000000D+00
386  3.8500000000000D+00  0.0000000000000D+00  0.0000000000000D+00
387  3.8600000000000D+00  0.0000000000000D+00  0.0000000000000D+00
388  3.8700000000000D+00  0.0000000000000D+00  0.0000000000000D+00
389  3.8800000000000D+00  0.0000000000000D+00  0.0000000000000D+00
390  3.8900000000000D+00  0.0000000000000D+00  0.0000000000000D+00
391  3.9000000000000D+00  0.0000000000000D+00  0.0000000000000D+00
392  3.9100000000000D+00  0.0000000000000D+00  0.0000000000000D+00
393  3.9200000000000D+00  0.0000000000000D+00  0.0000000000000D+00
394  3.9300000000000D+00  0.0000000000000D+00  0.0000000000000D+00
395  3.9400000000000D+00  0.0000000000000D+00  0.0000000000000D+00
396  3.9500000000000D+00  0.0000000000000D+00  0.0000000000000D+00
397  3.9600000000000D+00  0.0000000000000D+00  0.0000000000000D+00
398  3.9700000000000D+00  0.0000000000000D+00  0.0000000000000D+00
399  3.9800000000000D+00  0.0000000000000D+00  0.0000000000000D+00
400  3.9900000000000D+00  0.0000000000000D+00  0.0000000000000D+00
401  4.0000000000000D+00  0.0000000000000D+00  0.0000000000000D+00
402  4.0100000000000D+00  0.0000000000000D+00  0.0000000000000D+00
403  4.0200000000000D+00  0.0000000000000D+00  0.0000000000000D+00
404  4.0300000000000D+00  0.0000000000000D+00  0.0000000000000D+00
405  4.0400000000000D+00  0.0000000000000D+00  0.0000000000000D+00
406  4.0500000000000D+00  0.0000000000000D+00  0.0000000000000D+00
407  4.0600000000000D+00  0.0000000000000D+00  0.0000000000000D+00
408  4.0700000000000D+00  0.0000000000000D+00  0.0000000000000D+00
409  4.0800000000000D+00  0.0000000000000D+00  0.0000000000000D+00
410  4.0900000000000D+00  0.0000000000000D+00  0.0000000000000D+00
411  4.1000000000000D+00  0.0000000000000D+00  0.0000000000000D+00
412  4.1100000000000D+00  0.0000000000000D+00  0.0000000000000D+00
413  4.1200000000000D+00  0.0000000000000D+00  0.0000000000000D+00
414  4.1300000000000D+00  0.0000000000000D+00  0.0000000000000D+00
415  4.1400000000000D+00  0.0000000000000D+00  0.0000000000000D+00
416  4.1500000000000D+00  0.0000000000000D+00  0.0000000000000D+00
417  4.1600000000000D+00  0.0000000000000D+00  0.0000000000000D+00
418  4.1700000000000D+00  0.0000000000000D+00  0.0000000000000D+00
419  4.1800000000000D+00  0.0000000000000D+00  0.0000000000000D+00
420  4.1900000000000D+00  0.0000000000000D+00  0.0000000000000D+00
421  4.2000000000000D+00  0.0000000000000D+00  0.0000000000000D+00
422  4.2100000000000D+00  0.0000000000000D+00  0.0000000000000D+00
423  4.2200000000000D+00  0.0000000000000D+00  0.0000000000000D+00
424  4.2300000000000D+00  0.0000000000000D+00  0.0000000000000D+00
425  4.2400000000000D+00  0.0000000000000D+00  0.0000000000000D+00
426  4.2500000000000D+00  0.0000000000000D+00  0.0000000000000D+00
427  4.2600000000000D+00  0.0000000000000D+00  0.0000000000000D+00
428  4.2700000000000D+00  0.0000000000000D+00  0.0000000000000D+00
429  4.2800000000000D+00  0.0000000000000D+00  0.0000000000000D+00
430  4.2900000000000D+00  0.0000000000000D+00  0.0000000000000D+00
431  4.3000000000000D+00  0.0000000000000D+00  0.0000000000000D+00
432  4.3100000000000D+00  0.0000000000000D+00  0.0000000000000D+00
433  4.3200000000000D+00  0.0000000000000D+00  0.0000000000000D+00
434  4.3300000000000D+00  0.0000000000000D+00  0.0000000000000D+00
435  4.3400000000000D+00  0.0000000000000D+00  0.0000000000000D+00
436  4.3500000000000D+00  0.0000000000000D+00  0.0000000000000D+00
437  4.3600000000000D+00  0.0000000000000D+00  0.0000000000000D+00
438  4.3700000000000D+00  0.0000000000000D+00  0.0000000000000D+00
439  4.3800000000000D+00  0.0000000000000D+00  0.0000000000000D+00
440  4.3900000000000D+00  0.0000000000000D+00  0.0000000000000D+00
441  4.4000000000000D+00  0.0000000000000D+00  0.0000000000000D+00
442  4.4100000000000D+00  0.0000000000000D+00  0.0000000000000D+00
443  4.4200000000000D+00  0.0000000000000D+00  0.0000000000000D+00