Sn    ONCVPSP-3.2.3.1  r_core=   2.27326   2.62311   3.13707
50.0000      4.0000      170510    zatom,zion,pspd
8      11   2     4   600     0    pspcod,pspxc,lmax,lloc,mmax,r2well
5.99000000  7.00000000  0.00000000    rchrg fchrg qchrg
2     2     2     0     0    nproj
1     1           extension_switch
0                         4.4629441691755D+00  5.4855308184587D-01
1  0.0000000000000D+00  1.3695294898142D-12 -1.4068135545386D-11
2  1.0000000000000D-02  1.4857240813109D-02  1.6826039016122D-02
3  2.0000000000000D-02  2.9725228889422D-02  3.3573379760574D-02
4  3.0000000000000D-02  4.4614662662577D-02  5.0163622379536D-02
5  4.0000000000000D-02  5.9536143041832D-02  6.6518962812363D-02
6  5.0000000000000D-02  7.4500124986380D-02  8.2562488085405D-02
7  6.0000000000000D-02  8.9516869482520D-02  9.8218468492435D-02
8  7.0000000000000D-02  1.0459639605634D-01  1.1341264564040D-01
9  8.0000000000000D-02  1.1974843595325D-01  1.2807251535327D-01
10  9.0000000000000D-02  1.3498238611386D-01  1.4212760444438D-01
11  1.0000000000000D-01  1.5030726407392D-01  1.5550974038832D-01
12  1.1000000000000D-01  1.6573166391328D-01  1.6815331294794D-01
13  1.2000000000000D-01  1.8126371337659D-01  1.7999552683918D-01
14  1.3000000000000D-01  1.9691103228499D-01  1.9097664454716D-01
15  1.4000000000000D-01  2.1268069235514D-01  2.0104021844049D-01
16  1.5000000000000D-01  2.2857917853807D-01  2.1013331136729D-01
17  1.6000000000000D-01  2.4461235198646D-01  2.1820670495569D-01
18  1.7000000000000D-01  2.6078541475487D-01  2.2521509488370D-01
19  1.8000000000000D-01  2.7710287633304D-01  2.3111727242759D-01
20  1.9000000000000D-01  2.9356852210735D-01  2.3587629164517D-01
21  2.0000000000000D-01  3.1018538384099D-01  2.3945962159908D-01
22  2.1000000000000D-01  3.2695571225800D-01  2.4183928307678D-01
23  2.2000000000000D-01  3.4388095181079D-01  2.4299196931677D-01
24  2.3000000000000D-01  3.6096171770559D-01  2.4289915030530D-01
25  2.4000000000000D-01  3.7819777525387D-01  2.4154716026438D-01
26  2.5000000000000D-01  3.9558802161228D-01  2.3892726800951D-01
27  2.6000000000000D-01  4.1313046996737D-01  2.3503572991399D-01
28  2.7000000000000D-01  4.3082223621485D-01  2.2987382527707D-01
29  2.8000000000000D-01  4.4865952817714D-01  2.2344787395307D-01
30  2.9000000000000D-01  4.6663763739592D-01  2.1576923616010D-01
31  3.0000000000000D-01  4.8475093353027D-01  2.0685429444818D-01
32  3.1000000000000D-01  5.0299286138390D-01  1.9672441786801D-01
33  3.2000000000000D-01  5.2135594057828D-01  1.8540590844326D-01
34  3.3000000000000D-01  5.3983176788188D-01  1.7292993011034D-01
35  3.4000000000000D-01  5.5841102219840D-01  1.5933242035006D-01
36  3.5000000000000D-01  5.7708347221058D-01  1.4465398479582D-01
37  3.6000000000000D-01  5.9583798666887D-01  1.2893977516173D-01
38  3.7000000000000D-01  6.1466254730750D-01  1.1223935089220D-01
39  3.8000000000000D-01  6.3354426436395D-01  9.4606524990944D-02
40  3.9000000000000D-01  6.5246939467069D-01  7.6099194542475D-02
41  4.0000000000000D-01  6.7142336228165D-01  5.6779156492778D-02
42  4.1000000000000D-01  6.9039078158922D-01  3.6711909306876D-02
43  4.2000000000000D-01  7.0935548288115D-01  1.5966441170908D-02
44  4.3000000000000D-01  7.2830054028030D-01 -5.3849945466837D-03
45  4.4000000000000D-01  7.4720830200409D-01 -2.7267115815565D-02
46  4.5000000000000D-01  7.6606042287433D-01 -4.9601859643779D-02
47  4.6000000000000D-01  7.8483789900236D-01 -7.2308640116829D-02
48  4.7000000000000D-01  8.0352110456870D-01 -9.5304615897796D-02
49  4.8000000000000D-01  8.2208983061084D-01 -1.1850496627702D-01
50  4.9000000000000D-01  8.4052332572758D-01 -1.4182317482940D-01
51  5.0000000000000D-01  8.5880033860352D-01 -1.6517131971012D-01
52  5.1000000000000D-01  8.7689916225190D-01 -1.8846036959516D-01
53  5.2000000000000D-01  8.9479767987018D-01 -2.1160048425324D-01
54  5.3000000000000D-01  9.1247341219787D-01 -2.3450131871770D-01
55  5.4000000000000D-01  9.2990356626247D-01 -2.5707233001409D-01
56  5.5000000000000D-01  9.4706508539547D-01 -2.7922308538894D-01
57  5.6000000000000D-01  9.6393470039699D-01 -3.0086357097906D-01
58  5.7000000000000D-01  9.8048898172454D-01 -3.2190449985791D-01
59  5.8000000000000D-01  9.9670439257856D-01 -3.4225761839715D-01
60  5.9000000000000D-01  1.0125573427548D+00 -3.6183600988567D-01
61  6.0000000000000D-01  1.0280242431317D+00 -3.8055439435758D-01
62  6.1000000000000D-01  1.0430815606587D+00 -3.9832942359237D-01
63  6.2000000000000D-01  1.0577058737101D+00 -4.1507997026640D-01
64  6.3000000000000D-01  1.0718739276684D+00 -4.3072741025447D-01
65  6.4000000000000D-01  1.0855626905989D+00 -4.4519589710301D-01
66  6.5000000000000D-01  1.0987494088788D+00 -4.5841262772277D-01
67  6.6000000000000D-01  1.1114116626420D+00 -4.7030809837899D-01
68  6.7000000000000D-01  1.1235274209017D+00 -4.8081635008989D-01
69  6.8000000000000D-01  1.1350750962148D+00 -4.8987520258023D-01
70  6.9000000000000D-01  1.1460335987504D+00 -4.9742647597679D-01
71  7.0000000000000D-01  1.1563823896279D+00 -5.0341619947396D-01
72  7.1000000000000D-01  1.1661015333914D+00 -5.0779480624311D-01
73  7.2000000000000D-01  1.1751717494884D+00 -5.1051731390651D-01
74  7.3000000000000D-01  1.1835744626236D+00 -5.1154348994727D-01
75  7.4000000000000D-01  1.1912918518611D+00 -5.1083800147827D-01
76  7.5000000000000D-01  1.1983068983507D+00 -5.0837054884805D-01
77  7.6000000000000D-01  1.2046034315573D+00 -5.0411598261750D-01
78  7.7000000000000D-01  1.2101661738777D+00 -4.9805440349963D-01
79  7.8000000000000D-01  1.2149807835287D+00 -4.9017124491349D-01
80  7.9000000000000D-01  1.2190338955991D+00 -4.8045733786502D-01
81  8.0000000000000D-01  1.2223131611593D+00 -4.6890895792858D-01
82  8.1000000000000D-01  1.2248072843283D+00 -4.5552785416640D-01
83  8.2000000000000D-01  1.2265060572026D+00 -4.4032125988589D-01
84  8.3000000000000D-01  1.2274003925550D+00 -4.2330188519902D-01
85  8.4000000000000D-01  1.2274823542196D+00 -4.0448789141148D-01
86  8.5000000000000D-01  1.2267451850818D+00 -3.8390284733365D-01
87  8.6000000000000D-01  1.2251833325989D+00 -3.6157566766863D-01
88  8.7000000000000D-01  1.2227924717842D+00 -3.3754053369576D-01
89  8.8000000000000D-01  1.2195695255903D+00 -3.1183679653045D-01
90  8.9000000000000D-01  1.2155126826372D+00 -2.8450886330240D-01
91  9.0000000000000D-01  1.2106214122335D+00 -2.5560606665452D-01
92  9.1000000000000D-01  1.2048964766493D+00 -2.2518251802327D-01
93  9.2000000000000D-01  1.1983399406014D+00 -1.9329694521870D-01
94  9.3000000000000D-01  1.1909551779223D+00 -1.6001251487722D-01
95  9.4000000000000D-01  1.1827468753890D+00 -1.2539664041359D-01
96  9.5000000000000D-01  1.1737210336936D+00 -8.9520776149144D-02
97  9.6000000000000D-01  1.1638849655472D+00 -5.2460198342501D-02
98  9.7000000000000D-01  1.1532472909120D+00 -1.4293773893439D-02
99  9.8000000000000D-01  1.1418179293669D+00  2.4896282464777D-02
100  9.9000000000000D-01  1.1296080896145D+00  6.5024661630519D-02
101  1.0000000000000D+00  1.1166302561492D+00  1.0600322336465D-01
102  1.0100000000000D+00  1.1028981731078D+00  1.4774126836210D-01
103  1.0200000000000D+00  1.0884268253336D+00  1.9014581820880D-01
104  1.0300000000000D+00  1.0732324166917D+00  2.3312190224136D-01
105  1.0400000000000D+00  1.0573323456778D+00  2.7657285030511D-01
106  1.0500000000000D+00  1.0407451783700D+00  3.2040059038473D-01
107  1.0600000000000D+00  1.0234906187810D+00  3.6450595006758D-01
108  1.0700000000000D+00  1.0055894766708D+00  4.0878896078717D-01
109  1.0800000000000D+00  9.8706363288926D-01  4.5314916378667D-01
110  1.0900000000000D+00  9.6793600232127D-01  4.9748591673842D-01
111  1.1000000000000D+00  9.4823049451419D-01  5.4169869995452D-01
112  1.1100000000000D+00  9.2797197207212D-01  5.8568742112820D-01
113  1.1200000000000D+00  9.0718620690671D-01  6.2935271755364D-01
114  1.1300000000000D+00  8.8589983443942D-01  6.7259625478328D-01
115  1.1400000000000D+00  8.6414030585411D-01  7.1532102069582D-01
116  1.1500000000000D+00  8.4193583850455D-01  7.5743161396981D-01
117  1.1600000000000D+00  8.1931536458476D-01  7.9883452598070D-01
118  1.1700000000000D+00  7.9630847817411D-01  8.3943841516409D-01
119  1.1800000000000D+00  7.7294538077292D-01  8.7915437291722D-01
120  1.1900000000000D+00  7.4925682544795D-01  9.1789618014818D-01
121  1.2000000000000D+00  7.2527405971042D-01  9.5558055362312D-01
122  1.2100000000000D+00  7.0102876725069D-01  9.9212738128333D-01
123  1.2200000000000D+00  6.7655300865832D-01  1.0274599457695D+00
124  1.2300000000000D+00  6.5187916125707D-01  1.0615051354301D+00
125  1.2400000000000D+00  6.2703985818654D-01  1.0941936421288D+00
126  1.2500000000000D+00  6.0206792686406D-01  1.1254601452230D+00
127  1.2600000000000D+00  5.7699632696183D-01  1.1552434811536D+00
128  1.2700000000000D+00  5.5185808803476D-01  1.1834867981215D+00
129  1.2800000000000D+00  5.2668624693572D-01  1.2101376953775D+00
130  1.2900000000000D+00  5.0151378515510D-01  1.2351483467527D+00
131  1.3000000000000D+00  4.7637356622125D-01  1.2584756080713D+00
132  1.3100000000000D+00  4.5129827329910D-01  1.2800811081539D+00
133  1.3200000000000D+00  4.2632034712236D-01  1.2999313232334D+00
134  1.3300000000000D+00  4.0147192439490D-01  1.3179976345935D+00
135  1.3400000000000D+00  3.7678477679590D-01  1.3342563693420D+00
136  1.3500000000000D+00  3.5229025071970D-01  1.3486888243387D+00
137  1.3600000000000D+00  3.2801920788349D-01  1.3612812732409D+00
138  1.3700000000000D+00  3.0400196693021D-01  1.3720249568219D+00
139  1.3800000000000D+00  2.8026824615202D-01  1.3809160567334D+00
140  1.3900000000000D+00  2.5684710746217D-01  1.3879556528631D+00
141  1.4000000000000D+00  2.3376690173098D-01  1.3931496646769D+00
142  1.4100000000000D+00  2.1105521560767D-01  1.3965087768074D+00
143  1.4200000000000D+00  1.8873881994253D-01  1.3980483493161D+00
144  1.4300000000000D+00  1.6684361991501D-01  1.3977883131424D+00
145  1.4400000000000D+00  1.4539460698456D-01  1.3957530511328D+00
146  1.4500000000000D+00  1.2441581275561D-01  1.3919712653592D+00
147  1.4600000000000D+00  1.0393026486485D-01  1.3864758312221D+00
148  1.4700000000000D+00  8.3959944980697D-02  1.3793036390612D+00
149  1.4800000000000D+00  6.4525749001256D-02  1.3704954239861D+00
150  1.4900000000000D+00  4.5647449547068D-02  1.3600955846008D+00
151  1.5000000000000D+00  2.7343660808722D-02  1.3481519915279D+00
152  1.5100000000000D+00  9.6318058483985D-03  1.3347157864034D+00
153  1.5200000000000D+00 -7.4719136000520D-03  1.3198411723327D+00
154  1.5300000000000D+00 -2.3952544749294D-02  1.3035851965743D+00
155  1.5400000000000D+00 -3.9796408748121D-02  1.2860075264219D+00
156  1.5500000000000D+00 -5.4991122987984D-02  1.2671702191694D+00
157  1.5600000000000D+00 -6.9525620671509D-02  1.2471374871065D+00
158  1.5700000000000D+00 -8.3390167620554D-02  1.2259754584950D+00
159  1.5800000000000D+00 -9.6576376259490D-02  1.2037519354805D+00
160  1.5900000000000D+00 -1.0907721678404D-01  1.1805361498914D+00
161  1.6000000000000D+00 -1.2088702544372D-01  1.1563985179173D+00
162  1.6100000000000D+00 -1.3200150997567D-01  1.1314103945644D+00
163  1.6200000000000D+00 -1.4241775212058D-01  1.1056438289298D+00
164  1.6300000000000D+00 -1.5213420727295D-01  1.0791713211117D+00
165  1.6400000000000D+00 -1.6115070121139D-01  1.0520655818229D+00
166  1.6500000000000D+00 -1.6946842396697D-01  1.0243992954480D+00
167  1.6600000000000D+00 -1.7708992079387D-01  9.9624488760346D-01
168  1.6700000000000D+00 -1.8401908030616D-01  9.6767429786056D-01
169  1.6800000000000D+00 -1.9026111976133D-01  9.3875875866518D-01
170  1.6900000000000D+00 -1.9582256756236D-01  9.0956858101461D-01
171  1.7000000000000D+00 -2.0071124297223D-01  8.8017294789994D-01
172  1.7100000000000D+00 -2.0493623312381D-01  8.5063971594045D-01
173  1.7200000000000D+00 -2.0850786732762D-01  8.2103522621149D-01
174  1.7300000000000D+00 -2.1143768877575D-01  7.9142412450537D-01
175  1.7400000000000D+00 -2.1373842364793D-01  7.6186919206250D-01
176  1.7500000000000D+00 -2.1542394773737D-01  7.3243118675040D-01
177  1.7600000000000D+00 -2.1650925060082D-01  7.0316869583057D-01
178  1.7700000000000D+00 -2.1701039737361D-01  6.7413799993471D-01
179  1.7800000000000D+00 -2.1694448824804D-01  6.4539294957971D-01
180  1.7900000000000D+00 -2.1632961578106D-01  6.1698485338828D-01
181  1.8000000000000D+00 -2.1518482002337D-01  5.8896237958210D-01
182  1.8100000000000D+00 -2.1353004165301D-01  5.6137146950574D-01
183  1.8200000000000D+00 -2.1138607311447D-01  5.3425526478492D-01
184  1.8300000000000D+00 -2.0877450794120D-01  5.0765404678855D-01
185  1.8400000000000D+00 -2.0571768829255D-01  4.8160518965640D-01
186  1.8500000000000D+00 -2.0223865085911D-01  4.5614312583278D-01
187  1.8600000000000D+00 -1.9836107120844D-01  4.3129932472386D-01
188  1.8700000000000D+00 -1.9410920669440D-01  4.0710228394246D-01
189  1.8800000000000D+00 -1.8950783804387D-01  3.8357753289919D-01
190  1.8900000000000D+00 -1.8458220971406D-01  3.6074764891869D-01
191  1.9000000000000D+00 -1.7935796916982D-01  3.3863228465010D-01
192  1.9100000000000D+00 -1.7386110515364D-01  3.1724820769608D-01
193  1.9200000000000D+00 -1.6811788511498D-01  2.9660935043377D-01
194  1.9300000000000D+00 -1.6215479187497D-01  2.7672687120853D-01
195  1.9400000000000D+00 -1.5599845968075D-01  2.5760922491213D-01
196  1.9500000000000D+00 -1.4967560975313D-01  2.3926224339069D-01
197  1.9600000000000D+00 -1.4321298545577D-01  2.2168922460691D-01
198  1.9700000000000D+00 -1.3663728721155D-01  2.0489102980327D-01
199  1.9800000000000D+00 -1.2997510728722D-01  1.8886618858977D-01
200  1.9900000000000D+00 -1.2325286456475D-01  1.7361101023771D-01
201  2.0000000000000D+00 -1.1649673943972D-01  1.5911970160267D-01
202  2.0100000000000D+00 -1.0973260894345D-01  1.4538448987878D-01
203  2.0200000000000D+00 -1.0298598223791D-01  1.3239575003180D-01
204  2.0300000000000D+00 -9.6281936589853D-02  1.2014213589774D-01
205  2.0400000000000D+00 -8.9645053934328D-02  1.0861071402137D-01
206  2.0500000000000D+00 -8.3099358190407D-02  9.7787099618325D-02
207  2.0600000000000D+00 -7.6668253370892D-02  8.7655593696719D-02
208  2.0700000000000D+00 -7.0374462692519D-02  7.8199320438633D-02
209  2.0800000000000D+00 -6.4239968725379D-02  6.9400364192106D-02
210  2.0900000000000D+00 -5.8285954718928D-02  6.1239905148185D-02
211  2.1000000000000D+00 -5.2532747260585D-02  5.3698352625205D-02
212  2.1100000000000D+00 -4.6999760253424D-02  4.6755475956638D-02
213  2.1200000000000D+00 -4.1705440481853D-02  4.0390530957394D-02
214  2.1300000000000D+00 -3.6667214720747D-02  3.4582382406072D-02
215  2.1400000000000D+00 -3.1901438546767D-02  2.9309621283432D-02
216  2.1500000000000D+00 -2.7423347009444D-02  2.4550675438401D-02
217  2.1600000000000D+00 -2.3247007079318D-02  2.0283914818387D-02
218  2.1700000000000D+00 -1.9385272189366D-02  1.6487748161192D-02
219  2.1800000000000D+00 -1.5849738778289D-02  1.3140712519309D-02
220  2.1900000000000D+00 -1.2650704945739D-02  1.0221554750609D-02
221  2.2000000000000D+00 -9.7989188909515D-03  7.7102679978253D-03
222  2.2100000000000D+00 -7.2991569587234D-03  5.5847069958110D-03
223  2.2200000000000D+00 -5.1547742512949D-03  3.8231372178674D-03
224  2.2300000000000D+00 -3.3635397392119D-03  2.4024706283013D-03
225  2.2400000000000D+00 -1.9550088549549D-03  1.3164975458067D-03
226  2.2500000000000D+00 -9.4303912225827D-04  5.5135826449558D-04
227  2.2600000000000D+00 -3.0927768507734D-04  7.9980255406242D-05
228  2.2700000000000D+00  1.6048486788485D-05 -1.4579593097166D-04
229  2.2800000000000D+00  1.1330809091086D-04 -1.7863986335981D-04
230  2.2900000000000D+00  7.8878141054745D-05 -1.0272745595895D-04
231  2.3000000000000D+00  3.7972359072171D-06 -4.6124239431807D-06
232  2.3100000000000D+00 -2.6706849465403D-05  3.1880666034383D-05
233  2.3200000000000D+00 -2.0255922989522D-05  2.3534107608920D-05
234  2.3300000000000D+00  1.3471039869515D-06 -1.7582739627936D-06
235  2.3400000000000D+00  5.3864463243525D-06 -6.9145072109938D-06
236  2.3500000000000D+00  3.2238428514945D-06 -4.0855013761347D-06
237  2.3600000000000D+00 -9.3548641169794D-08  2.3882066178646D-07
238  2.3700000000000D+00 -1.9511612485364D-07  4.9811265540650D-07
239  2.3800000000000D+00 -8.5932729531256D-08  2.1937797363109D-07
240  2.3900000000000D+00  0.0000000000000D+00  0.0000000000000D+00
241  2.4000000000000D+00  0.0000000000000D+00  0.0000000000000D+00
242  2.4100000000000D+00  0.0000000000000D+00  0.0000000000000D+00
243  2.4200000000000D+00  0.0000000000000D+00  0.0000000000000D+00
244  2.4300000000000D+00  0.0000000000000D+00  0.0000000000000D+00
245  2.4400000000000D+00  0.0000000000000D+00  0.0000000000000D+00
246  2.4500000000000D+00  0.0000000000000D+00  0.0000000000000D+00
247  2.4600000000000D+00  0.0000000000000D+00  0.0000000000000D+00
248  2.4700000000000D+00  0.0000000000000D+00  0.0000000000000D+00
249  2.4800000000000D+00  0.0000000000000D+00  0.0000000000000D+00
250  2.4900000000000D+00  0.0000000000000D+00  0.0000000000000D+00
251  2.5000000000000D+00  0.0000000000000D+00  0.0000000000000D+00
252  2.5100000000000D+00  0.0000000000000D+00  0.0000000000000D+00
253  2.5200000000000D+00  0.0000000000000D+00  0.0000000000000D+00
254  2.5300000000000D+00  0.0000000000000D+00  0.0000000000000D+00
255  2.5400000000000D+00  0.0000000000000D+00  0.0000000000000D+00
256  2.5500000000000D+00  0.0000000000000D+00  0.0000000000000D+00
257  2.5600000000000D+00  0.0000000000000D+00  0.0000000000000D+00
258  2.5700000000000D+00  0.0000000000000D+00  0.0000000000000D+00
259  2.5800000000000D+00  0.0000000000000D+00  0.0000000000000D+00
260  2.5900000000000D+00  0.0000000000000D+00  0.0000000000000D+00
261  2.6000000000000D+00  0.0000000000000D+00  0.0000000000000D+00
262  2.6100000000000D+00  0.0000000000000D+00  0.0000000000000D+00
263  2.6200000000000D+00  0.0000000000000D+00  0.0000000000000D+00
264  2.6300000000000D+00  0.0000000000000D+00  0.0000000000000D+00
265  2.6400000000000D+00  0.0000000000000D+00  0.0000000000000D+00
266  2.6500000000000D+00  0.0000000000000D+00  0.0000000000000D+00
267  2.6600000000000D+00  0.0000000000000D+00  0.0000000000000D+00
268  2.6700000000000D+00  0.0000000000000D+00  0.0000000000000D+00
269  2.6800000000000D+00  0.0000000000000D+00  0.0000000000000D+00
270  2.6900000000000D+00  0.0000000000000D+00  0.0000000000000D+00
271  2.7000000000000D+00  0.0000000000000D+00  0.0000000000000D+00
272  2.7100000000000D+00  0.0000000000000D+00  0.0000000000000D+00
273  2.7200000000000D+00  0.0000000000000D+00  0.0000000000000D+00
274  2.7300000000000D+00  0.0000000000000D+00  0.0000000000000D+00
275  2.7400000000000D+00  0.0000000000000D+00  0.0000000000000D+00
276  2.7500000000000D+00  0.0000000000000D+00  0.0000000000000D+00
277  2.7600000000000D+00  0.0000000000000D+00  0.0000000000000D+00
278  2.7700000000000D+00  0.0000000000000D+00  0.0000000000000D+00
279  2.7800000000000D+00  0.0000000000000D+00  0.0000000000000D+00
280  2.7900000000000D+00  0.0000000000000D+00  0.0000000000000D+00
281  2.8000000000000D+00  0.0000000000000D+00  0.0000000000000D+00
282  2.8100000000000D+00  0.0000000000000D+00  0.0000000000000D+00
283  2.8200000000000D+00  0.0000000000000D+00  0.0000000000000D+00
284  2.8300000000000D+00  0.0000000000000D+00  0.0000000000000D+00
285  2.8400000000000D+00  0.0000000000000D+00  0.0000000000000D+00
286  2.8500000000000D+00  0.0000000000000D+00  0.0000000000000D+00
287  2.8600000000000D+00  0.0000000000000D+00  0.0000000000000D+00
288  2.8700000000000D+00  0.0000000000000D+00  0.0000000000000D+00
289  2.8800000000000D+00  0.0000000000000D+00  0.0000000000000D+00
290  2.8900000000000D+00  0.0000000000000D+00  0.0000000000000D+00
291  2.9000000000000D+00  0.0000000000000D+00  0.0000000000000D+00
292  2.9100000000000D+00  0.0000000000000D+00  0.0000000000000D+00
293  2.9200000000000D+00  0.0000000000000D+00  0.0000000000000D+00
294  2.9300000000000D+00  0.0000000000000D+00  0.0000000000000D+00
295  2.9400000000000D+00  0.0000000000000D+00  0.0000000000000D+00
296  2.9500000000000D+00  0.0000000000000D+00  0.0000000000000D+00
297  2.9600000000000D+00  0.0000000000000D+00  0.0000000000000D+00
298  2.9700000000000D+00  0.0000000000000D+00  0.0000000000000D+00
299  2.9800000000000D+00  0.0000000000000D+00  0.0000000000000D+00
300  2.9900000000000D+00  0.0000000000000D+00  0.0000000000000D+00
301  3.0000000000000D+00  0.0000000000000D+00  0.0000000000000D+00
302  3.0100000000000D+00  0.0000000000000D+00  0.0000000000000D+00
303  3.0200000000000D+00  0.0000000000000D+00  0.0000000000000D+00
304  3.0300000000000D+00  0.0000000000000D+00  0.0000000000000D+00
305  3.0400000000000D+00  0.0000000000000D+00  0.0000000000000D+00
306  3.0500000000000D+00  0.0000000000000D+00  0.0000000000000D+00
307  3.0600000000000D+00  0.0000000000000D+00  0.0000000000000D+00
308  3.0700000000000D+00  0.0000000000000D+00  0.0000000000000D+00
309  3.0800000000000D+00  0.0000000000000D+00  0.0000000000000D+00
310  3.0900000000000D+00  0.0000000000000D+00  0.0000000000000D+00
311  3.1000000000000D+00  0.0000000000000D+00  0.0000000000000D+00
312  3.1100000000000D+00  0.0000000000000D+00  0.0000000000000D+00
313  3.1200000000000D+00  0.0000000000000D+00  0.0000000000000D+00
314  3.1300000000000D+00  0.0000000000000D+00  0.0000000000000D+00
315  3.1400000000000D+00  0.0000000000000D+00  0.0000000000000D+00
316  3.1500000000000D+00  0.0000000000000D+00  0.0000000000000D+00
317  3.1600000000000D+00  0.0000000000000D+00  0.0000000000000D+00
318  3.1700000000000D+00  0.0000000000000D+00  0.0000000000000D+00
319  3.1800000000000D+00  0.0000000000000D+00  0.0000000000000D+00
320  3.1900000000000D+00  0.0000000000000D+00  0.0000000000000D+00
321  3.2000000000000D+00  0.0000000000000D+00  0.0000000000000D+00
322  3.2100000000000D+00  0.0000000000000D+00  0.0000000000000D+00
323  3.2200000000000D+00  0.0000000000000D+00  0.0000000000000D+00
324  3.2300000000000D+00  0.0000000000000D+00  0.0000000000000D+00
325  3.2400000000000D+00  0.0000000000000D+00  0.0000000000000D+00
326  3.2500000000000D+00  0.0000000000000D+00  0.0000000000000D+00
327  3.2600000000000D+00  0.0000000000000D+00  0.0000000000000D+00
328  3.2700000000000D+00  0.0000000000000D+00  0.0000000000000D+00
329  3.2800000000000D+00  0.0000000000000D+00  0.0000000000000D+00
330  3.2900000000000D+00  0.0000000000000D+00  0.0000000000000D+00
331  3.3000000000000D+00  0.0000000000000D+00  0.0000000000000D+00
332  3.3100000000000D+00  0.0000000000000D+00  0.0000000000000D+00
333  3.3200000000000D+00  0.0000000000000D+00  0.0000000000000D+00
334  3.3300000000000D+00  0.0000000000000D+00  0.0000000000000D+00
335  3.3400000000000D+00  0.0000000000000D+00  0.0000000000000D+00
336  3.3500000000000D+00  0.0000000000000D+00  0.0000000000000D+00
337  3.3600000000000D+00  0.0000000000000D+00  0.0000000000000D+00
338  3.3700000000000D+00  0.0000000000000D+00  0.0000000000000D+00
339  3.3800000000000D+00  0.0000000000000D+00  0.0000000000000D+00
340  3.3900000000000D+00  0.0000000000000D+00  0.0000000000000D+00
341  3.4000000000000D+00  0.0000000000000D+00  0.0000000000000D+00
342  3.4100000000000D+00  0.0000000000000D+00  0.0000000000000D+00
343  3.4200000000000D+00  0.0000000000000D+00  0.0000000000000D+00
344  3.4300000000000D+00  0.0000000000000D+00  0.0000000000000D+00
345  3.4400000000000D+00  0.0000000000000D+00  0.0000000000000D+00
346  3.4500000000000D+00  0.0000000000000D+00  0.0000000000000D+00
347  3.4600000000000D+00  0.0000000000000D+00  0.0000000000000D+00
348  3.4700000000000D+00  0.0000000000000D+00  0.0000000000000D+00
349  3.4800000000000D+00  0.0000000000000D+00  0.0000000000000D+00
350  3.4900000000000D+00  0.0000000000000D+00  0.0000000000000D+00
351  3.5000000000000D+00  0.0000000000000D+00  0.0000000000000D+00
352  3.5100000000000D+00  0.0000000000000D+00  0.0000000000000D+00
353  3.5200000000000D+00  0.0000000000000D+00  0.0000000000000D+00
354  3.5300000000000D+00  0.0000000000000D+00  0.0000000000000D+00
355  3.5400000000000D+00  0.0000000000000D+00  0.0000000000000D+00
356  3.5500000000000D+00  0.0000000000000D+00  0.0000000000000D+00
357  3.5600000000000D+00  0.0000000000000D+00  0.0000000000000D+00
358  3.5700000000000D+00  0.0000000000000D+00  0.0000000000000D+00
359  3.5800000000000D+00  0.0000000000000D+00  0.0000000000000D+00
360  3.5900000000000D+00  0.0000000000000D+00  0.0000000000000D+00
361  3.6000000000000D+00  0.0000000000000D+00  0.0000000000000D+00
362  3.6100000000000D+00  0.0000000000000D+00  0.0000000000000D+00
363  3.6200000000000D+00  0.0000000000000D+00  0.0000000000000D+00
364  3.6300000000000D+00  0.0000000000000D+00  0.0000000000000D+00
365  3.6400000000000D+00  0.0000000000000D+00  0.0000000000000D+00
366  3.6500000000000D+00  0.0000000000000D+00  0.0000000000000D+00
367  3.6600000000000D+00  0.0000000000000D+00  0.0000000000000D+00
368  3.6700000000000D+00  0.0000000000000D+00  0.0000000000000D+00
369  3.6800000000000D+00  0.0000000000000D+00  0.0000000000000D+00
370  3.6900000000000D+00  0.0000000000000D+00  0.0000000000000D+00
371  3.7000000000000D+00  0.0000000000000D+00  0.0000000000000D+00
372  3.7100000000000D+00  0.0000000000000D+00  0.0000000000000D+00
373  3.7200000000000D+00  0.0000000000000D+00  0.0000000000000D+00
374  3.7300000000000D+00  0.0000000000000D+00  0.0000000000000D+00
375  3.7400000000000D+00  0.0000000000000D+00  0.0000000000000D+00
376  3.7500000000000D+00  0.0000000000000D+00  0.0000000000000D+00
377  3.7600000000000D+00  0.0000000000000D+00  0.0000000000000D+00
378  3.7700000000000D+00  0.0000000000000D+00  0.0000000000000D+00
379  3.7800000000000D+00  0.0000000000000D+00  0.0000000000000D+00
380  3.7900000000000D+00  0.0000000000000D+00  0.0000000000000D+00
381  3.8000000000000D+00  0.0000000000000D+00  0.0000000000000D+00
382  3.8100000000000D+00  0.0000000000000D+00  0.0000000000000D+00
383  3.8200000000000D+00  0.0000000000000D+00  0.0000000000000D+00
384  3.8300000000000D+00  0.0000000000000D+00  0.0000000000000D+00
385  3.8400000000000D+00  0.0000000000000D+00  0.0000000000000D+00
386  3.8500000000000D+00  0.0000000000000D+00  0.0000000000000D+00
387  3.8600000000000D+00  0.0000000000000D+00  0.0000000000000D+00
388  3.8700000000000D+00  0.0000000000000D+00  0.0000000000000D+00
389  3.8800000000000D+00  0.0000000000000D+00  0.0000000000000D+00
390  3.8900000000000D+00  0.0000000000000D+00  0.0000000000000D+00
391  3.9000000000000D+00  0.0000000000000D+00  0.0000000000000D+00
392  3.9100000000000D+00  0.0000000000000D+00  0.0000000000000D+00
393  3.9200000000000D+00  0.0000000000000D+00  0.0000000000000D+00
394  3.9300000000000D+00  0.0000000000000D+00  0.0000000000000D+00
395  3.9400000000000D+00  0.0000000000000D+00  0.0000000000000D+00
396  3.9500000000000D+00  0.0000000000000D+00  0.0000000000000D+00
397  3.9600000000000D+00  0.0000000000000D+00  0.0000000000000D+00
398  3.9700000000000D+00  0.0000000000000D+00  0.0000000000000D+00
399  3.9800000000000D+00  0.0000000000000D+00  0.0000000000000D+00
400  3.9900000000000D+00  0.0000000000000D+00  0.0000000000000D+00
401  4.0000000000000D+00  0.0000000000000D+00  0.0000000000000D+00
402  4.0100000000000D+00  0.0000000000000D+00  0.0000000000000D+00
403  4.0200000000000D+00  0.0000000000000D+00  0.0000000000000D+00
404  4.0300000000000D+00  0.0000000000000D+00  0.0000000000000D+00
405  4.0400000000000D+00  0.0000000000000D+00  0.0000000000000D+00
406  4.0500000000000D+00  0.0000000000000D+00  0.0000000000000D+00
407  4.0600000000000D+00  0.0000000000000D+00  0.0000000000000D+00
408  4.0700000000000D+00  0.0000000000000D+00  0.0000000000000D+00
409  4.0800000000000D+00  0.0000000000000D+00  0.0000000000000D+00
410  4.0900000000000D+00  0.0000000000000D+00  0.0000000000000D+00
411  4.1000000000000D+00  0.0000000000000D+00  0.0000000000000D+00
412  4.1100000000000D+00  0.0000000000000D+00  0.0000000000000D+00
413  4.1200000000000D+00  0.0000000000000D+00  0.0000000000000D+00
414  4.1300000000000D+00  0.0000000000000D+00  0.0000000000000D+00
415  4.1400000000000D+00  0.0000000000000D+00  0.0000000000000D+00
416  4.1500000000000D+00  0.0000000000000D+00  0.0000000000000D+00
417  4.1600000000000D+00  0.0000000000000D+00  0.0000000000000D+00
418  4.1700000000000D+00  0.0000000000000D+00  0.0000000000000D+00
419  4.1800000000000D+00  0.0000000000000D+00  0.0000000000000D+00
420  4.1900000000000D+00  0.0000000000000D+00  0.0000000000000D+00
421  4.2000000000000D+00  0.0000000000000D+00  0.0000000000000D+00
422  4.2100000000000D+00  0.0000000000000D+00  0.0000000000000D+00
423  4.2200000000000D+00  0.0000000000000D+00  0.0000000000000D+00
424  4.2300000000000D+00  0.0000000000000D+00  0.0000000000000D+00
425  4.2400000000000D+00  0.0000000000000D+00  0.0000000000000D+00
426  4.2500000000000D+00  0.0000000000000D+00  0.0000000000000D+00
427  4.2600000000000D+00  0.0000000000000D+00  0.0000000000000D+00
428  4.2700000000000D+00  0.0000000000000D+00  0.0000000000000D+00
429  4.2800000000000D+00  0.0000000000000D+00  0.0000000000000D+00
430  4.2900000000000D+00  0.0000000000000D+00  0.0000000000000D+00
431  4.3000000000000D+00  0.0000000000000D+00  0.0000000000000D+00
432  4.3100000000000D+00  0.0000000000000D+00  0.0000000000000D+00
433  4.3200000000000D+00  0.0000000000000D+00  0.0000000000000D+00
434  4.3300000000000D+00  0.0000000000000D+00  0.0000000000000D+00
435  4.3400000000000D+00  0.0000000000000D+00  0.0000000000000D+00
436  4.3500000000000D+00  0.0000000000000D+00  0.0000000000000D+00
437  4.3600000000000D+00  0.0000000000000D+00  0.0000000000000D+00
438  4.3700000000000D+00  0.0000000000000D+00  0.0000000000000D+00
439  4.3800000000000D+00  0.0000000000000D+00  0.0000000000000D+00
440  4.3900000000000D+00  0.0000000000000D+00  0.0000000000000D+00
441  4.4000000000000D+00  0.0000000000000D+00  0.0000000000000D+00
442  4.4100000000000D+00  0.0000000000000D+00  0.0000000000000D+00
443  4.4200000000000D+00  0.0000000000000D+00  0.0000000000000D+00