Mo    ONCVPSP-3.2.3.1  r_core=   1.45541   1.45541   1.35488
42.0000     14.0000      170510    zatom,zion,pspd
8      11   2     4   600     0    pspcod,pspxc,lmax,lloc,mmax,r2well
5.99000000  3.00000000  0.00000000    rchrg fchrg qchrg
2     2     2     0     0    nproj
1     1           extension_switch
0                         1.3833286793978D+01  1.3506869863398D+00
1  0.0000000000000D+00  1.8251194999763D-10 -4.8342976843863D-10
2  1.0000000000000D-02  5.5879310153415D-02 -1.8128247496210D-02
3  2.0000000000000D-02  1.1171786525318D-01 -3.6280676816297D-02
4  3.0000000000000D-02  1.6747450997177D-01 -5.4480309424115D-02
5  4.0000000000000D-02  2.2310729353943D-01 -7.2747859488160D-02
6  5.0000000000000D-02  2.7857308474028D-01 -9.1100613672350D-02
7  6.0000000000000D-02  3.3382720203919D-01 -1.0955135070877D-01
8  7.0000000000000D-02  3.8882306366738D-01 -1.2810731344235D-01
9  8.0000000000000D-02  4.4351186231235D-01 -1.4676924555398D-01
10  9.0000000000000D-02  4.9784226883236D-01 -1.6553050457163D-01
11  1.0000000000000D-01  5.5176016914903D-01 -1.8437626207298D-01
12  1.1000000000000D-01  6.0520843816638D-01 -2.0328280117394D-01
13  1.2000000000000D-01  6.5812675422278D-01 -2.2221692049123D-01
14  1.3000000000000D-01  7.1045145720654D-01 -2.4113545277177D-01
15  1.4000000000000D-01  7.6211545305978D-01 -2.5998490530441D-01
16  1.5000000000000D-01  8.1304816696138D-01 -2.7870122807958D-01
17  1.6000000000000D-01  8.6317554702279D-01 -2.9720971444961D-01
18  1.7000000000000D-01  9.1242011985256D-01 -3.1542503777554D-01
19  1.8000000000000D-01  9.6070109885240D-01 -3.3325142623713D-01
20  1.9000000000000D-01  1.0079345456018D+00 -3.5058297664163D-01
21  2.0000000000000D-01  1.0540335841756D+00 -3.6730410670520D-01
22  2.1000000000000D-01  1.0989086677212D+00 -3.8329014391037D-01
23  2.2000000000000D-01  1.1424678961088D+00 -3.9840804767572D-01
24  2.3000000000000D-01  1.1846173829560D+00 -4.1251726022143D-01
25  2.4000000000000D-01  1.2252616698296D+00 -4.2547068018904D-01
26  2.5000000000000D-01  1.2643041849410D+00 -4.3711575178781D-01
27  2.6000000000000D-01  1.3016477431865D+00 -4.4729566100392D-01
28  2.7000000000000D-01  1.3371950839368D+00 -4.5585062923631D-01
29  2.8000000000000D-01  1.3708494425673D+00 -4.6261929362256D-01
30  2.9000000000000D-01  1.4025151513324D+00 -4.6744016230356D-01
31  3.0000000000000D-01  1.4320982648348D+00 -4.7015313195374D-01
32  3.1000000000000D-01  1.4595072050324D+00 -4.7060105408731D-01
33  3.2000000000000D-01  1.4846534204479D+00 -4.6863133594586D-01
34  3.3000000000000D-01  1.5074520540229D+00 -4.6409756118918D-01
35  3.4000000000000D-01  1.5278226138754D+00 -4.5686111515469D-01
36  3.5000000000000D-01  1.5456896410870D+00 -4.4679279912834D-01
37  3.6000000000000D-01  1.5609833685664D+00 -4.3377441788607D-01
38  3.7000000000000D-01  1.5736403650030D+00 -4.1770032472314D-01
39  3.8000000000000D-01  1.5836041579510D+00 -3.9847890829188D-01
40  3.9000000000000D-01  1.5908258301564D+00 -3.7603400581907D-01
41  4.0000000000000D-01  1.5952645833730D+00 -3.5030622766955D-01
42  4.1000000000000D-01  1.5968882640923D+00 -3.2125417876463D-01
43  4.2000000000000D-01  1.5956738458475D+00 -2.8885556304794D-01
44  4.3000000000000D-01  1.5916078630374D+00 -2.5310815801404D-01
45  4.4000000000000D-01  1.5846867915460D+00 -2.1403064727129D-01
46  4.5000000000000D-01  1.5749173718159D+00 -1.7166330019340D-01
47  4.6000000000000D-01  1.5623168704535D+00 -1.2606848891618D-01
48  4.7000000000000D-01  1.5469132769089D+00 -7.7331034247252D-02
49  4.8000000000000D-01  1.5287454322698D+00 -2.5558373467603D-02
50  4.9000000000000D-01  1.5078630877439D+00  2.9119455496535D-02
51  5.0000000000000D-01  1.4843268909609D+00  8.6550017479127D-02
52  5.1000000000000D-01  1.4582082988110D+00  1.4655887336817D-01
53  5.2000000000000D-01  1.4295894161367D+00  2.0895016391368D-01
54  5.3000000000000D-01  1.3985627602129D+00  2.7350738295891D-01
55  5.4000000000000D-01  1.3652309515691D+00  3.3999433726953D-01
56  5.5000000000000D-01  1.3297063323387D+00  4.0815628839885D-01
57  5.6000000000000D-01  1.2921105139366D+00  4.7772127030612D-01
58  5.7000000000000D-01  1.2525738564859D+00  5.4840157475750D-01
59  5.8000000000000D-01  1.2112348830093D+00  6.1989539489326D-01
60  5.9000000000000D-01  1.1682396319798D+00  6.9188861577380D-01
61  6.0000000000000D-01  1.1237409523820D+00  7.6405673921244D-01
62  6.1000000000000D-01  1.0778977459523D+00  8.3606692880765D-01
63  6.2000000000000D-01  1.0308741617564D+00  9.0758015979125D-01
64  6.3000000000000D-01  9.8283874870518D-01  9.7825345714366D-01
65  6.4000000000000D-01  9.3396357201046D-01  1.0477422043980D+00
66  6.5000000000000D-01  8.8442329993347D-01  1.1157025046708D+00
67  6.6000000000000D-01  8.3439426747315D-01  1.1817935747385D+00
68  6.7000000000000D-01  7.8405352388469D-01  1.2456801524235D+00
69  6.8000000000000D-01  7.3357787109844D-01  1.3070348971791D+00
70  6.9000000000000D-01  6.8314290023034D-01  1.3655407635654D+00
71  7.0000000000000D-01  6.3292203343151D-01  1.4208933273023D+00
72  7.1000000000000D-01  5.8308557831858D-01  1.4728030437668D+00
73  7.2000000000000D-01  5.3379980215490D-01  1.5209974191713D+00
74  7.3000000000000D-01  4.8522603281763D-01  1.5652230752175D+00
75  7.4000000000000D-01  4.3751979338691D-01  1.6052476887707D+00
76  7.5000000000000D-01  3.9082997693440D-01  1.6408617890122D+00
77  7.6000000000000D-01  3.4529806776648D-01  1.6718803956357D+00
78  7.7000000000000D-01  3.0105741500203D-01  1.6981444829089D+00
79  7.8000000000000D-01  2.5823256393310D-01  1.7195222558364D+00
80  7.9000000000000D-01  2.1693865013664D-01  1.7359102262183D+00
81  8.0000000000000D-01  1.7728086077897D-01  1.7472340780793D+00
82  8.1000000000000D-01  1.3935396698815D-01  1.7534493137405D+00
83  8.2000000000000D-01  1.0324193056710D-01  1.7545416736940D+00
84  8.3000000000000D-01  6.9017587688529D-02  1.7505273254088D+00
85  8.4000000000000D-01  3.6742411557309D-02  1.7414528182220D+00
86  8.5000000000000D-01  6.4663553532737D-03  1.7273948035314D+00
87  8.6000000000000D-01 -2.1772223916356D-02  1.7084595215884D+00
88  8.7000000000000D-01 -4.7946560713065D-02  1.6847820582688D+00
89  8.8000000000000D-01 -7.2041396155054D-02  1.6565253772540D+00
90  8.9000000000000D-01 -9.4052814515914D-02  1.6238791350640D+00
91  9.0000000000000D-01 -1.1398800311219D-01  1.5870582883290D+00
92  9.1000000000000D-01 -1.3186493829484D-01  1.5463015045446D+00
93  9.2000000000000D-01 -1.4771200086689D-01  1.5018693893085D+00
94  9.3000000000000D-01 -1.6156752482214D-01  1.4540425446633D+00
95  9.4000000000000D-01 -1.7347928383107D-01  1.4031194746615D+00
96  9.5000000000000D-01 -1.8350392038478D-01  1.3494143555910D+00
97  9.6000000000000D-01 -1.9170632294180D-01  1.2932546894619D+00
98  9.7000000000000D-01 -1.9815895680009D-01  1.2349788603217D+00
99  9.8000000000000D-01 -2.0294115473550D-01  1.1749336137418D+00
100  9.9000000000000D-01 -2.0613837370355D-01  1.1134714803830D+00
101  1.0000000000000D+00 -2.0784142408889D-01  1.0509481649020D+00
102  1.0100000000000D+00 -2.0814567811599D-01  9.8771992160517D-01
103  1.0200000000000D+00 -2.0715026408349D-01  9.2414093815986D-01
104  1.0300000000000D+00 -2.0495725307311D-01  8.6056074837768D-01
105  1.0400000000000D+00 -2.0167084470311D-01  7.9732169456553D-01
106  1.0500000000000D+00 -1.9739655833238D-01  7.3475645915158D-01
107  1.0600000000000D+00 -1.9224043593423D-01  6.7318568446596D-01
108  1.0700000000000D+00 -1.8630826254760D-01  6.1291569828215D-01
109  1.0800000000000D+00 -1.7970480989160D-01  5.5423636147279D-01
110  1.0900000000000D+00 -1.7253310833309D-01  4.9741905262875D-01
111  1.1000000000000D+00 -1.6489375190884D-01  4.4271480268899D-01
112  1.1100000000000D+00 -1.5688424070941D-01  3.9035259118853D-01
113  1.1200000000000D+00 -1.4859836426499D-01  3.4053781334420D-01
114  1.1300000000000D+00 -1.4012562909824D-01  2.9345092552482D-01
115  1.1400000000000D+00 -1.3155073290963D-01  2.4924627420905D-01
116  1.1500000000000D+00 -1.2295308739398D-01  2.0805111191482D-01
117  1.1600000000000D+00 -1.1440639086575D-01  1.6996480076542D-01
118  1.1700000000000D+00 -1.0597825132754D-01  1.3505820251836D-01
119  1.1800000000000D+00 -9.7729859862393D-02  1.0337325134574D-01
120  1.1900000000000D+00 -8.9715713817711D-02  7.4922704263187D-02
121  1.2000000000000D+00 -8.1983388290324D-02  4.9690060925113D-02
122  1.2100000000000D+00 -7.4573353979446D-02  2.7629643065827D-02
123  1.2200000000000D+00 -6.7518838005354D-02  8.6668174093061D-03
124  1.2300000000000D+00 -6.0845730509796D-02 -7.3016217080744D-03
125  1.2400000000000D+00 -5.4572506725351D-02 -2.0407056638505D-02
126  1.2500000000000D+00 -4.8710290565559D-02 -3.0808017006353D-02
127  1.2600000000000D+00 -4.3262602714798D-02 -3.8690761986976D-02
128  1.2700000000000D+00 -3.8225774064298D-02 -4.4266613289678D-02
129  1.2800000000000D+00 -3.3590433433518D-02 -4.7763934911080D-02
130  1.2900000000000D+00 -2.9343269933632D-02 -4.9419425499218D-02
131  1.3000000000000D+00 -2.5468441957357D-02 -4.9471471720910D-02
132  1.3100000000000D+00 -2.1947930731436D-02 -4.8159036933509D-02
133  1.3200000000000D+00 -1.8762246000012D-02 -4.5718745510339D-02
134  1.3300000000000D+00 -1.5891055324402D-02 -4.2382381733717D-02
135  1.3400000000000D+00 -1.3313814558809D-02 -3.8374393401573D-02
136  1.3500000000000D+00 -1.1010371534776D-02 -3.3909528229895D-02
137  1.3600000000000D+00 -8.9615463430871D-03 -2.9190574856702D-02
138  1.3700000000000D+00 -7.1496799710472D-03 -2.4406239242234D-02
139  1.3800000000000D+00 -5.5591452376202D-03 -1.9729177018222D-02
140  1.3900000000000D+00 -4.1768142001162D-03 -1.5314201856727D-02
141  1.4000000000000D+00 -2.9924799090075D-03 -1.1296672636278D-02
142  1.4100000000000D+00 -1.9996791714928D-03 -7.7935050249713D-03
143  1.4200000000000D+00 -1.1938671131276D-03 -4.8906043840020D-03
144  1.4300000000000D+00 -5.7402430705807D-04 -2.6423706052046D-03
145  1.4400000000000D+00 -1.5323194349374D-04 -1.1739093193327D-03
146  1.4500000000000D+00  6.4098793816897D-05 -4.6596112419318D-04
147  1.4600000000000D+00  9.3388131605268D-05 -1.6584786190882D-04
148  1.4700000000000D+00  2.0659671197844D-05 -2.1816176284068D-05
149  1.4800000000000D+00 -1.5885976115809D-05  1.3110388412720D-05
150  1.4900000000000D+00 -1.2412009470518D-06  8.3507061797760D-07
151  1.5000000000000D+00  3.2830777409638D-06 -3.5390147314593D-06
152  1.5100000000000D+00 -9.0962842723365D-08  2.5068219813766D-07
153  1.5200000000000D+00 -2.5427454742577D-07  7.0074879556041D-07
154  1.5300000000000D+00  0.0000000000000D+00  0.0000000000000D+00
155  1.5400000000000D+00  0.0000000000000D+00  0.0000000000000D+00
156  1.5500000000000D+00  0.0000000000000D+00  0.0000000000000D+00
157  1.5600000000000D+00  0.0000000000000D+00  0.0000000000000D+00
158  1.5700000000000D+00  0.0000000000000D+00  0.0000000000000D+00
159  1.5800000000000D+00  0.0000000000000D+00  0.0000000000000D+00
160  1.5900000000000D+00  0.0000000000000D+00  0.0000000000000D+00
161  1.6000000000000D+00  0.0000000000000D+00  0.0000000000000D+00
162  1.6100000000000D+00  0.0000000000000D+00  0.0000000000000D+00
163  1.6200000000000D+00  0.0000000000000D+00  0.0000000000000D+00
164  1.6300000000000D+00  0.0000000000000D+00  0.0000000000000D+00
165  1.6400000000000D+00  0.0000000000000D+00  0.0000000000000D+00
166  1.6500000000000D+00  0.0000000000000D+00  0.0000000000000D+00
167  1.6600000000000D+00  0.0000000000000D+00  0.0000000000000D+00
168  1.6700000000000D+00  0.0000000000000D+00  0.0000000000000D+00
169  1.6800000000000D+00  0.0000000000000D+00  0.0000000000000D+00
170  1.6900000000000D+00  0.0000000000000D+00  0.0000000000000D+00
171  1.7000000000000D+00  0.0000000000000D+00  0.0000000000000D+00
172  1.7100000000000D+00  0.0000000000000D+00  0.0000000000000D+00
173  1.7200000000000D+00  0.0000000000000D+00  0.0000000000000D+00
174  1.7300000000000D+00  0.0000000000000D+00  0.0000000000000D+00
175  1.7400000000000D+00  0.0000000000000D+00  0.0000000000000D+00
176  1.7500000000000D+00  0.0000000000000D+00  0.0000000000000D+00
177  1.7600000000000D+00  0.0000000000000D+00  0.0000000000000D+00
178  1.7700000000000D+00  0.0000000000000D+00  0.0000000000000D+00
179  1.7800000000000D+00  0.0000000000000D+00  0.0000000000000D+00
180  1.7900000000000D+00  0.0000000000000D+00  0.0000000000000D+00
181  1.8000000000000D+00  0.0000000000000D+00  0.0000000000000D+00
182  1.8100000000000D+00  0.0000000000000D+00  0.0000000000000D+00
183  1.8200000000000D+00  0.0000000000000D+00  0.0000000000000D+00
184  1.8300000000000D+00  0.0000000000000D+00  0.0000000000000D+00
185  1.8400000000000D+00  0.0000000000000D+00  0.0000000000000D+00
186  1.8500000000000D+00  0.0000000000000D+00  0.0000000000000D+00
187  1.8600000000000D+00  0.0000000000000D+00  0.0000000000000D+00
188  1.8700000000000D+00  0.0000000000000D+00  0.0000000000000D+00
189  1.8800000000000D+00  0.0000000000000D+00  0.0000000000000D+00
190  1.8900000000000D+00  0.0000000000000D+00  0.0000000000000D+00
191  1.9000000000000D+00  0.0000000000000D+00  0.0000000000000D+00
192  1.9100000000000D+00  0.0000000000000D+00  0.0000000000000D+00
193  1.9200000000000D+00  0.0000000000000D+00  0.0000000000000D+00
194  1.9300000000000D+00  0.0000000000000D+00  0.0000000000000D+00
195  1.9400000000000D+00  0.0000000000000D+00  0.0000000000000D+00
196  1.9500000000000D+00  0.0000000000000D+00  0.0000000000000D+00
197  1.9600000000000D+00  0.0000000000000D+00  0.0000000000000D+00
198  1.9700000000000D+00  0.0000000000000D+00  0.0000000000000D+00
199  1.9800000000000D+00  0.0000000000000D+00  0.0000000000000D+00
200  1.9900000000000D+00  0.0000000000000D+00  0.0000000000000D+00
201  2.0000000000000D+00  0.0000000000000D+00  0.0000000000000D+00
202  2.0100000000000D+00  0.0000000000000D+00  0.0000000000000D+00
203  2.0200000000000D+00  0.0000000000000D+00  0.0000000000000D+00
204  2.0300000000000D+00  0.0000000000000D+00  0.0000000000000D+00
205  2.0400000000000D+00  0.0000000000000D+00  0.0000000000000D+00
206  2.0500000000000D+00  0.0000000000000D+00  0.0000000000000D+00
207  2.0600000000000D+00  0.0000000000000D+00  0.0000000000000D+00
208  2.0700000000000D+00  0.0000000000000D+00  0.0000000000000D+00
209  2.0800000000000D+00  0.0000000000000D+00  0.0000000000000D+00
210  2.0900000000000D+00  0.0000000000000D+00  0.0000000000000D+00
211  2.1000000000000D+00  0.0000000000000D+00  0.0000000000000D+00
212  2.1100000000000D+00  0.0000000000000D+00  0.0000000000000D+00
213  2.1200000000000D+00  0.0000000000000D+00  0.0000000000000D+00
214  2.1300000000000D+00  0.0000000000000D+00  0.0000000000000D+00
215  2.1400000000000D+00  0.0000000000000D+00  0.0000000000000D+00
216  2.1500000000000D+00  0.0000000000000D+00  0.0000000000000D+00
217  2.1600000000000D+00  0.0000000000000D+00  0.0000000000000D+00
218  2.1700000000000D+00  0.0000000000000D+00  0.0000000000000D+00
219  2.1800000000000D+00  0.0000000000000D+00  0.0000000000000D+00
220  2.1900000000000D+00  0.0000000000000D+00  0.0000000000000D+00
221  2.2000000000000D+00  0.0000000000000D+00  0.0000000000000D+00
222  2.2100000000000D+00  0.0000000000000D+00  0.0000000000000D+00
223  2.2200000000000D+00  0.0000000000000D+00  0.0000000000000D+00
224  2.2300000000000D+00  0.0000000000000D+00  0.0000000000000D+00
225  2.2400000000000D+00  0.0000000000000D+00  0.0000000000000D+00
226  2.2500000000000D+00  0.0000000000000D+00  0.0000000000000D+00
227  2.2600000000000D+00  0.0000000000000D+00  0.0000000000000D+00
228  2.2700000000000D+00  0.0000000000000D+00  0.0000000000000D+00
229  2.2800000000000D+00  0.0000000000000D+00  0.0000000000000D+00
230  2.2900000000000D+00  0.0000000000000D+00  0.0000000000000D+00
231  2.3000000000000D+00  0.0000000000000D+00  0.0000000000000D+00
232  2.3100000000000D+00  0.0000000000000D+00  0.0000000000000D+00
233  2.3200000000000D+00  0.0000000000000D+00  0.0000000000000D+00
234  2.3300000000000D+00  0.0000000000000D+00  0.0000000000000D+00
235  2.3400000000000D+00  0.0000000000000D+00  0.0000000000000D+00
236  2.3500000000000D+00  0.0000000000000D+00  0.0000000000000D+00
237  2.3600000000000D+00  0.0000000000000D+00  0.0000000000000D+00
238  2.3700000000000D+00  0.0000000000000D+00  0.0000000000000D+00
239  2.3800000000000D+00  0.0000000000000D+00  0.0000000000000D+00
240  2.3900000000000D+00  0.0000000000000D+00  0.0000000000000D+00
241  2.4000000000000D+00  0.0000000000000D+00  0.0000000000000D+00
242  2.4100000000000D+00  0.0000000000000D+00  0.0000000000000D+00
243  2.4200000000000D+00  0.0000000000000D+00  0.0000000000000D+00
244  2.4300000000000D+00  0.0000000000000D+00  0.0000000000000D+00
245  2.4400000000000D+00  0.0000000000000D+00  0.0000000000000D+00
246  2.4500000000000D+00  0.0000000000000D+00  0.0000000000000D+00
247  2.4600000000000D+00  0.0000000000000D+00  0.0000000000000D+00
248  2.4700000000000D+00  0.0000000000000D+00  0.0000000000000D+00
249  2.4800000000000D+00  0.0000000000000D+00  0.0000000000000D+00
250  2.4900000000000D+00  0.0000000000000D+00  0.0000000000000D+00
251  2.5000000000000D+00  0.0000000000000D+00  0.0000000000000D+00
252  2.5100000000000D+00  0.0000000000000D+00  0.0000000000000D+00
253  2.5200000000000D+00  0.0000000000000D+00  0.0000000000000D+00
254  2.5300000000000D+00  0.0000000000000D+00  0.0000000000000D+00
255  2.5400000000000D+00  0.0000000000000D+00  0.0000000000000D+00
256  2.5500000000000D+00  0.0000000000000D+00  0.0000000000000D+00
257  2.5600000000000D+00  0.0000000000000D+00  0.0000000000000D+00
258  2.5700000000000D+00  0.0000000000000D+00  0.0000000000000D+00
259  2.5800000000000D+00  0.0000000000000D+00  0.0000000000000D+00
260  2.5900000000000D+00  0.0000000000000D+00  0.0000000000000D+00
261  2.6000000000000D+00  0.0000000000000D+00  0.0000000000000D+00
262  2.6100000000000D+00  0.0000000000000D+00  0.0000000000000D+00
263  2.6200000000000D+00  0.0000000000000D+00  0.0000000000000D+00
264  2.6300000000000D+00  0.0000000000000D+00  0.0000000000000D+00
265  2.6400000000000D+00  0.0000000000000D+00  0.0000000000000D+00
266  2.6500000000000D+00  0.0000000000000D+00  0.0000000000000D+00
267  2.6600000000000D+00  0.0000000000000D+00  0.0000000000000D+00
268  2.6700000000000D+00  0.0000000000000D+00  0.0000000000000D+00
269  2.6800000000000D+00  0.0000000000000D+00  0.0000000000000D+00
270  2.6900000000000D+00  0.0000000000000D+00  0.0000000000000D+00
271  2.7000000000000D+00  0.0000000000000D+00  0.0000000000000D+00
272  2.7100000000000D+00  0.0000000000000D+00  0.0000000000000D+00
273  2.7200000000000D+00  0.0000000000000D+00  0.0000000000000D+00
274  2.7300000000000D+00  0.0000000000000D+00  0.0000000000000D+00
275  2.7400000000000D+00  0.0000000000000D+00  0.0000000000000D+00
276  2.7500000000000D+00  0.0000000000000D+00  0.0000000000000D+00
277  2.7600000000000D+00  0.0000000000000D+00  0.0000000000000D+00
278  2.7700000000000D+00  0.0000000000000D+00  0.0000000000000D+00
279  2.7800000000000D+00  0.0000000000000D+00  0.0000000000000D+00
280  2.7900000000000D+00  0.0000000000000D+00  0.0000000000000D+00
281  2.8000000000000D+00  0.0000000000000D+00  0.0000000000000D+00
282  2.8100000000000D+00  0.0000000000000D+00  0.0000000000000D+00
283  2.8200000000000D+00  0.0000000000000D+00  0.0000000000000D+00
284  2.8300000000000D+00  0.0000000000000D+00  0.0000000000000D+00
285  2.8400000000000D+00  0.0000000000000D+00  0.0000000000000D+00
286  2.8500000000000D+00  0.0000000000000D+00  0.0000000000000D+00
287  2.8600000000000D+00  0.0000000000000D+00  0.0000000000000D+00
288  2.8700000000000D+00  0.0000000000000D+00  0.0000000000000D+00
289  2.8800000000000D+00  0.0000000000000D+00  0.0000000000000D+00
290  2.8900000000000D+00  0.0000000000000D+00  0.0000000000000D+00
291  2.9000000000000D+00  0.0000000000000D+00  0.0000000000000D+00
292  2.9100000000000D+00  0.0000000000000D+00  0.0000000000000D+00
293  2.9200000000000D+00  0.0000000000000D+00  0.0000000000000D+00
294  2.9300000000000D+00  0.0000000000000D+00  0.0000000000000D+00
295  2.9400000000000D+00  0.0000000000000D+00  0.0000000000000D+00
296  2.9500000000000D+00  0.0000000000000D+00  0.0000000000000D+00
297  2.9600000000000D+00  0.0000000000000D+00  0.0000000000000D+00
298  2.9700000000000D+00  0.0000000000000D+00  0.0000000000000D+00
299  2.9800000000000D+00  0.0000000000000D+00  0.0000000000000D+00
300  2.9900000000000D+00  0.0000000000000D+00  0.0000000000000D+00
301  3.0000000000000D+00  0.0000000000000D+00  0.0000000000000D+00
302  3.0100000000000D+00  0.0000000000000D+00  0.0000000000000D+00
303  3.0200000000000D+00  0.0000000000000D+00  0.0000000000000D+00
304  3.0300000000000D+00  0.0000000000000D+00  0.0000000000000D+00
305  3.0400000000000D+00  0.0000000000000D+00  0.0000000000000D+00
306  3.0500000000000D+00  0.0000000000000D+00  0.0000000000000D+00
307  3.0600000000000D+00  0.0000000000000D+00  0.0000000000000D+00
308  3.0700000000000D+00  0.0000000000000D+00  0.0000000000000D+00
309  3.0800000000000D+00  0.0000000000000D+00  0.0000000000000D+00
310  3.0900000000000D+00  0.0000000000000D+00  0.0000000000000D+00
311  3.1000000000000D+00  0.0000000000000D+00  0.0000000000000D+00
312  3.1100000000000D+00  0.0000000000000D+00  0.0000000000000D+00
313  3.1200000000000D+00  0.0000000000000D+00  0.0000000000000D+00
314  3.1300000000000D+00  0.0000000000000D+00  0.0000000000000D+00
315  3.1400000000000D+00  0.0000000000000D+00  0.0000000000000D+00
316  3.1500000000000D+00  0.0000000000000D+00  0.0000000000000D+00
317  3.1600000000000D+00  0.0000000000000D+00  0.0000000000000D+00
318  3.1700000000000D+00  0.0000000000000D+00  0.0000000000000D+00
319  3.1800000000000D+00  0.0000000000000D+00  0.0000000000000D+00
320  3.1900000000000D+00  0.0000000000000D+00  0.0000000000000D+00
321  3.2000000000000D+00  0.0000000000000D+00  0.0000000000000D+00
322  3.2100000000000D+00  0.0000000000000D+00  0.0000000000000D+00
323  3.2200000000000D+00  0.0000000000000D+00  0.0000000000000D+00
324  3.2300000000000D+00  0.0000000000000D+00  0.0000000000000D+00
325  3.2400000000000D+00  0.0000000000000D+00  0.0000000000000D+00
326  3.2500000000000D+00  0.0000000000000D+00  0.0000000000000D+00
327  3.2600000000000D+00  0.0000000000000D+00  0.0000000000000D+00
328  3.2700000000000D+00  0.0000000000000D+00  0.0000000000000D+00
329  3.2800000000000D+00  0.0000000000000D+00  0.0000000000000D+00
330  3.2900000000000D+00  0.0000000000000D+00  0.0000000000000D+00
331  3.3000000000000D+00  0.0000000000000D+00  0.0000000000000D+00
332  3.3100000000000D+00  0.0000000000000D+00  0.0000000000000D+00
333  3.3200000000000D+00  0.0000000000000D+00  0.0000000000000D+00
334  3.3300000000000D+00  0.0000000000000D+00  0.0000000000000D+00
335  3.3400000000000D+00  0.0000000000000D+00  0.0000000000000D+00
336  3.3500000000000D+00  0.0000000000000D+00  0.0000000000000D+00
337  3.3600000000000D+00  0.0000000000000D+00  0.0000000000000D+00
338  3.3700000000000D+00  0.0000000000000D+00  0.0000000000000D+00
339  3.3800000000000D+00  0.0000000000000D+00  0.0000000000000D+00
340  3.3900000000000D+00  0.0000000000000D+00  0.0000000000000D+00
341  3.4000000000000D+00  0.0000000000000D+00  0.0000000000000D+00
342  3.4100000000000D+00  0.0000000000000D+00  0.0000000000000D+00
343  3.4200000000000D+00  0.0000000000000D+00  0.0000000000000D+00
344  3.4300000000000D+00  0.0000000000000D+00  0.0000000000000D+00
345  3.4400000000000D+00  0.0000000000000D+00  0.0000000000000D+00
346  3.4500000000000D+00  0.0000000000000D+00  0.0000000000000D+00
347  3.4600000000000D+00  0.0000000000000D+00  0.0000000000000D+00
348  3.4700000000000D+00  0.0000000000000D+00  0.0000000000000D+00
349  3.4800000000000D+00  0.0000000000000D+00  0.0000000000000D+00
350  3.4900000000000D+00  0.0000000000000D+00  0.0000000000000D+00
351  3.5000000000000D+00  0.0000000000000D+00  0.0000000000000D+00
352  3.5100000000000D+00  0.0000000000000D+00  0.0000000000000D+00
353  3.5200000000000D+00  0.0000000000000D+00  0.0000000000000D+00
354  3.5300000000000D+00  0.0000000000000D+00  0.0000000000000D+00
355  3.5400000000000D+00  0.0000000000000D+00  0.0000000000000D+00
356  3.5500000000000D+00  0.0000000000000D+00  0.0000000000000D+00
357  3.5600000000000D+00  0.0000000000000D+00  0.0000000000000D+00
358  3.5700000000000D+00  0.0000000000000D+00  0.0000000000000D+00
359  3.5800000000000D+00  0.0000000000000D+00  0.0000000000000D+00
360  3.5900000000000D+00  0.0000000000000D+00  0.0000000000000D+00
361  3.6000000000000D+00  0.0000000000000D+00  0.0000000000000D+00
362  3.6100000000000D+00  0.0000000000000D+00  0.0000000000000D+00
363  3.6200000000000D+00  0.0000000000000D+00  0.0000000000000D+00
364  3.6300000000000D+00  0.0000000000000D+00  0.0000000000000D+00
365  3.6400000000000D+00  0.0000000000000D+00  0.0000000000000D+00
366  3.6500000000000D+00  0.0000000000000D+00  0.0000000000000D+00
367  3.6600000000000D+00  0.0000000000000D+00  0.0000000000000D+00
368  3.6700000000000D+00  0.0000000000000D+00  0.0000000000000D+00
369  3.6800000000000D+00  0.0000000000000D+00  0.0000000000000D+00
370  3.6900000000000D+00  0.0000000000000D+00  0.0000000000000D+00
371  3.7000000000000D+00  0.0000000000000D+00  0.0000000000000D+00
372  3.7100000000000D+00  0.0000000000000D+00  0.0000000000000D+00
373  3.7200000000000D+00  0.0000000000000D+00  0.0000000000000D+00
374  3.7300000000000D+00  0.0000000000000D+00  0.0000000000000D+00
375  3.7400000000000D+00  0.0000000000000D+00  0.0000000000000D+00
376  3.7500000000000D+00  0.0000000000000D+00  0.0000000000000D+00
377  3.7600000000000D+00  0.0000000000000D+00  0.0000000000000D+00
378  3.7700000000000D+00  0.0000000000000D+00  0.0000000000000D+00
379  3.7800000000000D+00  0.0000000000000D+00  0.0000000000000D+00
380  3.7900000000000D+00  0.0000000000000D+00  0.0000000000000D+00
381  3.8000000000000D+00  0.0000000000000D+00  0.0000000000000D+00
382  3.8100000000000D+00  0.0000000000000D+00  0.0000000000000D+00
383  3.8200000000000D+00  0.0000000000000D+00  0.0000000000000D+00
384  3.8300000000000D+00  0.0000000000000D+00  0.0000000000000D+00
385  3.8400000000000D+00  0.0000000000000D+00  0.0000000000000D+00
386  3.8500000000000D+00  0.0000000000000D+00  0.0000000000000D+00
387  3.8600000000000D+00  0.0000000000000D+00  0.0000000000000D+00
388  3.8700000000000D+00  0.0000000000000D+00  0.0000000000000D+00
389  3.8800000000000D+00  0.0000000000000D+00  0.0000000000000D+00
390  3.8900000000000D+00  0.0000000000000D+00  0.0000000000000D+00
391  3.9000000000000D+00  0.0000000000000D+00  0.0000000000000D+00
392  3.9100000000000D+00  0.0000000000000D+00  0.0000000000000D+00
393  3.9200000000000D+00  0.0000000000000D+00  0.0000000000000D+00
394  3.9300000000000D+00  0.0000000000000D+00  0.0000000000000D+00
395  3.9400000000000D+00  0.0000000000000D+00  0.0000000000000D+00
396  3.9500000000000D+00  0.0000000000000D+00  0.0000000000000D+00
397  3.9600000000000D+00  0.0000000000000D+00  0.0000000000000D+00
398  3.9700000000000D+00  0.0000000000000D+00  0.0000000000000D+00
399  3.9800000000000D+00  0.0000000000000D+00  0.0000000000000D+00
400  3.9900000000000D+00  0.0000000000000D+00  0.0000000000000D+00
401  4.0000000000000D+00  0.0000000000000D+00  0.0000000000000D+00
402  4.0100000000000D+00  0.0000000000000D+00  0.0000000000000D+00
403  4.0200000000000D+00  0.0000000000000D+00  0.0000000000000D+00
404  4.0300000000000D+00  0.0000000000000D+00  0.0000000000000D+00
405  4.0400000000000D+00  0.0000000000000D+00  0.0000000000000D+00
406  4.0500000000000D+00  0.0000000000000D+00  0.0000000000000D+00
407  4.0600000000000D+00  0.0000000000000D+00  0.0000000000000D+00
408  4.0700000000000D+00  0.0000000000000D+00  0.0000000000000D+00
409  4.0800000000000D+00  0.0000000000000D+00  0.0000000000000D+00
410  4.0900000000000D+00  0.0000000000000D+00  0.0000000000000D+00
411  4.1000000000000D+00  0.0000000000000D+00  0.0000000000000D+00
412  4.1100000000000D+00  0.0000000000000D+00  0.0000000000000D+00
413  4.1200000000000D+00  0.0000000000000D+00  0.0000000000000D+00
414  4.1300000000000D+00  0.0000000000000D+00  0.0000000000000D+00
415  4.1400000000000D+00  0.0000000000000D+00  0.0000000000000D+00
416  4.1500000000000D+00  0.0000000000000D+00  0.0000000000000D+00
417  4.1600000000000D+00  0.0000000000000D+00  0.0000000000000D+00
418  4.1700000000000D+00  0.0000000000000D+00  0.0000000000000D+00
419  4.1800000000000D+00  0.0000000000000D+00  0.0000000000000D+00
420  4.1900000000000D+00  0.0000000000000D+00  0.0000000000000D+00
421  4.2000000000000D+00  0.0000000000000D+00  0.0000000000000D+00
422  4.2100000000000D+00  0.0000000000000D+00  0.0000000000000D+00
423  4.2200000000000D+00  0.0000000000000D+00  0.0000000000000D+00
424  4.2300000000000D+00  0.0000000000000D+00  0.0000000000000D+00
425  4.2400000000000D+00  0.0000000000000D+00  0.0000000000000D+00
426  4.2500000000000D+00  0.0000000000000D+00  0.0000000000000D+00
427  4.2600000000000D+00  0.0000000000000D+00  0.0000000000000D+00
428  4.2700000000000D+00  0.0000000000000D+00  0.0000000000000D+00
429  4.2800000000000D+00  0.0000000000000D+00  0.0000000000000D+00
430  4.2900000000000D+00  0.0000000000000D+00  0.0000000000000D+00
431  4.3000000000000D+00  0.0000000000000D+00  0.0000000000000D+00
432  4.3100000000000D+00  0.0000000000000D+00  0.0000000000000D+00
433  4.3200000000000D+00  0.0000000000000D+00  0.0000000000000D+00
434  4.3300000000000D+00  0.0000000000000D+00  0.0000000000000D+00
435  4.3400000000000D+00  0.0000000000000D+00  0.0000000000000D+00
436  4.3500000000000D+00  0.0000000000000D+00  0.0000000000000D+00
437  4.3600000000000D+00  0.0000000000000D+00  0.0000000000000D+00
438  4.3700000000000D+00  0.0000000000000D+00  0.0000000000000D+00
439  4.3800000000000D+00  0.0000000000000D+00  0.0000000000000D+00
440  4.3900000000000D+00  0.0000000000000D+00  0.0000000000000D+00
441  4.4000000000000D+00  0.0000000000000D+00  0.0000000000000D+00
442  4.4100000000000D+00  0.0000000000000D+00  0.0000000000000D+00
443  4.4200000000000D+00  0.0000000000000D+00  0.0000000000000D+00