Hg    ONCVPSP-3.3.0  r_core=   1.60079   1.60079   1.45509   1.60079
80.0000     20.0000      180423    zatom,zion,pspd
8      11   3     4   600     0    pspcod,pspxc,lmax,lloc,mmax,r2well
5.99000000  5.00000000  0.00000000    rchrg fchrg qchrg
2     4     4     2    nproj
3     1           extension_switch
4     4     2    nprojso
0                         1.9910922681822D+00  1.4300280004959D+01
1  0.0000000000000D+00  5.0328909095843D-10 -2.6837332356422D-10
2  1.0000000000000D-02 -9.5059715931705D-03  7.6552763729045D-02
3  2.0000000000000D-02 -1.8866372863459D-02  1.5290549868033D-01
4  3.0000000000000D-02 -2.7936738316268D-02  2.2885899985708D-01
5  4.0000000000000D-02 -3.6574800920303D-02  3.0421570351306D-01
6  5.0000000000000D-02 -4.4641563485538D-02  3.7878049206841D-01
7  6.0000000000000D-02 -5.2002336977848D-02  4.5236148036662D-01
8  7.0000000000000D-02 -5.8527735346557D-02  5.2477077737175D-01
9  8.0000000000000D-02 -6.4094616944454D-02  5.9582521767318D-01
10  9.0000000000000D-02 -6.8586963237923D-02  6.6534705749486D-01
11  1.0000000000000D-01 -7.1896686230930D-02  7.3316463029317D-01
12  1.1000000000000D-01 -7.3924356852104D-02  7.9911295746733D-01
13  1.2000000000000D-01 -7.4579847469632D-02  8.6303431019459D-01
14  1.3000000000000D-01 -7.3782882693772D-02  9.2477871893247D-01
15  1.4000000000000D-01 -7.1463493689540D-02  9.8420442769639D-01
16  1.5000000000000D-01 -6.7562372340855D-02  1.0411782908175D+00
17  1.6000000000000D-01 -6.2031122768211D-02  1.0955761105026D+00
18  1.7000000000000D-01 -5.4832408892417D-02  1.1472829141537D+00
19  1.8000000000000D-01 -4.5939997941754D-02  1.1961931710431D+00
20  1.9000000000000D-01 -3.5338701005918D-02  1.2422109485847D+00
21  2.0000000000000D-01 -2.3024212932723D-02  1.2852500090744D+00
22  2.1000000000000D-01 -9.0028550279367D-03  1.3252338483922D+00
23  2.2000000000000D-01  6.7087748582200D-03  1.3620956787553D+00
24  2.3000000000000D-01  2.4084239206883D-02  1.3957783581788D+00
25  2.4000000000000D-01  4.3087778018520D-02  1.4262342698320D+00
26  2.5000000000000D-01  6.3674898744434D-02  1.4534251549630D+00
27  2.6000000000000D-01  8.5793030567104D-02  1.4773219035056D+00
28  2.7000000000000D-01  1.0938223391141D-01  1.4979043068654D+00
29  2.8000000000000D-01  1.3437595545736D-01  1.5151607777038D+00
30  2.9000000000000D-01  1.6070181843440D-01  1.5290880418019D+00
31  3.0000000000000D-01  1.8828243761307D-01  1.5396908072772D+00
32  3.1000000000000D-01  2.1703624817871D-01  1.5469814165498D+00
33  3.2000000000000D-01  2.4687833757633D-01  1.5509794865055D+00
34  3.3000000000000D-01  2.7772126945903D-01  1.5517115422818D+00
35  3.4000000000000D-01  3.0947588905401D-01  1.5492106500069D+00
36  3.5000000000000D-01  3.4205209958030D-01  1.5435160536583D+00
37  3.6000000000000D-01  3.7535959980703D-01  1.5346728209647D+00
38  3.7000000000000D-01  4.0930857342614D-01  1.5227315029750D+00
39  3.8000000000000D-01  4.4381032162346D-01  1.5077478115461D+00
40  3.9000000000000D-01  4.7877783105849D-01  1.4897823185696D+00
41  4.0000000000000D-01  5.1412627039683D-01  1.4689001802780D+00
42  4.1000000000000D-01  5.4977340957026D-01  1.4451708894307D+00
43  4.2000000000000D-01  5.8563995705486D-01  1.4186680576088D+00
44  4.3000000000000D-01  6.2164981164440D-01  1.3894692292347D+00
45  4.4000000000000D-01  6.5773022644071D-01  1.3576557282921D+00
46  4.5000000000000D-01  6.9381188406897D-01  1.3233125380667D+00
47  4.6000000000000D-01  7.2982888343780D-01  1.2865282135570D+00
48  4.7000000000000D-01  7.6571863968660D-01  1.2473948255368D+00
49  4.8000000000000D-01  8.0142170027571D-01  1.2060079345876D+00
50  4.9000000000000D-01  8.3688148146579D-01  1.1624665927730D+00
51  5.0000000000000D-01  8.7204393068036D-01  1.1168733700091D+00
52  5.1000000000000D-01  9.0685712143478D-01  1.0693344015998D+00
53  5.2000000000000D-01  9.4127078863016D-01  1.0199594528635D+00
54  5.3000000000000D-01  9.7523581303456D-01  9.6886199629090D-01
55  5.4000000000000D-01  1.0087036646916D+00  9.1615929624230D-01
56  5.5000000000000D-01  1.0416258157972D+00  8.6197249583064D-01
57  5.6000000000000D-01  1.0739531342505D+00  8.0642670034812D-01
58  5.7000000000000D-01  1.1056352696116D+00  7.4965105138306D-01
59  5.8000000000000D-01  1.1366200435682D+00  6.9177878564737D-01
60  5.9000000000000D-01  1.1668528572255D+00  6.3294727249619D-01
61  6.0000000000000D-01  1.1962761275809D+00  5.7329802417235D-01
62  6.1000000000000D-01  1.2248287654155D+00  5.1297667295081D-01
63  6.2000000000000D-01  1.2524457065443D+00  4.5213290959390D-01
64  6.3000000000000D-01  1.2790575078929D+00  3.9092037785470D-01
65  6.4000000000000D-01  1.3045900192350D+00  3.2949652018090D-01
66  6.5000000000000D-01  1.3289641406239D+00  2.6802237027587D-01
67  6.6000000000000D-01  1.3520956745896D+00  2.0666228875621D-01
68  6.7000000000000D-01  1.3738952810717D+00  1.4558363880579D-01
69  6.8000000000000D-01  1.3942685418107D+00  8.4956399458303D-02
70  6.9000000000000D-01  1.4131161395518D+00  2.4952714932525D-02
71  7.0000000000000D-01  1.4303341559464D+00 -3.4253620712866D-02
72  7.1000000000000D-01  1.4458144904600D+00 -9.2487743443585D-02
73  7.2000000000000D-01  1.4594454009552D+00 -1.4957436255255D-01
74  7.3000000000000D-01  1.4711121649255D+00 -2.0533846537497D-01
75  7.4000000000000D-01  1.4806978586186D+00 -2.5960608043290D-01
76  7.5000000000000D-01  1.4880842495527D+00 -3.1220509507669D-01
77  7.6000000000000D-01  1.4931527961907D+00 -3.6296612274607D-01
78  7.7000000000000D-01  1.4957857468371D+00 -4.1172341406476D-01
79  7.8000000000000D-01  1.4958673281825D+00 -4.5831580510746D-01
80  7.9000000000000D-01  1.4932850123462D+00 -5.0258769535603D-01
81  8.0000000000000D-01  1.4879308498028D+00 -5.4439004710339D-01
82  8.1000000000000D-01  1.4797028542294D+00 -5.8358139737963D-01
83  8.2000000000000D-01  1.4685064241008D+00 -6.2002887287766D-01
84  8.3000000000000D-01  1.4542557848133D+00 -6.5360919785353D-01
85  8.4000000000000D-01  1.4368754342421D+00 -6.8420968457978D-01
86  8.5000000000000D-01  1.4163015739590D+00 -7.1172919564646D-01
87  8.6000000000000D-01  1.3924835078554D+00 -7.3607906724013D-01
88  8.7000000000000D-01  1.3653849896583D+00 -7.5718398249208D-01
89  8.8000000000000D-01  1.3349855007847D+00 -7.7498278407743D-01
90  8.9000000000000D-01  1.3012814401723D+00 -7.8942921546822D-01
91  9.0000000000000D-01  1.2642872081472D+00 -8.0049258059828D-01
92  9.1000000000000D-01  1.2240361670448D+00 -8.0815831218373D-01
93  9.2000000000000D-01  1.1805814621838D+00 -8.1242843955879D-01
94  9.3000000000000D-01  1.1339966879031D+00 -8.1332194762776D-01
95  9.4000000000000D-01  1.0843763846958D+00 -8.1087501939535D-01
96  9.5000000000000D-01  1.0318363549997D+00 -8.0514115551096D-01
97  9.6000000000000D-01  9.7651378692390D-01 -7.9619116534028D-01
98  9.7000000000000D-01  9.1856717707916D-01 -7.8411302524857D-01
99  9.8000000000000D-01  8.5817604571372D-01 -7.6901160102789D-01
100  9.9000000000000D-01  7.9554043958115D-01 -7.5100823275150D-01
101  1.0000000000000D+00  7.3088022013245D-01 -7.3024018164651D-01
102  1.0100000000000D+00  6.6443413713332D-01 -7.0685994007882D-01
103  1.0200000000000D+00  5.9645869012910D-01 -6.8103440712609D-01
104  1.0300000000000D+00  5.2722678266295D-01 -6.5294393368495D-01
105  1.0400000000000D+00  4.5702617658095D-01 -6.2278124248807D-01
106  1.0500000000000D+00  3.8615775624974D-01 -5.9075022986553D-01
107  1.0600000000000D+00  3.1493361467948D-01 -5.5706465734736D-01
108  1.0700000000000D+00  2.4367497602861D-01 -5.2194674264337D-01
109  1.0800000000000D+00  1.7270997098306D-01 -4.8562566069565D-01
110  1.0900000000000D+00  1.0237128351157D-01 -4.4833596664911D-01
111  1.1000000000000D+00  3.2993689416448D-02 -4.1031595367147D-01
112  1.1100000000000D+00 -3.5088491525632D-02 -3.7180595932963D-01
113  1.1200000000000D+00 -1.0154400628842D-01 -3.3304663520112D-01
114  1.1300000000000D+00 -1.6604731773544D-01 -2.9427719489070D-01
115  1.1400000000000D+00 -2.2828126672248D-01 -2.5573365615049D-01
116  1.1500000000000D+00 -2.8793972116258D-01 -2.1764709308280D-01
117  1.1600000000000D+00 -3.4473018557201D-01 -1.8024191461856D-01
118  1.1700000000000D+00 -3.9837634466062D-01 -1.4373418538872D-01
119  1.1800000000000D+00 -4.4862051495369D-01 -1.0833000479018D-01
120  1.1900000000000D+00 -4.9522597853534D-01 -7.4223959954489D-02
121  1.2000000000000D+00 -5.3797917430110D-01 -4.1597667477224D-02
122  1.2100000000000D+00 -5.7669172321248D-01 -1.0618418079192D-02
123  1.2200000000000D+00 -6.1120226524182D-01  1.8562062382079D-02
124  1.2300000000000D+00 -6.4137808735331D-01  4.5808723162928D-02
125  1.2400000000000D+00 -6.6711652439818D-01  7.1004159302499D-02
126  1.2500000000000D+00 -6.8834611668647D-01  9.4049433008568D-02
127  1.2600000000000D+00 -7.0502750950111D-01  1.1486473697947D-01
128  1.2700000000000D+00 -7.1715408425619D-01  1.3338989355208D-01
129  1.2800000000000D+00 -7.2475231283071D-01  1.4958468465734D-01
130  1.2900000000000D+00 -7.2788182799038D-01  1.6342900840383D-01
131  1.3000000000000D+00 -7.2663520904412D-01  1.7492286183128D-01
132  1.3100000000000D+00 -7.2113748268043D-01  1.8408614984552D-01
133  1.3200000000000D+00 -7.1154534099286D-01  1.9095832158557D-01
134  1.3300000000000D+00 -6.9804608573321D-01  1.9559783964416D-01
135  1.3400000000000D+00 -6.8085630672216D-01  1.9808148690293D-01
136  1.3500000000000D+00 -6.6022030660382D-01  1.9850351827311D-01
137  1.3600000000000D+00 -6.3640828976021D-01  1.9697466795730D-01
138  1.3700000000000D+00 -6.0971433028503D-01  1.9362102112600D-01
139  1.3800000000000D+00 -5.8045414179187D-01  1.8858276355723D-01
140  1.3900000000000D+00 -5.4896267216901D-01  1.8201282298207D-01
141  1.4000000000000D+00 -5.1559154587474D-01  1.7407541557641D-01
142  1.4100000000000D+00 -4.8070639335834D-01  1.6494452035059D-01
143  1.4200000000000D+00 -4.4468402878626D-01  1.5480226346506D-01
144  1.4300000000000D+00 -4.0790976102455D-01  1.4383736212967D-01
145  1.4400000000000D+00 -3.7077398585090D-01  1.3224318852001D-01
146  1.4500000000000D+00 -3.3367030573991D-01  1.2021662200404D-01
147  1.4600000000000D+00 -2.9699245974682D-01  1.0795627758089D-01
148  1.4700000000000D+00 -2.6112647993452D-01  9.5658287658615D-02
149  1.4800000000000D+00 -2.2644393352665D-01  8.3512602874348D-02
150  1.4900000000000D+00 -1.9329416934360D-01  7.1698742736108D-02
151  1.5000000000000D+00 -1.6200095444063D-01  6.0383813442152D-02
152  1.5100000000000D+00 -1.3286116462544D-01  4.9721577821545D-02
153  1.5200000000000D+00 -1.0614178064475D-01  3.9850686490785D-02
154  1.5300000000000D+00 -8.2077957455265D-02  3.0893472358878D-02
155  1.5400000000000D+00 -6.0871094710186D-02  2.2954767993423D-02
156  1.5500000000000D+00 -4.2697066748023D-02  1.6124614310817D-02
157  1.5600000000000D+00 -2.7663203291898D-02  1.0461751493001D-02
158  1.5700000000000D+00 -1.5796872899206D-02  5.9885934857399D-03
159  1.5800000000000D+00 -7.3472521193490D-03  2.8067284616455D-03
160  1.5900000000000D+00 -2.4716694758303D-03  9.7827792180230D-04
161  1.6000000000000D+00 -3.8426446240077D-04  1.9279069886899D-04
162  1.6100000000000D+00  1.2017947959768D-04 -1.9421972421907D-05
163  1.6200000000000D+00  3.8892734264131D-08 -1.0351758846037D-08
164  1.6300000000000D+00 -5.8524764573664D-05  1.7018961964795D-05
165  1.6400000000000D+00  9.5353648363269D-07 -2.2754106873362D-07
166  1.6500000000000D+00  9.3160228008908D-06 -2.3880069723734D-06
167  1.6600000000000D+00  1.4253620448522D-07 -7.5918795388196D-08
168  1.6700000000000D+00  8.3855378095198D-07 -4.4663735187851D-07
169  1.6800000000000D+00  0.0000000000000D+00  0.0000000000000D+00
170  1.6900000000000D+00  0.0000000000000D+00  0.0000000000000D+00
171  1.7000000000000D+00  0.0000000000000D+00  0.0000000000000D+00
172  1.7100000000000D+00  0.0000000000000D+00  0.0000000000000D+00
173  1.7200000000000D+00  0.0000000000000D+00  0.0000000000000D+00
174  1.7300000000000D+00  0.0000000000000D+00  0.0000000000000D+00
175  1.7400000000000D+00  0.0000000000000D+00  0.0000000000000D+00
176  1.7500000000000D+00  0.0000000000000D+00  0.0000000000000D+00
177  1.7600000000000D+00  0.0000000000000D+00  0.0000000000000D+00
178  1.7700000000000D+00  0.0000000000000D+00  0.0000000000000D+00
179  1.7800000000000D+00  0.0000000000000D+00  0.0000000000000D+00
180  1.7900000000000D+00  0.0000000000000D+00  0.0000000000000D+00
181  1.8000000000000D+00  0.0000000000000D+00  0.0000000000000D+00
182  1.8100000000000D+00  0.0000000000000D+00  0.0000000000000D+00
183  1.8200000000000D+00  0.0000000000000D+00  0.0000000000000D+00
184  1.8300000000000D+00  0.0000000000000D+00  0.0000000000000D+00
185  1.8400000000000D+00  0.0000000000000D+00  0.0000000000000D+00
186  1.8500000000000D+00  0.0000000000000D+00  0.0000000000000D+00
187  1.8600000000000D+00  0.0000000000000D+00  0.0000000000000D+00
188  1.8700000000000D+00  0.0000000000000D+00  0.0000000000000D+00
189  1.8800000000000D+00  0.0000000000000D+00  0.0000000000000D+00
190  1.8900000000000D+00  0.0000000000000D+00  0.0000000000000D+00
191  1.9000000000000D+00  0.0000000000000D+00  0.0000000000000D+00
192  1.9100000000000D+00  0.0000000000000D+00  0.0000000000000D+00
193  1.9200000000000D+00  0.0000000000000D+00  0.0000000000000D+00
194  1.9300000000000D+00  0.0000000000000D+00  0.0000000000000D+00
195  1.9400000000000D+00  0.0000000000000D+00  0.0000000000000D+00
196  1.9500000000000D+00  0.0000000000000D+00  0.0000000000000D+00
197  1.9600000000000D+00  0.0000000000000D+00  0.0000000000000D+00
198  1.9700000000000D+00  0.0000000000000D+00  0.0000000000000D+00
199  1.9800000000000D+00  0.0000000000000D+00  0.0000000000000D+00
200  1.9900000000000D+00  0.0000000000000D+00  0.0000000000000D+00
201  2.0000000000000D+00  0.0000000000000D+00  0.0000000000000D+00
202  2.0100000000000D+00  0.0000000000000D+00  0.0000000000000D+00
203  2.0200000000000D+00  0.0000000000000D+00  0.0000000000000D+00
204  2.0300000000000D+00  0.0000000000000D+00  0.0000000000000D+00
205  2.0400000000000D+00  0.0000000000000D+00  0.0000000000000D+00
206  2.0500000000000D+00  0.0000000000000D+00  0.0000000000000D+00
207  2.0600000000000D+00  0.0000000000000D+00  0.0000000000000D+00
208  2.0700000000000D+00  0.0000000000000D+00  0.0000000000000D+00
209  2.0800000000000D+00  0.0000000000000D+00  0.0000000000000D+00
210  2.0900000000000D+00  0.0000000000000D+00  0.0000000000000D+00
211  2.1000000000000D+00  0.0000000000000D+00  0.0000000000000D+00
212  2.1100000000000D+00  0.0000000000000D+00  0.0000000000000D+00
213  2.1200000000000D+00  0.0000000000000D+00  0.0000000000000D+00
214  2.1300000000000D+00  0.0000000000000D+00  0.0000000000000D+00
215  2.1400000000000D+00  0.0000000000000D+00  0.0000000000000D+00
216  2.1500000000000D+00  0.0000000000000D+00  0.0000000000000D+00
217  2.1600000000000D+00  0.0000000000000D+00  0.0000000000000D+00
218  2.1700000000000D+00  0.0000000000000D+00  0.0000000000000D+00
219  2.1800000000000D+00  0.0000000000000D+00  0.0000000000000D+00
220  2.1900000000000D+00  0.0000000000000D+00  0.0000000000000D+00
221  2.2000000000000D+00  0.0000000000000D+00  0.0000000000000D+00
222  2.2100000000000D+00  0.0000000000000D+00  0.0000000000000D+00
223  2.2200000000000D+00  0.0000000000000D+00  0.0000000000000D+00
224  2.2300000000000D+00  0.0000000000000D+00  0.0000000000000D+00
225  2.2400000000000D+00  0.0000000000000D+00  0.0000000000000D+00
226  2.2500000000000D+00  0.0000000000000D+00  0.0000000000000D+00
227  2.2600000000000D+00  0.0000000000000D+00  0.0000000000000D+00
228  2.2700000000000D+00  0.0000000000000D+00  0.0000000000000D+00
229  2.2800000000000D+00  0.0000000000000D+00  0.0000000000000D+00
230  2.2900000000000D+00  0.0000000000000D+00  0.0000000000000D+00
231  2.3000000000000D+00  0.0000000000000D+00  0.0000000000000D+00
232  2.3100000000000D+00  0.0000000000000D+00  0.0000000000000D+00
233  2.3200000000000D+00  0.0000000000000D+00  0.0000000000000D+00
234  2.3300000000000D+00  0.0000000000000D+00  0.0000000000000D+00
235  2.3400000000000D+00  0.0000000000000D+00  0.0000000000000D+00
236  2.3500000000000D+00  0.0000000000000D+00  0.0000000000000D+00
237  2.3600000000000D+00  0.0000000000000D+00  0.0000000000000D+00
238  2.3700000000000D+00  0.0000000000000D+00  0.0000000000000D+00
239  2.3800000000000D+00  0.0000000000000D+00  0.0000000000000D+00
240  2.3900000000000D+00  0.0000000000000D+00  0.0000000000000D+00
241  2.4000000000000D+00  0.0000000000000D+00  0.0000000000000D+00
242  2.4100000000000D+00  0.0000000000000D+00  0.0000000000000D+00
243  2.4200000000000D+00  0.0000000000000D+00  0.0000000000000D+00
244  2.4300000000000D+00  0.0000000000000D+00  0.0000000000000D+00
245  2.4400000000000D+00  0.0000000000000D+00  0.0000000000000D+00
246  2.4500000000000D+00  0.0000000000000D+00  0.0000000000000D+00
247  2.4600000000000D+00  0.0000000000000D+00  0.0000000000000D+00
248  2.4700000000000D+00  0.0000000000000D+00  0.0000000000000D+00
249  2.4800000000000D+00  0.0000000000000D+00  0.0000000000000D+00
250  2.4900000000000D+00  0.0000000000000D+00  0.0000000000000D+00
251  2.5000000000000D+00  0.0000000000000D+00  0.0000000000000D+00
252  2.5100000000000D+00  0.0000000000000D+00  0.0000000000000D+00
253  2.5200000000000D+00  0.0000000000000D+00  0.0000000000000D+00
254  2.5300000000000D+00  0.0000000000000D+00  0.0000000000000D+00
255  2.5400000000000D+00  0.0000000000000D+00  0.0000000000000D+00
256  2.5500000000000D+00  0.0000000000000D+00  0.0000000000000D+00
257  2.5600000000000D+00  0.0000000000000D+00  0.0000000000000D+00
258  2.5700000000000D+00  0.0000000000000D+00  0.0000000000000D+00
259  2.5800000000000D+00  0.0000000000000D+00  0.0000000000000D+00
260  2.5900000000000D+00  0.0000000000000D+00  0.0000000000000D+00
261  2.6000000000000D+00  0.0000000000000D+00  0.0000000000000D+00
262  2.6100000000000D+00  0.0000000000000D+00  0.0000000000000D+00
263  2.6200000000000D+00  0.0000000000000D+00  0.0000000000000D+00
264  2.6300000000000D+00  0.0000000000000D+00  0.0000000000000D+00
265  2.6400000000000D+00  0.0000000000000D+00  0.0000000000000D+00
266  2.6500000000000D+00  0.0000000000000D+00  0.0000000000000D+00
267  2.6600000000000D+00  0.0000000000000D+00  0.0000000000000D+00
268  2.6700000000000D+00  0.0000000000000D+00  0.0000000000000D+00
269  2.6800000000000D+00  0.0000000000000D+00  0.0000000000000D+00
270  2.6900000000000D+00  0.0000000000000D+00  0.0000000000000D+00
271  2.7000000000000D+00  0.0000000000000D+00  0.0000000000000D+00
272  2.7100000000000D+00  0.0000000000000D+00  0.0000000000000D+00
273  2.7200000000000D+00  0.0000000000000D+00  0.0000000000000D+00
274  2.7300000000000D+00  0.0000000000000D+00  0.0000000000000D+00
275  2.7400000000000D+00  0.0000000000000D+00  0.0000000000000D+00
276  2.7500000000000D+00  0.0000000000000D+00  0.0000000000000D+00
277  2.7600000000000D+00  0.0000000000000D+00  0.0000000000000D+00
278  2.7700000000000D+00  0.0000000000000D+00  0.0000000000000D+00
279  2.7800000000000D+00  0.0000000000000D+00  0.0000000000000D+00
280  2.7900000000000D+00  0.0000000000000D+00  0.0000000000000D+00
281  2.8000000000000D+00  0.0000000000000D+00  0.0000000000000D+00
282  2.8100000000000D+00  0.0000000000000D+00  0.0000000000000D+00
283  2.8200000000000D+00  0.0000000000000D+00  0.0000000000000D+00
284  2.8300000000000D+00  0.0000000000000D+00  0.0000000000000D+00
285  2.8400000000000D+00  0.0000000000000D+00  0.0000000000000D+00
286  2.8500000000000D+00  0.0000000000000D+00  0.0000000000000D+00
287  2.8600000000000D+00  0.0000000000000D+00  0.0000000000000D+00
288  2.8700000000000D+00  0.0000000000000D+00  0.0000000000000D+00
289  2.8800000000000D+00  0.0000000000000D+00  0.0000000000000D+00
290  2.8900000000000D+00  0.0000000000000D+00  0.0000000000000D+00
291  2.9000000000000D+00  0.0000000000000D+00  0.0000000000000D+00
292  2.9100000000000D+00  0.0000000000000D+00  0.0000000000000D+00
293  2.9200000000000D+00  0.0000000000000D+00  0.0000000000000D+00
294  2.9300000000000D+00  0.0000000000000D+00  0.0000000000000D+00
295  2.9400000000000D+00  0.0000000000000D+00  0.0000000000000D+00
296  2.9500000000000D+00  0.0000000000000D+00  0.0000000000000D+00
297  2.9600000000000D+00  0.0000000000000D+00  0.0000000000000D+00
298  2.9700000000000D+00  0.0000000000000D+00  0.0000000000000D+00
299  2.9800000000000D+00  0.0000000000000D+00  0.0000000000000D+00
300  2.9900000000000D+00  0.0000000000000D+00  0.0000000000000D+00
301  3.0000000000000D+00  0.0000000000000D+00  0.0000000000000D+00
302  3.0100000000000D+00  0.0000000000000D+00  0.0000000000000D+00
303  3.0200000000000D+00  0.0000000000000D+00  0.0000000000000D+00
304  3.0300000000000D+00  0.0000000000000D+00  0.0000000000000D+00
305  3.0400000000000D+00  0.0000000000000D+00  0.0000000000000D+00
306  3.0500000000000D+00  0.0000000000000D+00  0.0000000000000D+00
307  3.0600000000000D+00  0.0000000000000D+00  0.0000000000000D+00
308  3.0700000000000D+00  0.0000000000000D+00  0.0000000000000D+00
309  3.0800000000000D+00  0.0000000000000D+00  0.0000000000000D+00
310  3.0900000000000D+00  0.0000000000000D+00  0.0000000000000D+00
311  3.1000000000000D+00  0.0000000000000D+00  0.0000000000000D+00
312  3.1100000000000D+00  0.0000000000000D+00  0.0000000000000D+00
313  3.1200000000000D+00  0.0000000000000D+00  0.0000000000000D+00
314  3.1300000000000D+00  0.0000000000000D+00  0.0000000000000D+00
315  3.1400000000000D+00  0.0000000000000D+00  0.0000000000000D+00
316  3.1500000000000D+00  0.0000000000000D+00  0.0000000000000D+00
317  3.1600000000000D+00  0.0000000000000D+00  0.0000000000000D+00
318  3.1700000000000D+00  0.0000000000000D+00  0.0000000000000D+00
319  3.1800000000000D+00  0.0000000000000D+00  0.0000000000000D+00
320  3.1900000000000D+00  0.0000000000000D+00  0.0000000000000D+00
321  3.2000000000000D+00  0.0000000000000D+00  0.0000000000000D+00
322  3.2100000000000D+00  0.0000000000000D+00  0.0000000000000D+00
323  3.2200000000000D+00  0.0000000000000D+00  0.0000000000000D+00
324  3.2300000000000D+00  0.0000000000000D+00  0.0000000000000D+00
325  3.2400000000000D+00  0.0000000000000D+00  0.0000000000000D+00
326  3.2500000000000D+00  0.0000000000000D+00  0.0000000000000D+00
327  3.2600000000000D+00  0.0000000000000D+00  0.0000000000000D+00
328  3.2700000000000D+00  0.0000000000000D+00  0.0000000000000D+00
329  3.2800000000000D+00  0.0000000000000D+00  0.0000000000000D+00
330  3.2900000000000D+00  0.0000000000000D+00  0.0000000000000D+00
331  3.3000000000000D+00  0.0000000000000D+00  0.0000000000000D+00
332  3.3100000000000D+00  0.0000000000000D+00  0.0000000000000D+00
333  3.3200000000000D+00  0.0000000000000D+00  0.0000000000000D+00
334  3.3300000000000D+00  0.0000000000000D+00  0.0000000000000D+00
335  3.3400000000000D+00  0.0000000000000D+00  0.0000000000000D+00
336  3.3500000000000D+00  0.0000000000000D+00  0.0000000000000D+00
337  3.3600000000000D+00  0.0000000000000D+00  0.0000000000000D+00
338  3.3700000000000D+00  0.0000000000000D+00  0.0000000000000D+00
339  3.3800000000000D+00  0.0000000000000D+00  0.0000000000000D+00
340  3.3900000000000D+00  0.0000000000000D+00  0.0000000000000D+00
341  3.4000000000000D+00  0.0000000000000D+00  0.0000000000000D+00
342  3.4100000000000D+00  0.0000000000000D+00  0.0000000000000D+00
343  3.4200000000000D+00  0.0000000000000D+00  0.0000000000000D+00
344  3.4300000000000D+00  0.0000000000000D+00  0.0000000000000D+00
345  3.4400000000000D+00  0.0000000000000D+00  0.0000000000000D+00
346  3.4500000000000D+00  0.0000000000000D+00  0.0000000000000D+00
347  3.4600000000000D+00  0.0000000000000D+00  0.0000000000000D+00
348  3.4700000000000D+00  0.0000000000000D+00  0.0000000000000D+00
349  3.4800000000000D+00  0.0000000000000D+00  0.0000000000000D+00
350  3.4900000000000D+00  0.0000000000000D+00  0.0000000000000D+00
351  3.5000000000000D+00  0.0000000000000D+00  0.0000000000000D+00
352  3.5100000000000D+00  0.0000000000000D+00  0.0000000000000D+00
353  3.5200000000000D+00  0.0000000000000D+00  0.0000000000000D+00
354  3.5300000000000D+00  0.0000000000000D+00  0.0000000000000D+00
355  3.5400000000000D+00  0.0000000000000D+00  0.0000000000000D+00
356  3.5500000000000D+00  0.0000000000000D+00  0.0000000000000D+00
357  3.5600000000000D+00  0.0000000000000D+00  0.0000000000000D+00
358  3.5700000000000D+00  0.0000000000000D+00  0.0000000000000D+00
359  3.5800000000000D+00  0.0000000000000D+00  0.0000000000000D+00
360  3.5900000000000D+00  0.0000000000000D+00  0.0000000000000D+00
361  3.6000000000000D+00  0.0000000000000D+00  0.0000000000000D+00
362  3.6100000000000D+00  0.0000000000000D+00  0.0000000000000D+00
363  3.6200000000000D+00  0.0000000000000D+00  0.0000000000000D+00
364  3.6300000000000D+00  0.0000000000000D+00  0.0000000000000D+00
365  3.6400000000000D+00  0.0000000000000D+00  0.0000000000000D+00
366  3.6500000000000D+00  0.0000000000000D+00  0.0000000000000D+00
367  3.6600000000000D+00  0.0000000000000D+00  0.0000000000000D+00
368  3.6700000000000D+00  0.0000000000000D+00  0.0000000000000D+00
369  3.6800000000000D+00  0.0000000000000D+00  0.0000000000000D+00
370  3.6900000000000D+00  0.0000000000000D+00  0.0000000000000D+00
371  3.7000000000000D+00  0.0000000000000D+00  0.0000000000000D+00
372  3.7100000000000D+00  0.0000000000000D+00  0.0000000000000D+00
373  3.7200000000000D+00  0.0000000000000D+00  0.0000000000000D+00
374  3.7300000000000D+00  0.0000000000000D+00  0.0000000000000D+00
375  3.7400000000000D+00  0.0000000000000D+00  0.0000000000000D+00
376  3.7500000000000D+00  0.0000000000000D+00  0.0000000000000D+00
377  3.7600000000000D+00  0.0000000000000D+00  0.0000000000000D+00
378  3.7700000000000D+00  0.0000000000000D+00  0.0000000000000D+00
379  3.7800000000000D+00  0.0000000000000D+00  0.0000000000000D+00
380  3.7900000000000D+00  0.0000000000000D+00  0.0000000000000D+00
381  3.8000000000000D+00  0.0000000000000D+00  0.0000000000000D+00
382  3.8100000000000D+00  0.0000000000000D+00  0.0000000000000D+00
383  3.8200000000000D+00  0.0000000000000D+00  0.0000000000000D+00
384  3.8300000000000D+00  0.0000000000000D+00  0.0000000000000D+00
385  3.8400000000000D+00  0.0000000000000D+00  0.0000000000000D+00
386  3.8500000000000D+00  0.0000000000000D+00  0.0000000000000D+00
387  3.8600000000000D+00  0.0000000000000D+00  0.0000000000000D+00
388  3.8700000000000D+00  0.0000000000000D+00  0.0000000000000D+00
389  3.8800000000000D+00  0.0000000000000D+00  0.0000000000000D+00
390  3.8900000000000D+00  0.0000000000000D+00  0.0000000000000D+00
391  3.9000000000000D+00  0.0000000000000D+00  0.0000000000000D+00
392  3.9100000000000D+00  0.0000000000000D+00  0.0000000000000D+00
393  3.9200000000000D+00  0.0000000000000D+00  0.0000000000000D+00
394  3.9300000000000D+00  0.0000000000000D+00  0.0000000000000D+00
395  3.9400000000000D+00  0.0000000000000D+00  0.0000000000000D+00
396  3.9500000000000D+00  0.0000000000000D+00  0.0000000000000D+00
397  3.9600000000000D+00  0.0000000000000D+00  0.0000000000000D+00
398  3.9700000000000D+00  0.0000000000000D+00  0.0000000000000D+00
399  3.9800000000000D+00  0.0000000000000D+00  0.0000000000000D+00
400  3.9900000000000D+00  0.0000000000000D+00  0.0000000000000D+00
401  4.0000000000000D+00  0.0000000000000D+00  0.0000000000000D+00
402  4.0100000000000D+00  0.0000000000000D+00  0.0000000000000D+00
403  4.0200000000000D+00  0.0000000000000D+00  0.0000000000000D+00
404  4.0300000000000D+00  0.0000000000000D+00  0.0000000000000D+00
405  4.0400000000000D+00  0.0000000000000D+00  0.0000000000000D+00
406  4.0500000000000D+00  0.0000000000000D+00  0.0000000000000D+00
407  4.0600000000000D+00  0.0000000000000D+00  0.0000000000000D+00
408  4.0700000000000D+00  0.0000000000000D+00  0.0000000000000D+00
409  4.0800000000000D+00  0.0000000000000D+00  0.0000000000000D+00
410  4.0900000000000D+00  0.0000000000000D+00  0.0000000000000D+00
411  4.1000000000000D+00  0.0000000000000D+00  0.0000000000000D+00
412  4.1100000000000D+00  0.0000000000000D+00  0.0000000000000D+00
413  4.1200000000000D+00  0.0000000000000D+00  0.0000000000000D+00
414  4.1300000000000D+00  0.0000000000000D+00  0.0000000000000D+00
415  4.1400000000000D+00  0.0000000000000D+00  0.0000000000000D+00
416  4.1500000000000D+00  0.0000000000000D+00  0.0000000000000D+00
417  4.1600000000000D+00  0.0000000000000D+00  0.0000000000000D+00
418  4.1700000000000D+00  0.0000000000000D+00  0.0000000000000D+00
419  4.1800000000000D+00  0.0000000000000D+00  0.0000000000000D+00
420  4.1900000000000D+00  0.0000000000000D+00  0.0000000000000D+00
421  4.2000000000000D+00  0.0000000000000D+00  0.0000000000000D+00
422  4.2100000000000D+00  0.0000000000000D+00  0.0000000000000D+00
423  4.2200000000000D+00  0.0000000000000D+00  0.0000000000000D+00
424  4.2300000000000D+00  0.0000000000000D+00  0.0000000000000D+00
425  4.2400000000000D+00  0.0000000000000D+00  0.0000000000000D+00
426  4.2500000000000D+00  0.0000000000000D+00  0.0000000000000D+00
427  4.2600000000000D+00  0.0000000000000D+00  0.0000000000000D+00
428  4.2700000000000D+00  0.0000000000000D+00  0.0000000000000D+00
429  4.2800000000000D+00  0.0000000000000D+00  0.0000000000000D+00
430  4.2900000000000D+00  0.0000000000000D+00  0.0000000000000D+00
431  4.3000000000000D+00  0.0000000000000D+00  0.0000000000000D+00
432  4.3100000000000D+00  0.0000000000000D+00  0.0000000000000D+00
433  4.3200000000000D+00  0.0000000000000D+00  0.0000000000000D+00
434  4.3300000000000D+00  0.0000000000000D+00  0.0000000000000D+00
435  4.3400000000000D+00  0.0000000000000D+00  0.0000000000000D+00
436  4.3500000000000D+00  0.0000000000000D+00  0.0000000000000D+00
437  4.3600000000000D+00  0.0000000000000D+00  0.0000000000000D+00
438  4.3700000000000D+00  0.0000000000000D+00  0.0000000000000D+00
439  4.3800000000000D+00  0.0000000000000D+00  0.0000000000000D+00
440  4.3900000000000D+00  0.0000000000000D+00  0.0000000000000D+00
441  4.4000000000000D+00  0.0000000000000D+00  0.0000000000000D+00
442  4.4100000000000D+00  0.0000000000000D+00  0.0000000000000D+00
443  4.4200000000000D+00  0.0000000000000D+00  0.0000000000000D+00