<UPF version="2.0.1">
<PP_INFO>

This pseudopotential file has been produced using the code
ONCVPSP  (Optimized Norm-Conservinng Vanderbilt PSeudopotential)
fully-relativistic version 3.2.3 08/16/2016 by D. R. Hamann
The code is available through a link at URL www.mat-simresearch.com.
Documentation with the package provides a full discription of the
input data below.


While it is not required under the terms of the GNU GPL, it is
suggested that you cite D. R. Hamann, Phys. Rev. B 88, 085117 (2013)
in any publication using these pseudopotentials.

<PP_INPUTFILE>
# ATOM AND REFERENCE CONFIGURATION
# atsym  z   nc   nv     iexc    psfile
Ar 18.00    3    2       4      both
#
#   n    l    f        energy (Ha)
1    0    2.00
2    0    2.00
2    1    6.00
3    0    2.00
3    1    6.00
#
# PSEUDOPOTENTIAL AND OPTIMIZATION
# lmax
2
#
#   l,   rc,     ep,   ncon, nbas, qcut
0   1.55000  -0.89246    4    8   8.20000
1   1.55000  -0.37524    4    8   8.20000
2   1.55000   0.10000    4    8   8.20000
#
# LOCAL POTENTIAL
# lloc, lpopt,  rc(5),   dvloc0
4    5   1.50000      0.00000
#
# VANDERBILT-KLEINMAN-BYLANDER PROJECTORs
# l, nproj, debl
0    2   1.50000
1    2   1.49785
2    2   1.00000
#
# MODEL CORE CHARGE
# icmod, fcfact, rcfact
3   7.00000   1.25000
#
# LOG DERIVATIVE ANALYSIS
# epsh1, epsh2, depsh
-12.00   12.00    0.02
#
# OUTPUT GRID
# rlmax, drl
4.00    0.01
#
# TEST CONFIGURATIONS
# ncnf
0
# nvcnf
#   n    l    f
</PP_INPUTFILE>
</PP_INFO>
<!--                               -->
<!-- END OF HUMAN READABLE SECTION -->
<!--                               -->
<PP_HEADER
generated="Generated using ONCVPSP code by D. R. Hamann"
author="anonymous"
date="170222"
comment=""
element="Ar"
pseudo_type="NC"
relativistic="full"
is_ultrasoft="F"
is_paw="F"
is_coulomb="F"
has_so="T"
has_wfc="F"
has_gipaw="F"
core_correction="T"
functional="PBE"
z_valence="    8.00"
total_psenergy="  -4.23157177284E+01"
rho_cutoff="   9.37000000000E+00"
l_max="2"
l_local="-1"
mesh_size="   938"
number_of_wfc="3"
number_of_proj="10"/>
<PP_MESH>
<PP_R type="real"  size=" 938" columns="8">
0.0000    0.0100    0.0200    0.0300    0.0400    0.0500    0.0600    0.0700
0.0800    0.0900    0.1000    0.1100    0.1200    0.1300    0.1400    0.1500
0.1600    0.1700    0.1800    0.1900    0.2000    0.2100    0.2200    0.2300
0.2400    0.2500    0.2600    0.2700    0.2800    0.2900    0.3000    0.3100
0.3200    0.3300    0.3400    0.3500    0.3600    0.3700    0.3800    0.3900
0.4000    0.4100    0.4200    0.4300    0.4400    0.4500    0.4600    0.4700
0.4800    0.4900    0.5000    0.5100    0.5200    0.5300    0.5400    0.5500
0.5600    0.5700    0.5800    0.5900    0.6000    0.6100    0.6200    0.6300
0.6400    0.6500    0.6600    0.6700    0.6800    0.6900    0.7000    0.7100
0.7200    0.7300    0.7400    0.7500    0.7600    0.7700    0.7800    0.7900
0.8000    0.8100    0.8200    0.8300    0.8400    0.8500    0.8600    0.8700
0.8800    0.8900    0.9000    0.9100    0.9200    0.9300    0.9400    0.9500
0.9600    0.9700    0.9800    0.9900    1.0000    1.0100    1.0200    1.0300
1.0400    1.0500    1.0600    1.0700    1.0800    1.0900    1.1000    1.1100
1.1200    1.1300    1.1400    1.1500    1.1600    1.1700    1.1800    1.1900
1.2000    1.2100    1.2200    1.2300    1.2400    1.2500    1.2600    1.2700
1.2800    1.2900    1.3000    1.3100    1.3200    1.3300    1.3400    1.3500
1.3600    1.3700    1.3800    1.3900    1.4000    1.4100    1.4200    1.4300
1.4400    1.4500    1.4600    1.4700    1.4800    1.4900    1.5000    1.5100
1.5200    1.5300    1.5400    1.5500    1.5600    1.5700    1.5800    1.5900
1.6000    1.6100    1.6200    1.6300    1.6400    1.6500    1.6600    1.6700
1.6800    1.6900    1.7000    1.7100    1.7200    1.7300    1.7400    1.7500
1.7600    1.7700    1.7800    1.7900    1.8000    1.8100    1.8200    1.8300
1.8400    1.8500    1.8600    1.8700    1.8800    1.8900    1.9000    1.9100
1.9200    1.9300    1.9400    1.9500    1.9600    1.9700    1.9800    1.9900
2.0000    2.0100    2.0200    2.0300    2.0400    2.0500    2.0600    2.0700
2.0800    2.0900    2.1000    2.1100    2.1200    2.1300    2.1400    2.1500
2.1600    2.1700    2.1800    2.1900    2.2000    2.2100    2.2200    2.2300
2.2400    2.2500    2.2600    2.2700    2.2800    2.2900    2.3000    2.3100
2.3200    2.3300    2.3400    2.3500    2.3600    2.3700    2.3800    2.3900
2.4000    2.4100    2.4200    2.4300    2.4400    2.4500    2.4600    2.4700
2.4800    2.4900    2.5000    2.5100    2.5200    2.5300    2.5400    2.5500
2.5600    2.5700    2.5800    2.5900    2.6000    2.6100    2.6200    2.6300
2.6400    2.6500    2.6600    2.6700    2.6800    2.6900    2.7000    2.7100
2.7200    2.7300    2.7400    2.7500    2.7600    2.7700    2.7800    2.7900
2.8000    2.8100    2.8200    2.8300    2.8400    2.8500    2.8600    2.8700
2.8800    2.8900    2.9000    2.9100    2.9200    2.9300    2.9400    2.9500
2.9600    2.9700    2.9800    2.9900    3.0000    3.0100    3.0200    3.0300
3.0400    3.0500    3.0600    3.0700    3.0800    3.0900    3.1000    3.1100
3.1200    3.1300    3.1400    3.1500    3.1600    3.1700    3.1800    3.1900
3.2000    3.2100    3.2200    3.2300    3.2400    3.2500    3.2600    3.2700
3.2800    3.2900    3.3000    3.3100    3.3200    3.3300    3.3400    3.3500
3.3600    3.3700    3.3800    3.3900    3.4000    3.4100    3.4200    3.4300
3.4400    3.4500    3.4600    3.4700    3.4800    3.4900    3.5000    3.5100
3.5200    3.5300    3.5400    3.5500    3.5600    3.5700    3.5800    3.5900
3.6000    3.6100    3.6200    3.6300    3.6400    3.6500    3.6600    3.6700
3.6800    3.6900    3.7000    3.7100    3.7200    3.7300    3.7400    3.7500
3.7600    3.7700    3.7800    3.7900    3.8000    3.8100    3.8200    3.8300
3.8400    3.8500    3.8600    3.8700    3.8800    3.8900    3.9000    3.9100
3.9200    3.9300    3.9400    3.9500    3.9600    3.9700    3.9800    3.9900
4.0000    4.0100    4.0200    4.0300    4.0400    4.0500    4.0600    4.0700
4.0800    4.0900    4.1000    4.1100    4.1200    4.1300    4.1400    4.1500
4.1600    4.1700    4.1800    4.1900    4.2000    4.2100    4.2200    4.2300
4.2400    4.2500    4.2600    4.2700    4.2800    4.2900    4.3000    4.3100
4.3200    4.3300    4.3400    4.3500    4.3600    4.3700    4.3800    4.3900
4.4000    4.4100    4.4200    4.4300    4.4400    4.4500    4.4600    4.4700
4.4800    4.4900    4.5000    4.5100    4.5200    4.5300    4.5400    4.5500
4.5600    4.5700    4.5800    4.5900    4.6000    4.6100    4.6200    4.6300
4.6400    4.6500    4.6600    4.6700    4.6800    4.6900    4.7000    4.7100
4.7200    4.7300    4.7400    4.7500    4.7600    4.7700    4.7800    4.7900
4.8000    4.8100    4.8200    4.8300    4.8400    4.8500    4.8600    4.8700
4.8800    4.8900    4.9000    4.9100    4.9200    4.9300    4.9400    4.9500
4.9600    4.9700    4.9800    4.9900    5.0000    5.0100    5.0200    5.0300
5.0400    5.0500    5.0600    5.0700    5.0800    5.0900    5.1000    5.1100
5.1200    5.1300    5.1400    5.1500    5.1600    5.1700    5.1800    5.1900
5.2000    5.2100    5.2200    5.2300    5.2400    5.2500    5.2600    5.2700
5.2800    5.2900    5.3000    5.3100    5.3200    5.3300    5.3400    5.3500
5.3600    5.3700    5.3800    5.3900    5.4000    5.4100    5.4200    5.4300
5.4400    5.4500    5.4600    5.4700    5.4800    5.4900    5.5000    5.5100
5.5200    5.5300    5.5400    5.5500    5.5600    5.5700    5.5800    5.5900
5.6000    5.6100    5.6200    5.6300    5.6400    5.6500    5.6600    5.6700
5.6800    5.6900    5.7000    5.7100    5.7200    5.7300    5.7400    5.7500
5.7600    5.7700    5.7800    5.7900    5.8000    5.8100    5.8200    5.8300
5.8400    5.8500    5.8600    5.8700    5.8800    5.8900    5.9000    5.9100
5.9200    5.9300    5.9400    5.9500    5.9600    5.9700    5.9800    5.9900
6.0000    6.0100    6.0200    6.0300    6.0400    6.0500    6.0600    6.0700
6.0800    6.0900    6.1000    6.1100    6.1200    6.1300    6.1400    6.1500
6.1600    6.1700    6.1800    6.1900    6.2000    6.2100    6.2200    6.2300
6.2400    6.2500    6.2600    6.2700    6.2800    6.2900    6.3000    6.3100
6.3200    6.3300    6.3400    6.3500    6.3600    6.3700    6.3800    6.3900
6.4000    6.4100    6.4200    6.4300    6.4400    6.4500    6.4600    6.4700
6.4800    6.4900    6.5000    6.5100    6.5200    6.5300    6.5400    6.5500
6.5600    6.5700    6.5800    6.5900    6.6000    6.6100    6.6200    6.6300
6.6400    6.6500    6.6600    6.6700    6.6800    6.6900    6.7000    6.7100
6.7200    6.7300    6.7400    6.7500    6.7600    6.7700    6.7800    6.7900
6.8000    6.8100    6.8200    6.8300    6.8400    6.8500    6.8600    6.8700
6.8800    6.8900    6.9000    6.9100    6.9200    6.9300    6.9400    6.9500
6.9600    6.9700    6.9800    6.9900    7.0000    7.0100    7.0200    7.0300
7.0400    7.0500    7.0600    7.0700    7.0800    7.0900    7.1000    7.1100
7.1200    7.1300    7.1400    7.1500    7.1600    7.1700    7.1800    7.1900
7.2000    7.2100    7.2200    7.2300    7.2400    7.2500    7.2600    7.2700
7.2800    7.2900    7.3000    7.3100    7.3200    7.3300    7.3400    7.3500
7.3600    7.3700    7.3800    7.3900    7.4000    7.4100    7.4200    7.4300
7.4400    7.4500    7.4600    7.4700    7.4800    7.4900    7.5000    7.5100
7.5200    7.5300    7.5400    7.5500    7.5600    7.5700    7.5800    7.5900
7.6000    7.6100    7.6200    7.6300    7.6400    7.6500    7.6600    7.6700
7.6800    7.6900    7.7000    7.7100    7.7200    7.7300    7.7400    7.7500
7.7600    7.7700    7.7800    7.7900    7.8000    7.8100    7.8200    7.8300
7.8400    7.8500    7.8600    7.8700    7.8800    7.8900    7.9000    7.9100
7.9200    7.9300    7.9400    7.9500    7.9600    7.9700    7.9800    7.9900
8.0000    8.0100    8.0200    8.0300    8.0400    8.0500    8.0600    8.0700
8.0800    8.0900    8.1000    8.1100    8.1200    8.1300    8.1400    8.1500
8.1600    8.1700    8.1800    8.1900    8.2000    8.2100    8.2200    8.2300
8.2400    8.2500    8.2600    8.2700    8.2800    8.2900    8.3000    8.3100
8.3200    8.3300    8.3400    8.3500    8.3600    8.3700    8.3800    8.3900
8.4000    8.4100    8.4200    8.4300    8.4400    8.4500    8.4600    8.4700
8.4800    8.4900    8.5000    8.5100    8.5200    8.5300    8.5400    8.5500
8.5600    8.5700    8.5800    8.5900    8.6000    8.6100    8.6200    8.6300
8.6400    8.6500    8.6600    8.6700    8.6800    8.6900    8.7000    8.7100
8.7200    8.7300    8.7400    8.7500    8.7600    8.7700    8.7800    8.7900
8.8000    8.8100    8.8200    8.8300    8.8400    8.8500    8.8600    8.8700
8.8800    8.8900    8.9000    8.9100    8.9200    8.9300    8.9400    8.9500
8.9600    8.9700    8.9800    8.9900    9.0000    9.0100    9.0200    9.0300
9.0400    9.0500    9.0600    9.0700    9.0800    9.0900    9.1000    9.1100
9.1200    9.1300    9.1400    9.1500    9.1600    9.1700    9.1800    9.1900
9.2000    9.2100    9.2200    9.2300    9.2400    9.2500    9.2600    9.2700
9.2800    9.2900    9.3000    9.3100    9.3200    9.3300    9.3400    9.3500
9.3600    9.3700
</PP_R>
<PP_RAB type="real"  size=" 938" columns="8">
0.0100    0.0100    0.0100    0.0100    0.0100    0.0100    0.0100    0.0100
0.0100    0.0100    0.0100    0.0100    0.0100    0.0100    0.0100    0.0100
0.0100    0.0100    0.0100    0.0100    0.0100    0.0100    0.0100    0.0100
0.0100    0.0100    0.0100    0.0100    0.0100    0.0100    0.0100    0.0100
0.0100    0.0100    0.0100    0.0100    0.0100    0.0100    0.0100    0.0100
0.0100    0.0100    0.0100    0.0100    0.0100    0.0100    0.0100    0.0100
0.0100    0.0100    0.0100    0.0100    0.0100    0.0100    0.0100    0.0100
0.0100    0.0100    0.0100    0.0100    0.0100    0.0100    0.0100    0.0100
0.0100    0.0100    0.0100    0.0100    0.0100    0.0100    0.0100    0.0100
0.0100    0.0100    0.0100    0.0100    0.0100    0.0100    0.0100    0.0100
0.0100    0.0100    0.0100    0.0100    0.0100    0.0100    0.0100    0.0100
0.0100    0.0100    0.0100    0.0100    0.0100    0.0100    0.0100    0.0100
0.0100    0.0100    0.0100    0.0100    0.0100    0.0100    0.0100    0.0100
0.0100    0.0100    0.0100    0.0100    0.0100    0.0100    0.0100    0.0100
0.0100    0.0100    0.0100    0.0100    0.0100    0.0100    0.0100    0.0100
0.0100    0.0100    0.0100    0.0100    0.0100    0.0100    0.0100    0.0100
0.0100    0.0100    0.0100    0.0100    0.0100    0.0100    0.0100    0.0100
0.0100    0.0100    0.0100    0.0100    0.0100    0.0100    0.0100    0.0100
0.0100    0.0100    0.0100    0.0100    0.0100    0.0100    0.0100    0.0100
0.0100    0.0100    0.0100    0.0100    0.0100    0.0100    0.0100    0.0100
0.0100    0.0100    0.0100    0.0100    0.0100    0.0100    0.0100    0.0100
0.0100    0.0100    0.0100    0.0100    0.0100    0.0100    0.0100    0.0100
0.0100    0.0100    0.0100    0.0100    0.0100    0.0100    0.0100    0.0100
0.0100    0.0100    0.0100    0.0100    0.0100    0.0100    0.0100    0.0100
0.0100    0.0100    0.0100    0.0100    0.0100    0.0100    0.0100    0.0100
0.0100    0.0100    0.0100    0.0100    0.0100    0.0100    0.0100    0.0100
0.0100    0.0100    0.0100    0.0100    0.0100    0.0100    0.0100    0.0100
0.0100    0.0100    0.0100    0.0100    0.0100    0.0100    0.0100    0.0100
0.0100    0.0100    0.0100    0.0100    0.0100    0.0100    0.0100    0.0100
0.0100    0.0100    0.0100    0.0100    0.0100    0.0100    0.0100    0.0100
0.0100    0.0100    0.0100    0.0100    0.0100    0.0100    0.0100    0.0100
0.0100    0.0100    0.0100    0.0100    0.0100    0.0100    0.0100    0.0100
0.0100    0.0100    0.0100    0.0100    0.0100    0.0100    0.0100    0.0100
0.0100    0.0100    0.0100    0.0100    0.0100    0.0100    0.0100    0.0100
0.0100    0.0100    0.0100    0.0100    0.0100    0.0100    0.0100    0.0100
0.0100    0.0100    0.0100    0.0100    0.0100    0.0100    0.0100    0.0100
0.0100    0.0100    0.0100    0.0100    0.0100    0.0100    0.0100    0.0100
0.0100    0.0100    0.0100    0.0100    0.0100    0.0100    0.0100    0.0100
0.0100    0.0100    0.0100    0.0100    0.0100    0.0100    0.0100    0.0100
0.0100    0.0100    0.0100    0.0100    0.0100    0.0100    0.0100    0.0100
0.0100    0.0100    0.0100    0.0100    0.0100    0.0100    0.0100    0.0100
0.0100    0.0100    0.0100    0.0100    0.0100    0.0100    0.0100    0.0100
0.0100    0.0100    0.0100    0.0100    0.0100    0.0100    0.0100    0.0100
0.0100    0.0100    0.0100    0.0100    0.0100    0.0100    0.0100    0.0100
0.0100    0.0100    0.0100    0.0100    0.0100    0.0100    0.0100    0.0100
0.0100    0.0100    0.0100    0.0100    0.0100    0.0100    0.0100    0.0100
0.0100    0.0100    0.0100    0.0100    0.0100    0.0100    0.0100    0.0100
0.0100    0.0100    0.0100    0.0100    0.0100    0.0100    0.0100    0.0100
0.0100    0.0100    0.0100    0.0100    0.0100    0.0100    0.0100    0.0100
0.0100    0.0100    0.0100    0.0100    0.0100    0.0100    0.0100    0.0100
0.0100    0.0100    0.0100    0.0100    0.0100    0.0100    0.0100    0.0100
0.0100    0.0100    0.0100    0.0100    0.0100    0.0100    0.0100    0.0100
0.0100    0.0100    0.0100    0.0100    0.0100    0.0100    0.0100    0.0100
0.0100    0.0100    0.0100    0.0100    0.0100    0.0100    0.0100    0.0100
0.0100    0.0100    0.0100    0.0100    0.0100    0.0100    0.0100    0.0100
0.0100    0.0100    0.0100    0.0100    0.0100    0.0100    0.0100    0.0100
0.0100    0.0100    0.0100    0.0100    0.0100    0.0100    0.0100    0.0100
0.0100    0.0100    0.0100    0.0100    0.0100    0.0100    0.0100    0.0100
0.0100    0.0100    0.0100    0.0100    0.0100    0.0100    0.0100    0.0100
0.0100    0.0100    0.0100    0.0100    0.0100    0.0100    0.0100    0.0100
0.0100    0.0100    0.0100    0.0100    0.0100    0.0100    0.0100    0.0100
0.0100    0.0100    0.0100    0.0100    0.0100    0.0100    0.0100    0.0100
0.0100    0.0100    0.0100    0.0100    0.0100    0.0100    0.0100    0.0100
0.0100    0.0100    0.0100    0.0100    0.0100    0.0100    0.0100    0.0100
0.0100    0.0100    0.0100    0.0100    0.0100    0.0100    0.0100    0.0100
0.0100    0.0100    0.0100    0.0100    0.0100    0.0100    0.0100    0.0100
0.0100    0.0100    0.0100    0.0100    0.0100    0.0100    0.0100    0.0100
0.0100    0.0100    0.0100    0.0100    0.0100    0.0100    0.0100    0.0100
0.0100    0.0100    0.0100    0.0100    0.0100    0.0100    0.0100    0.0100
0.0100    0.0100    0.0100    0.0100    0.0100    0.0100    0.0100    0.0100
0.0100    0.0100    0.0100    0.0100    0.0100    0.0100    0.0100    0.0100
0.0100    0.0100    0.0100    0.0100    0.0100    0.0100    0.0100    0.0100
0.0100    0.0100    0.0100    0.0100    0.0100    0.0100    0.0100    0.0100
0.0100    0.0100    0.0100    0.0100    0.0100    0.0100    0.0100    0.0100
0.0100    0.0100    0.0100    0.0100    0.0100    0.0100    0.0100    0.0100
0.0100    0.0100    0.0100    0.0100    0.0100    0.0100    0.0100    0.0100
0.0100    0.0100    0.0100    0.0100    0.0100    0.0100    0.0100    0.0100
0.0100    0.0100    0.0100    0.0100    0.0100    0.0100    0.0100    0.0100
0.0100    0.0100    0.0100    0.0100    0.0100    0.0100    0.0100    0.0100
0.0100    0.0100    0.0100    0.0100    0.0100    0.0100    0.0100    0.0100
0.0100    0.0100    0.0100    0.0100    0.0100    0.0100    0.0100    0.0100
0.0100    0.0100    0.0100    0.0100    0.0100    0.0100    0.0100    0.0100
0.0100    0.0100    0.0100    0.0100    0.0100    0.0100    0.0100    0.0100
0.0100    0.0100    0.0100    0.0100    0.0100    0.0100    0.0100    0.0100
0.0100    0.0100    0.0100    0.0100    0.0100    0.0100    0.0100    0.0100
0.0100    0.0100    0.0100    0.0100    0.0100    0.0100    0.0100    0.0100
0.0100    0.0100    0.0100    0.0100    0.0100    0.0100    0.0100    0.0100
0.0100    0.0100    0.0100    0.0100    0.0100    0.0100    0.0100    0.0100
0.0100    0.0100    0.0100    0.0100    0.0100    0.0100    0.0100    0.0100
0.0100    0.0100    0.0100    0.0100    0.0100    0.0100    0.0100    0.0100
0.0100    0.0100    0.0100    0.0100    0.0100    0.0100    0.0100    0.0100
0.0100    0.0100    0.0100    0.0100    0.0100    0.0100    0.0100    0.0100
0.0100    0.0100    0.0100    0.0100    0.0100    0.0100    0.0100    0.0100
0.0100    0.0100    0.0100    0.0100    0.0100    0.0100    0.0100    0.0100
0.0100    0.0100    0.0100    0.0100    0.0100    0.0100    0.0100    0.0100
0.0100    0.0100    0.0100    0.0100    0.0100    0.0100    0.0100    0.0100
0.0100    0.0100    0.0100    0.0100    0.0100    0.0100    0.0100    0.0100
0.0100    0.0100    0.0100    0.0100    0.0100    0.0100    0.0100    0.0100
0.0100    0.0100    0.0100    0.0100    0.0100    0.0100    0.0100    0.0100
0.0100    0.0100    0.0100    0.0100    0.0100    0.0100    0.0100    0.0100
0.0100    0.0100    0.0100    0.0100    0.0100    0.0100    0.0100    0.0100
0.0100    0.0100    0.0100    0.0100    0.0100    0.0100    0.0100    0.0100
0.0100    0.0100    0.0100    0.0100    0.0100    0.0100    0.0100    0.0100
0.0100    0.0100    0.0100    0.0100    0.0100    0.0100    0.0100    0.0100
0.0100    0.0100    0.0100    0.0100    0.0100    0.0100    0.0100    0.0100
0.0100    0.0100    0.0100    0.0100    0.0100    0.0100    0.0100    0.0100
0.0100    0.0100    0.0100    0.0100    0.0100    0.0100    0.0100    0.0100
0.0100    0.0100    0.0100    0.0100    0.0100    0.0100    0.0100    0.0100
0.0100    0.0100    0.0100    0.0100    0.0100    0.0100    0.0100    0.0100
0.0100    0.0100    0.0100    0.0100    0.0100    0.0100    0.0100    0.0100
0.0100    0.0100    0.0100    0.0100    0.0100    0.0100    0.0100    0.0100
0.0100    0.0100    0.0100    0.0100    0.0100    0.0100    0.0100    0.0100
0.0100    0.0100    0.0100    0.0100    0.0100    0.0100    0.0100    0.0100
0.0100    0.0100    0.0100    0.0100    0.0100    0.0100    0.0100    0.0100
0.0100    0.0100    0.0100    0.0100    0.0100    0.0100    0.0100    0.0100
0.0100    0.0100    0.0100    0.0100    0.0100    0.0100    0.0100    0.0100
0.0100    0.0100    0.0100    0.0100    0.0100    0.0100    0.0100    0.0100
0.0100    0.0100
</PP_RAB>
</PP_MESH>
<PP_LOCAL type="real"  size=" 938" columns="4">
-2.1479031188E+01   -2.1478302501E+01   -2.1476117674E+01   -2.1472480414E+01
-2.1467396836E+01   -2.1460875380E+01   -2.1452926692E+01   -2.1443563477E+01
-2.1432800323E+01   -2.1420653510E+01   -2.1407140796E+01   -2.1392281191E+01
-2.1376094724E+01   -2.1358602204E+01   -2.1339824983E+01   -2.1319784721E+01
-2.1298503160E+01   -2.1276001908E+01   -2.1252302237E+01   -2.1227424894E+01
-2.1201389931E+01   -2.1174216555E+01   -2.1145922985E+01   -2.1116526347E+01
-2.1086042564E+01   -2.1054486283E+01   -2.1021870802E+01   -2.0988208029E+01
-2.0953508436E+01   -2.0917781044E+01   -2.0881033403E+01   -2.0843271595E+01
-2.0804500235E+01   -2.0764722485E+01   -2.0723940077E+01   -2.0682153329E+01
-2.0639361180E+01   -2.0595561221E+01   -2.0550749727E+01   -2.0504921702E+01
-2.0458070914E+01   -2.0410189943E+01   -2.0361270227E+01   -2.0311302113E+01
-2.0260274908E+01   -2.0208176935E+01   -2.0154995593E+01   -2.0100717420E+01
-2.0045328155E+01   -1.9988812807E+01   -1.9931155722E+01   -1.9872340659E+01
-1.9812350854E+01   -1.9751169100E+01   -1.9688777809E+01   -1.9625159088E+01
-1.9560294808E+01   -1.9494166665E+01   -1.9426756251E+01   -1.9358045123E+01
-1.9288014872E+01   -1.9216647203E+01   -1.9143924027E+01   -1.9069827573E+01
-1.8994340518E+01   -1.8917446159E+01   -1.8839128620E+01   -1.8759373106E+01
-1.8678166216E+01   -1.8595496307E+01   -1.8511353924E+01   -1.8425732279E+01
-1.8338627784E+01   -1.8250040614E+01   -1.8159975286E+01   -1.8068441234E+01
-1.7975453340E+01   -1.7881032403E+01   -1.7785205505E+01   -1.7688006242E+01
-1.7589474808E+01   -1.7489657896E+01   -1.7388608414E+01   -1.7286385027E+01
-1.7183051521E+01   -1.7078676031E+01   -1.6973330156E+01   -1.6867088009E+01
-1.6760025246E+01   -1.6652218115E+01   -1.6543742580E+01   -1.6434673532E+01
-1.6325084141E+01   -1.6215045342E+01   -1.6104625472E+01   -1.5993890051E+01
-1.5882901701E+01   -1.5771720174E+01   -1.5660402480E+01   -1.5549003081E+01
-1.5437574145E+01   -1.5326165811E+01   -1.5214826481E+01   -1.5103603091E+01
-1.4992541372E+01   -1.4881686081E+01   -1.4771081198E+01   -1.4660770081E+01
-1.4550795591E+01   -1.4441200170E+01   -1.4332025883E+01   -1.4223314426E+01
-1.4115107100E+01   -1.4007444761E+01   -1.3900367740E+01   -1.3793915747E+01
-1.3688127754E+01   -1.3583041879E+01   -1.3478695244E+01   -1.3375123850E+01
-1.3272362435E+01   -1.3170444349E+01   -1.3069401425E+01   -1.2969263865E+01
-1.2870060139E+01   -1.2771816883E+01   -1.2674558828E+01   -1.2578308728E+01
-1.2483087309E+01   -1.2388913226E+01   -1.2295803040E+01   -1.2203771197E+01
-1.2112830030E+01   -1.2022989758E+01   -1.1934258503E+01   -1.1846642310E+01
-1.1760145176E+01   -1.1674769080E+01   -1.1590514019E+01   -1.1507378049E+01
-1.1425357323E+01   -1.1344446136E+01   -1.1264636961E+01   -1.1185920492E+01
-1.1108285687E+01   -1.1031719799E+01   -1.0956208416E+01   -1.0881735494E+01
-1.0808283372E+01   -1.0735832851E+01   -1.0664363163E+01   -1.0593851882E+01
-1.0524275428E+01   -1.0455609860E+01   -1.0387831385E+01   -1.0320917283E+01
-1.0254848812E+01   -1.0189611886E+01   -1.0125198209E+01   -1.0061602050E+01
-9.9988111795E+00   -9.9368083573E+00   -9.8755745567E+00   -9.8150907071E+00
-9.7553427478E+00   -9.6963184844E+00   -9.6380032557E+00   -9.5803824408E+00
-9.5234429116E+00   -9.4671720107E+00   -9.4115572853E+00   -9.3565867164E+00
-9.3022487187E+00   -9.2485320894E+00   -9.1954259928E+00   -9.1429199463E+00
-9.0910038024E+00   -9.0396677317E+00   -8.9889022053E+00   -8.9386979773E+00
-8.8890460677E+00   -8.8399377463E+00   -8.7913645156E+00   -8.7433180957E+00
-8.6957904089E+00   -8.6487735656E+00   -8.6022598508E+00   -8.5562417111E+00
-8.5107117434E+00   -8.4656626838E+00   -8.4210873979E+00   -8.3769788719E+00
-8.3333302051E+00   -8.2901346025E+00   -8.2473853695E+00   -8.2050759067E+00
-8.1631997062E+00   -8.1217503482E+00   -8.0807214990E+00   -8.0401069093E+00
-7.9999004135E+00   -7.9600959294E+00   -7.9206874584E+00   -7.8816690867E+00
-7.8430349855E+00   -7.8047794137E+00   -7.7668967184E+00   -7.7293813375E+00
-7.6922278010E+00   -7.6554307328E+00   -7.6189848527E+00   -7.5828849778E+00
-7.5471260238E+00   -7.5117030060E+00   -7.4766110405E+00   -7.4418453442E+00
-7.4074012353E+00   -7.3732741329E+00   -7.3394595563E+00   -7.3059531242E+00
-7.2727505535E+00   -7.2398476570E+00   -7.2072403421E+00   -7.1749246081E+00
-7.1428965434E+00   -7.1111523229E+00   -7.0796882052E+00   -7.0485005286E+00
-7.0175857085E+00   -6.9869402337E+00   -6.9565606626E+00   -6.9264436203E+00
-6.8965857949E+00   -6.8669839343E+00   -6.8376348428E+00   -6.8085353781E+00
-6.7796824488E+00   -6.7510730113E+00   -6.7227040676E+00   -6.6945726631E+00
-6.6666758848E+00   -6.6390108595E+00   -6.6115747525E+00   -6.5843647664E+00
-6.5573781403E+00   -6.5306121492E+00   -6.5040641034E+00   -6.4777313483E+00
-6.4516112645E+00   -6.4257012678E+00   -6.3999988094E+00   -6.3745013761E+00
-6.3492064908E+00   -6.3241117128E+00   -6.2992146383E+00   -6.2745129007E+00
-6.2500041708E+00   -6.2256861574E+00   -6.2015566074E+00   -6.1776133054E+00
-6.1538540744E+00   -6.1302767752E+00   -6.1068793060E+00   -6.0836596026E+00
-6.0606156370E+00   -6.0377454176E+00   -6.0150469876E+00   -5.9925184244E+00
-5.9701578337E+00   -5.9479633622E+00   -5.9259331960E+00   -5.9040655577E+00
-5.8823586860E+00   -5.8608107364E+00   -5.8394199610E+00   -5.8181845451E+00
-5.7971032052E+00   -5.7761745272E+00   -5.7553972297E+00   -5.7347694909E+00
-5.7142893863E+00   -5.6939549636E+00   -5.6737644215E+00   -5.6537162744E+00
-5.6338090287E+00   -5.6140412873E+00   -5.5944116379E+00   -5.5749187210E+00
-5.5555612181E+00   -5.5363377443E+00   -5.5172468900E+00   -5.4982872588E+00
-5.4794574584E+00   -5.4607561816E+00   -5.4421821186E+00   -5.4237339854E+00
-5.4054105048E+00   -5.3872104154E+00   -5.3691324747E+00   -5.3511754568E+00
-5.3333381528E+00   -5.3156193694E+00   -5.2980179295E+00   -5.2805326710E+00
-5.2631624476E+00   -5.2459061277E+00   -5.2287625947E+00   -5.2117307463E+00
-5.1948094949E+00   -5.1779977666E+00   -5.1612945015E+00   -5.1446986533E+00
-5.1282091893E+00   -5.1118250898E+00   -5.0955453480E+00   -5.0793689702E+00
-5.0632949750E+00   -5.0473223936E+00   -5.0314502691E+00   -5.0156776569E+00
-5.0000036240E+00   -4.9844272492E+00   -4.9689476226E+00   -4.9535638455E+00
-4.9382750306E+00   -4.9230803012E+00   -4.9079787915E+00   -4.8929696463E+00
-4.8780520209E+00   -4.8632250806E+00   -4.8484880011E+00   -4.8338399680E+00
-4.8192801765E+00   -4.8048078318E+00   -4.7904221483E+00   -4.7761223501E+00
-4.7619076703E+00   -4.7477773511E+00   -4.7337306438E+00   -4.7197668085E+00
-4.7058851140E+00   -4.6920848375E+00   -4.6783652650E+00   -4.6647256905E+00
-4.6511654164E+00   -4.6376837531E+00   -4.6242800190E+00   -4.6109535404E+00
-4.5977036513E+00   -4.5845296933E+00   -4.5714310156E+00   -4.5584069748E+00
-4.5454569347E+00   -4.5325802665E+00   -4.5197763483E+00   -4.5070445654E+00
-4.4943843098E+00   -4.4817949806E+00   -4.4692759833E+00   -4.4568267302E+00
-4.4444466401E+00   -4.4321351383E+00   -4.4198916563E+00   -4.4077156319E+00
-4.3956065093E+00   -4.3835637385E+00   -4.3715867756E+00   -4.3596750828E+00
-4.3478281278E+00   -4.3360453845E+00   -4.3243263320E+00   -4.3126704555E+00
-4.3010772455E+00   -4.2895461978E+00   -4.2780768139E+00   -4.2666686005E+00
-4.2553210694E+00   -4.2440337379E+00   -4.2328061280E+00   -4.2216377672E+00
-4.2105281876E+00   -4.1994769263E+00   -4.1884835255E+00   -4.1775475317E+00
-4.1666684967E+00   -4.1558459764E+00   -4.1450795317E+00   -4.1343687279E+00
-4.1237131347E+00   -4.1131123264E+00   -4.1025658815E+00   -4.0920733830E+00
-4.0816344178E+00   -4.0712485775E+00   -4.0609154575E+00   -4.0506346573E+00
-4.0404057806E+00   -4.0302284351E+00   -4.0201022322E+00   -4.0100267876E+00
-4.0000017203E+00   -3.9900266537E+00   -3.9801012145E+00   -3.9702250332E+00
-3.9603977442E+00   -3.9506189852E+00   -3.9408883976E+00   -3.9312056264E+00
-3.9215703199E+00   -3.9119821300E+00   -3.9024407120E+00   -3.8929457244E+00
-3.8834968291E+00   -3.8740936913E+00   -3.8647359795E+00   -3.8554233652E+00
-3.8461555233E+00   -3.8369321316E+00   -3.8277528711E+00   -3.8186174257E+00
-3.8095254827E+00   -3.8004767318E+00   -3.7914708662E+00   -3.7825075815E+00
-3.7735865767E+00   -3.7647075531E+00   -3.7558702151E+00   -3.7470742699E+00
-3.7383194274E+00   -3.7296054000E+00   -3.7209319031E+00   -3.7122986545E+00
-3.7037053746E+00   -3.6951517867E+00   -3.6866376163E+00   -3.6781625915E+00
-3.6697264430E+00   -3.6613289040E+00   -3.6529697099E+00   -3.6446485987E+00
-3.6363653108E+00   -3.6281195888E+00   -3.6199111778E+00   -3.6117398251E+00
-3.6036052804E+00   -3.5955072954E+00   -3.5874456242E+00   -3.5794200232E+00
-3.5714302507E+00   -3.5634760674E+00   -3.5555572361E+00   -3.5476735215E+00
-3.5398246906E+00   -3.5320105123E+00   -3.5242307577E+00   -3.5164851999E+00
-3.5087736137E+00   -3.5010957763E+00   -3.4934514665E+00   -3.4858404652E+00
-3.4782625553E+00   -3.4707175212E+00   -3.4632051496E+00   -3.4557252288E+00
-3.4482775490E+00   -3.4408619023E+00   -3.4334780822E+00   -3.4261258845E+00
-3.4188051064E+00   -3.4115155470E+00   -3.4042570069E+00   -3.3970292885E+00
-3.3898321961E+00   -3.3826655353E+00   -3.3755291135E+00   -3.3684227397E+00
-3.3613462246E+00   -3.3542993804E+00   -3.3472820208E+00   -3.3402939612E+00
-3.3333350185E+00   -3.3264050110E+00   -3.3195037587E+00   -3.3126310829E+00
-3.3057868066E+00   -3.2989707541E+00   -3.2921827510E+00   -3.2854226247E+00
-3.2786902038E+00   -3.2719853183E+00   -3.2653077997E+00   -3.2586574806E+00
-3.2520341953E+00   -3.2454377792E+00   -3.2388680692E+00   -3.2323249034E+00