Br    ONCVPSP  r_core=  1.81  1.51  1.92
35.0000     17.0000      150121    zatom,zion,pspd
8      11   2     4   600     0    pspcod,pspxc,lmax,lloc,mmax,r2well
5.99000000  0.15000000  0.00000000    rchrg fchrg qchrg
2     2     2     0     0    nproj
0                 extension_switch
0                         8.1128711670352D+00  8.0892742232577D-01
1  0.0000000000000D+00  0.0000000000000D+00 -0.0000000000000D+00
2  1.0000000000000D-02  3.7751933138828D-02 -1.8409777730447D-02
3  2.0000000000000D-02  7.5472935567462D-02 -3.6752655323292D-02
4  3.0000000000000D-02  1.1313215715189D-01 -5.4962222600827D-02
5  4.0000000000000D-02  1.5069890794260D-01 -7.2973044129746D-02
6  5.0000000000000D-02  1.8814273585837D-01 -9.0721133707263D-02
7  6.0000000000000D-02  2.2543350151084D-01 -1.0814441352922D-01
8  7.0000000000000D-02  2.6254144926870D-01 -1.2518315317774D-01
9  8.0000000000000D-02  2.9943727370273D-01 -1.4178038376531D-01
10  9.0000000000000D-02  3.3609218060804D-01 -1.5788228283158D-01
11  1.0000000000000D-01  3.7247794186127D-01 -1.7343852587740D-01
12  1.1000000000000D-01  4.0856694344334D-01 -1.8840260076424D-01
13  1.2000000000000D-01  4.4433222603921D-01 -2.0273208159010D-01
14  1.3000000000000D-01  4.7974751771329D-01 -2.1638885906631D-01
15  1.4000000000000D-01  5.1478725824762D-01 -2.2933932482309D-01
16  1.5000000000000D-01  5.4942661484724D-01 -2.4155450767201D-01
17  1.6000000000000D-01  5.8364148899087D-01 -2.5301016012838D-01
18  1.7000000000000D-01  6.1740851435193D-01 -2.6368679430439D-01
19  1.8000000000000D-01  6.5070504578476D-01 -2.7356966649010D-01
20  1.9000000000000D-01  6.8350913951303D-01 -2.8264871056670D-01
21  2.0000000000000D-01  7.1579952477084D-01 -2.9091842076347D-01
22  2.1000000000000D-01  7.4755556719063D-01 -2.9837768477250D-01
23  2.2000000000000D-01  7.7875722448026D-01 -3.0502956901407D-01
24  2.3000000000000D-01  8.0938499486513D-01 -3.1088105799516D-01
25  2.4000000000000D-01  8.3941985909618D-01 -3.1594275096683D-01
26  2.5000000000000D-01  8.6884321639456D-01 -3.2022851713560D-01
27  2.6000000000000D-01  8.9763681604289D-01 -3.2375511727885D-01
28  2.7000000000000D-01  9.2578268417113D-01 -3.2654178881787D-01
29  2.8000000000000D-01  9.5326304831973D-01 -3.2860980679680D-01
30  2.9000000000000D-01  9.8006025961430D-01 -3.2998201917941D-01
31  3.0000000000000D-01  1.0061567142112D+00 -3.3068236425129D-01
32  3.1000000000000D-01  1.0315347750868D+00 -3.3073537496947D-01
33  3.2000000000000D-01  1.0561766958084D+00 -3.3016567854246D-01
34  3.3000000000000D-01  1.0800645456452D+00 -3.2899748559511D-01
35  3.4000000000000D-01  1.1031801404154D+00 -3.2725409382570D-01
36  3.5000000000000D-01  1.1255049776489D+00 -3.2495739653269D-01
37  3.6000000000000D-01  1.1470201775549D+00 -3.2212740252185D-01
38  3.7000000000000D-01  1.1677064320503D+00 -3.1878178051321D-01
39  3.8000000000000D-01  1.1875439635694D+00 -3.1493543902706D-01
40  3.9000000000000D-01  1.2065124906340D+00 -3.1060011701696D-01
41  4.0000000000000D-01  1.2245912064194D+00 -3.0578402809965D-01
42  4.1000000000000D-01  1.2417587685219D+00 -3.0049154504526D-01
43  4.2000000000000D-01  1.2579933004112D+00 -2.9472292517917D-01
44  4.3000000000000D-01  1.2732724062092D+00 -2.8847408815553D-01
45  4.4000000000000D-01  1.2875731991136D+00 -2.8173644767653D-01
46  4.5000000000000D-01  1.3008723439319D+00 -2.7449680026673D-01
47  4.6000000000000D-01  1.3131461140627D+00 -2.6673727377163D-01
48  4.7000000000000D-01  1.3243704629961D+00 -2.5843533889920D-01
49  4.8000000000000D-01  1.3345211097754D+00 -2.4956388320278D-01
50  4.9000000000000D-01  1.3435736414741D+00 -2.4009133521291D-01
51  5.0000000000000D-01  1.3515036277946D+00 -2.2998188187639D-01
52  5.1000000000000D-01  1.3582867473390D+00 -2.1919573012898D-01
53  5.2000000000000D-01  1.3638989335575D+00 -2.0768942363124D-01
54  5.3000000000000D-01  1.3683165331426D+00 -1.9541624298862D-01
55  5.4000000000000D-01  1.3715164556059D+00 -1.8232663748977D-01
56  5.5000000000000D-01  1.3734763825309D+00 -1.6836875098687D-01
57  5.6000000000000D-01  1.3741749173654D+00 -1.5348893905797D-01
58  5.7000000000000D-01  1.3735918187204D+00 -1.3763241704132D-01
59  5.8000000000000D-01  1.3717081642536D+00 -1.2074384050802D-01
60  5.9000000000000D-01  1.3685066090146D+00 -1.0276808302029D-01
61  6.0000000000000D-01  1.3639715241247D+00 -8.3650787349453D-02
62  6.1000000000000D-01  1.3580893114829D+00 -6.3339337867415D-02
63  6.2000000000000D-01  1.3508485177587D+00 -4.1783370965091D-02
64  6.3000000000000D-01  1.3422401089202D+00 -1.8935694762139D-02
65  6.4000000000000D-01  1.3322576864809D+00  5.2469144605692D-03
66  6.5000000000000D-01  1.3208976321103D+00  3.0803116332823D-02
67  6.6000000000000D-01  1.3081593608570D+00  5.7766088904088D-02
68  6.7000000000000D-01  1.2940455196766D+00  8.6162750821008D-02
69  6.8000000000000D-01  1.2785621169194D+00  1.1601319360291D-01
70  6.9000000000000D-01  1.2617186822263D+00  1.4733002318096D-01
71  7.0000000000000D-01  1.2435284836563D+00  1.8011749736698D-01
72  7.1000000000000D-01  1.2240086234507D+00  2.1437105078374D-01
73  7.2000000000000D-01  1.2031801367735D+00  2.5007681287318D-01
74  7.3000000000000D-01  1.1810680998204D+00  2.8721108859689D-01
75  7.4000000000000D-01  1.1577017021260D+00  3.2573995522571D-01
76  7.5000000000000D-01  1.1331142837250D+00  3.6561898070193D-01
77  7.6000000000000D-01  1.1073434268101D+00  4.0679272472786D-01
78  7.7000000000000D-01  1.0804308856772D+00  4.4919483221650D-01
79  7.8000000000000D-01  1.0524225884077D+00  4.9274785541477D-01
80  7.9000000000000D-01  1.0233685875082D+00  5.3736325601977D-01
81  8.0000000000000D-01  9.9332298357970D-01  5.8294150037199D-01
82  8.1000000000000D-01  9.6234382176605D-01  6.2937224938366D-01
83  8.2000000000000D-01  9.3049296093775D-01  6.7653464404485D-01
84  8.3000000000000D-01  8.9783591578068D-01  7.2429768652524D-01
85  8.4000000000000D-01  8.6444167217044D-01  7.7252071606049D-01
86  8.5000000000000D-01  8.3038247642382D-01  8.2105397798388D-01
87  8.6000000000000D-01  7.9573359922953D-01  8.6973928343728D-01
88  8.7000000000000D-01  7.6057307527014D-01  9.1841075647209D-01
89  8.8000000000000D-01  7.2498141975671D-01  9.6689566442993D-01
90  8.9000000000000D-01  6.8904132330757D-01  1.0150153266740D+00
91  9.0000000000000D-01  6.5283732681276D-01  1.0625860959254D+00
92  9.1000000000000D-01  6.1645547813603D-01  1.1094204056471D+00
93  9.2000000000000D-01  5.7998297271557D-01  1.1553278761136D+00
94  9.3000000000000D-01  5.4350778033032D-01  1.2001164710236D+00
95  9.4000000000000D-01  5.0711826049603D-01  1.2435936957649D+00
96  9.5000000000000D-01  4.7090280679996D-01  1.2855677246914D+00
97  9.6000000000000D-01  4.3494941532849D-01  1.3258487332800D+00
98  9.7000000000000D-01  3.9934517603143D-01  1.3642504666233D+00
99  9.8000000000000D-01  3.6417600487114D-01  1.4005911383635D+00
100  9.9000000000000D-01  3.2952619145734D-01  1.4346948283358D+00
101  1.0000000000000D+00  2.9547799990162D-01  1.4663927329225D+00
102  1.0100000000000D+00  2.6211127850160D-01  1.4955243834406D+00
103  1.0200000000000D+00  2.2950322528133D-01  1.5219384001424D+00
104  1.0300000000000D+00  1.9772776275194D-01  1.5454943768627D+00
105  1.0400000000000D+00  1.6685505962210D-01  1.5660643375545D+00
106  1.0500000000000D+00  1.3695154693272D-01  1.5835327180031D+00
107  1.0600000000000D+00  1.0807947260146D-01  1.5977976826924D+00
108  1.0700000000000D+00  8.0296785279653D-02  1.6087714635586D+00
109  1.0800000000000D+00  5.3656685294246D-02  1.6163816649276D+00
110  1.0900000000000D+00  2.8206796680650D-02  1.6205736339187D+00
111  1.1000000000000D+00  3.9898310126656D-03  1.6213084501917D+00
112  1.1100000000000D+00 -1.8956874012491D-02  1.6185641927110D+00
113  1.1200000000000D+00 -4.0600880962115D-02  1.6123345233136D+00
114  1.1300000000000D+00 -6.0916808866121D-02  1.6026346947121D+00
115  1.1400000000000D+00 -7.9884463770536D-02  1.5894960253717D+00
116  1.1500000000000D+00 -9.7489330726486D-02  1.5729671623339D+00
117  1.1600000000000D+00 -1.1372225450695D-01  1.5531131077761D+00
118  1.1700000000000D+00 -1.2858128655022D-01  1.5300198818435D+00
119  1.1800000000000D+00 -1.4206956395615D-01  1.5037884778404D+00
120  1.1900000000000D+00 -1.5419544609604D-01  1.4745351457400D+00
121  1.2000000000000D+00 -1.6497351275633D-01  1.4423936057273D+00
122  1.2100000000000D+00 -1.7442403066586D-01  1.4075130276708D+00
123  1.2200000000000D+00 -1.8257191349706D-01  1.3700552958961D+00
124  1.2300000000000D+00 -1.8944707236956D-01  1.3301956928657D+00
125  1.2400000000000D+00 -1.9508505308082D-01  1.2881229901354D+00
126  1.2500000000000D+00 -1.9952522543518D-01  1.2440354132141D+00
127  1.2600000000000D+00 -2.0281105977459D-01  1.1981413682221D+00
128  1.2700000000000D+00 -2.0499065279510D-01  1.1506577769730D+00
129  1.2800000000000D+00 -2.0611505729132D-01  1.1018077612443D+00
130  1.2900000000000D+00 -2.0623868867690D-01  1.0518214839069D+00
131  1.3000000000000D+00 -2.0541888575473D-01  1.0009307876328D+00
132  1.3100000000000D+00 -2.0371520328749D-01  9.4937114075445D-01
133  1.3200000000000D+00 -2.0118958400874D-01  8.9738040262731D-01
134  1.3300000000000D+00 -1.9790498404341D-01  8.4519142632718D-01
135  1.3400000000000D+00 -1.9392615553669D-01  7.9303943984464D-01
136  1.3500000000000D+00 -1.8931841139718D-01  7.4115362653027D-01
137  1.3600000000000D+00 -1.8414673101736D-01  6.8975463933282D-01
138  1.3700000000000D+00 -1.7847784059809D-01  6.3906552354543D-01
139  1.3800000000000D+00 -1.7237570822906D-01  5.8928906305766D-01
140  1.3900000000000D+00 -1.6590477595561D-01  5.4062544827317D-01
141  1.4000000000000D+00 -1.5912869616533D-01  4.9326539264627D-01
142  1.4100000000000D+00 -1.5210723581220D-01  4.4737723854240D-01
143  1.4200000000000D+00 -1.4490174759195D-01  4.0313165755867D-01
144  1.4300000000000D+00 -1.3756744279524D-01  3.6066778726205D-01
145  1.4400000000000D+00 -1.3015929765096D-01  3.2011988480851D-01
146  1.4500000000000D+00 -1.2272928807350D-01  2.8160498006105D-01
147  1.4600000000000D+00 -1.1532374941082D-01  2.4521323526449D-01
148  1.4700000000000D+00 -1.0799057541203D-01  2.1103682928832D-01
149  1.4800000000000D+00 -1.0076742649746D-01  1.7912350161822D-01
150  1.4900000000000D+00 -9.3694257211402D-02  1.4952634790537D-01
151  1.5000000000000D+00 -8.6802519416583D-02  1.2226180484474D-01
152  1.5100000000000D+00 -8.0121995501248D-02  9.7336905906630D-02
153  1.5200000000000D+00 -7.3677876067417D-02  7.4737277726676D-02
154  1.5300000000000D+00 -6.7489809679141D-02  5.4427205954267D-02
155  1.5400000000000D+00 -6.1576906274821D-02  3.6364665489214D-02
156  1.5500000000000D+00 -5.5950117441425D-02  2.0480860855264D-02
157  1.5600000000000D+00 -5.0622943458067D-02  6.7105058146268D-03
158  1.5700000000000D+00 -4.5599226847542D-02 -5.0408008348403D-03
159  1.5800000000000D+00 -4.0885666199634D-02 -1.4863346453042D-02
160  1.5900000000000D+00 -3.6481223384716D-02 -2.2869093630189D-02
161  1.6000000000000D+00 -3.2386082333150D-02 -2.9170136380193D-02
162  1.6100000000000D+00 -2.8594988768472D-02 -3.3892409752720D-02
163  1.6200000000000D+00 -2.5102749976419D-02 -3.7164042495987D-02
164  1.6300000000000D+00 -2.1900547107631D-02 -3.9121179853842D-02
165  1.6400000000000D+00 -1.8979089459816D-02 -3.9901861445539D-02
166  1.6500000000000D+00 -1.6326757866879D-02 -3.9648164324660D-02
167  1.6600000000000D+00 -1.3931454209035D-02 -3.8502037955957D-02
168  1.6700000000000D+00 -1.1779638158611D-02 -3.6606709736958D-02
169  1.6800000000000D+00 -9.8576279277449D-03 -3.4102480362425D-02
170  1.6900000000000D+00 -8.1509412398789D-03 -3.1128523519526D-02
171  1.7000000000000D+00 -6.6454066110050D-03 -2.7818630163111D-02
172  1.7100000000000D+00 -5.3266491907976D-03 -2.4302435024953D-02
173  1.7200000000000D+00 -4.1809263167965D-03 -2.0703238244498D-02
174  1.7300000000000D+00 -3.1950456147768D-03 -1.7135573173342D-02
175  1.7400000000000D+00 -2.3564111729626D-03 -1.3709239358397D-02
176  1.7500000000000D+00 -1.6540533985286D-03 -1.0518306328505D-02
177  1.7600000000000D+00 -1.0770404414398D-03 -7.6570107604652D-03
178  1.7700000000000D+00 -6.1755262859825D-04 -5.1941602863362D-03
179  1.7800000000000D+00 -2.6666796593369D-04 -3.2071527741133D-03
180  1.7900000000000D+00 -2.0882541668807D-05 -1.7554716135592D-03
181  1.8000000000000D+00  1.2506894902488D-04 -9.6101519948414D-04
182  1.8100000000000D+00  1.7776313425942D-04 -5.3134535062191D-04
183  1.8200000000000D+00  1.1335352105327D-04 -2.0024690790349D-04
184  1.8300000000000D+00  1.6691162008098D-05 -1.9403943517941D-05
185  1.8400000000000D+00 -1.1747713698714D-05  3.4860321549733D-05
186  1.8500000000000D+00 -5.2519601135061D-06  1.5584736146850D-05
187  1.8600000000000D+00  0.0000000000000D+00  0.0000000000000D+00
188  1.8700000000000D+00  0.0000000000000D+00  0.0000000000000D+00
189  1.8800000000000D+00  0.0000000000000D+00  0.0000000000000D+00
190  1.8900000000000D+00  0.0000000000000D+00  0.0000000000000D+00
191  1.9000000000000D+00  0.0000000000000D+00  0.0000000000000D+00
192  1.9100000000000D+00  0.0000000000000D+00  0.0000000000000D+00
193  1.9200000000000D+00  0.0000000000000D+00  0.0000000000000D+00
194  1.9300000000000D+00  0.0000000000000D+00  0.0000000000000D+00
195  1.9400000000000D+00  0.0000000000000D+00  0.0000000000000D+00
196  1.9500000000000D+00  0.0000000000000D+00  0.0000000000000D+00
197  1.9600000000000D+00  0.0000000000000D+00  0.0000000000000D+00
198  1.9700000000000D+00  0.0000000000000D+00  0.0000000000000D+00
199  1.9800000000000D+00  0.0000000000000D+00  0.0000000000000D+00
200  1.9900000000000D+00  0.0000000000000D+00  0.0000000000000D+00
201  2.0000000000000D+00  0.0000000000000D+00  0.0000000000000D+00
202  2.0100000000000D+00  0.0000000000000D+00  0.0000000000000D+00
203  2.0200000000000D+00  0.0000000000000D+00  0.0000000000000D+00
204  2.0300000000000D+00  0.0000000000000D+00  0.0000000000000D+00
205  2.0400000000000D+00  0.0000000000000D+00  0.0000000000000D+00
206  2.0500000000000D+00  0.0000000000000D+00  0.0000000000000D+00
207  2.0600000000000D+00  0.0000000000000D+00  0.0000000000000D+00
208  2.0700000000000D+00  0.0000000000000D+00  0.0000000000000D+00
209  2.0800000000000D+00  0.0000000000000D+00  0.0000000000000D+00
210  2.0900000000000D+00  0.0000000000000D+00  0.0000000000000D+00
211  2.1000000000000D+00  0.0000000000000D+00  0.0000000000000D+00
212  2.1100000000000D+00  0.0000000000000D+00  0.0000000000000D+00
213  2.1200000000000D+00  0.0000000000000D+00  0.0000000000000D+00
214  2.1300000000000D+00  0.0000000000000D+00  0.0000000000000D+00
215  2.1400000000000D+00  0.0000000000000D+00  0.0000000000000D+00
216  2.1500000000000D+00  0.0000000000000D+00  0.0000000000000D+00
217  2.1600000000000D+00  0.0000000000000D+00  0.0000000000000D+00
218  2.1700000000000D+00  0.0000000000000D+00  0.0000000000000D+00
219  2.1800000000000D+00  0.0000000000000D+00  0.0000000000000D+00
220  2.1900000000000D+00  0.0000000000000D+00  0.0000000000000D+00
221  2.2000000000000D+00  0.0000000000000D+00  0.0000000000000D+00
222  2.2100000000000D+00  0.0000000000000D+00  0.0000000000000D+00
223  2.2200000000000D+00  0.0000000000000D+00  0.0000000000000D+00
224  2.2300000000000D+00  0.0000000000000D+00  0.0000000000000D+00
225  2.2400000000000D+00  0.0000000000000D+00  0.0000000000000D+00
226  2.2500000000000D+00  0.0000000000000D+00  0.0000000000000D+00
227  2.2600000000000D+00  0.0000000000000D+00  0.0000000000000D+00
228  2.2700000000000D+00  0.0000000000000D+00  0.0000000000000D+00
229  2.2800000000000D+00  0.0000000000000D+00  0.0000000000000D+00
230  2.2900000000000D+00  0.0000000000000D+00  0.0000000000000D+00
231  2.3000000000000D+00  0.0000000000000D+00  0.0000000000000D+00
232  2.3100000000000D+00  0.0000000000000D+00  0.0000000000000D+00
233  2.3200000000000D+00  0.0000000000000D+00  0.0000000000000D+00
234  2.3300000000000D+00  0.0000000000000D+00  0.0000000000000D+00
235  2.3400000000000D+00  0.0000000000000D+00  0.0000000000000D+00
236  2.3500000000000D+00  0.0000000000000D+00  0.0000000000000D+00
237  2.3600000000000D+00  0.0000000000000D+00  0.0000000000000D+00
238  2.3700000000000D+00  0.0000000000000D+00  0.0000000000000D+00
239  2.3800000000000D+00  0.0000000000000D+00  0.0000000000000D+00
240  2.3900000000000D+00  0.0000000000000D+00  0.0000000000000D+00
241  2.4000000000000D+00  0.0000000000000D+00  0.0000000000000D+00
242  2.4100000000000D+00  0.0000000000000D+00  0.0000000000000D+00
243  2.4200000000000D+00  0.0000000000000D+00  0.0000000000000D+00
244  2.4300000000000D+00  0.0000000000000D+00  0.0000000000000D+00
245  2.4400000000000D+00  0.0000000000000D+00  0.0000000000000D+00
246  2.4500000000000D+00  0.0000000000000D+00  0.0000000000000D+00
247  2.4600000000000D+00  0.0000000000000D+00  0.0000000000000D+00
248  2.4700000000000D+00  0.0000000000000D+00  0.0000000000000D+00
249  2.4800000000000D+00  0.0000000000000D+00  0.0000000000000D+00
250  2.4900000000000D+00  0.0000000000000D+00  0.0000000000000D+00
251  2.5000000000000D+00  0.0000000000000D+00  0.0000000000000D+00
252  2.5100000000000D+00  0.0000000000000D+00  0.0000000000000D+00
253  2.5200000000000D+00  0.0000000000000D+00  0.0000000000000D+00
254  2.5300000000000D+00  0.0000000000000D+00  0.0000000000000D+00
255  2.5400000000000D+00  0.0000000000000D+00  0.0000000000000D+00
256  2.5500000000000D+00  0.0000000000000D+00  0.0000000000000D+00
257  2.5600000000000D+00  0.0000000000000D+00  0.0000000000000D+00
258  2.5700000000000D+00  0.0000000000000D+00  0.0000000000000D+00
259  2.5800000000000D+00  0.0000000000000D+00  0.0000000000000D+00
260  2.5900000000000D+00  0.0000000000000D+00  0.0000000000000D+00
261  2.6000000000000D+00  0.0000000000000D+00  0.0000000000000D+00
262  2.6100000000000D+00  0.0000000000000D+00  0.0000000000000D+00
263  2.6200000000000D+00  0.0000000000000D+00  0.0000000000000D+00
264  2.6300000000000D+00  0.0000000000000D+00  0.0000000000000D+00
265  2.6400000000000D+00  0.0000000000000D+00  0.0000000000000D+00
266  2.6500000000000D+00  0.0000000000000D+00  0.0000000000000D+00
267  2.6600000000000D+00  0.0000000000000D+00  0.0000000000000D+00
268  2.6700000000000D+00  0.0000000000000D+00  0.0000000000000D+00
269  2.6800000000000D+00  0.0000000000000D+00  0.0000000000000D+00
270  2.6900000000000D+00  0.0000000000000D+00  0.0000000000000D+00
271  2.7000000000000D+00  0.0000000000000D+00  0.0000000000000D+00
272  2.7100000000000D+00  0.0000000000000D+00  0.0000000000000D+00
273  2.7200000000000D+00  0.0000000000000D+00  0.0000000000000D+00
274  2.7300000000000D+00  0.0000000000000D+00  0.0000000000000D+00
275  2.7400000000000D+00  0.0000000000000D+00  0.0000000000000D+00
276  2.7500000000000D+00  0.0000000000000D+00  0.0000000000000D+00
277  2.7600000000000D+00  0.0000000000000D+00  0.0000000000000D+00
278  2.7700000000000D+00  0.0000000000000D+00  0.0000000000000D+00
279  2.7800000000000D+00  0.0000000000000D+00  0.0000000000000D+00
280  2.7900000000000D+00  0.0000000000000D+00  0.0000000000000D+00
281  2.8000000000000D+00  0.0000000000000D+00  0.0000000000000D+00
282  2.8100000000000D+00  0.0000000000000D+00  0.0000000000000D+00
283  2.8200000000000D+00  0.0000000000000D+00  0.0000000000000D+00
284  2.8300000000000D+00  0.0000000000000D+00  0.0000000000000D+00
285  2.8400000000000D+00  0.0000000000000D+00  0.0000000000000D+00
286  2.8500000000000D+00  0.0000000000000D+00  0.0000000000000D+00
287  2.8600000000000D+00  0.0000000000000D+00  0.0000000000000D+00
288  2.8700000000000D+00  0.0000000000000D+00  0.0000000000000D+00
289  2.8800000000000D+00  0.0000000000000D+00  0.0000000000000D+00
290  2.8900000000000D+00  0.0000000000000D+00  0.0000000000000D+00
291  2.9000000000000D+00  0.0000000000000D+00  0.0000000000000D+00
292  2.9100000000000D+00  0.0000000000000D+00  0.0000000000000D+00
293  2.9200000000000D+00  0.0000000000000D+00  0.0000000000000D+00
294  2.9300000000000D+00  0.0000000000000D+00  0.0000000000000D+00
295  2.9400000000000D+00  0.0000000000000D+00  0.0000000000000D+00
296  2.9500000000000D+00  0.0000000000000D+00  0.0000000000000D+00
297  2.9600000000000D+00  0.0000000000000D+00  0.0000000000000D+00
298  2.9700000000000D+00  0.0000000000000D+00  0.0000000000000D+00
299  2.9800000000000D+00  0.0000000000000D+00  0.0000000000000D+00
300  2.9900000000000D+00  0.0000000000000D+00  0.0000000000000D+00
301  3.0000000000000D+00  0.0000000000000D+00  0.0000000000000D+00
302  3.0100000000000D+00  0.0000000000000D+00  0.0000000000000D+00
303  3.0200000000000D+00  0.0000000000000D+00  0.0000000000000D+00
304  3.0300000000000D+00  0.0000000000000D+00  0.0000000000000D+00
305  3.0400000000000D+00  0.0000000000000D+00  0.0000000000000D+00
306  3.0500000000000D+00  0.0000000000000D+00  0.0000000000000D+00
307  3.0600000000000D+00  0.0000000000000D+00  0.0000000000000D+00
308  3.0700000000000D+00  0.0000000000000D+00  0.0000000000000D+00
309  3.0800000000000D+00  0.0000000000000D+00  0.0000000000000D+00
310  3.0900000000000D+00  0.0000000000000D+00  0.0000000000000D+00
311  3.1000000000000D+00  0.0000000000000D+00  0.0000000000000D+00
312  3.1100000000000D+00  0.0000000000000D+00  0.0000000000000D+00
313  3.1200000000000D+00  0.0000000000000D+00  0.0000000000000D+00
314  3.1300000000000D+00  0.0000000000000D+00  0.0000000000000D+00
315  3.1400000000000D+00  0.0000000000000D+00  0.0000000000000D+00
316  3.1500000000000D+00  0.0000000000000D+00  0.0000000000000D+00
317  3.1600000000000D+00  0.0000000000000D+00  0.0000000000000D+00
318  3.1700000000000D+00  0.0000000000000D+00  0.0000000000000D+00
319  3.1800000000000D+00  0.0000000000000D+00  0.0000000000000D+00
320  3.1900000000000D+00  0.0000000000000D+00  0.0000000000000D+00
321  3.2000000000000D+00  0.0000000000000D+00  0.0000000000000D+00
322  3.2100000000000D+00  0.0000000000000D+00  0.0000000000000D+00
323  3.2200000000000D+00  0.0000000000000D+00  0.0000000000000D+00
324  3.2300000000000D+00  0.0000000000000D+00  0.0000000000000D+00
325  3.2400000000000D+00  0.0000000000000D+00  0.0000000000000D+00
326  3.2500000000000D+00  0.0000000000000D+00  0.0000000000000D+00
327  3.2600000000000D+00  0.0000000000000D+00  0.0000000000000D+00
328  3.2700000000000D+00  0.0000000000000D+00  0.0000000000000D+00
329  3.2800000000000D+00  0.0000000000000D+00  0.0000000000000D+00
330  3.2900000000000D+00  0.0000000000000D+00  0.0000000000000D+00
331  3.3000000000000D+00  0.0000000000000D+00  0.0000000000000D+00
332  3.3100000000000D+00  0.0000000000000D+00  0.0000000000000D+00
333  3.3200000000000D+00  0.0000000000000D+00  0.0000000000000D+00
334  3.3300000000000D+00  0.0000000000000D+00  0.0000000000000D+00
335  3.3400000000000D+00  0.0000000000000D+00  0.0000000000000D+00
336  3.3500000000000D+00  0.0000000000000D+00  0.0000000000000D+00
337  3.3600000000000D+00  0.0000000000000D+00  0.0000000000000D+00
338  3.3700000000000D+00  0.0000000000000D+00  0.0000000000000D+00
339  3.3800000000000D+00  0.0000000000000D+00  0.0000000000000D+00
340  3.3900000000000D+00  0.0000000000000D+00  0.0000000000000D+00
341  3.4000000000000D+00  0.0000000000000D+00  0.0000000000000D+00
342  3.4100000000000D+00  0.0000000000000D+00  0.0000000000000D+00
343  3.4200000000000D+00  0.0000000000000D+00  0.0000000000000D+00
344  3.4300000000000D+00  0.0000000000000D+00  0.0000000000000D+00
345  3.4400000000000D+00  0.0000000000000D+00  0.0000000000000D+00
346  3.4500000000000D+00  0.0000000000000D+00  0.0000000000000D+00
347  3.4600000000000D+00  0.0000000000000D+00  0.0000000000000D+00
348  3.4700000000000D+00  0.0000000000000D+00  0.0000000000000D+00
349  3.4800000000000D+00  0.0000000000000D+00  0.0000000000000D+00
350  3.4900000000000D+00  0.0000000000000D+00  0.0000000000000D+00
351  3.5000000000000D+00  0.0000000000000D+00  0.0000000000000D+00
352  3.5100000000000D+00  0.0000000000000D+00  0.0000000000000D+00
353  3.5200000000000D+00  0.0000000000000D+00  0.0000000000000D+00
354  3.5300000000000D+00  0.0000000000000D+00  0.0000000000000D+00
355  3.5400000000000D+00  0.0000000000000D+00  0.0000000000000D+00
356  3.5500000000000D+00  0.0000000000000D+00  0.0000000000000D+00
357  3.5600000000000D+00  0.0000000000000D+00  0.0000000000000D+00
358  3.5700000000000D+00  0.0000000000000D+00  0.0000000000000D+00
359  3.5800000000000D+00  0.0000000000000D+00  0.0000000000000D+00
360  3.5900000000000D+00  0.0000000000000D+00  0.0000000000000D+00
361  3.6000000000000D+00  0.0000000000000D+00  0.0000000000000D+00
362  3.6100000000000D+00  0.0000000000000D+00  0.0000000000000D+00
363  3.6200000000000D+00  0.0000000000000D+00  0.0000000000000D+00
364  3.6300000000000D+00  0.0000000000000D+00  0.0000000000000D+00
365  3.6400000000000D+00  0.0000000000000D+00  0.0000000000000D+00
366  3.6500000000000D+00  0.0000000000000D+00  0.0000000000000D+00
367  3.6600000000000D+00  0.0000000000000D+00  0.0000000000000D+00
368  3.6700000000000D+00  0.0000000000000D+00  0.0000000000000D+00
369  3.6800000000000D+00  0.0000000000000D+00  0.0000000000000D+00
370  3.6900000000000D+00  0.0000000000000D+00  0.0000000000000D+00
371  3.7000000000000D+00  0.0000000000000D+00  0.0000000000000D+00
372  3.7100000000000D+00  0.0000000000000D+00  0.0000000000000D+00
373  3.7200000000000D+00  0.0000000000000D+00  0.0000000000000D+00
374  3.7300000000000D+00  0.0000000000000D+00  0.0000000000000D+00
375  3.7400000000000D+00  0.0000000000000D+00  0.0000000000000D+00
376  3.7500000000000D+00  0.0000000000000D+00  0.0000000000000D+00
377  3.7600000000000D+00  0.0000000000000D+00  0.0000000000000D+00
378  3.7700000000000D+00  0.0000000000000D+00  0.0000000000000D+00
379  3.7800000000000D+00  0.0000000000000D+00  0.0000000000000D+00
380  3.7900000000000D+00  0.0000000000000D+00  0.0000000000000D+00
381  3.8000000000000D+00  0.0000000000000D+00  0.0000000000000D+00
382  3.8100000000000D+00  0.0000000000000D+00  0.0000000000000D+00
383  3.8200000000000D+00  0.0000000000000D+00  0.0000000000000D+00
384  3.8300000000000D+00  0.0000000000000D+00  0.0000000000000D+00
385  3.8400000000000D+00  0.0000000000000D+00  0.0000000000000D+00
386  3.8500000000000D+00  0.0000000000000D+00  0.0000000000000D+00
387  3.8600000000000D+00  0.0000000000000D+00  0.0000000000000D+00
388  3.8700000000000D+00  0.0000000000000D+00  0.0000000000000D+00
389  3.8800000000000D+00  0.0000000000000D+00  0.0000000000000D+00
390  3.8900000000000D+00  0.0000000000000D+00  0.0000000000000D+00
391  3.9000000000000D+00  0.0000000000000D+00  0.0000000000000D+00
392  3.9100000000000D+00  0.0000000000000D+00  0.0000000000000D+00
393  3.9200000000000D+00  0.0000000000000D+00  0.0000000000000D+00
394  3.9300000000000D+00  0.0000000000000D+00  0.0000000000000D+00
395  3.9400000000000D+00  0.0000000000000D+00  0.0000000000000D+00
396  3.9500000000000D+00  0.0000000000000D+00  0.0000000000000D+00
397  3.9600000000000D+00  0.0000000000000D+00  0.0000000000000D+00
398  3.9700000000000D+00  0.0000000000000D+00  0.0000000000000D+00
399  3.9800000000000D+00  0.0000000000000D+00  0.0000000000000D+00
400  3.9900000000000D+00  0.0000000000000D+00  0.0000000000000D+00
401  4.0000000000000D+00  0.0000000000000D+00  0.0000000000000D+00
402  4.0100000000000D+00  0.0000000000000D+00  0.0000000000000D+00
403  4.0200000000000D+00  0.0000000000000D+00  0.0000000000000D+00
404  4.0300000000000D+00  0.0000000000000D+00  0.0000000000000D+00
405  4.0400000000000D+00  0.0000000000000D+00  0.0000000000000D+00
406  4.0500000000000D+00  0.0000000000000D+00  0.0000000000000D+00
407  4.0600000000000D+00  0.0000000000000D+00  0.0000000000000D+00
408  4.0700000000000D+00  0.0000000000000D+00  0.0000000000000D+00
409  4.0800000000000D+00  0.0000000000000D+00  0.0000000000000D+00
410  4.0900000000000D+00  0.0000000000000D+00  0.0000000000000D+00
411  4.1000000000000D+00  0.0000000000000D+00  0.0000000000000D+00
412  4.1100000000000D+00  0.0000000000000D+00  0.0000000000000D+00
413  4.1200000000000D+00  0.0000000000000D+00  0.0000000000000D+00
414  4.1300000000000D+00  0.0000000000000D+00  0.0000000000000D+00
415  4.1400000000000D+00  0.0000000000000D+00  0.0000000000000D+00
416  4.1500000000000D+00  0.0000000000000D+00  0.0000000000000D+00
417  4.1600000000000D+00  0.0000000000000D+00  0.0000000000000D+00
418  4.1700000000000D+00  0.0000000000000D+00  0.0000000000000D+00
419  4.1800000000000D+00  0.0000000000000D+00  0.0000000000000D+00
420  4.1900000000000D+00  0.0000000000000D+00  0.0000000000000D+00
421  4.2000000000000D+00  0.0000000000000D+00  0.0000000000000D+00
422  4.2100000000000D+00  0.0000000000000D+00  0.0000000000000D+00
423  4.2200000000000D+00  0.0000000000000D+00  0.0000000000000D+00
424  4.2300000000000D+00  0.0000000000000D+00  0.0000000000000D+00
425  4.2400000000000D+00  0.0000000000000D+00  0.0000000000000D+00
426  4.2500000000000D+00  0.0000000000000D+00  0.0000000000000D+00
427  4.2600000000000D+00  0.0000000000000D+00  0.0000000000000D+00
428  4.2700000000000D+00  0.0000000000000D+00  0.0000000000000D+00
429  4.2800000000000D+00  0.0000000000000D+00  0.0000000000000D+00
430  4.2900000000000D+00  0.0000000000000D+00  0.0000000000000D+00
431  4.3000000000000D+00  0.0000000000000D+00  0.0000000000000D+00
432  4.3100000000000D+00  0.0000000000000D+00  0.0000000000000D+00
433  4.3200000000000D+00  0.0000000000000D+00  0.0000000000000D+00
434  4.3300000000000D+00  0.0000000000000D+00  0.0000000000000D+00
435  4.3400000000000D+00  0.0000000000000D+00  0.0000000000000D+00
436  4.3500000000000D+00  0.0000000000000D+00  0.0000000000000D+00
437  4.3600000000000D+00  0.0000000000000D+00  0.0000000000000D+00
438  4.3700000000000D+00  0.0000000000000D+00  0.0000000000000D+00
439  4.3800000000000D+00  0.0000000000000D+00  0.0000000000000D+00
440  4.3900000000000D+00  0.0000000000000D+00  0.0000000000000D+00
441  4.4000000000000D+00  0.0000000000000D+00  0.0000000000000D+00
442  4.4100000000000D+00  0.0000000000000D+00  0.0000000000000D+00
443  4.4200000000000D+00  0.0000000000000D+00  0.0000000000000D+00
444  4.4300000000000D+00  0.0000000000000D+00  0.0000000000000D+00