Br    ONCVPSP  r_core=  1.81  1.51  1.92
35.0000     17.0000      140905    zatom,zion,pspd
8    11     2     4   601     0    pspcod,pspxc,lmax,lloc,mmax,r2well
6.00000000  0.40000000  0.00000000    rchrg fchrg qchrg
2     2     2     0     0    nproj
0                 extension_switch
0                         8.6139418806997D+00  9.4008248465776D-01
1  0.0000000000000D+00 -0.0000000000000D+00 -0.0000000000000D+00
2  1.0000000000000D-02 -3.7027658969701D-02 -1.1240393903001D-02
3  2.0000000000000D-02 -7.4044916418458D-02 -2.2502460643205D-02
4  3.0000000000000D-02 -1.1104123580233D-01 -3.3807491379618D-02
5  4.0000000000000D-02 -1.4800581149357D-01 -4.5176016576382D-02
6  5.0000000000000D-02 -1.8492743663895D-01 -5.6627432293895D-02
7  6.0000000000000D-02 -2.2179437388369D-01 -6.8179634404117D-02
8  7.0000000000000D-02 -2.5859422989136D-01 -7.9848663299305D-02
9  8.0000000000000D-02 -2.9531383457038D-01 -9.1648361607251D-02
10  9.0000000000000D-02 -3.3193912588992D-01 -1.0359004734539D-01
11  1.0000000000000D-01 -3.6845504113976D-01 -1.1568220486423D-01
12  1.1000000000000D-01 -4.0484541545177D-01 -1.2793019582540D-01
13  1.2000000000000D-01 -4.4109288835938D-01 -1.4033599233931D-01
14  1.3000000000000D-01 -4.7717881912658D-01 -1.5289793425875D-01
15  1.4000000000000D-01 -5.1308321154504D-01 -1.6561051253007D-01
16  1.5000000000000D-01 -5.4878464879907D-01 -1.7846418021857D-01
17  1.6000000000000D-01 -5.8426023902578D-01 -1.9144519290464D-01
18  1.7000000000000D-01 -6.1948557202048D-01 -2.0453547963618D-01
19  1.8000000000000D-01 -6.5443468761546D-01 -2.1771254585038D-01
20  1.9000000000000D-01 -6.8908005604294D-01 -2.3094940904644D-01
21  2.0000000000000D-01 -7.2339257070144D-01 -2.4421456832247D-01
22  2.1000000000000D-01 -7.5734155342218D-01 -2.5747200791556D-01
23  2.2000000000000D-01 -7.9089477261634D-01 -2.7068123578208D-01
24  2.3000000000000D-01 -8.2401847423666D-01 -2.8379735687890D-01
25  2.4000000000000D-01 -8.5667742563392D-01 -2.9677118132879D-01
26  2.5000000000000D-01 -8.8883497240801D-01 -3.0954936752525D-01
27  2.6000000000000D-01 -9.2045310771616D-01 -3.2207459882393D-01
28  2.7000000000000D-01 -9.5149255461383D-01 -3.3428579491555D-01
29  2.8000000000000D-01 -9.8191286018305D-01 -3.4611835474215D-01
30  2.9000000000000D-01 -1.0116725019062D+00 -3.5750443177246D-01
31  3.0000000000000D-01 -1.0407290055407D+00 -3.6837323959117D-01
32  3.1000000000000D-01 -1.0690390740578D+00 -3.7865138644088D-01
33  3.2000000000000D-01 -1.0965587263974D+00 -3.8826323525846D-01
34  3.3000000000000D-01 -1.1232434480935D+00 -3.9713129423958D-01
35  3.4000000000000D-01 -1.1490483486613D+00 -4.0517662453976D-01
36  3.5000000000000D-01 -1.1739283283229D+00 -4.1231927143598D-01
37  3.6000000000000D-01 -1.1978382536580D+00 -4.1847871763303D-01
38  3.7000000000000D-01 -1.2207331391783D+00 -4.2357435067863D-01
39  3.8000000000000D-01 -1.2425683317788D+00 -4.2752593636702D-01
40  3.9000000000000D-01 -1.2632997069289D+00 -4.3025412063860D-01
41  4.0000000000000D-01 -1.2828838637597D+00 -4.3168092661325D-01
42  4.1000000000000D-01 -1.3012783232398D+00 -4.3173025728488D-01
43  4.2000000000000D-01 -1.3184417302108D+00 -4.3032840554659D-01
44  4.3000000000000D-01 -1.3343340556219D+00 -4.2740456184912D-01
45  4.4000000000000D-01 -1.3489167985604D+00 -4.2289131818297D-01
46  4.5000000000000D-01 -1.3621531869933D+00 -4.1672516533082D-01
47  4.6000000000000D-01 -1.3740083760744D+00 -4.0884698019991D-01
48  4.7000000000000D-01 -1.3844496416487D+00 -3.9920249701507D-01
49  4.8000000000000D-01 -1.3934465676152D+00 -3.8774275889306D-01
50  4.9000000000000D-01 -1.4009712442377D+00 -3.7442459171706D-01
51  5.0000000000000D-01 -1.4069984326530D+00 -3.5921098875670D-01
52  5.1000000000000D-01 -1.4115057292395D+00 -3.4207149050829D-01
53  5.2000000000000D-01 -1.4144737440154D+00 -3.2298259299875D-01
54  5.3000000000000D-01 -1.4158862522665D+00 -3.0192808337636D-01
55  5.4000000000000D-01 -1.4157302975931D+00 -2.7889925385941D-01
56  5.5000000000000D-01 -1.4139963907764D+00 -2.5389533723780D-01
57  5.6000000000000D-01 -1.4106785482332D+00 -2.2692355341345D-01
58  5.7000000000000D-01 -1.4057744649134D+00 -1.9799946660302D-01
59  5.8000000000000D-01 -1.3992855415653D+00 -1.6714699391780D-01
60  5.9000000000000D-01 -1.3912170271758D+00 -1.3439867057689D-01
61  6.0000000000000D-01 -1.3815779928906D+00 -9.9795526255793D-02
62  6.1000000000000D-01 -1.3703814810759D+00 -6.3387338971704D-02
63  6.2000000000000D-01 -1.3576444348240D+00 -2.5232400694421D-02
64  6.3000000000000D-01 -1.3433877667068D+00  1.4602427095577D-02
65  6.4000000000000D-01 -1.3276363521390D+00  5.6041833337556D-02
66  6.5000000000000D-01 -1.3104189699368D+00  9.9002287148975D-02
67  6.6000000000000D-01 -1.2917682988157D+00  1.4339217496879D-01
68  6.7000000000000D-01 -1.2717208602739D+00  1.8911205921889D-01
69  6.8000000000000D-01 -1.2503169236555D+00  2.3605500871046D-01
70  6.9000000000000D-01 -1.2276004227625D+00  2.8410691753215D-01
71  7.0000000000000D-01 -1.2036188666505D+00  3.3314687590515D-01
72  7.1000000000000D-01 -1.1784232028166D+00  3.8304761287969D-01
73  7.2000000000000D-01 -1.1520676778949D+00  4.3367595264359D-01
74  7.3000000000000D-01 -1.1246096878035D+00  4.8489331112165D-01
75  7.4000000000000D-01 -1.0961096105387D+00  5.3655622719240D-01
76  7.5000000000000D-01 -1.0666306300950D+00  5.8851690425648D-01
77  7.6000000000000D-01 -1.0362385237102D+00  6.4062389613135D-01
78  7.7000000000000D-01 -1.0050014683225D+00  6.9272264855684D-01
79  7.8000000000000D-01 -9.7298981828236D-01  7.4465617131969D-01
80  7.9000000000000D-01 -9.4027587584577D-01  7.9626570742368D-01
81  8.0000000000000D-01 -9.0693365213034D-01  8.4739141978298D-01
82  8.1000000000000D-01 -8.7303861963307D-01  8.9787309187943D-01
83  8.2000000000000D-01 -8.3866745744750D-01  9.4755083873186D-01
84  8.3000000000000D-01 -8.0389779035427D-01  9.9626582445125D-01
85  8.4000000000000D-01 -7.6880792298946D-01  1.0438609825984D+00
86  8.5000000000000D-01 -7.3347657032051D-01  1.0901817355193D+00
87  8.6000000000000D-01 -6.9798258568146D-01  1.1350767088050D+00
88  8.7000000000000D-01 -6.6240468763792D-01  1.1783984370069D+00
89  8.8000000000000D-01 -6.2682118696793D-01  1.2200040567360D+00
90  8.9000000000000D-01 -5.9130971505770D-01  1.2597559832830D+00
91  9.0000000000000D-01 -5.5594695502122D-01  1.2975225669209D+00
92  9.1000000000000D-01 -5.2080837685858D-01  1.3331787250958D+00
93  9.2000000000000D-01 -4.8596797796844D-01  1.3666065467774D+00
94  9.3000000000000D-01 -4.5149803032312D-01  1.3976958653421D+00
95  9.4000000000000D-01 -4.1746883559754D-01  1.4263447965001D+00
96  9.5000000000000D-01 -3.8394853388527D-01  1.4524601225499D+00
97  9.6000000000000D-01 -3.5100282591397D-01  1.4759578957385D+00
98  9.7000000000000D-01 -3.1869465553330D-01  1.4967641112928D+00
99  9.8000000000000D-01 -2.8708417239165D-01  1.5148146459417D+00
100  9.9000000000000D-01 -2.5622848096631D-01  1.5300557424004D+00
101  1.0000000000000D+00 -2.2618146574540D-01  1.5424442794576D+00
102  1.0100000000000D+00 -1.9699363194914D-01  1.5519479890082D+00
103  1.0200000000000D+00 -1.6871207511986D-01  1.5585453644653D+00
104  1.0300000000000D+00 -1.4138013048613D-01  1.5622263022592D+00
105  1.0400000000000D+00 -1.1503719813075D-01  1.5629922600410D+00
106  1.0500000000000D+00 -8.9718922684229D-02  1.5608556354577D+00
107  1.0600000000000D+00 -6.5457006220342D-02  1.5558399682010D+00
108  1.0700000000000D+00 -4.2279258340786D-02  1.5479796227477D+00
109  1.0800000000000D+00 -2.0209415169385D-02  1.5373199439183D+00
110  1.0900000000000D+00  7.3322021709027D-04  1.5239176078634D+00
111  1.1000000000000D+00  2.0533223560543D-02  1.5078392596225D+00
112  1.1100000000000D+00  3.9179229318791D-02  1.4891615851184D+00
113  1.1200000000000D+00  5.6663585775100D-02  1.4679705418061D+00
114  1.1300000000000D+00  7.2983395110142D-02  1.4443625111045D+00
115  1.1400000000000D+00  8.8139360837925D-02  1.4184420925304D+00
116  1.1500000000000D+00  1.0213598019766D-01  1.3903221053062D+00
117  1.1600000000000D+00  1.1498133053296D-01  1.3601231232976D+00
118  1.1700000000000D+00  1.2668777197021D-01  1.3279733402003D+00
119  1.1800000000000D+00  1.3727085843558D-01  1.2940070734890D+00
120  1.1900000000000D+00  1.4674937507541D-01  1.2583646466528D+00
121  1.2000000000000D+00  1.5514563463528D-01  1.2211917384914D+00
122  1.2100000000000D+00  1.6248508197679D-01  1.1826381174585D+00
123  1.2200000000000D+00  1.6879586463297D-01  1.1428574963135D+00
124  1.2300000000000D+00  1.7410891620501D-01  1.1020071448492D+00
125  1.2400000000000D+00  1.7845786333824D-01  1.0602452689605D+00
126  1.2500000000000D+00  1.8187846564574D-01  1.0177320907338D+00
127  1.2600000000000D+00  1.8440872046859D-01  9.7462985145750D-01
128  1.2700000000000D+00  1.8608846317958D-01  9.3109792719583D-01
129  1.2800000000000D+00  1.8695914953728D-01  8.8729616668466D-01
130  1.2900000000000D+00  1.8706395918102D-01  8.4338450926153D-01
131  1.3000000000000D+00  1.8644684742993D-01  7.9951639637598D-01
132  1.3100000000000D+00  1.8515301331938D-01  7.5584482673848D-01
133  1.3200000000000D+00  1.8322864219010D-01  7.1251968438243D-01
134  1.3300000000000D+00  1.8071972733767D-01  6.6968197278879D-01
135  1.3400000000000D+00  1.7767333604680D-01  6.2747208091229D-01
136  1.3500000000000D+00  1.7413621983864D-01  5.8602182306471D-01
137  1.3600000000000D+00  1.7015448414820D-01  5.4545434571860D-01
138  1.3700000000000D+00  1.6577532048995D-01  5.0589242281416D-01
139  1.3800000000000D+00  1.6104343810346D-01  4.6744204626691D-01
140  1.3900000000000D+00  1.5600387765414D-01  4.3020638077261D-01
141  1.4000000000000D+00  1.5070091960900D-01  3.9428036002740D-01
142  1.4100000000000D+00  1.4517607878566D-01  3.5974341513513D-01
143  1.4200000000000D+00  1.3947196844228D-01  3.2667519168753D-01
144  1.4300000000000D+00  1.3362699201660D-01  2.9513480399880D-01
145  1.4400000000000D+00  1.2767949879028D-01  2.6517773447658D-01
146  1.4500000000000D+00  1.2166586263375D-01  2.3684812781479D-01
147  1.4600000000000D+00  1.1561885971411D-01  2.1017411428488D-01
148  1.4700000000000D+00  1.0957235005649D-01  1.8518381001525D-01
149  1.4800000000000D+00  1.0355365175205D-01  1.6188002220111D-01
150  1.4900000000000D+00  9.7591666084710D-02  1.4026759879062D-01
151  1.5000000000000D+00  9.1709897318758D-02  1.2033073734422D-01
152  1.5100000000000D+00  8.5930874882396D-02  1.0204794793655D-01
153  1.5200000000000D+00  8.0274196400332D-02  8.5385113007919D-02
154  1.5300000000000D+00  7.4756230639546D-02  7.0297943715807D-02
155  1.5400000000000D+00  6.9393026950274D-02  5.6737413193828D-02
156  1.5500000000000D+00  6.4196125064909D-02  4.4644493720986D-02
157  1.5600000000000D+00  5.9178639663549D-02  3.3959605727236D-02
158  1.5700000000000D+00  5.4348312131406D-02  2.4613488692453D-02
159  1.5800000000000D+00  4.9714637385099D-02  1.6536380854646D-02
160  1.5900000000000D+00  4.5282795325650D-02  9.6521934550392D-03
161  1.6000000000000D+00  4.1058781759016D-02  3.8831951738029D-03
162  1.6100000000000D+00  3.7045531385884D-02 -8.5165236499622D-04
163  1.6200000000000D+00  3.3246097811759D-02 -4.6351090867276D-03
164  1.6300000000000D+00  2.9661449160415D-02 -7.5512207102218D-03
165  1.6400000000000D+00  2.6292294009507D-02 -9.6848969615775D-03
166  1.6500000000000D+00  2.3137945805331D-02 -1.1121086875746D-02
167  1.6600000000000D+00  2.0197347120693D-02 -1.1944191108448D-02
168  1.6700000000000D+00  1.7468503782332D-02 -1.2237809159818D-02
169  1.6800000000000D+00  1.4949124253423D-02 -1.2083491323300D-02
170  1.6900000000000D+00  1.2636283186493D-02 -1.1561123436988D-02
171  1.7000000000000D+00  1.0526918998500D-02 -1.0747450469049D-02
172  1.7100000000000D+00  8.6175692396844D-03 -9.7162268789551D-03
173  1.7200000000000D+00  6.9047853926209D-03 -8.5378639535736D-03
174  1.7300000000000D+00  5.3849626256153D-03 -7.2775916823923D-03
175  1.7400000000000D+00  4.0545623769940D-03 -5.9983930246850D-03
176  1.7500000000000D+00  2.9102104569277D-03 -4.7547087001386D-03
177  1.7600000000000D+00  1.9484924938339D-03 -3.6013980435217D-03
178  1.7700000000000D+00  1.1665879573429D-03 -2.5801121030412D-03
179  1.7800000000000D+00  5.6135163495582D-04 -1.7372064846821D-03
180  1.7900000000000D+00  1.3250282308713D-04 -1.1123458570064D-03
181  1.8000000000000D+00 -1.1722800382443D-04 -7.8215590998917D-04
182  1.8100000000000D+00 -2.1566912476033D-04 -5.6984835956729D-04
183  1.8200000000000D+00 -1.4569567096049D-04 -2.7348333746216D-04
184  1.8300000000000D+00 -2.2048062379018D-05 -3.3730269726661D-05
185  1.8400000000000D+00  1.4267663714024D-05  3.7493850563502D-05
186  1.8500000000000D+00  6.3785348077706D-06  1.6762087731404D-05
187  1.8600000000000D+00  0.0000000000000D+00  0.0000000000000D+00
188  1.8700000000000D+00  0.0000000000000D+00  0.0000000000000D+00
189  1.8800000000000D+00  0.0000000000000D+00  0.0000000000000D+00
190  1.8900000000000D+00  0.0000000000000D+00  0.0000000000000D+00
191  1.9000000000000D+00  0.0000000000000D+00  0.0000000000000D+00
192  1.9100000000000D+00  0.0000000000000D+00  0.0000000000000D+00
193  1.9200000000000D+00  0.0000000000000D+00  0.0000000000000D+00
194  1.9300000000000D+00  0.0000000000000D+00  0.0000000000000D+00
195  1.9400000000000D+00  0.0000000000000D+00  0.0000000000000D+00
196  1.9500000000000D+00  0.0000000000000D+00  0.0000000000000D+00
197  1.9600000000000D+00  0.0000000000000D+00  0.0000000000000D+00
198  1.9700000000000D+00  0.0000000000000D+00  0.0000000000000D+00
199  1.9800000000000D+00  0.0000000000000D+00  0.0000000000000D+00
200  1.9900000000000D+00  0.0000000000000D+00  0.0000000000000D+00
201  2.0000000000000D+00  0.0000000000000D+00  0.0000000000000D+00
202  2.0100000000000D+00  0.0000000000000D+00  0.0000000000000D+00
203  2.0200000000000D+00  0.0000000000000D+00  0.0000000000000D+00
204  2.0300000000000D+00  0.0000000000000D+00  0.0000000000000D+00
205  2.0400000000000D+00  0.0000000000000D+00  0.0000000000000D+00
206  2.0500000000000D+00  0.0000000000000D+00  0.0000000000000D+00
207  2.0600000000000D+00  0.0000000000000D+00  0.0000000000000D+00
208  2.0700000000000D+00  0.0000000000000D+00  0.0000000000000D+00
209  2.0800000000000D+00  0.0000000000000D+00  0.0000000000000D+00
210  2.0900000000000D+00  0.0000000000000D+00  0.0000000000000D+00
211  2.1000000000000D+00  0.0000000000000D+00  0.0000000000000D+00
212  2.1100000000000D+00  0.0000000000000D+00  0.0000000000000D+00
213  2.1200000000000D+00  0.0000000000000D+00  0.0000000000000D+00
214  2.1300000000000D+00  0.0000000000000D+00  0.0000000000000D+00
215  2.1400000000000D+00  0.0000000000000D+00  0.0000000000000D+00
216  2.1500000000000D+00  0.0000000000000D+00  0.0000000000000D+00
217  2.1600000000000D+00  0.0000000000000D+00  0.0000000000000D+00
218  2.1700000000000D+00  0.0000000000000D+00  0.0000000000000D+00
219  2.1800000000000D+00  0.0000000000000D+00  0.0000000000000D+00
220  2.1900000000000D+00  0.0000000000000D+00  0.0000000000000D+00
221  2.2000000000000D+00  0.0000000000000D+00  0.0000000000000D+00
222  2.2100000000000D+00  0.0000000000000D+00  0.0000000000000D+00
223  2.2200000000000D+00  0.0000000000000D+00  0.0000000000000D+00
224  2.2300000000000D+00  0.0000000000000D+00  0.0000000000000D+00
225  2.2400000000000D+00  0.0000000000000D+00  0.0000000000000D+00
226  2.2500000000000D+00  0.0000000000000D+00  0.0000000000000D+00
227  2.2600000000000D+00  0.0000000000000D+00  0.0000000000000D+00
228  2.2700000000000D+00  0.0000000000000D+00  0.0000000000000D+00
229  2.2800000000000D+00  0.0000000000000D+00  0.0000000000000D+00
230  2.2900000000000D+00  0.0000000000000D+00  0.0000000000000D+00
231  2.3000000000000D+00  0.0000000000000D+00  0.0000000000000D+00
232  2.3100000000000D+00  0.0000000000000D+00  0.0000000000000D+00
233  2.3200000000000D+00  0.0000000000000D+00  0.0000000000000D+00
234  2.3300000000000D+00  0.0000000000000D+00  0.0000000000000D+00
235  2.3400000000000D+00  0.0000000000000D+00  0.0000000000000D+00
236  2.3500000000000D+00  0.0000000000000D+00  0.0000000000000D+00
237  2.3600000000000D+00  0.0000000000000D+00  0.0000000000000D+00
238  2.3700000000000D+00  0.0000000000000D+00  0.0000000000000D+00
239  2.3800000000000D+00  0.0000000000000D+00  0.0000000000000D+00
240  2.3900000000000D+00  0.0000000000000D+00  0.0000000000000D+00
241  2.4000000000000D+00  0.0000000000000D+00  0.0000000000000D+00
242  2.4100000000000D+00  0.0000000000000D+00  0.0000000000000D+00
243  2.4200000000000D+00  0.0000000000000D+00  0.0000000000000D+00
244  2.4300000000000D+00  0.0000000000000D+00  0.0000000000000D+00
245  2.4400000000000D+00  0.0000000000000D+00  0.0000000000000D+00
246  2.4500000000000D+00  0.0000000000000D+00  0.0000000000000D+00
247  2.4600000000000D+00  0.0000000000000D+00  0.0000000000000D+00
248  2.4700000000000D+00  0.0000000000000D+00  0.0000000000000D+00
249  2.4800000000000D+00  0.0000000000000D+00  0.0000000000000D+00
250  2.4900000000000D+00  0.0000000000000D+00  0.0000000000000D+00
251  2.5000000000000D+00  0.0000000000000D+00  0.0000000000000D+00
252  2.5100000000000D+00  0.0000000000000D+00  0.0000000000000D+00
253  2.5200000000000D+00  0.0000000000000D+00  0.0000000000000D+00
254  2.5300000000000D+00  0.0000000000000D+00  0.0000000000000D+00
255  2.5400000000000D+00  0.0000000000000D+00  0.0000000000000D+00
256  2.5500000000000D+00  0.0000000000000D+00  0.0000000000000D+00
257  2.5600000000000D+00  0.0000000000000D+00  0.0000000000000D+00
258  2.5700000000000D+00  0.0000000000000D+00  0.0000000000000D+00
259  2.5800000000000D+00  0.0000000000000D+00  0.0000000000000D+00
260  2.5900000000000D+00  0.0000000000000D+00  0.0000000000000D+00
261  2.6000000000000D+00  0.0000000000000D+00  0.0000000000000D+00
262  2.6100000000000D+00  0.0000000000000D+00  0.0000000000000D+00
263  2.6200000000000D+00  0.0000000000000D+00  0.0000000000000D+00
264  2.6300000000000D+00  0.0000000000000D+00  0.0000000000000D+00
265  2.6400000000000D+00  0.0000000000000D+00  0.0000000000000D+00
266  2.6500000000000D+00  0.0000000000000D+00  0.0000000000000D+00
267  2.6600000000000D+00  0.0000000000000D+00  0.0000000000000D+00
268  2.6700000000000D+00  0.0000000000000D+00  0.0000000000000D+00
269  2.6800000000000D+00  0.0000000000000D+00  0.0000000000000D+00
270  2.6900000000000D+00  0.0000000000000D+00  0.0000000000000D+00
271  2.7000000000000D+00  0.0000000000000D+00  0.0000000000000D+00
272  2.7100000000000D+00  0.0000000000000D+00  0.0000000000000D+00
273  2.7200000000000D+00  0.0000000000000D+00  0.0000000000000D+00
274  2.7300000000000D+00  0.0000000000000D+00  0.0000000000000D+00
275  2.7400000000000D+00  0.0000000000000D+00  0.0000000000000D+00
276  2.7500000000000D+00  0.0000000000000D+00  0.0000000000000D+00
277  2.7600000000000D+00  0.0000000000000D+00  0.0000000000000D+00
278  2.7700000000000D+00  0.0000000000000D+00  0.0000000000000D+00
279  2.7800000000000D+00  0.0000000000000D+00  0.0000000000000D+00
280  2.7900000000000D+00  0.0000000000000D+00  0.0000000000000D+00
281  2.8000000000000D+00  0.0000000000000D+00  0.0000000000000D+00
282  2.8100000000000D+00  0.0000000000000D+00  0.0000000000000D+00
283  2.8200000000000D+00  0.0000000000000D+00  0.0000000000000D+00
284  2.8300000000000D+00  0.0000000000000D+00  0.0000000000000D+00
285  2.8400000000000D+00  0.0000000000000D+00  0.0000000000000D+00
286  2.8500000000000D+00  0.0000000000000D+00  0.0000000000000D+00
287  2.8600000000000D+00  0.0000000000000D+00  0.0000000000000D+00
288  2.8700000000000D+00  0.0000000000000D+00  0.0000000000000D+00
289  2.8800000000000D+00  0.0000000000000D+00  0.0000000000000D+00
290  2.8900000000000D+00  0.0000000000000D+00  0.0000000000000D+00
291  2.9000000000000D+00  0.0000000000000D+00  0.0000000000000D+00
292  2.9100000000000D+00  0.0000000000000D+00  0.0000000000000D+00
293  2.9200000000000D+00  0.0000000000000D+00  0.0000000000000D+00
294  2.9300000000000D+00  0.0000000000000D+00  0.0000000000000D+00
295  2.9400000000000D+00  0.0000000000000D+00  0.0000000000000D+00
296  2.9500000000000D+00  0.0000000000000D+00  0.0000000000000D+00
297  2.9600000000000D+00  0.0000000000000D+00  0.0000000000000D+00
298  2.9700000000000D+00  0.0000000000000D+00  0.0000000000000D+00
299  2.9800000000000D+00  0.0000000000000D+00  0.0000000000000D+00
300  2.9900000000000D+00  0.0000000000000D+00  0.0000000000000D+00
301  3.0000000000000D+00  0.0000000000000D+00  0.0000000000000D+00
302  3.0100000000000D+00  0.0000000000000D+00  0.0000000000000D+00
303  3.0200000000000D+00  0.0000000000000D+00  0.0000000000000D+00
304  3.0300000000000D+00  0.0000000000000D+00  0.0000000000000D+00
305  3.0400000000000D+00  0.0000000000000D+00  0.0000000000000D+00
306  3.0500000000000D+00  0.0000000000000D+00  0.0000000000000D+00
307  3.0600000000000D+00  0.0000000000000D+00  0.0000000000000D+00
308  3.0700000000000D+00  0.0000000000000D+00  0.0000000000000D+00
309  3.0800000000000D+00  0.0000000000000D+00  0.0000000000000D+00
310  3.0900000000000D+00  0.0000000000000D+00  0.0000000000000D+00
311  3.1000000000000D+00  0.0000000000000D+00  0.0000000000000D+00
312  3.1100000000000D+00  0.0000000000000D+00  0.0000000000000D+00
313  3.1200000000000D+00  0.0000000000000D+00  0.0000000000000D+00
314  3.1300000000000D+00  0.0000000000000D+00  0.0000000000000D+00
315  3.1400000000000D+00  0.0000000000000D+00  0.0000000000000D+00
316  3.1500000000000D+00  0.0000000000000D+00  0.0000000000000D+00
317  3.1600000000000D+00  0.0000000000000D+00  0.0000000000000D+00
318  3.1700000000000D+00  0.0000000000000D+00  0.0000000000000D+00
319  3.1800000000000D+00  0.0000000000000D+00  0.0000000000000D+00
320  3.1900000000000D+00  0.0000000000000D+00  0.0000000000000D+00
321  3.2000000000000D+00  0.0000000000000D+00  0.0000000000000D+00
322  3.2100000000000D+00  0.0000000000000D+00  0.0000000000000D+00
323  3.2200000000000D+00  0.0000000000000D+00  0.0000000000000D+00
324  3.2300000000000D+00  0.0000000000000D+00  0.0000000000000D+00
325  3.2400000000000D+00  0.0000000000000D+00  0.0000000000000D+00
326  3.2500000000000D+00  0.0000000000000D+00  0.0000000000000D+00
327  3.2600000000000D+00  0.0000000000000D+00  0.0000000000000D+00
328  3.2700000000000D+00  0.0000000000000D+00  0.0000000000000D+00
329  3.2800000000000D+00  0.0000000000000D+00  0.0000000000000D+00
330  3.2900000000000D+00  0.0000000000000D+00  0.0000000000000D+00
331  3.3000000000000D+00  0.0000000000000D+00  0.0000000000000D+00
332  3.3100000000000D+00  0.0000000000000D+00  0.0000000000000D+00
333  3.3200000000000D+00  0.0000000000000D+00  0.0000000000000D+00
334  3.3300000000000D+00  0.0000000000000D+00  0.0000000000000D+00
335  3.3400000000000D+00  0.0000000000000D+00  0.0000000000000D+00
336  3.3500000000000D+00  0.0000000000000D+00  0.0000000000000D+00
337  3.3600000000000D+00  0.0000000000000D+00  0.0000000000000D+00
338  3.3700000000000D+00  0.0000000000000D+00  0.0000000000000D+00
339  3.3800000000000D+00  0.0000000000000D+00  0.0000000000000D+00
340  3.3900000000000D+00  0.0000000000000D+00  0.0000000000000D+00
341  3.4000000000000D+00  0.0000000000000D+00  0.0000000000000D+00
342  3.4100000000000D+00  0.0000000000000D+00  0.0000000000000D+00
343  3.4200000000000D+00  0.0000000000000D+00  0.0000000000000D+00
344  3.4300000000000D+00  0.0000000000000D+00  0.0000000000000D+00
345  3.4400000000000D+00  0.0000000000000D+00  0.0000000000000D+00
346  3.4500000000000D+00  0.0000000000000D+00  0.0000000000000D+00
347  3.4600000000000D+00  0.0000000000000D+00  0.0000000000000D+00
348  3.4700000000000D+00  0.0000000000000D+00  0.0000000000000D+00
349  3.4800000000000D+00  0.0000000000000D+00  0.0000000000000D+00
350  3.4900000000000D+00  0.0000000000000D+00  0.0000000000000D+00
351  3.5000000000000D+00  0.0000000000000D+00  0.0000000000000D+00
352  3.5100000000000D+00  0.0000000000000D+00  0.0000000000000D+00
353  3.5200000000000D+00  0.0000000000000D+00  0.0000000000000D+00
354  3.5300000000000D+00  0.0000000000000D+00  0.0000000000000D+00
355  3.5400000000000D+00  0.0000000000000D+00  0.0000000000000D+00
356  3.5500000000000D+00  0.0000000000000D+00  0.0000000000000D+00
357  3.5600000000000D+00  0.0000000000000D+00  0.0000000000000D+00
358  3.5700000000000D+00  0.0000000000000D+00  0.0000000000000D+00
359  3.5800000000000D+00  0.0000000000000D+00  0.0000000000000D+00
360  3.5900000000000D+00  0.0000000000000D+00  0.0000000000000D+00
361  3.6000000000000D+00  0.0000000000000D+00  0.0000000000000D+00
362  3.6100000000000D+00  0.0000000000000D+00  0.0000000000000D+00
363  3.6200000000000D+00  0.0000000000000D+00  0.0000000000000D+00
364  3.6300000000000D+00  0.0000000000000D+00  0.0000000000000D+00
365  3.6400000000000D+00  0.0000000000000D+00  0.0000000000000D+00
366  3.6500000000000D+00  0.0000000000000D+00  0.0000000000000D+00
367  3.6600000000000D+00  0.0000000000000D+00  0.0000000000000D+00
368  3.6700000000000D+00  0.0000000000000D+00  0.0000000000000D+00
369  3.6800000000000D+00  0.0000000000000D+00  0.0000000000000D+00
370  3.6900000000000D+00  0.0000000000000D+00  0.0000000000000D+00
371  3.7000000000000D+00  0.0000000000000D+00  0.0000000000000D+00
372  3.7100000000000D+00  0.0000000000000D+00  0.0000000000000D+00
373  3.7200000000000D+00  0.0000000000000D+00  0.0000000000000D+00
374  3.7300000000000D+00  0.0000000000000D+00  0.0000000000000D+00
375  3.7400000000000D+00  0.0000000000000D+00  0.0000000000000D+00
376  3.7500000000000D+00  0.0000000000000D+00  0.0000000000000D+00
377  3.7600000000000D+00  0.0000000000000D+00  0.0000000000000D+00
378  3.7700000000000D+00  0.0000000000000D+00  0.0000000000000D+00
379  3.7800000000000D+00  0.0000000000000D+00  0.0000000000000D+00
380  3.7900000000000D+00  0.0000000000000D+00  0.0000000000000D+00
381  3.8000000000000D+00  0.0000000000000D+00  0.0000000000000D+00
382  3.8100000000000D+00  0.0000000000000D+00  0.0000000000000D+00
383  3.8200000000000D+00  0.0000000000000D+00  0.0000000000000D+00
384  3.8300000000000D+00  0.0000000000000D+00  0.0000000000000D+00
385  3.8400000000000D+00  0.0000000000000D+00  0.0000000000000D+00
386  3.8500000000000D+00  0.0000000000000D+00  0.0000000000000D+00
387  3.8600000000000D+00  0.0000000000000D+00  0.0000000000000D+00
388  3.8700000000000D+00  0.0000000000000D+00  0.0000000000000D+00
389  3.8800000000000D+00  0.0000000000000D+00  0.0000000000000D+00
390  3.8900000000000D+00  0.0000000000000D+00  0.0000000000000D+00
391  3.9000000000000D+00  0.0000000000000D+00  0.0000000000000D+00
392  3.9100000000000D+00  0.0000000000000D+00  0.0000000000000D+00
393  3.9200000000000D+00  0.0000000000000D+00  0.0000000000000D+00
394  3.9300000000000D+00  0.0000000000000D+00  0.0000000000000D+00
395  3.9400000000000D+00  0.0000000000000D+00  0.0000000000000D+00
396  3.9500000000000D+00  0.0000000000000D+00  0.0000000000000D+00
397  3.9600000000000D+00  0.0000000000000D+00  0.0000000000000D+00
398  3.9700000000000D+00  0.0000000000000D+00  0.0000000000000D+00
399  3.9800000000000D+00  0.0000000000000D+00  0.0000000000000D+00
400  3.9900000000000D+00  0.0000000000000D+00  0.0000000000000D+00
401  4.0000000000000D+00  0.0000000000000D+00  0.0000000000000D+00
402  4.0100000000000D+00  0.0000000000000D+00  0.0000000000000D+00
403  4.0200000000000D+00  0.0000000000000D+00  0.0000000000000D+00
404  4.0300000000000D+00  0.0000000000000D+00  0.0000000000000D+00
405  4.0400000000000D+00  0.0000000000000D+00  0.0000000000000D+00
406  4.0500000000000D+00  0.0000000000000D+00  0.0000000000000D+00
407  4.0600000000000D+00  0.0000000000000D+00  0.0000000000000D+00
408  4.0700000000000D+00  0.0000000000000D+00  0.0000000000000D+00
409  4.0800000000000D+00  0.0000000000000D+00  0.0000000000000D+00
410  4.0900000000000D+00  0.0000000000000D+00  0.0000000000000D+00
411  4.1000000000000D+00  0.0000000000000D+00  0.0000000000000D+00
412  4.1100000000000D+00  0.0000000000000D+00  0.0000000000000D+00
413  4.1200000000000D+00  0.0000000000000D+00  0.0000000000000D+00
414  4.1300000000000D+00  0.0000000000000D+00  0.0000000000000D+00
415  4.1400000000000D+00  0.0000000000000D+00  0.0000000000000D+00
416  4.1500000000000D+00  0.0000000000000D+00  0.0000000000000D+00
417  4.1600000000000D+00  0.0000000000000D+00  0.0000000000000D+00
418  4.1700000000000D+00  0.0000000000000D+00  0.0000000000000D+00
419  4.1800000000000D+00  0.0000000000000D+00  0.0000000000000D+00
420  4.1900000000000D+00  0.0000000000000D+00  0.0000000000000D+00
421  4.2000000000000D+00  0.0000000000000D+00  0.0000000000000D+00
422  4.2100000000000D+00  0.0000000000000D+00  0.0000000000000D+00
423  4.2200000000000D+00  0.0000000000000D+00  0.0000000000000D+00
424  4.2300000000000D+00  0.0000000000000D+00  0.0000000000000D+00
425  4.2400000000000D+00  0.0000000000000D+00  0.0000000000000D+00
426  4.2500000000000D+00  0.0000000000000D+00  0.0000000000000D+00
427  4.2600000000000D+00  0.0000000000000D+00  0.0000000000000D+00
428  4.2700000000000D+00  0.0000000000000D+00  0.0000000000000D+00
429  4.2800000000000D+00  0.0000000000000D+00  0.0000000000000D+00
430  4.2900000000000D+00  0.0000000000000D+00  0.0000000000000D+00
431  4.3000000000000D+00  0.0000000000000D+00  0.0000000000000D+00
432  4.3100000000000D+00  0.0000000000000D+00  0.0000000000000D+00
433  4.3200000000000D+00  0.0000000000000D+00  0.0000000000000D+00
434  4.3300000000000D+00  0.0000000000000D+00  0.0000000000000D+00
435  4.3400000000000D+00  0.0000000000000D+00  0.0000000000000D+00
436  4.3500000000000D+00  0.0000000000000D+00  0.0000000000000D+00
437  4.3600000000000D+00  0.0000000000000D+00  0.0000000000000D+00
438  4.3700000000000D+00  0.0000000000000D+00  0.0000000000000D+00
439  4.3800000000000D+00  0.0000000000000D+00  0.0000000000000D+00
440  4.3900000000000D+00  0.0000000000000D+00  0.0000000000000D+00
441  4.4000000000000D+00  0.0000000000000D+00  0.0000000000000D+00
442  4.4100000000000D+00  0.0000000000000D+00  0.0000000000000D+00
443  4.4200000000000D+00  0.0000000000000D+00  0.0000000000000D+00
444  4.4300000000000D+00  0.0000000000000D+00  0.0000000000000D+00