Br    ONCVPSP  r_core=  1.81  1.51  2.02
35.0000      7.0000      140909    zatom,zion,pspd
8    11     2     4   601     0    pspcod,pspxc,lmax,lloc,mmax,r2well
6.00000000  0.90000000  0.00000000    rchrg fchrg qchrg
2     2     2     0     0    nproj
0                 extension_switch
0                         8.0497138332259D+00  7.8524623393820D-01
1  0.0000000000000D+00 -0.0000000000000D+00 -0.0000000000000D+00
2  1.0000000000000D-02 -3.5544198666210D-02 -8.3239842694307D-03
3  2.0000000000000D-02 -7.1080553551088D-02 -1.6692411434252D-02
4  3.0000000000000D-02 -1.0660104231772D-01 -2.5148930607089D-02
5  4.0000000000000D-02 -1.4209728754019D-01 -3.3735613282901D-02
6  5.0000000000000D-02 -1.7756038419071D-01 -4.2492189272142D-02
7  6.0000000000000D-02 -2.1298073309857D-01 -5.1455311969944D-02
8  7.0000000000000D-02 -2.4834788226139D-01 -6.0657862149763D-02
9  8.0000000000000D-02 -2.8365037779860D-01 -7.0128298984136D-02
10  9.0000000000000D-02 -3.1887562622155D-01 -7.9890066378567D-02
11  1.0000000000000D-01 -3.5400976956522D-01 -8.9961062009435D-02
12  1.1000000000000D-01 -3.8903757477490D-01 -1.0035317564773D-01
13  1.2000000000000D-01 -4.2394233857364D-01 -1.1107190245732D-01
14  1.3000000000000D-01 -4.5870580885697D-01 -1.2211603600072D-01
15  1.4000000000000D-01 -4.9330812348454D-01 -1.3347744472320D-01
16  1.5000000000000D-01 -5.2772776709484D-01 -1.4514093445129D-01
17  1.6000000000000D-01 -5.6194154643727D-01 -1.5708419863271D-01
18  1.7000000000000D-01 -5.9592458440738D-01 -1.6927785656770D-01
19  1.8000000000000D-01 -6.2965033286391D-01 -1.8168557912604D-01
20  1.9000000000000D-01 -6.6309060400590D-01 -1.9426430007690D-01
21  2.0000000000000D-01 -6.9621561991774D-01 -2.0696450999098D-01
22  2.1000000000000D-01 -7.2899407975378D-01 -2.1973062941129D-01
23  2.2000000000000D-01 -7.6139324367187D-01 -2.3250145543602D-01
24  2.3000000000000D-01 -7.9337903266922D-01 -2.4521067682515D-01
25  2.4000000000000D-01 -8.2491614295504D-01 -2.5778744952618D-01
26  2.5000000000000D-01 -8.5596817431081D-01 -2.7015702908281D-01
27  2.6000000000000D-01 -8.8649776937514D-01 -2.8224144317252D-01
28  2.7000000000000D-01 -9.1646676498953D-01 -2.9396020943473D-01
29  2.8000000000000D-01 -9.4583635090871D-01 -3.0523107370971D-01
30  2.9000000000000D-01 -9.7456723658277D-01 -3.1597077155250D-01
31  3.0000000000000D-01 -1.0026198232149D+00 -3.2609579801668D-01
32  3.1000000000000D-01 -1.0299543794931D+00 -3.3552317693091D-01
33  3.2000000000000D-01 -1.0565312182198D+00 -3.4417121563580D-01
34  3.3000000000000D-01 -1.0823108761370D+00 -3.5196025408178D-01
35  3.4000000000000D-01 -1.1072542883253D+00 -3.5881336780734D-01
36  3.5000000000000D-01 -1.1313229610882D+00 -3.6465704196945D-01
37  3.6000000000000D-01 -1.1544791414359D+00 -3.6942180573757D-01
38  3.7000000000000D-01 -1.1766859790667D+00 -3.7304280857249D-01
39  3.8000000000000D-01 -1.1979076775499D+00 -3.7546032474202D-01
40  3.9000000000000D-01 -1.2181096442522D+00 -3.7662022318397D-01
41  4.0000000000000D-01 -1.2372586244911D+00 -3.7647434325984D-01
42  4.1000000000000D-01 -1.2553228254554D+00 -3.7498079965310D-01
43  4.2000000000000D-01 -1.2722720305749D+00 -3.7210421802348D-01
44  4.3000000000000D-01 -1.2880777011425D+00 -3.6781588947400D-01
45  4.4000000000000D-01 -1.3027130655643D+00 -3.6209384610332D-01
46  4.5000000000000D-01 -1.3161531960768D+00 -3.5492285817038D-01
47  4.6000000000000D-01 -1.3283750729193D+00 -3.4629435441290D-01
48  4.7000000000000D-01 -1.3393576354852D+00 -3.3620626709831D-01
49  4.8000000000000D-01 -1.3490818211591D+00 -3.2466280838751D-01
50  4.9000000000000D-01 -1.3575306009517D+00 -3.1167419165434D-01
51  5.0000000000000D-01 -1.3646889896806D+00 -2.9725626664291D-01
52  5.1000000000000D-01 -1.3705440526129D+00 -2.8143012313693D-01
53  5.2000000000000D-01 -1.3750849122498D+00 -2.6422164819808D-01
54  5.3000000000000D-01 -1.3783027376661D+00 -2.4566102557532D-01
55  5.4000000000000D-01 -1.3801907176780D+00 -2.2578224611165D-01
56  5.5000000000000D-01 -1.3807440614294D+00 -2.0462252344284D-01
57  5.6000000000000D-01 -1.3799599501033D+00 -1.8222180480138D-01
58  5.7000000000000D-01 -1.3778375276790D+00 -1.5862215186934D-01
59  5.8000000000000D-01 -1.3743778564770D+00 -1.3386727258806D-01
60  5.9000000000000D-01 -1.3695839007734D+00 -1.0800188646747D-01
61  6.0000000000000D-01 -1.3634604830658D+00 -8.1071379396963D-02
62  6.1000000000000D-01 -1.3560142727862D+00 -5.3121113961433D-02
63  6.2000000000000D-01 -1.3472537489620D+00 -2.4196219287622D-02
64  6.3000000000000D-01 -1.3371891879354D+00  5.6589226310636D-03
65  6.4000000000000D-01 -1.3258326479665D+00  3.6401011033964D-02
66  6.5000000000000D-01 -1.3131979567516D+00  6.7987971791691D-02
67  6.6000000000000D-01 -1.2993007118416D+00  1.0037926694136D-01
68  6.7000000000000D-01 -1.2841582846805D+00  1.3353603295956D-01
69  6.8000000000000D-01 -1.2677898290703D+00  1.6742105177960D-01
70  6.9000000000000D-01 -1.2502162977895D+00  2.0199874090523D-01
71  7.0000000000000D-01 -1.2314604704894D+00  2.3723515476007D-01
72  7.1000000000000D-01 -1.2115469823799D+00  2.7309775677942D-01
73  7.2000000000000D-01 -1.1905023587921D+00  3.0955516675167D-01
74  7.3000000000000D-01 -1.1683550566547D+00  3.4657687482772D-01
75  7.4000000000000D-01 -1.1451355088273D+00  3.8413287451287D-01
76  7.5000000000000D-01 -1.1208761687334D+00  4.2219324107006D-01
77  7.6000000000000D-01 -1.0956115703187D+00  4.6072765927310D-01
78  7.7000000000000D-01 -1.0693783662944D+00  4.9970488292907D-01
79  7.8000000000000D-01 -1.0422153792100D+00  5.3909219076583D-01
80  7.9000000000000D-01 -1.0141636460564D+00  5.7885480629126D-01
81  8.0000000000000D-01 -9.8526645802238D-01  6.1895530212756D-01
82  8.1000000000000D-01 -9.5556939360111D-01  6.5935299949967D-01
83  8.2000000000000D-01 -9.2512034321603D-01  7.0000337393461D-01
84  8.3000000000000D-01 -8.9396952353028D-01  7.4085747845164D-01
85  8.4000000000000D-01 -8.6216947963052D-01  7.8186139559142D-01
86  8.5000000000000D-01 -8.2977507332770D-01  8.2295572954721D-01
87  8.6000000000000D-01 -7.9684345589794D-01  8.6407514942394D-01
88  8.7000000000000D-01 -7.6343402369415D-01  9.0514799426360D-01
89  8.8000000000000D-01 -7.2960835519496D-01  9.4609594993630D-01
90  8.9000000000000D-01 -6.9543012822190D-01  9.8683380730641D-01
91  9.0000000000000D-01 -6.6096501624935D-01  1.0272693102343D+00
92  9.1000000000000D-01 -6.2628056295697D-01  1.0673031009639D+00
93  9.2000000000000D-01 -5.9144603443100D-01  1.1068287692617D+00
94  9.3000000000000D-01 -5.5653224871061D-01  1.1457330103151D+00
95  9.4000000000000D-01 -5.2161138269804D-01  1.1838958948508D+00
96  9.5000000000000D-01 -4.8675677181585D-01  1.2211912709284D+00
97  9.6000000000000D-01 -4.5204266651189D-01  1.2574871980095D+00
98  9.7000000000000D-01 -4.1754392481865D-01  1.2926465715892D+00
99  9.8000000000000D-01 -3.8333578610640D-01  1.3265279284969D+00
100  9.9000000000000D-01 -3.4949355536011D-01  1.3589862465004D+00
101  1.0000000000000D+00 -3.1609228822600D-01  1.3898738831079D+00
102  1.0100000000000D+00 -2.8320646243881D-01  1.4190416050151D+00
103  1.0200000000000D+00 -2.5090972942917D-01  1.4463395315832D+00
104  1.0300000000000D+00 -2.1927442023056D-01  1.4716185009531D+00
105  1.0400000000000D+00 -1.8837107863270D-01  1.4947316482962D+00
106  1.0500000000000D+00 -1.5826831699763D-01  1.5155353186870D+00
107  1.0600000000000D+00 -1.2903237404811D-01  1.5338905254929D+00
108  1.0700000000000D+00 -1.0072689218290D-01  1.5496639454658D+00
109  1.0800000000000D+00 -7.3412447646575D-02  1.5627294980055D+00
110  1.0900000000000D+00 -4.7145690780903D-02  1.5729711737556D+00
111  1.1000000000000D+00 -2.1979689754018D-02  1.5802826240210D+00
112  1.1100000000000D+00  2.0365962998569D-03  1.5845689457654D+00
113  1.1200000000000D+00  2.4858007595299D-02  1.5857460390916D+00
114  1.1300000000000D+00  4.6445379694515D-02  1.5837475250756D+00
115  1.1400000000000D+00  6.6764047449640D-02  1.5785207171424D+00
116  1.1500000000000D+00  8.5784432133828D-02  1.5700285679522D+00
117  1.1600000000000D+00  1.0348181597573D-01  1.5582491188149D+00
118  1.1700000000000D+00  1.1983858716634D-01  1.5431829545934D+00
119  1.1800000000000D+00  1.3484218870830D-01  1.5248468710778D+00
120  1.1900000000000D+00  1.4848531399333D-01  1.5032745266336D+00
121  1.2000000000000D+00  1.6076728710423D-01  1.4785210819488D+00
122  1.2100000000000D+00  1.7169378640106D-01  1.4506624193929D+00
123  1.2200000000000D+00  1.8127563830715D-01  1.4197911554762D+00
124  1.2300000000000D+00  1.8952934399068D-01  1.3860184059165D+00
125  1.2400000000000D+00  1.9647849914236D-01  1.3494783680795D+00
126  1.2500000000000D+00  2.0215132150555D-01  1.3103200623871D+00
127  1.2600000000000D+00  2.0658099671747D-01  1.2687085313948D+00
128  1.2700000000000D+00  2.0980741715309D-01  1.2248299697591D+00
129  1.2800000000000D+00  2.1187433069775D-01  1.1788823959855D+00
130  1.2900000000000D+00  2.1282995197296D-01  1.1310777499423D+00
131  1.3000000000000D+00  2.1272774298337D-01  1.0816430246253D+00
132  1.3100000000000D+00  2.1162420907013D-01  1.0308138117697D+00
133  1.3200000000000D+00  2.0957968792367D-01  9.7883648844407D-01
134  1.3300000000000D+00  2.0665760038323D-01  9.2596374608659D-01
135  1.3400000000000D+00  2.0292384137429D-01  8.7245466434220D-01
136  1.3500000000000D+00  1.9844666513112D-01  8.1857196368486D-01
137  1.3600000000000D+00  1.9329535238093D-01  7.6457682333968D-01
138  1.3700000000000D+00  1.8754154013805D-01  7.1073643673905D-01
139  1.3800000000000D+00  1.8125597027616D-01  6.5730662915373D-01
140  1.3900000000000D+00  1.7451029866679D-01  6.0454290015038D-01
141  1.4000000000000D+00  1.6737638192341D-01  5.5269609615199D-01
142  1.4100000000000D+00  1.5992301234953D-01  5.0199755760418D-01
143  1.4200000000000D+00  1.5222095293741D-01  4.5268329881355D-01
144  1.4300000000000D+00  1.4433542640583D-01  4.0495872440208D-01
145  1.4400000000000D+00  1.3633156148666D-01  3.5902478571712D-01
146  1.4500000000000D+00  1.2827178713688D-01  3.1506556292970D-01
147  1.4600000000000D+00  1.2021255827905D-01  2.7323436447640D-01
148  1.4700000000000D+00  1.1221232779401D-01  2.3368913057093D-01
149  1.4800000000000D+00  1.0431821228021D-01  1.9653384680720D-01
150  1.4900000000000D+00  9.6580015729978D-02  1.6188047723635D-01
151  1.5000000000000D+00  8.9037868902019D-02  1.2979506085296D-01
152  1.5100000000000D+00  8.1729915346006D-02  1.0033179217076D-01
153  1.5200000000000D+00  7.4689032780483D-02  7.3518167415231D-02
154  1.5300000000000D+00  6.7941213412346D-02  4.9351161288427D-02
155  1.5400000000000D+00  6.1511988843447D-02  2.7821458725012D-02
156  1.5500000000000D+00  5.5416321203483D-02  8.8772267830014D-03
157  1.5600000000000D+00  4.9672610732882D-02 -7.5245433795695D-03
158  1.5700000000000D+00  4.4286432589142D-02 -2.1476139276040D-02
159  1.5800000000000D+00  3.9267232854433D-02 -3.3059666587534D-02
160  1.5900000000000D+00  3.4613935305643D-02 -4.2396296592151D-02
161  1.6000000000000D+00  3.0327156499964D-02 -4.9604670367307D-02
162  1.6100000000000D+00  2.6399936689580D-02 -5.4830370931312D-02
163  1.6200000000000D+00  2.2825397907874D-02 -5.8221210369712D-02
164  1.6300000000000D+00  1.9591491040298D-02 -5.9942305926794D-02
165  1.6400000000000D+00  1.6685467084027D-02 -6.0162070687726D-02
166  1.6500000000000D+00  1.4091177846663D-02 -5.9059254133911D-02
167  1.6600000000000D+00  1.1791730033152D-02 -5.6813925669146D-02
168  1.6700000000000D+00  9.7680687913073D-03 -5.3611533842548D-02
169  1.6800000000000D+00  8.0008602274881D-03 -4.9635097107963D-02
170  1.6900000000000D+00  6.4695183644417D-03 -4.5068909523290D-02
171  1.7000000000000D+00  5.1538405876610D-03 -4.0091000822115D-02
172  1.7100000000000D+00  4.0332252962044D-03 -3.4875964018642D-02
173  1.7200000000000D+00  3.0879556955913D-03 -2.9590091252580D-02
174  1.7300000000000D+00  2.2990021841377D-03 -2.4389386399032D-02
175  1.7400000000000D+00  1.6482164796140D-03 -1.9423106434720D-02
176  1.7500000000000D+00  1.1197056061144D-03 -1.4819930231435D-02
177  1.7600000000000D+00  6.9768631054230D-04 -1.0708286787321D-02
178  1.7700000000000D+00  3.7081838812236D-04 -7.1816033646584D-03
179  1.7800000000000D+00  1.2622749413500D-04 -4.3449931568413D-03
180  1.7900000000000D+00 -4.2022471594542D-05 -2.2759182644796D-03
181  1.8000000000000D+00 -1.4434495736081D-04 -1.1351529257208D-03
182  1.8100000000000D+00 -1.7618531319706D-04 -5.3884896201272D-04
183  1.8200000000000D+00 -1.0756842510447D-04 -1.6529937405096D-04
184  1.8300000000000D+00 -1.5491713104604D-05 -1.1367547845258D-05
185  1.8400000000000D+00  1.1634529177137D-05  3.5282763982884D-05
186  1.8500000000000D+00  5.2013595789653D-06  1.5773594240098D-05
187  1.8600000000000D+00  0.0000000000000D+00  0.0000000000000D+00
188  1.8700000000000D+00  0.0000000000000D+00  0.0000000000000D+00
189  1.8800000000000D+00  0.0000000000000D+00  0.0000000000000D+00
190  1.8900000000000D+00  0.0000000000000D+00  0.0000000000000D+00
191  1.9000000000000D+00  0.0000000000000D+00  0.0000000000000D+00
192  1.9100000000000D+00  0.0000000000000D+00  0.0000000000000D+00
193  1.9200000000000D+00  0.0000000000000D+00  0.0000000000000D+00
194  1.9300000000000D+00  0.0000000000000D+00  0.0000000000000D+00
195  1.9400000000000D+00  0.0000000000000D+00  0.0000000000000D+00
196  1.9500000000000D+00  0.0000000000000D+00  0.0000000000000D+00
197  1.9600000000000D+00  0.0000000000000D+00  0.0000000000000D+00
198  1.9700000000000D+00  0.0000000000000D+00  0.0000000000000D+00
199  1.9800000000000D+00  0.0000000000000D+00  0.0000000000000D+00
200  1.9900000000000D+00  0.0000000000000D+00  0.0000000000000D+00
201  2.0000000000000D+00  0.0000000000000D+00  0.0000000000000D+00
202  2.0100000000000D+00  0.0000000000000D+00  0.0000000000000D+00
203  2.0200000000000D+00  0.0000000000000D+00  0.0000000000000D+00
204  2.0300000000000D+00  0.0000000000000D+00  0.0000000000000D+00
205  2.0400000000000D+00  0.0000000000000D+00  0.0000000000000D+00
206  2.0500000000000D+00  0.0000000000000D+00  0.0000000000000D+00
207  2.0600000000000D+00  0.0000000000000D+00  0.0000000000000D+00
208  2.0700000000000D+00  0.0000000000000D+00  0.0000000000000D+00
209  2.0800000000000D+00  0.0000000000000D+00  0.0000000000000D+00
210  2.0900000000000D+00  0.0000000000000D+00  0.0000000000000D+00
211  2.1000000000000D+00  0.0000000000000D+00  0.0000000000000D+00
212  2.1100000000000D+00  0.0000000000000D+00  0.0000000000000D+00
213  2.1200000000000D+00  0.0000000000000D+00  0.0000000000000D+00
214  2.1300000000000D+00  0.0000000000000D+00  0.0000000000000D+00
215  2.1400000000000D+00  0.0000000000000D+00  0.0000000000000D+00
216  2.1500000000000D+00  0.0000000000000D+00  0.0000000000000D+00
217  2.1600000000000D+00  0.0000000000000D+00  0.0000000000000D+00
218  2.1700000000000D+00  0.0000000000000D+00  0.0000000000000D+00
219  2.1800000000000D+00  0.0000000000000D+00  0.0000000000000D+00
220  2.1900000000000D+00  0.0000000000000D+00  0.0000000000000D+00
221  2.2000000000000D+00  0.0000000000000D+00  0.0000000000000D+00
222  2.2100000000000D+00  0.0000000000000D+00  0.0000000000000D+00
223  2.2200000000000D+00  0.0000000000000D+00  0.0000000000000D+00
224  2.2300000000000D+00  0.0000000000000D+00  0.0000000000000D+00
225  2.2400000000000D+00  0.0000000000000D+00  0.0000000000000D+00
226  2.2500000000000D+00  0.0000000000000D+00  0.0000000000000D+00
227  2.2600000000000D+00  0.0000000000000D+00  0.0000000000000D+00
228  2.2700000000000D+00  0.0000000000000D+00  0.0000000000000D+00
229  2.2800000000000D+00  0.0000000000000D+00  0.0000000000000D+00
230  2.2900000000000D+00  0.0000000000000D+00  0.0000000000000D+00
231  2.3000000000000D+00  0.0000000000000D+00  0.0000000000000D+00
232  2.3100000000000D+00  0.0000000000000D+00  0.0000000000000D+00
233  2.3200000000000D+00  0.0000000000000D+00  0.0000000000000D+00
234  2.3300000000000D+00  0.0000000000000D+00  0.0000000000000D+00
235  2.3400000000000D+00  0.0000000000000D+00  0.0000000000000D+00
236  2.3500000000000D+00  0.0000000000000D+00  0.0000000000000D+00
237  2.3600000000000D+00  0.0000000000000D+00  0.0000000000000D+00
238  2.3700000000000D+00  0.0000000000000D+00  0.0000000000000D+00
239  2.3800000000000D+00  0.0000000000000D+00  0.0000000000000D+00
240  2.3900000000000D+00  0.0000000000000D+00  0.0000000000000D+00
241  2.4000000000000D+00  0.0000000000000D+00  0.0000000000000D+00
242  2.4100000000000D+00  0.0000000000000D+00  0.0000000000000D+00
243  2.4200000000000D+00  0.0000000000000D+00  0.0000000000000D+00
244  2.4300000000000D+00  0.0000000000000D+00  0.0000000000000D+00
245  2.4400000000000D+00  0.0000000000000D+00  0.0000000000000D+00
246  2.4500000000000D+00  0.0000000000000D+00  0.0000000000000D+00
247  2.4600000000000D+00  0.0000000000000D+00  0.0000000000000D+00
248  2.4700000000000D+00  0.0000000000000D+00  0.0000000000000D+00
249  2.4800000000000D+00  0.0000000000000D+00  0.0000000000000D+00
250  2.4900000000000D+00  0.0000000000000D+00  0.0000000000000D+00
251  2.5000000000000D+00  0.0000000000000D+00  0.0000000000000D+00
252  2.5100000000000D+00  0.0000000000000D+00  0.0000000000000D+00
253  2.5200000000000D+00  0.0000000000000D+00  0.0000000000000D+00
254  2.5300000000000D+00  0.0000000000000D+00  0.0000000000000D+00
255  2.5400000000000D+00  0.0000000000000D+00  0.0000000000000D+00
256  2.5500000000000D+00  0.0000000000000D+00  0.0000000000000D+00
257  2.5600000000000D+00  0.0000000000000D+00  0.0000000000000D+00
258  2.5700000000000D+00  0.0000000000000D+00  0.0000000000000D+00
259  2.5800000000000D+00  0.0000000000000D+00  0.0000000000000D+00
260  2.5900000000000D+00  0.0000000000000D+00  0.0000000000000D+00
261  2.6000000000000D+00  0.0000000000000D+00  0.0000000000000D+00
262  2.6100000000000D+00  0.0000000000000D+00  0.0000000000000D+00
263  2.6200000000000D+00  0.0000000000000D+00  0.0000000000000D+00
264  2.6300000000000D+00  0.0000000000000D+00  0.0000000000000D+00
265  2.6400000000000D+00  0.0000000000000D+00  0.0000000000000D+00
266  2.6500000000000D+00  0.0000000000000D+00  0.0000000000000D+00
267  2.6600000000000D+00  0.0000000000000D+00  0.0000000000000D+00
268  2.6700000000000D+00  0.0000000000000D+00  0.0000000000000D+00
269  2.6800000000000D+00  0.0000000000000D+00  0.0000000000000D+00
270  2.6900000000000D+00  0.0000000000000D+00  0.0000000000000D+00
271  2.7000000000000D+00  0.0000000000000D+00  0.0000000000000D+00
272  2.7100000000000D+00  0.0000000000000D+00  0.0000000000000D+00
273  2.7200000000000D+00  0.0000000000000D+00  0.0000000000000D+00
274  2.7300000000000D+00  0.0000000000000D+00  0.0000000000000D+00
275  2.7400000000000D+00  0.0000000000000D+00  0.0000000000000D+00
276  2.7500000000000D+00  0.0000000000000D+00  0.0000000000000D+00
277  2.7600000000000D+00  0.0000000000000D+00  0.0000000000000D+00
278  2.7700000000000D+00  0.0000000000000D+00  0.0000000000000D+00
279  2.7800000000000D+00  0.0000000000000D+00  0.0000000000000D+00
280  2.7900000000000D+00  0.0000000000000D+00  0.0000000000000D+00
281  2.8000000000000D+00  0.0000000000000D+00  0.0000000000000D+00
282  2.8100000000000D+00  0.0000000000000D+00  0.0000000000000D+00
283  2.8200000000000D+00  0.0000000000000D+00  0.0000000000000D+00
284  2.8300000000000D+00  0.0000000000000D+00  0.0000000000000D+00
285  2.8400000000000D+00  0.0000000000000D+00  0.0000000000000D+00
286  2.8500000000000D+00  0.0000000000000D+00  0.0000000000000D+00
287  2.8600000000000D+00  0.0000000000000D+00  0.0000000000000D+00
288  2.8700000000000D+00  0.0000000000000D+00  0.0000000000000D+00
289  2.8800000000000D+00  0.0000000000000D+00  0.0000000000000D+00
290  2.8900000000000D+00  0.0000000000000D+00  0.0000000000000D+00
291  2.9000000000000D+00  0.0000000000000D+00  0.0000000000000D+00
292  2.9100000000000D+00  0.0000000000000D+00  0.0000000000000D+00
293  2.9200000000000D+00  0.0000000000000D+00  0.0000000000000D+00
294  2.9300000000000D+00  0.0000000000000D+00  0.0000000000000D+00
295  2.9400000000000D+00  0.0000000000000D+00  0.0000000000000D+00
296  2.9500000000000D+00  0.0000000000000D+00  0.0000000000000D+00
297  2.9600000000000D+00  0.0000000000000D+00  0.0000000000000D+00
298  2.9700000000000D+00  0.0000000000000D+00  0.0000000000000D+00
299  2.9800000000000D+00  0.0000000000000D+00  0.0000000000000D+00
300  2.9900000000000D+00  0.0000000000000D+00  0.0000000000000D+00
301  3.0000000000000D+00  0.0000000000000D+00  0.0000000000000D+00
302  3.0100000000000D+00  0.0000000000000D+00  0.0000000000000D+00
303  3.0200000000000D+00  0.0000000000000D+00  0.0000000000000D+00
304  3.0300000000000D+00  0.0000000000000D+00  0.0000000000000D+00
305  3.0400000000000D+00  0.0000000000000D+00  0.0000000000000D+00
306  3.0500000000000D+00  0.0000000000000D+00  0.0000000000000D+00
307  3.0600000000000D+00  0.0000000000000D+00  0.0000000000000D+00
308  3.0700000000000D+00  0.0000000000000D+00  0.0000000000000D+00
309  3.0800000000000D+00  0.0000000000000D+00  0.0000000000000D+00
310  3.0900000000000D+00  0.0000000000000D+00  0.0000000000000D+00
311  3.1000000000000D+00  0.0000000000000D+00  0.0000000000000D+00
312  3.1100000000000D+00  0.0000000000000D+00  0.0000000000000D+00
313  3.1200000000000D+00  0.0000000000000D+00  0.0000000000000D+00
314  3.1300000000000D+00  0.0000000000000D+00  0.0000000000000D+00
315  3.1400000000000D+00  0.0000000000000D+00  0.0000000000000D+00
316  3.1500000000000D+00  0.0000000000000D+00  0.0000000000000D+00
317  3.1600000000000D+00  0.0000000000000D+00  0.0000000000000D+00
318  3.1700000000000D+00  0.0000000000000D+00  0.0000000000000D+00
319  3.1800000000000D+00  0.0000000000000D+00  0.0000000000000D+00
320  3.1900000000000D+00  0.0000000000000D+00  0.0000000000000D+00
321  3.2000000000000D+00  0.0000000000000D+00  0.0000000000000D+00
322  3.2100000000000D+00  0.0000000000000D+00  0.0000000000000D+00
323  3.2200000000000D+00  0.0000000000000D+00  0.0000000000000D+00
324  3.2300000000000D+00  0.0000000000000D+00  0.0000000000000D+00
325  3.2400000000000D+00  0.0000000000000D+00  0.0000000000000D+00
326  3.2500000000000D+00  0.0000000000000D+00  0.0000000000000D+00
327  3.2600000000000D+00  0.0000000000000D+00  0.0000000000000D+00
328  3.2700000000000D+00  0.0000000000000D+00  0.0000000000000D+00
329  3.2800000000000D+00  0.0000000000000D+00  0.0000000000000D+00
330  3.2900000000000D+00  0.0000000000000D+00  0.0000000000000D+00
331  3.3000000000000D+00  0.0000000000000D+00  0.0000000000000D+00
332  3.3100000000000D+00  0.0000000000000D+00  0.0000000000000D+00
333  3.3200000000000D+00  0.0000000000000D+00  0.0000000000000D+00
334  3.3300000000000D+00  0.0000000000000D+00  0.0000000000000D+00
335  3.3400000000000D+00  0.0000000000000D+00  0.0000000000000D+00
336  3.3500000000000D+00  0.0000000000000D+00  0.0000000000000D+00
337  3.3600000000000D+00  0.0000000000000D+00  0.0000000000000D+00
338  3.3700000000000D+00  0.0000000000000D+00  0.0000000000000D+00
339  3.3800000000000D+00  0.0000000000000D+00  0.0000000000000D+00
340  3.3900000000000D+00  0.0000000000000D+00  0.0000000000000D+00
341  3.4000000000000D+00  0.0000000000000D+00  0.0000000000000D+00
342  3.4100000000000D+00  0.0000000000000D+00  0.0000000000000D+00
343  3.4200000000000D+00  0.0000000000000D+00  0.0000000000000D+00
344  3.4300000000000D+00  0.0000000000000D+00  0.0000000000000D+00
345  3.4400000000000D+00  0.0000000000000D+00  0.0000000000000D+00
346  3.4500000000000D+00  0.0000000000000D+00  0.0000000000000D+00
347  3.4600000000000D+00  0.0000000000000D+00  0.0000000000000D+00
348  3.4700000000000D+00  0.0000000000000D+00  0.0000000000000D+00
349  3.4800000000000D+00  0.0000000000000D+00  0.0000000000000D+00
350  3.4900000000000D+00  0.0000000000000D+00  0.0000000000000D+00
351  3.5000000000000D+00  0.0000000000000D+00  0.0000000000000D+00
352  3.5100000000000D+00  0.0000000000000D+00  0.0000000000000D+00
353  3.5200000000000D+00  0.0000000000000D+00  0.0000000000000D+00
354  3.5300000000000D+00  0.0000000000000D+00  0.0000000000000D+00
355  3.5400000000000D+00  0.0000000000000D+00  0.0000000000000D+00
356  3.5500000000000D+00  0.0000000000000D+00  0.0000000000000D+00
357  3.5600000000000D+00  0.0000000000000D+00  0.0000000000000D+00
358  3.5700000000000D+00  0.0000000000000D+00  0.0000000000000D+00
359  3.5800000000000D+00  0.0000000000000D+00  0.0000000000000D+00
360  3.5900000000000D+00  0.0000000000000D+00  0.0000000000000D+00
361  3.6000000000000D+00  0.0000000000000D+00  0.0000000000000D+00
362  3.6100000000000D+00  0.0000000000000D+00  0.0000000000000D+00
363  3.6200000000000D+00  0.0000000000000D+00  0.0000000000000D+00
364  3.6300000000000D+00  0.0000000000000D+00  0.0000000000000D+00
365  3.6400000000000D+00  0.0000000000000D+00  0.0000000000000D+00
366  3.6500000000000D+00  0.0000000000000D+00  0.0000000000000D+00
367  3.6600000000000D+00  0.0000000000000D+00  0.0000000000000D+00
368  3.6700000000000D+00  0.0000000000000D+00  0.0000000000000D+00
369  3.6800000000000D+00  0.0000000000000D+00  0.0000000000000D+00
370  3.6900000000000D+00  0.0000000000000D+00  0.0000000000000D+00
371  3.7000000000000D+00  0.0000000000000D+00  0.0000000000000D+00
372  3.7100000000000D+00  0.0000000000000D+00  0.0000000000000D+00
373  3.7200000000000D+00  0.0000000000000D+00  0.0000000000000D+00
374  3.7300000000000D+00  0.0000000000000D+00  0.0000000000000D+00
375  3.7400000000000D+00  0.0000000000000D+00  0.0000000000000D+00
376  3.7500000000000D+00  0.0000000000000D+00  0.0000000000000D+00
377  3.7600000000000D+00  0.0000000000000D+00  0.0000000000000D+00
378  3.7700000000000D+00  0.0000000000000D+00  0.0000000000000D+00
379  3.7800000000000D+00  0.0000000000000D+00  0.0000000000000D+00
380  3.7900000000000D+00  0.0000000000000D+00  0.0000000000000D+00
381  3.8000000000000D+00  0.0000000000000D+00  0.0000000000000D+00
382  3.8100000000000D+00  0.0000000000000D+00  0.0000000000000D+00
383  3.8200000000000D+00  0.0000000000000D+00  0.0000000000000D+00
384  3.8300000000000D+00  0.0000000000000D+00  0.0000000000000D+00
385  3.8400000000000D+00  0.0000000000000D+00  0.0000000000000D+00
386  3.8500000000000D+00  0.0000000000000D+00  0.0000000000000D+00
387  3.8600000000000D+00  0.0000000000000D+00  0.0000000000000D+00
388  3.8700000000000D+00  0.0000000000000D+00  0.0000000000000D+00
389  3.8800000000000D+00  0.0000000000000D+00  0.0000000000000D+00
390  3.8900000000000D+00  0.0000000000000D+00  0.0000000000000D+00
391  3.9000000000000D+00  0.0000000000000D+00  0.0000000000000D+00
392  3.9100000000000D+00  0.0000000000000D+00  0.0000000000000D+00
393  3.9200000000000D+00  0.0000000000000D+00  0.0000000000000D+00
394  3.9300000000000D+00  0.0000000000000D+00  0.0000000000000D+00
395  3.9400000000000D+00  0.0000000000000D+00  0.0000000000000D+00
396  3.9500000000000D+00  0.0000000000000D+00  0.0000000000000D+00
397  3.9600000000000D+00  0.0000000000000D+00  0.0000000000000D+00
398  3.9700000000000D+00  0.0000000000000D+00  0.0000000000000D+00
399  3.9800000000000D+00  0.0000000000000D+00  0.0000000000000D+00
400  3.9900000000000D+00  0.0000000000000D+00  0.0000000000000D+00
401  4.0000000000000D+00  0.0000000000000D+00  0.0000000000000D+00
402  4.0100000000000D+00  0.0000000000000D+00  0.0000000000000D+00
403  4.0200000000000D+00  0.0000000000000D+00  0.0000000000000D+00
404  4.0300000000000D+00  0.0000000000000D+00  0.0000000000000D+00
405  4.0400000000000D+00  0.0000000000000D+00  0.0000000000000D+00
406  4.0500000000000D+00  0.0000000000000D+00  0.0000000000000D+00
407  4.0600000000000D+00  0.0000000000000D+00  0.0000000000000D+00
408  4.0700000000000D+00  0.0000000000000D+00  0.0000000000000D+00
409  4.0800000000000D+00  0.0000000000000D+00  0.0000000000000D+00
410  4.0900000000000D+00  0.0000000000000D+00  0.0000000000000D+00
411  4.1000000000000D+00  0.0000000000000D+00  0.0000000000000D+00
412  4.1100000000000D+00  0.0000000000000D+00  0.0000000000000D+00
413  4.1200000000000D+00  0.0000000000000D+00  0.0000000000000D+00
414  4.1300000000000D+00  0.0000000000000D+00  0.0000000000000D+00
415  4.1400000000000D+00  0.0000000000000D+00  0.0000000000000D+00
416  4.1500000000000D+00  0.0000000000000D+00  0.0000000000000D+00
417  4.1600000000000D+00  0.0000000000000D+00  0.0000000000000D+00
418  4.1700000000000D+00  0.0000000000000D+00  0.0000000000000D+00
419  4.1800000000000D+00  0.0000000000000D+00  0.0000000000000D+00
420  4.1900000000000D+00  0.0000000000000D+00  0.0000000000000D+00
421  4.2000000000000D+00  0.0000000000000D+00  0.0000000000000D+00
422  4.2100000000000D+00  0.0000000000000D+00  0.0000000000000D+00
423  4.2200000000000D+00  0.0000000000000D+00  0.0000000000000D+00
424  4.2300000000000D+00  0.0000000000000D+00  0.0000000000000D+00
425  4.2400000000000D+00  0.0000000000000D+00  0.0000000000000D+00
426  4.2500000000000D+00  0.0000000000000D+00  0.0000000000000D+00
427  4.2600000000000D+00  0.0000000000000D+00  0.0000000000000D+00
428  4.2700000000000D+00  0.0000000000000D+00  0.0000000000000D+00
429  4.2800000000000D+00  0.0000000000000D+00  0.0000000000000D+00
430  4.2900000000000D+00  0.0000000000000D+00  0.0000000000000D+00
431  4.3000000000000D+00  0.0000000000000D+00  0.0000000000000D+00
432  4.3100000000000D+00  0.0000000000000D+00  0.0000000000000D+00
433  4.3200000000000D+00  0.0000000000000D+00  0.0000000000000D+00
434  4.3300000000000D+00  0.0000000000000D+00  0.0000000000000D+00
435  4.3400000000000D+00  0.0000000000000D+00  0.0000000000000D+00
436  4.3500000000000D+00  0.0000000000000D+00  0.0000000000000D+00
437  4.3600000000000D+00  0.0000000000000D+00  0.0000000000000D+00
438  4.3700000000000D+00  0.0000000000000D+00  0.0000000000000D+00
439  4.3800000000000D+00  0.0000000000000D+00  0.0000000000000D+00
440  4.3900000000000D+00  0.0000000000000D+00  0.0000000000000D+00
441  4.4000000000000D+00  0.0000000000000D+00  0.0000000000000D+00
442  4.4100000000000D+00  0.0000000000000D+00  0.0000000000000D+00
443  4.4200000000000D+00  0.0000000000000D+00  0.0000000000000D+00
444  4.4300000000000D+00  0.0000000000000D+00  0.0000000000000D+00