Pt    ONCVPSP  r_core=  2.52  1.92  1.87
78.0000     16.0000      140910    zatom,zion,pspd
8    11     2     4   501     0    pspcod,pspxc,lmax,lloc,mmax,r2well
5.00000000  0.60000000  0.00000000    rchrg fchrg qchrg
2     2     2     0     0    nproj
0                 extension_switch
0                         4.9735263407818D+00  4.8613341683367D-01
1  0.0000000000000D+00 -0.0000000000000D+00 -0.0000000000000D+00
2  1.0000000000000D-02 -1.6427245869081D-02 -1.2764620386584D-02
3  2.0000000000000D-02 -3.2842959276195D-02 -2.5510349025230D-02
4  3.0000000000000D-02 -4.9235667079954D-02 -3.8218428349958D-02
5  4.0000000000000D-02 -6.5594013792636D-02 -5.0870364814143D-02
6  5.0000000000000D-02 -8.1906818417703D-02 -6.3448052852109D-02
7  6.0000000000000D-02 -9.8163129412222D-02 -7.5933892130600D-02
8  7.0000000000000D-02 -1.1435227742138D-01 -8.8310897336997D-02
9  8.0000000000000D-02 -1.3046392545843D-01 -1.0056279982409D-01
10  9.0000000000000D-02 -1.4648811623082D-01 -1.1267414050710D-01
11  1.0000000000000D-01 -1.6241531634228D-01 -1.2463035348812D-01
12  1.1000000000000D-01 -1.7823645712882D-01 -1.3641783996057D-01
13  1.2000000000000D-01 -1.9394297191833D-01 -1.4802403203106D-01
14  1.3000000000000D-01 -2.0952682953161D-01 -1.5943744617402D-01
15  1.4000000000000D-01 -2.2498056387697D-01 -1.7064772612198D-01
16  1.5000000000000D-01 -2.4029729951538D-01 -1.8164567506716D-01
17  1.6000000000000D-01 -2.5547077311147D-01 -1.9242327714237D-01
18  1.7000000000000D-01 -2.7049535070538D-01 -2.0297370821383D-01
19  1.8000000000000D-01 -2.8536604078327D-01 -2.1329133611465D-01
20  1.9000000000000D-01 -3.0007850314857D-01 -2.2337171050593D-01
21  2.0000000000000D-01 -3.1462905359715D-01 -2.3321154262249D-01
22  2.1000000000000D-01 -3.2901466449541D-01 -2.4280867525224D-01
23  2.2000000000000D-01 -3.4323296129309D-01 -2.5216204334179D-01
24  2.3000000000000D-01 -3.5728221511347D-01 -2.6127162567250D-01
25  2.4000000000000D-01 -3.7116133152714D-01 -2.7013838817429D-01
26  2.5000000000000D-01 -3.8486983566998D-01 -2.7876421936534D-01
27  2.6000000000000D-01 -3.9840785386619D-01 -2.8715185861704D-01
28  2.7000000000000D-01 -4.1177609193492D-01 -2.9530481777767D-01
29  2.8000000000000D-01 -4.2497581043213D-01 -3.0322729713460D-01
30  2.9000000000000D-01 -4.3800879697391D-01 -3.1092409604780D-01
31  3.0000000000000D-01 -4.5087733590907D-01 -3.1840051925390D-01
32  3.1000000000000D-01 -4.6358417557159D-01 -3.2566227955129D-01
33  3.2000000000000D-01 -4.7613249342825D-01 -3.3271539787071D-01
34  3.3000000000000D-01 -4.8852585938610D-01 -3.3956610149773D-01
35  3.4000000000000D-01 -5.0076819679411D-01 -3.4622071908822D-01
36  3.5000000000000D-01 -5.1286374374711D-01 -3.5268558042948D-01
37  3.6000000000000D-01 -5.2481701052997D-01 -3.5896690833049D-01
38  3.7000000000000D-01 -5.3663273927924D-01 -3.6507072082715D-01
39  3.8000000000000D-01 -5.4831586105425D-01 -3.7100272936468D-01
40  3.9000000000000D-01 -5.5987145245976D-01 -3.7676823962089D-01
41  4.0000000000000D-01 -5.7130469368033D-01 -3.8237205973749D-01
42  4.1000000000000D-01 -5.8262082547699D-01 -3.8781840937822D-01
43  4.2000000000000D-01 -5.9382510686587D-01 -3.9311083434592D-01
44  4.3000000000000D-01 -6.0492277341710D-01 -3.9825212657280D-01
45  4.4000000000000D-01 -6.1591899637642D-01 -4.0324425002588D-01
46  4.5000000000000D-01 -6.2681884280467D-01 -4.0808827304098D-01
47  4.6000000000000D-01 -6.3762723692799D-01 -4.1278430757703D-01
48  4.7000000000000D-01 -6.4834892289509D-01 -4.1733145586194D-01
49  4.8000000000000D-01 -6.5898842974743D-01 -4.2172776598264D-01
50  4.9000000000000D-01 -6.6955003679683D-01 -4.2597019283646D-01
51  5.0000000000000D-01 -6.8003773960829D-01 -4.3005456575679D-01
52  5.1000000000000D-01 -6.9045522248787D-01 -4.3397557284275D-01
53  5.2000000000000D-01 -7.0080583235087D-01 -4.3772675114457D-01
54  5.3000000000000D-01 -7.1109254325302D-01 -4.4130046910864D-01
55  5.4000000000000D-01 -7.2131794371254D-01 -4.4468794901669D-01
56  5.5000000000000D-01 -7.3148420783505D-01 -4.4787926990319D-01
57  5.6000000000000D-01 -7.4159307691578D-01 -4.5086339293778D-01
58  5.7000000000000D-01 -7.5164584555402D-01 -4.5362819489260D-01
59  5.8000000000000D-01 -7.6164334082116D-01 -4.5616050304030D-01
60  5.9000000000000D-01 -7.7158591517380D-01 -4.5844614642740D-01
61  6.0000000000000D-01 -7.8147343326230D-01 -4.6047000942533D-01
62  6.1000000000000D-01 -7.9130526046554D-01 -4.6221609433881D-01
63  6.2000000000000D-01 -8.0108026835103D-01 -4.6366759023070D-01
64  6.3000000000000D-01 -8.1079681222717D-01 -4.6480695306694D-01
65  6.4000000000000D-01 -8.2045274476275D-01 -4.6561598469627D-01
66  6.5000000000000D-01 -8.3004541381803D-01 -4.6607591583191D-01
67  6.6000000000000D-01 -8.3957165338596D-01 -4.6616751598320D-01
68  6.7000000000000D-01 -8.4902779892549D-01 -4.6587117659198D-01
69  6.8000000000000D-01 -8.5840969015055D-01 -4.6516701171072D-01
70  6.9000000000000D-01 -8.6771267525387D-01 -4.6403497073081D-01
71  7.0000000000000D-01 -8.7693161898161D-01 -4.6245495372171D-01
72  7.1000000000000D-01 -8.8606091614363D-01 -4.6040690710189D-01
73  7.2000000000000D-01 -8.9509450126688D-01 -4.5787094059551D-01
74  7.3000000000000D-01 -9.0402586134225D-01 -4.5482743555912D-01
75  7.4000000000000D-01 -9.1284804883835D-01 -4.5125716294678D-01
76  7.5000000000000D-01 -9.2155369617878D-01 -4.4714141100887D-01
77  7.6000000000000D-01 -9.3013503289527D-01 -4.4246207366098D-01
78  7.7000000000000D-01 -9.3858390151501D-01 -4.3720176909046D-01
79  7.8000000000000D-01 -9.4689177495688D-01 -4.3134394777630D-01
80  7.9000000000000D-01 -9.5504977466794D-01 -4.2487299769151D-01
81  8.0000000000000D-01 -9.6304868942717D-01 -4.1777434611242D-01
82  8.1000000000000D-01 -9.7087899475097D-01 -4.1003455748684D-01
83  8.2000000000000D-01 -9.7853087284212D-01 -4.0164142684261D-01
84  8.3000000000000D-01 -9.8599423303195D-01 -3.9258406824808D-01
85  8.4000000000000D-01 -9.9325873267290D-01 -3.8285299786827D-01
86  8.5000000000000D-01 -1.0003137984463D+00 -3.7244021119204D-01
87  8.6000000000000D-01 -1.0071486480568D+00 -3.6133925403730D-01
88  8.7000000000000D-01 -1.0137523122928D+00 -3.4954528697430D-01
89  8.8000000000000D-01 -1.0201136574363D+00 -3.3705514283859D-01
90  8.9000000000000D-01 -1.0262214080126D+00 -3.2386737703898D-01
91  9.0000000000000D-01 -1.0320641698748D+00 -3.0998231039892D-01
92  9.1000000000000D-01 -1.0376304536190D+00 -2.9540206430588D-01
93  9.2000000000000D-01 -1.0429086983331D+00 -2.8013058798113D-01
94  9.3000000000000D-01 -1.0478872956786D+00 -2.6417367772384D-01
95  9.4000000000000D-01 -1.0525546143079D+00 -2.4753898802956D-01
96  9.5000000000000D-01 -1.0568990246149D+00 -2.3023603453465D-01
97  9.6000000000000D-01 -1.0609089238172D+00 -2.1227618879653D-01
98  9.7000000000000D-01 -1.0645727501655D+00 -1.9367263429819D-01
99  9.8000000000000D-01 -1.0678790393139D+00 -1.7444043897492D-01
100  9.9000000000000D-01 -1.0708164258990D+00 -1.5459644022720D-01
101  1.0000000000000D+00 -1.0733736753305D+00 -1.3415922760666D-01
102  1.0100000000000D+00 -1.0755397118961D+00 -1.1314910102091D-01
103  1.0200000000000D+00 -1.0773036460546D+00 -9.1588018335491D-02
104  1.0300000000000D+00 -1.0786547887129D+00 -6.9499523524203D-02
105  1.0400000000000D+00 -1.0795827024983D+00 -4.6908717560946D-02
106  1.0500000000000D+00 -1.0800772429984D+00 -2.3842174706485D-02
107  1.0600000000000D+00 -1.0801285538439D+00 -3.2783012174243D-04
108  1.0700000000000D+00 -1.0797271084015D+00  2.3605088162870D-02
109  1.0800000000000D+00 -1.0788637140002D+00  4.7926142777033D-02
110  1.0900000000000D+00 -1.0775295906092D+00  7.2603771933922D-02
111  1.1000000000000D+00 -1.0757164104807D+00  9.7605428686700D-02
112  1.1100000000000D+00 -1.0734162746208D+00  1.2289767204672D-01
113  1.1200000000000D+00 -1.0706217437440D+00  1.4844625311977D-01
114  1.1300000000000D+00 -1.0673258692445D+00  1.7421620414520D-01
115  1.1400000000000D+00 -1.0635223427419D+00  2.0017210428598D-01
116  1.1500000000000D+00 -1.0592053786418D+00  2.2627806471996D-01
117  1.1600000000000D+00 -1.0543697427889D+00  2.5249780363481D-01
118  1.1700000000000D+00 -1.0490108604264D+00  2.7879486426993D-01
119  1.1800000000000D+00 -1.0431248973653D+00  3.0513287774362D-01
120  1.1900000000000D+00 -1.0367086479166D+00  3.3147545843486D-01
121  1.2000000000000D+00 -1.0297594949127D+00  3.5778613633025D-01
122  1.2100000000000D+00 -1.0222757942745D+00  3.8402922632597D-01
123  1.2200000000000D+00 -1.0142565739683D+00  4.1016933443307D-01
124  1.2300000000000D+00 -1.0057015252473D+00  4.3617132988814D-01
125  1.2400000000000D+00 -9.9661130188989D-01  4.6200112226963D-01
126  1.2500000000000D+00 -9.8698740102926D-01  4.8762551801522D-01
127  1.2600000000000D+00 -9.7683199609102D-01  5.1301179765268D-01
128  1.2700000000000D+00 -9.6614825061180D-01  5.3812861355743D-01
129  1.2800000000000D+00 -9.5494026574213D-01  5.6294600747345D-01
130  1.2900000000000D+00 -9.4321281102014D-01  5.8743461860854D-01
131  1.3000000000000D+00 -9.3097172799096D-01  6.1156697847810D-01
132  1.3100000000000D+00 -9.1822378573831D-01  6.3531723497062D-01
133  1.3200000000000D+00 -9.0497640061134D-01  6.5866017338762D-01
134  1.3300000000000D+00 -8.9123819149583D-01  6.8157326288848D-01
135  1.3400000000000D+00 -8.7701856350185D-01  7.0403533670530D-01
136  1.3500000000000D+00 -8.6232761722309D-01  7.2602613346395D-01
137  1.3600000000000D+00 -8.4717669958578D-01  7.4752873264524D-01
138  1.3700000000000D+00 -8.3157772753080D-01  7.6852683647315D-01
139  1.3800000000000D+00 -8.1554356036734D-01  7.8900634148004D-01
140  1.3900000000000D+00 -7.9908799337850D-01  8.0895565996282D-01
141  1.4000000000000D+00 -7.8222537416391D-01  8.2836369544506D-01
142  1.4100000000000D+00 -7.6497113010664D-01  8.4722287557109D-01
143  1.4200000000000D+00 -7.4734123495520D-01  8.6552636992464D-01
144  1.4300000000000D+00 -7.2935244414242D-01  8.8326936275225D-01
145  1.4400000000000D+00 -7.1102224697233D-01  9.0044937946112D-01
146  1.4500000000000D+00 -6.9236866601038D-01  9.1706433213783D-01
147  1.4600000000000D+00 -6.7341046820424D-01  9.3311525369033D-01
148  1.4700000000000D+00 -6.5416688800614D-01  9.4860333741587D-01
149  1.4800000000000D+00 -6.3465774542532D-01  9.6353179990971D-01
150  1.4900000000000D+00 -6.1490328794725D-01  9.7790461302246D-01
151  1.5000000000000D+00 -5.9492428670690D-01  9.9172679796366D-01
152  1.5100000000000D+00 -5.7474175058836D-01  1.0050039273497D+00
153  1.5200000000000D+00 -5.5437729026987D-01  1.0177423571001D+00
154  1.5300000000000D+00 -5.3385247801239D-01  1.0299479191825D+00
155  1.5400000000000D+00 -5.1318951095418D-01  1.0416272039553D+00
156  1.5500000000000D+00 -4.9241046351312D-01  1.0527852166924D+00
157  1.5600000000000D+00 -4.7153786796450D-01  1.0634270151496D+00
158  1.5700000000000D+00 -4.5059420841914D-01  1.0735556826062D+00
159  1.5800000000000D+00 -4.2960216879990D-01  1.0831725867871D+00
160  1.5900000000000D+00 -4.0858452440043D-01  1.0922774024108D+00
161  1.6000000000000D+00 -3.8756402074050D-01  1.1008655299452D+00
162  1.6100000000000D+00 -3.6656353826160D-01  1.1089305910116D+00
163  1.6200000000000D+00 -3.4560624537129D-01  1.1164627382611D+00
164  1.6300000000000D+00 -3.2471563662116D-01  1.1234512051351D+00
165  1.6400000000000D+00 -3.0391574708919D-01  1.1298845633666D+00
166  1.6500000000000D+00 -2.8323112899554D-01  1.1357514202649D+00
167  1.6600000000000D+00 -2.6268645618628D-01  1.1410397849540D+00
168  1.6700000000000D+00 -2.4230705040415D-01  1.1457377093869D+00
169  1.6800000000000D+00 -2.2211786898464D-01  1.1498329608630D+00
170  1.6900000000000D+00 -2.0214469986937D-01  1.1533132200479D+00
171  1.7000000000000D+00 -1.8241244731510D-01  1.1561663422164D+00
172  1.7100000000000D+00 -1.6294702777286D-01  1.1583799162575D+00
173  1.7200000000000D+00 -1.4377298434331D-01  1.1599422059669D+00
174  1.7300000000000D+00 -1.2491598198075D-01  1.1608410442910D+00
175  1.7400000000000D+00 -1.0639993388669D-01  1.1610653992874D+00
176  1.7500000000000D+00 -8.8249830180107D-02  1.1606037417637D+00
177  1.7600000000000D+00 -7.0488735087358D-02  1.1594459997178D+00
178  1.7700000000000D+00 -5.3140497576570D-02  1.1575817339938D+00
179  1.7800000000000D+00 -3.6227171168934D-02  1.1550020352475D+00
180  1.7900000000000D+00 -1.9770958682329D-02  1.1516980614718D+00
181  1.8000000000000D+00 -3.7928004119788D-03  1.1476622085963D+00
182  1.8100000000000D+00  1.1687278981144D-02  1.1428877828027D+00
183  1.8200000000000D+00  2.6649503535341D-02  1.1373685708016D+00
184  1.8300000000000D+00  4.1076562855236D-02  1.1311005989098D+00
185  1.8400000000000D+00  5.4949866375147D-02  1.1240790909383D+00
186  1.8500000000000D+00  6.8255320535098D-02  1.1163033457822D+00
187  1.8600000000000D+00  8.0975549192897D-02  1.1077700664504D+00
188  1.8700000000000D+00  9.3099585415590D-02  1.0984818483978D+00
189  1.8800000000000D+00  1.0461287480446D-01  1.0884383432813D+00
190  1.8900000000000D+00  1.1550619467786D-01  1.0776442610145D+00
191  1.9000000000000D+00  1.2576891604986D-01  1.0661032700301D+00
192  1.9100000000000D+00  1.3539320383336D-01  1.0538218695055D+00
193  1.9200000000000D+00  1.4437292191330D-01  1.0408083639451D+00
194  1.9300000000000D+00  1.5270144321246D-01  1.0270708633286D+00
195  1.9400000000000D+00  1.6037739259878D-01  1.0126226207246D+00
196  1.9500000000000D+00  1.6739555270514D-01  9.9747354242198D-01
197  1.9600000000000D+00  1.7375831937250D-01  9.8164093240535D-01
198  1.9700000000000D+00  1.7946467290944D-01  9.6513913315523D-01
199  1.9800000000000D+00  1.8451806384728D-01  9.4798693986653D-01
200  1.9900000000000D+00  1.8892281997373D-01  9.3020422502745D-01
201  2.0000000000000D+00  1.9268322373500D-01  9.1181106329826D-01
202  2.0100000000000D+00  1.9580869941816D-01  8.9283258800873D-01
203  2.0200000000000D+00  1.9830526140912D-01  8.7329102164040D-01
204  2.0300000000000D+00  2.0018550752986D-01  8.5321490538065D-01
205  2.0400000000000D+00  2.0146006761957D-01  8.3263125282658D-01
206  2.0500000000000D+00  2.0214201555788D-01  8.1156952228267D-01
207  2.0600000000000D+00  2.0224721564657D-01  7.9006193807903D-01
208  2.0700000000000D+00  2.0178942517547D-01  7.6813917225536D-01
209  2.0800000000000D+00  2.0078820235549D-01  7.4583709894541D-01
210  2.0900000000000D+00  1.9926092840172D-01  7.2319011634415D-01
211  2.1000000000000D+00  1.9722769084250D-01  7.0023501889947D-01
212  2.1100000000000D+00  1.9471022244483D-01  6.7701020381018D-01
213  2.1200000000000D+00  1.9172928028987D-01  6.5355377813491D-01
214  2.1300000000000D+00  1.8830941503163D-01  6.2990654755758D-01
215  2.1400000000000D+00  1.8447420668777D-01  6.0610932786765D-01
216  2.1500000000000D+00  1.8024874346632D-01  5.8220387822212D-01
217  2.1600000000000D+00  1.7565935904837D-01  5.5823284747313D-01
218  2.1700000000000D+00  1.7073232803002D-01  5.3424003638733D-01
219  2.1800000000000D+00  1.6549525764342D-01  5.1026855602783D-01
220  2.1900000000000D+00  1.5997622403358D-01  4.8636324036893D-01
221  2.2000000000000D+00  1.5420369581375D-01  4.6256893281447D-01
222  2.2100000000000D+00  1.4820627552072D-01  4.3892938665799D-01
223  2.2200000000000D+00  1.4201405180403D-01  4.1549149582693D-01
224  2.2300000000000D+00  1.3565579753010D-01  3.9229864352033D-01
225  2.2400000000000D+00  1.2916108398487D-01  3.6939536800997D-01
226  2.2500000000000D+00  1.2256109245037D-01  3.4682894431604D-01
227  2.2600000000000D+00  1.1588366604382D-01  3.2464009949473D-01
228  2.2700000000000D+00  1.0915960530886D-01  3.0287454031112D-01
229  2.2800000000000D+00  1.0241863881092D-01  2.8157589547917D-01
230  2.2900000000000D+00  9.5688089260287D-02  2.6078345273608D-01
231  2.3000000000000D+00  8.8999339198153D-02  2.4054293678175D-01
232  2.3100000000000D+00  8.2378966405051D-02  2.2089212148958D-01
233  2.3200000000000D+00  7.5853487110739D-02  2.0186846483686D-01
234  2.3300000000000D+00  6.9454274526315D-02  1.8351684277546D-01
235  2.3400000000000D+00  6.3203358268975D-02  1.6586739162331D-01
236  2.3500000000000D+00  5.7126929950037D-02  1.4895650487028D-01
237  2.3600000000000D+00  5.1253105811226D-02  1.3282333170865D-01
238  2.3700000000000D+00  4.5600850004662D-02  1.1749290978780D-01
239  2.3800000000000D+00  4.0195001204559D-02  1.0299899344248D-01
240  2.3900000000000D+00  3.5058809943739D-02  8.9372784911943D-02
241  2.4000000000000D+00  3.0208305780897D-02  7.6634493083191D-02
242  2.4100000000000D+00  2.5666131833231D-02  6.4814015784420D-02
243  2.4200000000000D+00  2.1449937081078D-02  5.3933681648496D-02
244  2.4300000000000D+00  1.7572397361438D-02  4.4008281225412D-02
245  2.4400000000000D+00  1.4053241643938D-02  3.5062844023979D-02
246  2.4500000000000D+00  1.0904152843648D-02  2.7110403413784D-02
247  2.4600000000000D+00  8.1340027831623D-03  2.0159693779906D-02
248  2.4700000000000D+00  5.7588869231026D-03  1.4229867719505D-02
249  2.4800000000000D+00  3.7845040562057D-03  9.3247097705754D-03
250  2.4900000000000D+00  2.2154710893035D-03  5.4462575297243D-03
251  2.5000000000000D+00  1.1342985593199D-03  2.7787823068079D-03
252  2.5100000000000D+00  4.4637319669385D-04  1.0872623443023D-03
253  2.5200000000000D+00  5.5992636337377D-05  1.3391011320523D-04
254  2.5300000000000D+00 -1.0884960766279D-04 -2.6889223332050D-04
255  2.5400000000000D+00 -1.1487148020222D-04 -2.8309019179874D-04
256  2.5500000000000D+00 -3.0043475574851D-05 -7.3990329519871D-05
257  2.5600000000000D+00  1.6143317904667D-07  4.9178194471994D-07
258  2.5700000000000D+00  1.8025285671984D-07  5.4911326743666D-07
259  2.5800000000000D+00  5.6072556015279D-08  1.7081662397690D-07
260  2.5900000000000D+00  0.0000000000000D+00  0.0000000000000D+00
261  2.6000000000000D+00  0.0000000000000D+00  0.0000000000000D+00
262  2.6100000000000D+00  0.0000000000000D+00  0.0000000000000D+00
263  2.6200000000000D+00  0.0000000000000D+00  0.0000000000000D+00
264  2.6300000000000D+00  0.0000000000000D+00  0.0000000000000D+00
265  2.6400000000000D+00  0.0000000000000D+00  0.0000000000000D+00
266  2.6500000000000D+00  0.0000000000000D+00  0.0000000000000D+00
267  2.6600000000000D+00  0.0000000000000D+00  0.0000000000000D+00
268  2.6700000000000D+00  0.0000000000000D+00  0.0000000000000D+00
269  2.6800000000000D+00  0.0000000000000D+00  0.0000000000000D+00
270  2.6900000000000D+00  0.0000000000000D+00  0.0000000000000D+00
271  2.7000000000000D+00  0.0000000000000D+00  0.0000000000000D+00
272  2.7100000000000D+00  0.0000000000000D+00  0.0000000000000D+00
273  2.7200000000000D+00  0.0000000000000D+00  0.0000000000000D+00
274  2.7300000000000D+00  0.0000000000000D+00  0.0000000000000D+00
275  2.7400000000000D+00  0.0000000000000D+00  0.0000000000000D+00
276  2.7500000000000D+00  0.0000000000000D+00  0.0000000000000D+00
277  2.7600000000000D+00  0.0000000000000D+00  0.0000000000000D+00
278  2.7700000000000D+00  0.0000000000000D+00  0.0000000000000D+00
279  2.7800000000000D+00  0.0000000000000D+00  0.0000000000000D+00
280  2.7900000000000D+00  0.0000000000000D+00  0.0000000000000D+00
281  2.8000000000000D+00  0.0000000000000D+00  0.0000000000000D+00
282  2.8100000000000D+00  0.0000000000000D+00  0.0000000000000D+00
283  2.8200000000000D+00  0.0000000000000D+00  0.0000000000000D+00
284  2.8300000000000D+00  0.0000000000000D+00  0.0000000000000D+00
285  2.8400000000000D+00  0.0000000000000D+00  0.0000000000000D+00
286  2.8500000000000D+00  0.0000000000000D+00  0.0000000000000D+00
287  2.8600000000000D+00  0.0000000000000D+00  0.0000000000000D+00
288  2.8700000000000D+00  0.0000000000000D+00  0.0000000000000D+00
289  2.8800000000000D+00  0.0000000000000D+00  0.0000000000000D+00
290  2.8900000000000D+00  0.0000000000000D+00  0.0000000000000D+00
291  2.9000000000000D+00  0.0000000000000D+00  0.0000000000000D+00
292  2.9100000000000D+00  0.0000000000000D+00  0.0000000000000D+00
293  2.9200000000000D+00  0.0000000000000D+00  0.0000000000000D+00
294  2.9300000000000D+00  0.0000000000000D+00  0.0000000000000D+00
295  2.9400000000000D+00  0.0000000000000D+00  0.0000000000000D+00
296  2.9500000000000D+00  0.0000000000000D+00  0.0000000000000D+00
297  2.9600000000000D+00  0.0000000000000D+00  0.0000000000000D+00
298  2.9700000000000D+00  0.0000000000000D+00  0.0000000000000D+00
299  2.9800000000000D+00  0.0000000000000D+00  0.0000000000000D+00
300  2.9900000000000D+00  0.0000000000000D+00  0.0000000000000D+00
301  3.0000000000000D+00  0.0000000000000D+00  0.0000000000000D+00
302  3.0100000000000D+00  0.0000000000000D+00  0.0000000000000D+00
303  3.0200000000000D+00  0.0000000000000D+00  0.0000000000000D+00
304  3.0300000000000D+00  0.0000000000000D+00  0.0000000000000D+00
305  3.0400000000000D+00  0.0000000000000D+00  0.0000000000000D+00
306  3.0500000000000D+00  0.0000000000000D+00  0.0000000000000D+00
307  3.0600000000000D+00  0.0000000000000D+00  0.0000000000000D+00
308  3.0700000000000D+00  0.0000000000000D+00  0.0000000000000D+00
309  3.0800000000000D+00  0.0000000000000D+00  0.0000000000000D+00
310  3.0900000000000D+00  0.0000000000000D+00  0.0000000000000D+00
311  3.1000000000000D+00  0.0000000000000D+00  0.0000000000000D+00
312  3.1100000000000D+00  0.0000000000000D+00  0.0000000000000D+00
313  3.1200000000000D+00  0.0000000000000D+00  0.0000000000000D+00
314  3.1300000000000D+00  0.0000000000000D+00  0.0000000000000D+00
315  3.1400000000000D+00  0.0000000000000D+00  0.0000000000000D+00
316  3.1500000000000D+00  0.0000000000000D+00  0.0000000000000D+00
317  3.1600000000000D+00  0.0000000000000D+00  0.0000000000000D+00
318  3.1700000000000D+00  0.0000000000000D+00  0.0000000000000D+00
319  3.1800000000000D+00  0.0000000000000D+00  0.0000000000000D+00
320  3.1900000000000D+00  0.0000000000000D+00  0.0000000000000D+00
321  3.2000000000000D+00  0.0000000000000D+00  0.0000000000000D+00
322  3.2100000000000D+00  0.0000000000000D+00  0.0000000000000D+00
323  3.2200000000000D+00  0.0000000000000D+00  0.0000000000000D+00
324  3.2300000000000D+00  0.0000000000000D+00  0.0000000000000D+00
325  3.2400000000000D+00  0.0000000000000D+00  0.0000000000000D+00
326  3.2500000000000D+00  0.0000000000000D+00  0.0000000000000D+00
327  3.2600000000000D+00  0.0000000000000D+00  0.0000000000000D+00
328  3.2700000000000D+00  0.0000000000000D+00  0.0000000000000D+00
329  3.2800000000000D+00  0.0000000000000D+00  0.0000000000000D+00
330  3.2900000000000D+00  0.0000000000000D+00  0.0000000000000D+00
331  3.3000000000000D+00  0.0000000000000D+00  0.0000000000000D+00
332  3.3100000000000D+00  0.0000000000000D+00  0.0000000000000D+00
333  3.3200000000000D+00  0.0000000000000D+00  0.0000000000000D+00
334  3.3300000000000D+00  0.0000000000000D+00  0.0000000000000D+00
335  3.3400000000000D+00  0.0000000000000D+00  0.0000000000000D+00
336  3.3500000000000D+00  0.0000000000000D+00  0.0000000000000D+00
337  3.3600000000000D+00  0.0000000000000D+00  0.0000000000000D+00
338  3.3700000000000D+00  0.0000000000000D+00  0.0000000000000D+00
339  3.3800000000000D+00  0.0000000000000D+00  0.0000000000000D+00
340  3.3900000000000D+00  0.0000000000000D+00  0.0000000000000D+00
341  3.4000000000000D+00  0.0000000000000D+00  0.0000000000000D+00
342  3.4100000000000D+00  0.0000000000000D+00  0.0000000000000D+00
343  3.4200000000000D+00  0.0000000000000D+00  0.0000000000000D+00
344  3.4300000000000D+00  0.0000000000000D+00  0.0000000000000D+00
345  3.4400000000000D+00  0.0000000000000D+00  0.0000000000000D+00
346  3.4500000000000D+00  0.0000000000000D+00  0.0000000000000D+00
347  3.4600000000000D+00  0.0000000000000D+00  0.0000000000000D+00
348  3.4700000000000D+00  0.0000000000000D+00  0.0000000000000D+00
349  3.4800000000000D+00  0.0000000000000D+00  0.0000000000000D+00
350  3.4900000000000D+00  0.0000000000000D+00  0.0000000000000D+00
351  3.5000000000000D+00  0.0000000000000D+00  0.0000000000000D+00
352  3.5100000000000D+00  0.0000000000000D+00  0.0000000000000D+00
353  3.5200000000000D+00  0.0000000000000D+00  0.0000000000000D+00
354  3.5300000000000D+00  0.0000000000000D+00  0.0000000000000D+00
355  3.5400000000000D+00  0.0000000000000D+00  0.0000000000000D+00
356  3.5500000000000D+00  0.0000000000000D+00  0.0000000000000D+00
357  3.5600000000000D+00  0.0000000000000D+00  0.0000000000000D+00
358  3.5700000000000D+00  0.0000000000000D+00  0.0000000000000D+00
359  3.5800000000000D+00  0.0000000000000D+00  0.0000000000000D+00
360  3.5900000000000D+00  0.0000000000000D+00  0.0000000000000D+00
361  3.6000000000000D+00  0.0000000000000D+00  0.0000000000000D+00
362  3.6100000000000D+00  0.0000000000000D+00  0.0000000000000D+00
363  3.6200000000000D+00  0.0000000000000D+00  0.0000000000000D+00
364  3.6300000000000D+00  0.0000000000000D+00  0.0000000000000D+00
365  3.6400000000000D+00  0.0000000000000D+00  0.0000000000000D+00
366  3.6500000000000D+00  0.0000000000000D+00  0.0000000000000D+00
367  3.6600000000000D+00  0.0000000000000D+00  0.0000000000000D+00
368  3.6700000000000D+00  0.0000000000000D+00  0.0000000000000D+00
369  3.6800000000000D+00  0.0000000000000D+00  0.0000000000000D+00
370  3.6900000000000D+00  0.0000000000000D+00  0.0000000000000D+00
371  3.7000000000000D+00  0.0000000000000D+00  0.0000000000000D+00
372  3.7100000000000D+00  0.0000000000000D+00  0.0000000000000D+00
373  3.7200000000000D+00  0.0000000000000D+00  0.0000000000000D+00
374  3.7300000000000D+00  0.0000000000000D+00  0.0000000000000D+00
375  3.7400000000000D+00  0.0000000000000D+00  0.0000000000000D+00
376  3.7500000000000D+00  0.0000000000000D+00  0.0000000000000D+00
377  3.7600000000000D+00  0.0000000000000D+00  0.0000000000000D+00
378  3.7700000000000D+00  0.0000000000000D+00  0.0000000000000D+00
379  3.7800000000000D+00  0.0000000000000D+00  0.0000000000000D+00
380  3.7900000000000D+00  0.0000000000000D+00  0.0000000000000D+00
381  3.8000000000000D+00  0.0000000000000D+00  0.0000000000000D+00
382  3.8100000000000D+00  0.0000000000000D+00  0.0000000000000D+00
383  3.8200000000000D+00  0.0000000000000D+00  0.0000000000000D+00
384  3.8300000000000D+00  0.0000000000000D+00  0.0000000000000D+00
385  3.8400000000000D+00  0.0000000000000D+00  0.0000000000000D+00
386  3.8500000000000D+00  0.0000000000000D+00  0.0000000000000D+00
387  3.8600000000000D+00  0.0000000000000D+00  0.0000000000000D+00
388  3.8700000000000D+00  0.0000000000000D+00  0.0000000000000D+00
389  3.8800000000000D+00  0.0000000000000D+00  0.0000000000000D+00
390  3.8900000000000D+00  0.0000000000000D+00  0.0000000000000D+00
391  3.9000000000000D+00  0.0000000000000D+00  0.0000000000000D+00
392  3.9100000000000D+00  0.0000000000000D+00  0.0000000000000D+00
393  3.9200000000000D+00  0.0000000000000D+00  0.0000000000000D+00
394  3.9300000000000D+00  0.0000000000000D+00  0.0000000000000D+00
395  3.9400000000000D+00  0.0000000000000D+00  0.0000000000000D+00
396  3.9500000000000D+00  0.0000000000000D+00  0.0000000000000D+00
397  3.9600000000000D+00  0.0000000000000D+00  0.0000000000000D+00
398  3.9700000000000D+00  0.0000000000000D+00  0.0000000000000D+00
399  3.9800000000000D+00  0.0000000000000D+00  0.0000000000000D+00
400  3.9900000000000D+00  0.0000000000000D+00  0.0000000000000D+00
401  4.0000000000000D+00  0.0000000000000D+00  0.0000000000000D+00
402  4.0100000000000D+00  0.0000000000000D+00  0.0000000000000D+00
403  4.0200000000000D+00  0.0000000000000D+00  0.0000000000000D+00
404  4.0300000000000D+00  0.0000000000000D+00  0.0000000000000D+00
405  4.0400000000000D+00  0.0000000000000D+00  0.0000000000000D+00
406  4.0500000000000D+00  0.0000000000000D+00  0.0000000000000D+00
407  4.0600000000000D+00  0.0000000000000D+00  0.0000000000000D+00
408  4.0700000000000D+00  0.0000000000000D+00  0.0000000000000D+00
409  4.0800000000000D+00  0.0000000000000D+00  0.0000000000000D+00
410  4.0900000000000D+00  0.0000000000000D+00  0.0000000000000D+00
411  4.1000000000000D+00  0.0000000000000D+00  0.0000000000000D+00
412  4.1100000000000D+00  0.0000000000000D+00  0.0000000000000D+00
413  4.1200000000000D+00  0.0000000000000D+00  0.0000000000000D+00
414  4.1300000000000D+00  0.0000000000000D+00  0.0000000000000D+00
415  4.1400000000000D+00  0.0000000000000D+00  0.0000000000000D+00
416  4.1500000000000D+00  0.0000000000000D+00  0.0000000000000D+00
417  4.1600000000000D+00  0.0000000000000D+00  0.0000000000000D+00
418  4.1700000000000D+00  0.0000000000000D+00  0.0000000000000D+00
419  4.1800000000000D+00  0.0000000000000D+00  0.0000000000000D+00
420  4.1900000000000D+00  0.0000000000000D+00  0.0000000000000D+00
421  4.2000000000000D+00  0.0000000000000D+00  0.0000000000000D+00
422  4.2100000000000D+00  0.0000000000000D+00  0.0000000000000D+00
423  4.2200000000000D+00  0.0000000000000D+00  0.0000000000000D+00
424  4.2300000000000D+00  0.0000000000000D+00  0.0000000000000D+00
425  4.2400000000000D+00  0.0000000000000D+00  0.0000000000000D+00
426  4.2500000000000D+00  0.0000000000000D+00  0.0000000000000D+00
427  4.2600000000000D+00  0.0000000000000D+00  0.0000000000000D+00
428  4.2700000000000D+00  0.0000000000000D+00  0.0000000000000D+00
429  4.2800000000000D+00  0.0000000000000D+00  0.0000000000000D+00
430  4.2900000000000D+00  0.0000000000000D+00  0.0000000000000D+00
431  4.3000000000000D+00  0.0000000000000D+00  0.0000000000000D+00
432  4.3100000000000D+00  0.0000000000000D+00  0.0000000000000D+00
433  4.3200000000000D+00  0.0000000000000D+00  0.0000000000000D+00
434  4.3300000000000D+00  0.0000000000000D+00  0.0000000000000D+00
435  4.3400000000000D+00  0.0000000000000D+00  0.0000000000000D+00
436  4.3500000000000D+00  0.0000000000000D+00  0.0000000000000D+00
437  4.3600000000000D+00  0.0000000000000D+00  0.0000000000000D+00
438  4.3700000000000D+00  0.0000000000000D+00  0.0000000000000D+00
439  4.3800000000000D+00  0.0000000000000D+00  0.0000000000000D+00
440  4.3900000000000D+00  0.0000000000000D+00  0.0000000000000D+00
441  4.4000000000000D+00  0.0000000000000D+00  0.0000000000000D+00
442  4.4100000000000D+00  0.0000000000000D+00  0.0000000000000D+00
443  4.4200000000000D+00  0.0000000000000D+00  0.0000000000000D+00
444  4.4300000000000D+00  0.0000000000000D+00  0.0000000000000D+00