W     ONCVPSP  r_core=  2.72  2.17  2.17
74.0000     12.0000      140906    zatom,zion,pspd
8    11     2     4   601     0    pspcod,pspxc,lmax,lloc,mmax,r2well
6.00000000  1.10000000  0.00000000    rchrg fchrg qchrg
2     2     2     0     0    nproj
0                 extension_switch
0                         3.6109505437765D+00  3.6147443864634D-01
1  0.0000000000000D+00 -0.0000000000000D+00 -0.0000000000000D+00
2  1.0000000000000D-02 -1.5122829748814D-02 -1.5813931254223D-02
3  2.0000000000000D-02 -3.0234348166858D-02 -3.1602674527445D-02
4  3.0000000000000D-02 -4.5323271519719D-02 -4.7341095674982D-02
5  4.0000000000000D-02 -6.0378371199121D-02 -6.3004168107807D-02
6  5.0000000000000D-02 -7.5388501119647D-02 -7.8567026278105D-02
7  6.0000000000000D-02 -9.0342624916151D-02 -9.4005018814571D-02
8  7.0000000000000D-02 -1.0522984287595D-01 -1.0929376119157D-01
9  8.0000000000000D-02 -1.2003941854021D-01 -1.2440918781669D-01
10  9.0000000000000D-02 -1.3476080490992D-01 -1.3932760342300D-01
11  1.0000000000000D-01 -1.4938367019150D-01 -1.5402573365142D-01
12  1.1000000000000D-01 -1.6389792301900D-01 -1.6848077471192D-01
13  1.2000000000000D-01 -1.7829373709037D-01 -1.8267044201313D-01
14  1.3000000000000D-01 -1.9256157515752D-01 -1.9657301765415D-01
15  1.4000000000000D-01 -2.0669221230173D-01 -2.1016739665530D-01
16  1.5000000000000D-01 -2.2067675845349D-01 -2.2343313185895D-01
17  1.6000000000000D-01 -2.3450668006861D-01 -2.3635047733768D-01
18  1.7000000000000D-01 -2.4817382094650D-01 -2.4890043029278D-01
19  1.8000000000000D-01 -2.6167042208552D-01 -2.6106477124539D-01
20  1.9000000000000D-01 -2.7498914056304D-01 -2.7282610250578D-01
21  2.0000000000000D-01 -2.8812306737208D-01 -2.8416788479558D-01
22  2.1000000000000D-01 -3.0106574415656D-01 -2.9507447191564D-01
23  2.2000000000000D-01 -3.1381117882997D-01 -3.0553114343994D-01
24  2.3000000000000D-01 -3.2635385996687D-01 -3.1552413521880D-01
25  2.4000000000000D-01 -3.3868877001834D-01 -3.2504066780640D-01
26  2.5000000000000D-01 -3.5081139722744D-01 -3.3406897256735D-01
27  2.6000000000000D-01 -3.6271774621702D-01 -3.4259831540978D-01
28  2.7000000000000D-01 -3.7440434727149D-01 -3.5061901820032D-01
29  2.8000000000000D-01 -3.8586826425706D-01 -3.5812247775563D-01
30  2.9000000000000D-01 -3.9710710106304D-01 -3.6510118216061D-01
31  3.0000000000000D-01 -4.0811900667009D-01 -3.7154872465036D-01
32  3.1000000000000D-01 -4.1890267871436D-01 -3.7745981477089D-01
33  3.2000000000000D-01 -4.2945736564162D-01 -3.8283028704440D-01
34  3.3000000000000D-01 -4.3978286731051D-01 -3.8765710683015D-01
35  3.4000000000000D-01 -4.4987953399107D-01 -3.9193837319003D-01
36  3.5000000000000D-01 -4.5974826410491D-01 -3.9567331973981D-01
37  3.6000000000000D-01 -4.6939050006975D-01 -3.9886231166414D-01
38  3.7000000000000D-01 -4.7880822296270D-01 -4.0150684109855D-01
39  3.8000000000000D-01 -4.8800394535726D-01 -4.0360951870732D-01
40  3.9000000000000D-01 -4.9698070280787D-01 -4.0517406304632D-01
41  4.0000000000000D-01 -5.0574204372605D-01 -4.0620528701126D-01
42  4.1000000000000D-01 -5.1429201772004D-01 -4.0670908139944D-01
43  4.2000000000000D-01 -5.2263516249086D-01 -4.0669239578180D-01
44  4.3000000000000D-01 -5.3077648919814D-01 -4.0616321663145D-01
45  4.4000000000000D-01 -5.3872146636536D-01 -4.0513054272913D-01
46  4.5000000000000D-01 -5.4647600234477D-01 -4.0360435789779D-01
47  4.6000000000000D-01 -5.5404642649846D-01 -4.0159560129115D-01
48  4.7000000000000D-01 -5.6143946879980D-01 -3.9911613485043D-01
49  4.8000000000000D-01 -5.6866223788131D-01 -3.9617870789708D-01
50  4.9000000000000D-01 -5.7572219838658D-01 -3.9279692014200D-01
51  5.0000000000000D-01 -5.8262714702532D-01 -3.8898518231993D-01
52  5.1000000000000D-01 -5.8938518739321D-01 -3.8475867451837D-01
53  5.2000000000000D-01 -5.9600470125262D-01 -3.8013329852610D-01
54  5.3000000000000D-01 -6.0249432439082D-01 -3.7512563689161D-01
55  5.4000000000000D-01 -6.0886291553632D-01 -3.6975290084250D-01
56  5.5000000000000D-01 -6.1511952610637D-01 -3.6403287893548D-01
57  5.6000000000000D-01 -6.2127337420871D-01 -3.5798389237229D-01
58  5.7000000000000D-01 -6.2733380512146D-01 -3.5162472802213D-01
59  5.8000000000000D-01 -6.3331026996243D-01 -3.4497460078065D-01
60  5.9000000000000D-01 -6.3921228119500D-01 -3.3805307768183D-01
61  6.0000000000000D-01 -6.4504938958562D-01 -3.3088003703863D-01
62  6.1000000000000D-01 -6.5083114472599D-01 -3.2347560014636D-01
63  6.2000000000000D-01 -6.5656705835294D-01 -3.1586006723824D-01
64  6.3000000000000D-01 -6.6226658239487D-01 -3.0805387803939D-01
65  6.4000000000000D-01 -6.6793905506038D-01 -3.0007751812603D-01
66  6.5000000000000D-01 -6.7359367903338D-01 -2.9195147924216D-01
67  6.6000000000000D-01 -6.7923948983360D-01 -2.8369620297488D-01
68  6.7000000000000D-01 -6.8488530710316D-01 -2.7533199483352D-01
69  6.8000000000000D-01 -6.9053970670591D-01 -2.6687897365298D-01
70  6.9000000000000D-01 -6.9621098938552D-01 -2.5835701500067D-01
71  7.0000000000000D-01 -7.0190714837148D-01 -2.4978569262799D-01
72  7.1000000000000D-01 -7.0763582543513D-01 -2.4118419949215D-01
73  7.2000000000000D-01 -7.1340428132320D-01 -2.3257129345904D-01
74  7.3000000000000D-01 -7.1921936840435D-01 -2.2396524676287D-01
75  7.4000000000000D-01 -7.2508749610865D-01 -2.1538378263510D-01
76  7.5000000000000D-01 -7.3101459997079D-01 -2.0684401796768D-01
77  7.6000000000000D-01 -7.3700611242324D-01 -1.9836240882093D-01
78  7.7000000000000D-01 -7.4306693612056D-01 -1.8995470020615D-01
79  7.8000000000000D-01 -7.4920140468040D-01 -1.8163585304403D-01
80  7.9000000000000D-01 -7.5541326975383D-01 -1.7342001786577D-01
81  8.0000000000000D-01 -7.6170567136554D-01 -1.6532047842656D-01
82  8.1000000000000D-01 -7.6808111435390D-01 -1.5734960589871D-01
83  8.2000000000000D-01 -7.7454144637213D-01 -1.4951881557213D-01
84  8.3000000000000D-01 -7.8108783753659D-01 -1.4183852621686D-01
85  8.4000000000000D-01 -7.8772076180557D-01 -1.3431812225716D-01
86  8.5000000000000D-01 -7.9443998016865D-01 -1.2696591890200D-01
87  8.6000000000000D-01 -8.0124452572376D-01 -1.1978913037099D-01
88  8.7000000000000D-01 -8.0813269071570D-01 -1.1279384134962D-01
89  8.8000000000000D-01 -8.1510201560638D-01 -1.0598498180154D-01
90  8.9000000000000D-01 -8.2214928024281D-01 -9.9366305258749D-02
91  9.0000000000000D-01 -8.2927049718437D-01 -9.2940370703024D-02
92  9.1000000000000D-01 -8.3646090724515D-01 -8.6708528142477D-02
93  9.2000000000000D-01 -8.4371497730031D-01 -8.0670907975895D-02
94  9.3000000000000D-01 -8.5102640543748D-01 -7.4826424282708D-02
95  9.4000000000000D-01 -8.5838811087415D-01 -6.9172747414208D-02
96  9.5000000000000D-01 -8.6579224512217D-01 -6.3706317145161D-02
97  9.6000000000000D-01 -8.7323020261939D-01 -5.8422354771753D-02
98  9.7000000000000D-01 -8.8069262781354D-01 -5.3314867333888D-02
99  9.8000000000000D-01 -8.8816942724976D-01 -4.8376661021760D-02
100  9.9000000000000D-01 -8.9564978406576D-01 -4.3599358678288D-02
101  1.0000000000000D+00 -9.0312217484678D-01 -3.8973421330053D-02
102  1.0100000000000D+00 -9.1057439454307D-01 -3.4488189311268D-02
103  1.0200000000000D+00 -9.1799355715046D-01 -3.0131859787806D-02
104  1.0300000000000D+00 -9.2536614114687D-01 -2.5891569939993D-02
105  1.0400000000000D+00 -9.3267801101400D-01 -2.1753424329863D-02
106  1.0500000000000D+00 -9.3991444459542D-01 -1.7702533555764D-02
107  1.0600000000000D+00 -9.4706016156284D-01 -1.3723060855495D-02
108  1.0700000000000D+00 -9.5409935304749D-01 -9.7982562975095D-03
109  1.0800000000000D+00 -9.6101572822956D-01 -5.9105227689413D-03
110  1.0900000000000D+00 -9.6779254629341D-01 -2.0414783919290D-03
111  1.1000000000000D+00 -9.7441265431699D-01  1.8279914950657D-03
112  1.1100000000000D+00 -9.8085849961595D-01  5.7177040677308D-03
113  1.1200000000000D+00 -9.8711224300906D-01  9.6480434407377D-03
114  1.1300000000000D+00 -9.9315575249254D-01  1.3639933741486D-02
115  1.1400000000000D+00 -9.9897065579436D-01  1.7714767084637D-02
116  1.1500000000000D+00 -1.0045383275728D+00  2.1894410521066D-02
117  1.1600000000000D+00 -1.0098401064405D+00  2.6200915253402D-02
118  1.1700000000000D+00 -1.0148572055394D+00  3.0656609934233D-02
119  1.1800000000000D+00 -1.0195707565104D+00  3.5284038479446D-02
120  1.1900000000000D+00 -1.0239618925950D+00  4.0105840649018D-02
121  1.2000000000000D+00 -1.0280119239605D+00  4.5144493765025D-02
122  1.2100000000000D+00 -1.0317022212868D+00  5.0422463883415D-02
123  1.2200000000000D+00 -1.0350141685577D+00  5.5962273467222D-02
124  1.2300000000000D+00 -1.0379296677308D+00  6.1785770202741D-02
125  1.2400000000000D+00 -1.0404307871429D+00  6.7914618515257D-02
126  1.2500000000000D+00 -1.0424997427596D+00  7.4370329759576D-02
127  1.2600000000000D+00 -1.0441194407433D+00  8.1173463824031D-02
128  1.2700000000000D+00 -1.0452731715350D+00  8.8344065565183D-02
129  1.2800000000000D+00 -1.0459444483154D+00  9.5901904956632D-02
130  1.2900000000000D+00 -1.0461177296102D+00  1.0386540369909D-01
131  1.3000000000000D+00 -1.0457779931655D+00  1.1225225803735D-01
132  1.3100000000000D+00 -1.0449104862110D+00  1.2107981317604D-01
133  1.3200000000000D+00 -1.0435017928444D+00  1.3036346699738D-01
134  1.3300000000000D+00 -1.0415389266920D+00  1.4011802009327D-01
135  1.3400000000000D+00 -1.0390094878592D+00  1.5035744330886D-01
136  1.3500000000000D+00 -1.0359025478388D+00  1.6109354833982D-01
137  1.3600000000000D+00 -1.0322075003594D+00  1.7233770965197D-01
138  1.3700000000000D+00 -1.0279149383806D+00  1.8409954909614D-01
139  1.3800000000000D+00 -1.0230166934678D+00  1.9638687678648D-01
140  1.3900000000000D+00 -1.0175048612325D+00  2.0920715249605D-01
141  1.4000000000000D+00 -1.0113736003449D+00  2.2256478975863D-01
142  1.4100000000000D+00 -1.0046174806801D+00  2.3646363401022D-01
143  1.4200000000000D+00 -9.9723232393344D-01  2.5090570181950D-01
144  1.4300000000000D+00 -9.8921558564919D-01  2.6589061910327D-01
145  1.4400000000000D+00 -9.8056489319389D-01  2.8141779771509D-01
146  1.4500000000000D+00 -9.7128038769728D-01  2.9748295730700D-01
147  1.4600000000000D+00 -9.6136239288964D-01  3.1408159396608D-01
148  1.4700000000000D+00 -9.5081303775021D-01  3.3120657276084D-01
149  1.4800000000000D+00 -9.3963568771130D-01  3.4884898705374D-01
150  1.4900000000000D+00 -9.2783451912855D-01  3.6699877184350D-01
151  1.5000000000000D+00 -9.1541592827739D-01  3.8564266850955D-01
152  1.5100000000000D+00 -9.0238629699491D-01  4.0476746677219D-01
153  1.5200000000000D+00 -8.8875477615436D-01  4.2435599514053D-01
154  1.5300000000000D+00 -8.7453052519941D-01  4.4439110263347D-01
155  1.5400000000000D+00 -8.5972492064399D-01  4.6485250086589D-01
156  1.5500000000000D+00 -8.4435003139403D-01  4.8571895776718D-01
157  1.5600000000000D+00 -8.2841945858752D-01  5.0696709904042D-01
158  1.5700000000000D+00 -8.1194807567092D-01  5.2857182311712D-01
159  1.5800000000000D+00 -7.9495170895211D-01  5.5050670396902D-01
160  1.5900000000000D+00 -7.7744788073257D-01  5.7274306112977D-01
161  1.6000000000000D+00 -7.5945462986169D-01  5.9525147668071D-01
162  1.6100000000000D+00 -7.4099193440374D-01  6.1800003966751D-01
163  1.6200000000000D+00 -7.2208000937343D-01  6.4095644163571D-01
164  1.6300000000000D+00 -7.0274106810634D-01  6.6408593128300D-01
165  1.6400000000000D+00 -6.8299743488914D-01  6.8735346238034D-01
166  1.6500000000000D+00 -6.6287331612895D-01  7.1072186431017D-01
167  1.6600000000000D+00 -6.4239304887619D-01  7.3415355910504D-01
168  1.6700000000000D+00 -6.2158257120861D-01  7.5760939784423D-01
169  1.6800000000000D+00 -6.0046810130063D-01  7.8104954611923D-01
170  1.6900000000000D+00 -5.7907704693869D-01  8.0443331549270D-01
171  1.7000000000000D+00 -5.5743731182094D-01  8.2771896248064D-01
172  1.7100000000000D+00 -5.3557752316711D-01  8.5086470744359D-01
173  1.7200000000000D+00 -5.1352705733304D-01  8.7382726444670D-01
174  1.7300000000000D+00 -4.9131548630332D-01  8.9656422738071D-01
175  1.7400000000000D+00 -4.6897340287748D-01  9.1903124409043D-01
176  1.7500000000000D+00 -4.4653107378420D-01  9.4118566646886D-01
177  1.7600000000000D+00 -4.2401999619927D-01  9.6298263438032D-01
178  1.7700000000000D+00 -4.0147091091875D-01  9.8437960592115D-01
179  1.7800000000000D+00 -3.7891584836984D-01  1.0053318573060D+00
180  1.7900000000000D+00 -3.5638584372259D-01  1.0257972262630D+00
181  1.8000000000000D+00 -3.3391302481464D-01  1.0457318682929D+00
182  1.8100000000000D+00 -3.1152859348056D-01  1.0650941841354D+00
183  1.8200000000000D+00 -2.8926427280367D-01  1.0838420472586D+00
184  1.8300000000000D+00 -2.6715136006997D-01  1.1019345121102D+00
185  1.8400000000000D+00 -2.4522061291167D-01  1.1193320843204D+00
186  1.8500000000000D+00 -2.2350340192829D-01  1.1359944888016D+00
187  1.8600000000000D+00 -2.0202892307865D-01  1.1518858064808D+00
188  1.8700000000000D+00 -1.8082862165617D-01  1.1669664248745D+00
189  1.8800000000000D+00 -1.5992981548224D-01  1.1812044208659D+00
190  1.8900000000000D+00 -1.3936318699983D-01  1.1945623096072D+00
191  1.9000000000000D+00 -1.1915482524858D-01  1.2070109085545D+00
192  1.9100000000000D+00 -9.9333217264041D-02  1.2185172626222D+00
193  1.9200000000000D+00 -7.9924027413130D-02  1.2290535086014D+00
194  1.9300000000000D+00 -6.0952564956436D-02  1.2385927364913D+00
195  1.9400000000000D+00 -4.2444323619652D-02  1.2471080021680D+00
196  1.9500000000000D+00 -2.4420721533182D-02  1.2545794183770D+00
197  1.9600000000000D+00 -6.9072246584591D-03  1.2609807873738D+00
198  1.9700000000000D+00  1.0078155676847D-02  1.2662982559308D+00
199  1.9800000000000D+00  2.6513015747677D-02  1.2705112472691D+00
200  1.9900000000000D+00  4.2379821891148D-02  1.2736071388625D+00
201  2.0000000000000D+00  5.7661075772220D-02  1.2755736964310D+00
202  2.0100000000000D+00  7.2339117475549D-02  1.2763986754609D+00
203  2.0200000000000D+00  8.6401731079443D-02  1.2760784329480D+00
204  2.0300000000000D+00  9.9831934837666D-02  1.2746024620832D+00
205  2.0400000000000D+00  1.1262087532499D-01  1.2719725345706D+00
206  2.0500000000000D+00  1.2475637097056D-01  1.2681858853405D+00
207  2.0600000000000D+00  1.3622916894209D-01  1.2632441568074D+00
208  2.0700000000000D+00  1.4703357349747D-01  1.2571543148037D+00
209  2.0800000000000D+00  1.5715972906066D-01  1.2499178992037D+00
210  2.0900000000000D+00  1.6660682255523D-01  1.2415488803830D+00
211  2.1000000000000D+00  1.7536954069593D-01  1.2320556315085D+00
212  2.1100000000000D+00  1.8344661578473D-01  1.2214518931722D+00
213  2.1200000000000D+00  1.9083959718735D-01  1.2097552476267D+00
214  2.1300000000000D+00  1.9754631938860D-01  1.1969791989377D+00
215  2.1400000000000D+00  2.0357324698035D-01  1.1831473906007D+00
216  2.1500000000000D+00  2.0892289825407D-01  1.1682794772156D+00
217  2.1600000000000D+00  2.1360089026300D-01  1.1523986195916D+00
218  2.1700000000000D+00  2.1761621282778D-01  1.1355317635476D+00
219  2.1800000000000D+00  2.2097430472288D-01  1.1177020596647D+00
220  2.1900000000000D+00  2.2368774181928D-01  1.0989418266058D+00
221  2.2000000000000D+00  2.2576702998663D-01  1.0792808084932D+00
222  2.2100000000000D+00  2.2722344777707D-01  1.0587502085170D+00
223  2.2200000000000D+00  2.2807285678217D-01  1.0373886398934D+00
224  2.2300000000000D+00  2.2832836336858D-01  1.0152305268063D+00
225  2.2400000000000D+00  2.2800701863012D-01  9.9231665657180D-01
226  2.2500000000000D+00  2.2712697182990D-01  9.6868970522485D-01
227  2.2600000000000D+00  2.2570447522197D-01  9.4438965202602D-01
228  2.2700000000000D+00  2.2376108413028D-01  9.1946459579529D-01
229  2.2800000000000D+00  2.2131676530197D-01  8.9396051919328D-01
230  2.2900000000000D+00  2.1839225465761D-01  8.6792470770703D-01
231  2.3000000000000D+00  2.1501100377759D-01  8.4140838199686D-01
232  2.3100000000000D+00  2.1119555713076D-01  8.1446197086848D-01
233  2.3200000000000D+00  2.0696994742504D-01  7.8713782362816D-01
234  2.3300000000000D+00  2.0235925240263D-01  7.5948976888763D-01
235  2.3400000000000D+00  1.9738851905549D-01  7.3157246453583D-01
236  2.3500000000000D+00  1.9208376146598D-01  7.0344088591865D-01
237  2.3600000000000D+00  1.8647145846651D-01  6.7515103870204D-01
238  2.3700000000000D+00  1.8057893557886D-01  6.4676129710712D-01
239  2.3800000000000D+00  1.7443289823410D-01  6.1832692476411D-01
240  2.3900000000000D+00  1.6806116682084D-01  5.8990606253008D-01
241  2.4000000000000D+00  1.6149238358122D-01  5.6155857291459D-01
242  2.4100000000000D+00  1.5475335185844D-01  5.3333931915323D-01
243  2.4200000000000D+00  1.4787289204159D-01  5.0530774444217D-01
244  2.4300000000000D+00  1.4087991655203D-01  4.7752327166445D-01
245  2.4400000000000D+00  1.3380084318655D-01  4.5003943191097D-01
246  2.4500000000000D+00  1.2666499678420D-01  4.2291599453038D-01
247  2.4600000000000D+00  1.1950064365339D-01  3.9621026974852D-01
248  2.4700000000000D+00  1.1233327992633D-01  3.6997341764543D-01
249  2.4800000000000D+00  1.0519213406384D-01  3.4426436209522D-01
250  2.4900000000000D+00  9.8104096128406D-02  3.1913698194231D-01
251  2.5000000000000D+00  9.1093139367603D-02  2.9463890002674D-01
252  2.5100000000000D+00  8.4187699499394D-02  2.7082684541202D-01
253  2.5200000000000D+00  7.7412782561165D-02  2.4775036621759D-01
254  2.5300000000000D+00  7.0790174279887D-02  2.2545225980335D-01
255  2.5400000000000D+00  6.4346738288962D-02  2.0398555572604D-01
256  2.5500000000000D+00  5.8105330599347D-02  1.8339502714028D-01
257  2.5600000000000D+00  5.2084835641242D-02  1.6371726392403D-01
258  2.5700000000000D+00  4.6309698070851D-02  1.4499996369318D-01
259  2.5800000000000D+00  4.0800600892936D-02  1.2728313809816D-01
260  2.5900000000000D+00  3.5572791008682D-02  1.1059574501867D-01
261  2.6000000000000D+00  3.0647401190207D-02  9.4978429392723D-02
262  2.6100000000000D+00  2.6043138625236D-02  8.0466869778515D-02
263  2.6200000000000D+00  2.1770894249488D-02  6.7081001925097D-02
264  2.6300000000000D+00  1.7847583542710D-02  5.4852671741869D-02
265  2.6400000000000D+00  1.4290299253339D-02  4.3813961983796D-02
266  2.6500000000000D+00  1.1104931303939D-02  3.3974536839036D-02
267  2.6600000000000D+00  8.3033123846216D-03  2.5355770584369D-02
268  2.6700000000000D+00  5.9013482742981D-03  1.7987009127375D-02
269  2.6800000000000D+00  3.8994280393271D-03  1.1866674154375D-02
270  2.6900000000000D+00  2.3041355405240D-03  7.0053716617238D-03
271  2.7000000000000D+00  1.2227956355250D-03  3.7114672977507D-03
272  2.7100000000000D+00  5.0780650200840D-04  1.5393362667767D-03
273  2.7200000000000D+00  8.7020778391235D-05  2.6633823891011D-04
274  2.7300000000000D+00 -1.0768393443762D-04 -3.2396735732532D-04
275  2.7400000000000D+00 -1.3748303207922D-04 -4.1580083484963D-04
276  2.7500000000000D+00 -6.3839314945712D-05 -1.9332660538531D-04
277  2.7600000000000D+00 -2.8558536661132D-07 -1.0140859220130D-06
278  2.7700000000000D+00 -5.2277933109284D-07 -1.8563386712393D-06
279  2.7800000000000D+00 -3.3706867120105D-07 -1.1968981403793D-06
280  2.7900000000000D+00  0.0000000000000D+00  0.0000000000000D+00
281  2.8000000000000D+00  0.0000000000000D+00  0.0000000000000D+00
282  2.8100000000000D+00  0.0000000000000D+00  0.0000000000000D+00
283  2.8200000000000D+00  0.0000000000000D+00  0.0000000000000D+00
284  2.8300000000000D+00  0.0000000000000D+00  0.0000000000000D+00
285  2.8400000000000D+00  0.0000000000000D+00  0.0000000000000D+00
286  2.8500000000000D+00  0.0000000000000D+00  0.0000000000000D+00
287  2.8600000000000D+00  0.0000000000000D+00  0.0000000000000D+00
288  2.8700000000000D+00  0.0000000000000D+00  0.0000000000000D+00
289  2.8800000000000D+00  0.0000000000000D+00  0.0000000000000D+00
290  2.8900000000000D+00  0.0000000000000D+00  0.0000000000000D+00
291  2.9000000000000D+00  0.0000000000000D+00  0.0000000000000D+00
292  2.9100000000000D+00  0.0000000000000D+00  0.0000000000000D+00
293  2.9200000000000D+00  0.0000000000000D+00  0.0000000000000D+00
294  2.9300000000000D+00  0.0000000000000D+00  0.0000000000000D+00
295  2.9400000000000D+00  0.0000000000000D+00  0.0000000000000D+00
296  2.9500000000000D+00  0.0000000000000D+00  0.0000000000000D+00
297  2.9600000000000D+00  0.0000000000000D+00  0.0000000000000D+00
298  2.9700000000000D+00  0.0000000000000D+00  0.0000000000000D+00
299  2.9800000000000D+00  0.0000000000000D+00  0.0000000000000D+00
300  2.9900000000000D+00  0.0000000000000D+00  0.0000000000000D+00
301  3.0000000000000D+00  0.0000000000000D+00  0.0000000000000D+00
302  3.0100000000000D+00  0.0000000000000D+00  0.0000000000000D+00
303  3.0200000000000D+00  0.0000000000000D+00  0.0000000000000D+00
304  3.0300000000000D+00  0.0000000000000D+00  0.0000000000000D+00
305  3.0400000000000D+00  0.0000000000000D+00  0.0000000000000D+00
306  3.0500000000000D+00  0.0000000000000D+00  0.0000000000000D+00
307  3.0600000000000D+00  0.0000000000000D+00  0.0000000000000D+00
308  3.0700000000000D+00  0.0000000000000D+00  0.0000000000000D+00
309  3.0800000000000D+00  0.0000000000000D+00  0.0000000000000D+00
310  3.0900000000000D+00  0.0000000000000D+00  0.0000000000000D+00
311  3.1000000000000D+00  0.0000000000000D+00  0.0000000000000D+00
312  3.1100000000000D+00  0.0000000000000D+00  0.0000000000000D+00
313  3.1200000000000D+00  0.0000000000000D+00  0.0000000000000D+00
314  3.1300000000000D+00  0.0000000000000D+00  0.0000000000000D+00
315  3.1400000000000D+00  0.0000000000000D+00  0.0000000000000D+00
316  3.1500000000000D+00  0.0000000000000D+00  0.0000000000000D+00
317  3.1600000000000D+00  0.0000000000000D+00  0.0000000000000D+00
318  3.1700000000000D+00  0.0000000000000D+00  0.0000000000000D+00
319  3.1800000000000D+00  0.0000000000000D+00  0.0000000000000D+00
320  3.1900000000000D+00  0.0000000000000D+00  0.0000000000000D+00
321  3.2000000000000D+00  0.0000000000000D+00  0.0000000000000D+00
322  3.2100000000000D+00  0.0000000000000D+00  0.0000000000000D+00
323  3.2200000000000D+00  0.0000000000000D+00  0.0000000000000D+00
324  3.2300000000000D+00  0.0000000000000D+00  0.0000000000000D+00
325  3.2400000000000D+00  0.0000000000000D+00  0.0000000000000D+00
326  3.2500000000000D+00  0.0000000000000D+00  0.0000000000000D+00
327  3.2600000000000D+00  0.0000000000000D+00  0.0000000000000D+00
328  3.2700000000000D+00  0.0000000000000D+00  0.0000000000000D+00
329  3.2800000000000D+00  0.0000000000000D+00  0.0000000000000D+00
330  3.2900000000000D+00  0.0000000000000D+00  0.0000000000000D+00
331  3.3000000000000D+00  0.0000000000000D+00  0.0000000000000D+00
332  3.3100000000000D+00  0.0000000000000D+00  0.0000000000000D+00
333  3.3200000000000D+00  0.0000000000000D+00  0.0000000000000D+00
334  3.3300000000000D+00  0.0000000000000D+00  0.0000000000000D+00
335  3.3400000000000D+00  0.0000000000000D+00  0.0000000000000D+00
336  3.3500000000000D+00  0.0000000000000D+00  0.0000000000000D+00
337  3.3600000000000D+00  0.0000000000000D+00  0.0000000000000D+00
338  3.3700000000000D+00  0.0000000000000D+00  0.0000000000000D+00
339  3.3800000000000D+00  0.0000000000000D+00  0.0000000000000D+00
340  3.3900000000000D+00  0.0000000000000D+00  0.0000000000000D+00
341  3.4000000000000D+00  0.0000000000000D+00  0.0000000000000D+00
342  3.4100000000000D+00  0.0000000000000D+00  0.0000000000000D+00
343  3.4200000000000D+00  0.0000000000000D+00  0.0000000000000D+00
344  3.4300000000000D+00  0.0000000000000D+00  0.0000000000000D+00
345  3.4400000000000D+00  0.0000000000000D+00  0.0000000000000D+00
346  3.4500000000000D+00  0.0000000000000D+00  0.0000000000000D+00
347  3.4600000000000D+00  0.0000000000000D+00  0.0000000000000D+00
348  3.4700000000000D+00  0.0000000000000D+00  0.0000000000000D+00
349  3.4800000000000D+00  0.0000000000000D+00  0.0000000000000D+00
350  3.4900000000000D+00  0.0000000000000D+00  0.0000000000000D+00
351  3.5000000000000D+00  0.0000000000000D+00  0.0000000000000D+00
352  3.5100000000000D+00  0.0000000000000D+00  0.0000000000000D+00
353  3.5200000000000D+00  0.0000000000000D+00  0.0000000000000D+00
354  3.5300000000000D+00  0.0000000000000D+00  0.0000000000000D+00
355  3.5400000000000D+00  0.0000000000000D+00  0.0000000000000D+00
356  3.5500000000000D+00  0.0000000000000D+00  0.0000000000000D+00
357  3.5600000000000D+00  0.0000000000000D+00  0.0000000000000D+00
358  3.5700000000000D+00  0.0000000000000D+00  0.0000000000000D+00
359  3.5800000000000D+00  0.0000000000000D+00  0.0000000000000D+00
360  3.5900000000000D+00  0.0000000000000D+00  0.0000000000000D+00
361  3.6000000000000D+00  0.0000000000000D+00  0.0000000000000D+00
362  3.6100000000000D+00  0.0000000000000D+00  0.0000000000000D+00
363  3.6200000000000D+00  0.0000000000000D+00  0.0000000000000D+00
364  3.6300000000000D+00  0.0000000000000D+00  0.0000000000000D+00
365  3.6400000000000D+00  0.0000000000000D+00  0.0000000000000D+00
366  3.6500000000000D+00  0.0000000000000D+00  0.0000000000000D+00
367  3.6600000000000D+00  0.0000000000000D+00  0.0000000000000D+00
368  3.6700000000000D+00  0.0000000000000D+00  0.0000000000000D+00
369  3.6800000000000D+00  0.0000000000000D+00  0.0000000000000D+00
370  3.6900000000000D+00  0.0000000000000D+00  0.0000000000000D+00
371  3.7000000000000D+00  0.0000000000000D+00  0.0000000000000D+00
372  3.7100000000000D+00  0.0000000000000D+00  0.0000000000000D+00
373  3.7200000000000D+00  0.0000000000000D+00  0.0000000000000D+00
374  3.7300000000000D+00  0.0000000000000D+00  0.0000000000000D+00
375  3.7400000000000D+00  0.0000000000000D+00  0.0000000000000D+00
376  3.7500000000000D+00  0.0000000000000D+00  0.0000000000000D+00
377  3.7600000000000D+00  0.0000000000000D+00  0.0000000000000D+00
378  3.7700000000000D+00  0.0000000000000D+00  0.0000000000000D+00
379  3.7800000000000D+00  0.0000000000000D+00  0.0000000000000D+00
380  3.7900000000000D+00  0.0000000000000D+00  0.0000000000000D+00
381  3.8000000000000D+00  0.0000000000000D+00  0.0000000000000D+00
382  3.8100000000000D+00  0.0000000000000D+00  0.0000000000000D+00
383  3.8200000000000D+00  0.0000000000000D+00  0.0000000000000D+00
384  3.8300000000000D+00  0.0000000000000D+00  0.0000000000000D+00
385  3.8400000000000D+00  0.0000000000000D+00  0.0000000000000D+00
386  3.8500000000000D+00  0.0000000000000D+00  0.0000000000000D+00
387  3.8600000000000D+00  0.0000000000000D+00  0.0000000000000D+00
388  3.8700000000000D+00  0.0000000000000D+00  0.0000000000000D+00
389  3.8800000000000D+00  0.0000000000000D+00  0.0000000000000D+00
390  3.8900000000000D+00  0.0000000000000D+00  0.0000000000000D+00
391  3.9000000000000D+00  0.0000000000000D+00  0.0000000000000D+00
392  3.9100000000000D+00  0.0000000000000D+00  0.0000000000000D+00
393  3.9200000000000D+00  0.0000000000000D+00  0.0000000000000D+00
394  3.9300000000000D+00  0.0000000000000D+00  0.0000000000000D+00
395  3.9400000000000D+00  0.0000000000000D+00  0.0000000000000D+00
396  3.9500000000000D+00  0.0000000000000D+00  0.0000000000000D+00
397  3.9600000000000D+00  0.0000000000000D+00  0.0000000000000D+00
398  3.9700000000000D+00  0.0000000000000D+00  0.0000000000000D+00
399  3.9800000000000D+00  0.0000000000000D+00  0.0000000000000D+00
400  3.9900000000000D+00  0.0000000000000D+00  0.0000000000000D+00
401  4.0000000000000D+00  0.0000000000000D+00  0.0000000000000D+00
402  4.0100000000000D+00  0.0000000000000D+00  0.0000000000000D+00
403  4.0200000000000D+00  0.0000000000000D+00  0.0000000000000D+00
404  4.0300000000000D+00  0.0000000000000D+00  0.0000000000000D+00
405  4.0400000000000D+00  0.0000000000000D+00  0.0000000000000D+00
406  4.0500000000000D+00  0.0000000000000D+00  0.0000000000000D+00
407  4.0600000000000D+00  0.0000000000000D+00  0.0000000000000D+00
408  4.0700000000000D+00  0.0000000000000D+00  0.0000000000000D+00
409  4.0800000000000D+00  0.0000000000000D+00  0.0000000000000D+00
410  4.0900000000000D+00  0.0000000000000D+00  0.0000000000000D+00
411  4.1000000000000D+00  0.0000000000000D+00  0.0000000000000D+00
412  4.1100000000000D+00  0.0000000000000D+00  0.0000000000000D+00
413  4.1200000000000D+00  0.0000000000000D+00  0.0000000000000D+00
414  4.1300000000000D+00  0.0000000000000D+00  0.0000000000000D+00
415  4.1400000000000D+00  0.0000000000000D+00  0.0000000000000D+00
416  4.1500000000000D+00  0.0000000000000D+00  0.0000000000000D+00
417  4.1600000000000D+00  0.0000000000000D+00  0.0000000000000D+00
418  4.1700000000000D+00  0.0000000000000D+00  0.0000000000000D+00
419  4.1800000000000D+00  0.0000000000000D+00  0.0000000000000D+00
420  4.1900000000000D+00  0.0000000000000D+00  0.0000000000000D+00
421  4.2000000000000D+00  0.0000000000000D+00  0.0000000000000D+00
422  4.2100000000000D+00  0.0000000000000D+00  0.0000000000000D+00
423  4.2200000000000D+00  0.0000000000000D+00  0.0000000000000D+00
424  4.2300000000000D+00  0.0000000000000D+00  0.0000000000000D+00
425  4.2400000000000D+00  0.0000000000000D+00  0.0000000000000D+00
426  4.2500000000000D+00  0.0000000000000D+00  0.0000000000000D+00
427  4.2600000000000D+00  0.0000000000000D+00  0.0000000000000D+00
428  4.2700000000000D+00  0.0000000000000D+00  0.0000000000000D+00
429  4.2800000000000D+00  0.0000000000000D+00  0.0000000000000D+00
430  4.2900000000000D+00  0.0000000000000D+00  0.0000000000000D+00
431  4.3000000000000D+00  0.0000000000000D+00  0.0000000000000D+00
432  4.3100000000000D+00  0.0000000000000D+00  0.0000000000000D+00
433  4.3200000000000D+00  0.0000000000000D+00  0.0000000000000D+00
434  4.3300000000000D+00  0.0000000000000D+00  0.0000000000000D+00
435  4.3400000000000D+00  0.0000000000000D+00  0.0000000000000D+00
436  4.3500000000000D+00  0.0000000000000D+00  0.0000000000000D+00
437  4.3600000000000D+00  0.0000000000000D+00  0.0000000000000D+00
438  4.3700000000000D+00  0.0000000000000D+00  0.0000000000000D+00
439  4.3800000000000D+00  0.0000000000000D+00  0.0000000000000D+00
440  4.3900000000000D+00  0.0000000000000D+00  0.0000000000000D+00
441  4.4000000000000D+00  0.0000000000000D+00  0.0000000000000D+00
442  4.4100000000000D+00  0.0000000000000D+00  0.0000000000000D+00
443  4.4200000000000D+00  0.0000000000000D+00  0.0000000000000D+00
444  4.4300000000000D+00  0.0000000000000D+00  0.0000000000000D+00