Ge    ONCVPSP  r_core=  1.96  1.87  1.91
32.0000     14.0000      140907    zatom,zion,pspd
8    11     2     4   601     0    pspcod,pspxc,lmax,lloc,mmax,r2well
6.00000000  0.50000000  0.00000000    rchrg fchrg qchrg
2     2     2     0     0    nproj
0                 extension_switch
0                         6.4331289702565D+00  5.5618045913030D-01
1  0.0000000000000D+00 -0.0000000000000D+00 -0.0000000000000D+00
2  1.0000000000000D-02 -3.7763251414791D-02 -2.2191185893812D-02
3  2.0000000000000D-02 -7.5479000141165D-02 -4.4318113042687D-02
4  3.0000000000000D-02 -1.1310001148565D-01 -6.6316937526937D-02
5  4.0000000000000D-02 -1.5057958378317D-01 -8.8124640557949D-02
6  5.0000000000000D-02 -1.8787180754138D-01 -1.0967942979589D-01
7  6.0000000000000D-02 -2.2493181583575D-01 -1.3092112731234D-01
8  7.0000000000000D-02 -2.6171602319429D-01 -1.5179153997901D-01
9  8.0000000000000D-02 -2.9818235034541D-01 -1.7223480826664D-01
10  9.0000000000000D-02 -3.3429043235744D-01 -1.9219772967059D-01
11  1.0000000000000D-01 -3.7000180790082D-01 -2.1163005328467D-01
12  1.1000000000000D-01 -4.0528008756507D-01 -2.3048474234653D-01
13  1.2000000000000D-01 -4.4009109941448D-01 -2.4871820195786D-01
14  1.3000000000000D-01 -4.7440301021056D-01 -2.6629046954854D-01
15  1.4000000000000D-01 -5.0818642107177D-01 -2.8316536617484D-01
16  1.5000000000000D-01 -5.4141443648339D-01 -2.9931060694637D-01
17  1.6000000000000D-01 -5.7406270611971D-01 -3.1469786972182D-01
18  1.7000000000000D-01 -6.0610943896282D-01 -3.2930282122678D-01
19  1.8000000000000D-01 -6.3753538981553D-01 -3.4310510069795D-01
20  1.9000000000000D-01 -6.6832381837644D-01 -3.5608826123934D-01
21  2.0000000000000D-01 -6.9846042152366D-01 -3.6823966983483D-01
22  2.1000000000000D-01 -7.2793323973034D-01 -3.7955036733772D-01
23  2.2000000000000D-01 -7.5673253879241D-01 -3.9001489020319D-01
24  2.3000000000000D-01 -7.8485066833838D-01 -3.9963105612858D-01
25  2.4000000000000D-01 -8.1228189887914D-01 -4.0839971622767D-01
26  2.5000000000000D-01 -8.3902223995998D-01 -4.1632447758766D-01
27  2.6000000000000D-01 -8.6506924007098D-01 -4.2341139717817D-01
28  2.7000000000000D-01 -8.9042177343275D-01 -4.2966865484103D-01
29  2.8000000000000D-01 -9.1507981376339D-01 -4.3510620551770D-01
30  2.9000000000000D-01 -9.3904419879606D-01 -4.3973541641358D-01
31  3.0000000000000D-01 -9.6231638937694D-01 -4.4356869493568D-01
32  3.1000000000000D-01 -9.8489822408154D-01 -4.4661910881337D-01
33  3.2000000000000D-01 -1.0067916744007D+00 -4.4890000612296D-01
34  3.3000000000000D-01 -1.0279986039409D+00 -4.5042464051530D-01
35  3.4000000000000D-01 -1.0485205309699D+00 -4.5120580058940D-01
36  3.5000000000000D-01 -1.0683584010396D+00 -4.5125545377099D-01
37  3.6000000000000D-01 -1.0875123726323D+00 -4.5058440929108D-01
38  3.7000000000000D-01 -1.1059816182201D+00 -4.4920200398414D-01
39  3.8000000000000D-01 -1.1237641351841D+00 -4.4711580223328D-01
40  3.9000000000000D-01 -1.1408565885788D+00 -4.4433134436390D-01
41  4.0000000000000D-01 -1.1572541674224D+00 -4.4085191499450D-01
42  4.1000000000000D-01 -1.1729504671987D+00 -4.3667835116151D-01
43  4.2000000000000D-01 -1.1879373985857D+00 -4.3180889035135D-01
44  4.3000000000000D-01 -1.2022051221846D+00 -4.2623905814548D-01
45  4.4000000000000D-01 -1.2157420151360D+00 -4.1996160494935D-01
46  4.5000000000000D-01 -1.2285346624843D+00 -4.1296648055177D-01
47  4.6000000000000D-01 -1.2405678818504D+00 -4.0524086029968D-01
48  4.7000000000000D-01 -1.2518247769101D+00 -3.9676921588992D-01
49  4.8000000000000D-01 -1.2622868211756D+00 -3.8753343337760D-01
50  4.9000000000000D-01 -1.2719339714297D+00 -3.7751297770595D-01
51  5.0000000000000D-01 -1.2807448076192D+00 -3.6668509893774D-01
52  5.1000000000000D-01 -1.2886967016362D+00 -3.5502508281703D-01
53  5.2000000000000D-01 -1.2957660150610D+00 -3.4250654976315D-01
54  5.3000000000000D-01 -1.3019283110191D+00 -3.2910177557297D-01
55  5.4000000000000D-01 -1.3071586090621D+00 -3.1478207841095D-01
56  5.5000000000000D-01 -1.3114316222388D+00 -2.9951818497940D-01
57  5.6000000000000D-01 -1.3147220665048D+00 -2.8328070382370D-01
58  5.7000000000000D-01 -1.3170049141328D+00 -2.6604052072917D-01
59  5.8000000000000D-01 -1.3182557427209D+00 -2.4776933802424D-01
60  5.9000000000000D-01 -1.3184509833179D+00 -2.2844006567236D-01
61  6.0000000000000D-01 -1.3175683244097D+00 -2.0802745023811D-01
62  6.1000000000000D-01 -1.3155869151460D+00 -1.8650840090563D-01
63  6.2000000000000D-01 -1.3124877983906D+00 -1.6386266901277D-01
64  6.3000000000000D-01 -1.3082541494665D+00 -1.4007323217820D-01
65  6.4000000000000D-01 -1.3028715321553D+00 -1.1512670527281D-01
66  6.5000000000000D-01 -1.2963283397132D+00 -8.9014042237397D-02
67  6.6000000000000D-01 -1.2886159255017D+00 -6.1730757033284D-02
68  6.7000000000000D-01 -1.2797288623707D+00 -3.3277345589978D-02
69  6.8000000000000D-01 -1.2696652641297D+00 -3.6598089510128D-03
70  6.9000000000000D-01 -1.2584269454335D+00  2.7110075602976D-02
71  7.0000000000000D-01 -1.2460195743661D+00  5.9014494190544D-02
72  7.1000000000000D-01 -1.2324528327221D+00  9.2029322312606D-02
73  7.2000000000000D-01 -1.2177405243948D+00  1.2612393191225D-01
74  7.3000000000000D-01 -1.2019007465069D+00  1.6126089464186D-01
75  7.4000000000000D-01 -1.1849558342048D+00  1.9739604831366D-01
76  7.5000000000000D-01 -1.1669324104219D+00  2.3447839369134D-01
77  7.6000000000000D-01 -1.1478613640670D+00  2.7245010561360D-01
78  7.7000000000000D-01 -1.1277777912479D+00  3.1124660345133D-01
79  7.8000000000000D-01 -1.1067208996078D+00  3.5079668130967D-01
80  7.9000000000000D-01 -1.0847338762519D+00  3.9102269777624D-01
81  8.0000000000000D-01 -1.0618637156148D+00  4.3184083244632D-01
82  8.1000000000000D-01 -1.0381610330968D+00  4.7316136468120D-01
83  8.2000000000000D-01 -1.0136798150875D+00  5.1488906085637D-01
84  8.3000000000000D-01 -9.8847715439986D-01  5.5692358754040D-01
85  8.4000000000000D-01 -9.6261295927196D-01  5.9915997046656D-01
86  8.5000000000000D-01 -9.3614963326256D-01  6.4148910531929D-01
87  8.6000000000000D-01 -9.0915173182717D-01  6.8379831123369D-01
88  8.7000000000000D-01 -8.8168559864562D-01  7.2597192262305D-01
89  8.8000000000000D-01 -8.5381898500142D-01  7.6789191454123D-01
90  8.9000000000000D-01 -8.2562066750600D-01  8.0943853758995D-01
91  9.0000000000000D-01 -7.9716003282514D-01  8.5049101178154D-01
92  9.1000000000000D-01 -7.6850664869217D-01  8.9092825184727D-01
93  9.2000000000000D-01 -7.3972987736114D-01  9.3062953179831D-01
94  9.3000000000000D-01 -7.1089845505746D-01  9.6947521151248D-01
95  9.4000000000000D-01 -6.8208008571026D-01  1.0073474488764D+00
96  9.5000000000000D-01 -6.5334104409680D-01  1.0441309050170D+00
97  9.6000000000000D-01 -6.2474579233375D-01  1.0797134362048D+00
98  9.7000000000000D-01 -5.9635661352734D-01  1.1139867660799D+00
99  9.8000000000000D-01 -5.6823326618658D-01  1.1468471320438D+00
100  9.9000000000000D-01 -5.4043280001168D-01  1.1781956579678D+00
101  1.0000000000000D+00 -5.1300892778669D-01  1.2079395119972D+00
102  1.0100000000000D+00 -4.8601190300758D-01  1.2359922052564D+00
103  1.0200000000000D+00 -4.5948838091459D-01  1.2622739160559D+00
104  1.0300000000000D+00 -4.3348115621924D-01  1.2867120420859D+00
105  1.0400000000000D+00 -4.0802899938185D-01  1.3092415889366D+00
106  1.0500000000000D+00 -3.8316680507366D-01  1.3298049769119D+00
107  1.0600000000000D+00 -3.5892466351329D-01  1.3483538872203D+00
108  1.0700000000000D+00 -3.3532848967645D-01  1.3648482288365D+00
109  1.0800000000000D+00 -3.1239992382222D-01  1.3792564420420D+00
110  1.0900000000000D+00 -2.9015636188485D-01  1.3915555656782D+00
111  1.1000000000000D+00 -2.6861112309635D-01  1.4017310123313D+00
112  1.1100000000000D+00 -2.4777270561533D-01  1.4097783058388D+00
113  1.1200000000000D+00 -2.2764591342017D-01  1.4157009727273D+00
114  1.1300000000000D+00 -2.0823172186495D-01  1.4195109742997D+00
115  1.1400000000000D+00 -1.8952765204864D-01  1.4212280004994D+00
116  1.1500000000000D+00 -1.7152709595959D-01  1.4208814049219D+00
117  1.1600000000000D+00 -1.5422061778033D-01  1.4185074747927D+00
118  1.1700000000000D+00 -1.3759593661773D-01  1.4141496165475D+00
119  1.1800000000000D+00 -1.2163799588449D-01  1.4078584561912D+00
120  1.1900000000000D+00 -1.0632929470547D-01  1.3996917334183D+00
121  1.2000000000000D+00 -9.1650532150795D-02  1.3897126863153D+00
122  1.2100000000000D+00 -7.7580617472868D-02  1.3779899435408D+00
123  1.2200000000000D+00 -6.4097167324214D-02  1.3645977795890D+00
124  1.2300000000000D+00 -5.1176965731469D-02  1.3496143862169D+00
125  1.2400000000000D+00 -3.8795870349441D-02  1.3331219527081D+00
126  1.2500000000000D+00 -2.6929704727464D-02  1.3152059791984D+00
127  1.2600000000000D+00 -1.5554536706336D-02  1.2959542177378D+00
128  1.2700000000000D+00 -4.6462120848266D-03  1.2754570609682D+00
129  1.2800000000000D+00  5.8182377706451D-03  1.2538059058171D+00
130  1.2900000000000D+00  1.5860554356653D-02  1.2310924892358D+00
131  1.3000000000000D+00  2.5502276148794D-02  1.2074102353110D+00
132  1.3100000000000D+00  3.4762349935461D-02  1.1828507994764D+00
133  1.3200000000000D+00  4.3658077661790D-02  1.1575048767504D+00
134  1.3300000000000D+00  5.2206360285503D-02  1.1314643152538D+00
135  1.3400000000000D+00  6.0419835817790D-02  1.1048155161876D+00
136  1.3500000000000D+00  6.8310299914254D-02  1.0776447000349D+00
137  1.3600000000000D+00  7.5887706144896D-02  1.0500364452899D+00
138  1.3700000000000D+00  8.3157995675806D-02  1.0220689535207D+00
139  1.3800000000000D+00  9.0126785372947D-02  9.9382107700452D-01
140  1.3900000000000D+00  9.6795940437490D-02  9.6536529951960D-01
141  1.4000000000000D+00  1.0316530266201D-01  9.3677045134210D-01
142  1.4100000000000D+00  1.0923373943683D-01  9.0810467513506D-01
143  1.4200000000000D+00  1.1499598947617D-01  8.7942656842557D-01
144  1.4300000000000D+00  1.2044686865127D-01  8.5079589828256D-01
145  1.4400000000000D+00  1.2557813513237D-01  8.2226471455625D-01
146  1.4500000000000D+00  1.3038056181208D-01  7.9388188517702D-01
147  1.4600000000000D+00  1.3484380982004D-01  7.6569403447806D-01
148  1.4700000000000D+00  1.3895587897867D-01  7.3773961353756D-01
149  1.4800000000000D+00  1.4270470495338D-01  7.1005877866188D-01
150  1.4900000000000D+00  1.4607713718982D-01  6.8268219868170D-01
151  1.5000000000000D+00  1.4906020507174D-01  6.5564153237709D-01
152  1.5100000000000D+00  1.5164079707371D-01  6.2896256792483D-01
153  1.5200000000000D+00  1.5380655372179D-01  6.0266895535856D-01
154  1.5300000000000D+00  1.5554515539519D-01  5.7678207490189D-01
155  1.5400000000000D+00  1.5684651726755D-01  5.5131920692309D-01
156  1.5500000000000D+00  1.5769992111734D-01  5.2629779882181D-01
157  1.5600000000000D+00  1.5809897996582D-01  5.0173058815468D-01
158  1.5700000000000D+00  1.5803570886815D-01  4.7763149294554D-01
159  1.5800000000000D+00  1.5750815016881D-01  4.5401060012721D-01
160  1.5900000000000D+00  1.5651282630541D-01  4.3087885489557D-01
161  1.6000000000000D+00  1.5505234625945D-01  4.0824512840873D-01
162  1.6100000000000D+00  1.5312890381212D-01  3.8611855924932D-01
163  1.6200000000000D+00  1.5075027795626D-01  3.6450752287732D-01
164  1.6300000000000D+00  1.4792496295933D-01  3.4342052307193D-01
165  1.6400000000000D+00  1.4466638193062D-01  3.2286607518493D-01
166  1.6500000000000D+00  1.4098958653729D-01  3.0285292969451D-01
167  1.6600000000000D+00  1.3691393626232D-01  2.8339025897784D-01
168  1.6700000000000D+00  1.3246093458369D-01  2.6448761195047D-01
169  1.6800000000000D+00  1.2765592861963D-01  2.4615516579083D-01
170  1.6900000000000D+00  1.2252644402804D-01  2.2840348916830D-01
171  1.7000000000000D+00  1.1710356521559D-01  2.1124388224929D-01
172  1.7100000000000D+00  1.1142015022168D-01  1.9468785777894D-01
173  1.7200000000000D+00  1.0551241081973D-01  1.7874766438700D-01
174  1.7300000000000D+00  9.9417672435677D-02  1.6343544835623D-01
175  1.7400000000000D+00  9.3176254531769D-02  1.4876388015555D-01
176  1.7500000000000D+00  8.6829008065832D-02  1.3474527707198D-01
177  1.7600000000000D+00  8.0418897152049D-02  1.2139180616594D-01
178  1.7700000000000D+00  7.3989377568952D-02  1.0871543176477D-01
179  1.7800000000000D+00  6.7584149379894D-02  9.6726473987325D-02
180  1.7900000000000D+00  6.1248450045883D-02  8.5436037141923D-02
181  1.8000000000000D+00  5.5024411493802D-02  7.4850859750412D-02
182  1.8100000000000D+00  4.8958354103957D-02  6.4980735381412D-02
183  1.8200000000000D+00  4.3088821449092D-02  5.5827281188228D-02
184  1.8300000000000D+00  3.7460936687235D-02  4.7397093264692D-02
185  1.8400000000000D+00  3.2109384219584D-02  3.9686581862715D-02
186  1.8500000000000D+00  2.7074749085731D-02  3.2696286419937D-02
187  1.8600000000000D+00  2.2388170181514D-02  2.6417876345506D-02
188  1.8700000000000D+00  1.8082272479831D-02  2.0842552906102D-02
189  1.8800000000000D+00  1.4185151523073D-02  1.5958532762526D-02
190  1.8900000000000D+00  1.0719159585808D-02  1.1749493930505D-02
191  1.9000000000000D+00  7.7096867087875D-03  8.2002572279986D-03
192  1.9100000000000D+00  5.1673016707218D-03  5.2893845982218D-03
193  1.9200000000000D+00  3.1143995699786D-03  2.9993223713969D-03
194  1.9300000000000D+00  1.5511034304355D-03  1.3029413090553D-03
195  1.9400000000000D+00  5.3787127710815D-04  2.0864471584959D-04
196  1.9500000000000D+00 -1.2708958029995D-05 -3.6797104645539D-04
197  1.9600000000000D+00 -2.1000271833572D-04 -5.0193952782417D-04
198  1.9700000000000D+00 -1.5475630566745D-04 -2.9804582750191D-04
199  1.9800000000000D+00  4.7182560834767D-07  1.3600500135865D-06
200  1.9900000000000D+00  1.1942531930642D-05  3.4424669681259D-05
201  2.0000000000000D+00  4.5982002661506D-06  1.3254436011543D-05
202  2.0100000000000D+00  0.0000000000000D+00  0.0000000000000D+00
203  2.0200000000000D+00  0.0000000000000D+00  0.0000000000000D+00
204  2.0300000000000D+00  0.0000000000000D+00  0.0000000000000D+00
205  2.0400000000000D+00  0.0000000000000D+00  0.0000000000000D+00
206  2.0500000000000D+00  0.0000000000000D+00  0.0000000000000D+00
207  2.0600000000000D+00  0.0000000000000D+00  0.0000000000000D+00
208  2.0700000000000D+00  0.0000000000000D+00  0.0000000000000D+00
209  2.0800000000000D+00  0.0000000000000D+00  0.0000000000000D+00
210  2.0900000000000D+00  0.0000000000000D+00  0.0000000000000D+00
211  2.1000000000000D+00  0.0000000000000D+00  0.0000000000000D+00
212  2.1100000000000D+00  0.0000000000000D+00  0.0000000000000D+00
213  2.1200000000000D+00  0.0000000000000D+00  0.0000000000000D+00
214  2.1300000000000D+00  0.0000000000000D+00  0.0000000000000D+00
215  2.1400000000000D+00  0.0000000000000D+00  0.0000000000000D+00
216  2.1500000000000D+00  0.0000000000000D+00  0.0000000000000D+00
217  2.1600000000000D+00  0.0000000000000D+00  0.0000000000000D+00
218  2.1700000000000D+00  0.0000000000000D+00  0.0000000000000D+00
219  2.1800000000000D+00  0.0000000000000D+00  0.0000000000000D+00
220  2.1900000000000D+00  0.0000000000000D+00  0.0000000000000D+00
221  2.2000000000000D+00  0.0000000000000D+00  0.0000000000000D+00
222  2.2100000000000D+00  0.0000000000000D+00  0.0000000000000D+00
223  2.2200000000000D+00  0.0000000000000D+00  0.0000000000000D+00
224  2.2300000000000D+00  0.0000000000000D+00  0.0000000000000D+00
225  2.2400000000000D+00  0.0000000000000D+00  0.0000000000000D+00
226  2.2500000000000D+00  0.0000000000000D+00  0.0000000000000D+00
227  2.2600000000000D+00  0.0000000000000D+00  0.0000000000000D+00
228  2.2700000000000D+00  0.0000000000000D+00  0.0000000000000D+00
229  2.2800000000000D+00  0.0000000000000D+00  0.0000000000000D+00
230  2.2900000000000D+00  0.0000000000000D+00  0.0000000000000D+00
231  2.3000000000000D+00  0.0000000000000D+00  0.0000000000000D+00
232  2.3100000000000D+00  0.0000000000000D+00  0.0000000000000D+00
233  2.3200000000000D+00  0.0000000000000D+00  0.0000000000000D+00
234  2.3300000000000D+00  0.0000000000000D+00  0.0000000000000D+00
235  2.3400000000000D+00  0.0000000000000D+00  0.0000000000000D+00
236  2.3500000000000D+00  0.0000000000000D+00  0.0000000000000D+00
237  2.3600000000000D+00  0.0000000000000D+00  0.0000000000000D+00
238  2.3700000000000D+00  0.0000000000000D+00  0.0000000000000D+00
239  2.3800000000000D+00  0.0000000000000D+00  0.0000000000000D+00
240  2.3900000000000D+00  0.0000000000000D+00  0.0000000000000D+00
241  2.4000000000000D+00  0.0000000000000D+00  0.0000000000000D+00
242  2.4100000000000D+00  0.0000000000000D+00  0.0000000000000D+00
243  2.4200000000000D+00  0.0000000000000D+00  0.0000000000000D+00
244  2.4300000000000D+00  0.0000000000000D+00  0.0000000000000D+00
245  2.4400000000000D+00  0.0000000000000D+00  0.0000000000000D+00
246  2.4500000000000D+00  0.0000000000000D+00  0.0000000000000D+00
247  2.4600000000000D+00  0.0000000000000D+00  0.0000000000000D+00
248  2.4700000000000D+00  0.0000000000000D+00  0.0000000000000D+00
249  2.4800000000000D+00  0.0000000000000D+00  0.0000000000000D+00
250  2.4900000000000D+00  0.0000000000000D+00  0.0000000000000D+00
251  2.5000000000000D+00  0.0000000000000D+00  0.0000000000000D+00
252  2.5100000000000D+00  0.0000000000000D+00  0.0000000000000D+00
253  2.5200000000000D+00  0.0000000000000D+00  0.0000000000000D+00
254  2.5300000000000D+00  0.0000000000000D+00  0.0000000000000D+00
255  2.5400000000000D+00  0.0000000000000D+00  0.0000000000000D+00
256  2.5500000000000D+00  0.0000000000000D+00  0.0000000000000D+00
257  2.5600000000000D+00  0.0000000000000D+00  0.0000000000000D+00
258  2.5700000000000D+00  0.0000000000000D+00  0.0000000000000D+00
259  2.5800000000000D+00  0.0000000000000D+00  0.0000000000000D+00
260  2.5900000000000D+00  0.0000000000000D+00  0.0000000000000D+00
261  2.6000000000000D+00  0.0000000000000D+00  0.0000000000000D+00
262  2.6100000000000D+00  0.0000000000000D+00  0.0000000000000D+00
263  2.6200000000000D+00  0.0000000000000D+00  0.0000000000000D+00
264  2.6300000000000D+00  0.0000000000000D+00  0.0000000000000D+00
265  2.6400000000000D+00  0.0000000000000D+00  0.0000000000000D+00
266  2.6500000000000D+00  0.0000000000000D+00  0.0000000000000D+00
267  2.6600000000000D+00  0.0000000000000D+00  0.0000000000000D+00
268  2.6700000000000D+00  0.0000000000000D+00  0.0000000000000D+00
269  2.6800000000000D+00  0.0000000000000D+00  0.0000000000000D+00
270  2.6900000000000D+00  0.0000000000000D+00  0.0000000000000D+00
271  2.7000000000000D+00  0.0000000000000D+00  0.0000000000000D+00
272  2.7100000000000D+00  0.0000000000000D+00  0.0000000000000D+00
273  2.7200000000000D+00  0.0000000000000D+00  0.0000000000000D+00
274  2.7300000000000D+00  0.0000000000000D+00  0.0000000000000D+00
275  2.7400000000000D+00  0.0000000000000D+00  0.0000000000000D+00
276  2.7500000000000D+00  0.0000000000000D+00  0.0000000000000D+00
277  2.7600000000000D+00  0.0000000000000D+00  0.0000000000000D+00
278  2.7700000000000D+00  0.0000000000000D+00  0.0000000000000D+00
279  2.7800000000000D+00  0.0000000000000D+00  0.0000000000000D+00
280  2.7900000000000D+00  0.0000000000000D+00  0.0000000000000D+00
281  2.8000000000000D+00  0.0000000000000D+00  0.0000000000000D+00
282  2.8100000000000D+00  0.0000000000000D+00  0.0000000000000D+00
283  2.8200000000000D+00  0.0000000000000D+00  0.0000000000000D+00
284  2.8300000000000D+00  0.0000000000000D+00  0.0000000000000D+00
285  2.8400000000000D+00  0.0000000000000D+00  0.0000000000000D+00
286  2.8500000000000D+00  0.0000000000000D+00  0.0000000000000D+00
287  2.8600000000000D+00  0.0000000000000D+00  0.0000000000000D+00
288  2.8700000000000D+00  0.0000000000000D+00  0.0000000000000D+00
289  2.8800000000000D+00  0.0000000000000D+00  0.0000000000000D+00
290  2.8900000000000D+00  0.0000000000000D+00  0.0000000000000D+00
291  2.9000000000000D+00  0.0000000000000D+00  0.0000000000000D+00
292  2.9100000000000D+00  0.0000000000000D+00  0.0000000000000D+00
293  2.9200000000000D+00  0.0000000000000D+00  0.0000000000000D+00
294  2.9300000000000D+00  0.0000000000000D+00  0.0000000000000D+00
295  2.9400000000000D+00  0.0000000000000D+00  0.0000000000000D+00
296  2.9500000000000D+00  0.0000000000000D+00  0.0000000000000D+00
297  2.9600000000000D+00  0.0000000000000D+00  0.0000000000000D+00
298  2.9700000000000D+00  0.0000000000000D+00  0.0000000000000D+00
299  2.9800000000000D+00  0.0000000000000D+00  0.0000000000000D+00
300  2.9900000000000D+00  0.0000000000000D+00  0.0000000000000D+00
301  3.0000000000000D+00  0.0000000000000D+00  0.0000000000000D+00
302  3.0100000000000D+00  0.0000000000000D+00  0.0000000000000D+00
303  3.0200000000000D+00  0.0000000000000D+00  0.0000000000000D+00
304  3.0300000000000D+00  0.0000000000000D+00  0.0000000000000D+00
305  3.0400000000000D+00  0.0000000000000D+00  0.0000000000000D+00
306  3.0500000000000D+00  0.0000000000000D+00  0.0000000000000D+00
307  3.0600000000000D+00  0.0000000000000D+00  0.0000000000000D+00
308  3.0700000000000D+00  0.0000000000000D+00  0.0000000000000D+00
309  3.0800000000000D+00  0.0000000000000D+00  0.0000000000000D+00
310  3.0900000000000D+00  0.0000000000000D+00  0.0000000000000D+00
311  3.1000000000000D+00  0.0000000000000D+00  0.0000000000000D+00
312  3.1100000000000D+00  0.0000000000000D+00  0.0000000000000D+00
313  3.1200000000000D+00  0.0000000000000D+00  0.0000000000000D+00
314  3.1300000000000D+00  0.0000000000000D+00  0.0000000000000D+00
315  3.1400000000000D+00  0.0000000000000D+00  0.0000000000000D+00
316  3.1500000000000D+00  0.0000000000000D+00  0.0000000000000D+00
317  3.1600000000000D+00  0.0000000000000D+00  0.0000000000000D+00
318  3.1700000000000D+00  0.0000000000000D+00  0.0000000000000D+00
319  3.1800000000000D+00  0.0000000000000D+00  0.0000000000000D+00
320  3.1900000000000D+00  0.0000000000000D+00  0.0000000000000D+00
321  3.2000000000000D+00  0.0000000000000D+00  0.0000000000000D+00
322  3.2100000000000D+00  0.0000000000000D+00  0.0000000000000D+00
323  3.2200000000000D+00  0.0000000000000D+00  0.0000000000000D+00
324  3.2300000000000D+00  0.0000000000000D+00  0.0000000000000D+00
325  3.2400000000000D+00  0.0000000000000D+00  0.0000000000000D+00
326  3.2500000000000D+00  0.0000000000000D+00  0.0000000000000D+00
327  3.2600000000000D+00  0.0000000000000D+00  0.0000000000000D+00
328  3.2700000000000D+00  0.0000000000000D+00  0.0000000000000D+00
329  3.2800000000000D+00  0.0000000000000D+00  0.0000000000000D+00
330  3.2900000000000D+00  0.0000000000000D+00  0.0000000000000D+00
331  3.3000000000000D+00  0.0000000000000D+00  0.0000000000000D+00
332  3.3100000000000D+00  0.0000000000000D+00  0.0000000000000D+00
333  3.3200000000000D+00  0.0000000000000D+00  0.0000000000000D+00
334  3.3300000000000D+00  0.0000000000000D+00  0.0000000000000D+00
335  3.3400000000000D+00  0.0000000000000D+00  0.0000000000000D+00
336  3.3500000000000D+00  0.0000000000000D+00  0.0000000000000D+00
337  3.3600000000000D+00  0.0000000000000D+00  0.0000000000000D+00
338  3.3700000000000D+00  0.0000000000000D+00  0.0000000000000D+00
339  3.3800000000000D+00  0.0000000000000D+00  0.0000000000000D+00
340  3.3900000000000D+00  0.0000000000000D+00  0.0000000000000D+00
341  3.4000000000000D+00  0.0000000000000D+00  0.0000000000000D+00
342  3.4100000000000D+00  0.0000000000000D+00  0.0000000000000D+00
343  3.4200000000000D+00  0.0000000000000D+00  0.0000000000000D+00
344  3.4300000000000D+00  0.0000000000000D+00  0.0000000000000D+00
345  3.4400000000000D+00  0.0000000000000D+00  0.0000000000000D+00
346  3.4500000000000D+00  0.0000000000000D+00  0.0000000000000D+00
347  3.4600000000000D+00  0.0000000000000D+00  0.0000000000000D+00
348  3.4700000000000D+00  0.0000000000000D+00  0.0000000000000D+00
349  3.4800000000000D+00  0.0000000000000D+00  0.0000000000000D+00
350  3.4900000000000D+00  0.0000000000000D+00  0.0000000000000D+00
351  3.5000000000000D+00  0.0000000000000D+00  0.0000000000000D+00
352  3.5100000000000D+00  0.0000000000000D+00  0.0000000000000D+00
353  3.5200000000000D+00  0.0000000000000D+00  0.0000000000000D+00
354  3.5300000000000D+00  0.0000000000000D+00  0.0000000000000D+00
355  3.5400000000000D+00  0.0000000000000D+00  0.0000000000000D+00
356  3.5500000000000D+00  0.0000000000000D+00  0.0000000000000D+00
357  3.5600000000000D+00  0.0000000000000D+00  0.0000000000000D+00
358  3.5700000000000D+00  0.0000000000000D+00  0.0000000000000D+00
359  3.5800000000000D+00  0.0000000000000D+00  0.0000000000000D+00
360  3.5900000000000D+00  0.0000000000000D+00  0.0000000000000D+00
361  3.6000000000000D+00  0.0000000000000D+00  0.0000000000000D+00
362  3.6100000000000D+00  0.0000000000000D+00  0.0000000000000D+00
363  3.6200000000000D+00  0.0000000000000D+00  0.0000000000000D+00
364  3.6300000000000D+00  0.0000000000000D+00  0.0000000000000D+00
365  3.6400000000000D+00  0.0000000000000D+00  0.0000000000000D+00
366  3.6500000000000D+00  0.0000000000000D+00  0.0000000000000D+00
367  3.6600000000000D+00  0.0000000000000D+00  0.0000000000000D+00
368  3.6700000000000D+00  0.0000000000000D+00  0.0000000000000D+00
369  3.6800000000000D+00  0.0000000000000D+00  0.0000000000000D+00
370  3.6900000000000D+00  0.0000000000000D+00  0.0000000000000D+00
371  3.7000000000000D+00  0.0000000000000D+00  0.0000000000000D+00
372  3.7100000000000D+00  0.0000000000000D+00  0.0000000000000D+00
373  3.7200000000000D+00  0.0000000000000D+00  0.0000000000000D+00
374  3.7300000000000D+00  0.0000000000000D+00  0.0000000000000D+00
375  3.7400000000000D+00  0.0000000000000D+00  0.0000000000000D+00
376  3.7500000000000D+00  0.0000000000000D+00  0.0000000000000D+00
377  3.7600000000000D+00  0.0000000000000D+00  0.0000000000000D+00
378  3.7700000000000D+00  0.0000000000000D+00  0.0000000000000D+00
379  3.7800000000000D+00  0.0000000000000D+00  0.0000000000000D+00
380  3.7900000000000D+00  0.0000000000000D+00  0.0000000000000D+00
381  3.8000000000000D+00  0.0000000000000D+00  0.0000000000000D+00
382  3.8100000000000D+00  0.0000000000000D+00  0.0000000000000D+00
383  3.8200000000000D+00  0.0000000000000D+00  0.0000000000000D+00
384  3.8300000000000D+00  0.0000000000000D+00  0.0000000000000D+00
385  3.8400000000000D+00  0.0000000000000D+00  0.0000000000000D+00
386  3.8500000000000D+00  0.0000000000000D+00  0.0000000000000D+00
387  3.8600000000000D+00  0.0000000000000D+00  0.0000000000000D+00
388  3.8700000000000D+00  0.0000000000000D+00  0.0000000000000D+00
389  3.8800000000000D+00  0.0000000000000D+00  0.0000000000000D+00
390  3.8900000000000D+00  0.0000000000000D+00  0.0000000000000D+00
391  3.9000000000000D+00  0.0000000000000D+00  0.0000000000000D+00
392  3.9100000000000D+00  0.0000000000000D+00  0.0000000000000D+00
393  3.9200000000000D+00  0.0000000000000D+00  0.0000000000000D+00
394  3.9300000000000D+00  0.0000000000000D+00  0.0000000000000D+00
395  3.9400000000000D+00  0.0000000000000D+00  0.0000000000000D+00
396  3.9500000000000D+00  0.0000000000000D+00  0.0000000000000D+00
397  3.9600000000000D+00  0.0000000000000D+00  0.0000000000000D+00
398  3.9700000000000D+00  0.0000000000000D+00  0.0000000000000D+00
399  3.9800000000000D+00  0.0000000000000D+00  0.0000000000000D+00
400  3.9900000000000D+00  0.0000000000000D+00  0.0000000000000D+00
401  4.0000000000000D+00  0.0000000000000D+00  0.0000000000000D+00
402  4.0100000000000D+00  0.0000000000000D+00  0.0000000000000D+00
403  4.0200000000000D+00  0.0000000000000D+00  0.0000000000000D+00
404  4.0300000000000D+00  0.0000000000000D+00  0.0000000000000D+00
405  4.0400000000000D+00  0.0000000000000D+00  0.0000000000000D+00
406  4.0500000000000D+00  0.0000000000000D+00  0.0000000000000D+00
407  4.0600000000000D+00  0.0000000000000D+00  0.0000000000000D+00
408  4.0700000000000D+00  0.0000000000000D+00  0.0000000000000D+00
409  4.0800000000000D+00  0.0000000000000D+00  0.0000000000000D+00
410  4.0900000000000D+00  0.0000000000000D+00  0.0000000000000D+00
411  4.1000000000000D+00  0.0000000000000D+00  0.0000000000000D+00
412  4.1100000000000D+00  0.0000000000000D+00  0.0000000000000D+00
413  4.1200000000000D+00  0.0000000000000D+00  0.0000000000000D+00
414  4.1300000000000D+00  0.0000000000000D+00  0.0000000000000D+00
415  4.1400000000000D+00  0.0000000000000D+00  0.0000000000000D+00
416  4.1500000000000D+00  0.0000000000000D+00  0.0000000000000D+00
417  4.1600000000000D+00  0.0000000000000D+00  0.0000000000000D+00
418  4.1700000000000D+00  0.0000000000000D+00  0.0000000000000D+00
419  4.1800000000000D+00  0.0000000000000D+00  0.0000000000000D+00
420  4.1900000000000D+00  0.0000000000000D+00  0.0000000000000D+00
421  4.2000000000000D+00  0.0000000000000D+00  0.0000000000000D+00
422  4.2100000000000D+00  0.0000000000000D+00  0.0000000000000D+00
423  4.2200000000000D+00  0.0000000000000D+00  0.0000000000000D+00
424  4.2300000000000D+00  0.0000000000000D+00  0.0000000000000D+00
425  4.2400000000000D+00  0.0000000000000D+00  0.0000000000000D+00
426  4.2500000000000D+00  0.0000000000000D+00  0.0000000000000D+00
427  4.2600000000000D+00  0.0000000000000D+00  0.0000000000000D+00
428  4.2700000000000D+00  0.0000000000000D+00  0.0000000000000D+00
429  4.2800000000000D+00  0.0000000000000D+00  0.0000000000000D+00
430  4.2900000000000D+00  0.0000000000000D+00  0.0000000000000D+00
431  4.3000000000000D+00  0.0000000000000D+00  0.0000000000000D+00
432  4.3100000000000D+00  0.0000000000000D+00  0.0000000000000D+00
433  4.3200000000000D+00  0.0000000000000D+00  0.0000000000000D+00
434  4.3300000000000D+00  0.0000000000000D+00  0.0000000000000D+00
435  4.3400000000000D+00  0.0000000000000D+00  0.0000000000000D+00
436  4.3500000000000D+00  0.0000000000000D+00  0.0000000000000D+00
437  4.3600000000000D+00  0.0000000000000D+00  0.0000000000000D+00
438  4.3700000000000D+00  0.0000000000000D+00  0.0000000000000D+00
439  4.3800000000000D+00  0.0000000000000D+00  0.0000000000000D+00
440  4.3900000000000D+00  0.0000000000000D+00  0.0000000000000D+00
441  4.4000000000000D+00  0.0000000000000D+00  0.0000000000000D+00
442  4.4100000000000D+00  0.0000000000000D+00  0.0000000000000D+00
443  4.4200000000000D+00  0.0000000000000D+00  0.0000000000000D+00
444  4.4300000000000D+00  0.0000000000000D+00  0.0000000000000D+00