Ge    ONCVPSP  r_core=  1.72  1.76  1.91
32.0000     14.0000      140905    zatom,zion,pspd
8    11     2     4   601     0    pspcod,pspxc,lmax,lloc,mmax,r2well
6.00000000  0.40000000  0.00000000    rchrg fchrg qchrg
2     2     2     0     0    nproj
0                 extension_switch
0                         6.2760427792245D+00  5.9977848524231D-01
1  0.0000000000000D+00 -0.0000000000000D+00 -0.0000000000000D+00
2  1.0000000000000D-02 -3.4220282666731D-02 -1.9639309579957D-02
3  2.0000000000000D-02 -6.8370861911378D-02 -3.9153957966743D-02
4  3.0000000000000D-02 -1.0238247951546D-01 -5.8420193419163D-02
5  4.0000000000000D-02 -1.3618676443752D-01 -7.7316076460163D-02
6  5.0000000000000D-02 -1.6971666834836D-01 -9.5722369454673D-02
7  6.0000000000000D-02 -2.0290689156465D-01 -1.1352340645101D-01
8  7.0000000000000D-02 -2.3569429628139D-01 -1.3060793691434D-01
9  8.0000000000000D-02 -2.6801830409646D-01 -1.4686993717207D-01
10  9.0000000000000D-02 -2.9982127491593D-01 -1.6220938358763D-01
11  1.0000000000000D-01 -3.3104886447953D-01 -1.7653298178834D-01
12  1.1000000000000D-01 -3.6165035786526D-01 -1.8975484652007D-01
13  1.2000000000000D-01 -3.9157897651898D-01 -2.0179712708532D-01
14  1.3000000000000D-01 -4.2079215650002D-01 -2.1259057362074D-01
15  1.4000000000000D-01 -4.4925179597463D-01 -2.2207504016885D-01
16  1.5000000000000D-01 -4.7692446985644D-01 -2.3019992023250D-01
17  1.6000000000000D-01 -5.0378161029094D-01 -2.3692451213023D-01
18  1.7000000000000D-01 -5.2979965118484D-01 -2.4221831046727D-01
19  1.8000000000000D-01 -5.5496013605306D-01 -2.4606122222084D-01
20  1.9000000000000D-01 -5.7924978783281D-01 -2.4844370468314D-01
21  2.0000000000000D-01 -6.0266054059465D-01 -2.4936682510156D-01
22  2.1000000000000D-01 -6.2518953207236D-01 -2.4884223984027D-01
23  2.2000000000000D-01 -6.4683905766918D-01 -2.4689209438690D-01
24  2.3000000000000D-01 -6.6761648563255D-01 -2.4354884360037D-01
25  2.4000000000000D-01 -6.8753413395353D-01 -2.3885499334684D-01
26  2.5000000000000D-01 -7.0660911006313D-01 -2.3286276575929D-01
27  2.6000000000000D-01 -7.2486311347550D-01 -2.2563368836991D-01
28  2.7000000000000D-01 -7.4232220404341D-01 -2.1723811272323D-01
29  2.8000000000000D-01 -7.5901653605042D-01 -2.0775466283072D-01
30  2.9000000000000D-01 -7.7498006014910D-01 -1.9726961766339D-01
31  3.0000000000000D-01 -7.9025019626892D-01 -1.8587623413612D-01
32  3.1000000000000D-01 -8.0486747759735D-01 -1.7367401075463D-01
33  3.2000000000000D-01 -8.1887517005085D-01 -1.6076790107625D-01
34  3.3000000000000D-01 -8.3231887086308D-01 -1.4726748445630D-01
35  3.4000000000000D-01 -8.4524608414333D-01 -1.3328608960248D-01
36  3.5000000000000D-01 -8.5770578061960D-01 -1.1893988587375D-01
37  3.6000000000000D-01 -8.6974794579197D-01 -1.0434695101663D-01
38  3.7000000000000D-01 -8.8142311927951D-01 -8.9626321069935D-02
39  3.8000000000000D-01 -8.9278191375236D-01 -7.4896998434867D-02
40  3.9000000000000D-01 -9.0387455117486D-01 -6.0276996054036D-02
41  4.0000000000000D-01 -9.1475038428113D-01 -4.5882351373024D-02
42  4.1000000000000D-01 -9.2545742470465D-01 -3.1826154341372D-02
43  4.2000000000000D-01 -9.3604187873588D-01 -1.8217591433155D-02
44  4.3000000000000D-01 -9.4654768952378D-01 -5.1610032308035D-03
45  4.4000000000000D-01 -9.5701610253911D-01  7.2450097582958D-03
46  4.5000000000000D-01 -9.6748523496551D-01  1.8908472941526D-02
47  4.6000000000000D-01 -9.7798967488453D-01  2.9744861810192D-02
48  4.7000000000000D-01 -9.8856010006891D-01  3.9677885465218D-02
49  4.8000000000000D-01 -9.9922292436027D-01  4.8640213074715D-02
50  4.9000000000000D-01 -1.0099999787324D+00  5.6574128666610D-02
51  5.0000000000000D-01 -1.0209082248062D+00  6.3432118896296D-02
52  5.1000000000000D-01 -1.0319594525708D+00  6.9177493043423D-02
53  5.2000000000000D-01 -1.0431601158366D+00  7.3784719334979D-02
54  5.3000000000000D-01 -1.0545111437870D+00  7.7239810363777D-02
55  5.4000000000000D-01 -1.0660077289889D+00  7.9540756556405D-02
56  5.5000000000000D-01 -1.0776393467796D+00  8.0697483814016D-02
57  5.6000000000000D-01 -1.0893895676039D+00  8.0732236536360D-02
58  5.7000000000000D-01 -1.1012361666461D+00  7.9679349606306D-02
59  5.8000000000000D-01 -1.1131510466277D+00  7.7585403985147D-02
60  5.9000000000000D-01 -1.1251004245693D+00  7.4508840322806D-02
61  6.0000000000000D-01 -1.1370448380233D+00  7.0519942736311D-02
62  6.1000000000000D-01 -1.1489394306053D+00  6.5700249996853D-02
63  6.2000000000000D-01 -1.1607340663764D+00  6.0142317088073D-02
64  6.3000000000000D-01 -1.1723736428368D+00  5.3949070165464D-02
65  6.4000000000000D-01 -1.1837983806944D+00  4.7233209417012D-02
66  6.5000000000000D-01 -1.1949441402188D+00  4.0116556427479D-02
67  6.6000000000000D-01 -1.2057428258664D+00  3.2729222707281D-02
68  6.7000000000000D-01 -1.2161227727497D+00  2.5208815105600D-02
69  6.8000000000000D-01 -1.2260092207593D+00  1.7699461518193D-02
70  6.9000000000000D-01 -1.2353247939047D+00  1.0350827581641D-02
71  7.0000000000000D-01 -1.2439899922118D+00  3.3171083548613D-03
72  7.1000000000000D-01 -1.2519237220382D+00 -3.2440580305167D-03
73  7.2000000000000D-01 -1.2590438325004D+00 -9.1726880484028D-03
74  7.3000000000000D-01 -1.2652677944838D+00 -1.4307841626891D-02
75  7.4000000000000D-01 -1.2705131821089D+00 -1.8488603974395D-02
76  7.5000000000000D-01 -1.2746983053837D+00 -2.1555376341666D-02
77  7.6000000000000D-01 -1.2777428177561D+00 -2.3351113456516D-02
78  7.7000000000000D-01 -1.2795683266403D+00 -2.3722565206357D-02
79  7.8000000000000D-01 -1.2800990026396D+00 -2.2521513666105D-02
80  7.9000000000000D-01 -1.2792621831740D+00 -1.9605996547136D-02
81  8.0000000000000D-01 -1.2769889364287D+00 -1.4841447508489D-02
82  8.1000000000000D-01 -1.2732147201305D+00 -8.1020271216119D-03
83  8.2000000000000D-01 -1.2678798912712D+00  7.2835274670539D-04
84  8.3000000000000D-01 -1.2609302327934D+00  1.1754972465964D-02
85  8.4000000000000D-01 -1.2523174812968D+00  2.5071249139582D-02
86  8.5000000000000D-01 -1.2419998101122D+00  4.0757775090855D-02
87  8.6000000000000D-01 -1.2299422785760D+00  5.8881428351291D-02
88  8.7000000000000D-01 -1.2161172439762D+00  7.9494562419655D-02
89  8.8000000000000D-01 -1.2005047328431D+00  1.0263428212047D-01
90  8.9000000000000D-01 -1.1830927292925D+00  1.2832189042885D-01
91  9.0000000000000D-01 -1.1638775188130D+00  1.5656222826275D-01
92  9.1000000000000D-01 -1.1428639527534D+00  1.8734317980688D-01
93  9.2000000000000D-01 -1.1200655411822D+00  2.2063552591233D-01
94  9.3000000000000D-01 -1.0955046169124D+00  2.5639265968080D-01
95  9.4000000000000D-01 -1.0692124086789D+00  2.9455048922124D-01
96  9.5000000000000D-01 -1.0412290579654D+00  3.3502745816577D-01
97  9.6000000000000D-01 -1.0116035786723D+00  3.7772468540739D-01
98  9.7000000000000D-01 -9.8039375935960D-01  4.2252622436635D-01
99  9.8000000000000D-01 -9.4766600842081D-01  4.6929944077954D-01
100  9.9000000000000D-01 -9.1349502460628D-01  5.1789572765804D-01
101  1.0000000000000D+00 -8.7796387577813D-01  5.6815045730995D-01
102  1.0100000000000D+00 -8.4116344922016D-01  6.1988415256988D-01
103  1.0200000000000D+00 -8.0319201015355D-01  6.7290344049641D-01
104  1.0300000000000D+00 -7.6415483604151D-01  7.2700187609090D-01
105  1.0400000000000D+00 -7.2416374147036D-01  7.8196098005147D-01
106  1.0500000000000D+00 -6.8333655440903D-01  8.3755131554499D-01
107  1.0600000000000D+00 -6.4179670482483D-01  8.9353356335728D-01
108  1.0700000000000D+00 -5.9967235025496D-01  9.4966024922526D-01
109  1.0800000000000D+00 -5.5709581324194D-01  1.0056769694349D+00
110  1.0900000000000D+00 -5.1420296983165D-01  1.0613236945450D+00
111  1.1000000000000D+00 -4.7113278968546D-01  1.1163357191081D+00
112  1.1100000000000D+00 -4.2802583606003D-01  1.1704470470557D+00
113  1.1200000000000D+00 -3.8502408460749D-01  1.2233905415754D+00
114  1.1300000000000D+00 -3.4227010182462D-01  1.2748997243566D+00
115  1.1400000000000D+00 -2.9990701289252D-01  1.3247087655643D+00
116  1.1500000000000D+00 -2.5807546113660D-01  1.3725591820952D+00
117  1.1600000000000D+00 -2.1691475314719D-01  1.4181970962115D+00
118  1.1700000000000D+00 -1.7656211951962D-01  1.4613748331807D+00
119  1.1800000000000D+00 -1.3715159923680D-01  1.5018533129443D+00
120  1.1900000000000D+00 -9.8811420823930D-02  1.5394076251260D+00
121  1.2000000000000D+00 -6.1665741120018D-02  1.5738231396735D+00
122  1.2100000000000D+00 -2.5835092749314D-02  1.6048945412314D+00
123  1.2200000000000D+00  8.5698123828372D-03  1.6324390654143D+00
124  1.2300000000000D+00  4.1444139456722D-02  1.6562878874990D+00
125  1.2400000000000D+00  7.2688397172712D-02  1.6762849947011D+00
126  1.2500000000000D+00  1.0221414570690D-01  1.6922992558794D+00
127  1.2600000000000D+00  1.2994185621285D-01  1.7042197135217D+00
128  1.2700000000000D+00  1.5579803715921D-01  1.7119495149128D+00
129  1.2800000000000D+00  1.7972195829470D-01  1.7154199969254D+00
130  1.2900000000000D+00  2.0166342235806D-01  1.7145858132380D+00
131  1.3000000000000D+00  2.2157841798519D-01  1.7094158832382D+00
132  1.3100000000000D+00  2.3943825523490D-01  1.6999122863276D+00
133  1.3200000000000D+00  2.5522431251566D-01  1.6860991407230D+00
134  1.3300000000000D+00  2.6892403583385D-01  1.6680144761934D+00
135  1.3400000000000D+00  2.8054343048328D-01  1.6457355908893D+00
136  1.3500000000000D+00  2.9009487377750D-01  1.6193539881446D+00
137  1.3600000000000D+00  2.9760074289206D-01  1.5889828793838D+00
138  1.3700000000000D+00  3.0309916483475D-01  1.5547682815315D+00
139  1.3800000000000D+00  3.0663298701502D-01  1.5168670326552D+00
140  1.3900000000000D+00  3.0825958700816D-01  1.4754660529835D+00
141  1.4000000000000D+00  3.0804543077483D-01  1.4307711510212D+00
142  1.4100000000000D+00  3.0606349688293D-01  1.3830024707178D+00
143  1.4200000000000D+00  3.0240116969990D-01  1.3324085107837D+00
144  1.4300000000000D+00  2.9714928207776D-01  1.2792459051434D+00
145  1.4400000000000D+00  2.9041001203061D-01  1.2237934052688D+00
146  1.4500000000000D+00  2.8229137632596D-01  1.1663412290799D+00
147  1.4600000000000D+00  2.7290781150315D-01  1.1071929656306D+00
148  1.4700000000000D+00  2.6238070924640D-01  1.0466635665153D+00
149  1.4800000000000D+00  2.5083545435027D-01  9.8507772286949D-01
150  1.4900000000000D+00  2.3840244103492D-01  9.2276601955774D-01
151  1.5000000000000D+00  2.2521519424274D-01  8.6006627171518D-01
152  1.5100000000000D+00  2.1141009112057D-01  7.9731896917886D-01
153  1.5200000000000D+00  1.9712429935854D-01  7.3486432116563D-01
154  1.5300000000000D+00  1.8249797625606D-01  6.7304758256746D-01
155  1.5400000000000D+00  1.6766702346222D-01  6.1220022186224D-01
156  1.5500000000000D+00  1.5277292378488D-01  5.5266648842673D-01
157  1.5600000000000D+00  1.3794588445395D-01  4.9475923449516D-01
158  1.5700000000000D+00  1.2332506205612D-01  4.3881294184953D-01
159  1.5800000000000D+00  1.0903243960610D-01  3.8511667406005D-01
160  1.5900000000000D+00  9.5198705213477D-02  3.3398034383061D-01
161  1.6000000000000D+00  8.1936702857408D-02  2.8566778426069D-01
162  1.6100000000000D+00  6.9364057500636D-02  2.4045370165661D-01
163  1.6200000000000D+00  5.7581579712967D-02  1.9857000977175D-01
164  1.6300000000000D+00  4.6690442598701D-02  1.6024857296734D-01
165  1.6400000000000D+00  3.6776491139003D-02  1.2568258519426D-01
166  1.6500000000000D+00  2.7921724867600D-02  9.5054951819118D-02
167  1.6600000000000D+00  2.0194132394882D-02  6.8513419666503D-02
168  1.6700000000000D+00  1.3654533114574D-02  4.6187432653090D-02
169  1.6800000000000D+00  8.3503120184535D-03  2.8172867389119D-02
170  1.6900000000000D+00  4.3198255208701D-03  1.4542831692106D-02
171  1.7000000000000D+00  1.6783516547668D-03  5.6406727708824D-03
172  1.7100000000000D+00  3.1808639574177D-04  1.0688848613241D-03
173  1.7200000000000D+00 -1.8450369555196D-04 -6.1494836116515D-04
174  1.7300000000000D+00 -1.5005586502582D-04 -5.0252494998940D-04
175  1.7400000000000D+00  2.5777097287697D-06  8.3657789711764D-06
176  1.7500000000000D+00  3.0015145696018D-06  9.7412083245072D-06
177  1.7600000000000D+00  0.0000000000000D+00  0.0000000000000D+00
178  1.7700000000000D+00  0.0000000000000D+00  0.0000000000000D+00
179  1.7800000000000D+00  0.0000000000000D+00  0.0000000000000D+00
180  1.7900000000000D+00  0.0000000000000D+00  0.0000000000000D+00
181  1.8000000000000D+00  0.0000000000000D+00  0.0000000000000D+00
182  1.8100000000000D+00  0.0000000000000D+00  0.0000000000000D+00
183  1.8200000000000D+00  0.0000000000000D+00  0.0000000000000D+00
184  1.8300000000000D+00  0.0000000000000D+00  0.0000000000000D+00
185  1.8400000000000D+00  0.0000000000000D+00  0.0000000000000D+00
186  1.8500000000000D+00  0.0000000000000D+00  0.0000000000000D+00
187  1.8600000000000D+00  0.0000000000000D+00  0.0000000000000D+00
188  1.8700000000000D+00  0.0000000000000D+00  0.0000000000000D+00
189  1.8800000000000D+00  0.0000000000000D+00  0.0000000000000D+00
190  1.8900000000000D+00  0.0000000000000D+00  0.0000000000000D+00
191  1.9000000000000D+00  0.0000000000000D+00  0.0000000000000D+00
192  1.9100000000000D+00  0.0000000000000D+00  0.0000000000000D+00
193  1.9200000000000D+00  0.0000000000000D+00  0.0000000000000D+00
194  1.9300000000000D+00  0.0000000000000D+00  0.0000000000000D+00
195  1.9400000000000D+00  0.0000000000000D+00  0.0000000000000D+00
196  1.9500000000000D+00  0.0000000000000D+00  0.0000000000000D+00
197  1.9600000000000D+00  0.0000000000000D+00  0.0000000000000D+00
198  1.9700000000000D+00  0.0000000000000D+00  0.0000000000000D+00
199  1.9800000000000D+00  0.0000000000000D+00  0.0000000000000D+00
200  1.9900000000000D+00  0.0000000000000D+00  0.0000000000000D+00
201  2.0000000000000D+00  0.0000000000000D+00  0.0000000000000D+00
202  2.0100000000000D+00  0.0000000000000D+00  0.0000000000000D+00
203  2.0200000000000D+00  0.0000000000000D+00  0.0000000000000D+00
204  2.0300000000000D+00  0.0000000000000D+00  0.0000000000000D+00
205  2.0400000000000D+00  0.0000000000000D+00  0.0000000000000D+00
206  2.0500000000000D+00  0.0000000000000D+00  0.0000000000000D+00
207  2.0600000000000D+00  0.0000000000000D+00  0.0000000000000D+00
208  2.0700000000000D+00  0.0000000000000D+00  0.0000000000000D+00
209  2.0800000000000D+00  0.0000000000000D+00  0.0000000000000D+00
210  2.0900000000000D+00  0.0000000000000D+00  0.0000000000000D+00
211  2.1000000000000D+00  0.0000000000000D+00  0.0000000000000D+00
212  2.1100000000000D+00  0.0000000000000D+00  0.0000000000000D+00
213  2.1200000000000D+00  0.0000000000000D+00  0.0000000000000D+00
214  2.1300000000000D+00  0.0000000000000D+00  0.0000000000000D+00
215  2.1400000000000D+00  0.0000000000000D+00  0.0000000000000D+00
216  2.1500000000000D+00  0.0000000000000D+00  0.0000000000000D+00
217  2.1600000000000D+00  0.0000000000000D+00  0.0000000000000D+00
218  2.1700000000000D+00  0.0000000000000D+00  0.0000000000000D+00
219  2.1800000000000D+00  0.0000000000000D+00  0.0000000000000D+00
220  2.1900000000000D+00  0.0000000000000D+00  0.0000000000000D+00
221  2.2000000000000D+00  0.0000000000000D+00  0.0000000000000D+00
222  2.2100000000000D+00  0.0000000000000D+00  0.0000000000000D+00
223  2.2200000000000D+00  0.0000000000000D+00  0.0000000000000D+00
224  2.2300000000000D+00  0.0000000000000D+00  0.0000000000000D+00
225  2.2400000000000D+00  0.0000000000000D+00  0.0000000000000D+00
226  2.2500000000000D+00  0.0000000000000D+00  0.0000000000000D+00
227  2.2600000000000D+00  0.0000000000000D+00  0.0000000000000D+00
228  2.2700000000000D+00  0.0000000000000D+00  0.0000000000000D+00
229  2.2800000000000D+00  0.0000000000000D+00  0.0000000000000D+00
230  2.2900000000000D+00  0.0000000000000D+00  0.0000000000000D+00
231  2.3000000000000D+00  0.0000000000000D+00  0.0000000000000D+00
232  2.3100000000000D+00  0.0000000000000D+00  0.0000000000000D+00
233  2.3200000000000D+00  0.0000000000000D+00  0.0000000000000D+00
234  2.3300000000000D+00  0.0000000000000D+00  0.0000000000000D+00
235  2.3400000000000D+00  0.0000000000000D+00  0.0000000000000D+00
236  2.3500000000000D+00  0.0000000000000D+00  0.0000000000000D+00
237  2.3600000000000D+00  0.0000000000000D+00  0.0000000000000D+00
238  2.3700000000000D+00  0.0000000000000D+00  0.0000000000000D+00
239  2.3800000000000D+00  0.0000000000000D+00  0.0000000000000D+00
240  2.3900000000000D+00  0.0000000000000D+00  0.0000000000000D+00
241  2.4000000000000D+00  0.0000000000000D+00  0.0000000000000D+00
242  2.4100000000000D+00  0.0000000000000D+00  0.0000000000000D+00
243  2.4200000000000D+00  0.0000000000000D+00  0.0000000000000D+00
244  2.4300000000000D+00  0.0000000000000D+00  0.0000000000000D+00
245  2.4400000000000D+00  0.0000000000000D+00  0.0000000000000D+00
246  2.4500000000000D+00  0.0000000000000D+00  0.0000000000000D+00
247  2.4600000000000D+00  0.0000000000000D+00  0.0000000000000D+00
248  2.4700000000000D+00  0.0000000000000D+00  0.0000000000000D+00
249  2.4800000000000D+00  0.0000000000000D+00  0.0000000000000D+00
250  2.4900000000000D+00  0.0000000000000D+00  0.0000000000000D+00
251  2.5000000000000D+00  0.0000000000000D+00  0.0000000000000D+00
252  2.5100000000000D+00  0.0000000000000D+00  0.0000000000000D+00
253  2.5200000000000D+00  0.0000000000000D+00  0.0000000000000D+00
254  2.5300000000000D+00  0.0000000000000D+00  0.0000000000000D+00
255  2.5400000000000D+00  0.0000000000000D+00  0.0000000000000D+00
256  2.5500000000000D+00  0.0000000000000D+00  0.0000000000000D+00
257  2.5600000000000D+00  0.0000000000000D+00  0.0000000000000D+00
258  2.5700000000000D+00  0.0000000000000D+00  0.0000000000000D+00
259  2.5800000000000D+00  0.0000000000000D+00  0.0000000000000D+00
260  2.5900000000000D+00  0.0000000000000D+00  0.0000000000000D+00
261  2.6000000000000D+00  0.0000000000000D+00  0.0000000000000D+00
262  2.6100000000000D+00  0.0000000000000D+00  0.0000000000000D+00
263  2.6200000000000D+00  0.0000000000000D+00  0.0000000000000D+00
264  2.6300000000000D+00  0.0000000000000D+00  0.0000000000000D+00
265  2.6400000000000D+00  0.0000000000000D+00  0.0000000000000D+00
266  2.6500000000000D+00  0.0000000000000D+00  0.0000000000000D+00
267  2.6600000000000D+00  0.0000000000000D+00  0.0000000000000D+00
268  2.6700000000000D+00  0.0000000000000D+00  0.0000000000000D+00
269  2.6800000000000D+00  0.0000000000000D+00  0.0000000000000D+00
270  2.6900000000000D+00  0.0000000000000D+00  0.0000000000000D+00
271  2.7000000000000D+00  0.0000000000000D+00  0.0000000000000D+00
272  2.7100000000000D+00  0.0000000000000D+00  0.0000000000000D+00
273  2.7200000000000D+00  0.0000000000000D+00  0.0000000000000D+00
274  2.7300000000000D+00  0.0000000000000D+00  0.0000000000000D+00
275  2.7400000000000D+00  0.0000000000000D+00  0.0000000000000D+00
276  2.7500000000000D+00  0.0000000000000D+00  0.0000000000000D+00
277  2.7600000000000D+00  0.0000000000000D+00  0.0000000000000D+00
278  2.7700000000000D+00  0.0000000000000D+00  0.0000000000000D+00
279  2.7800000000000D+00  0.0000000000000D+00  0.0000000000000D+00
280  2.7900000000000D+00  0.0000000000000D+00  0.0000000000000D+00
281  2.8000000000000D+00  0.0000000000000D+00  0.0000000000000D+00
282  2.8100000000000D+00  0.0000000000000D+00  0.0000000000000D+00
283  2.8200000000000D+00  0.0000000000000D+00  0.0000000000000D+00
284  2.8300000000000D+00  0.0000000000000D+00  0.0000000000000D+00
285  2.8400000000000D+00  0.0000000000000D+00  0.0000000000000D+00
286  2.8500000000000D+00  0.0000000000000D+00  0.0000000000000D+00
287  2.8600000000000D+00  0.0000000000000D+00  0.0000000000000D+00
288  2.8700000000000D+00  0.0000000000000D+00  0.0000000000000D+00
289  2.8800000000000D+00  0.0000000000000D+00  0.0000000000000D+00
290  2.8900000000000D+00  0.0000000000000D+00  0.0000000000000D+00
291  2.9000000000000D+00  0.0000000000000D+00  0.0000000000000D+00
292  2.9100000000000D+00  0.0000000000000D+00  0.0000000000000D+00
293  2.9200000000000D+00  0.0000000000000D+00  0.0000000000000D+00
294  2.9300000000000D+00  0.0000000000000D+00  0.0000000000000D+00
295  2.9400000000000D+00  0.0000000000000D+00  0.0000000000000D+00
296  2.9500000000000D+00  0.0000000000000D+00  0.0000000000000D+00
297  2.9600000000000D+00  0.0000000000000D+00  0.0000000000000D+00
298  2.9700000000000D+00  0.0000000000000D+00  0.0000000000000D+00
299  2.9800000000000D+00  0.0000000000000D+00  0.0000000000000D+00
300  2.9900000000000D+00  0.0000000000000D+00  0.0000000000000D+00
301  3.0000000000000D+00  0.0000000000000D+00  0.0000000000000D+00
302  3.0100000000000D+00  0.0000000000000D+00  0.0000000000000D+00
303  3.0200000000000D+00  0.0000000000000D+00  0.0000000000000D+00
304  3.0300000000000D+00  0.0000000000000D+00  0.0000000000000D+00
305  3.0400000000000D+00  0.0000000000000D+00  0.0000000000000D+00
306  3.0500000000000D+00  0.0000000000000D+00  0.0000000000000D+00
307  3.0600000000000D+00  0.0000000000000D+00  0.0000000000000D+00
308  3.0700000000000D+00  0.0000000000000D+00  0.0000000000000D+00
309  3.0800000000000D+00  0.0000000000000D+00  0.0000000000000D+00
310  3.0900000000000D+00  0.0000000000000D+00  0.0000000000000D+00
311  3.1000000000000D+00  0.0000000000000D+00  0.0000000000000D+00
312  3.1100000000000D+00  0.0000000000000D+00  0.0000000000000D+00
313  3.1200000000000D+00  0.0000000000000D+00  0.0000000000000D+00
314  3.1300000000000D+00  0.0000000000000D+00  0.0000000000000D+00
315  3.1400000000000D+00  0.0000000000000D+00  0.0000000000000D+00
316  3.1500000000000D+00  0.0000000000000D+00  0.0000000000000D+00
317  3.1600000000000D+00  0.0000000000000D+00  0.0000000000000D+00
318  3.1700000000000D+00  0.0000000000000D+00  0.0000000000000D+00
319  3.1800000000000D+00  0.0000000000000D+00  0.0000000000000D+00
320  3.1900000000000D+00  0.0000000000000D+00  0.0000000000000D+00
321  3.2000000000000D+00  0.0000000000000D+00  0.0000000000000D+00
322  3.2100000000000D+00  0.0000000000000D+00  0.0000000000000D+00
323  3.2200000000000D+00  0.0000000000000D+00  0.0000000000000D+00
324  3.2300000000000D+00  0.0000000000000D+00  0.0000000000000D+00
325  3.2400000000000D+00  0.0000000000000D+00  0.0000000000000D+00
326  3.2500000000000D+00  0.0000000000000D+00  0.0000000000000D+00
327  3.2600000000000D+00  0.0000000000000D+00  0.0000000000000D+00
328  3.2700000000000D+00  0.0000000000000D+00  0.0000000000000D+00
329  3.2800000000000D+00  0.0000000000000D+00  0.0000000000000D+00
330  3.2900000000000D+00  0.0000000000000D+00  0.0000000000000D+00
331  3.3000000000000D+00  0.0000000000000D+00  0.0000000000000D+00
332  3.3100000000000D+00  0.0000000000000D+00  0.0000000000000D+00
333  3.3200000000000D+00  0.0000000000000D+00  0.0000000000000D+00
334  3.3300000000000D+00  0.0000000000000D+00  0.0000000000000D+00
335  3.3400000000000D+00  0.0000000000000D+00  0.0000000000000D+00
336  3.3500000000000D+00  0.0000000000000D+00  0.0000000000000D+00
337  3.3600000000000D+00  0.0000000000000D+00  0.0000000000000D+00
338  3.3700000000000D+00  0.0000000000000D+00  0.0000000000000D+00
339  3.3800000000000D+00  0.0000000000000D+00  0.0000000000000D+00
340  3.3900000000000D+00  0.0000000000000D+00  0.0000000000000D+00
341  3.4000000000000D+00  0.0000000000000D+00  0.0000000000000D+00
342  3.4100000000000D+00  0.0000000000000D+00  0.0000000000000D+00
343  3.4200000000000D+00  0.0000000000000D+00  0.0000000000000D+00
344  3.4300000000000D+00  0.0000000000000D+00  0.0000000000000D+00
345  3.4400000000000D+00  0.0000000000000D+00  0.0000000000000D+00
346  3.4500000000000D+00  0.0000000000000D+00  0.0000000000000D+00
347  3.4600000000000D+00  0.0000000000000D+00  0.0000000000000D+00
348  3.4700000000000D+00  0.0000000000000D+00  0.0000000000000D+00
349  3.4800000000000D+00  0.0000000000000D+00  0.0000000000000D+00
350  3.4900000000000D+00  0.0000000000000D+00  0.0000000000000D+00
351  3.5000000000000D+00  0.0000000000000D+00  0.0000000000000D+00
352  3.5100000000000D+00  0.0000000000000D+00  0.0000000000000D+00
353  3.5200000000000D+00  0.0000000000000D+00  0.0000000000000D+00
354  3.5300000000000D+00  0.0000000000000D+00  0.0000000000000D+00
355  3.5400000000000D+00  0.0000000000000D+00  0.0000000000000D+00
356  3.5500000000000D+00  0.0000000000000D+00  0.0000000000000D+00
357  3.5600000000000D+00  0.0000000000000D+00  0.0000000000000D+00
358  3.5700000000000D+00  0.0000000000000D+00  0.0000000000000D+00
359  3.5800000000000D+00  0.0000000000000D+00  0.0000000000000D+00
360  3.5900000000000D+00  0.0000000000000D+00  0.0000000000000D+00
361  3.6000000000000D+00  0.0000000000000D+00  0.0000000000000D+00
362  3.6100000000000D+00  0.0000000000000D+00  0.0000000000000D+00
363  3.6200000000000D+00  0.0000000000000D+00  0.0000000000000D+00
364  3.6300000000000D+00  0.0000000000000D+00  0.0000000000000D+00
365  3.6400000000000D+00  0.0000000000000D+00  0.0000000000000D+00
366  3.6500000000000D+00  0.0000000000000D+00  0.0000000000000D+00
367  3.6600000000000D+00  0.0000000000000D+00  0.0000000000000D+00
368  3.6700000000000D+00  0.0000000000000D+00  0.0000000000000D+00
369  3.6800000000000D+00  0.0000000000000D+00  0.0000000000000D+00
370  3.6900000000000D+00  0.0000000000000D+00  0.0000000000000D+00
371  3.7000000000000D+00  0.0000000000000D+00  0.0000000000000D+00
372  3.7100000000000D+00  0.0000000000000D+00  0.0000000000000D+00
373  3.7200000000000D+00  0.0000000000000D+00  0.0000000000000D+00
374  3.7300000000000D+00  0.0000000000000D+00  0.0000000000000D+00
375  3.7400000000000D+00  0.0000000000000D+00  0.0000000000000D+00
376  3.7500000000000D+00  0.0000000000000D+00  0.0000000000000D+00
377  3.7600000000000D+00  0.0000000000000D+00  0.0000000000000D+00
378  3.7700000000000D+00  0.0000000000000D+00  0.0000000000000D+00
379  3.7800000000000D+00  0.0000000000000D+00  0.0000000000000D+00
380  3.7900000000000D+00  0.0000000000000D+00  0.0000000000000D+00
381  3.8000000000000D+00  0.0000000000000D+00  0.0000000000000D+00
382  3.8100000000000D+00  0.0000000000000D+00  0.0000000000000D+00
383  3.8200000000000D+00  0.0000000000000D+00  0.0000000000000D+00
384  3.8300000000000D+00  0.0000000000000D+00  0.0000000000000D+00
385  3.8400000000000D+00  0.0000000000000D+00  0.0000000000000D+00
386  3.8500000000000D+00  0.0000000000000D+00  0.0000000000000D+00
387  3.8600000000000D+00  0.0000000000000D+00  0.0000000000000D+00
388  3.8700000000000D+00  0.0000000000000D+00  0.0000000000000D+00
389  3.8800000000000D+00  0.0000000000000D+00  0.0000000000000D+00
390  3.8900000000000D+00  0.0000000000000D+00  0.0000000000000D+00
391  3.9000000000000D+00  0.0000000000000D+00  0.0000000000000D+00
392  3.9100000000000D+00  0.0000000000000D+00  0.0000000000000D+00
393  3.9200000000000D+00  0.0000000000000D+00  0.0000000000000D+00
394  3.9300000000000D+00  0.0000000000000D+00  0.0000000000000D+00
395  3.9400000000000D+00  0.0000000000000D+00  0.0000000000000D+00
396  3.9500000000000D+00  0.0000000000000D+00  0.0000000000000D+00
397  3.9600000000000D+00  0.0000000000000D+00  0.0000000000000D+00
398  3.9700000000000D+00  0.0000000000000D+00  0.0000000000000D+00
399  3.9800000000000D+00  0.0000000000000D+00  0.0000000000000D+00
400  3.9900000000000D+00  0.0000000000000D+00  0.0000000000000D+00
401  4.0000000000000D+00  0.0000000000000D+00  0.0000000000000D+00
402  4.0100000000000D+00  0.0000000000000D+00  0.0000000000000D+00
403  4.0200000000000D+00  0.0000000000000D+00  0.0000000000000D+00
404  4.0300000000000D+00  0.0000000000000D+00  0.0000000000000D+00
405  4.0400000000000D+00  0.0000000000000D+00  0.0000000000000D+00
406  4.0500000000000D+00  0.0000000000000D+00  0.0000000000000D+00
407  4.0600000000000D+00  0.0000000000000D+00  0.0000000000000D+00
408  4.0700000000000D+00  0.0000000000000D+00  0.0000000000000D+00
409  4.0800000000000D+00  0.0000000000000D+00  0.0000000000000D+00
410  4.0900000000000D+00  0.0000000000000D+00  0.0000000000000D+00
411  4.1000000000000D+00  0.0000000000000D+00  0.0000000000000D+00
412  4.1100000000000D+00  0.0000000000000D+00  0.0000000000000D+00
413  4.1200000000000D+00  0.0000000000000D+00  0.0000000000000D+00
414  4.1300000000000D+00  0.0000000000000D+00  0.0000000000000D+00
415  4.1400000000000D+00  0.0000000000000D+00  0.0000000000000D+00
416  4.1500000000000D+00  0.0000000000000D+00  0.0000000000000D+00
417  4.1600000000000D+00  0.0000000000000D+00  0.0000000000000D+00
418  4.1700000000000D+00  0.0000000000000D+00  0.0000000000000D+00
419  4.1800000000000D+00  0.0000000000000D+00  0.0000000000000D+00
420  4.1900000000000D+00  0.0000000000000D+00  0.0000000000000D+00
421  4.2000000000000D+00  0.0000000000000D+00  0.0000000000000D+00
422  4.2100000000000D+00  0.0000000000000D+00  0.0000000000000D+00
423  4.2200000000000D+00  0.0000000000000D+00  0.0000000000000D+00
424  4.2300000000000D+00  0.0000000000000D+00  0.0000000000000D+00
425  4.2400000000000D+00  0.0000000000000D+00  0.0000000000000D+00
426  4.2500000000000D+00  0.0000000000000D+00  0.0000000000000D+00
427  4.2600000000000D+00  0.0000000000000D+00  0.0000000000000D+00
428  4.2700000000000D+00  0.0000000000000D+00  0.0000000000000D+00
429  4.2800000000000D+00  0.0000000000000D+00  0.0000000000000D+00
430  4.2900000000000D+00  0.0000000000000D+00  0.0000000000000D+00
431  4.3000000000000D+00  0.0000000000000D+00  0.0000000000000D+00
432  4.3100000000000D+00  0.0000000000000D+00  0.0000000000000D+00
433  4.3200000000000D+00  0.0000000000000D+00  0.0000000000000D+00
434  4.3300000000000D+00  0.0000000000000D+00  0.0000000000000D+00
435  4.3400000000000D+00  0.0000000000000D+00  0.0000000000000D+00
436  4.3500000000000D+00  0.0000000000000D+00  0.0000000000000D+00
437  4.3600000000000D+00  0.0000000000000D+00  0.0000000000000D+00
438  4.3700000000000D+00  0.0000000000000D+00  0.0000000000000D+00
439  4.3800000000000D+00  0.0000000000000D+00  0.0000000000000D+00
440  4.3900000000000D+00  0.0000000000000D+00  0.0000000000000D+00
441  4.4000000000000D+00  0.0000000000000D+00  0.0000000000000D+00
442  4.4100000000000D+00  0.0000000000000D+00  0.0000000000000D+00
443  4.4200000000000D+00  0.0000000000000D+00  0.0000000000000D+00
444  4.4300000000000D+00  0.0000000000000D+00  0.0000000000000D+00