Ge    ONCVPSP  r_core=  2.10  2.00  2.31
32.0000      4.0000      140827    zatom,zion,pspd
8    11     2     4   601     0    pspcod,pspxc,lmax,lloc,mmax,r2well
6.00000000  0.50000000  0.00000000    rchrg fchrg qchrg
2     2     2     0     0    nproj
0                 extension_switch
0                         5.6035910896837D+00  4.7231611959706D-01
1  0.0000000000000D+00 -0.0000000000000D+00 -0.0000000000000D+00
2  1.0000000000000D-02 -3.3101936877892D-02 -7.8077628638550D-03
3  2.0000000000000D-02 -6.6188092810362D-02 -1.5631055954127D-02
4  3.0000000000000D-02 -9.9242654296000D-02 -2.3485224018689D-02
5  4.0000000000000D-02 -1.3224974296228D-01 -3.1385241842263D-02
6  5.0000000000000D-02 -1.6519338373107D-01 -3.9345531745215D-02
7  6.0000000000000D-02 -1.9805747370220D-01 -4.7379784045830D-02
8  7.0000000000000D-02 -2.3082575198940D-01 -5.5500781453601D-02
9  8.0000000000000D-02 -2.6348177073805D-01 -6.3720228340659D-02
10  9.0000000000000D-02 -2.9600886754954D-01 -7.2048585821430D-02
11  1.0000000000000D-01 -3.2839013952878D-01 -8.0494913534385D-02
12  1.1000000000000D-01 -3.6060841916598D-01 -8.9066719000795D-02
13  1.2000000000000D-01 -3.9264625225354D-01 -9.7769815391467D-02
14  1.3000000000000D-01 -4.2448587803199D-01 -1.0660818851145D-01
15  1.4000000000000D-01 -4.5610921173846D-01 -1.1558387370278D-01
16  1.5000000000000D-01 -4.8749782974451D-01 -1.2469684348487D-01
17  1.6000000000000D-01 -5.1863295741718D-01 -1.3394490642698D-01
18  1.7000000000000D-01 -5.4949545987636D-01 -1.4332361805807D-01
19  1.8000000000000D-01 -5.8006583575036D-01 -1.5282620414397D-01
20  1.9000000000000D-01 -6.1032421407714D-01 -1.6244349708070D-01
21  2.0000000000000D-01 -6.4025035441833D-01 -1.7216388548819D-01
22  2.1000000000000D-01 -6.6982365031521D-01 -1.8197327785793D-01
23  2.2000000000000D-01 -6.9902313611381D-01 -1.9185508005558D-01
24  2.3000000000000D-01 -7.2782749724428D-01 -2.0179018723383D-01
25  2.4000000000000D-01 -7.5621508398827D-01 -2.1175699025874D-01
26  2.5000000000000D-01 -7.8416392871324D-01 -2.2173139678092D-01
27  2.6000000000000D-01 -8.1165176669319D-01 -2.3168686681127D-01
28  2.7000000000000D-01 -8.3865606031186D-01 -2.4159446307226D-01
29  2.8000000000000D-01 -8.6515402679719D-01 -2.5142291570812D-01
30  2.9000000000000D-01 -8.9112266939107D-01 -2.6113870146185D-01
31  3.0000000000000D-01 -9.1653881177327D-01 -2.7070613679383D-01
32  3.1000000000000D-01 -9.4137913589093D-01 -2.8008748503145D-01
33  3.2000000000000D-01 -9.6562022287887D-01 -2.8924307683416D-01
34  3.3000000000000D-01 -9.8923859684842D-01 -2.9813144311672D-01
35  3.4000000000000D-01 -1.0122107719495D+00 -3.0670946128384D-01
36  3.5000000000000D-01 -1.0345133021077D+00 -3.1493251324742D-01
37  3.6000000000000D-01 -1.0561228331395D+00 -3.2275465399722D-01
38  3.7000000000000D-01 -1.0770161571094D+00 -3.3012879014075D-01
39  3.8000000000000D-01 -1.0971702704507D+00 -3.3700687283680D-01
40  3.9000000000000D-01 -1.1165624317418D+00 -3.4334009270534D-01
41  4.0000000000000D-01 -1.1351702229494D+00 -3.4907908778415D-01
42  4.1000000000000D-01 -1.1529716118923D+00 -3.5417415773885D-01
43  4.2000000000000D-01 -1.1699450159603D+00 -3.5857548414485D-01
44  4.3000000000000D-01 -1.1860693674314D+00 -3.6223335780765D-01
45  4.4000000000000D-01 -1.2013241784265D+00 -3.6509840653043D-01
46  4.5000000000000D-01 -1.2156896081336D+00 -3.6712183180126D-01
47  4.6000000000000D-01 -1.2291465291595D+00 -3.6825564393967D-01
48  4.7000000000000D-01 -1.2416765944417D+00 -3.6845290022896D-01
49  4.8000000000000D-01 -1.2532623038030D+00 -3.6766794285303D-01
50  4.9000000000000D-01 -1.2638870691549D+00 -3.6585663305022D-01
51  5.0000000000000D-01 -1.2735352785704D+00 -3.6297658202149D-01
52  5.1000000000000D-01 -1.2821923678381D+00 -3.5898740856032D-01
53  5.2000000000000D-01 -1.2898448743023D+00 -3.5385093590864D-01
54  5.3000000000000D-01 -1.2964804980965D+00 -3.4753141424882D-01
55  5.4000000000000D-01 -1.3020881751979D+00 -3.3999578551171D-01
56  5.5000000000000D-01 -1.3066581112526D+00 -3.3121381063013D-01
57  5.6000000000000D-01 -1.3101818629640D+00 -3.2115836439036D-01
58  5.7000000000000D-01 -1.3126523638610D+00 -3.0980553432545D-01
59  5.8000000000000D-01 -1.3140639990365D+00 -2.9713489300747D-01
60  5.9000000000000D-01 -1.3144126224175D+00 -2.8312956641008D-01
61  6.0000000000000D-01 -1.3136956338728D+00 -2.6777651562820D-01
62  6.1000000000000D-01 -1.3119119782164D+00 -2.5106653957883D-01
63  6.2000000000000D-01 -1.3090622180280D+00 -2.3299454223541D-01
64  6.3000000000000D-01 -1.3051485421958D+00 -2.1355956941260D-01
65  6.4000000000000D-01 -1.3001747841062D+00 -1.9276487973403D-01
66  6.5000000000000D-01 -1.2941464794703D+00 -1.7061815954369D-01
67  6.6000000000000D-01 -1.2870708503970D+00 -1.4713147108766D-01
68  6.7000000000000D-01 -1.2789568225024D+00 -1.2232132007464D-01
69  6.8000000000000D-01 -1.2698150499857D+00 -9.6208753175526D-02
70  6.9000000000000D-01 -1.2596579089290D+00 -6.8819340097918D-02
71  7.0000000000000D-01 -1.2484994912525D+00 -4.0183158146280D-02
72  7.1000000000000D-01 -1.2363556002794D+00 -1.0334783152602D-02
73  7.2000000000000D-01 -1.2232437379271D+00  2.0686749816285D-02
74  7.3000000000000D-01 -1.2091830983160D+00  5.2837960338772D-02
75  7.4000000000000D-01 -1.1941945312206D+00  8.6071048354418D-02
76  7.5000000000000D-01 -1.1783005196656D+00  1.2033396609013D-01
77  7.6000000000000D-01 -1.1615251474097D+00  1.5557052650805D-01
78  7.7000000000000D-01 -1.1438940613281D+00  1.9172052957105D-01
79  7.8000000000000D-01 -1.1254344287816D+00  2.2871990593382D-01
80  7.9000000000000D-01 -1.1061748900794D+00  2.6650087759129D-01
81  8.0000000000000D-01 -1.0861455066108D+00  3.0499213383024D-01
82  8.1000000000000D-01 -1.0653777032820D+00  3.4411902495669D-01
83  8.2000000000000D-01 -1.0439042066230D+00  3.8380377273912D-01
84  8.3000000000000D-01 -1.0217589796862D+00  4.2396569072332D-01
85  8.4000000000000D-01 -9.9897715208133D-01  4.6452142036433D-01
86  8.5000000000000D-01 -9.7559494617395D-01  5.0538517989035D-01
87  8.6000000000000D-01 -9.5164959957954D-01  5.4646902507042D-01
88  8.7000000000000D-01 -9.2717928419227D-01  5.8768312090752D-01
89  8.8000000000000D-01 -9.0222302200640D-01  6.2893602321842D-01
90  8.9000000000000D-01 -8.7682060179706D-01  6.7013495661914D-01
91  9.0000000000000D-01 -8.5101248489340D-01  7.1118612707619D-01
92  9.1000000000000D-01 -8.2483970808526D-01  7.5199504279078D-01
93  9.2000000000000D-01 -7.9834379776432D-01  7.9246679685250D-01
94  9.3000000000000D-01 -7.7156667068361D-01  8.3250639194578D-01
95  9.4000000000000D-01 -7.4455053634703D-01  8.7201905791227D-01
96  9.5000000000000D-01 -7.1733779832302D-01  9.1091057077241D-01
97  9.6000000000000D-01 -6.8997095486887D-01  9.4908757174318D-01
98  9.7000000000000D-01 -6.6249249927289D-01  9.8645788473478D-01
99  9.8000000000000D-01 -6.3494482034006D-01  1.0229308307680D+00
100  9.9000000000000D-01 -6.0737014351500D-01  1.0584174092271D+00
101  1.0000000000000D+00 -5.7981033848729D-01  1.0928309062888D+00
102  1.0100000000000D+00 -5.5230686021326D-01  1.1260870677219D+00
103  1.0200000000000D+00 -5.2490068067932D-01  1.1581043007001D+00
104  1.0300000000000D+00 -4.9763217676736D-01  1.1888040128928D+00
105  1.0400000000000D+00 -4.7054103861164D-01  1.2181108820846D+00
106  1.0500000000000D+00 -4.4366627999778D-01  1.2459528051278D+00
107  1.0600000000000D+00 -4.1704586644881D-01  1.2722620365773D+00
108  1.0700000000000D+00 -3.9071684854061D-01  1.2969747356853D+00
109  1.0800000000000D+00 -3.6471525728322D-01  1.3200312623596D+00
110  1.0900000000000D+00 -3.3907603689293D-01  1.3413763528534D+00
111  1.1000000000000D+00 -3.1383304506920D-01  1.3609590935394D+00
112  1.1100000000000D+00 -2.8901857364908D-01  1.3787343184612D+00
113  1.1200000000000D+00 -2.6466371551588D-01  1.3946614513627D+00
114  1.1300000000000D+00 -2.4079818792619D-01  1.4087049963474D+00
115  1.1400000000000D+00 -2.1745045726151D-01  1.4208341453503D+00
116  1.1500000000000D+00 -1.9464701578569D-01  1.4310248041596D+00
117  1.1600000000000D+00 -1.7241299783904D-01  1.4392577361259D+00
118  1.1700000000000D+00 -1.5077204760501D-01  1.4455189101096D+00
119  1.1800000000000D+00 -1.2974615243464D-01  1.4497999237180D+00
120  1.1900000000000D+00 -1.0935529526351D-01  1.4520988381772D+00
121  1.2000000000000D+00 -8.9617949246112D-02  1.4524187507707D+00
122  1.2100000000000D+00 -7.0551158714705D-02  1.4507675843617D+00
123  1.2200000000000D+00 -5.2169613880261D-02  1.4471603594486D+00
124  1.2300000000000D+00 -3.4486467126413D-02  1.4416169576590D+00
125  1.2400000000000D+00 -1.7513397876861D-02  1.4341619774020D+00
126  1.2500000000000D+00 -1.2598830600220D-03  1.4248263690709D+00
127  1.2600000000000D+00  1.4266353206406D-02  1.4136461598382D+00
128  1.2700000000000D+00  2.9058976928353D-02  1.4006616516766D+00
129  1.2800000000000D+00  4.3113801499591D-02  1.3859189272511D+00
130  1.2900000000000D+00  5.6428387662129D-02  1.3694687260506D+00
131  1.3000000000000D+00  6.9001588071123D-02  1.3513656236483D+00
132  1.3100000000000D+00  8.0834431773310D-02  1.3316694196315D+00
133  1.3200000000000D+00  9.1929480503192D-02  1.3104436895332D+00
134  1.3300000000000D+00  1.0229050762687D-01  1.2877555204027D+00
135  1.3400000000000D+00  1.1192350317689D-01  1.2636763212435D+00
136  1.3500000000000D+00  1.2083556772383D-01  1.2382803315094D+00
137  1.3600000000000D+00  1.2903525176898D-01  1.2116451389418D+00
138  1.3700000000000D+00  1.3653284769523D-01  1.1838509541952D+00
139  1.3800000000000D+00  1.4333962298935D-01  1.1549806705399D+00
140  1.3900000000000D+00  1.4946842773116D-01  1.1251192874236D+00
141  1.4000000000000D+00  1.5493324844896D-01  1.0943533809007D+00
142  1.4100000000000D+00  1.5974915095377D-01  1.0627720784748D+00
143  1.4200000000000D+00  1.6393247958083D-01  1.0304642142601D+00
144  1.4300000000000D+00  1.6750044041444D-01  9.9752108399668D-01
145  1.4400000000000D+00  1.7047130093459D-01  9.6403355751525D-01
146  1.4500000000000D+00  1.7286411270836D-01  9.3009276934149D-01
147  1.4600000000000D+00  1.7469885710894D-01  8.9579117970518D-01
148  1.4700000000000D+00  1.7599602306104D-01  8.6121810466117D-01
149  1.4800000000000D+00  1.7677706846636D-01  8.2646604320904D-01
150  1.4900000000000D+00  1.7706363172165D-01  7.9162221754025D-01
151  1.5000000000000D+00  1.7687816617794D-01  7.5677598062191D-01
152  1.5100000000000D+00  1.7624335539430D-01  7.2201313022207D-01
153  1.5200000000000D+00  1.7518218999856D-01  6.8741779079558D-01
154  1.5300000000000D+00  1.7371819574344D-01  6.5307350403351D-01
155  1.5400000000000D+00  1.7187450138267D-01  6.1905782096888D-01
156  1.5500000000000D+00  1.6967524871181D-01  5.8545107644971D-01
157  1.5600000000000D+00  1.6714338483185D-01  5.5232338673915D-01
158  1.5700000000000D+00  1.6430331215325D-01  5.1975026163464D-01
159  1.5800000000000D+00  1.6117769461179D-01  4.8779467639009D-01
160  1.5900000000000D+00  1.5779059711206D-01  4.5652459228796D-01
161  1.6000000000000D+00  1.5416443800097D-01  4.2599669107057D-01
162  1.6100000000000D+00  1.5032257337452D-01  3.9627011854645D-01
163  1.6200000000000D+00  1.4628694833659D-01  3.6739455865482D-01
164  1.6300000000000D+00  1.4207997627274D-01  3.3941986062578D-01
165  1.6400000000000D+00  1.3772289643413D-01  3.1238803105077D-01
166  1.6500000000000D+00  1.3323699765136D-01  2.8633939119093D-01
167  1.6600000000000D+00  1.2864258111266D-01  2.6130765317026D-01
168  1.6700000000000D+00  1.2395967951244D-01  2.3732360155811D-01
169  1.6800000000000D+00  1.1920742981193D-01  2.1441213427806D-01
170  1.6900000000000D+00  1.1440452423522D-01  1.9259468319643D-01
171  1.7000000000000D+00  1.0956872097020D-01  1.7188694215201D-01
172  1.7100000000000D+00  1.0471733051732D-01  1.5230133302404D-01
173  1.7200000000000D+00  9.9866535012260D-02  1.3384411721542D-01
174  1.7300000000000D+00  9.5032259394500D-02  1.1651916806346D-01
175  1.7400000000000D+00  9.0228935957390D-02  1.0032328066384D-01
176  1.7500000000000D+00  8.5471129945918D-02  8.5252312482450D-02
177  1.7600000000000D+00  8.0771380880387D-02  7.1293787977470D-02
178  1.7700000000000D+00  7.6142939657716D-02  5.8436098215268D-02
179  1.7800000000000D+00  7.1596349829995D-02  4.6657957462833D-02
180  1.7900000000000D+00  6.7143599966992D-02  3.5940799541683D-02
181  1.8000000000000D+00  6.2793184411977D-02  2.6255282992805D-02
182  1.8100000000000D+00  5.8555873311009D-02  1.7576302505102D-02
183  1.8200000000000D+00  5.4438299653406D-02  9.8678588530876D-03
184  1.8300000000000D+00  5.0449494133703D-02  3.0975922175738D-03
185  1.8400000000000D+00  4.6594910959442D-02 -2.7748919275142D-03
186  1.8500000000000D+00  4.2881452833583D-02 -7.7890746786428D-03
187  1.8600000000000D+00  3.9313716678949D-02 -1.1988807298459D-02
188  1.8700000000000D+00  3.5896418665843D-02 -1.5419458377990D-02
189  1.8800000000000D+00  3.2633404085647D-02 -1.8128095574807D-02
190  1.8900000000000D+00  2.9527275242228D-02 -2.0164241275983D-02
191  1.9000000000000D+00  2.6581173645589D-02 -2.1578222199962D-02
192  1.9100000000000D+00  2.3795765041378D-02 -2.2421734066372D-02
193  1.9200000000000D+00  2.1173393403086D-02 -2.2748516750720D-02
194  1.9300000000000D+00  1.8713350139024D-02 -2.2610999937492D-02
195  1.9400000000000D+00  1.6416295024719D-02 -2.2064803716901D-02
196  1.9500000000000D+00  1.4281141823331D-02 -2.1163497670106D-02
197  1.9600000000000D+00  1.2306682207653D-02 -1.9962222426553D-02
198  1.9700000000000D+00  1.0491470553002D-02 -1.8516433318041D-02
199  1.9800000000000D+00  8.8326228167544D-03 -1.6878396212982D-02
200  1.9900000000000D+00  7.3282446533092D-03 -1.5106257140924D-02
201  2.0000000000000D+00  5.9743265946581D-03 -1.3248755851053D-02
202  2.0100000000000D+00  4.7675283069121D-03 -1.1362804105730D-02
203  2.0200000000000D+00  3.7039246737455D-03 -9.4964963948968D-03
204  2.0300000000000D+00  2.7792773574131D-03 -7.6978126225195D-03
205  2.0400000000000D+00  1.9893318963174D-03 -6.0177705537582D-03
206  2.0500000000000D+00  1.3300106135530D-03 -4.4907868567714D-03
207  2.0600000000000D+00  7.9679694343494D-04 -3.1652477741129D-03
208  2.0700000000000D+00  3.8564441721305D-04 -2.0703194542767D-03
209  2.0800000000000D+00  9.5590915029587D-05 -1.2755986611842D-03
210  2.0900000000000D+00 -7.8208300866224D-05 -8.0885334857899D-04
211  2.1000000000000D+00 -1.5560285009741D-04 -5.2071489508037D-04
212  2.1100000000000D+00 -1.3026993854587D-04 -2.6628176044760D-04
213  2.1200000000000D+00 -5.5235283390872D-05 -8.0548223017464D-05
214  2.1300000000000D+00  5.8119458895555D-06  1.7756602868921D-05
215  2.1400000000000D+00  1.0271957648115D-05  3.1382789191438D-05
216  2.1500000000000D+00  2.4298464479803D-06  7.4236442026726D-06
217  2.1600000000000D+00  0.0000000000000D+00  0.0000000000000D+00
218  2.1700000000000D+00  0.0000000000000D+00  0.0000000000000D+00
219  2.1800000000000D+00  0.0000000000000D+00  0.0000000000000D+00
220  2.1900000000000D+00  0.0000000000000D+00  0.0000000000000D+00
221  2.2000000000000D+00  0.0000000000000D+00  0.0000000000000D+00
222  2.2100000000000D+00  0.0000000000000D+00  0.0000000000000D+00
223  2.2200000000000D+00  0.0000000000000D+00  0.0000000000000D+00
224  2.2300000000000D+00  0.0000000000000D+00  0.0000000000000D+00
225  2.2400000000000D+00  0.0000000000000D+00  0.0000000000000D+00
226  2.2500000000000D+00  0.0000000000000D+00  0.0000000000000D+00
227  2.2600000000000D+00  0.0000000000000D+00  0.0000000000000D+00
228  2.2700000000000D+00  0.0000000000000D+00  0.0000000000000D+00
229  2.2800000000000D+00  0.0000000000000D+00  0.0000000000000D+00
230  2.2900000000000D+00  0.0000000000000D+00  0.0000000000000D+00
231  2.3000000000000D+00  0.0000000000000D+00  0.0000000000000D+00
232  2.3100000000000D+00  0.0000000000000D+00  0.0000000000000D+00
233  2.3200000000000D+00  0.0000000000000D+00  0.0000000000000D+00
234  2.3300000000000D+00  0.0000000000000D+00  0.0000000000000D+00
235  2.3400000000000D+00  0.0000000000000D+00  0.0000000000000D+00
236  2.3500000000000D+00  0.0000000000000D+00  0.0000000000000D+00
237  2.3600000000000D+00  0.0000000000000D+00  0.0000000000000D+00
238  2.3700000000000D+00  0.0000000000000D+00  0.0000000000000D+00
239  2.3800000000000D+00  0.0000000000000D+00  0.0000000000000D+00
240  2.3900000000000D+00  0.0000000000000D+00  0.0000000000000D+00
241  2.4000000000000D+00  0.0000000000000D+00  0.0000000000000D+00
242  2.4100000000000D+00  0.0000000000000D+00  0.0000000000000D+00
243  2.4200000000000D+00  0.0000000000000D+00  0.0000000000000D+00
244  2.4300000000000D+00  0.0000000000000D+00  0.0000000000000D+00
245  2.4400000000000D+00  0.0000000000000D+00  0.0000000000000D+00
246  2.4500000000000D+00  0.0000000000000D+00  0.0000000000000D+00
247  2.4600000000000D+00  0.0000000000000D+00  0.0000000000000D+00
248  2.4700000000000D+00  0.0000000000000D+00  0.0000000000000D+00
249  2.4800000000000D+00  0.0000000000000D+00  0.0000000000000D+00
250  2.4900000000000D+00  0.0000000000000D+00  0.0000000000000D+00
251  2.5000000000000D+00  0.0000000000000D+00  0.0000000000000D+00
252  2.5100000000000D+00  0.0000000000000D+00  0.0000000000000D+00
253  2.5200000000000D+00  0.0000000000000D+00  0.0000000000000D+00
254  2.5300000000000D+00  0.0000000000000D+00  0.0000000000000D+00
255  2.5400000000000D+00  0.0000000000000D+00  0.0000000000000D+00
256  2.5500000000000D+00  0.0000000000000D+00  0.0000000000000D+00
257  2.5600000000000D+00  0.0000000000000D+00  0.0000000000000D+00
258  2.5700000000000D+00  0.0000000000000D+00  0.0000000000000D+00
259  2.5800000000000D+00  0.0000000000000D+00  0.0000000000000D+00
260  2.5900000000000D+00  0.0000000000000D+00  0.0000000000000D+00
261  2.6000000000000D+00  0.0000000000000D+00  0.0000000000000D+00
262  2.6100000000000D+00  0.0000000000000D+00  0.0000000000000D+00
263  2.6200000000000D+00  0.0000000000000D+00  0.0000000000000D+00
264  2.6300000000000D+00  0.0000000000000D+00  0.0000000000000D+00
265  2.6400000000000D+00  0.0000000000000D+00  0.0000000000000D+00
266  2.6500000000000D+00  0.0000000000000D+00  0.0000000000000D+00
267  2.6600000000000D+00  0.0000000000000D+00  0.0000000000000D+00
268  2.6700000000000D+00  0.0000000000000D+00  0.0000000000000D+00
269  2.6800000000000D+00  0.0000000000000D+00  0.0000000000000D+00
270  2.6900000000000D+00  0.0000000000000D+00  0.0000000000000D+00
271  2.7000000000000D+00  0.0000000000000D+00  0.0000000000000D+00
272  2.7100000000000D+00  0.0000000000000D+00  0.0000000000000D+00
273  2.7200000000000D+00  0.0000000000000D+00  0.0000000000000D+00
274  2.7300000000000D+00  0.0000000000000D+00  0.0000000000000D+00
275  2.7400000000000D+00  0.0000000000000D+00  0.0000000000000D+00
276  2.7500000000000D+00  0.0000000000000D+00  0.0000000000000D+00
277  2.7600000000000D+00  0.0000000000000D+00  0.0000000000000D+00
278  2.7700000000000D+00  0.0000000000000D+00  0.0000000000000D+00
279  2.7800000000000D+00  0.0000000000000D+00  0.0000000000000D+00
280  2.7900000000000D+00  0.0000000000000D+00  0.0000000000000D+00
281  2.8000000000000D+00  0.0000000000000D+00  0.0000000000000D+00
282  2.8100000000000D+00  0.0000000000000D+00  0.0000000000000D+00
283  2.8200000000000D+00  0.0000000000000D+00  0.0000000000000D+00
284  2.8300000000000D+00  0.0000000000000D+00  0.0000000000000D+00
285  2.8400000000000D+00  0.0000000000000D+00  0.0000000000000D+00
286  2.8500000000000D+00  0.0000000000000D+00  0.0000000000000D+00
287  2.8600000000000D+00  0.0000000000000D+00  0.0000000000000D+00
288  2.8700000000000D+00  0.0000000000000D+00  0.0000000000000D+00
289  2.8800000000000D+00  0.0000000000000D+00  0.0000000000000D+00
290  2.8900000000000D+00  0.0000000000000D+00  0.0000000000000D+00
291  2.9000000000000D+00  0.0000000000000D+00  0.0000000000000D+00
292  2.9100000000000D+00  0.0000000000000D+00  0.0000000000000D+00
293  2.9200000000000D+00  0.0000000000000D+00  0.0000000000000D+00
294  2.9300000000000D+00  0.0000000000000D+00  0.0000000000000D+00
295  2.9400000000000D+00  0.0000000000000D+00  0.0000000000000D+00
296  2.9500000000000D+00  0.0000000000000D+00  0.0000000000000D+00
297  2.9600000000000D+00  0.0000000000000D+00  0.0000000000000D+00
298  2.9700000000000D+00  0.0000000000000D+00  0.0000000000000D+00
299  2.9800000000000D+00  0.0000000000000D+00  0.0000000000000D+00
300  2.9900000000000D+00  0.0000000000000D+00  0.0000000000000D+00
301  3.0000000000000D+00  0.0000000000000D+00  0.0000000000000D+00
302  3.0100000000000D+00  0.0000000000000D+00  0.0000000000000D+00
303  3.0200000000000D+00  0.0000000000000D+00  0.0000000000000D+00
304  3.0300000000000D+00  0.0000000000000D+00  0.0000000000000D+00
305  3.0400000000000D+00  0.0000000000000D+00  0.0000000000000D+00
306  3.0500000000000D+00  0.0000000000000D+00  0.0000000000000D+00
307  3.0600000000000D+00  0.0000000000000D+00  0.0000000000000D+00
308  3.0700000000000D+00  0.0000000000000D+00  0.0000000000000D+00
309  3.0800000000000D+00  0.0000000000000D+00  0.0000000000000D+00
310  3.0900000000000D+00  0.0000000000000D+00  0.0000000000000D+00
311  3.1000000000000D+00  0.0000000000000D+00  0.0000000000000D+00
312  3.1100000000000D+00  0.0000000000000D+00  0.0000000000000D+00
313  3.1200000000000D+00  0.0000000000000D+00  0.0000000000000D+00
314  3.1300000000000D+00  0.0000000000000D+00  0.0000000000000D+00
315  3.1400000000000D+00  0.0000000000000D+00  0.0000000000000D+00
316  3.1500000000000D+00  0.0000000000000D+00  0.0000000000000D+00
317  3.1600000000000D+00  0.0000000000000D+00  0.0000000000000D+00
318  3.1700000000000D+00  0.0000000000000D+00  0.0000000000000D+00
319  3.1800000000000D+00  0.0000000000000D+00  0.0000000000000D+00
320  3.1900000000000D+00  0.0000000000000D+00  0.0000000000000D+00
321  3.2000000000000D+00  0.0000000000000D+00  0.0000000000000D+00
322  3.2100000000000D+00  0.0000000000000D+00  0.0000000000000D+00
323  3.2200000000000D+00  0.0000000000000D+00  0.0000000000000D+00
324  3.2300000000000D+00  0.0000000000000D+00  0.0000000000000D+00
325  3.2400000000000D+00  0.0000000000000D+00  0.0000000000000D+00
326  3.2500000000000D+00  0.0000000000000D+00  0.0000000000000D+00
327  3.2600000000000D+00  0.0000000000000D+00  0.0000000000000D+00
328  3.2700000000000D+00  0.0000000000000D+00  0.0000000000000D+00
329  3.2800000000000D+00  0.0000000000000D+00  0.0000000000000D+00
330  3.2900000000000D+00  0.0000000000000D+00  0.0000000000000D+00
331  3.3000000000000D+00  0.0000000000000D+00  0.0000000000000D+00
332  3.3100000000000D+00  0.0000000000000D+00  0.0000000000000D+00
333  3.3200000000000D+00  0.0000000000000D+00  0.0000000000000D+00
334  3.3300000000000D+00  0.0000000000000D+00  0.0000000000000D+00
335  3.3400000000000D+00  0.0000000000000D+00  0.0000000000000D+00
336  3.3500000000000D+00  0.0000000000000D+00  0.0000000000000D+00
337  3.3600000000000D+00  0.0000000000000D+00  0.0000000000000D+00
338  3.3700000000000D+00  0.0000000000000D+00  0.0000000000000D+00
339  3.3800000000000D+00  0.0000000000000D+00  0.0000000000000D+00
340  3.3900000000000D+00  0.0000000000000D+00  0.0000000000000D+00
341  3.4000000000000D+00  0.0000000000000D+00  0.0000000000000D+00
342  3.4100000000000D+00  0.0000000000000D+00  0.0000000000000D+00
343  3.4200000000000D+00  0.0000000000000D+00  0.0000000000000D+00
344  3.4300000000000D+00  0.0000000000000D+00  0.0000000000000D+00
345  3.4400000000000D+00  0.0000000000000D+00  0.0000000000000D+00
346  3.4500000000000D+00  0.0000000000000D+00  0.0000000000000D+00
347  3.4600000000000D+00  0.0000000000000D+00  0.0000000000000D+00
348  3.4700000000000D+00  0.0000000000000D+00  0.0000000000000D+00
349  3.4800000000000D+00  0.0000000000000D+00  0.0000000000000D+00
350  3.4900000000000D+00  0.0000000000000D+00  0.0000000000000D+00
351  3.5000000000000D+00  0.0000000000000D+00  0.0000000000000D+00
352  3.5100000000000D+00  0.0000000000000D+00  0.0000000000000D+00
353  3.5200000000000D+00  0.0000000000000D+00  0.0000000000000D+00
354  3.5300000000000D+00  0.0000000000000D+00  0.0000000000000D+00
355  3.5400000000000D+00  0.0000000000000D+00  0.0000000000000D+00
356  3.5500000000000D+00  0.0000000000000D+00  0.0000000000000D+00
357  3.5600000000000D+00  0.0000000000000D+00  0.0000000000000D+00
358  3.5700000000000D+00  0.0000000000000D+00  0.0000000000000D+00
359  3.5800000000000D+00  0.0000000000000D+00  0.0000000000000D+00
360  3.5900000000000D+00  0.0000000000000D+00  0.0000000000000D+00
361  3.6000000000000D+00  0.0000000000000D+00  0.0000000000000D+00
362  3.6100000000000D+00  0.0000000000000D+00  0.0000000000000D+00
363  3.6200000000000D+00  0.0000000000000D+00  0.0000000000000D+00
364  3.6300000000000D+00  0.0000000000000D+00  0.0000000000000D+00
365  3.6400000000000D+00  0.0000000000000D+00  0.0000000000000D+00
366  3.6500000000000D+00  0.0000000000000D+00  0.0000000000000D+00
367  3.6600000000000D+00  0.0000000000000D+00  0.0000000000000D+00
368  3.6700000000000D+00  0.0000000000000D+00  0.0000000000000D+00
369  3.6800000000000D+00  0.0000000000000D+00  0.0000000000000D+00
370  3.6900000000000D+00  0.0000000000000D+00  0.0000000000000D+00
371  3.7000000000000D+00  0.0000000000000D+00  0.0000000000000D+00
372  3.7100000000000D+00  0.0000000000000D+00  0.0000000000000D+00
373  3.7200000000000D+00  0.0000000000000D+00  0.0000000000000D+00
374  3.7300000000000D+00  0.0000000000000D+00  0.0000000000000D+00
375  3.7400000000000D+00  0.0000000000000D+00  0.0000000000000D+00
376  3.7500000000000D+00  0.0000000000000D+00  0.0000000000000D+00
377  3.7600000000000D+00  0.0000000000000D+00  0.0000000000000D+00
378  3.7700000000000D+00  0.0000000000000D+00  0.0000000000000D+00
379  3.7800000000000D+00  0.0000000000000D+00  0.0000000000000D+00
380  3.7900000000000D+00  0.0000000000000D+00  0.0000000000000D+00
381  3.8000000000000D+00  0.0000000000000D+00  0.0000000000000D+00
382  3.8100000000000D+00  0.0000000000000D+00  0.0000000000000D+00
383  3.8200000000000D+00  0.0000000000000D+00  0.0000000000000D+00
384  3.8300000000000D+00  0.0000000000000D+00  0.0000000000000D+00
385  3.8400000000000D+00  0.0000000000000D+00  0.0000000000000D+00
386  3.8500000000000D+00  0.0000000000000D+00  0.0000000000000D+00
387  3.8600000000000D+00  0.0000000000000D+00  0.0000000000000D+00
388  3.8700000000000D+00  0.0000000000000D+00  0.0000000000000D+00
389  3.8800000000000D+00  0.0000000000000D+00  0.0000000000000D+00
390  3.8900000000000D+00  0.0000000000000D+00  0.0000000000000D+00
391  3.9000000000000D+00  0.0000000000000D+00  0.0000000000000D+00
392  3.9100000000000D+00  0.0000000000000D+00  0.0000000000000D+00
393  3.9200000000000D+00  0.0000000000000D+00  0.0000000000000D+00
394  3.9300000000000D+00  0.0000000000000D+00  0.0000000000000D+00
395  3.9400000000000D+00  0.0000000000000D+00  0.0000000000000D+00
396  3.9500000000000D+00  0.0000000000000D+00  0.0000000000000D+00
397  3.9600000000000D+00  0.0000000000000D+00  0.0000000000000D+00
398  3.9700000000000D+00  0.0000000000000D+00  0.0000000000000D+00
399  3.9800000000000D+00  0.0000000000000D+00  0.0000000000000D+00
400  3.9900000000000D+00  0.0000000000000D+00  0.0000000000000D+00
401  4.0000000000000D+00  0.0000000000000D+00  0.0000000000000D+00
402  4.0100000000000D+00  0.0000000000000D+00  0.0000000000000D+00
403  4.0200000000000D+00  0.0000000000000D+00  0.0000000000000D+00
404  4.0300000000000D+00  0.0000000000000D+00  0.0000000000000D+00
405  4.0400000000000D+00  0.0000000000000D+00  0.0000000000000D+00
406  4.0500000000000D+00  0.0000000000000D+00  0.0000000000000D+00
407  4.0600000000000D+00  0.0000000000000D+00  0.0000000000000D+00
408  4.0700000000000D+00  0.0000000000000D+00  0.0000000000000D+00
409  4.0800000000000D+00  0.0000000000000D+00  0.0000000000000D+00
410  4.0900000000000D+00  0.0000000000000D+00  0.0000000000000D+00
411  4.1000000000000D+00  0.0000000000000D+00  0.0000000000000D+00
412  4.1100000000000D+00  0.0000000000000D+00  0.0000000000000D+00
413  4.1200000000000D+00  0.0000000000000D+00  0.0000000000000D+00
414  4.1300000000000D+00  0.0000000000000D+00  0.0000000000000D+00
415  4.1400000000000D+00  0.0000000000000D+00  0.0000000000000D+00
416  4.1500000000000D+00  0.0000000000000D+00  0.0000000000000D+00
417  4.1600000000000D+00  0.0000000000000D+00  0.0000000000000D+00
418  4.1700000000000D+00  0.0000000000000D+00  0.0000000000000D+00
419  4.1800000000000D+00  0.0000000000000D+00  0.0000000000000D+00
420  4.1900000000000D+00  0.0000000000000D+00  0.0000000000000D+00
421  4.2000000000000D+00  0.0000000000000D+00  0.0000000000000D+00
422  4.2100000000000D+00  0.0000000000000D+00  0.0000000000000D+00
423  4.2200000000000D+00  0.0000000000000D+00  0.0000000000000D+00
424  4.2300000000000D+00  0.0000000000000D+00  0.0000000000000D+00
425  4.2400000000000D+00  0.0000000000000D+00  0.0000000000000D+00
426  4.2500000000000D+00  0.0000000000000D+00  0.0000000000000D+00
427  4.2600000000000D+00  0.0000000000000D+00  0.0000000000000D+00
428  4.2700000000000D+00  0.0000000000000D+00  0.0000000000000D+00
429  4.2800000000000D+00  0.0000000000000D+00  0.0000000000000D+00
430  4.2900000000000D+00  0.0000000000000D+00  0.0000000000000D+00
431  4.3000000000000D+00  0.0000000000000D+00  0.0000000000000D+00
432  4.3100000000000D+00  0.0000000000000D+00  0.0000000000000D+00
433  4.3200000000000D+00  0.0000000000000D+00  0.0000000000000D+00
434  4.3300000000000D+00  0.0000000000000D+00  0.0000000000000D+00
435  4.3400000000000D+00  0.0000000000000D+00  0.0000000000000D+00
436  4.3500000000000D+00  0.0000000000000D+00  0.0000000000000D+00
437  4.3600000000000D+00  0.0000000000000D+00  0.0000000000000D+00
438  4.3700000000000D+00  0.0000000000000D+00  0.0000000000000D+00
439  4.3800000000000D+00  0.0000000000000D+00  0.0000000000000D+00
440  4.3900000000000D+00  0.0000000000000D+00  0.0000000000000D+00
441  4.4000000000000D+00  0.0000000000000D+00  0.0000000000000D+00
442  4.4100000000000D+00  0.0000000000000D+00  0.0000000000000D+00
443  4.4200000000000D+00  0.0000000000000D+00  0.0000000000000D+00
444  4.4300000000000D+00  0.0000000000000D+00  0.0000000000000D+00