N     ONCVPSP  r_core=  1.31  1.46
      7.0000      5.0000      141008    zatom,zion,pspd
     8    11     1     4   601     0    pspcod,pspxc,lmax,lloc,mmax,r2well
  6.00000000  0.15000000  0.00000000    rchrg fchrg qchrg
     2     2     0     0     0    nproj
     0                 extension_switch
   0                         6.4033818851674D+00  9.4578015613966D-01
     1  0.0000000000000D+00  0.0000000000000D+00  0.0000000000000D+00
     2  1.0000000000000D-02 -8.5824392315484D-02  1.8988387730058D-02
     3  2.0000000000000D-02 -1.7114946745701D-01  3.7015727723366D-02
     4  3.0000000000000D-02 -2.5548330362347D-01  5.3141645566867D-02
     5  4.0000000000000D-02 -3.3834863692986D-01  6.6466717794824D-02
     6  5.0000000000000D-02 -4.1928986067667D-01  7.6151965306211D-02
     7  6.0000000000000D-02 -4.9787963562068D-01  8.1437188306725D-02
     8  7.0000000000000D-02 -5.7372499252961D-01  8.1657789633949D-02
     9  8.0000000000000D-02 -6.4647281737932D-01  7.6259760707815D-02
    10  9.0000000000000D-02 -7.1581462070564D-01  6.4812537967002D-02
    11  1.0000000000000D-01 -7.8149050545650D-01  4.7019476357393D-02
    12  1.1000000000000D-01 -8.4329226209792D-01  2.2725729886616D-02
    13  1.2000000000000D-01 -9.0106553555076D-01 -8.0766230826990D-03
    14  1.3000000000000D-01 -9.5471102516528D-01 -4.5246321987359D-02
    15  1.4000000000000D-01 -1.0041846963660D+00 -8.8493593252460D-02
    16  1.5000000000000D-01 -1.0494970007734D+00 -1.3738375170351D-01
    17  1.6000000000000D-01 -1.0907111191234D+00 -1.9134368598463D-01
    18  1.7000000000000D-01 -1.1279402594378D+00 -2.4967112616645D-01
    19  1.8000000000000D-01 -1.1613440603078D+00 -3.1154653812797D-01
    20  1.9000000000000D-01 -1.1911241631594D+00 -3.7604744901787D-01
    21  2.0000000000000D-01 -1.2175190411644D+00 -4.4216493298401D-01
    22  2.1000000000000D-01 -1.2407981656744D+00 -5.0882201391546D-01
    23  2.2000000000000D-01 -1.2612556370970D+00 -5.7489359302065D-01
    24  2.3000000000000D-01 -1.2792033781221D+00 -6.3922760800427D-01
    25  2.4000000000000D-01 -1.2949640361406D+00 -7.0066697382129D-01
    26  2.5000000000000D-01 -1.3088636862223D+00 -7.5807203235796D-01
    27  2.6000000000000D-01 -1.3212245461718D+00 -8.1034286161424D-01
    28  2.7000000000000D-01 -1.3323577249124D+00 -8.5644139131308D-01
    29  2.8000000000000D-01 -1.3425562739705D+00 -8.9541249617340D-01
    30  2.9000000000000D-01 -1.3520885611234D+00 -9.2640401937474D-01
    31  3.0000000000000D-01 -1.3611921472644D+00 -9.4868517413354D-01
    32  3.1000000000000D-01 -1.3700682734831D+00 -9.6166300188804D-01
    33  3.2000000000000D-01 -1.3788770919233D+00 -9.6489648480758D-01
    34  3.3000000000000D-01 -1.3877336399530D+00 -9.5810831692421D-01
    35  3.4000000000000D-01 -1.3967047477883D+00 -9.4119375750527D-01
    36  3.5000000000000D-01 -1.4058069782856D+00 -9.1422627858598D-01
    37  3.6000000000000D-01 -1.4150053667920D+00 -8.7746069786031D-01
    38  3.7000000000000D-01 -1.4242134137008D+00 -8.3133244833362D-01
    39  3.8000000000000D-01 -1.4332940430207D+00 -7.7645385166898D-01
    40  3.9000000000000D-01 -1.4420614809352D+00 -7.1360751023045D-01
    41  4.0000000000000D-01 -1.4502843470511D+00 -6.4373599089256D-01
    42  4.1000000000000D-01 -1.4576895863293D+00 -5.6792888489842D-01
    43  4.2000000000000D-01 -1.4639673334976D+00 -4.8740698866918D-01
    44  4.3000000000000D-01 -1.4687766082005D+00 -4.0350391690819D-01
    45  4.4000000000000D-01 -1.4717517433722D+00 -3.1764544779814D-01
    46  4.5000000000000D-01 -1.4725094384315D+00 -2.3132693354890D-01
    47  4.6000000000000D-01 -1.4706563161174D+00 -1.4608914856101D-01
    48  4.7000000000000D-01 -1.4657968487554D+00 -6.3492987488958D-02
    49  4.8000000000000D-01 -1.4575413602492D+00  1.4906056805590D-02
    50  4.9000000000000D-01 -1.4455146262912D+00  8.7585370880437D-02
    51  5.0000000000000D-01 -1.4293638833155D+00  1.5308078625698D-01
    52  5.1000000000000D-01 -1.4087666214883D+00  2.1001151632548D-01
    53  5.2000000000000D-01 -1.3834383012489D+00  2.5710492570317D-01
    54  5.3000000000000D-01 -1.3531401841667D+00  2.9322177033282D-01
    55  5.4000000000000D-01 -1.3176843890421D+00  3.1737257575103D-01
    56  5.5000000000000D-01 -1.2769414425386D+00  3.2874225384859D-01
    57  5.6000000000000D-01 -1.2308436740528D+00  3.2670141540000D-01
    58  5.7000000000000D-01 -1.1793902308909D+00  3.1082312780650D-01
    59  5.8000000000000D-01 -1.1226492581018D+00  2.8089067278437D-01
    60  5.9000000000000D-01 -1.0607605741853D+00  2.3690715585727D-01
    61  6.0000000000000D-01 -9.9393494721063D-01  1.7909420356671D-01
    62  6.1000000000000D-01 -9.2245569298149D-01  1.0789867014273D-01
    63  6.2000000000000D-01 -8.4667449396256D-01  2.3980361686043D-02
    64  6.3000000000000D-01 -7.6701066565256D-01 -7.1788253510409D-02
    65  6.4000000000000D-01 -6.8394608039807D-01 -1.7833665245796D-01
    66  6.5000000000000D-01 -5.9801986604248D-01 -2.9441152694723D-01
    67  6.6000000000000D-01 -5.0982313082778D-01 -4.1859105004878D-01
    68  6.7000000000000D-01 -4.1999126460646D-01 -5.4930760472292D-01
    69  6.8000000000000D-01 -3.2919618302438D-01 -6.8487040107486D-01
    70  6.9000000000000D-01 -2.3813826184932D-01 -8.2348917964187D-01
    71  7.0000000000000D-01 -1.4753619722814D-01 -9.6330328997436D-01
    72  7.1000000000000D-01 -5.8118154821701D-02 -1.1024085220248D+00
    73  7.2000000000000D-01  2.9388193705888D-02 -1.2388863232134D+00
    74  7.3000000000000D-01  1.1426562073183D-01 -1.3708332697147D+00
    75  7.4000000000000D-01  1.9581671836179D-01 -1.4963889837652D+00
    76  7.5000000000000D-01  2.7337491332148D-01 -1.6137686265386D+00
    77  7.6000000000000D-01  3.4631326722188D-01 -1.7212892669270D+00
    78  7.7000000000000D-01  4.1405284681859D-01 -1.8173949016220D+00
    79  7.8000000000000D-01  4.7607117288605D-01 -1.9006816192318D+00
    80  7.9000000000000D-01  5.3190960293822D-01 -1.9699196682870D+00
    81  8.0000000000000D-01  5.8117979553422D-01 -2.0240728070848D+00
    82  8.1000000000000D-01  6.2356914743506D-01 -2.0623146060385D+00
    83  8.2000000000000D-01  6.5884511201385D-01 -2.0840414249902D+00
    84  8.3000000000000D-01  6.8685832591982D-01 -2.0888818441789D+00
    85  8.4000000000000D-01  7.0754449070530D-01 -2.0767023871518D+00
    86  8.5000000000000D-01  7.2092497660916D-01 -2.0476094358683D+00
    87  8.6000000000000D-01  7.2710613664011D-01 -2.0019473016039D+00
    88  8.7000000000000D-01  7.2627734023677D-01 -1.9402924791831D+00
    89  8.8000000000000D-01  7.1870775684838D-01 -1.8634441757697D+00
    90  8.9000000000000D-01  7.0474194054556D-01 -1.7724112682228D+00
    91  9.0000000000000D-01  6.8479428700686D-01 -1.6683959041767D+00
    92  9.1000000000000D-01  6.5934245368425D-01 -1.5527740207676D+00
    93  9.2000000000000D-01  6.2891985233296D-01 -1.4270731104049D+00
    94  9.3000000000000D-01  5.9410734002894D-01 -1.2929476140407D+00
    95  9.4000000000000D-01  5.5552424982050D-01 -1.1521523676077D+00
    96  9.5000000000000D-01  5.1381891468908D-01 -1.0065145649015D+00
    97  9.6000000000000D-01  4.6965965013967D-01 -8.5790716221482D-01
    98  9.7000000000000D-01  4.2372332984088D-01 -7.0821496219069D-01
    99  9.8000000000000D-01  3.7668540016655D-01 -5.5930529050257D-01
   100  9.9000000000000D-01  3.2921044557605D-01 -4.1300024473522D-01
   101  1.0000000000000D+00  2.8194238403021D-01 -2.7104787895207D-01
   102  1.0100000000000D+00  2.3549534201858D-01 -1.3509549005727D-01
   103  1.0200000000000D+00  1.9044538882436D-01 -6.6655205870545D-03
   104  1.0300000000000D+00  1.4732692554630D-01  1.1285474064570D-01
   105  1.0400000000000D+00  1.0661201776636D-01  2.2227374655016D-01
   106  1.0500000000000D+00  6.8717034484710D-02  3.2057534630778D-01
   107  1.0600000000000D+00  3.3994301823152D-02  4.0694279857229D-01
   108  1.0700000000000D+00  2.7285541947040D-03  4.8076846833453D-01
   109  1.0800000000000D+00 -2.4858758282173D-02  5.4164067603981D-01
   110  1.0900000000000D+00 -4.8633245089238D-02  5.8941182501745D-01
   111  1.1000000000000D+00 -6.8525937602356D-02  6.2413414207546D-01
   112  1.1100000000000D+00 -8.4537916261737D-02  6.4607202190770D-01
   113  1.1200000000000D+00 -9.6733777030754D-02  6.5568230412197D-01
   114  1.1300000000000D+00 -1.0525236402114D-01  6.5364291231819D-01
   115  1.1400000000000D+00 -1.1029208221035D-01  6.4080845399213D-01
   116  1.1500000000000D+00 -1.1210270655609D-01  6.1818532776182D-01
   117  1.1600000000000D+00 -1.1097978568885D-01  5.8691535567630D-01
   118  1.1700000000000D+00 -1.0726824754916D-01  5.4827982854932D-01
   119  1.1800000000000D+00 -1.0134144865617D-01  5.0363938005964D-01
   120  1.1900000000000D+00 -9.3596709882869D-02  4.5442047529519D-01
   121  1.2000000000000D+00 -8.4451461117848D-02  4.0210184312608D-01
   122  1.2100000000000D+00 -7.4326238663552D-02  3.4815711708540D-01
   123  1.2200000000000D+00 -6.3639081647041D-02  2.9404378860400D-01
   124  1.2300000000000D+00 -5.2808915216693D-02  2.4121465617518D-01
   125  1.2400000000000D+00 -4.2219180697006D-02  1.9099397441877D-01
   126  1.2500000000000D+00 -3.2231080677393D-02  1.4462930659997D-01
   127  1.2600000000000D+00 -2.3188054462008D-02  1.0330544377355D-01
   128  1.2700000000000D+00 -1.5367827828813D-02  6.7985314064046D-02
   129  1.2800000000000D+00 -9.0082335312891D-03  3.9499208279887D-02
   130  1.2900000000000D+00 -4.3190522547030D-03  1.8583363757170D-02
   131  1.3000000000000D+00 -1.5430723301730D-03  6.1985948806260D-03
   132  1.3100000000000D+00 -4.0762512939629D-04  1.1630233380963D-03
   133  1.3200000000000D+00 -1.6097833069357D-05 -1.8110417723235D-04
   134  1.3300000000000D+00  2.0968602652657D-05 -5.7609535684359D-05
   135  1.3400000000000D+00  8.7296391841512D-06 -2.3983975872002D-05
   136  1.3500000000000D+00  0.0000000000000D+00  0.0000000000000D+00
   137  1.3600000000000D+00  0.0000000000000D+00  0.0000000000000D+00
   138  1.3700000000000D+00  0.0000000000000D+00  0.0000000000000D+00
   139  1.3800000000000D+00  0.0000000000000D+00  0.0000000000000D+00
   140  1.3900000000000D+00  0.0000000000000D+00  0.0000000000000D+00
   141  1.4000000000000D+00  0.0000000000000D+00  0.0000000000000D+00
   142  1.4100000000000D+00  0.0000000000000D+00  0.0000000000000D+00
   143  1.4200000000000D+00  0.0000000000000D+00  0.0000000000000D+00
   144  1.4300000000000D+00  0.0000000000000D+00  0.0000000000000D+00
   145  1.4400000000000D+00  0.0000000000000D+00  0.0000000000000D+00
   146  1.4500000000000D+00  0.0000000000000D+00  0.0000000000000D+00
   147  1.4600000000000D+00  0.0000000000000D+00  0.0000000000000D+00
   148  1.4700000000000D+00  0.0000000000000D+00  0.0000000000000D+00
   149  1.4800000000000D+00  0.0000000000000D+00  0.0000000000000D+00
   150  1.4900000000000D+00  0.0000000000000D+00  0.0000000000000D+00
   151  1.5000000000000D+00  0.0000000000000D+00  0.0000000000000D+00
   152  1.5100000000000D+00  0.0000000000000D+00  0.0000000000000D+00
   153  1.5200000000000D+00  0.0000000000000D+00  0.0000000000000D+00
   154  1.5300000000000D+00  0.0000000000000D+00  0.0000000000000D+00
   155  1.5400000000000D+00  0.0000000000000D+00  0.0000000000000D+00
   156  1.5500000000000D+00  0.0000000000000D+00  0.0000000000000D+00
   157  1.5600000000000D+00  0.0000000000000D+00  0.0000000000000D+00
   158  1.5700000000000D+00  0.0000000000000D+00  0.0000000000000D+00
   159  1.5800000000000D+00  0.0000000000000D+00  0.0000000000000D+00
   160  1.5900000000000D+00  0.0000000000000D+00  0.0000000000000D+00
   161  1.6000000000000D+00  0.0000000000000D+00  0.0000000000000D+00
   162  1.6100000000000D+00  0.0000000000000D+00  0.0000000000000D+00
   163  1.6200000000000D+00  0.0000000000000D+00  0.0000000000000D+00
   164  1.6300000000000D+00  0.0000000000000D+00  0.0000000000000D+00
   165  1.6400000000000D+00  0.0000000000000D+00  0.0000000000000D+00
   166  1.6500000000000D+00  0.0000000000000D+00  0.0000000000000D+00
   167  1.6600000000000D+00  0.0000000000000D+00  0.0000000000000D+00
   168  1.6700000000000D+00  0.0000000000000D+00  0.0000000000000D+00
   169  1.6800000000000D+00  0.0000000000000D+00  0.0000000000000D+00
   170  1.6900000000000D+00  0.0000000000000D+00  0.0000000000000D+00
   171  1.7000000000000D+00  0.0000000000000D+00  0.0000000000000D+00
   172  1.7100000000000D+00  0.0000000000000D+00  0.0000000000000D+00
   173  1.7200000000000D+00  0.0000000000000D+00  0.0000000000000D+00
   174  1.7300000000000D+00  0.0000000000000D+00  0.0000000000000D+00
   175  1.7400000000000D+00  0.0000000000000D+00  0.0000000000000D+00
   176  1.7500000000000D+00  0.0000000000000D+00  0.0000000000000D+00
   177  1.7600000000000D+00  0.0000000000000D+00  0.0000000000000D+00
   178  1.7700000000000D+00  0.0000000000000D+00  0.0000000000000D+00
   179  1.7800000000000D+00  0.0000000000000D+00  0.0000000000000D+00
   180  1.7900000000000D+00  0.0000000000000D+00  0.0000000000000D+00
   181  1.8000000000000D+00  0.0000000000000D+00  0.0000000000000D+00
   182  1.8100000000000D+00  0.0000000000000D+00  0.0000000000000D+00
   183  1.8200000000000D+00  0.0000000000000D+00  0.0000000000000D+00
   184  1.8300000000000D+00  0.0000000000000D+00  0.0000000000000D+00
   185  1.8400000000000D+00  0.0000000000000D+00  0.0000000000000D+00
   186  1.8500000000000D+00  0.0000000000000D+00  0.0000000000000D+00
   187  1.8600000000000D+00  0.0000000000000D+00  0.0000000000000D+00
   188  1.8700000000000D+00  0.0000000000000D+00  0.0000000000000D+00
   189  1.8800000000000D+00  0.0000000000000D+00  0.0000000000000D+00
   190  1.8900000000000D+00  0.0000000000000D+00  0.0000000000000D+00
   191  1.9000000000000D+00  0.0000000000000D+00  0.0000000000000D+00
   192  1.9100000000000D+00  0.0000000000000D+00  0.0000000000000D+00
   193  1.9200000000000D+00  0.0000000000000D+00  0.0000000000000D+00
   194  1.9300000000000D+00  0.0000000000000D+00  0.0000000000000D+00
   195  1.9400000000000D+00  0.0000000000000D+00  0.0000000000000D+00
   196  1.9500000000000D+00  0.0000000000000D+00  0.0000000000000D+00
   197  1.9600000000000D+00  0.0000000000000D+00  0.0000000000000D+00
   198  1.9700000000000D+00  0.0000000000000D+00  0.0000000000000D+00
   199  1.9800000000000D+00  0.0000000000000D+00  0.0000000000000D+00
   200  1.9900000000000D+00  0.0000000000000D+00  0.0000000000000D+00
   201  2.0000000000000D+00  0.0000000000000D+00  0.0000000000000D+00
   202  2.0100000000000D+00  0.0000000000000D+00  0.0000000000000D+00
   203  2.0200000000000D+00  0.0000000000000D+00  0.0000000000000D+00
   204  2.0300000000000D+00  0.0000000000000D+00  0.0000000000000D+00
   205  2.0400000000000D+00  0.0000000000000D+00  0.0000000000000D+00
   206  2.0500000000000D+00  0.0000000000000D+00  0.0000000000000D+00
   207  2.0600000000000D+00  0.0000000000000D+00  0.0000000000000D+00
   208  2.0700000000000D+00  0.0000000000000D+00  0.0000000000000D+00
   209  2.0800000000000D+00  0.0000000000000D+00  0.0000000000000D+00
   210  2.0900000000000D+00  0.0000000000000D+00  0.0000000000000D+00
   211  2.1000000000000D+00  0.0000000000000D+00  0.0000000000000D+00
   212  2.1100000000000D+00  0.0000000000000D+00  0.0000000000000D+00
   213  2.1200000000000D+00  0.0000000000000D+00  0.0000000000000D+00
   214  2.1300000000000D+00  0.0000000000000D+00  0.0000000000000D+00
   215  2.1400000000000D+00  0.0000000000000D+00  0.0000000000000D+00
   216  2.1500000000000D+00  0.0000000000000D+00  0.0000000000000D+00
   217  2.1600000000000D+00  0.0000000000000D+00  0.0000000000000D+00
   218  2.1700000000000D+00  0.0000000000000D+00  0.0000000000000D+00
   219  2.1800000000000D+00  0.0000000000000D+00  0.0000000000000D+00
   220  2.1900000000000D+00  0.0000000000000D+00  0.0000000000000D+00
   221  2.2000000000000D+00  0.0000000000000D+00  0.0000000000000D+00
   222  2.2100000000000D+00  0.0000000000000D+00  0.0000000000000D+00
   223  2.2200000000000D+00  0.0000000000000D+00  0.0000000000000D+00
   224  2.2300000000000D+00  0.0000000000000D+00  0.0000000000000D+00
   225  2.2400000000000D+00  0.0000000000000D+00  0.0000000000000D+00
   226  2.2500000000000D+00  0.0000000000000D+00  0.0000000000000D+00
   227  2.2600000000000D+00  0.0000000000000D+00  0.0000000000000D+00
   228  2.2700000000000D+00  0.0000000000000D+00  0.0000000000000D+00
   229  2.2800000000000D+00  0.0000000000000D+00  0.0000000000000D+00
   230  2.2900000000000D+00  0.0000000000000D+00  0.0000000000000D+00
   231  2.3000000000000D+00  0.0000000000000D+00  0.0000000000000D+00
   232  2.3100000000000D+00  0.0000000000000D+00  0.0000000000000D+00
   233  2.3200000000000D+00  0.0000000000000D+00  0.0000000000000D+00
   234  2.3300000000000D+00  0.0000000000000D+00  0.0000000000000D+00
   235  2.3400000000000D+00  0.0000000000000D+00  0.0000000000000D+00
   236  2.3500000000000D+00  0.0000000000000D+00  0.0000000000000D+00
   237  2.3600000000000D+00  0.0000000000000D+00  0.0000000000000D+00
   238  2.3700000000000D+00  0.0000000000000D+00  0.0000000000000D+00
   239  2.3800000000000D+00  0.0000000000000D+00  0.0000000000000D+00
   240  2.3900000000000D+00  0.0000000000000D+00  0.0000000000000D+00
   241  2.4000000000000D+00  0.0000000000000D+00  0.0000000000000D+00
   242  2.4100000000000D+00  0.0000000000000D+00  0.0000000000000D+00
   243  2.4200000000000D+00  0.0000000000000D+00  0.0000000000000D+00
   244  2.4300000000000D+00  0.0000000000000D+00  0.0000000000000D+00
   245  2.4400000000000D+00  0.0000000000000D+00  0.0000000000000D+00
   246  2.4500000000000D+00  0.0000000000000D+00  0.0000000000000D+00
   247  2.4600000000000D+00  0.0000000000000D+00  0.0000000000000D+00
   248  2.4700000000000D+00  0.0000000000000D+00  0.0000000000000D+00
   249  2.4800000000000D+00  0.0000000000000D+00  0.0000000000000D+00
   250  2.4900000000000D+00  0.0000000000000D+00  0.0000000000000D+00
   251  2.5000000000000D+00  0.0000000000000D+00  0.0000000000000D+00
   252  2.5100000000000D+00  0.0000000000000D+00  0.0000000000000D+00
   253  2.5200000000000D+00  0.0000000000000D+00  0.0000000000000D+00
   254  2.5300000000000D+00  0.0000000000000D+00  0.0000000000000D+00
   255  2.5400000000000D+00  0.0000000000000D+00  0.0000000000000D+00
   256  2.5500000000000D+00  0.0000000000000D+00  0.0000000000000D+00
   257  2.5600000000000D+00  0.0000000000000D+00  0.0000000000000D+00
   258  2.5700000000000D+00  0.0000000000000D+00  0.0000000000000D+00
   259  2.5800000000000D+00  0.0000000000000D+00  0.0000000000000D+00
   260  2.5900000000000D+00  0.0000000000000D+00  0.0000000000000D+00
   261  2.6000000000000D+00  0.0000000000000D+00  0.0000000000000D+00
   262  2.6100000000000D+00  0.0000000000000D+00  0.0000000000000D+00
   263  2.6200000000000D+00  0.0000000000000D+00  0.0000000000000D+00
   264  2.6300000000000D+00  0.0000000000000D+00  0.0000000000000D+00
   265  2.6400000000000D+00  0.0000000000000D+00  0.0000000000000D+00
   266  2.6500000000000D+00  0.0000000000000D+00  0.0000000000000D+00
   267  2.6600000000000D+00  0.0000000000000D+00  0.0000000000000D+00
   268  2.6700000000000D+00  0.0000000000000D+00  0.0000000000000D+00
   269  2.6800000000000D+00  0.0000000000000D+00  0.0000000000000D+00
   270  2.6900000000000D+00  0.0000000000000D+00  0.0000000000000D+00
   271  2.7000000000000D+00  0.0000000000000D+00  0.0000000000000D+00
   272  2.7100000000000D+00  0.0000000000000D+00  0.0000000000000D+00
   273  2.7200000000000D+00  0.0000000000000D+00  0.0000000000000D+00
   274  2.7300000000000D+00  0.0000000000000D+00  0.0000000000000D+00
   275  2.7400000000000D+00  0.0000000000000D+00  0.0000000000000D+00
   276  2.7500000000000D+00  0.0000000000000D+00  0.0000000000000D+00
   277  2.7600000000000D+00  0.0000000000000D+00  0.0000000000000D+00
   278  2.7700000000000D+00  0.0000000000000D+00  0.0000000000000D+00
   279  2.7800000000000D+00  0.0000000000000D+00  0.0000000000000D+00
   280  2.7900000000000D+00  0.0000000000000D+00  0.0000000000000D+00
   281  2.8000000000000D+00  0.0000000000000D+00  0.0000000000000D+00
   282  2.8100000000000D+00  0.0000000000000D+00  0.0000000000000D+00
   283  2.8200000000000D+00  0.0000000000000D+00  0.0000000000000D+00
   284  2.8300000000000D+00  0.0000000000000D+00  0.0000000000000D+00
   285  2.8400000000000D+00  0.0000000000000D+00  0.0000000000000D+00
   286  2.8500000000000D+00  0.0000000000000D+00  0.0000000000000D+00
   287  2.8600000000000D+00  0.0000000000000D+00  0.0000000000000D+00
   288  2.8700000000000D+00  0.0000000000000D+00  0.0000000000000D+00
   289  2.8800000000000D+00  0.0000000000000D+00  0.0000000000000D+00
   290  2.8900000000000D+00  0.0000000000000D+00  0.0000000000000D+00
   291  2.9000000000000D+00  0.0000000000000D+00  0.0000000000000D+00
   292  2.9100000000000D+00  0.0000000000000D+00  0.0000000000000D+00
   293  2.9200000000000D+00  0.0000000000000D+00  0.0000000000000D+00
   294  2.9300000000000D+00  0.0000000000000D+00  0.0000000000000D+00
   295  2.9400000000000D+00  0.0000000000000D+00  0.0000000000000D+00
   296  2.9500000000000D+00  0.0000000000000D+00  0.0000000000000D+00
   297  2.9600000000000D+00  0.0000000000000D+00  0.0000000000000D+00
   298  2.9700000000000D+00  0.0000000000000D+00  0.0000000000000D+00
   299  2.9800000000000D+00  0.0000000000000D+00  0.0000000000000D+00
   300  2.9900000000000D+00  0.0000000000000D+00  0.0000000000000D+00
   301  3.0000000000000D+00  0.0000000000000D+00  0.0000000000000D+00
   302  3.0100000000000D+00  0.0000000000000D+00  0.0000000000000D+00
   303  3.0200000000000D+00  0.0000000000000D+00  0.0000000000000D+00
   304  3.0300000000000D+00  0.0000000000000D+00  0.0000000000000D+00
   305  3.0400000000000D+00  0.0000000000000D+00  0.0000000000000D+00
   306  3.0500000000000D+00  0.0000000000000D+00  0.0000000000000D+00
   307  3.0600000000000D+00  0.0000000000000D+00  0.0000000000000D+00
   308  3.0700000000000D+00  0.0000000000000D+00  0.0000000000000D+00
   309  3.0800000000000D+00  0.0000000000000D+00  0.0000000000000D+00
   310  3.0900000000000D+00  0.0000000000000D+00  0.0000000000000D+00
   311  3.1000000000000D+00  0.0000000000000D+00  0.0000000000000D+00
   312  3.1100000000000D+00  0.0000000000000D+00  0.0000000000000D+00
   313  3.1200000000000D+00  0.0000000000000D+00  0.0000000000000D+00
   314  3.1300000000000D+00  0.0000000000000D+00  0.0000000000000D+00
   315  3.1400000000000D+00  0.0000000000000D+00  0.0000000000000D+00
   316  3.1500000000000D+00  0.0000000000000D+00  0.0000000000000D+00
   317  3.1600000000000D+00  0.0000000000000D+00  0.0000000000000D+00
   318  3.1700000000000D+00  0.0000000000000D+00  0.0000000000000D+00
   319  3.1800000000000D+00  0.0000000000000D+00  0.0000000000000D+00
   320  3.1900000000000D+00  0.0000000000000D+00  0.0000000000000D+00
   321  3.2000000000000D+00  0.0000000000000D+00  0.0000000000000D+00
   322  3.2100000000000D+00  0.0000000000000D+00  0.0000000000000D+00
   323  3.2200000000000D+00  0.0000000000000D+00  0.0000000000000D+00
   324  3.2300000000000D+00  0.0000000000000D+00  0.0000000000000D+00
   325  3.2400000000000D+00  0.0000000000000D+00  0.0000000000000D+00
   326  3.2500000000000D+00  0.0000000000000D+00  0.0000000000000D+00
   327  3.2600000000000D+00  0.0000000000000D+00  0.0000000000000D+00
   328  3.2700000000000D+00  0.0000000000000D+00  0.0000000000000D+00
   329  3.2800000000000D+00  0.0000000000000D+00  0.0000000000000D+00
   330  3.2900000000000D+00  0.0000000000000D+00  0.0000000000000D+00
   331  3.3000000000000D+00  0.0000000000000D+00  0.0000000000000D+00
   332  3.3100000000000D+00  0.0000000000000D+00  0.0000000000000D+00
   333  3.3200000000000D+00  0.0000000000000D+00  0.0000000000000D+00
   334  3.3300000000000D+00  0.0000000000000D+00  0.0000000000000D+00
   335  3.3400000000000D+00  0.0000000000000D+00  0.0000000000000D+00
   336  3.3500000000000D+00  0.0000000000000D+00  0.0000000000000D+00
   337  3.3600000000000D+00  0.0000000000000D+00  0.0000000000000D+00
   338  3.3700000000000D+00  0.0000000000000D+00  0.0000000000000D+00
   339  3.3800000000000D+00  0.0000000000000D+00  0.0000000000000D+00
   340  3.3900000000000D+00  0.0000000000000D+00  0.0000000000000D+00
   341  3.4000000000000D+00  0.0000000000000D+00  0.0000000000000D+00
   342  3.4100000000000D+00  0.0000000000000D+00  0.0000000000000D+00
   343  3.4200000000000D+00  0.0000000000000D+00  0.0000000000000D+00
   344  3.4300000000000D+00  0.0000000000000D+00  0.0000000000000D+00
   345  3.4400000000000D+00  0.0000000000000D+00  0.0000000000000D+00
   346  3.4500000000000D+00  0.0000000000000D+00  0.0000000000000D+00
   347  3.4600000000000D+00  0.0000000000000D+00  0.0000000000000D+00
   348  3.4700000000000D+00  0.0000000000000D+00  0.0000000000000D+00
   349  3.4800000000000D+00  0.0000000000000D+00  0.0000000000000D+00
   350  3.4900000000000D+00  0.0000000000000D+00  0.0000000000000D+00
   351  3.5000000000000D+00  0.0000000000000D+00  0.0000000000000D+00
   352  3.5100000000000D+00  0.0000000000000D+00  0.0000000000000D+00
   353  3.5200000000000D+00  0.0000000000000D+00  0.0000000000000D+00
   354  3.5300000000000D+00  0.0000000000000D+00  0.0000000000000D+00
   355  3.5400000000000D+00  0.0000000000000D+00  0.0000000000000D+00
   356  3.5500000000000D+00  0.0000000000000D+00  0.0000000000000D+00
   357  3.5600000000000D+00  0.0000000000000D+00  0.0000000000000D+00
   358  3.5700000000000D+00  0.0000000000000D+00  0.0000000000000D+00
   359  3.5800000000000D+00  0.0000000000000D+00  0.0000000000000D+00
   360  3.5900000000000D+00  0.0000000000000D+00  0.0000000000000D+00
   361  3.6000000000000D+00  0.0000000000000D+00  0.0000000000000D+00
   362  3.6100000000000D+00  0.0000000000000D+00  0.0000000000000D+00
   363  3.6200000000000D+00  0.0000000000000D+00  0.0000000000000D+00
   364  3.6300000000000D+00  0.0000000000000D+00  0.0000000000000D+00
   365  3.6400000000000D+00  0.0000000000000D+00  0.0000000000000D+00
   366  3.6500000000000D+00  0.0000000000000D+00  0.0000000000000D+00
   367  3.6600000000000D+00  0.0000000000000D+00  0.0000000000000D+00
   368  3.6700000000000D+00  0.0000000000000D+00  0.0000000000000D+00
   369  3.6800000000000D+00  0.0000000000000D+00  0.0000000000000D+00
   370  3.6900000000000D+00  0.0000000000000D+00  0.0000000000000D+00
   371  3.7000000000000D+00  0.0000000000000D+00  0.0000000000000D+00
   372  3.7100000000000D+00  0.0000000000000D+00  0.0000000000000D+00
   373  3.7200000000000D+00  0.0000000000000D+00  0.0000000000000D+00
   374  3.7300000000000D+00  0.0000000000000D+00  0.0000000000000D+00
   375  3.7400000000000D+00  0.0000000000000D+00  0.0000000000000D+00
   376  3.7500000000000D+00  0.0000000000000D+00  0.0000000000000D+00
   377  3.7600000000000D+00  0.0000000000000D+00  0.0000000000000D+00
   378  3.7700000000000D+00  0.0000000000000D+00  0.0000000000000D+00
   379  3.7800000000000D+00  0.0000000000000D+00  0.0000000000000D+00
   380  3.7900000000000D+00  0.0000000000000D+00  0.0000000000000D+00
   381  3.8000000000000D+00  0.0000000000000D+00  0.0000000000000D+00
   382  3.8100000000000D+00  0.0000000000000D+00  0.0000000000000D+00
   383  3.8200000000000D+00  0.0000000000000D+00  0.0000000000000D+00
   384  3.8300000000000D+00  0.0000000000000D+00  0.0000000000000D+00
   385  3.8400000000000D+00  0.0000000000000D+00  0.0000000000000D+00
   386  3.8500000000000D+00  0.0000000000000D+00  0.0000000000000D+00
   387  3.8600000000000D+00  0.0000000000000D+00  0.0000000000000D+00
   388  3.8700000000000D+00  0.0000000000000D+00  0.0000000000000D+00
   389  3.8800000000000D+00  0.0000000000000D+00  0.0000000000000D+00
   390  3.8900000000000D+00  0.0000000000000D+00  0.0000000000000D+00
   391  3.9000000000000D+00  0.0000000000000D+00  0.0000000000000D+00
   392  3.9100000000000D+00  0.0000000000000D+00  0.0000000000000D+00
   393  3.9200000000000D+00  0.0000000000000D+00  0.0000000000000D+00
   394  3.9300000000000D+00  0.0000000000000D+00  0.0000000000000D+00
   395  3.9400000000000D+00  0.0000000000000D+00  0.0000000000000D+00
   396  3.9500000000000D+00  0.0000000000000D+00  0.0000000000000D+00
   397  3.9600000000000D+00  0.0000000000000D+00  0.0000000000000D+00
   398  3.9700000000000D+00  0.0000000000000D+00  0.0000000000000D+00
   399  3.9800000000000D+00  0.0000000000000D+00  0.0000000000000D+00
   400  3.9900000000000D+00  0.0000000000000D+00  0.0000000000000D+00
   401  4.0000000000000D+00  0.0000000000000D+00  0.0000000000000D+00
   402  4.0100000000000D+00  0.0000000000000D+00  0.0000000000000D+00
   403  4.0200000000000D+00  0.0000000000000D+00  0.0000000000000D+00
   404  4.0300000000000D+00  0.0000000000000D+00  0.0000000000000D+00
   405  4.0400000000000D+00  0.0000000000000D+00  0.0000000000000D+00
   406  4.0500000000000D+00  0.0000000000000D+00  0.0000000000000D+00
   407  4.0600000000000D+00  0.0000000000000D+00  0.0000000000000D+00
   408  4.0700000000000D+00  0.0000000000000D+00  0.0000000000000D+00
   409  4.0800000000000D+00  0.0000000000000D+00  0.0000000000000D+00
   410  4.0900000000000D+00  0.0000000000000D+00  0.0000000000000D+00
   411  4.1000000000000D+00  0.0000000000000D+00  0.0000000000000D+00
   412  4.1100000000000D+00  0.0000000000000D+00  0.0000000000000D+00
   413  4.1200000000000D+00  0.0000000000000D+00  0.0000000000000D+00
   414  4.1300000000000D+00  0.0000000000000D+00  0.0000000000000D+00
   415  4.1400000000000D+00  0.0000000000000D+00  0.0000000000000D+00
   416  4.1500000000000D+00  0.0000000000000D+00  0.0000000000000D+00
   417  4.1600000000000D+00  0.0000000000000D+00  0.0000000000000D+00
   418  4.1700000000000D+00  0.0000000000000D+00  0.0000000000000D+00
   419  4.1800000000000D+00  0.0000000000000D+00  0.0000000000000D+00
   420  4.1900000000000D+00  0.0000000000000D+00  0.0000000000000D+00
   421  4.2000000000000D+00  0.0000000000000D+00  0.0000000000000D+00
   422  4.2100000000000D+00  0.0000000000000D+00  0.0000000000000D+00
   423  4.2200000000000D+00  0.0000000000000D+00  0.0000000000000D+00