W     ONCVPSP-3.2.3  r_core=   1.61105   1.61105   1.61105   2.02088
74.0000     14.0000      170222    zatom,zion,pspd
8      11   3     4   600     0    pspcod,pspxc,lmax,lloc,mmax,r2well
5.99000000  5.00000000  0.00000000    rchrg fchrg qchrg
2     4     4     4    nproj
3     1           extension_switch
4     4     4    nprojso
0                         1.7711350249938D+00  1.2809709726450D+01
1  0.0000000000000D+00  4.9318793493569D-10 -1.1657852461155D-10
2  1.0000000000000D-02 -2.2608177880316D-02  5.2928456747753D-02
3  2.0000000000000D-02 -4.5093482918488D-02  1.0578677931509D-01
4  3.0000000000000D-02 -6.7333997981765D-02  1.5850502730315D-01
5  4.0000000000000D-02 -8.9209706270374D-02  2.1101364563684D-01
6  5.0000000000000D-02 -1.1060341389581D-01  2.6324365165842D-01
7  6.0000000000000D-02 -1.3140163970578D-01  3.1512681562252D-01
8  7.0000000000000D-02 -1.5149546202187D-01  3.6659583253130D-01
9  8.0000000000000D-02 -1.7078131244939D-01  4.1758448336500D-01
10  9.0000000000000D-02 -1.8916170752629D-01  4.6802778390664D-01
11  1.0000000000000D-01 -2.0654590969439D-01  5.1786211952850D-01
12  1.1000000000000D-01 -2.2285050989372D-01  5.6702536450025D-01
13  1.2000000000000D-01 -2.3799992499178D-01  6.1545698459304D-01
14  1.3000000000000D-01 -2.5192680425537D-01  6.6309812198656D-01
15  1.4000000000000D-01 -2.6457234014228D-01  7.0989166173625D-01
16  1.5000000000000D-01 -2.7588647982446D-01  7.5578227932197D-01
17  1.6000000000000D-01 -2.8582803503927D-01  8.0071646907363D-01
18  1.7000000000000D-01 -2.9436468909152D-01  8.4464255355272D-01
19  1.8000000000000D-01 -3.0147290108089D-01  8.8751067425517D-01
20  1.9000000000000D-01 -3.0713770869494D-01  9.2927276428985D-01
21  2.0000000000000D-01 -3.1135243217318D-01  9.6988250397259D-01
22  2.1000000000000D-01 -3.1411828329807D-01  1.0092952605556D+00
23  2.2000000000000D-01 -3.1544388449072D-01  1.0474680135823D+00
24  2.3000000000000D-01 -3.1534470426775D-01  1.0843592676156D+00
25  2.4000000000000D-01 -3.1384241643754D-01  1.1199289543258D+00
26  2.5000000000000D-01 -3.1096419146471D-01  1.1541383261471D+00
27  2.6000000000000D-01 -3.0674192939830D-01  1.1869498439055D+00
28  2.7000000000000D-01 -3.0121144462838D-01  1.2183270609935D+00
29  2.8000000000000D-01 -2.9441161349591D-01  1.2482345068022D+00
30  2.9000000000000D-01 -2.8638349642085D-01  1.2766375722338D+00
31  3.0000000000000D-01 -2.7716944672271D-01  1.3035024001866D+00
32  3.1000000000000D-01 -2.6681221867785D-01  1.3287957839391D+00
33  3.2000000000000D-01 -2.5535408758094D-01  1.3524850763598D+00
34  3.3000000000000D-01 -2.4283599464771D-01  1.3745381128198D+00
35  3.4000000000000D-01 -2.2929672950873D-01  1.3949231506059D+00
36  3.5000000000000D-01 -2.1477216279471D-01  1.4136088275000D+00
37  3.6000000000000D-01 -1.9929454090446D-01  1.4305641420265D+00
38  3.7000000000000D-01 -1.8289185447487D-01  1.4457584576558D+00
39  3.8000000000000D-01 -1.6558729134290D-01  1.4591615330077D+00
40  3.9000000000000D-01 -1.4739878390640D-01  1.4707435798059D+00
41  4.0000000000000D-01 -1.2833865975999D-01  1.4804753500136D+00
42  4.1000000000000D-01 -1.0841340331337D-01  1.4883282532243D+00
43  4.2000000000000D-01 -8.7623534802135D-02  1.4942745049892D+00
44  4.3000000000000D-01 -6.5963611688224D-02  1.4982873063546D+00
45  4.4000000000000D-01 -4.3422355932367D-02  1.5003410544414D+00
46  4.5000000000000D-01 -1.9982909020281D-02  1.5004115834472D+00
47  4.6000000000000D-01  4.3767850446251D-03  1.4984764349821D+00
48  4.7000000000000D-01  2.9683470288678D-02  1.4945151561785D+00
49  4.8000000000000D-01  5.5967946110744D-02  1.4885096235352D+00
50  4.9000000000000D-01  8.3264316433898D-02  1.4804443899887D+00
51  5.0000000000000D-01  1.1160912742443D-01  1.4703070522407D+00
52  5.1000000000000D-01  1.4104040224774D-01  1.4580886349282D+00
53  5.2000000000000D-01  1.7159658298327D-01  1.4437839878033D+00
54  5.3000000000000D-01  2.0331539139380D-01  1.4273921916948D+00
55  5.4000000000000D-01  2.3623262171724D-01  1.4089169686723D+00
56  5.5000000000000D-01  2.7038087999553D-01  1.3883670915149D+00
57  5.6000000000000D-01  3.0578828566030D-01  1.3657567873233D+00
58  5.7000000000000D-01  3.4247715213552D-01  1.3411061298965D+00
59  5.8000000000000D-01  3.8046266407542D-01  1.3144414153371D+00
60  5.9000000000000D-01  4.1975156951824D-01  1.2857955152539D+00
61  6.0000000000000D-01  4.6034090568479D-01  1.2552082018977D+00
62  6.1000000000000D-01  5.0221677737606D-01  1.2227264396028D+00
63  6.2000000000000D-01  5.4535320691597D-01  1.1884046370140D+00
64  6.3000000000000D-01  5.8971107433693D-01  1.1523048547558D+00
65  6.4000000000000D-01  6.3523716601126D-01  1.1144969634514D+00
66  6.5000000000000D-01  6.8186334919673D-01  1.0750587473188D+00
67  6.6000000000000D-01  7.2950588898025D-01  1.0340759489661D+00
68  6.7000000000000D-01  7.7806492288433D-01  9.9164225146392D-01
69  6.8000000000000D-01  8.2742410695666D-01  9.4785919430275D-01
70  6.9000000000000D-01  8.7745044549336D-01  9.0283602042266D-01
71  7.0000000000000D-01  9.2799431467832D-01  8.5668945215035D-01
72  7.1000000000000D-01  9.7888968836587D-01  8.0954339456699D-01
73  7.2000000000000D-01  1.0299545720191D+00  7.6152856556527D-01
74  7.3000000000000D-01  1.0809916484527D+00  7.1278205262654D-01
75  7.4000000000000D-01  1.1317891365511D+00  6.6344679714793D-01
76  7.5000000000000D-01  1.1821218615735D+00  6.1367100796699D-01
77  7.6000000000000D-01  1.2317525330315D+00  5.6360750656011D-01
78  7.7000000000000D-01  1.2804332234770D+00  5.1341300721992D-01
79  7.8000000000000D-01  1.3279070388892D+00  4.6324733633707D-01
80  7.9000000000000D-01  1.3739099687551D+00  4.1327259570896D-01
81  8.0000000000000D-01  1.4181729013839D+00  3.6365227557269D-01
82  8.1000000000000D-01  1.4604237875826D+00  3.1455032378701D-01
83  8.2000000000000D-01  1.5003899335150D+00  2.6613017827087D-01
84  8.3000000000000D-01  1.5378004014503D+00  2.1855377042869D-01
85  8.4000000000000D-01  1.5723884951754D+00  1.7198050784781D-01
86  8.5000000000000D-01  1.6038943051515D+00  1.2656624503199D-01
87  8.6000000000000D-01  1.6320672870525D+00  8.2462251330734D-02
88  8.7000000000000D-01  1.6566688461510D+00  3.9814185528609D-02
89  8.8000000000000D-01  1.6774748991559D+00 -1.2389132320896D-03
90  8.9000000000000D-01  1.6942783845439D+00 -4.0565608414714D-02
91  9.0000000000000D-01  1.7068916922084D+00 -7.8043013153535D-02
92  9.1000000000000D-01  1.7151489833531D+00 -1.1355769174067D-01
93  9.2000000000000D-01  1.7189083720194D+00 -1.4700650606623D-01
94  9.3000000000000D-01  1.7180539404283D+00 -1.7829739786224D-01
95  9.4000000000000D-01  1.7124975614682D+00 -2.0735009803038D-01
96  9.5000000000000D-01  1.7021805031180D+00 -2.3409675485702D-01
97  9.6000000000000D-01  1.6870747913969D+00 -2.5848247355196D-01
98  9.7000000000000D-01  1.6671843105373D+00 -2.8046576027079D-01
99  9.8000000000000D-01  1.6425456214521D+00 -3.0001886458728D-01
100  9.9000000000000D-01  1.6132284822156D+00 -3.1712801527277D-01
101  1.0000000000000D+00  1.5793360571548D+00 -3.3179354519771D-01
102  1.0100000000000D+00  1.5410048042079D+00 -3.4402990218399D-01
103  1.0200000000000D+00  1.4984040335437D+00 -3.5386554373466D-01
104  1.0300000000000D+00  1.4517351335914D+00 -3.6134271460138D-01
105  1.0400000000000D+00  1.4012304643480D+00 -3.6651710736311D-01
106  1.0500000000000D+00  1.3471519211854D+00 -3.6945740727991D-01
107  1.0600000000000D+00  1.2897891759252D+00 -3.7024472383488D-01
108  1.0700000000000D+00  1.2294576054997D+00 -3.6897191252590D-01
109  1.0800000000000D+00  1.1664959218071D+00 -3.6574279152839D-01
110  1.0900000000000D+00  1.1012635196619D+00 -3.6067125891273D-01
111  1.1000000000000D+00  1.0341375630199D+00 -3.5388031715210D-01
112  1.1100000000000D+00  9.6550983236262D-01 -3.4550101252616D-01
113  1.1200000000000D+00  8.9578335905147D-01 -3.3567129796420D-01
114  1.1300000000000D+00  8.2536887439360D-01 -3.2453482849108D-01
115  1.1400000000000D+00  7.5468110389232D-01 -3.1223969931459D-01
116  1.1500000000000D+00  6.8413493845035D-01 -2.9893713700898D-01
117  1.1600000000000D+00  6.1414151588444D-01 -2.8478015476131D-01
118  1.1700000000000D+00  5.4510424695879D-01 -2.6992218292026D-01
119  1.1800000000000D+00  4.7741482110916D-01 -2.5451568640172D-01
120  1.1900000000000D+00  4.1144922692122D-01 -2.3871078047570D-01
121  1.2000000000000D+00  3.4756382228525D-01 -2.2265385642181D-01
122  1.2100000000000D+00  2.8609148887756D-01 -2.0648622846284D-01
123  1.2200000000000D+00  2.2733789836079D-01 -1.9034281172785D-01
124  1.2300000000000D+00  1.7157792248023D-01 -1.7435084134322D-01
125  1.2400000000000D+00  1.1905241351928D-01 -1.5862868725014D-01
126  1.2500000000000D+00  6.9964666932419D-02 -1.4328461414335D-01
127  1.2600000000000D+00  2.4477218088643D-02 -1.2841564330775D-01
128  1.2700000000000D+00 -1.7284967754427D-02 -1.1410776778175D-01
129  1.2800000000000D+00 -5.5230743716388D-02 -1.0043642784606D-01
130  1.2900000000000D+00 -8.9298569531406D-02 -8.7467205077179D-02
131  1.3000000000000D+00 -1.1945789782029D-01 -7.5255414576111D-02
132  1.3100000000000D+00 -1.4570939245562D-01 -6.3845978374242D-02
133  1.3200000000000D+00 -1.6808468472754D-01 -5.3273422224541D-02
134  1.3300000000000D+00 -1.8664591186767D-01 -4.3561956301998D-02
135  1.3400000000000D+00 -2.0148495227411D-01 -3.4725653164742D-02
136  1.3500000000000D+00 -2.1272234162810D-01 -2.6768726013543D-02
137  1.3600000000000D+00 -2.2050590739114D-01 -1.9685898204480D-02
138  1.3700000000000D+00 -2.2500912022584D-01 -1.3462862936556D-02
139  1.3800000000000D+00 -2.2642916248951D-01 -8.0768319862034D-03
140  1.3900000000000D+00 -2.2498476255498D-01 -3.4971606232394D-03
141  1.4000000000000D+00 -2.2091381144932D-01  3.1395708128831D-04
142  1.4100000000000D+00 -2.1447076865411D-01  3.4007257400880D-03
143  1.4200000000000D+00 -2.0592389921889D-01  5.8129311682876D-03
144  1.4300000000000D+00 -1.9555236630150D-01  7.6050755617508D-03
145  1.4400000000000D+00 -1.8364320966110D-01  8.8354748740339D-03
146  1.4500000000000D+00 -1.7048824427625D-01  9.5653288958806D-03
147  1.4600000000000D+00 -1.5638090335371D-01  9.8577719326938D-03
148  1.4700000000000D+00 -1.4161306793615D-01  9.7769167658321D-03
149  1.4800000000000D+00 -1.2647192088127D-01  9.3869032864556D-03
150  1.4900000000000D+00 -1.1123684600392D-01  8.7509590270305D-03
151  1.5000000000000D+00 -9.6176403582374D-02  7.9304811987748D-03
152  1.5100000000000D+00 -8.1545433034468D-02  6.9841552026267D-03
153  1.5200000000000D+00 -6.7582299436049D-02  5.9671151518729D-03
154  1.5300000000000D+00 -5.4506317449259D-02  4.9301570997350D-03
155  1.5400000000000D+00 -4.2515375680162D-02  3.9190117740140D-03
156  1.5500000000000D+00 -3.1783795413197D-02  2.9736873705164D-03
157  1.5600000000000D+00 -2.2465773848301D-02  2.1284070292424D-03
158  1.5700000000000D+00 -1.4671051340143D-02  1.4088963551192D-03
159  1.5800000000000D+00 -8.4582592707225D-03  8.3098587144398D-04
160  1.5900000000000D+00 -3.9960517083651D-03  4.1821983578437D-04
161  1.6000000000000D+00 -1.3986053029777D-03  1.8529952546033D-04
162  1.6100000000000D+00 -2.6578578351939D-04  8.0223492833636D-05
163  1.6200000000000D+00  3.8580659066078D-05  2.6897627686448D-05
164  1.6300000000000D+00  3.0755769730916D-06  6.1187119950188D-07
165  1.6400000000000D+00 -2.6819846278091D-05 -3.3261717073830D-06
166  1.6500000000000D+00  3.3096618479468D-08  1.0093060529726D-08
167  1.6600000000000D+00  3.9361131244459D-06  9.3962335776245D-07
168  1.6700000000000D+00  2.7658452146427D-08 -9.8503117600590D-09
169  1.6800000000000D+00  5.8168910220832D-07 -2.0716340067935D-07
170  1.6900000000000D+00  0.0000000000000D+00  0.0000000000000D+00
171  1.7000000000000D+00  0.0000000000000D+00  0.0000000000000D+00
172  1.7100000000000D+00  0.0000000000000D+00  0.0000000000000D+00
173  1.7200000000000D+00  0.0000000000000D+00  0.0000000000000D+00
174  1.7300000000000D+00  0.0000000000000D+00  0.0000000000000D+00
175  1.7400000000000D+00  0.0000000000000D+00  0.0000000000000D+00
176  1.7500000000000D+00  0.0000000000000D+00  0.0000000000000D+00
177  1.7600000000000D+00  0.0000000000000D+00  0.0000000000000D+00
178  1.7700000000000D+00  0.0000000000000D+00  0.0000000000000D+00
179  1.7800000000000D+00  0.0000000000000D+00  0.0000000000000D+00
180  1.7900000000000D+00  0.0000000000000D+00  0.0000000000000D+00
181  1.8000000000000D+00  0.0000000000000D+00  0.0000000000000D+00
182  1.8100000000000D+00  0.0000000000000D+00  0.0000000000000D+00
183  1.8200000000000D+00  0.0000000000000D+00  0.0000000000000D+00
184  1.8300000000000D+00  0.0000000000000D+00  0.0000000000000D+00
185  1.8400000000000D+00  0.0000000000000D+00  0.0000000000000D+00
186  1.8500000000000D+00  0.0000000000000D+00  0.0000000000000D+00
187  1.8600000000000D+00  0.0000000000000D+00  0.0000000000000D+00
188  1.8700000000000D+00  0.0000000000000D+00  0.0000000000000D+00
189  1.8800000000000D+00  0.0000000000000D+00  0.0000000000000D+00
190  1.8900000000000D+00  0.0000000000000D+00  0.0000000000000D+00
191  1.9000000000000D+00  0.0000000000000D+00  0.0000000000000D+00
192  1.9100000000000D+00  0.0000000000000D+00  0.0000000000000D+00
193  1.9200000000000D+00  0.0000000000000D+00  0.0000000000000D+00
194  1.9300000000000D+00  0.0000000000000D+00  0.0000000000000D+00
195  1.9400000000000D+00  0.0000000000000D+00  0.0000000000000D+00
196  1.9500000000000D+00  0.0000000000000D+00  0.0000000000000D+00
197  1.9600000000000D+00  0.0000000000000D+00  0.0000000000000D+00
198  1.9700000000000D+00  0.0000000000000D+00  0.0000000000000D+00
199  1.9800000000000D+00  0.0000000000000D+00  0.0000000000000D+00
200  1.9900000000000D+00  0.0000000000000D+00  0.0000000000000D+00
201  2.0000000000000D+00  0.0000000000000D+00  0.0000000000000D+00
202  2.0100000000000D+00  0.0000000000000D+00  0.0000000000000D+00
203  2.0200000000000D+00  0.0000000000000D+00  0.0000000000000D+00
204  2.0300000000000D+00  0.0000000000000D+00  0.0000000000000D+00
205  2.0400000000000D+00  0.0000000000000D+00  0.0000000000000D+00
206  2.0500000000000D+00  0.0000000000000D+00  0.0000000000000D+00
207  2.0600000000000D+00  0.0000000000000D+00  0.0000000000000D+00
208  2.0700000000000D+00  0.0000000000000D+00  0.0000000000000D+00
209  2.0800000000000D+00  0.0000000000000D+00  0.0000000000000D+00
210  2.0900000000000D+00  0.0000000000000D+00  0.0000000000000D+00
211  2.1000000000000D+00  0.0000000000000D+00  0.0000000000000D+00
212  2.1100000000000D+00  0.0000000000000D+00  0.0000000000000D+00
213  2.1200000000000D+00  0.0000000000000D+00  0.0000000000000D+00
214  2.1300000000000D+00  0.0000000000000D+00  0.0000000000000D+00
215  2.1400000000000D+00  0.0000000000000D+00  0.0000000000000D+00
216  2.1500000000000D+00  0.0000000000000D+00  0.0000000000000D+00
217  2.1600000000000D+00  0.0000000000000D+00  0.0000000000000D+00
218  2.1700000000000D+00  0.0000000000000D+00  0.0000000000000D+00
219  2.1800000000000D+00  0.0000000000000D+00  0.0000000000000D+00
220  2.1900000000000D+00  0.0000000000000D+00  0.0000000000000D+00
221  2.2000000000000D+00  0.0000000000000D+00  0.0000000000000D+00
222  2.2100000000000D+00  0.0000000000000D+00  0.0000000000000D+00
223  2.2200000000000D+00  0.0000000000000D+00  0.0000000000000D+00
224  2.2300000000000D+00  0.0000000000000D+00  0.0000000000000D+00
225  2.2400000000000D+00  0.0000000000000D+00  0.0000000000000D+00
226  2.2500000000000D+00  0.0000000000000D+00  0.0000000000000D+00
227  2.2600000000000D+00  0.0000000000000D+00  0.0000000000000D+00
228  2.2700000000000D+00  0.0000000000000D+00  0.0000000000000D+00
229  2.2800000000000D+00  0.0000000000000D+00  0.0000000000000D+00
230  2.2900000000000D+00  0.0000000000000D+00  0.0000000000000D+00
231  2.3000000000000D+00  0.0000000000000D+00  0.0000000000000D+00
232  2.3100000000000D+00  0.0000000000000D+00  0.0000000000000D+00
233  2.3200000000000D+00  0.0000000000000D+00  0.0000000000000D+00
234  2.3300000000000D+00  0.0000000000000D+00  0.0000000000000D+00
235  2.3400000000000D+00  0.0000000000000D+00  0.0000000000000D+00
236  2.3500000000000D+00  0.0000000000000D+00  0.0000000000000D+00
237  2.3600000000000D+00  0.0000000000000D+00  0.0000000000000D+00
238  2.3700000000000D+00  0.0000000000000D+00  0.0000000000000D+00
239  2.3800000000000D+00  0.0000000000000D+00  0.0000000000000D+00
240  2.3900000000000D+00  0.0000000000000D+00  0.0000000000000D+00
241  2.4000000000000D+00  0.0000000000000D+00  0.0000000000000D+00
242  2.4100000000000D+00  0.0000000000000D+00  0.0000000000000D+00
243  2.4200000000000D+00  0.0000000000000D+00  0.0000000000000D+00
244  2.4300000000000D+00  0.0000000000000D+00  0.0000000000000D+00
245  2.4400000000000D+00  0.0000000000000D+00  0.0000000000000D+00
246  2.4500000000000D+00  0.0000000000000D+00  0.0000000000000D+00
247  2.4600000000000D+00  0.0000000000000D+00  0.0000000000000D+00
248  2.4700000000000D+00  0.0000000000000D+00  0.0000000000000D+00
249  2.4800000000000D+00  0.0000000000000D+00  0.0000000000000D+00
250  2.4900000000000D+00  0.0000000000000D+00  0.0000000000000D+00
251  2.5000000000000D+00  0.0000000000000D+00  0.0000000000000D+00
252  2.5100000000000D+00  0.0000000000000D+00  0.0000000000000D+00
253  2.5200000000000D+00  0.0000000000000D+00  0.0000000000000D+00
254  2.5300000000000D+00  0.0000000000000D+00  0.0000000000000D+00
255  2.5400000000000D+00  0.0000000000000D+00  0.0000000000000D+00
256  2.5500000000000D+00  0.0000000000000D+00  0.0000000000000D+00
257  2.5600000000000D+00  0.0000000000000D+00  0.0000000000000D+00
258  2.5700000000000D+00  0.0000000000000D+00  0.0000000000000D+00
259  2.5800000000000D+00  0.0000000000000D+00  0.0000000000000D+00
260  2.5900000000000D+00  0.0000000000000D+00  0.0000000000000D+00
261  2.6000000000000D+00  0.0000000000000D+00  0.0000000000000D+00
262  2.6100000000000D+00  0.0000000000000D+00  0.0000000000000D+00
263  2.6200000000000D+00  0.0000000000000D+00  0.0000000000000D+00
264  2.6300000000000D+00  0.0000000000000D+00  0.0000000000000D+00
265  2.6400000000000D+00  0.0000000000000D+00  0.0000000000000D+00
266  2.6500000000000D+00  0.0000000000000D+00  0.0000000000000D+00
267  2.6600000000000D+00  0.0000000000000D+00  0.0000000000000D+00
268  2.6700000000000D+00  0.0000000000000D+00  0.0000000000000D+00
269  2.6800000000000D+00  0.0000000000000D+00  0.0000000000000D+00
270  2.6900000000000D+00  0.0000000000000D+00  0.0000000000000D+00
271  2.7000000000000D+00  0.0000000000000D+00  0.0000000000000D+00
272  2.7100000000000D+00  0.0000000000000D+00  0.0000000000000D+00
273  2.7200000000000D+00  0.0000000000000D+00  0.0000000000000D+00
274  2.7300000000000D+00  0.0000000000000D+00  0.0000000000000D+00
275  2.7400000000000D+00  0.0000000000000D+00  0.0000000000000D+00
276  2.7500000000000D+00  0.0000000000000D+00  0.0000000000000D+00
277  2.7600000000000D+00  0.0000000000000D+00  0.0000000000000D+00
278  2.7700000000000D+00  0.0000000000000D+00  0.0000000000000D+00
279  2.7800000000000D+00  0.0000000000000D+00  0.0000000000000D+00
280  2.7900000000000D+00  0.0000000000000D+00  0.0000000000000D+00
281  2.8000000000000D+00  0.0000000000000D+00  0.0000000000000D+00
282  2.8100000000000D+00  0.0000000000000D+00  0.0000000000000D+00
283  2.8200000000000D+00  0.0000000000000D+00  0.0000000000000D+00
284  2.8300000000000D+00  0.0000000000000D+00  0.0000000000000D+00
285  2.8400000000000D+00  0.0000000000000D+00  0.0000000000000D+00
286  2.8500000000000D+00  0.0000000000000D+00  0.0000000000000D+00
287  2.8600000000000D+00  0.0000000000000D+00  0.0000000000000D+00
288  2.8700000000000D+00  0.0000000000000D+00  0.0000000000000D+00
289  2.8800000000000D+00  0.0000000000000D+00  0.0000000000000D+00
290  2.8900000000000D+00  0.0000000000000D+00  0.0000000000000D+00
291  2.9000000000000D+00  0.0000000000000D+00  0.0000000000000D+00
292  2.9100000000000D+00  0.0000000000000D+00  0.0000000000000D+00
293  2.9200000000000D+00  0.0000000000000D+00  0.0000000000000D+00
294  2.9300000000000D+00  0.0000000000000D+00  0.0000000000000D+00
295  2.9400000000000D+00  0.0000000000000D+00  0.0000000000000D+00
296  2.9500000000000D+00  0.0000000000000D+00  0.0000000000000D+00
297  2.9600000000000D+00  0.0000000000000D+00  0.0000000000000D+00
298  2.9700000000000D+00  0.0000000000000D+00  0.0000000000000D+00
299  2.9800000000000D+00  0.0000000000000D+00  0.0000000000000D+00
300  2.9900000000000D+00  0.0000000000000D+00  0.0000000000000D+00
301  3.0000000000000D+00  0.0000000000000D+00  0.0000000000000D+00
302  3.0100000000000D+00  0.0000000000000D+00  0.0000000000000D+00
303  3.0200000000000D+00  0.0000000000000D+00  0.0000000000000D+00
304  3.0300000000000D+00  0.0000000000000D+00  0.0000000000000D+00
305  3.0400000000000D+00  0.0000000000000D+00  0.0000000000000D+00
306  3.0500000000000D+00  0.0000000000000D+00  0.0000000000000D+00
307  3.0600000000000D+00  0.0000000000000D+00  0.0000000000000D+00
308  3.0700000000000D+00  0.0000000000000D+00  0.0000000000000D+00
309  3.0800000000000D+00  0.0000000000000D+00  0.0000000000000D+00
310  3.0900000000000D+00  0.0000000000000D+00  0.0000000000000D+00
311  3.1000000000000D+00  0.0000000000000D+00  0.0000000000000D+00
312  3.1100000000000D+00  0.0000000000000D+00  0.0000000000000D+00
313  3.1200000000000D+00  0.0000000000000D+00  0.0000000000000D+00
314  3.1300000000000D+00  0.0000000000000D+00  0.0000000000000D+00
315  3.1400000000000D+00  0.0000000000000D+00  0.0000000000000D+00
316  3.1500000000000D+00  0.0000000000000D+00  0.0000000000000D+00
317  3.1600000000000D+00  0.0000000000000D+00  0.0000000000000D+00
318  3.1700000000000D+00  0.0000000000000D+00  0.0000000000000D+00
319  3.1800000000000D+00  0.0000000000000D+00  0.0000000000000D+00
320  3.1900000000000D+00  0.0000000000000D+00  0.0000000000000D+00
321  3.2000000000000D+00  0.0000000000000D+00  0.0000000000000D+00
322  3.2100000000000D+00  0.0000000000000D+00  0.0000000000000D+00
323  3.2200000000000D+00  0.0000000000000D+00  0.0000000000000D+00
324  3.2300000000000D+00  0.0000000000000D+00  0.0000000000000D+00
325  3.2400000000000D+00  0.0000000000000D+00  0.0000000000000D+00
326  3.2500000000000D+00  0.0000000000000D+00  0.0000000000000D+00
327  3.2600000000000D+00  0.0000000000000D+00  0.0000000000000D+00
328  3.2700000000000D+00  0.0000000000000D+00  0.0000000000000D+00
329  3.2800000000000D+00  0.0000000000000D+00  0.0000000000000D+00
330  3.2900000000000D+00  0.0000000000000D+00  0.0000000000000D+00
331  3.3000000000000D+00  0.0000000000000D+00  0.0000000000000D+00
332  3.3100000000000D+00  0.0000000000000D+00  0.0000000000000D+00
333  3.3200000000000D+00  0.0000000000000D+00  0.0000000000000D+00
334  3.3300000000000D+00  0.0000000000000D+00  0.0000000000000D+00
335  3.3400000000000D+00  0.0000000000000D+00  0.0000000000000D+00
336  3.3500000000000D+00  0.0000000000000D+00  0.0000000000000D+00
337  3.3600000000000D+00  0.0000000000000D+00  0.0000000000000D+00
338  3.3700000000000D+00  0.0000000000000D+00  0.0000000000000D+00
339  3.3800000000000D+00  0.0000000000000D+00  0.0000000000000D+00
340  3.3900000000000D+00  0.0000000000000D+00  0.0000000000000D+00
341  3.4000000000000D+00  0.0000000000000D+00  0.0000000000000D+00
342  3.4100000000000D+00  0.0000000000000D+00  0.0000000000000D+00
343  3.4200000000000D+00  0.0000000000000D+00  0.0000000000000D+00
344  3.4300000000000D+00  0.0000000000000D+00  0.0000000000000D+00
345  3.4400000000000D+00  0.0000000000000D+00  0.0000000000000D+00
346  3.4500000000000D+00  0.0000000000000D+00  0.0000000000000D+00
347  3.4600000000000D+00  0.0000000000000D+00  0.0000000000000D+00
348  3.4700000000000D+00  0.0000000000000D+00  0.0000000000000D+00
349  3.4800000000000D+00  0.0000000000000D+00  0.0000000000000D+00
350  3.4900000000000D+00  0.0000000000000D+00  0.0000000000000D+00
351  3.5000000000000D+00  0.0000000000000D+00  0.0000000000000D+00
352  3.5100000000000D+00  0.0000000000000D+00  0.0000000000000D+00
353  3.5200000000000D+00  0.0000000000000D+00  0.0000000000000D+00
354  3.5300000000000D+00  0.0000000000000D+00  0.0000000000000D+00
355  3.5400000000000D+00  0.0000000000000D+00  0.0000000000000D+00
356  3.5500000000000D+00  0.0000000000000D+00  0.0000000000000D+00
357  3.5600000000000D+00  0.0000000000000D+00  0.0000000000000D+00
358  3.5700000000000D+00  0.0000000000000D+00  0.0000000000000D+00
359  3.5800000000000D+00  0.0000000000000D+00  0.0000000000000D+00
360  3.5900000000000D+00  0.0000000000000D+00  0.0000000000000D+00
361  3.6000000000000D+00  0.0000000000000D+00  0.0000000000000D+00
362  3.6100000000000D+00  0.0000000000000D+00  0.0000000000000D+00
363  3.6200000000000D+00  0.0000000000000D+00  0.0000000000000D+00
364  3.6300000000000D+00  0.0000000000000D+00  0.0000000000000D+00
365  3.6400000000000D+00  0.0000000000000D+00  0.0000000000000D+00
366  3.6500000000000D+00  0.0000000000000D+00  0.0000000000000D+00
367  3.6600000000000D+00  0.0000000000000D+00  0.0000000000000D+00
368  3.6700000000000D+00  0.0000000000000D+00  0.0000000000000D+00
369  3.6800000000000D+00  0.0000000000000D+00  0.0000000000000D+00
370  3.6900000000000D+00  0.0000000000000D+00  0.0000000000000D+00
371  3.7000000000000D+00  0.0000000000000D+00  0.0000000000000D+00
372  3.7100000000000D+00  0.0000000000000D+00  0.0000000000000D+00
373  3.7200000000000D+00  0.0000000000000D+00  0.0000000000000D+00
374  3.7300000000000D+00  0.0000000000000D+00  0.0000000000000D+00
375  3.7400000000000D+00  0.0000000000000D+00  0.0000000000000D+00
376  3.7500000000000D+00  0.0000000000000D+00  0.0000000000000D+00
377  3.7600000000000D+00  0.0000000000000D+00  0.0000000000000D+00
378  3.7700000000000D+00  0.0000000000000D+00  0.0000000000000D+00
379  3.7800000000000D+00  0.0000000000000D+00  0.0000000000000D+00
380  3.7900000000000D+00  0.0000000000000D+00  0.0000000000000D+00
381  3.8000000000000D+00  0.0000000000000D+00  0.0000000000000D+00
382  3.8100000000000D+00  0.0000000000000D+00  0.0000000000000D+00
383  3.8200000000000D+00  0.0000000000000D+00  0.0000000000000D+00
384  3.8300000000000D+00  0.0000000000000D+00  0.0000000000000D+00
385  3.8400000000000D+00  0.0000000000000D+00  0.0000000000000D+00
386  3.8500000000000D+00  0.0000000000000D+00  0.0000000000000D+00
387  3.8600000000000D+00  0.0000000000000D+00  0.0000000000000D+00
388  3.8700000000000D+00  0.0000000000000D+00  0.0000000000000D+00
389  3.8800000000000D+00  0.0000000000000D+00  0.0000000000000D+00
390  3.8900000000000D+00  0.0000000000000D+00  0.0000000000000D+00
391  3.9000000000000D+00  0.0000000000000D+00  0.0000000000000D+00
392  3.9100000000000D+00  0.0000000000000D+00  0.0000000000000D+00
393  3.9200000000000D+00  0.0000000000000D+00  0.0000000000000D+00
394  3.9300000000000D+00  0.0000000000000D+00  0.0000000000000D+00
395  3.9400000000000D+00  0.0000000000000D+00  0.0000000000000D+00
396  3.9500000000000D+00  0.0000000000000D+00  0.0000000000000D+00
397  3.9600000000000D+00  0.0000000000000D+00  0.0000000000000D+00
398  3.9700000000000D+00  0.0000000000000D+00  0.0000000000000D+00
399  3.9800000000000D+00  0.0000000000000D+00  0.0000000000000D+00
400  3.9900000000000D+00  0.0000000000000D+00  0.0000000000000D+00
401  4.0000000000000D+00  0.0000000000000D+00  0.0000000000000D+00
402  4.0100000000000D+00  0.0000000000000D+00  0.0000000000000D+00
403  4.0200000000000D+00  0.0000000000000D+00  0.0000000000000D+00
404  4.0300000000000D+00  0.0000000000000D+00  0.0000000000000D+00
405  4.0400000000000D+00  0.0000000000000D+00  0.0000000000000D+00
406  4.0500000000000D+00  0.0000000000000D+00  0.0000000000000D+00
407  4.0600000000000D+00  0.0000000000000D+00  0.0000000000000D+00
408  4.0700000000000D+00  0.0000000000000D+00  0.0000000000000D+00
409  4.0800000000000D+00  0.0000000000000D+00  0.0000000000000D+00
410  4.0900000000000D+00  0.0000000000000D+00  0.0000000000000D+00
411  4.1000000000000D+00  0.0000000000000D+00  0.0000000000000D+00
412  4.1100000000000D+00  0.0000000000000D+00  0.0000000000000D+00
413  4.1200000000000D+00  0.0000000000000D+00  0.0000000000000D+00
414  4.1300000000000D+00  0.0000000000000D+00  0.0000000000000D+00
415  4.1400000000000D+00  0.0000000000000D+00  0.0000000000000D+00
416  4.1500000000000D+00  0.0000000000000D+00  0.0000000000000D+00
417  4.1600000000000D+00  0.0000000000000D+00  0.0000000000000D+00
418  4.1700000000000D+00  0.0000000000000D+00  0.0000000000000D+00
419  4.1800000000000D+00  0.0000000000000D+00  0.0000000000000D+00
420  4.1900000000000D+00  0.0000000000000D+00  0.0000000000000D+00
421  4.2000000000000D+00  0.0000000000000D+00  0.0000000000000D+00
422  4.2100000000000D+00  0.0000000000000D+00  0.0000000000000D+00
423  4.2200000000000D+00  0.0000000000000D+00  0.0000000000000D+00
424  4.2300000000000D+00  0.0000000000000D+00  0.0000000000000D+00
425  4.2400000000000D+00  0.0000000000000D+00  0.0000000000000D+00
426  4.2500000000000D+00  0.0000000000000D+00  0.0000000000000D+00
427  4.2600000000000D+00  0.0000000000000D+00  0.0000000000000D+00
428  4.2700000000000D+00  0.0000000000000D+00  0.0000000000000D+00
429  4.2800000000000D+00  0.0000000000000D+00  0.0000000000000D+00
430  4.2900000000000D+00  0.0000000000000D+00  0.0000000000000D+00
431  4.3000000000000D+00  0.0000000000000D+00  0.0000000000000D+00
432  4.3100000000000D+00  0.0000000000000D+00  0.0000000000000D+00
433  4.3200000000000D+00  0.0000000000000D+00  0.0000000000000D+00
434  4.3300000000000D+00  0.0000000000000D+00  0.0000000000000D+00
435  4.3400000000000D+00  0.0000000000000D+00  0.0000000000000D+00
436  4.3500000000000D+00  0.0000000000000D+00  0.0000000000000D+00
437  4.3600000000000D+00  0.0000000000000D+00  0.0000000000000D+00
438  4.3700000000000D+00  0.0000000000000D+00  0.0000000000000D+00
439  4.3800000000000D+00  0.0000000000000D+00  0.0000000000000D+00
440  4.3900000000000D+00  0.0000000000000D+00  0.0000000000000D+00
441  4.4000000000000D+00  0.0000000000000D+00  0.0000000000000D+00
442  4.4100000000000D+00  0.0000000000000D+00  0.0000000000000D+00
443  4.4200000000000D+00  0.0000000000000D+00  0.0000000000000D+00