Pr    ONCVPSP  r_core=  2.02  1.61  1.86  1.67
59.0000     13.0000      160625    zatom,zion,pspd
8      11   3     4   600     0    pspcod,pspxc,lmax,lloc,mmax,r2well
5.99000000  0.25000000  0.00000000    rchrg fchrg qchrg
2     2     2     2     0    nproj
1                 extension_switch
0                         6.9600131420077D+00  6.1251961728489D-01
1  0.0000000000000D+00 -1.7680967800970D-11  1.0978687403629D-10
2  1.0000000000000D-02  3.6178535400247D-02 -1.5195814776298D-02
3  2.0000000000000D-02  7.2326038015219D-02 -3.0313969333539D-02
4  3.0000000000000D-02  1.0841154425123D-01 -4.5277325746711D-02
5  4.0000000000000D-02  1.4440422837264D-01 -6.0009786750664D-02
6  5.0000000000000D-02  1.8027347012267D-01 -7.4436806277395D-02
7  6.0000000000000D-02  2.1598892078680D-01 -8.8485888320079D-02
8  7.0000000000000D-02  2.5152056720064D-01 -1.0208707036219D-01
9  8.0000000000000D-02  2.8683879322170D-01 -1.1517338771983D-01
10  9.0000000000000D-02  3.2191443820631D-01 -1.2768131528146D-01
11  1.0000000000000D-01  3.5671885205906D-01 -1.3955118329066D-01
12  1.1000000000000D-01  3.9122394645164D-01 -1.5072756400289D-01
13  1.2000000000000D-01  4.2540224184154D-01 -1.6115962625640D-01
14  1.3000000000000D-01  4.5922690995763D-01 -1.7080145522750D-01
15  1.4000000000000D-01  4.9267181145974D-01 -1.7961233489181D-01
16  1.5000000000000D-01  5.2571152852181D-01 -1.8755699098203D-01
17  1.6000000000000D-01  5.5832139213347D-01 -1.9460579251990D-01
18  1.7000000000000D-01  5.9047750396234D-01 -2.0073491030125D-01
19  1.8000000000000D-01  6.2215675266824D-01 -2.0592643102798D-01
20  1.9000000000000D-01  6.5333682461138D-01 -2.1016842610633D-01
21  2.0000000000000D-01  6.8399620894776D-01 -2.1345497446582D-01
22  2.1000000000000D-01  7.1411419715763D-01 -2.1578613909420D-01
23  2.2000000000000D-01  7.4367087710505D-01 -2.1716789732922D-01
24  2.3000000000000D-01  7.7264712177872D-01 -2.1761202529588D-01
25  2.4000000000000D-01  8.0102457291586D-01 -2.1713593722438D-01
26  2.5000000000000D-01  8.2878561976140D-01 -2.1576248072829D-01
27  2.6000000000000D-01  8.5591337326348D-01 -2.1351968946088D-01
28  2.7000000000000D-01  8.8239163605336D-01 -2.1044049489867D-01
29  2.8000000000000D-01  9.0820486860230D-01 -2.0656239932143D-01
30  2.9000000000000D-01  9.3333815198983D-01 -2.0192711236606D-01
31  3.0000000000000D-01  9.5777714775631D-01 -1.9658015382456D-01
32  3.1000000000000D-01  9.8150805534779D-01 -1.9057042563181D-01
33  3.2000000000000D-01  1.0045175676921D+00 -1.8394975624510D-01
34  3.3000000000000D-01  1.0267928254720D+00 -1.7677242085215D-01
35  3.4000000000000D-01  1.0483213706830D+00 -1.6909464105500D-01
36  3.5000000000000D-01  1.0690911000816D+00 -1.6097406786338D-01
37  3.6000000000000D-01  1.0890902191403D+00 -1.5246925198924D-01
38  3.7000000000000D-01  1.1083071971341D+00 -1.4363910556510D-01
39  3.8000000000000D-01  1.1267307239826D+00 -1.3454235950805D-01
40  3.9000000000000D-01  1.1443496694699D+00 -1.2523702082138D-01
41  4.0000000000000D-01  1.1611530454499D+00 -1.1577983416230D-01
42  4.1000000000000D-01  1.1771299716337D+00 -1.0622575200917D-01
43  4.2000000000000D-01  1.1922696455286D+00 -9.6627417732600D-02
44  4.3000000000000D-01  1.2065613170738D+00 -8.7034665813022D-02
45  4.4000000000000D-01  1.2199942684835D+00 -7.7494043351291D-02
46  4.5000000000000D-01  1.2325577997665D+00 -6.8048356890651D-02
47  4.6000000000000D-01  1.2442412203510D+00 -5.8736248406584D-02
48  4.7000000000000D-01  1.2550338471899D+00 -4.9591804127904D-02
49  4.8000000000000D-01  1.2649250096681D+00 -4.0644199628478D-02
50  4.9000000000000D-01  1.2739040615766D+00 -3.1917384375045D-02
51  5.0000000000000D-01  1.2819604003510D+00 -2.3429808635182D-02
52  5.1000000000000D-01  1.2890834937082D+00 -1.5194195341706D-02
53  5.2000000000000D-01  1.2952629137438D+00 -7.2173591778947D-03
54  5.3000000000000D-01  1.3004883784818D+00  4.9992520539833D-04
55  5.4000000000000D-01  1.3047498007888D+00  7.9630043027778D-03
56  5.5000000000000D-01  1.3080373444972D+00  1.5183375048195D-02
57  5.6000000000000D-01  1.3103414874954D+00  2.2178661543659D-02
58  5.7000000000000D-01  1.3116530914750D+00  2.8972538889643D-02
59  5.8000000000000D-01  1.3119634779427D+00  3.5594604203671D-02
60  5.9000000000000D-01  1.3112645100331D+00  4.2080195338979D-02
61  6.0000000000000D-01  1.3095486795848D+00  4.8470158237338D-02
62  6.1000000000000D-01  1.3068091988734D+00  5.4810564272572D-02
63  6.2000000000000D-01  1.3030400963267D+00  6.1152379354056D-02
64  6.3000000000000D-01  1.2982363154894D+00  6.7551086962626D-02
65  6.4000000000000D-01  1.2923938164439D+00  7.4066267680792D-02
66  6.5000000000000D-01  1.2855096788454D+00  8.0761138148832D-02
67  6.6000000000000D-01  1.2775822056851D+00  8.7702052728862D-02
68  6.7000000000000D-01  1.2686110268566D+00  9.4957971483771D-02
69  6.8000000000000D-01  1.2585972015722D+00  1.0259989837331D-01
70  6.9000000000000D-01  1.2475433186542D+00  1.1070029383730D-01
71  7.0000000000000D-01  1.2354535937128D+00  1.1933246616646D-01
72  7.1000000000000D-01  1.2223339622200D+00  1.2856994625767D-01
73  7.2000000000000D-01  1.2081921674942D+00  1.3848585050708D-01
74  7.3000000000000D-01  1.1930378426250D+00  1.4915223671133D-01
75  7.4000000000000D-01  1.1768825853942D+00  1.6063945792125D-01
76  7.5000000000000D-01  1.1597400252846D+00  1.7301551922366D-01
77  7.6000000000000D-01  1.1416258817123D+00  1.8634544241383D-01
78  7.7000000000000D-01  1.1225580126738D+00  2.0069064346380D-01
79  7.8000000000000D-01  1.1025564530648D+00  2.1610832758992D-01
80  7.9000000000000D-01  1.0816434419999D+00  2.3265090657816D-01
81  8.0000000000000D-01  1.0598434385451D+00  2.5036544283633D-01
82  8.1000000000000D-01  1.0371831253677D+00  2.6929312441384D-01
83  8.2000000000000D-01  1.0136913999031D+00  2.8946877496059D-01
84  8.3000000000000D-01  9.8939935274560D-01  3.1092040229084D-01
85  8.4000000000000D-01  9.6434023308012D-01  3.3366878887831D-01
86  8.5000000000000D-01  9.3854940108624D-01  3.5772712723926D-01
87  8.6000000000000D-01  9.1206426736746D-01  3.8310070276228D-01
88  8.7000000000000D-01  8.8492421957804D-01  4.0978662612493D-01
89  8.8000000000000D-01  8.5717053654461D-01  4.3777361699911D-01
90  8.9000000000000D-01  8.2884629030208D-01  4.6704184029602D-01
91  9.0000000000000D-01  7.9999623658542D-01  4.9756279574277D-01
92  9.1000000000000D-01  7.7066669443783D-01  5.2929926112022D-01
93  9.2000000000000D-01  7.4090541571039D-01  5.6220528903311D-01
94  9.3000000000000D-01  7.1076144533749D-01  5.9622625663258D-01
95  9.4000000000000D-01  6.8028497337407D-01  6.3129896727328D-01
96  9.5000000000000D-01  6.4952717987350D-01  6.6735180267344D-01
97  9.6000000000000D-01  6.1854007376809D-01  7.0430492375312D-01
98  9.7000000000000D-01  5.8737632698603D-01  7.4207051796442D-01
99  9.8000000000000D-01  5.5608910509687D-01  7.8055309060578D-01
100  9.9000000000000D-01  5.2473189582218D-01  8.1964979732786D-01
101  1.0000000000000D+00  4.9335833677803D-01  8.5925081480175D-01
102  1.0100000000000D+00  4.6202204382886D-01  8.9923974633203D-01
103  1.0200000000000D+00  4.3077644142783D-01  9.3949405906386D-01
104  1.0300000000000D+00  3.9967459629908D-01  9.7988554935542D-01
105  1.0400000000000D+00  3.6876905577610D-01  1.0202808328645D+00
106  1.0500000000000D+00  3.3811169205233D-01  1.0605418559416D+00
107  1.0600000000000D+00  3.0775355352366D-01  1.1005264250203D+00
108  1.0700000000000D+00  2.7774472430455D-01  1.1400887508629D+00
109  1.0800000000000D+00  2.4813419288668D-01  1.1790800047370D+00
110  1.0900000000000D+00  2.1896973078318D-01  1.2173488838625D+00
111  1.1000000000000D+00  1.9029778184046D-01  1.2547421838304D+00
112  1.1100000000000D+00  1.6216336274834D-01  1.2911053760463D+00
113  1.1200000000000D+00  1.3460997507782D-01  1.3262831887340D+00
114  1.1300000000000D+00  1.0767952902949D-01  1.3601201903897D+00
115  1.1400000000000D+00  8.1412278819866D-02  1.3924613752039D+00
116  1.1500000000000D+00  5.5846769459286D-02  1.4231527504014D+00
117  1.1600000000000D+00  3.1019794419119D-02  1.4520419260714D+00
118  1.1700000000000D+00  6.9663635415002D-03  1.4789787084174D+00
119  1.1800000000000D+00 -1.6280319769798D-02  1.5038156981133D+00
120  1.1900000000000D+00 -3.8688873202933D-02  1.5264088958237D+00
121  1.2000000000000D+00 -6.0229743382082D-02  1.5466183174346D+00
122  1.2100000000000D+00 -8.0875208426391D-02  1.5643086219397D+00
123  1.2200000000000D+00 -1.0059937699432D-01  1.5793497554058D+00
124  1.2300000000000D+00 -1.1937818571547D-01  1.5916176145797D+00
125  1.2400000000000D+00 -1.3718939701040D-01  1.6009947339234D+00
126  1.2500000000000D+00 -1.5401259952866D-01  1.6073710000549D+00
127  1.2600000000000D+00 -1.6982921342344D-01  1.6106443972386D+00
128  1.2700000000000D+00 -1.8462250275938D-01  1.6107217876771D+00
129  1.2800000000000D+00 -1.9837759741032D-01  1.6075197298979D+00
130  1.2900000000000D+00 -2.1108152663624D-01  1.6009653374787D+00
131  1.3000000000000D+00 -2.2272326659515D-01  1.5909971805500D+00
132  1.3100000000000D+00 -2.3329380384643D-01  1.5775662309210D+00
133  1.3200000000000D+00 -2.4278621644222D-01  1.5606368494694D+00
134  1.3300000000000D+00 -2.5119577449801D-01  1.5401878157195D+00
135  1.3400000000000D+00 -2.5852006121049D-01  1.5162133947673D+00
136  1.3500000000000D+00 -2.6475911484814D-01  1.4887244349401D+00
137  1.3600000000000D+00 -2.6991559264807D-01  1.4577494911252D+00
138  1.3700000000000D+00 -2.7399495541120D-01  1.4233359590650D+00
139  1.3800000000000D+00 -2.7700567213060D-01  1.3855512085012D+00
140  1.3900000000000D+00 -2.7895944326121D-01  1.3444836995267D+00
141  1.4000000000000D+00 -2.7987143822860D-01  1.3002440538815D+00
142  1.4100000000000D+00 -2.7976054566820D-01  1.2529660650480D+00
143  1.4200000000000D+00 -2.7864962940791D-01  1.2028076078684D+00
144  1.4300000000000D+00 -2.7656578447609D-01  1.1499514140030D+00
145  1.4400000000000D+00 -2.7354058721587D-01  1.0946056783110D+00
146  1.4500000000000D+00 -2.6961032611744D-01  1.0370044309181D+00
147  1.4600000000000D+00 -2.6481620837824D-01  9.7740764381764D-01
148  1.4700000000000D+00 -2.5920452360079D-01  9.1610098558156D-01
149  1.4800000000000D+00 -2.5282675367543D-01  8.5339516886765D-01
150  1.4900000000000D+00 -2.4573961166062D-01  7.8962480996675D-01
151  1.5000000000000D+00 -2.3800498628630D-01  7.2514669509769D-01
152  1.5100000000000D+00 -2.2968977919933D-01  6.6033738994122D-01
153  1.5200000000000D+00 -2.2086559688859D-01  5.9559002836942D-01
154  1.5300000000000D+00 -2.1160828648996D-01  5.3131022512634D-01
155  1.5400000000000D+00 -2.0199726780403D-01  4.6791091013247D-01
156  1.5500000000000D+00 -1.9211464195390D-01  4.0580599413558D-01
157  1.5600000000000D+00 -1.8204401328270D-01  3.4540255866817D-01
158  1.5700000000000D+00 -1.7186908784256D-01  2.8709207602796D-01
159  1.5800000000000D+00 -1.6167159305108D-01  2.3123780505667D-01
160  1.5900000000000D+00 -1.5152980964863D-01  1.7816666257358D-01
161  1.6000000000000D+00 -1.4151519004735D-01  1.2815008723531D-01
162  1.6100000000000D+00 -1.3168751304147D-01  8.1375029903467D-02
163  1.6200000000000D+00 -1.2209573277509D-01  3.7954999162029D-02
164  1.6300000000000D+00 -1.1277845909389D-01 -2.0602174691714D-03
165  1.6400000000000D+00 -1.0376702212501D-01 -3.8662668694461D-02
166  1.6500000000000D+00 -9.5090517555544D-02 -7.1850750304809D-02
167  1.6600000000000D+00 -8.6774264581338D-02 -1.0163919274397D-01
168  1.6700000000000D+00 -7.8839254064735D-02 -1.2806335922230D-01
169  1.6800000000000D+00 -7.1302827376364D-02 -1.5117403845447D-01
170  1.6900000000000D+00 -6.4178444786034D-02 -1.7103906782521D-01
171  1.7000000000000D+00 -5.7475864382128D-02 -1.8774207785542D-01
172  1.7100000000000D+00 -5.1201223357454D-02 -2.0138197896989D-01
173  1.7200000000000D+00 -4.5357163574803D-02 -2.1207219970481D-01
174  1.7300000000000D+00 -3.9942977505507D-02 -2.1993983513323D-01
175  1.7400000000000D+00 -3.4954776127580D-02 -2.2512469853840D-01
176  1.7500000000000D+00 -3.0385674761636D-02 -2.2777829492930D-01
177  1.7600000000000D+00 -2.6225997965890D-02 -2.2806271159647D-01
178  1.7700000000000D+00 -2.2463499584068D-02 -2.2614944372447D-01
179  1.7800000000000D+00 -1.9083598300903D-02 -2.2221815378803D-01
180  1.7900000000000D+00 -1.6069625223684D-02 -2.1645538079103D-01
181  1.8000000000000D+00 -1.3403082948247D-02 -2.0905320214767D-01
182  1.8100000000000D+00 -1.1063913390018D-02 -2.0020786066876D-01
183  1.8200000000000D+00 -9.0307725902428D-03 -1.9011836537348D-01
184  1.8300000000000D+00 -7.2813100847883D-03 -1.7898507741757D-01
185  1.8400000000000D+00 -5.7924515021293D-03 -1.6700828690439D-01
186  1.8500000000000D+00 -4.5406828310243D-03 -1.5438678764175D-01
187  1.8600000000000D+00 -3.5023328868398D-03 -1.4131646674140D-01
188  1.8700000000000D+00 -2.6538505729942D-03 -1.2798892575918D-01
189  1.8800000000000D+00 -1.9720770914026D-03 -1.1459013150453D-01
190  1.8900000000000D+00 -1.4345125372049D-03 -1.0129909757784D-01
191  1.9000000000000D+00 -1.0195740592066D-03 -8.8286611371306D-02
192  1.9100000000000D+00 -7.0683917588210D-04 -7.5714037734160D-02
193  1.9200000000000D+00 -4.7727763329219D-04 -6.3732181831620D-02
194  1.9300000000000D+00 -3.1346807569726D-04 -5.2480228401912D-02
195  1.9400000000000D+00 -1.9979889833486D-04 -4.2084760561145D-02
196  1.9500000000000D+00 -1.2265262094932D-04 -3.2659264684065D-02
197  1.9600000000000D+00 -7.0586395687101D-05 -2.4309433060231D-02
198  1.9700000000000D+00 -3.4378973277380D-05 -1.7099875353631D-02
199  1.9800000000000D+00 -7.6709252148866D-06 -1.1071771595911D-02
200  1.9900000000000D+00  1.4420115352192D-05 -6.3518061846620D-03
201  2.0000000000000D+00  3.4900958322496D-05 -3.0546502391144D-03
202  2.0100000000000D+00  5.1556312910867D-05 -1.1175395591143D-03
203  2.0200000000000D+00  5.4984371882808D-05 -2.0273918326163D-04
204  2.0300000000000D+00  3.6437744239247D-05  8.2553636501706D-05
205  2.0400000000000D+00  1.0776878920343D-05  5.1013377265980D-05
206  2.0500000000000D+00 -4.7552211813830D-06 -2.8294248293353D-05
207  2.0600000000000D+00 -5.3431719128997D-06 -3.7012442383716D-05
208  2.0700000000000D+00  1.2764455360000D-07  5.5673711106914D-07
209  2.0800000000000D+00  1.3744023488745D-06  6.6272449816468D-06
210  2.0900000000000D+00  6.4442912162701D-07  3.3417293089188D-06
211  2.1000000000000D+00 -1.1103405776466D-07  3.4583625717902D-07
212  2.1100000000000D+00 -1.3831723641487D-07  4.3081479960367D-07
213  2.1200000000000D+00  0.0000000000000D+00  0.0000000000000D+00
214  2.1300000000000D+00  0.0000000000000D+00  0.0000000000000D+00
215  2.1400000000000D+00  0.0000000000000D+00  0.0000000000000D+00
216  2.1500000000000D+00  0.0000000000000D+00  0.0000000000000D+00
217  2.1600000000000D+00  0.0000000000000D+00  0.0000000000000D+00
218  2.1700000000000D+00  0.0000000000000D+00  0.0000000000000D+00
219  2.1800000000000D+00  0.0000000000000D+00  0.0000000000000D+00
220  2.1900000000000D+00  0.0000000000000D+00  0.0000000000000D+00
221  2.2000000000000D+00  0.0000000000000D+00  0.0000000000000D+00
222  2.2100000000000D+00  0.0000000000000D+00  0.0000000000000D+00
223  2.2200000000000D+00  0.0000000000000D+00  0.0000000000000D+00
224  2.2300000000000D+00  0.0000000000000D+00  0.0000000000000D+00
225  2.2400000000000D+00  0.0000000000000D+00  0.0000000000000D+00
226  2.2500000000000D+00  0.0000000000000D+00  0.0000000000000D+00
227  2.2600000000000D+00  0.0000000000000D+00  0.0000000000000D+00
228  2.2700000000000D+00  0.0000000000000D+00  0.0000000000000D+00
229  2.2800000000000D+00  0.0000000000000D+00  0.0000000000000D+00
230  2.2900000000000D+00  0.0000000000000D+00  0.0000000000000D+00
231  2.3000000000000D+00  0.0000000000000D+00  0.0000000000000D+00
232  2.3100000000000D+00  0.0000000000000D+00  0.0000000000000D+00
233  2.3200000000000D+00  0.0000000000000D+00  0.0000000000000D+00
234  2.3300000000000D+00  0.0000000000000D+00  0.0000000000000D+00
235  2.3400000000000D+00  0.0000000000000D+00  0.0000000000000D+00
236  2.3500000000000D+00  0.0000000000000D+00  0.0000000000000D+00
237  2.3600000000000D+00  0.0000000000000D+00  0.0000000000000D+00
238  2.3700000000000D+00  0.0000000000000D+00  0.0000000000000D+00
239  2.3800000000000D+00  0.0000000000000D+00  0.0000000000000D+00
240  2.3900000000000D+00  0.0000000000000D+00  0.0000000000000D+00
241  2.4000000000000D+00  0.0000000000000D+00  0.0000000000000D+00
242  2.4100000000000D+00  0.0000000000000D+00  0.0000000000000D+00
243  2.4200000000000D+00  0.0000000000000D+00  0.0000000000000D+00
244  2.4300000000000D+00  0.0000000000000D+00  0.0000000000000D+00
245  2.4400000000000D+00  0.0000000000000D+00  0.0000000000000D+00
246  2.4500000000000D+00  0.0000000000000D+00  0.0000000000000D+00
247  2.4600000000000D+00  0.0000000000000D+00  0.0000000000000D+00
248  2.4700000000000D+00  0.0000000000000D+00  0.0000000000000D+00
249  2.4800000000000D+00  0.0000000000000D+00  0.0000000000000D+00
250  2.4900000000000D+00  0.0000000000000D+00  0.0000000000000D+00
251  2.5000000000000D+00  0.0000000000000D+00  0.0000000000000D+00
252  2.5100000000000D+00  0.0000000000000D+00  0.0000000000000D+00
253  2.5200000000000D+00  0.0000000000000D+00  0.0000000000000D+00
254  2.5300000000000D+00  0.0000000000000D+00  0.0000000000000D+00
255  2.5400000000000D+00  0.0000000000000D+00  0.0000000000000D+00
256  2.5500000000000D+00  0.0000000000000D+00  0.0000000000000D+00
257  2.5600000000000D+00  0.0000000000000D+00  0.0000000000000D+00
258  2.5700000000000D+00  0.0000000000000D+00  0.0000000000000D+00
259  2.5800000000000D+00  0.0000000000000D+00  0.0000000000000D+00
260  2.5900000000000D+00  0.0000000000000D+00  0.0000000000000D+00
261  2.6000000000000D+00  0.0000000000000D+00  0.0000000000000D+00
262  2.6100000000000D+00  0.0000000000000D+00  0.0000000000000D+00
263  2.6200000000000D+00  0.0000000000000D+00  0.0000000000000D+00
264  2.6300000000000D+00  0.0000000000000D+00  0.0000000000000D+00
265  2.6400000000000D+00  0.0000000000000D+00  0.0000000000000D+00
266  2.6500000000000D+00  0.0000000000000D+00  0.0000000000000D+00
267  2.6600000000000D+00  0.0000000000000D+00  0.0000000000000D+00
268  2.6700000000000D+00  0.0000000000000D+00  0.0000000000000D+00
269  2.6800000000000D+00  0.0000000000000D+00  0.0000000000000D+00
270  2.6900000000000D+00  0.0000000000000D+00  0.0000000000000D+00
271  2.7000000000000D+00  0.0000000000000D+00  0.0000000000000D+00
272  2.7100000000000D+00  0.0000000000000D+00  0.0000000000000D+00
273  2.7200000000000D+00  0.0000000000000D+00  0.0000000000000D+00
274  2.7300000000000D+00  0.0000000000000D+00  0.0000000000000D+00
275  2.7400000000000D+00  0.0000000000000D+00  0.0000000000000D+00
276  2.7500000000000D+00  0.0000000000000D+00  0.0000000000000D+00
277  2.7600000000000D+00  0.0000000000000D+00  0.0000000000000D+00
278  2.7700000000000D+00  0.0000000000000D+00  0.0000000000000D+00
279  2.7800000000000D+00  0.0000000000000D+00  0.0000000000000D+00
280  2.7900000000000D+00  0.0000000000000D+00  0.0000000000000D+00
281  2.8000000000000D+00  0.0000000000000D+00  0.0000000000000D+00
282  2.8100000000000D+00  0.0000000000000D+00  0.0000000000000D+00
283  2.8200000000000D+00  0.0000000000000D+00  0.0000000000000D+00
284  2.8300000000000D+00  0.0000000000000D+00  0.0000000000000D+00
285  2.8400000000000D+00  0.0000000000000D+00  0.0000000000000D+00
286  2.8500000000000D+00  0.0000000000000D+00  0.0000000000000D+00
287  2.8600000000000D+00  0.0000000000000D+00  0.0000000000000D+00
288  2.8700000000000D+00  0.0000000000000D+00  0.0000000000000D+00
289  2.8800000000000D+00  0.0000000000000D+00  0.0000000000000D+00
290  2.8900000000000D+00  0.0000000000000D+00  0.0000000000000D+00
291  2.9000000000000D+00  0.0000000000000D+00  0.0000000000000D+00
292  2.9100000000000D+00  0.0000000000000D+00  0.0000000000000D+00
293  2.9200000000000D+00  0.0000000000000D+00  0.0000000000000D+00
294  2.9300000000000D+00  0.0000000000000D+00  0.0000000000000D+00
295  2.9400000000000D+00  0.0000000000000D+00  0.0000000000000D+00
296  2.9500000000000D+00  0.0000000000000D+00  0.0000000000000D+00
297  2.9600000000000D+00  0.0000000000000D+00  0.0000000000000D+00
298  2.9700000000000D+00  0.0000000000000D+00  0.0000000000000D+00
299  2.9800000000000D+00  0.0000000000000D+00  0.0000000000000D+00
300  2.9900000000000D+00  0.0000000000000D+00  0.0000000000000D+00
301  3.0000000000000D+00  0.0000000000000D+00  0.0000000000000D+00
302  3.0100000000000D+00  0.0000000000000D+00  0.0000000000000D+00
303  3.0200000000000D+00  0.0000000000000D+00  0.0000000000000D+00
304  3.0300000000000D+00  0.0000000000000D+00  0.0000000000000D+00
305  3.0400000000000D+00  0.0000000000000D+00  0.0000000000000D+00
306  3.0500000000000D+00  0.0000000000000D+00  0.0000000000000D+00
307  3.0600000000000D+00  0.0000000000000D+00  0.0000000000000D+00
308  3.0700000000000D+00  0.0000000000000D+00  0.0000000000000D+00
309  3.0800000000000D+00  0.0000000000000D+00  0.0000000000000D+00
310  3.0900000000000D+00  0.0000000000000D+00  0.0000000000000D+00
311  3.1000000000000D+00  0.0000000000000D+00  0.0000000000000D+00
312  3.1100000000000D+00  0.0000000000000D+00  0.0000000000000D+00
313  3.1200000000000D+00  0.0000000000000D+00  0.0000000000000D+00
314  3.1300000000000D+00  0.0000000000000D+00  0.0000000000000D+00
315  3.1400000000000D+00  0.0000000000000D+00  0.0000000000000D+00
316  3.1500000000000D+00  0.0000000000000D+00  0.0000000000000D+00
317  3.1600000000000D+00  0.0000000000000D+00  0.0000000000000D+00
318  3.1700000000000D+00  0.0000000000000D+00  0.0000000000000D+00
319  3.1800000000000D+00  0.0000000000000D+00  0.0000000000000D+00
320  3.1900000000000D+00  0.0000000000000D+00  0.0000000000000D+00
321  3.2000000000000D+00  0.0000000000000D+00  0.0000000000000D+00
322  3.2100000000000D+00  0.0000000000000D+00  0.0000000000000D+00
323  3.2200000000000D+00  0.0000000000000D+00  0.0000000000000D+00
324  3.2300000000000D+00  0.0000000000000D+00  0.0000000000000D+00
325  3.2400000000000D+00  0.0000000000000D+00  0.0000000000000D+00
326  3.2500000000000D+00  0.0000000000000D+00  0.0000000000000D+00
327  3.2600000000000D+00  0.0000000000000D+00  0.0000000000000D+00
328  3.2700000000000D+00  0.0000000000000D+00  0.0000000000000D+00
329  3.2800000000000D+00  0.0000000000000D+00  0.0000000000000D+00
330  3.2900000000000D+00  0.0000000000000D+00  0.0000000000000D+00
331  3.3000000000000D+00  0.0000000000000D+00  0.0000000000000D+00
332  3.3100000000000D+00  0.0000000000000D+00  0.0000000000000D+00
333  3.3200000000000D+00  0.0000000000000D+00  0.0000000000000D+00
334  3.3300000000000D+00  0.0000000000000D+00  0.0000000000000D+00
335  3.3400000000000D+00  0.0000000000000D+00  0.0000000000000D+00
336  3.3500000000000D+00  0.0000000000000D+00  0.0000000000000D+00
337  3.3600000000000D+00  0.0000000000000D+00  0.0000000000000D+00
338  3.3700000000000D+00  0.0000000000000D+00  0.0000000000000D+00
339  3.3800000000000D+00  0.0000000000000D+00  0.0000000000000D+00
340  3.3900000000000D+00  0.0000000000000D+00  0.0000000000000D+00
341  3.4000000000000D+00  0.0000000000000D+00  0.0000000000000D+00
342  3.4100000000000D+00  0.0000000000000D+00  0.0000000000000D+00
343  3.4200000000000D+00  0.0000000000000D+00  0.0000000000000D+00
344  3.4300000000000D+00  0.0000000000000D+00  0.0000000000000D+00
345  3.4400000000000D+00  0.0000000000000D+00  0.0000000000000D+00
346  3.4500000000000D+00  0.0000000000000D+00  0.0000000000000D+00
347  3.4600000000000D+00  0.0000000000000D+00  0.0000000000000D+00
348  3.4700000000000D+00  0.0000000000000D+00  0.0000000000000D+00
349  3.4800000000000D+00  0.0000000000000D+00  0.0000000000000D+00
350  3.4900000000000D+00  0.0000000000000D+00  0.0000000000000D+00
351  3.5000000000000D+00  0.0000000000000D+00  0.0000000000000D+00
352  3.5100000000000D+00  0.0000000000000D+00  0.0000000000000D+00
353  3.5200000000000D+00  0.0000000000000D+00  0.0000000000000D+00
354  3.5300000000000D+00  0.0000000000000D+00  0.0000000000000D+00
355  3.5400000000000D+00  0.0000000000000D+00  0.0000000000000D+00
356  3.5500000000000D+00  0.0000000000000D+00  0.0000000000000D+00
357  3.5600000000000D+00  0.0000000000000D+00  0.0000000000000D+00
358  3.5700000000000D+00  0.0000000000000D+00  0.0000000000000D+00
359  3.5800000000000D+00  0.0000000000000D+00  0.0000000000000D+00
360  3.5900000000000D+00  0.0000000000000D+00  0.0000000000000D+00
361  3.6000000000000D+00  0.0000000000000D+00  0.0000000000000D+00
362  3.6100000000000D+00  0.0000000000000D+00  0.0000000000000D+00
363  3.6200000000000D+00  0.0000000000000D+00  0.0000000000000D+00
364  3.6300000000000D+00  0.0000000000000D+00  0.0000000000000D+00
365  3.6400000000000D+00  0.0000000000000D+00  0.0000000000000D+00
366  3.6500000000000D+00  0.0000000000000D+00  0.0000000000000D+00
367  3.6600000000000D+00  0.0000000000000D+00  0.0000000000000D+00
368  3.6700000000000D+00  0.0000000000000D+00  0.0000000000000D+00
369  3.6800000000000D+00  0.0000000000000D+00  0.0000000000000D+00
370  3.6900000000000D+00  0.0000000000000D+00  0.0000000000000D+00
371  3.7000000000000D+00  0.0000000000000D+00  0.0000000000000D+00
372  3.7100000000000D+00  0.0000000000000D+00  0.0000000000000D+00
373  3.7200000000000D+00  0.0000000000000D+00  0.0000000000000D+00
374  3.7300000000000D+00  0.0000000000000D+00  0.0000000000000D+00
375  3.7400000000000D+00  0.0000000000000D+00  0.0000000000000D+00
376  3.7500000000000D+00  0.0000000000000D+00  0.0000000000000D+00
377  3.7600000000000D+00  0.0000000000000D+00  0.0000000000000D+00
378  3.7700000000000D+00  0.0000000000000D+00  0.0000000000000D+00
379  3.7800000000000D+00  0.0000000000000D+00  0.0000000000000D+00
380  3.7900000000000D+00  0.0000000000000D+00  0.0000000000000D+00
381  3.8000000000000D+00  0.0000000000000D+00  0.0000000000000D+00
382  3.8100000000000D+00  0.0000000000000D+00  0.0000000000000D+00
383  3.8200000000000D+00  0.0000000000000D+00  0.0000000000000D+00
384  3.8300000000000D+00  0.0000000000000D+00  0.0000000000000D+00
385  3.8400000000000D+00  0.0000000000000D+00  0.0000000000000D+00
386  3.8500000000000D+00  0.0000000000000D+00  0.0000000000000D+00
387  3.8600000000000D+00  0.0000000000000D+00  0.0000000000000D+00
388  3.8700000000000D+00  0.0000000000000D+00  0.0000000000000D+00
389  3.8800000000000D+00  0.0000000000000D+00  0.0000000000000D+00
390  3.8900000000000D+00  0.0000000000000D+00  0.0000000000000D+00
391  3.9000000000000D+00  0.0000000000000D+00  0.0000000000000D+00
392  3.9100000000000D+00  0.0000000000000D+00  0.0000000000000D+00
393  3.9200000000000D+00  0.0000000000000D+00  0.0000000000000D+00
394  3.9300000000000D+00  0.0000000000000D+00  0.0000000000000D+00
395  3.9400000000000D+00  0.0000000000000D+00  0.0000000000000D+00
396  3.9500000000000D+00  0.0000000000000D+00  0.0000000000000D+00
397  3.9600000000000D+00  0.0000000000000D+00  0.0000000000000D+00
398  3.9700000000000D+00  0.0000000000000D+00  0.0000000000000D+00
399  3.9800000000000D+00  0.0000000000000D+00  0.0000000000000D+00
400  3.9900000000000D+00  0.0000000000000D+00  0.0000000000000D+00
401  4.0000000000000D+00  0.0000000000000D+00  0.0000000000000D+00
402  4.0100000000000D+00  0.0000000000000D+00  0.0000000000000D+00
403  4.0200000000000D+00  0.0000000000000D+00  0.0000000000000D+00
404  4.0300000000000D+00  0.0000000000000D+00  0.0000000000000D+00
405  4.0400000000000D+00  0.0000000000000D+00  0.0000000000000D+00
406  4.0500000000000D+00  0.0000000000000D+00  0.0000000000000D+00
407  4.0600000000000D+00  0.0000000000000D+00  0.0000000000000D+00
408  4.0700000000000D+00  0.0000000000000D+00  0.0000000000000D+00
409  4.0800000000000D+00  0.0000000000000D+00  0.0000000000000D+00
410  4.0900000000000D+00  0.0000000000000D+00  0.0000000000000D+00
411  4.1000000000000D+00  0.0000000000000D+00  0.0000000000000D+00
412  4.1100000000000D+00  0.0000000000000D+00  0.0000000000000D+00
413  4.1200000000000D+00  0.0000000000000D+00  0.0000000000000D+00
414  4.1300000000000D+00  0.0000000000000D+00  0.0000000000000D+00
415  4.1400000000000D+00  0.0000000000000D+00  0.0000000000000D+00
416  4.1500000000000D+00  0.0000000000000D+00  0.0000000000000D+00
417  4.1600000000000D+00  0.0000000000000D+00  0.0000000000000D+00
418  4.1700000000000D+00  0.0000000000000D+00  0.0000000000000D+00
419  4.1800000000000D+00  0.0000000000000D+00  0.0000000000000D+00
420  4.1900000000000D+00  0.0000000000000D+00  0.0000000000000D+00
421  4.2000000000000D+00  0.0000000000000D+00  0.0000000000000D+00
422  4.2100000000000D+00  0.0000000000000D+00  0.0000000000000D+00
423  4.2200000000000D+00  0.0000000000000D+00  0.0000000000000D+00
424  4.2300000000000D+00  0.0000000000000D+00  0.0000000000000D+00
425  4.2400000000000D+00  0.0000000000000D+00  0.0000000000000D+00
426  4.2500000000000D+00  0.0000000000000D+00  0.0000000000000D+00
427  4.2600000000000D+00  0.0000000000000D+00  0.0000000000000D+00
428  4.2700000000000D+00  0.0000000000000D+00  0.0000000000000D+00
429  4.2800000000000D+00  0.0000000000000D+00  0.0000000000000D+00
430  4.2900000000000D+00  0.0000000000000D+00  0.0000000000000D+00
431  4.3000000000000D+00  0.0000000000000D+00  0.0000000000000D+00
432  4.3100000000000D+00  0.0000000000000D+00  0.0000000000000D+00
433  4.3200000000000D+00  0.0000000000000D+00  0.0000000000000D+00
434  4.3300000000000D+00  0.0000000000000D+00  0.0000000000000D+00
435  4.3400000000000D+00  0.0000000000000D+00  0.0000000000000D+00
436  4.3500000000000D+00  0.0000000000000D+00  0.0000000000000D+00
437  4.3600000000000D+00  0.0000000000000D+00  0.0000000000000D+00
438  4.3700000000000D+00  0.0000000000000D+00  0.0000000000000D+00
439  4.3800000000000D+00  0.0000000000000D+00  0.0000000000000D+00
440  4.3900000000000D+00  0.0000000000000D+00  0.0000000000000D+00
441  4.4000000000000D+00  0.0000000000000D+00  0.0000000000000D+00
442  4.4100000000000D+00  0.0000000000000D+00  0.0000000000000D+00
443  4.4200000000000D+00  0.0000000000000D+00  0.0000000000000D+00