Pd    ONCVPSP-3.3.0  r_core=   1.41052   1.46191   1.55175
46.0000     18.0000      171103    zatom,zion,pspd
8   -1012   2     4   600     0    pspcod,pspxc,lmax,lloc,mmax,r2well
5.99000000  7.00000000  0.00000000    rchrg fchrg qchrg
2     2     2     0     0    nproj
1     1           extension_switch
0                         8.0805485559998D+00 -1.8925722669139D+00
1  0.0000000000000D+00 -9.4379282167267D-11 -9.1547680547421D-10
2  1.0000000000000D-02  6.5947880844263D-02 -5.5916555050323D-02
3  2.0000000000000D-02  1.3176234257199D-01 -1.1169347798006D-01
4  3.0000000000000D-02  1.9731042230574D-01 -1.6719033069071D-01
5  4.0000000000000D-02  2.6246006684138D-01 -2.2226508191400D-01
6  5.0000000000000D-02  3.2708058049652D-01 -2.7677335735714D-01
7  6.0000000000000D-02  3.9104306464054D-01 -3.3056774526896D-01
8  7.0000000000000D-02  4.5422084624499D-01 -3.8349717481550D-01
9  8.0000000000000D-02  5.1648989288757D-01 -4.3540638373796D-01
10  9.0000000000000D-02  5.7772921175928D-01 -4.8613549063963D-01
11  1.0000000000000D-01  6.3782123036164D-01 -5.3551968592232D-01
12  1.1000000000000D-01  6.9665215673788D-01 -5.8338905388152D-01
13  1.2000000000000D-01  7.5411231725716D-01 -6.2956853678879D-01
14  1.3000000000000D-01  8.1009647016305D-01 -6.7387804995643D-01
15  1.4000000000000D-01  8.6450409330382D-01 -7.1613275481398D-01
16  1.5000000000000D-01  9.1723964468253D-01 -7.5614349494846D-01
17  1.6000000000000D-01  9.6821279469518D-01 -7.9371739789250D-01
18  1.7000000000000D-01  1.0173386291651D+00 -8.2865864321069D-01
19  1.8000000000000D-01  1.0645378225280D+00 -8.6076939515810D-01
20  1.9000000000000D-01  1.1097367807728D+00 -8.8985089589046D-01
21  2.0000000000000D-01  1.1528677539952D+00 -9.1570471291946D-01
22  2.1000000000000D-01  1.1938689186752D+00 -9.3813413225270D-01
23  2.2000000000000D-01  1.2326844300359D+00 -9.5694568646260D-01
24  2.3000000000000D-01  1.2692644450894D+00 -9.7195080481714D-01
25  2.4000000000000D-01  1.3035651172070D+00 -9.8296757060057D-01
26  2.5000000000000D-01  1.3355485632852D+00 -9.8982256888030D-01
27  2.6000000000000D-01  1.3651828047852D+00 -9.9235280625724D-01
28  2.7000000000000D-01  1.3924416841335D+00 -9.9040768259397D-01
29  2.8000000000000D-01  1.4173047581482D+00 -9.8385099336744D-01
30  2.9000000000000D-01  1.4397571703288D+00 -9.7256294015822D-01
31  3.0000000000000D-01  1.4597895039899D+00 -9.5644212588304D-01
32  3.1000000000000D-01  1.4773976183492D+00 -9.3540751071664D-01
33  3.2000000000000D-01  1.4925824697803D+00 -9.0940030424110D-01
34  3.3000000000000D-01  1.5053499205246D+00 -8.7838576922026D-01
35  3.4000000000000D-01  1.5157105372094D+00 -8.4235491252481D-01
36  3.5000000000000D-01  1.5236793815518D+00 -8.0132603913821D-01
37  3.6000000000000D-01  1.5292757956329D+00 -7.5534614585391D-01
38  3.7000000000000D-01  1.5325231841058D+00 -7.0449213222869D-01
39  3.8000000000000D-01  1.5334487956548D+00 -6.4887180758267D-01
40  3.9000000000000D-01  1.5320835059541D+00 -5.8862467432281D-01
41  4.0000000000000D-01  1.5284616042760D+00 -5.2392246960726D-01
42  4.1000000000000D-01  1.5226205857811D+00 -4.5496944934650D-01
43  4.2000000000000D-01  1.5146009513806D+00 -3.8200240073884D-01
44  4.3000000000000D-01  1.5044460168991D+00 -3.0529037194561D-01
45  4.4000000000000D-01  1.4922017330822D+00 -2.2513411010148D-01
46  4.5000000000000D-01  1.4779165177950D+00 -1.4186520160732D-01
47  4.6000000000000D-01  1.4616411015420D+00 -5.5844911539208D-02
48  4.7000000000000D-01  1.4434283872096D+00  3.2537277997728D-02
49  4.8000000000000D-01  1.4233333246946D+00  1.2286542766908D-01
50  4.9000000000000D-01  1.4014128008320D+00  2.1469919284087D-01
51  5.0000000000000D-01  1.3777255447859D+00  3.0757615847617D-01
52  5.1000000000000D-01  1.3523320488077D+00  4.0101444471341D-01
53  5.2000000000000D-01  1.3252945040141D+00  4.9451556776316D-01
54  5.3000000000000D-01  1.2966767505816D+00  5.8756753777024D-01
55  5.4000000000000D-01  1.2665442415103D+00  6.7964817240355D-01
56  5.5000000000000D-01  1.2349640188726D+00  7.7022860220495D-01
57  5.6000000000000D-01  1.2020047012343D+00  8.5877694117405D-01
58  5.7000000000000D-01  1.1677364807299D+00  9.4476209371409D-01
59  5.8000000000000D-01  1.1322311280755D+00  1.0276576669597D+00
60  5.9000000000000D-01  1.0955620036334D+00  1.1069459556551D+00
61  6.0000000000000D-01  1.0578040724902D+00  1.1821219651991D+00
62  6.1000000000000D-01  1.0190339213823D+00  1.2526974372217D+00
63  6.2000000000000D-01  9.7932977520717D-01  1.3182048411443D+00
64  6.3000000000000D-01  9.3877151078037D-01  1.3782012946051D+00
65  6.4000000000000D-01  8.9744066546273D-01  1.4322723754201D+00
66  6.5000000000000D-01  8.5542043826497D-01  1.4800357879129D+00
67  6.6000000000000D-01  8.1279568105971D-01  1.5211448469806D+00
68  6.7000000000000D-01  7.6965287758106D-01  1.5552917441795D+00
69  6.8000000000000D-01  7.2608010797493D-01  1.5822105614004D+00
70  6.9000000000000D-01  6.8216699677882D-01  1.6016799993696D+00
71  7.0000000000000D-01  6.3800464235504D-01  1.6135257902320D+00
72  7.1000000000000D-01  5.9368552597739D-01  1.6176227658468D+00
73  7.2000000000000D-01  5.4930339897515D-01  1.6138965561173D+00
74  7.3000000000000D-01  5.0495314657034D-01  1.6023248947026D+00
75  7.4000000000000D-01  4.6073062729985D-01  1.5829385127445D+00
76  7.5000000000000D-01  4.1673248719263D-01  1.5558216047956D+00
77  7.6000000000000D-01  3.7305594817104D-01  1.5211118549190D+00
78  7.7000000000000D-01  3.2979857046030D-01  1.4790000148908D+00
79  7.8000000000000D-01  2.8705798911910D-01  1.4297290305611D+00
80  7.9000000000000D-01  2.4493162514380D-01  1.3735927166725D+00
81  8.0000000000000D-01  2.0351637194444D-01  1.3109339847400D+00
82  8.1000000000000D-01  1.6290825833878D-01  1.2421426329399D+00
83  8.2000000000000D-01  1.2320208955870D-01  1.1676527112865D+00
84  8.3000000000000D-01  8.4491068105112D-02  1.0879394796465D+00
85  8.4000000000000D-01  4.6866396620917D-02  1.0035159803120D+00
86  8.5000000000000D-01  1.0416865271678D-02  9.1492925087809D-01
87  8.6000000000000D-01 -2.4771573573454D-02  8.2275620700691D-01
88  8.7000000000000D-01 -5.8616240285834D-02  7.2759922826311D-01
89  8.8000000000000D-01 -9.1038169214262D-02  6.3008148353635D-01
90  8.9000000000000D-01 -1.2196255265323D-01  5.3084203558803D-01
91  9.0000000000000D-01 -1.5131918378304D-01  4.3053076693232D-01
92  9.1000000000000D-01 -1.7904289465879D-01  3.2980317155554D-01
93  9.2000000000000D-01 -2.0507398519893D-01  2.2931505886381D-01
94  9.3000000000000D-01 -2.2935863903702D-01  1.2971721769880D-01
95  9.4000000000000D-01 -2.5184932205488D-01  3.1650089257324D-02
96  9.5000000000000D-01 -2.7250515941282D-01 -6.4261501727516D-02
97  9.6000000000000D-01 -2.9129228693509D-01 -1.5741350815940D-01
98  9.7000000000000D-01 -3.0818417279256D-01 -2.4722766515432D-01
99  9.8000000000000D-01 -3.2316190555912D-01 -3.3315629004533D-01
100  9.9000000000000D-01 -3.3621444489238D-01 -4.1468683127198D-01
101  1.0000000000000D+00 -3.4733883130958D-01 -4.9134612154393D-01
102  1.0100000000000D+00 -3.5654035179258D-01 -5.6270429306880D-01
103  1.0200000000000D+00 -3.6383265825621D-01 -6.2837831546402D-01
104  1.0300000000000D+00 -3.6923783627196D-01 -6.8803512040982D-01
105  1.0400000000000D+00 -3.7278642178055D-01 -7.4139428042753D-01
106  1.0500000000000D+00 -3.7451736398305D-01 -7.8823021367200D-01
107  1.0600000000000D+00 -3.7447793300932D-01 -8.2837389071443D-01
108  1.0700000000000D+00 -3.7272357143581D-01 -8.6171402404624D-01
109  1.0800000000000D+00 -3.6931768923394D-01 -8.8819772620399D-01
110  1.0900000000000D+00 -3.6433140217897D-01 -9.0783062698511D-01
111  1.1000000000000D+00 -3.5784321432324D-01 -9.2067644611341D-01
112  1.1100000000000D+00 -3.4993864562997D-01 -9.2685602279511D-01
113  1.1200000000000D+00 -3.4070980640046D-01 -9.2654580917450D-01
114  1.1300000000000D+00 -3.3025492063956D-01 -9.1997584003832D-01
115  1.1400000000000D+00 -3.1867780098623D-01 -9.0742719616267D-01
116  1.1500000000000D+00 -3.0608727840461D-01 -8.8922898469456D-01
117  1.1600000000000D+00 -2.9259659026187D-01 -8.6575486453997D-01
118  1.1700000000000D+00 -2.7832273086051D-01 -8.3741914944763D-01
119  1.1800000000000D+00 -2.6338576892114D-01 -8.0467252607266D-01
120  1.1900000000000D+00 -2.4790813694865D-01 -7.6799742906242D-01
121  1.2000000000000D+00 -2.3201389773705D-01 -7.2790311880136D-01
122  1.2100000000000D+00 -2.1582799349799D-01 -6.8492050996743D-01
123  1.2200000000000D+00 -1.9947548350721D-01 -6.3959680371077D-01
124  1.2300000000000D+00 -1.8308077627942D-01 -5.9248997774512D-01
125  1.2400000000000D+00 -1.6676686242983D-01 -5.4416319044123D-01
126  1.2500000000000D+00 -1.5065455455682D-01 -4.9517915720553D-01
127  1.2600000000000D+00 -1.3486174048048D-01 -4.4609455794567D-01
128  1.2700000000000D+00 -1.1950265613912D-01 -3.9745453433819D-01
129  1.2800000000000D+00 -1.0468718449182D-01 -3.4978733645614D-01
130  1.2900000000000D+00 -9.0520186495582D-02 -3.0359917617943D-01
131  1.3000000000000D+00 -7.7100870120713D-02 -2.5936934387881D-01
132  1.3100000000000D+00 -6.4522203273186D-02 -2.1754564432906D-01
133  1.3200000000000D+00 -5.2870375828857D-02 -1.7854020190451D-01
134  1.3300000000000D+00 -4.2224316034955D-02 -1.4272568553644D-01
135  1.3400000000000D+00 -3.2655266077547D-02 -1.1043199995660D-01
136  1.3500000000000D+00 -2.4226420655600D-02 -8.1943480834443D-02
137  1.3600000000000D+00 -1.6992632921838D-02 -5.7496636276637D-02
138  1.3700000000000D+00 -1.1004384326448D-02 -3.7292988783598D-02
139  1.3800000000000D+00 -6.2751806000901D-03 -2.1383982699598D-02
140  1.3900000000000D+00 -2.8604481785304D-03 -9.9495376026452D-03
141  1.4000000000000D+00 -8.7735657722416D-04 -3.3849947437290D-03
142  1.4100000000000D+00 -8.0112137314750D-05 -7.1737452527056D-04
143  1.4200000000000D+00  5.4844327310130D-05 -1.5192440995717D-05
144  1.4300000000000D+00 -1.2062374920762D-05 -1.1371785433948D-05
145  1.4400000000000D+00 -1.5538760127687D-05 -2.1352562929576D-05
146  1.4500000000000D+00  3.3428545388954D-06  1.5323179810602D-06
147  1.4600000000000D+00  1.2447760695898D-06  8.9580059224332D-07
148  1.4700000000000D+00  1.7494374561605D-07  1.8420071562061D-06
149  1.4800000000000D+00  0.0000000000000D+00  0.0000000000000D+00
150  1.4900000000000D+00  0.0000000000000D+00  0.0000000000000D+00
151  1.5000000000000D+00  0.0000000000000D+00  0.0000000000000D+00
152  1.5100000000000D+00  0.0000000000000D+00  0.0000000000000D+00
153  1.5200000000000D+00  0.0000000000000D+00  0.0000000000000D+00
154  1.5300000000000D+00  0.0000000000000D+00  0.0000000000000D+00
155  1.5400000000000D+00  0.0000000000000D+00  0.0000000000000D+00
156  1.5500000000000D+00  0.0000000000000D+00  0.0000000000000D+00
157  1.5600000000000D+00  0.0000000000000D+00  0.0000000000000D+00
158  1.5700000000000D+00  0.0000000000000D+00  0.0000000000000D+00
159  1.5800000000000D+00  0.0000000000000D+00  0.0000000000000D+00
160  1.5900000000000D+00  0.0000000000000D+00  0.0000000000000D+00
161  1.6000000000000D+00  0.0000000000000D+00  0.0000000000000D+00
162  1.6100000000000D+00  0.0000000000000D+00  0.0000000000000D+00
163  1.6200000000000D+00  0.0000000000000D+00  0.0000000000000D+00
164  1.6300000000000D+00  0.0000000000000D+00  0.0000000000000D+00
165  1.6400000000000D+00  0.0000000000000D+00  0.0000000000000D+00
166  1.6500000000000D+00  0.0000000000000D+00  0.0000000000000D+00
167  1.6600000000000D+00  0.0000000000000D+00  0.0000000000000D+00
168  1.6700000000000D+00  0.0000000000000D+00  0.0000000000000D+00
169  1.6800000000000D+00  0.0000000000000D+00  0.0000000000000D+00
170  1.6900000000000D+00  0.0000000000000D+00  0.0000000000000D+00
171  1.7000000000000D+00  0.0000000000000D+00  0.0000000000000D+00
172  1.7100000000000D+00  0.0000000000000D+00  0.0000000000000D+00
173  1.7200000000000D+00  0.0000000000000D+00  0.0000000000000D+00
174  1.7300000000000D+00  0.0000000000000D+00  0.0000000000000D+00
175  1.7400000000000D+00  0.0000000000000D+00  0.0000000000000D+00
176  1.7500000000000D+00  0.0000000000000D+00  0.0000000000000D+00
177  1.7600000000000D+00  0.0000000000000D+00  0.0000000000000D+00
178  1.7700000000000D+00  0.0000000000000D+00  0.0000000000000D+00
179  1.7800000000000D+00  0.0000000000000D+00  0.0000000000000D+00
180  1.7900000000000D+00  0.0000000000000D+00  0.0000000000000D+00
181  1.8000000000000D+00  0.0000000000000D+00  0.0000000000000D+00
182  1.8100000000000D+00  0.0000000000000D+00  0.0000000000000D+00
183  1.8200000000000D+00  0.0000000000000D+00  0.0000000000000D+00
184  1.8300000000000D+00  0.0000000000000D+00  0.0000000000000D+00
185  1.8400000000000D+00  0.0000000000000D+00  0.0000000000000D+00
186  1.8500000000000D+00  0.0000000000000D+00  0.0000000000000D+00
187  1.8600000000000D+00  0.0000000000000D+00  0.0000000000000D+00
188  1.8700000000000D+00  0.0000000000000D+00  0.0000000000000D+00
189  1.8800000000000D+00  0.0000000000000D+00  0.0000000000000D+00
190  1.8900000000000D+00  0.0000000000000D+00  0.0000000000000D+00
191  1.9000000000000D+00  0.0000000000000D+00  0.0000000000000D+00
192  1.9100000000000D+00  0.0000000000000D+00  0.0000000000000D+00
193  1.9200000000000D+00  0.0000000000000D+00  0.0000000000000D+00
194  1.9300000000000D+00  0.0000000000000D+00  0.0000000000000D+00
195  1.9400000000000D+00  0.0000000000000D+00  0.0000000000000D+00
196  1.9500000000000D+00  0.0000000000000D+00  0.0000000000000D+00
197  1.9600000000000D+00  0.0000000000000D+00  0.0000000000000D+00
198  1.9700000000000D+00  0.0000000000000D+00  0.0000000000000D+00
199  1.9800000000000D+00  0.0000000000000D+00  0.0000000000000D+00
200  1.9900000000000D+00  0.0000000000000D+00  0.0000000000000D+00
201  2.0000000000000D+00  0.0000000000000D+00  0.0000000000000D+00
202  2.0100000000000D+00  0.0000000000000D+00  0.0000000000000D+00
203  2.0200000000000D+00  0.0000000000000D+00  0.0000000000000D+00
204  2.0300000000000D+00  0.0000000000000D+00  0.0000000000000D+00
205  2.0400000000000D+00  0.0000000000000D+00  0.0000000000000D+00
206  2.0500000000000D+00  0.0000000000000D+00  0.0000000000000D+00
207  2.0600000000000D+00  0.0000000000000D+00  0.0000000000000D+00
208  2.0700000000000D+00  0.0000000000000D+00  0.0000000000000D+00
209  2.0800000000000D+00  0.0000000000000D+00  0.0000000000000D+00
210  2.0900000000000D+00  0.0000000000000D+00  0.0000000000000D+00
211  2.1000000000000D+00  0.0000000000000D+00  0.0000000000000D+00
212  2.1100000000000D+00  0.0000000000000D+00  0.0000000000000D+00
213  2.1200000000000D+00  0.0000000000000D+00  0.0000000000000D+00
214  2.1300000000000D+00  0.0000000000000D+00  0.0000000000000D+00
215  2.1400000000000D+00  0.0000000000000D+00  0.0000000000000D+00
216  2.1500000000000D+00  0.0000000000000D+00  0.0000000000000D+00
217  2.1600000000000D+00  0.0000000000000D+00  0.0000000000000D+00
218  2.1700000000000D+00  0.0000000000000D+00  0.0000000000000D+00
219  2.1800000000000D+00  0.0000000000000D+00  0.0000000000000D+00
220  2.1900000000000D+00  0.0000000000000D+00  0.0000000000000D+00
221  2.2000000000000D+00  0.0000000000000D+00  0.0000000000000D+00
222  2.2100000000000D+00  0.0000000000000D+00  0.0000000000000D+00
223  2.2200000000000D+00  0.0000000000000D+00  0.0000000000000D+00
224  2.2300000000000D+00  0.0000000000000D+00  0.0000000000000D+00
225  2.2400000000000D+00  0.0000000000000D+00  0.0000000000000D+00
226  2.2500000000000D+00  0.0000000000000D+00  0.0000000000000D+00
227  2.2600000000000D+00  0.0000000000000D+00  0.0000000000000D+00
228  2.2700000000000D+00  0.0000000000000D+00  0.0000000000000D+00
229  2.2800000000000D+00  0.0000000000000D+00  0.0000000000000D+00
230  2.2900000000000D+00  0.0000000000000D+00  0.0000000000000D+00
231  2.3000000000000D+00  0.0000000000000D+00  0.0000000000000D+00
232  2.3100000000000D+00  0.0000000000000D+00  0.0000000000000D+00
233  2.3200000000000D+00  0.0000000000000D+00  0.0000000000000D+00
234  2.3300000000000D+00  0.0000000000000D+00  0.0000000000000D+00
235  2.3400000000000D+00  0.0000000000000D+00  0.0000000000000D+00
236  2.3500000000000D+00  0.0000000000000D+00  0.0000000000000D+00
237  2.3600000000000D+00  0.0000000000000D+00  0.0000000000000D+00
238  2.3700000000000D+00  0.0000000000000D+00  0.0000000000000D+00
239  2.3800000000000D+00  0.0000000000000D+00  0.0000000000000D+00
240  2.3900000000000D+00  0.0000000000000D+00  0.0000000000000D+00
241  2.4000000000000D+00  0.0000000000000D+00  0.0000000000000D+00
242  2.4100000000000D+00  0.0000000000000D+00  0.0000000000000D+00
243  2.4200000000000D+00  0.0000000000000D+00  0.0000000000000D+00
244  2.4300000000000D+00  0.0000000000000D+00  0.0000000000000D+00
245  2.4400000000000D+00  0.0000000000000D+00  0.0000000000000D+00
246  2.4500000000000D+00  0.0000000000000D+00  0.0000000000000D+00
247  2.4600000000000D+00  0.0000000000000D+00  0.0000000000000D+00
248  2.4700000000000D+00  0.0000000000000D+00  0.0000000000000D+00
249  2.4800000000000D+00  0.0000000000000D+00  0.0000000000000D+00
250  2.4900000000000D+00  0.0000000000000D+00  0.0000000000000D+00
251  2.5000000000000D+00  0.0000000000000D+00  0.0000000000000D+00
252  2.5100000000000D+00  0.0000000000000D+00  0.0000000000000D+00
253  2.5200000000000D+00  0.0000000000000D+00  0.0000000000000D+00
254  2.5300000000000D+00  0.0000000000000D+00  0.0000000000000D+00
255  2.5400000000000D+00  0.0000000000000D+00  0.0000000000000D+00
256  2.5500000000000D+00  0.0000000000000D+00  0.0000000000000D+00
257  2.5600000000000D+00  0.0000000000000D+00  0.0000000000000D+00
258  2.5700000000000D+00  0.0000000000000D+00  0.0000000000000D+00
259  2.5800000000000D+00  0.0000000000000D+00  0.0000000000000D+00
260  2.5900000000000D+00  0.0000000000000D+00  0.0000000000000D+00
261  2.6000000000000D+00  0.0000000000000D+00  0.0000000000000D+00
262  2.6100000000000D+00  0.0000000000000D+00  0.0000000000000D+00
263  2.6200000000000D+00  0.0000000000000D+00  0.0000000000000D+00
264  2.6300000000000D+00  0.0000000000000D+00  0.0000000000000D+00
265  2.6400000000000D+00  0.0000000000000D+00  0.0000000000000D+00
266  2.6500000000000D+00  0.0000000000000D+00  0.0000000000000D+00
267  2.6600000000000D+00  0.0000000000000D+00  0.0000000000000D+00
268  2.6700000000000D+00  0.0000000000000D+00  0.0000000000000D+00
269  2.6800000000000D+00  0.0000000000000D+00  0.0000000000000D+00
270  2.6900000000000D+00  0.0000000000000D+00  0.0000000000000D+00
271  2.7000000000000D+00  0.0000000000000D+00  0.0000000000000D+00
272  2.7100000000000D+00  0.0000000000000D+00  0.0000000000000D+00
273  2.7200000000000D+00  0.0000000000000D+00  0.0000000000000D+00
274  2.7300000000000D+00  0.0000000000000D+00  0.0000000000000D+00
275  2.7400000000000D+00  0.0000000000000D+00  0.0000000000000D+00
276  2.7500000000000D+00  0.0000000000000D+00  0.0000000000000D+00
277  2.7600000000000D+00  0.0000000000000D+00  0.0000000000000D+00
278  2.7700000000000D+00  0.0000000000000D+00  0.0000000000000D+00
279  2.7800000000000D+00  0.0000000000000D+00  0.0000000000000D+00
280  2.7900000000000D+00  0.0000000000000D+00  0.0000000000000D+00
281  2.8000000000000D+00  0.0000000000000D+00  0.0000000000000D+00
282  2.8100000000000D+00  0.0000000000000D+00  0.0000000000000D+00
283  2.8200000000000D+00  0.0000000000000D+00  0.0000000000000D+00
284  2.8300000000000D+00  0.0000000000000D+00  0.0000000000000D+00
285  2.8400000000000D+00  0.0000000000000D+00  0.0000000000000D+00
286  2.8500000000000D+00  0.0000000000000D+00  0.0000000000000D+00
287  2.8600000000000D+00  0.0000000000000D+00  0.0000000000000D+00
288  2.8700000000000D+00  0.0000000000000D+00  0.0000000000000D+00
289  2.8800000000000D+00  0.0000000000000D+00  0.0000000000000D+00
290  2.8900000000000D+00  0.0000000000000D+00  0.0000000000000D+00
291  2.9000000000000D+00  0.0000000000000D+00  0.0000000000000D+00
292  2.9100000000000D+00  0.0000000000000D+00  0.0000000000000D+00
293  2.9200000000000D+00  0.0000000000000D+00  0.0000000000000D+00
294  2.9300000000000D+00  0.0000000000000D+00  0.0000000000000D+00
295  2.9400000000000D+00  0.0000000000000D+00  0.0000000000000D+00
296  2.9500000000000D+00  0.0000000000000D+00  0.0000000000000D+00
297  2.9600000000000D+00  0.0000000000000D+00  0.0000000000000D+00
298  2.9700000000000D+00  0.0000000000000D+00  0.0000000000000D+00
299  2.9800000000000D+00  0.0000000000000D+00  0.0000000000000D+00
300  2.9900000000000D+00  0.0000000000000D+00  0.0000000000000D+00
301  3.0000000000000D+00  0.0000000000000D+00  0.0000000000000D+00
302  3.0100000000000D+00  0.0000000000000D+00  0.0000000000000D+00
303  3.0200000000000D+00  0.0000000000000D+00  0.0000000000000D+00
304  3.0300000000000D+00  0.0000000000000D+00  0.0000000000000D+00
305  3.0400000000000D+00  0.0000000000000D+00  0.0000000000000D+00
306  3.0500000000000D+00  0.0000000000000D+00  0.0000000000000D+00
307  3.0600000000000D+00  0.0000000000000D+00  0.0000000000000D+00
308  3.0700000000000D+00  0.0000000000000D+00  0.0000000000000D+00
309  3.0800000000000D+00  0.0000000000000D+00  0.0000000000000D+00
310  3.0900000000000D+00  0.0000000000000D+00  0.0000000000000D+00
311  3.1000000000000D+00  0.0000000000000D+00  0.0000000000000D+00
312  3.1100000000000D+00  0.0000000000000D+00  0.0000000000000D+00
313  3.1200000000000D+00  0.0000000000000D+00  0.0000000000000D+00
314  3.1300000000000D+00  0.0000000000000D+00  0.0000000000000D+00
315  3.1400000000000D+00  0.0000000000000D+00  0.0000000000000D+00
316  3.1500000000000D+00  0.0000000000000D+00  0.0000000000000D+00
317  3.1600000000000D+00  0.0000000000000D+00  0.0000000000000D+00
318  3.1700000000000D+00  0.0000000000000D+00  0.0000000000000D+00
319  3.1800000000000D+00  0.0000000000000D+00  0.0000000000000D+00
320  3.1900000000000D+00  0.0000000000000D+00  0.0000000000000D+00
321  3.2000000000000D+00  0.0000000000000D+00  0.0000000000000D+00
322  3.2100000000000D+00  0.0000000000000D+00  0.0000000000000D+00
323  3.2200000000000D+00  0.0000000000000D+00  0.0000000000000D+00
324  3.2300000000000D+00  0.0000000000000D+00  0.0000000000000D+00
325  3.2400000000000D+00  0.0000000000000D+00  0.0000000000000D+00
326  3.2500000000000D+00  0.0000000000000D+00  0.0000000000000D+00
327  3.2600000000000D+00  0.0000000000000D+00  0.0000000000000D+00
328  3.2700000000000D+00  0.0000000000000D+00  0.0000000000000D+00
329  3.2800000000000D+00  0.0000000000000D+00  0.0000000000000D+00
330  3.2900000000000D+00  0.0000000000000D+00  0.0000000000000D+00
331  3.3000000000000D+00  0.0000000000000D+00  0.0000000000000D+00
332  3.3100000000000D+00  0.0000000000000D+00  0.0000000000000D+00
333  3.3200000000000D+00  0.0000000000000D+00  0.0000000000000D+00
334  3.3300000000000D+00  0.0000000000000D+00  0.0000000000000D+00
335  3.3400000000000D+00  0.0000000000000D+00  0.0000000000000D+00
336  3.3500000000000D+00  0.0000000000000D+00  0.0000000000000D+00
337  3.3600000000000D+00  0.0000000000000D+00  0.0000000000000D+00
338  3.3700000000000D+00  0.0000000000000D+00  0.0000000000000D+00
339  3.3800000000000D+00  0.0000000000000D+00  0.0000000000000D+00
340  3.3900000000000D+00  0.0000000000000D+00  0.0000000000000D+00
341  3.4000000000000D+00  0.0000000000000D+00  0.0000000000000D+00
342  3.4100000000000D+00  0.0000000000000D+00  0.0000000000000D+00
343  3.4200000000000D+00  0.0000000000000D+00  0.0000000000000D+00
344  3.4300000000000D+00  0.0000000000000D+00  0.0000000000000D+00
345  3.4400000000000D+00  0.0000000000000D+00  0.0000000000000D+00
346  3.4500000000000D+00  0.0000000000000D+00  0.0000000000000D+00
347  3.4600000000000D+00  0.0000000000000D+00  0.0000000000000D+00
348  3.4700000000000D+00  0.0000000000000D+00  0.0000000000000D+00
349  3.4800000000000D+00  0.0000000000000D+00  0.0000000000000D+00
350  3.4900000000000D+00  0.0000000000000D+00  0.0000000000000D+00
351  3.5000000000000D+00  0.0000000000000D+00  0.0000000000000D+00
352  3.5100000000000D+00  0.0000000000000D+00  0.0000000000000D+00
353  3.5200000000000D+00  0.0000000000000D+00  0.0000000000000D+00
354  3.5300000000000D+00  0.0000000000000D+00  0.0000000000000D+00
355  3.5400000000000D+00  0.0000000000000D+00  0.0000000000000D+00
356  3.5500000000000D+00  0.0000000000000D+00  0.0000000000000D+00
357  3.5600000000000D+00  0.0000000000000D+00  0.0000000000000D+00
358  3.5700000000000D+00  0.0000000000000D+00  0.0000000000000D+00
359  3.5800000000000D+00  0.0000000000000D+00  0.0000000000000D+00
360  3.5900000000000D+00  0.0000000000000D+00  0.0000000000000D+00
361  3.6000000000000D+00  0.0000000000000D+00  0.0000000000000D+00
362  3.6100000000000D+00  0.0000000000000D+00  0.0000000000000D+00
363  3.6200000000000D+00  0.0000000000000D+00  0.0000000000000D+00
364  3.6300000000000D+00  0.0000000000000D+00  0.0000000000000D+00
365  3.6400000000000D+00  0.0000000000000D+00  0.0000000000000D+00
366  3.6500000000000D+00  0.0000000000000D+00  0.0000000000000D+00
367  3.6600000000000D+00  0.0000000000000D+00  0.0000000000000D+00
368  3.6700000000000D+00  0.0000000000000D+00  0.0000000000000D+00
369  3.6800000000000D+00  0.0000000000000D+00  0.0000000000000D+00
370  3.6900000000000D+00  0.0000000000000D+00  0.0000000000000D+00
371  3.7000000000000D+00  0.0000000000000D+00  0.0000000000000D+00
372  3.7100000000000D+00  0.0000000000000D+00  0.0000000000000D+00
373  3.7200000000000D+00  0.0000000000000D+00  0.0000000000000D+00
374  3.7300000000000D+00  0.0000000000000D+00  0.0000000000000D+00
375  3.7400000000000D+00  0.0000000000000D+00  0.0000000000000D+00
376  3.7500000000000D+00  0.0000000000000D+00  0.0000000000000D+00
377  3.7600000000000D+00  0.0000000000000D+00  0.0000000000000D+00
378  3.7700000000000D+00  0.0000000000000D+00  0.0000000000000D+00
379  3.7800000000000D+00  0.0000000000000D+00  0.0000000000000D+00
380  3.7900000000000D+00  0.0000000000000D+00  0.0000000000000D+00
381  3.8000000000000D+00  0.0000000000000D+00  0.0000000000000D+00
382  3.8100000000000D+00  0.0000000000000D+00  0.0000000000000D+00
383  3.8200000000000D+00  0.0000000000000D+00  0.0000000000000D+00
384  3.8300000000000D+00  0.0000000000000D+00  0.0000000000000D+00
385  3.8400000000000D+00  0.0000000000000D+00  0.0000000000000D+00
386  3.8500000000000D+00  0.0000000000000D+00  0.0000000000000D+00
387  3.8600000000000D+00  0.0000000000000D+00  0.0000000000000D+00
388  3.8700000000000D+00  0.0000000000000D+00  0.0000000000000D+00
389  3.8800000000000D+00  0.0000000000000D+00  0.0000000000000D+00
390  3.8900000000000D+00  0.0000000000000D+00  0.0000000000000D+00
391  3.9000000000000D+00  0.0000000000000D+00  0.0000000000000D+00
392  3.9100000000000D+00  0.0000000000000D+00  0.0000000000000D+00
393  3.9200000000000D+00  0.0000000000000D+00  0.0000000000000D+00
394  3.9300000000000D+00  0.0000000000000D+00  0.0000000000000D+00
395  3.9400000000000D+00  0.0000000000000D+00  0.0000000000000D+00
396  3.9500000000000D+00  0.0000000000000D+00  0.0000000000000D+00
397  3.9600000000000D+00  0.0000000000000D+00  0.0000000000000D+00
398  3.9700000000000D+00  0.0000000000000D+00  0.0000000000000D+00
399  3.9800000000000D+00  0.0000000000000D+00  0.0000000000000D+00
400  3.9900000000000D+00  0.0000000000000D+00  0.0000000000000D+00
401  4.0000000000000D+00  0.0000000000000D+00  0.0000000000000D+00
402  4.0100000000000D+00  0.0000000000000D+00  0.0000000000000D+00
403  4.0200000000000D+00  0.0000000000000D+00  0.0000000000000D+00
404  4.0300000000000D+00  0.0000000000000D+00  0.0000000000000D+00
405  4.0400000000000D+00  0.0000000000000D+00  0.0000000000000D+00
406  4.0500000000000D+00  0.0000000000000D+00  0.0000000000000D+00
407  4.0600000000000D+00  0.0000000000000D+00  0.0000000000000D+00
408  4.0700000000000D+00  0.0000000000000D+00  0.0000000000000D+00
409  4.0800000000000D+00  0.0000000000000D+00  0.0000000000000D+00
410  4.0900000000000D+00  0.0000000000000D+00  0.0000000000000D+00
411  4.1000000000000D+00  0.0000000000000D+00  0.0000000000000D+00
412  4.1100000000000D+00  0.0000000000000D+00  0.0000000000000D+00
413  4.1200000000000D+00  0.0000000000000D+00  0.0000000000000D+00
414  4.1300000000000D+00  0.0000000000000D+00  0.0000000000000D+00
415  4.1400000000000D+00  0.0000000000000D+00  0.0000000000000D+00
416  4.1500000000000D+00  0.0000000000000D+00  0.0000000000000D+00
417  4.1600000000000D+00  0.0000000000000D+00  0.0000000000000D+00
418  4.1700000000000D+00  0.0000000000000D+00  0.0000000000000D+00
419  4.1800000000000D+00  0.0000000000000D+00  0.0000000000000D+00
420  4.1900000000000D+00  0.0000000000000D+00  0.0000000000000D+00
421  4.2000000000000D+00  0.0000000000000D+00  0.0000000000000D+00
422  4.2100000000000D+00  0.0000000000000D+00  0.0000000000000D+00
423  4.2200000000000D+00  0.0000000000000D+00  0.0000000000000D+00
424  4.2300000000000D+00  0.0000000000000D+00  0.0000000000000D+00
425  4.2400000000000D+00  0.0000000000000D+00  0.0000000000000D+00
426  4.2500000000000D+00  0.0000000000000D+00  0.0000000000000D+00
427  4.2600000000000D+00  0.0000000000000D+00  0.0000000000000D+00
428  4.2700000000000D+00  0.0000000000000D+00  0.0000000000000D+00
429  4.2800000000000D+00  0.0000000000000D+00  0.0000000000000D+00
430  4.2900000000000D+00  0.0000000000000D+00  0.0000000000000D+00
431  4.3000000000000D+00  0.0000000000000D+00  0.0000000000000D+00
432  4.3100000000000D+00  0.0000000000000D+00  0.0000000000000D+00
433  4.3200000000000D+00  0.0000000000000D+00  0.0000000000000D+00
434  4.3300000000000D+00  0.0000000000000D+00  0.0000000000000D+00
435  4.3400000000000D+00  0.0000000000000D+00  0.0000000000000D+00
436  4.3500000000000D+00  0.0000000000000D+00  0.0000000000000D+00
437  4.3600000000000D+00  0.0000000000000D+00  0.0000000000000D+00
438  4.3700000000000D+00  0.0000000000000D+00  0.0000000000000D+00
439  4.3800000000000D+00  0.0000000000000D+00  0.0000000000000D+00
440  4.3900000000000D+00  0.0000000000000D+00  0.0000000000000D+00
441  4.4000000000000D+00  0.0000000000000D+00  0.0000000000000D+00
442  4.4100000000000D+00  0.0000000000000D+00  0.0000000000000D+00
443  4.4200000000000D+00  0.0000000000000D+00  0.0000000000000D+00