Mg    ONCVPSP  r_core=  1.11  1.56
12.0000     10.0000      140819    zatom,zion,pspd
8    11     1     4   401     0    pspcod,pspxc,lmax,lloc,mmax,r2well
4.00000000  0.25000000  0.00000000    rchrg fchrg qchrg
2     2     0     0     0    nproj
0                 extension_switch
0                         2.9137132214182D+00 -8.2773096962530D-01
1  0.0000000000000D+00  0.0000000000000D+00  0.0000000000000D+00
2  1.0000000000000D-02  6.8385817482984D-02  2.2165714746744D-02
3  2.0000000000000D-02  1.3695473454717D-01  4.4474962467186D-02
4  3.0000000000000D-02  2.0588105908572D-01  6.7069135895501D-02
5  4.0000000000000D-02  2.7532168793699D-01  9.0085377672060D-02
6  5.0000000000000D-02  3.4540782921580D-01  1.1365453080120D-01
7  6.0000000000000D-02  4.1623722987424D-01  1.3789917843731D-01
8  7.0000000000000D-02  4.8786706338469D-01  1.6293180066946D-01
9  8.0000000000000D-02  5.6030762111262D-01  1.8885307420597D-01
10  9.0000000000000D-02  6.3351693722347D-01  2.1575033872360D-01
11  1.0000000000000D-01  7.0739646078135D-01  2.4369625109455D-01
12  1.1000000000000D-01  7.8178787091168D-01  2.7274764594525D-01
13  1.2000000000000D-01  8.5647111093033D-01  3.0294461783023D-01
14  1.3000000000000D-01  9.3116369644057D-01  3.3430983705583D-01
15  1.4000000000000D-01  1.0055213300274D+00  3.6684810752509D-01
16  1.5000000000000D-01  1.0791398327901D+00  4.0054617169341D-01
17  1.6000000000000D-01  1.1515583797089D+00  4.3537276355688D-01
18  1.7000000000000D-01  1.2222640018256D+00  4.7127890741191D-01
19  1.8000000000000D-01  1.2906972977951D+00  5.0819845596541D-01
20  1.9000000000000D-01  1.3562592762731D+00  5.4604885854411D-01
21  2.0000000000000D-01  1.4183192223242D+00  5.8473214579281D-01
22  2.1000000000000D-01  1.4762234766742D+00  6.2413611521624D-01
23  2.2000000000000D-01  1.5293049822034D+00  6.6413569772122D-01
24  2.3000000000000D-01  1.5768934584906D+00  7.0459448480737D-01
25  2.4000000000000D-01  1.6183260255967D+00  7.4536639068972D-01
26  2.5000000000000D-01  1.6529581030516D+00  7.8629742306166D-01
27  2.6000000000000D-01  1.6801744488936D+00  8.2722754228706D-01
28  2.7000000000000D-01  1.6994000680217D+00  8.6799256791945D-01
29  2.8000000000000D-01  1.7101108710073D+00  9.0842611327680D-01
30  2.9000000000000D-01  1.7118438947017D+00  9.4836151882519D-01
31  3.0000000000000D-01  1.7042068850466D+00  9.8763375243615D-01
32  3.1000000000000D-01  1.6868870811411D+00  1.0260812501381D+00
33  3.2000000000000D-01  1.6596590343590D+00  1.0635476695329D+00
34  3.3000000000000D-01  1.6223912330995D+00  1.0998835131539D+00
35  3.4000000000000D-01  1.5750518372464D+00  1.1349476866160D+00
36  3.5000000000000D-01  1.5177124589967D+00  1.1686087784290D+00
37  3.6000000000000D-01  1.4505512293928D+00  1.2007463174010D+00
38  3.7000000000000D-01  1.3738536730324D+00  1.2312516917189D+00
39  3.8000000000000D-01  1.2880125765591D+00  1.2600289917454D+00
40  3.9000000000000D-01  1.1935260051568D+00  1.2869955820327D+00
41  4.0000000000000D-01  1.0909937777495D+00  1.3120824598743D+00
42  4.1000000000000D-01  9.8111248310300D-01  1.3352344217741D+00
43  4.2000000000000D-01  8.6466898114751D-01  1.3564100096084D+00
44  4.3000000000000D-01  7.4253249983989D-01  1.3755812501820D+00
45  4.4000000000000D-01  6.1564543011796D-01  1.3927331976523D+00
46  4.5000000000000D-01  4.8501294097625D-01  1.4078632911202D+00
47  4.6000000000000D-01  3.5169155645859D-01  1.4209805424541D+00
48  4.7000000000000D-01  2.1677685776055D-01  1.4321045723114D+00
49  4.8000000000000D-01  8.1390512608391D-02  1.4412645159199D+00
50  4.9000000000000D-01 -5.3332889086160D-02  1.4484978360336D+00
51  5.0000000000000D-01 -1.8626056862593D-01  1.4538490061579D+00
52  5.1000000000000D-01 -3.1627475400444D-01  1.4573681759456D+00
53  5.2000000000000D-01 -4.4228588491321D-01  1.4591098444790D+00
54  5.3000000000000D-01 -5.6324799346882D-01  1.4591313665344D+00
55  5.4000000000000D-01 -6.7817007714860D-01  1.4574916762858D+00
56  5.5000000000000D-01 -7.8612842308996D-01  1.4542499847154D+00
57  5.6000000000000D-01 -8.8627994672137D-01  1.4494643790256D+00
58  5.7000000000000D-01 -9.7786904995791D-01  1.4431909416780D+00
59  5.8000000000000D-01 -1.0602412176395D+00  1.4354823530002D+00
60  5.9000000000000D-01 -1.1328461208574D+00  1.4263873704070D+00
61  6.0000000000000D-01 -1.1952477730684D+00  1.4159497510080D+00
62  6.1000000000000D-01 -1.2471272369411D+00  1.4042078349025D+00
63  6.2000000000000D-01 -1.2882846523052D+00  1.3911942295575D+00
64  6.3000000000000D-01 -1.3186445886924D+00  1.3769352275693D+00
65  6.4000000000000D-01 -1.3382510074043D+00  1.3614511900278D+00
66  6.5000000000000D-01 -1.3472674147715D+00  1.3447565006952D+00
67  6.6000000000000D-01 -1.3459744122447D+00  1.3268597886320D+00
68  6.7000000000000D-01 -1.3347618405002D+00  1.3077646759046D+00
69  6.8000000000000D-01 -1.3141225361780D+00  1.2874704065170D+00
70  6.9000000000000D-01 -1.2846456019997D+00  1.2659725605417D+00
71  7.0000000000000D-01 -1.2470053363343D+00  1.2432641776444D+00
72  7.1000000000000D-01 -1.2019507665465D+00  1.2193368474562D+00
73  7.2000000000000D-01 -1.1502942113578D+00  1.1941819058942D+00
74  7.3000000000000D-01 -1.0928992793403D+00  1.1677916800243D+00
75  7.4000000000000D-01 -1.0306670019969D+00  1.1401609485291D+00
76  7.5000000000000D-01 -9.6452291533871D-01  1.1112882550068D+00
77  7.6000000000000D-01 -8.9540361997687D-01  1.0811772845339D+00
78  7.7000000000000D-01 -8.2424330508374D-01  1.0498382227775D+00
79  7.8000000000000D-01 -7.5196058064664D-01  1.0172890586714D+00
80  7.9000000000000D-01 -6.7944578784212D-01  9.8355680947414D-01
81  8.0000000000000D-01 -6.0754898906743D-01  9.4867864282816D-01
82  8.1000000000000D-01 -5.3706882638424D-01  9.1270287206789D-01
83  8.2000000000000D-01 -4.6874242122405D-01  8.7568980308017D-01
84  8.3000000000000D-01 -4.0323646955798D-01  8.3771241344618D-01
85  8.4000000000000D-01 -3.4113966574894D-01  7.9885684734366D-01
86  8.5000000000000D-01 -2.8295656538753D-01  7.5922271270567D-01
87  8.6000000000000D-01 -2.2910297294976D-01  7.1892317036855D-01
88  8.7000000000000D-01 -1.7990291445897D-01  6.7808480834999D-01
89  8.8000000000000D-01 -1.3558722879694D-01  6.3684729793683D-01
90  8.9000000000000D-01 -9.6293784164916D-02  5.9536283189568D-01
91  9.0000000000000D-01 -6.2069298692472D-02  5.5379534881234D-01
92  9.1000000000000D-01 -3.2872716579064D-02  5.1231955128574D-01
93  9.2000000000000D-01 -8.5800637153672D-03  4.7111972940782D-01
94  9.3000000000000D-01  1.1009320167144D-02  4.3038840460191D-01
95  9.4000000000000D-01  2.6165301636008D-02  3.9032481239947D-01
96  9.5000000000000D-01  3.7218378973878D-02  3.5113324601523D-01
97  9.6000000000000D-01  4.4550187461056D-02  3.1302128551301D-01
98  9.7000000000000D-01  4.8583324630814D-02  2.7619802882026D-01
99  9.8000000000000D-01  4.9771277086010D-02  2.4087226642913D-01
100  9.9000000000000D-01  4.8586054862497D-02  2.0724986577437D-01
101  1.0000000000000D+00  4.5506931922050D-02  1.7553239361995D-01
102  1.0100000000000D+00  4.1009475195053D-02  1.4591500644404D-01
103  1.0200000000000D+00  3.5554694507689D-02  1.1858457268751D-01
104  1.0300000000000D+00  2.9578866220404D-02  9.3717919061983D-02
105  1.0400000000000D+00  2.3488260947834D-02  7.1481273410531D-02
106  1.0500000000000D+00  1.7636982429305D-02  5.2025152215763D-02
107  1.0600000000000D+00  1.2330679375464D-02  3.5486179542659D-02
108  1.0700000000000D+00  7.8171006092498D-03  2.1984981387608D-02
109  1.0800000000000D+00  4.2821579732565D-03  1.1625467293506D-02
110  1.0900000000000D+00  1.8491199908288D-03  4.4947945895780D-03
111  1.1000000000000D+00  6.3150280572636D-04  8.3462741246281D-04
112  1.1100000000000D+00  1.8517436145678D-04 -2.0339649384665D-04
113  1.1200000000000D+00 -1.8846954999895D-06  2.7212677095134D-07
114  1.1300000000000D+00 -1.2600856163297D-05  1.8194081213435D-06
115  1.1400000000000D+00  0.0000000000000D+00  0.0000000000000D+00
116  1.1500000000000D+00  0.0000000000000D+00  0.0000000000000D+00
117  1.1600000000000D+00  0.0000000000000D+00  0.0000000000000D+00
118  1.1700000000000D+00  0.0000000000000D+00  0.0000000000000D+00
119  1.1800000000000D+00  0.0000000000000D+00  0.0000000000000D+00
120  1.1900000000000D+00  0.0000000000000D+00  0.0000000000000D+00
121  1.2000000000000D+00  0.0000000000000D+00  0.0000000000000D+00
122  1.2100000000000D+00  0.0000000000000D+00  0.0000000000000D+00
123  1.2200000000000D+00  0.0000000000000D+00  0.0000000000000D+00
124  1.2300000000000D+00  0.0000000000000D+00  0.0000000000000D+00
125  1.2400000000000D+00  0.0000000000000D+00  0.0000000000000D+00
126  1.2500000000000D+00  0.0000000000000D+00  0.0000000000000D+00
127  1.2600000000000D+00  0.0000000000000D+00  0.0000000000000D+00
128  1.2700000000000D+00  0.0000000000000D+00  0.0000000000000D+00
129  1.2800000000000D+00  0.0000000000000D+00  0.0000000000000D+00
130  1.2900000000000D+00  0.0000000000000D+00  0.0000000000000D+00
131  1.3000000000000D+00  0.0000000000000D+00  0.0000000000000D+00
132  1.3100000000000D+00  0.0000000000000D+00  0.0000000000000D+00
133  1.3200000000000D+00  0.0000000000000D+00  0.0000000000000D+00
134  1.3300000000000D+00  0.0000000000000D+00  0.0000000000000D+00
135  1.3400000000000D+00  0.0000000000000D+00  0.0000000000000D+00
136  1.3500000000000D+00  0.0000000000000D+00  0.0000000000000D+00
137  1.3600000000000D+00  0.0000000000000D+00  0.0000000000000D+00
138  1.3700000000000D+00  0.0000000000000D+00  0.0000000000000D+00
139  1.3800000000000D+00  0.0000000000000D+00  0.0000000000000D+00
140  1.3900000000000D+00  0.0000000000000D+00  0.0000000000000D+00
141  1.4000000000000D+00  0.0000000000000D+00  0.0000000000000D+00
142  1.4100000000000D+00  0.0000000000000D+00  0.0000000000000D+00
143  1.4200000000000D+00  0.0000000000000D+00  0.0000000000000D+00
144  1.4300000000000D+00  0.0000000000000D+00  0.0000000000000D+00
145  1.4400000000000D+00  0.0000000000000D+00  0.0000000000000D+00
146  1.4500000000000D+00  0.0000000000000D+00  0.0000000000000D+00
147  1.4600000000000D+00  0.0000000000000D+00  0.0000000000000D+00
148  1.4700000000000D+00  0.0000000000000D+00  0.0000000000000D+00
149  1.4800000000000D+00  0.0000000000000D+00  0.0000000000000D+00
150  1.4900000000000D+00  0.0000000000000D+00  0.0000000000000D+00
151  1.5000000000000D+00  0.0000000000000D+00  0.0000000000000D+00
152  1.5100000000000D+00  0.0000000000000D+00  0.0000000000000D+00
153  1.5200000000000D+00  0.0000000000000D+00  0.0000000000000D+00
154  1.5300000000000D+00  0.0000000000000D+00  0.0000000000000D+00
155  1.5400000000000D+00  0.0000000000000D+00  0.0000000000000D+00
156  1.5500000000000D+00  0.0000000000000D+00  0.0000000000000D+00
157  1.5600000000000D+00  0.0000000000000D+00  0.0000000000000D+00
158  1.5700000000000D+00  0.0000000000000D+00  0.0000000000000D+00
159  1.5800000000000D+00  0.0000000000000D+00  0.0000000000000D+00
160  1.5900000000000D+00  0.0000000000000D+00  0.0000000000000D+00
161  1.6000000000000D+00  0.0000000000000D+00  0.0000000000000D+00
162  1.6100000000000D+00  0.0000000000000D+00  0.0000000000000D+00
163  1.6200000000000D+00  0.0000000000000D+00  0.0000000000000D+00
164  1.6300000000000D+00  0.0000000000000D+00  0.0000000000000D+00
165  1.6400000000000D+00  0.0000000000000D+00  0.0000000000000D+00
166  1.6500000000000D+00  0.0000000000000D+00  0.0000000000000D+00
167  1.6600000000000D+00  0.0000000000000D+00  0.0000000000000D+00
168  1.6700000000000D+00  0.0000000000000D+00  0.0000000000000D+00
169  1.6800000000000D+00  0.0000000000000D+00  0.0000000000000D+00
170  1.6900000000000D+00  0.0000000000000D+00  0.0000000000000D+00
171  1.7000000000000D+00  0.0000000000000D+00  0.0000000000000D+00
172  1.7100000000000D+00  0.0000000000000D+00  0.0000000000000D+00
173  1.7200000000000D+00  0.0000000000000D+00  0.0000000000000D+00
174  1.7300000000000D+00  0.0000000000000D+00  0.0000000000000D+00
175  1.7400000000000D+00  0.0000000000000D+00  0.0000000000000D+00
176  1.7500000000000D+00  0.0000000000000D+00  0.0000000000000D+00
177  1.7600000000000D+00  0.0000000000000D+00  0.0000000000000D+00
178  1.7700000000000D+00  0.0000000000000D+00  0.0000000000000D+00
179  1.7800000000000D+00  0.0000000000000D+00  0.0000000000000D+00
180  1.7900000000000D+00  0.0000000000000D+00  0.0000000000000D+00
181  1.8000000000000D+00  0.0000000000000D+00  0.0000000000000D+00
182  1.8100000000000D+00  0.0000000000000D+00  0.0000000000000D+00
183  1.8200000000000D+00  0.0000000000000D+00  0.0000000000000D+00
184  1.8300000000000D+00  0.0000000000000D+00  0.0000000000000D+00
185  1.8400000000000D+00  0.0000000000000D+00  0.0000000000000D+00
186  1.8500000000000D+00  0.0000000000000D+00  0.0000000000000D+00
187  1.8600000000000D+00  0.0000000000000D+00  0.0000000000000D+00
188  1.8700000000000D+00  0.0000000000000D+00  0.0000000000000D+00
189  1.8800000000000D+00  0.0000000000000D+00  0.0000000000000D+00
190  1.8900000000000D+00  0.0000000000000D+00  0.0000000000000D+00
191  1.9000000000000D+00  0.0000000000000D+00  0.0000000000000D+00
192  1.9100000000000D+00  0.0000000000000D+00  0.0000000000000D+00
193  1.9200000000000D+00  0.0000000000000D+00  0.0000000000000D+00
194  1.9300000000000D+00  0.0000000000000D+00  0.0000000000000D+00
195  1.9400000000000D+00  0.0000000000000D+00  0.0000000000000D+00
196  1.9500000000000D+00  0.0000000000000D+00  0.0000000000000D+00
197  1.9600000000000D+00  0.0000000000000D+00  0.0000000000000D+00
198  1.9700000000000D+00  0.0000000000000D+00  0.0000000000000D+00
199  1.9800000000000D+00  0.0000000000000D+00  0.0000000000000D+00
200  1.9900000000000D+00  0.0000000000000D+00  0.0000000000000D+00
201  2.0000000000000D+00  0.0000000000000D+00  0.0000000000000D+00
202  2.0100000000000D+00  0.0000000000000D+00  0.0000000000000D+00
203  2.0200000000000D+00  0.0000000000000D+00  0.0000000000000D+00
204  2.0300000000000D+00  0.0000000000000D+00  0.0000000000000D+00
205  2.0400000000000D+00  0.0000000000000D+00  0.0000000000000D+00
206  2.0500000000000D+00  0.0000000000000D+00  0.0000000000000D+00
207  2.0600000000000D+00  0.0000000000000D+00  0.0000000000000D+00
208  2.0700000000000D+00  0.0000000000000D+00  0.0000000000000D+00
209  2.0800000000000D+00  0.0000000000000D+00  0.0000000000000D+00
210  2.0900000000000D+00  0.0000000000000D+00  0.0000000000000D+00
211  2.1000000000000D+00  0.0000000000000D+00  0.0000000000000D+00
212  2.1100000000000D+00  0.0000000000000D+00  0.0000000000000D+00
213  2.1200000000000D+00  0.0000000000000D+00  0.0000000000000D+00
214  2.1300000000000D+00  0.0000000000000D+00  0.0000000000000D+00
215  2.1400000000000D+00  0.0000000000000D+00  0.0000000000000D+00
216  2.1500000000000D+00  0.0000000000000D+00  0.0000000000000D+00
217  2.1600000000000D+00  0.0000000000000D+00  0.0000000000000D+00
218  2.1700000000000D+00  0.0000000000000D+00  0.0000000000000D+00
219  2.1800000000000D+00  0.0000000000000D+00  0.0000000000000D+00
220  2.1900000000000D+00  0.0000000000000D+00  0.0000000000000D+00
221  2.2000000000000D+00  0.0000000000000D+00  0.0000000000000D+00
222  2.2100000000000D+00  0.0000000000000D+00  0.0000000000000D+00
223  2.2200000000000D+00  0.0000000000000D+00  0.0000000000000D+00
224  2.2300000000000D+00  0.0000000000000D+00  0.0000000000000D+00
225  2.2400000000000D+00  0.0000000000000D+00  0.0000000000000D+00
226  2.2500000000000D+00  0.0000000000000D+00  0.0000000000000D+00
227  2.2600000000000D+00  0.0000000000000D+00  0.0000000000000D+00
228  2.2700000000000D+00  0.0000000000000D+00  0.0000000000000D+00
229  2.2800000000000D+00  0.0000000000000D+00  0.0000000000000D+00
230  2.2900000000000D+00  0.0000000000000D+00  0.0000000000000D+00
231  2.3000000000000D+00  0.0000000000000D+00  0.0000000000000D+00
232  2.3100000000000D+00  0.0000000000000D+00  0.0000000000000D+00
233  2.3200000000000D+00  0.0000000000000D+00  0.0000000000000D+00
234  2.3300000000000D+00  0.0000000000000D+00  0.0000000000000D+00
235  2.3400000000000D+00  0.0000000000000D+00  0.0000000000000D+00
236  2.3500000000000D+00  0.0000000000000D+00  0.0000000000000D+00
237  2.3600000000000D+00  0.0000000000000D+00  0.0000000000000D+00
238  2.3700000000000D+00  0.0000000000000D+00  0.0000000000000D+00
239  2.3800000000000D+00  0.0000000000000D+00  0.0000000000000D+00
240  2.3900000000000D+00  0.0000000000000D+00  0.0000000000000D+00
241  2.4000000000000D+00  0.0000000000000D+00  0.0000000000000D+00
242  2.4100000000000D+00  0.0000000000000D+00  0.0000000000000D+00
243  2.4200000000000D+00  0.0000000000000D+00  0.0000000000000D+00
244  2.4300000000000D+00  0.0000000000000D+00  0.0000000000000D+00
245  2.4400000000000D+00  0.0000000000000D+00  0.0000000000000D+00
246  2.4500000000000D+00  0.0000000000000D+00  0.0000000000000D+00
247  2.4600000000000D+00  0.0000000000000D+00  0.0000000000000D+00
248  2.4700000000000D+00  0.0000000000000D+00  0.0000000000000D+00
249  2.4800000000000D+00  0.0000000000000D+00  0.0000000000000D+00
250  2.4900000000000D+00  0.0000000000000D+00  0.0000000000000D+00
251  2.5000000000000D+00  0.0000000000000D+00  0.0000000000000D+00
252  2.5100000000000D+00  0.0000000000000D+00  0.0000000000000D+00
253  2.5200000000000D+00  0.0000000000000D+00  0.0000000000000D+00
254  2.5300000000000D+00  0.0000000000000D+00  0.0000000000000D+00
255  2.5400000000000D+00  0.0000000000000D+00  0.0000000000000D+00
256  2.5500000000000D+00  0.0000000000000D+00  0.0000000000000D+00
257  2.5600000000000D+00  0.0000000000000D+00  0.0000000000000D+00
258  2.5700000000000D+00  0.0000000000000D+00  0.0000000000000D+00
259  2.5800000000000D+00  0.0000000000000D+00  0.0000000000000D+00
260  2.5900000000000D+00  0.0000000000000D+00  0.0000000000000D+00
261  2.6000000000000D+00  0.0000000000000D+00  0.0000000000000D+00
262  2.6100000000000D+00  0.0000000000000D+00  0.0000000000000D+00
263  2.6200000000000D+00  0.0000000000000D+00  0.0000000000000D+00
264  2.6300000000000D+00  0.0000000000000D+00  0.0000000000000D+00
265  2.6400000000000D+00  0.0000000000000D+00  0.0000000000000D+00
266  2.6500000000000D+00  0.0000000000000D+00  0.0000000000000D+00
267  2.6600000000000D+00  0.0000000000000D+00  0.0000000000000D+00
268  2.6700000000000D+00  0.0000000000000D+00  0.0000000000000D+00
269  2.6800000000000D+00  0.0000000000000D+00  0.0000000000000D+00
270  2.6900000000000D+00  0.0000000000000D+00  0.0000000000000D+00
271  2.7000000000000D+00  0.0000000000000D+00  0.0000000000000D+00
272  2.7100000000000D+00  0.0000000000000D+00  0.0000000000000D+00
273  2.7200000000000D+00  0.0000000000000D+00  0.0000000000000D+00
274  2.7300000000000D+00  0.0000000000000D+00  0.0000000000000D+00
275  2.7400000000000D+00  0.0000000000000D+00  0.0000000000000D+00
276  2.7500000000000D+00  0.0000000000000D+00  0.0000000000000D+00
277  2.7600000000000D+00  0.0000000000000D+00  0.0000000000000D+00
278  2.7700000000000D+00  0.0000000000000D+00  0.0000000000000D+00
279  2.7800000000000D+00  0.0000000000000D+00  0.0000000000000D+00
280  2.7900000000000D+00  0.0000000000000D+00  0.0000000000000D+00
281  2.8000000000000D+00  0.0000000000000D+00  0.0000000000000D+00
282  2.8100000000000D+00  0.0000000000000D+00  0.0000000000000D+00
283  2.8200000000000D+00  0.0000000000000D+00  0.0000000000000D+00
284  2.8300000000000D+00  0.0000000000000D+00  0.0000000000000D+00
285  2.8400000000000D+00  0.0000000000000D+00  0.0000000000000D+00
286  2.8500000000000D+00  0.0000000000000D+00  0.0000000000000D+00
287  2.8600000000000D+00  0.0000000000000D+00  0.0000000000000D+00
288  2.8700000000000D+00  0.0000000000000D+00  0.0000000000000D+00
289  2.8800000000000D+00  0.0000000000000D+00  0.0000000000000D+00
290  2.8900000000000D+00  0.0000000000000D+00  0.0000000000000D+00
291  2.9000000000000D+00  0.0000000000000D+00  0.0000000000000D+00
292  2.9100000000000D+00  0.0000000000000D+00  0.0000000000000D+00
293  2.9200000000000D+00  0.0000000000000D+00  0.0000000000000D+00
294  2.9300000000000D+00  0.0000000000000D+00  0.0000000000000D+00
295  2.9400000000000D+00  0.0000000000000D+00  0.0000000000000D+00
296  2.9500000000000D+00  0.0000000000000D+00  0.0000000000000D+00
297  2.9600000000000D+00  0.0000000000000D+00  0.0000000000000D+00
298  2.9700000000000D+00  0.0000000000000D+00  0.0000000000000D+00
299  2.9800000000000D+00  0.0000000000000D+00  0.0000000000000D+00
300  2.9900000000000D+00  0.0000000000000D+00  0.0000000000000D+00
301  3.0000000000000D+00  0.0000000000000D+00  0.0000000000000D+00
302  3.0100000000000D+00  0.0000000000000D+00  0.0000000000000D+00
303  3.0200000000000D+00  0.0000000000000D+00  0.0000000000000D+00
304  3.0300000000000D+00  0.0000000000000D+00  0.0000000000000D+00
305  3.0400000000000D+00  0.0000000000000D+00  0.0000000000000D+00
306  3.0500000000000D+00  0.0000000000000D+00  0.0000000000000D+00
307  3.0600000000000D+00  0.0000000000000D+00  0.0000000000000D+00
308  3.0700000000000D+00  0.0000000000000D+00  0.0000000000000D+00
309  3.0800000000000D+00  0.0000000000000D+00  0.0000000000000D+00
310  3.0900000000000D+00  0.0000000000000D+00  0.0000000000000D+00
311  3.1000000000000D+00  0.0000000000000D+00  0.0000000000000D+00
312  3.1100000000000D+00  0.0000000000000D+00  0.0000000000000D+00
313  3.1200000000000D+00  0.0000000000000D+00  0.0000000000000D+00
314  3.1300000000000D+00  0.0000000000000D+00  0.0000000000000D+00
315  3.1400000000000D+00  0.0000000000000D+00  0.0000000000000D+00
316  3.1500000000000D+00  0.0000000000000D+00  0.0000000000000D+00
317  3.1600000000000D+00  0.0000000000000D+00  0.0000000000000D+00
318  3.1700000000000D+00  0.0000000000000D+00  0.0000000000000D+00
319  3.1800000000000D+00  0.0000000000000D+00  0.0000000000000D+00
320  3.1900000000000D+00  0.0000000000000D+00  0.0000000000000D+00
321  3.2000000000000D+00  0.0000000000000D+00  0.0000000000000D+00
322  3.2100000000000D+00  0.0000000000000D+00  0.0000000000000D+00
323  3.2200000000000D+00  0.0000000000000D+00  0.0000000000000D+00
324  3.2300000000000D+00  0.0000000000000D+00  0.0000000000000D+00
325  3.2400000000000D+00  0.0000000000000D+00  0.0000000000000D+00
326  3.2500000000000D+00  0.0000000000000D+00  0.0000000000000D+00
327  3.2600000000000D+00  0.0000000000000D+00  0.0000000000000D+00
328  3.2700000000000D+00  0.0000000000000D+00  0.0000000000000D+00
329  3.2800000000000D+00  0.0000000000000D+00  0.0000000000000D+00
330  3.2900000000000D+00  0.0000000000000D+00  0.0000000000000D+00
331  3.3000000000000D+00  0.0000000000000D+00  0.0000000000000D+00
332  3.3100000000000D+00  0.0000000000000D+00  0.0000000000000D+00
333  3.3200000000000D+00  0.0000000000000D+00  0.0000000000000D+00
334  3.3300000000000D+00  0.0000000000000D+00  0.0000000000000D+00
335  3.3400000000000D+00  0.0000000000000D+00  0.0000000000000D+00
336  3.3500000000000D+00  0.0000000000000D+00  0.0000000000000D+00
337  3.3600000000000D+00  0.0000000000000D+00  0.0000000000000D+00
338  3.3700000000000D+00  0.0000000000000D+00  0.0000000000000D+00
339  3.3800000000000D+00  0.0000000000000D+00  0.0000000000000D+00
340  3.3900000000000D+00  0.0000000000000D+00  0.0000000000000D+00
341  3.4000000000000D+00  0.0000000000000D+00  0.0000000000000D+00
342  3.4100000000000D+00  0.0000000000000D+00  0.0000000000000D+00
343  3.4200000000000D+00  0.0000000000000D+00  0.0000000000000D+00
344  3.4300000000000D+00  0.0000000000000D+00  0.0000000000000D+00
345  3.4400000000000D+00  0.0000000000000D+00  0.0000000000000D+00
346  3.4500000000000D+00  0.0000000000000D+00  0.0000000000000D+00
347  3.4600000000000D+00  0.0000000000000D+00  0.0000000000000D+00
348  3.4700000000000D+00  0.0000000000000D+00  0.0000000000000D+00
349  3.4800000000000D+00  0.0000000000000D+00  0.0000000000000D+00
350  3.4900000000000D+00  0.0000000000000D+00  0.0000000000000D+00
351  3.5000000000000D+00  0.0000000000000D+00  0.0000000000000D+00
352  3.5100000000000D+00  0.0000000000000D+00  0.0000000000000D+00
353  3.5200000000000D+00  0.0000000000000D+00  0.0000000000000D+00
354  3.5300000000000D+00  0.0000000000000D+00  0.0000000000000D+00
355  3.5400000000000D+00  0.0000000000000D+00  0.0000000000000D+00
356  3.5500000000000D+00  0.0000000000000D+00  0.0000000000000D+00
357  3.5600000000000D+00  0.0000000000000D+00  0.0000000000000D+00
358  3.5700000000000D+00  0.0000000000000D+00  0.0000000000000D+00
359  3.5800000000000D+00  0.0000000000000D+00  0.0000000000000D+00
360  3.5900000000000D+00  0.0000000000000D+00  0.0000000000000D+00
361  3.6000000000000D+00  0.0000000000000D+00  0.0000000000000D+00
362  3.6100000000000D+00  0.0000000000000D+00  0.0000000000000D+00
363  3.6200000000000D+00  0.0000000000000D+00  0.0000000000000D+00
364  3.6300000000000D+00  0.0000000000000D+00  0.0000000000000D+00
365  3.6400000000000D+00  0.0000000000000D+00  0.0000000000000D+00
366  3.6500000000000D+00  0.0000000000000D+00  0.0000000000000D+00
367  3.6600000000000D+00  0.0000000000000D+00  0.0000000000000D+00
368  3.6700000000000D+00  0.0000000000000D+00  0.0000000000000D+00
369  3.6800000000000D+00  0.0000000000000D+00  0.0000000000000D+00
370  3.6900000000000D+00  0.0000000000000D+00  0.0000000000000D+00
371  3.7000000000000D+00  0.0000000000000D+00  0.0000000000000D+00
372  3.7100000000000D+00  0.0000000000000D+00  0.0000000000000D+00
373  3.7200000000000D+00  0.0000000000000D+00  0.0000000000000D+00
374  3.7300000000000D+00  0.0000000000000D+00  0.0000000000000D+00
375  3.7400000000000D+00  0.0000000000000D+00  0.0000000000000D+00
376  3.7500000000000D+00  0.0000000000000D+00  0.0000000000000D+00
377  3.7600000000000D+00  0.0000000000000D+00  0.0000000000000D+00
378  3.7700000000000D+00  0.0000000000000D+00  0.0000000000000D+00
379  3.7800000000000D+00  0.0000000000000D+00  0.0000000000000D+00
380  3.7900000000000D+00  0.0000000000000D+00  0.0000000000000D+00
381  3.8000000000000D+00  0.0000000000000D+00  0.0000000000000D+00
382  3.8100000000000D+00  0.0000000000000D+00  0.0000000000000D+00
383  3.8200000000000D+00  0.0000000000000D+00  0.0000000000000D+00
384  3.8300000000000D+00  0.0000000000000D+00  0.0000000000000D+00
385  3.8400000000000D+00  0.0000000000000D+00  0.0000000000000D+00
386  3.8500000000000D+00  0.0000000000000D+00  0.0000000000000D+00
387  3.8600000000000D+00  0.0000000000000D+00  0.0000000000000D+00
388  3.8700000000000D+00  0.0000000000000D+00  0.0000000000000D+00
389  3.8800000000000D+00  0.0000000000000D+00  0.0000000000000D+00
390  3.8900000000000D+00  0.0000000000000D+00  0.0000000000000D+00
391  3.9000000000000D+00  0.0000000000000D+00  0.0000000000000D+00
392  3.9100000000000D+00  0.0000000000000D+00  0.0000000000000D+00
393  3.9200000000000D+00  0.0000000000000D+00  0.0000000000000D+00
394  3.9300000000000D+00  0.0000000000000D+00  0.0000000000000D+00
395  3.9400000000000D+00  0.0000000000000D+00  0.0000000000000D+00
396  3.9500000000000D+00  0.0000000000000D+00  0.0000000000000D+00
397  3.9600000000000D+00  0.0000000000000D+00  0.0000000000000D+00
398  3.9700000000000D+00  0.0000000000000D+00  0.0000000000000D+00
399  3.9800000000000D+00  0.0000000000000D+00  0.0000000000000D+00
400  3.9900000000000D+00  0.0000000000000D+00  0.0000000000000D+00
401  4.0000000000000D+00  0.0000000000000D+00  0.0000000000000D+00
1                        -6.3884037863520D+00 -2.5092114887323D+00
1  0.0000000000000D+00  0.0000000000000D+00  0.0000000000000D+00
2  1.0000000000000D-02  1.7625321044794D-03  5.3661642578020D-04
3  2.0000000000000D-02  7.0435201964633D-03  2.1427245717606D-03
4  3.0000000000000D-02  1.5823152101311D-02  4.8071043232965D-03
5  4.0000000000000D-02  2.8068449292831D-02  8.5110666311657D-03
6  5.0000000000000D-02  4.3733330001714D-02  1.3228470957295D-02
7  6.0000000000000D-02  6.2758698480306D-02  1.8925751151973D-02
8  7.0000000000000D-02  8.5072561315194D-02  2.5561951186364D-02
9  8.0000000000000D-02  1.1059017190351D-01  3.3088772529453D-02
10  9.0000000000000D-02  1.3921420441040D-01  4.1450635292998D-02
11  1.0000000000000D-01  1.7083495870166D-01  5.0584755566782D-02
12  1.1000000000000D-01  2.0533059788814D-01  6.0421241621569D-02
13  1.2000000000000D-01  2.4256742023082D-01  7.0883211866862D-02
14  1.3000000000000D-01  2.8240016722306D-01  8.1886937604589D-02
15  1.4000000000000D-01  3.2467236971283D-01  9.3342013729993D-02
16  1.5000000000000D-01  3.6921673388274D-01  1.0515156055139D-01
17  1.6000000000000D-01  4.1585556891170D-01  1.1721245992181D-01
18  1.7000000000000D-01  4.6440125793352D-01  1.2941562871784D-01
19  1.8000000000000D-01  5.1465677390231D-01  1.4164633265467D-01
20  1.9000000000000D-01  5.6641624170785D-01  1.5378454317073D-01
21  2.0000000000000D-01  6.1946554749440D-01  1.6570533971038D-01
22  2.1000000000000D-01  6.7358299621979D-01  1.7727935969319D-01
23  2.2000000000000D-01  7.2854001770798D-01  1.8837329769013D-01
24  2.3000000000000D-01  7.8410192158311D-01  1.9885045529778D-01
25  2.4000000000000D-01  8.4002870047641D-01  2.0857134217670D-01
26  2.5000000000000D-01  8.9607588078010D-01  2.1739432842363D-01
27  2.6000000000000D-01  9.5199542063365D-01  2.2517634873650D-01
28  2.7000000000000D-01  1.0075366517502D+00  2.3177365569226D-01
29  2.8000000000000D-01  1.0624472641601D+00  2.3704262164156D-01
30  2.9000000000000D-01  1.1164743310552D+00  2.4084058677453D-01
31  3.0000000000000D-01  1.1693653700233D+00  2.4302674982618D-01
32  3.1000000000000D-01  1.2208694370430D+00  2.4346309779045D-01
33  3.2000000000000D-01  1.2707382487188D+00  2.4201536994617D-01
34  3.3000000000000D-01  1.3187273254873D+00  2.3855404837777D-01
35  3.4000000000000D-01  1.3645971619960D+00  2.3295538159107D-01
36  3.5000000000000D-01  1.4081143932528D+00  2.2510240718621D-01
37  3.6000000000000D-01  1.4490529867136D+00  2.1488600586633D-01
38  3.7000000000000D-01  1.4871954129070D+00  2.0220593487659D-01
39  3.8000000000000D-01  1.5223338247844D+00  1.8697187346016D-01
40  3.9000000000000D-01  1.5542712128389D+00  1.6910444369007D-01
41  4.0000000000000D-01  1.5828225364746D+00  1.4853620653298D-01
42  4.1000000000000D-01  1.6078158271506D+00  1.2521262777712D-01