Mg    ONCVPSP  r_core=  1.16  1.60
12.0000     10.0000      140824    zatom,zion,pspd
8    11     1     4   401     0    pspcod,pspxc,lmax,lloc,mmax,r2well
4.00000000  0.10000000  0.00000000    rchrg fchrg qchrg
2     2     0     0     0    nproj
0                 extension_switch
0                         2.2276822509544D+00 -1.1031457575621D+00
1  0.0000000000000D+00  0.0000000000000D+00  0.0000000000000D+00
2  1.0000000000000D-02  4.8428300230186D-02  3.9571939416887D-02
3  2.0000000000000D-02  9.7168063694899D-02  7.9104378731429D-02
4  3.0000000000000D-02  1.4652172774758D-01  1.1855817532731D-01
5  4.0000000000000D-02  1.9677383200506D-01  1.5789489431485D-01
6  5.0000000000000D-02  2.4818245217850D-01  1.9707714440521D-01
7  6.0000000000000D-02  3.0097108655409D-01  2.3606889254459D-01
8  7.0000000000000D-02  3.5532113513579D-01  2.7483575080034D-01
9  8.0000000000000D-02  4.1136510232789D-01  3.1334522947045D-01
10  9.0000000000000D-02  4.6918064296108D-01  3.5156695097032D-01
11  1.0000000000000D-01  5.2878555830151D-01  3.8947281973684D-01
12  1.1000000000000D-01  5.9013383427998D-01  4.2703714414744D-01
13  1.2000000000000D-01  6.5311279778602D-01  4.6423670730111D-01
14  1.3000000000000D-01  7.1754144979820D-01  5.0105078440205D-01
15  1.4000000000000D-01  7.8317001538887D-01  5.3746110544102D-01
16  1.5000000000000D-01  8.4968073252679D-01  5.7345176283643D-01
17  1.6000000000000D-01  9.1668988124704D-01  6.0900906468818D-01
18  1.7000000000000D-01  9.8375103557895D-01  6.4412133534817D-01
19  1.8000000000000D-01  1.0503595016152D+00  6.7877866588229D-01
20  1.9000000000000D-01  1.1159578879262D+00  7.1297261793211D-01
21  2.0000000000000D-01  1.1799427298735D+00  7.4669588571846D-01
22  2.1000000000000D-01  1.2416720831877D+00  7.7994192112403D-01
23  2.2000000000000D-01  1.3004739734338D+00  8.1270452831737D-01
24  2.3000000000000D-01  1.3556555906022D+00  8.4497743412459D-01
25  2.4000000000000D-01  1.4065130830908D+00  8.7675384209619D-01
26  2.5000000000000D-01  1.4523418058228D+00  9.0802597803272D-01
27  2.6000000000000D-01  1.4924469121834D+00  9.3878463316326D-01
28  2.7000000000000D-01  1.5261540531723D+00  9.6901871691442D-01
29  2.8000000000000D-01  1.5528200809744D+00  9.9871482483433D-01
30  2.9000000000000D-01  1.5718435899001D+00  1.0278568302476D+00
31  3.0000000000000D-01  1.5826751123206D+00  1.0564255086815D+00
32  3.1000000000000D-01  1.5848268190300D+00  1.0843982025103D+00
33  3.2000000000000D-01  1.5778815637586D+00  1.1117485334832D+00
34  3.3000000000000D-01  1.5615010330628D+00  1.1384461730765D+00
35  3.4000000000000D-01  1.5354333366506D+00  1.1644566602157D+00
36  3.5000000000000D-01  1.4995188847345D+00  1.1897413080941D+00
37  3.6000000000000D-01  1.4536959012174D+00  1.2142571541987D+00
38  3.7000000000000D-01  1.3980039000253D+00  1.2379570091280D+00
39  3.8000000000000D-01  1.3325864683986D+00  1.2607895622014D+00
40  3.9000000000000D-01  1.2576923417911D+00  1.2826995746469D+00
41  4.0000000000000D-01  1.1736750683644D+00  1.3036281486871D+00
42  4.1000000000000D-01  1.0809913456652D+00  1.3235130708366D+00
43  4.2000000000000D-01  9.8019788838781D-01  1.3422892304517D+00
44  4.3000000000000D-01  8.7194689377097D-01  1.3598891090679D+00
45  4.4000000000000D-01  7.5698015373898D-01  1.3762433359527D+00
46  4.5000000000000D-01  6.3612188074722D-01  1.3912813043075D+00
47  4.6000000000000D-01  5.1027033272140D-01  1.4049318415021D+00
48  4.7000000000000D-01  3.8038834297082D-01  1.4171239255565D+00
49  4.8000000000000D-01  2.4749289422889D-01  1.4277874377495D+00
50  4.9000000000000D-01  1.1264408143051D-01  1.4368539239165D+00
51  5.0000000000000D-01 -2.3067428569470D-02  1.4442574552232D+00
52  5.1000000000000D-01 -1.5853246303662D-01  1.4499353899203D+00
53  5.2000000000000D-01 -2.9263564454662D-01  1.4538291441413D+00
54  5.3000000000000D-01 -4.2426980199306D-01  1.4558851028661D+00
55  5.4000000000000D-01 -5.5234779129208D-01  1.4560552889040D+00
56  5.5000000000000D-01 -6.7581523754963D-01  1.4542981020254D+00
57  5.6000000000000D-01 -7.9366471207201D-01  1.4505791297236D+00
58  5.7000000000000D-01 -9.0494459354683D-01  1.4448715700223D+00
59  5.8000000000000D-01 -1.0087743566094D+00  1.4371570812638D+00
60  5.9000000000000D-01 -1.1043506426946D+00  1.4274259951951D+00
61  6.0000000000000D-01 -1.1909603369834D+00  1.4156779783746D+00
62  6.1000000000000D-01 -1.2679869024559D+00  1.4019222419696D+00
63  6.2000000000000D-01 -1.3349162118248D+00  1.3861777167169D+00
64  6.3000000000000D-01 -1.3913465363940D+00  1.3684734509086D+00
65  6.4000000000000D-01 -1.4369876155998D+00  1.3488483545426D+00
66  6.5000000000000D-01 -1.4716657226628D+00  1.3273512801951D+00
67  6.6000000000000D-01 -1.4953266644342D+00  1.3040409485740D+00
68  6.7000000000000D-01 -1.5080322370993D+00  1.2789855177960D+00
69  6.8000000000000D-01 -1.5099587097043D+00  1.2522622555837D+00
70  6.9000000000000D-01 -1.5013961779310D+00  1.2239571930598D+00
71  7.0000000000000D-01 -1.4827413755453D+00  1.1941644682208D+00
72  7.1000000000000D-01 -1.4544915808430D+00  1.1629857038179D+00
73  7.2000000000000D-01 -1.4172373995690D+00  1.1305293095818D+00
74  7.3000000000000D-01 -1.3716539523676D+00  1.0969097236324D+00
75  7.4000000000000D-01 -1.3184917233637D+00  1.0622465304178D+00
76  7.5000000000000D-01 -1.2585649660526D+00  1.0266635858074D+00
77  7.6000000000000D-01 -1.1927405433960D+00  9.9028809787336D-01
78  7.7000000000000D-01 -1.1219259357029D+00  9.5324967365767D-01
79  7.8000000000000D-01 -1.0470567893099D+00  9.1567935361957D-01
80  7.9000000000000D-01 -9.6908423069471D-01  8.7770864440123D-01
81  8.0000000000000D-01 -8.8896213391237D-01  8.3946856241424D-01
82  8.1000000000000D-01 -8.0763452896103D-01  8.0108870056276D-01
83  8.2000000000000D-01 -7.2602333546421D-01  7.6269633005011D-01
84  8.3000000000000D-01 -6.4501660005411D-01  7.2441554867447D-01
85  8.4000000000000D-01 -5.6545740725317D-01  6.8636648632180D-01
86  8.5000000000000D-01 -4.8813362269461D-01  6.4866457752251D-01
87  8.6000000000000D-01 -4.1376861441866D-01  6.1141990996989D-01
88  8.7000000000000D-01 -3.4301308293866D-01  5.7473665681389D-01
89  8.8000000000000D-01 -2.7643811397013D-01  5.3871259935660D-01
90  8.9000000000000D-01 -2.1452954930470D-01  5.0343874549353D-01
91  9.0000000000000D-01 -1.5768375139938D-01  4.6899904787468D-01
92  9.1000000000000D-01 -1.0620481592803D-01  4.3547022430641D-01
93  9.2000000000000D-01 -6.0303263890843D-02  4.0292168138504D-01
94  9.3000000000000D-01 -2.0096221012267D-02  3.7141554075307D-01
95  9.4000000000000D-01  1.4390932728409D-02  3.4100676571328D-01
96  9.5000000000000D-01  4.3221486178953D-02  3.1174338424649D-01
97  9.6000000000000D-01  6.6542961239375D-02  2.8366680279168D-01
98  9.7000000000000D-01  8.4580944607101D-02  2.5681224628735D-01
99  9.8000000000000D-01  9.7632934938573D-02  2.3120917951853D-01
100  9.9000000000000D-01  1.0606231032435D-01  2.0688165988014D-01
101  1.0000000000000D+00  1.1028578330054D-01  1.8384926652576D-01
102  1.0100000000000D+00  1.1076521506981D-01  1.6212762005324D-01
103  1.0200000000000D+00  1.0799742912245D-01  1.4172906083781D-01
104  1.0300000000000D+00  1.0250372328667D-01  1.2266334345706D-01
105  1.0400000000000D+00  9.4821434348218D-02  1.0493824257613D-01
106  1.0500000000000D+00  8.5487556072312D-02  8.8560441359865D-02
107  1.0600000000000D+00  7.5031048435252D-02  7.3536195095398D-02
108  1.0700000000000D+00  6.3962076736612D-02  5.9871957827485D-02
109  1.0800000000000D+00  5.2763272176318D-02  4.7574935872528D-02
110  1.0900000000000D+00  4.1884317549029D-02  3.6653446186157D-02
111  1.1000000000000D+00  3.1716805335391D-02  2.7118300223686D-02
112  1.1100000000000D+00  2.2602553003532D-02  1.8982415105165D-02
113  1.1200000000000D+00  1.4823498537455D-02  1.2261340089437D-02
114  1.1300000000000D+00  8.6062240313342D-03  6.9730245390133D-03
115  1.1400000000000D+00  4.0877270350163D-03  3.1395525646769D-03
116  1.1500000000000D+00  1.4078110248746D-03  8.3642046184978D-04
117  1.1600000000000D+00  3.8974536277320D-04 -4.2664052279106D-05
118  1.1700000000000D+00  2.9578153495974D-05 -9.2241378363038D-05
119  1.1800000000000D+00 -2.4099178629340D-05  4.1782648877934D-06
120  1.1900000000000D+00  0.0000000000000D+00  0.0000000000000D+00
121  1.2000000000000D+00  0.0000000000000D+00  0.0000000000000D+00
122  1.2100000000000D+00  0.0000000000000D+00  0.0000000000000D+00
123  1.2200000000000D+00  0.0000000000000D+00  0.0000000000000D+00
124  1.2300000000000D+00  0.0000000000000D+00  0.0000000000000D+00
125  1.2400000000000D+00  0.0000000000000D+00  0.0000000000000D+00
126  1.2500000000000D+00  0.0000000000000D+00  0.0000000000000D+00
127  1.2600000000000D+00  0.0000000000000D+00  0.0000000000000D+00
128  1.2700000000000D+00  0.0000000000000D+00  0.0000000000000D+00
129  1.2800000000000D+00  0.0000000000000D+00  0.0000000000000D+00
130  1.2900000000000D+00  0.0000000000000D+00  0.0000000000000D+00
131  1.3000000000000D+00  0.0000000000000D+00  0.0000000000000D+00
132  1.3100000000000D+00  0.0000000000000D+00  0.0000000000000D+00
133  1.3200000000000D+00  0.0000000000000D+00  0.0000000000000D+00
134  1.3300000000000D+00  0.0000000000000D+00  0.0000000000000D+00
135  1.3400000000000D+00  0.0000000000000D+00  0.0000000000000D+00
136  1.3500000000000D+00  0.0000000000000D+00  0.0000000000000D+00
137  1.3600000000000D+00  0.0000000000000D+00  0.0000000000000D+00
138  1.3700000000000D+00  0.0000000000000D+00  0.0000000000000D+00
139  1.3800000000000D+00  0.0000000000000D+00  0.0000000000000D+00
140  1.3900000000000D+00  0.0000000000000D+00  0.0000000000000D+00
141  1.4000000000000D+00  0.0000000000000D+00  0.0000000000000D+00
142  1.4100000000000D+00  0.0000000000000D+00  0.0000000000000D+00
143  1.4200000000000D+00  0.0000000000000D+00  0.0000000000000D+00
144  1.4300000000000D+00  0.0000000000000D+00  0.0000000000000D+00
145  1.4400000000000D+00  0.0000000000000D+00  0.0000000000000D+00
146  1.4500000000000D+00  0.0000000000000D+00  0.0000000000000D+00
147  1.4600000000000D+00  0.0000000000000D+00  0.0000000000000D+00
148  1.4700000000000D+00  0.0000000000000D+00  0.0000000000000D+00
149  1.4800000000000D+00  0.0000000000000D+00  0.0000000000000D+00
150  1.4900000000000D+00  0.0000000000000D+00  0.0000000000000D+00
151  1.5000000000000D+00  0.0000000000000D+00  0.0000000000000D+00
152  1.5100000000000D+00  0.0000000000000D+00  0.0000000000000D+00
153  1.5200000000000D+00  0.0000000000000D+00  0.0000000000000D+00
154  1.5300000000000D+00  0.0000000000000D+00  0.0000000000000D+00
155  1.5400000000000D+00  0.0000000000000D+00  0.0000000000000D+00
156  1.5500000000000D+00  0.0000000000000D+00  0.0000000000000D+00
157  1.5600000000000D+00  0.0000000000000D+00  0.0000000000000D+00
158  1.5700000000000D+00  0.0000000000000D+00  0.0000000000000D+00
159  1.5800000000000D+00  0.0000000000000D+00  0.0000000000000D+00
160  1.5900000000000D+00  0.0000000000000D+00  0.0000000000000D+00
161  1.6000000000000D+00  0.0000000000000D+00  0.0000000000000D+00
162  1.6100000000000D+00  0.0000000000000D+00  0.0000000000000D+00
163  1.6200000000000D+00  0.0000000000000D+00  0.0000000000000D+00
164  1.6300000000000D+00  0.0000000000000D+00  0.0000000000000D+00
165  1.6400000000000D+00  0.0000000000000D+00  0.0000000000000D+00
166  1.6500000000000D+00  0.0000000000000D+00  0.0000000000000D+00
167  1.6600000000000D+00  0.0000000000000D+00  0.0000000000000D+00
168  1.6700000000000D+00  0.0000000000000D+00  0.0000000000000D+00
169  1.6800000000000D+00  0.0000000000000D+00  0.0000000000000D+00
170  1.6900000000000D+00  0.0000000000000D+00  0.0000000000000D+00
171  1.7000000000000D+00  0.0000000000000D+00  0.0000000000000D+00
172  1.7100000000000D+00  0.0000000000000D+00  0.0000000000000D+00
173  1.7200000000000D+00  0.0000000000000D+00  0.0000000000000D+00
174  1.7300000000000D+00  0.0000000000000D+00  0.0000000000000D+00
175  1.7400000000000D+00  0.0000000000000D+00  0.0000000000000D+00
176  1.7500000000000D+00  0.0000000000000D+00  0.0000000000000D+00
177  1.7600000000000D+00  0.0000000000000D+00  0.0000000000000D+00
178  1.7700000000000D+00  0.0000000000000D+00  0.0000000000000D+00
179  1.7800000000000D+00  0.0000000000000D+00  0.0000000000000D+00
180  1.7900000000000D+00  0.0000000000000D+00  0.0000000000000D+00
181  1.8000000000000D+00  0.0000000000000D+00  0.0000000000000D+00
182  1.8100000000000D+00  0.0000000000000D+00  0.0000000000000D+00
183  1.8200000000000D+00  0.0000000000000D+00  0.0000000000000D+00
184  1.8300000000000D+00  0.0000000000000D+00  0.0000000000000D+00
185  1.8400000000000D+00  0.0000000000000D+00  0.0000000000000D+00
186  1.8500000000000D+00  0.0000000000000D+00  0.0000000000000D+00
187  1.8600000000000D+00  0.0000000000000D+00  0.0000000000000D+00
188  1.8700000000000D+00  0.0000000000000D+00  0.0000000000000D+00
189  1.8800000000000D+00  0.0000000000000D+00  0.0000000000000D+00
190  1.8900000000000D+00  0.0000000000000D+00  0.0000000000000D+00
191  1.9000000000000D+00  0.0000000000000D+00  0.0000000000000D+00
192  1.9100000000000D+00  0.0000000000000D+00  0.0000000000000D+00
193  1.9200000000000D+00  0.0000000000000D+00  0.0000000000000D+00
194  1.9300000000000D+00  0.0000000000000D+00  0.0000000000000D+00
195  1.9400000000000D+00  0.0000000000000D+00  0.0000000000000D+00
196  1.9500000000000D+00  0.0000000000000D+00  0.0000000000000D+00
197  1.9600000000000D+00  0.0000000000000D+00  0.0000000000000D+00
198  1.9700000000000D+00  0.0000000000000D+00  0.0000000000000D+00
199  1.9800000000000D+00  0.0000000000000D+00  0.0000000000000D+00
200  1.9900000000000D+00  0.0000000000000D+00  0.0000000000000D+00
201  2.0000000000000D+00  0.0000000000000D+00  0.0000000000000D+00
202  2.0100000000000D+00  0.0000000000000D+00  0.0000000000000D+00
203  2.0200000000000D+00  0.0000000000000D+00  0.0000000000000D+00
204  2.0300000000000D+00  0.0000000000000D+00  0.0000000000000D+00
205  2.0400000000000D+00  0.0000000000000D+00  0.0000000000000D+00
206  2.0500000000000D+00  0.0000000000000D+00  0.0000000000000D+00
207  2.0600000000000D+00  0.0000000000000D+00  0.0000000000000D+00
208  2.0700000000000D+00  0.0000000000000D+00  0.0000000000000D+00
209  2.0800000000000D+00  0.0000000000000D+00  0.0000000000000D+00
210  2.0900000000000D+00  0.0000000000000D+00  0.0000000000000D+00
211  2.1000000000000D+00  0.0000000000000D+00  0.0000000000000D+00
212  2.1100000000000D+00  0.0000000000000D+00  0.0000000000000D+00
213  2.1200000000000D+00  0.0000000000000D+00  0.0000000000000D+00
214  2.1300000000000D+00  0.0000000000000D+00  0.0000000000000D+00
215  2.1400000000000D+00  0.0000000000000D+00  0.0000000000000D+00
216  2.1500000000000D+00  0.0000000000000D+00  0.0000000000000D+00
217  2.1600000000000D+00  0.0000000000000D+00  0.0000000000000D+00
218  2.1700000000000D+00  0.0000000000000D+00  0.0000000000000D+00
219  2.1800000000000D+00  0.0000000000000D+00  0.0000000000000D+00
220  2.1900000000000D+00  0.0000000000000D+00  0.0000000000000D+00
221  2.2000000000000D+00  0.0000000000000D+00  0.0000000000000D+00
222  2.2100000000000D+00  0.0000000000000D+00  0.0000000000000D+00
223  2.2200000000000D+00  0.0000000000000D+00  0.0000000000000D+00
224  2.2300000000000D+00  0.0000000000000D+00  0.0000000000000D+00
225  2.2400000000000D+00  0.0000000000000D+00  0.0000000000000D+00
226  2.2500000000000D+00  0.0000000000000D+00  0.0000000000000D+00
227  2.2600000000000D+00  0.0000000000000D+00  0.0000000000000D+00
228  2.2700000000000D+00  0.0000000000000D+00  0.0000000000000D+00
229  2.2800000000000D+00  0.0000000000000D+00  0.0000000000000D+00
230  2.2900000000000D+00  0.0000000000000D+00  0.0000000000000D+00
231  2.3000000000000D+00  0.0000000000000D+00  0.0000000000000D+00
232  2.3100000000000D+00  0.0000000000000D+00  0.0000000000000D+00
233  2.3200000000000D+00  0.0000000000000D+00  0.0000000000000D+00
234  2.3300000000000D+00  0.0000000000000D+00  0.0000000000000D+00
235  2.3400000000000D+00  0.0000000000000D+00  0.0000000000000D+00
236  2.3500000000000D+00  0.0000000000000D+00  0.0000000000000D+00
237  2.3600000000000D+00  0.0000000000000D+00  0.0000000000000D+00
238  2.3700000000000D+00  0.0000000000000D+00  0.0000000000000D+00
239  2.3800000000000D+00  0.0000000000000D+00  0.0000000000000D+00
240  2.3900000000000D+00  0.0000000000000D+00  0.0000000000000D+00
241  2.4000000000000D+00  0.0000000000000D+00  0.0000000000000D+00
242  2.4100000000000D+00  0.0000000000000D+00  0.0000000000000D+00
243  2.4200000000000D+00  0.0000000000000D+00  0.0000000000000D+00
244  2.4300000000000D+00  0.0000000000000D+00  0.0000000000000D+00
245  2.4400000000000D+00  0.0000000000000D+00  0.0000000000000D+00
246  2.4500000000000D+00  0.0000000000000D+00  0.0000000000000D+00
247  2.4600000000000D+00  0.0000000000000D+00  0.0000000000000D+00
248  2.4700000000000D+00  0.0000000000000D+00  0.0000000000000D+00
249  2.4800000000000D+00  0.0000000000000D+00  0.0000000000000D+00
250  2.4900000000000D+00  0.0000000000000D+00  0.0000000000000D+00
251  2.5000000000000D+00  0.0000000000000D+00  0.0000000000000D+00
252  2.5100000000000D+00  0.0000000000000D+00  0.0000000000000D+00
253  2.5200000000000D+00  0.0000000000000D+00  0.0000000000000D+00
254  2.5300000000000D+00  0.0000000000000D+00  0.0000000000000D+00
255  2.5400000000000D+00  0.0000000000000D+00  0.0000000000000D+00
256  2.5500000000000D+00  0.0000000000000D+00  0.0000000000000D+00
257  2.5600000000000D+00  0.0000000000000D+00  0.0000000000000D+00
258  2.5700000000000D+00  0.0000000000000D+00  0.0000000000000D+00
259  2.5800000000000D+00  0.0000000000000D+00  0.0000000000000D+00
260  2.5900000000000D+00  0.0000000000000D+00  0.0000000000000D+00
261  2.6000000000000D+00  0.0000000000000D+00  0.0000000000000D+00
262  2.6100000000000D+00  0.0000000000000D+00  0.0000000000000D+00
263  2.6200000000000D+00  0.0000000000000D+00  0.0000000000000D+00
264  2.6300000000000D+00  0.0000000000000D+00  0.0000000000000D+00
265  2.6400000000000D+00  0.0000000000000D+00  0.0000000000000D+00
266  2.6500000000000D+00  0.0000000000000D+00  0.0000000000000D+00
267  2.6600000000000D+00  0.0000000000000D+00  0.0000000000000D+00
268  2.6700000000000D+00  0.0000000000000D+00  0.0000000000000D+00
269  2.6800000000000D+00  0.0000000000000D+00  0.0000000000000D+00
270  2.6900000000000D+00  0.0000000000000D+00  0.0000000000000D+00
271  2.7000000000000D+00  0.0000000000000D+00  0.0000000000000D+00
272  2.7100000000000D+00  0.0000000000000D+00  0.0000000000000D+00
273  2.7200000000000D+00  0.0000000000000D+00  0.0000000000000D+00
274  2.7300000000000D+00  0.0000000000000D+00  0.0000000000000D+00
275  2.7400000000000D+00  0.0000000000000D+00  0.0000000000000D+00
276  2.7500000000000D+00  0.0000000000000D+00  0.0000000000000D+00
277  2.7600000000000D+00  0.0000000000000D+00  0.0000000000000D+00
278  2.7700000000000D+00  0.0000000000000D+00  0.0000000000000D+00
279  2.7800000000000D+00  0.0000000000000D+00  0.0000000000000D+00
280  2.7900000000000D+00  0.0000000000000D+00  0.0000000000000D+00
281  2.8000000000000D+00  0.0000000000000D+00  0.0000000000000D+00
282  2.8100000000000D+00  0.0000000000000D+00  0.0000000000000D+00
283  2.8200000000000D+00  0.0000000000000D+00  0.0000000000000D+00
284  2.8300000000000D+00  0.0000000000000D+00  0.0000000000000D+00
285  2.8400000000000D+00  0.0000000000000D+00  0.0000000000000D+00
286  2.8500000000000D+00  0.0000000000000D+00  0.0000000000000D+00
287  2.8600000000000D+00  0.0000000000000D+00  0.0000000000000D+00
288  2.8700000000000D+00  0.0000000000000D+00  0.0000000000000D+00
289  2.8800000000000D+00  0.0000000000000D+00  0.0000000000000D+00
290  2.8900000000000D+00  0.0000000000000D+00  0.0000000000000D+00
291  2.9000000000000D+00  0.0000000000000D+00  0.0000000000000D+00
292  2.9100000000000D+00  0.0000000000000D+00  0.0000000000000D+00
293  2.9200000000000D+00  0.0000000000000D+00  0.0000000000000D+00
294  2.9300000000000D+00  0.0000000000000D+00  0.0000000000000D+00
295  2.9400000000000D+00  0.0000000000000D+00  0.0000000000000D+00
296  2.9500000000000D+00  0.0000000000000D+00  0.0000000000000D+00
297  2.9600000000000D+00  0.0000000000000D+00  0.0000000000000D+00
298  2.9700000000000D+00  0.0000000000000D+00  0.0000000000000D+00
299  2.9800000000000D+00  0.0000000000000D+00  0.0000000000000D+00
300  2.9900000000000D+00  0.0000000000000D+00  0.0000000000000D+00
301  3.0000000000000D+00  0.0000000000000D+00  0.0000000000000D+00
302  3.0100000000000D+00  0.0000000000000D+00  0.0000000000000D+00
303  3.0200000000000D+00  0.0000000000000D+00  0.0000000000000D+00
304  3.0300000000000D+00  0.0000000000000D+00  0.0000000000000D+00
305  3.0400000000000D+00  0.0000000000000D+00  0.0000000000000D+00
306  3.0500000000000D+00  0.0000000000000D+00  0.0000000000000D+00
307  3.0600000000000D+00  0.0000000000000D+00  0.0000000000000D+00
308  3.0700000000000D+00  0.0000000000000D+00  0.0000000000000D+00
309  3.0800000000000D+00  0.0000000000000D+00  0.0000000000000D+00
310  3.0900000000000D+00  0.0000000000000D+00  0.0000000000000D+00
311  3.1000000000000D+00  0.0000000000000D+00  0.0000000000000D+00
312  3.1100000000000D+00  0.0000000000000D+00  0.0000000000000D+00
313  3.1200000000000D+00  0.0000000000000D+00  0.0000000000000D+00
314  3.1300000000000D+00  0.0000000000000D+00  0.0000000000000D+00
315  3.1400000000000D+00  0.0000000000000D+00  0.0000000000000D+00
316  3.1500000000000D+00  0.0000000000000D+00  0.0000000000000D+00
317  3.1600000000000D+00  0.0000000000000D+00  0.0000000000000D+00
318  3.1700000000000D+00  0.0000000000000D+00  0.0000000000000D+00
319  3.1800000000000D+00  0.0000000000000D+00  0.0000000000000D+00
320  3.1900000000000D+00  0.0000000000000D+00  0.0000000000000D+00
321  3.2000000000000D+00  0.0000000000000D+00  0.0000000000000D+00
322  3.2100000000000D+00  0.0000000000000D+00  0.0000000000000D+00
323  3.2200000000000D+00  0.0000000000000D+00  0.0000000000000D+00
324  3.2300000000000D+00  0.0000000000000D+00  0.0000000000000D+00
325  3.2400000000000D+00  0.0000000000000D+00  0.0000000000000D+00
326  3.2500000000000D+00  0.0000000000000D+00  0.0000000000000D+00
327  3.2600000000000D+00  0.0000000000000D+00  0.0000000000000D+00
328  3.2700000000000D+00  0.0000000000000D+00  0.0000000000000D+00
329  3.2800000000000D+00  0.0000000000000D+00  0.0000000000000D+00
330  3.2900000000000D+00  0.0000000000000D+00  0.0000000000000D+00
331  3.3000000000000D+00  0.0000000000000D+00  0.0000000000000D+00
332  3.3100000000000D+00  0.0000000000000D+00  0.0000000000000D+00
333  3.3200000000000D+00  0.0000000000000D+00  0.0000000000000D+00
334  3.3300000000000D+00  0.0000000000000D+00  0.0000000000000D+00
335  3.3400000000000D+00  0.0000000000000D+00  0.0000000000000D+00
336  3.3500000000000D+00  0.0000000000000D+00  0.0000000000000D+00
337  3.3600000000000D+00  0.0000000000000D+00  0.0000000000000D+00
338  3.3700000000000D+00  0.0000000000000D+00  0.0000000000000D+00
339  3.3800000000000D+00  0.0000000000000D+00  0.0000000000000D+00
340  3.3900000000000D+00  0.0000000000000D+00  0.0000000000000D+00
341  3.4000000000000D+00  0.0000000000000D+00  0.0000000000000D+00
342  3.4100000000000D+00  0.0000000000000D+00  0.0000000000000D+00
343  3.4200000000000D+00  0.0000000000000D+00  0.0000000000000D+00
344  3.4300000000000D+00  0.0000000000000D+00  0.0000000000000D+00
345  3.4400000000000D+00  0.0000000000000D+00  0.0000000000000D+00
346  3.4500000000000D+00  0.0000000000000D+00  0.0000000000000D+00
347  3.4600000000000D+00  0.0000000000000D+00  0.0000000000000D+00
348  3.4700000000000D+00  0.0000000000000D+00  0.0000000000000D+00
349  3.4800000000000D+00  0.0000000000000D+00  0.0000000000000D+00
350  3.4900000000000D+00  0.0000000000000D+00  0.0000000000000D+00
351  3.5000000000000D+00  0.0000000000000D+00  0.0000000000000D+00
352  3.5100000000000D+00  0.0000000000000D+00  0.0000000000000D+00
353  3.5200000000000D+00  0.0000000000000D+00  0.0000000000000D+00
354  3.5300000000000D+00  0.0000000000000D+00  0.0000000000000D+00
355  3.5400000000000D+00  0.0000000000000D+00  0.0000000000000D+00
356  3.5500000000000D+00  0.0000000000000D+00  0.0000000000000D+00
357  3.5600000000000D+00  0.0000000000000D+00  0.0000000000000D+00
358  3.5700000000000D+00  0.0000000000000D+00  0.0000000000000D+00
359  3.5800000000000D+00  0.0000000000000D+00  0.0000000000000D+00
360  3.5900000000000D+00  0.0000000000000D+00  0.0000000000000D+00
361  3.6000000000000D+00  0.0000000000000D+00  0.0000000000000D+00
362  3.6100000000000D+00  0.0000000000000D+00  0.0000000000000D+00
363  3.6200000000000D+00  0.0000000000000D+00  0.0000000000000D+00
364  3.6300000000000D+00  0.0000000000000D+00  0.0000000000000D+00
365  3.6400000000000D+00  0.0000000000000D+00  0.0000000000000D+00
366  3.6500000000000D+00  0.0000000000000D+00  0.0000000000000D+00
367  3.6600000000000D+00  0.0000000000000D+00  0.0000000000000D+00
368  3.6700000000000D+00  0.0000000000000D+00  0.0000000000000D+00
369  3.6800000000000D+00  0.0000000000000D+00  0.0000000000000D+00
370  3.6900000000000D+00  0.0000000000000D+00  0.0000000000000D+00
371  3.7000000000000D+00  0.0000000000000D+00  0.0000000000000D+00
372  3.7100000000000D+00  0.0000000000000D+00  0.0000000000000D+00
373  3.7200000000000D+00  0.0000000000000D+00  0.0000000000000D+00
374  3.7300000000000D+00  0.0000000000000D+00  0.0000000000000D+00
375  3.7400000000000D+00  0.0000000000000D+00  0.0000000000000D+00
376  3.7500000000000D+00  0.0000000000000D+00  0.0000000000000D+00
377  3.7600000000000D+00  0.0000000000000D+00  0.0000000000000D+00
378  3.7700000000000D+00  0.0000000000000D+00  0.0000000000000D+00
379  3.7800000000000D+00  0.0000000000000D+00  0.0000000000000D+00
380  3.7900000000000D+00  0.0000000000000D+00  0.0000000000000D+00
381  3.8000000000000D+00  0.0000000000000D+00  0.0000000000000D+00
382  3.8100000000000D+00  0.0000000000000D+00  0.0000000000000D+00
383  3.8200000000000D+00  0.0000000000000D+00  0.0000000000000D+00
384  3.8300000000000D+00  0.0000000000000D+00  0.0000000000000D+00
385  3.8400000000000D+00  0.0000000000000D+00  0.0000000000000D+00
386  3.8500000000000D+00  0.0000000000000D+00  0.0000000000000D+00
387  3.8600000000000D+00  0.0000000000000D+00  0.0000000000000D+00
388  3.8700000000000D+00  0.0000000000000D+00  0.0000000000000D+00
389  3.8800000000000D+00  0.0000000000000D+00  0.0000000000000D+00
390  3.8900000000000D+00  0.0000000000000D+00  0.0000000000000D+00
391  3.9000000000000D+00  0.0000000000000D+00  0.0000000000000D+00
392  3.9100000000000D+00  0.0000000000000D+00  0.0000000000000D+00
393  3.9200000000000D+00  0.0000000000000D+00  0.0000000000000D+00
394  3.9300000000000D+00  0.0000000000000D+00  0.0000000000000D+00
395  3.9400000000000D+00  0.0000000000000D+00  0.0000000000000D+00
396  3.9500000000000D+00  0.0000000000000D+00  0.0000000000000D+00
397  3.9600000000000D+00  0.0000000000000D+00  0.0000000000000D+00
398  3.9700000000000D+00  0.0000000000000D+00  0.0000000000000D+00
399  3.9800000000000D+00  0.0000000000000D+00  0.0000000000000D+00
400  3.9900000000000D+00  0.0000000000000D+00  0.0000000000000D+00
401  4.0000000000000D+00  0.0000000000000D+00  0.0000000000000D+00
1                        -6.4550711044845D+00 -2.4812365358735D+00
1  0.0000000000000D+00  0.0000000000000D+00  0.0000000000000D+00
2  1.0000000000000D-02  1.8053789822655D-03  6.8613662481517D-04
3  2.0000000000000D-02  7.2141425702418D-03  2.7392733755768D-03
4  3.0000000000000D-02  1.6204194224553D-02  6.1436114969249D-03
5  4.0000000000000D-02  2.8738784833810D-02  1.0872888463373D-02
6  5.0000000000000D-02  4.4766630385322D-02  1.6890481128533D-02
7  6.0000000000000D-02  6.4222076678930D-02  2.4149550227082D-02
8  7.0000000000000D-02  8.7025311049727D-02  3.2593226310554D-02
9  8.0000000000000D-02  1.1308262104311D-01  4.2154837204597D-02
10  9.0000000000000D-02  1.4228669995311D-01  5.2758177068947D-02
11  1.0000000000000D-01  1.7451699909379D-01  6.4317817122266D-02
12  1.1000000000000D-01  2.0964012661517D-01  7.6739458054481D-02
13  1.2000000000000D-01  2.4751029260852D-01  8.9920324096070D-02
14  1.3000000000000D-01  2.8796980015450D-01  1.0374959863181D-01
15  1.4000000000000D-01  3.3084958188576D-01  1.1810890116664D-01
16  1.5000000000000D-01  3.7596978147217D-01  1.3287280529004D-01
17  1.6000000000000D-01  4.2314037938147D-01  1.4790939721499D-01
18  1.7000000000000D-01  4.7216186198072D-01  1.6308087417915D-01
19  1.8000000000000D-01  5.2282593305067D-01  1.7824418196720D-01
20  1.9000000000000D-01  5.7491626649486D-01  1.9325169050810D-01
21  2.0000000000000D-01  6.2820929867480D-01  2.0795190613249D-01
22  2.1000000000000D-01  6.8247505897955D-01  2.2219021918221D-01
23  2.2000000000000D-01  7.3747803651533D-01  2.3580968494404D-01
24  2.3000000000000D-01  7.9297808106829D-01  2.4865183605814D-01
25  2.4000000000000D-01  8.4873133565996D-01  2.6055752371837D-01
26  2.5000000000000D-01  9.0449119810477D-01  2.7136778499057D-01
27  2.6000000000000D-01  9.6000930936220D-01  2.8092473384838D-01
28  2.7000000000000D-01  1.0150365640991D+00  2.8907247126930D-01
29  2.8000000000000D-01  1.0693241411082D+00  2.9565801170132D-01
30  2.9000000000000D-01  1.1226245497320D+00  3.0053222175297D-01
31  3.0000000000000D-01  1.1746926879523D+00  3.0355076643711D-01
32  3.1000000000000D-01  1.2252869080336D+00  3.0457505842982D-01
33  3.2000000000000D-01  1.2741700851065D+00  3.0347320527600D-01
34  3.3000000000000D-01  1.3211106827245D+00  3.0012094830306D-01
35  3.4000000000000D-01  1.3658838167987D+00  2.9440259301922D-01
36  3.5000000000000D-01  1.4082722987560D+00  2.8621191362924D-01
37  3.6000000000000D-01  1.4480676721438D+00  2.7545304174180D-01
38  3.7000000000000D-01  1.4850712166205D+00  2.6204131679032D-01
39  3.8000000000000D-01  1.5190949316607D+00  2.4590410569551D-01
40  3.9000000000000D-01  1.5499624823709D+00  2.2698157638575D-01
41  4.0000000000000D-01  1.5775101063205D+00  2.0522742274406D-01
42  4.1000000000000D-01  1.6015874763455D+00  1.8060953459063D-01