Mg    ONCVPSP  r_core=  1.11  1.46
12.0000     10.0000      140817    zatom,zion,pspd
8    11     1     4   401     0    pspcod,pspxc,lmax,lloc,mmax,r2well
4.00000000  0.15000000  0.00000000    rchrg fchrg qchrg
2     2     0     0     0    nproj
0                 extension_switch
0                         9.0478734992405D+00  1.5145530968670D+00
1  0.0000000000000D+00 -0.0000000000000D+00 -0.0000000000000D+00
2  1.0000000000000D-02 -1.1637637787023D-01 -1.0767872900340D-02
3  2.0000000000000D-02 -2.3237398385798D-01 -2.1292720543845D-02
4  3.0000000000000D-02 -3.4761369073589D-01 -3.1339073506585D-02
5  4.0000000000000D-02 -4.6171569838560D-01 -4.0686432665392D-02
6  5.0000000000000D-02 -5.7429929120151D-01 -4.9136402924422D-02
7  6.0000000000000D-02 -6.8498270630659D-01 -5.6519410789591D-02
8  7.0000000000000D-02 -7.9338314652123D-01 -6.2700876280864D-02
9  8.0000000000000D-02 -8.9911696949108D-01 -6.7586717490211D-02
10  9.0000000000000D-02 -1.0018000812476D+00 -7.1128075671929D-02
11  1.0000000000000D-01 -1.1010485587915D+00 -7.3325160264279D-02
12  1.1000000000000D-01 -1.1964795220517D+00 -7.4230126055697D-02
13  1.2000000000000D-01 -1.2877122708836D+00 -7.3948909475422D-02
14  1.3000000000000D-01 -1.3743696975444D+00 -7.2641966741535D-02
15  1.4000000000000D-01 -1.4560799798371D+00 -7.0523873984921D-02
16  1.5000000000000D-01 -1.5324785536108D+00 -6.7861767232553D-02
17  1.6000000000000D-01 -1.6032103584582D+00 -6.4972619359198D-02
18  1.7000000000000D-01 -1.6679323420106D+00 -6.2219371443695D-02
19  1.8000000000000D-01 -1.7263162049121D+00 -6.0005954218047D-02
20  1.9000000000000D-01 -1.7780513607275D+00 -5.8771254548022D-02
21  2.0000000000000D-01 -1.8228480757797D+00 -5.8982108495884D-02
22  2.1000000000000D-01 -1.8604407556672D+00 -6.1125409001391D-02
23  2.2000000000000D-01 -1.8905913302530D+00 -6.5699449653310D-02
24  2.3000000000000D-01 -1.9130926938995D+00 -7.3204624282500D-02
25  2.4000000000000D-01 -1.9277721414503D+00 -8.4133641886594D-02
26  2.5000000000000D-01 -1.9344947437721D+00 -9.8961417424966D-02
27  2.6000000000000D-01 -1.9331666175792D+00 -1.1813476792255D-01
28  2.7000000000000D-01 -1.9237379975058D+00 -1.4206217324312D-01
29  2.8000000000000D-01 -1.9062060705517D+00 -1.7110372736652D-01
30  2.9000000000000D-01 -1.8806175060884D+00 -2.0556147457419D-01
31  3.0000000000000D-01 -1.8470706115379D+00 -2.4567034047429D-01
32  3.1000000000000D-01 -1.8057170558638D+00 -2.9158983661060D-01
33  3.2000000000000D-01 -1.7567631013044D+00 -3.4339672601076D-01
34  3.3000000000000D-01 -1.7004702747019D+00 -4.0107889790007D-01
35  3.4000000000000D-01 -1.6371555219464D+00 -4.6453020674273D-01
36  3.5000000000000D-01 -1.5671906045673D+00 -5.3354729913035D-01
37  3.6000000000000D-01 -1.4910009718865D+00 -6.0782732098841D-01
38  3.7000000000000D-01 -1.4090638336497D+00 -6.8696789435944D-01
39  3.8000000000000D-01 -1.3219056086323D+00 -7.7046831752150D-01
40  3.9000000000000D-01 -1.2300986262202D+00 -8.5773278076134D-01
41  4.0000000000000D-01 -1.1342571544370D+00 -9.4807532352007D-01
42  4.1000000000000D-01 -1.0350327508103D+00 -1.0407264807664D+00
43  4.2000000000000D-01 -9.3310896874871D-01 -1.1348416605856D+00
44  4.3000000000000D-01 -8.2919546630821D-01 -1.2295111408621D+00
45  4.4000000000000D-01 -7.2402157360807D-01 -1.3237715671773D+00
46  4.5000000000000D-01 -6.1832938616484D-01 -1.4166188039394D+00
47  4.6000000000000D-01 -5.1286646311950D-01 -1.5070219594960D+00
48  4.7000000000000D-01 -4.0837822226721D-01 -1.5939383721821D+00
49  4.8000000000000D-01 -3.0560014978797D-01 -1.6763292877202D+00
50  4.9000000000000D-01 -2.0525013434527D-01 -1.7531756044264D+00
51  5.0000000000000D-01 -1.0801987856993D-01 -1.8234954190864D+00
52  5.1000000000000D-01 -1.4567727845927D-02 -1.8863593189033D+00
53  5.2000000000000D-01  7.4488469123712D-02 -1.9409054953972D+00
54  5.3000000000000D-01  1.5857974642060D-01 -1.9863571658279D+00
55  5.4000000000000D-01  2.3719152526405D-01 -2.0220346244686D+00
56  5.5000000000000D-01  3.0986971020240D-01 -2.0473680957786D+00
57  5.6000000000000D-01  3.7622711131035D-01 -2.0619110459295D+00
58  5.7000000000000D-01  4.3594582159498D-01 -2.0653454342177D+00
59  5.8000000000000D-01  4.8878330986571D-01 -2.0574937024609D+00
60  5.9000000000000D-01  5.3457225438863D-01 -2.0383183347321D+00
61  6.0000000000000D-01  5.7322403337990D-01 -2.0079279045570D+00
62  6.1000000000000D-01  6.0472781661214D-01 -1.9665741647517D+00
63  6.2000000000000D-01  6.2914907991592D-01 -1.9146475163138D+00
64  6.3000000000000D-01  6.4662913061101D-01 -1.8526734726839D+00
65  6.4000000000000D-01  6.5737939631073D-01 -1.7812989930157D+00
66  6.5000000000000D-01  6.6167761761030D-01 -1.7012814290272D+00
67  6.6000000000000D-01  6.5986194608351D-01 -1.6134724688584D+00
68  6.7000000000000D-01  6.5232274486838D-01 -1.5187979341919D+00
69  6.8000000000000D-01  6.3949458040822D-01 -1.4182371394866D+00
70  6.9000000000000D-01  6.2184622967503D-01 -1.3127964489460D+00
71  7.0000000000000D-01  5.9986973044033D-01 -1.2034821433939D+00
72  7.1000000000000D-01  5.7406897977461D-01 -1.0912721687501D+00
73  7.2000000000000D-01  5.4495463298203D-01 -9.7712385973330D-01
74  7.3000000000000D-01  5.1304741306703D-01 -8.6201822754868D-01
75  7.4000000000000D-01  4.7887399991825D-01 -7.4696124631676D-01
76  7.5000000000000D-01  4.4296150147603D-01 -6.3296742244034D-01
77  7.6000000000000D-01  4.0583113340842D-01 -5.2104346247828D-01
78  7.7000000000000D-01  3.6799206070868D-01 -4.1217213814216D-01
79  7.8000000000000D-01  3.2993549578520D-01 -3.0729669020938D-01
80  7.9000000000000D-01  2.9212909083731D-01 -2.0730597531389D-01
81  8.0000000000000D-01  2.5501171149365D-01 -1.1302059625356D-01
82  8.1000000000000D-01  2.1898867222614D-01 -2.5180238760655D-02
83  8.2000000000000D-01  1.8442750628823D-01  5.5567583551359D-02
84  8.3000000000000D-01  1.5165433404621D-01  1.2867719862947D-01
85  8.4000000000000D-01  1.2095088373997D-01  1.9371270927945D-01
86  8.5000000000000D-01  9.2552208097093D-02  2.5035406885638D-01
87  8.6000000000000D-01  6.6645129917868D-02  2.9840120510804D-01
88  8.7000000000000D-01  4.3367433213951D-02  3.3777614875934D-01
89  8.8000000000000D-01  2.2807819816397D-02  3.6852309720993D-01
90  8.9000000000000D-01  5.0066109659901D-03  3.9080648593439D-01
91  9.0000000000000D-01 -1.0042804183301D-02  4.0490704058300D-01
92  9.1000000000000D-01 -2.2391811630674D-02  4.1121592421243D-01
93  9.2000000000000D-01 -3.2133741937535D-02  4.1022706731432D-01
94  9.3000000000000D-01 -3.9400417670983D-02  4.0252781993673D-01
95  9.4000000000000D-01 -4.4358141398662D-02  3.8878809460509D-01
96  9.5000000000000D-01 -4.7203196175305D-02  3.6974819360711D-01
97  9.6000000000000D-01 -4.8156940157647D-02  3.4620554131541D-01
98  9.7000000000000D-01 -4.7460627691951D-02  3.1900085179493D-01
99  9.8000000000000D-01 -4.5370295085362D-02  2.8900424597347D-01
100  9.9000000000000D-01 -4.2150424149690D-02  2.5709718088706D-01
101  1.0000000000000D+00 -3.8068431320194D-02  2.2415879925658D-01
102  1.0100000000000D+00 -3.3389116057554D-02  1.9105048407074D-01
103  1.0200000000000D+00 -2.8369214445356D-02  1.5860114964582D-01
104  1.0300000000000D+00 -2.3252277433058D-02  1.2759344142073D-01
105  1.0400000000000D+00 -1.8266089094533D-02  9.8757543726742D-02
106  1.0500000000000D+00 -1.3611135164280D-02  7.2737436361016D-02
107  1.0600000000000D+00 -9.4626375133915D-03  5.0099046112855D-02
108  1.0700000000000D+00 -5.9655211908015D-03  3.1315888336333D-02
109  1.0800000000000D+00 -3.2322158983637D-03  1.6763340398163D-02
110  1.0900000000000D+00 -1.3421069879470D-03  6.7176120950787D-03
111  1.1000000000000D+00 -3.8331553280221D-04  1.5876512801432D-03
112  1.1100000000000D+00 -6.3804898367081D-05  1.1572855829415D-05
113  1.1200000000000D+00  8.4377071303621D-07 -1.9372472920911D-06
114  1.1300000000000D+00  5.6413534121725D-06 -1.2952211368103D-05
115  1.1400000000000D+00  0.0000000000000D+00  0.0000000000000D+00
116  1.1500000000000D+00  0.0000000000000D+00  0.0000000000000D+00
117  1.1600000000000D+00  0.0000000000000D+00  0.0000000000000D+00
118  1.1700000000000D+00  0.0000000000000D+00  0.0000000000000D+00
119  1.1800000000000D+00  0.0000000000000D+00  0.0000000000000D+00
120  1.1900000000000D+00  0.0000000000000D+00  0.0000000000000D+00
121  1.2000000000000D+00  0.0000000000000D+00  0.0000000000000D+00
122  1.2100000000000D+00  0.0000000000000D+00  0.0000000000000D+00
123  1.2200000000000D+00  0.0000000000000D+00  0.0000000000000D+00
124  1.2300000000000D+00  0.0000000000000D+00  0.0000000000000D+00
125  1.2400000000000D+00  0.0000000000000D+00  0.0000000000000D+00
126  1.2500000000000D+00  0.0000000000000D+00  0.0000000000000D+00
127  1.2600000000000D+00  0.0000000000000D+00  0.0000000000000D+00
128  1.2700000000000D+00  0.0000000000000D+00  0.0000000000000D+00
129  1.2800000000000D+00  0.0000000000000D+00  0.0000000000000D+00
130  1.2900000000000D+00  0.0000000000000D+00  0.0000000000000D+00
131  1.3000000000000D+00  0.0000000000000D+00  0.0000000000000D+00
132  1.3100000000000D+00  0.0000000000000D+00  0.0000000000000D+00
133  1.3200000000000D+00  0.0000000000000D+00  0.0000000000000D+00
134  1.3300000000000D+00  0.0000000000000D+00  0.0000000000000D+00
135  1.3400000000000D+00  0.0000000000000D+00  0.0000000000000D+00
136  1.3500000000000D+00  0.0000000000000D+00  0.0000000000000D+00
137  1.3600000000000D+00  0.0000000000000D+00  0.0000000000000D+00
138  1.3700000000000D+00  0.0000000000000D+00  0.0000000000000D+00
139  1.3800000000000D+00  0.0000000000000D+00  0.0000000000000D+00
140  1.3900000000000D+00  0.0000000000000D+00  0.0000000000000D+00
141  1.4000000000000D+00  0.0000000000000D+00  0.0000000000000D+00
142  1.4100000000000D+00  0.0000000000000D+00  0.0000000000000D+00
143  1.4200000000000D+00  0.0000000000000D+00  0.0000000000000D+00
144  1.4300000000000D+00  0.0000000000000D+00  0.0000000000000D+00
145  1.4400000000000D+00  0.0000000000000D+00  0.0000000000000D+00
146  1.4500000000000D+00  0.0000000000000D+00  0.0000000000000D+00
147  1.4600000000000D+00  0.0000000000000D+00  0.0000000000000D+00
148  1.4700000000000D+00  0.0000000000000D+00  0.0000000000000D+00
149  1.4800000000000D+00  0.0000000000000D+00  0.0000000000000D+00
150  1.4900000000000D+00  0.0000000000000D+00  0.0000000000000D+00
151  1.5000000000000D+00  0.0000000000000D+00  0.0000000000000D+00
152  1.5100000000000D+00  0.0000000000000D+00  0.0000000000000D+00
153  1.5200000000000D+00  0.0000000000000D+00  0.0000000000000D+00
154  1.5300000000000D+00  0.0000000000000D+00  0.0000000000000D+00
155  1.5400000000000D+00  0.0000000000000D+00  0.0000000000000D+00
156  1.5500000000000D+00  0.0000000000000D+00  0.0000000000000D+00
157  1.5600000000000D+00  0.0000000000000D+00  0.0000000000000D+00
158  1.5700000000000D+00  0.0000000000000D+00  0.0000000000000D+00
159  1.5800000000000D+00  0.0000000000000D+00  0.0000000000000D+00
160  1.5900000000000D+00  0.0000000000000D+00  0.0000000000000D+00
161  1.6000000000000D+00  0.0000000000000D+00  0.0000000000000D+00
162  1.6100000000000D+00  0.0000000000000D+00  0.0000000000000D+00
163  1.6200000000000D+00  0.0000000000000D+00  0.0000000000000D+00
164  1.6300000000000D+00  0.0000000000000D+00  0.0000000000000D+00
165  1.6400000000000D+00  0.0000000000000D+00  0.0000000000000D+00
166  1.6500000000000D+00  0.0000000000000D+00  0.0000000000000D+00
167  1.6600000000000D+00  0.0000000000000D+00  0.0000000000000D+00
168  1.6700000000000D+00  0.0000000000000D+00  0.0000000000000D+00
169  1.6800000000000D+00  0.0000000000000D+00  0.0000000000000D+00
170  1.6900000000000D+00  0.0000000000000D+00  0.0000000000000D+00
171  1.7000000000000D+00  0.0000000000000D+00  0.0000000000000D+00
172  1.7100000000000D+00  0.0000000000000D+00  0.0000000000000D+00
173  1.7200000000000D+00  0.0000000000000D+00  0.0000000000000D+00
174  1.7300000000000D+00  0.0000000000000D+00  0.0000000000000D+00
175  1.7400000000000D+00  0.0000000000000D+00  0.0000000000000D+00
176  1.7500000000000D+00  0.0000000000000D+00  0.0000000000000D+00
177  1.7600000000000D+00  0.0000000000000D+00  0.0000000000000D+00
178  1.7700000000000D+00  0.0000000000000D+00  0.0000000000000D+00
179  1.7800000000000D+00  0.0000000000000D+00  0.0000000000000D+00
180  1.7900000000000D+00  0.0000000000000D+00  0.0000000000000D+00
181  1.8000000000000D+00  0.0000000000000D+00  0.0000000000000D+00
182  1.8100000000000D+00  0.0000000000000D+00  0.0000000000000D+00
183  1.8200000000000D+00  0.0000000000000D+00  0.0000000000000D+00
184  1.8300000000000D+00  0.0000000000000D+00  0.0000000000000D+00
185  1.8400000000000D+00  0.0000000000000D+00  0.0000000000000D+00
186  1.8500000000000D+00  0.0000000000000D+00  0.0000000000000D+00
187  1.8600000000000D+00  0.0000000000000D+00  0.0000000000000D+00
188  1.8700000000000D+00  0.0000000000000D+00  0.0000000000000D+00
189  1.8800000000000D+00  0.0000000000000D+00  0.0000000000000D+00
190  1.8900000000000D+00  0.0000000000000D+00  0.0000000000000D+00
191  1.9000000000000D+00  0.0000000000000D+00  0.0000000000000D+00
192  1.9100000000000D+00  0.0000000000000D+00  0.0000000000000D+00
193  1.9200000000000D+00  0.0000000000000D+00  0.0000000000000D+00
194  1.9300000000000D+00  0.0000000000000D+00  0.0000000000000D+00
195  1.9400000000000D+00  0.0000000000000D+00  0.0000000000000D+00
196  1.9500000000000D+00  0.0000000000000D+00  0.0000000000000D+00
197  1.9600000000000D+00  0.0000000000000D+00  0.0000000000000D+00
198  1.9700000000000D+00  0.0000000000000D+00  0.0000000000000D+00
199  1.9800000000000D+00  0.0000000000000D+00  0.0000000000000D+00
200  1.9900000000000D+00  0.0000000000000D+00  0.0000000000000D+00
201  2.0000000000000D+00  0.0000000000000D+00  0.0000000000000D+00
202  2.0100000000000D+00  0.0000000000000D+00  0.0000000000000D+00
203  2.0200000000000D+00  0.0000000000000D+00  0.0000000000000D+00
204  2.0300000000000D+00  0.0000000000000D+00  0.0000000000000D+00
205  2.0400000000000D+00  0.0000000000000D+00  0.0000000000000D+00
206  2.0500000000000D+00  0.0000000000000D+00  0.0000000000000D+00
207  2.0600000000000D+00  0.0000000000000D+00  0.0000000000000D+00
208  2.0700000000000D+00  0.0000000000000D+00  0.0000000000000D+00
209  2.0800000000000D+00  0.0000000000000D+00  0.0000000000000D+00
210  2.0900000000000D+00  0.0000000000000D+00  0.0000000000000D+00
211  2.1000000000000D+00  0.0000000000000D+00  0.0000000000000D+00
212  2.1100000000000D+00  0.0000000000000D+00  0.0000000000000D+00
213  2.1200000000000D+00  0.0000000000000D+00  0.0000000000000D+00
214  2.1300000000000D+00  0.0000000000000D+00  0.0000000000000D+00
215  2.1400000000000D+00  0.0000000000000D+00  0.0000000000000D+00
216  2.1500000000000D+00  0.0000000000000D+00  0.0000000000000D+00
217  2.1600000000000D+00  0.0000000000000D+00  0.0000000000000D+00
218  2.1700000000000D+00  0.0000000000000D+00  0.0000000000000D+00
219  2.1800000000000D+00  0.0000000000000D+00  0.0000000000000D+00
220  2.1900000000000D+00  0.0000000000000D+00  0.0000000000000D+00
221  2.2000000000000D+00  0.0000000000000D+00  0.0000000000000D+00
222  2.2100000000000D+00  0.0000000000000D+00  0.0000000000000D+00
223  2.2200000000000D+00  0.0000000000000D+00  0.0000000000000D+00
224  2.2300000000000D+00  0.0000000000000D+00  0.0000000000000D+00
225  2.2400000000000D+00  0.0000000000000D+00  0.0000000000000D+00
226  2.2500000000000D+00  0.0000000000000D+00  0.0000000000000D+00
227  2.2600000000000D+00  0.0000000000000D+00  0.0000000000000D+00
228  2.2700000000000D+00  0.0000000000000D+00  0.0000000000000D+00
229  2.2800000000000D+00  0.0000000000000D+00  0.0000000000000D+00
230  2.2900000000000D+00  0.0000000000000D+00  0.0000000000000D+00
231  2.3000000000000D+00  0.0000000000000D+00  0.0000000000000D+00
232  2.3100000000000D+00  0.0000000000000D+00  0.0000000000000D+00
233  2.3200000000000D+00  0.0000000000000D+00  0.0000000000000D+00
234  2.3300000000000D+00  0.0000000000000D+00  0.0000000000000D+00
235  2.3400000000000D+00  0.0000000000000D+00  0.0000000000000D+00
236  2.3500000000000D+00  0.0000000000000D+00  0.0000000000000D+00
237  2.3600000000000D+00  0.0000000000000D+00  0.0000000000000D+00
238  2.3700000000000D+00  0.0000000000000D+00  0.0000000000000D+00
239  2.3800000000000D+00  0.0000000000000D+00  0.0000000000000D+00
240  2.3900000000000D+00  0.0000000000000D+00  0.0000000000000D+00
241  2.4000000000000D+00  0.0000000000000D+00  0.0000000000000D+00
242  2.4100000000000D+00  0.0000000000000D+00  0.0000000000000D+00
243  2.4200000000000D+00  0.0000000000000D+00  0.0000000000000D+00
244  2.4300000000000D+00  0.0000000000000D+00  0.0000000000000D+00
245  2.4400000000000D+00  0.0000000000000D+00  0.0000000000000D+00
246  2.4500000000000D+00  0.0000000000000D+00  0.0000000000000D+00
247  2.4600000000000D+00  0.0000000000000D+00  0.0000000000000D+00
248  2.4700000000000D+00  0.0000000000000D+00  0.0000000000000D+00
249  2.4800000000000D+00  0.0000000000000D+00  0.0000000000000D+00
250  2.4900000000000D+00  0.0000000000000D+00  0.0000000000000D+00
251  2.5000000000000D+00  0.0000000000000D+00  0.0000000000000D+00
252  2.5100000000000D+00  0.0000000000000D+00  0.0000000000000D+00
253  2.5200000000000D+00  0.0000000000000D+00  0.0000000000000D+00
254  2.5300000000000D+00  0.0000000000000D+00  0.0000000000000D+00
255  2.5400000000000D+00  0.0000000000000D+00  0.0000000000000D+00
256  2.5500000000000D+00  0.0000000000000D+00  0.0000000000000D+00
257  2.5600000000000D+00  0.0000000000000D+00  0.0000000000000D+00
258  2.5700000000000D+00  0.0000000000000D+00  0.0000000000000D+00
259  2.5800000000000D+00  0.0000000000000D+00  0.0000000000000D+00
260  2.5900000000000D+00  0.0000000000000D+00  0.0000000000000D+00
261  2.6000000000000D+00  0.0000000000000D+00  0.0000000000000D+00
262  2.6100000000000D+00  0.0000000000000D+00  0.0000000000000D+00
263  2.6200000000000D+00  0.0000000000000D+00  0.0000000000000D+00
264  2.6300000000000D+00  0.0000000000000D+00  0.0000000000000D+00
265  2.6400000000000D+00  0.0000000000000D+00  0.0000000000000D+00
266  2.6500000000000D+00  0.0000000000000D+00  0.0000000000000D+00
267  2.6600000000000D+00  0.0000000000000D+00  0.0000000000000D+00
268  2.6700000000000D+00  0.0000000000000D+00  0.0000000000000D+00
269  2.6800000000000D+00  0.0000000000000D+00  0.0000000000000D+00
270  2.6900000000000D+00  0.0000000000000D+00  0.0000000000000D+00
271  2.7000000000000D+00  0.0000000000000D+00  0.0000000000000D+00
272  2.7100000000000D+00  0.0000000000000D+00  0.0000000000000D+00
273  2.7200000000000D+00  0.0000000000000D+00  0.0000000000000D+00
274  2.7300000000000D+00  0.0000000000000D+00  0.0000000000000D+00
275  2.7400000000000D+00  0.0000000000000D+00  0.0000000000000D+00
276  2.7500000000000D+00  0.0000000000000D+00  0.0000000000000D+00
277  2.7600000000000D+00  0.0000000000000D+00  0.0000000000000D+00
278  2.7700000000000D+00  0.0000000000000D+00  0.0000000000000D+00
279  2.7800000000000D+00  0.0000000000000D+00  0.0000000000000D+00
280  2.7900000000000D+00  0.0000000000000D+00  0.0000000000000D+00
281  2.8000000000000D+00  0.0000000000000D+00  0.0000000000000D+00
282  2.8100000000000D+00  0.0000000000000D+00  0.0000000000000D+00
283  2.8200000000000D+00  0.0000000000000D+00  0.0000000000000D+00
284  2.8300000000000D+00  0.0000000000000D+00  0.0000000000000D+00
285  2.8400000000000D+00  0.0000000000000D+00  0.0000000000000D+00
286  2.8500000000000D+00  0.0000000000000D+00  0.0000000000000D+00
287  2.8600000000000D+00  0.0000000000000D+00  0.0000000000000D+00
288  2.8700000000000D+00  0.0000000000000D+00  0.0000000000000D+00
289  2.8800000000000D+00  0.0000000000000D+00  0.0000000000000D+00
290  2.8900000000000D+00  0.0000000000000D+00  0.0000000000000D+00
291  2.9000000000000D+00  0.0000000000000D+00  0.0000000000000D+00
292  2.9100000000000D+00  0.0000000000000D+00  0.0000000000000D+00
293  2.9200000000000D+00  0.0000000000000D+00  0.0000000000000D+00
294  2.9300000000000D+00  0.0000000000000D+00  0.0000000000000D+00
295  2.9400000000000D+00  0.0000000000000D+00  0.0000000000000D+00
296  2.9500000000000D+00  0.0000000000000D+00  0.0000000000000D+00
297  2.9600000000000D+00  0.0000000000000D+00  0.0000000000000D+00
298  2.9700000000000D+00  0.0000000000000D+00  0.0000000000000D+00
299  2.9800000000000D+00  0.0000000000000D+00  0.0000000000000D+00
300  2.9900000000000D+00  0.0000000000000D+00  0.0000000000000D+00
301  3.0000000000000D+00  0.0000000000000D+00  0.0000000000000D+00
302  3.0100000000000D+00  0.0000000000000D+00  0.0000000000000D+00
303  3.0200000000000D+00  0.0000000000000D+00  0.0000000000000D+00
304  3.0300000000000D+00  0.0000000000000D+00  0.0000000000000D+00
305  3.0400000000000D+00  0.0000000000000D+00  0.0000000000000D+00
306  3.0500000000000D+00  0.0000000000000D+00  0.0000000000000D+00
307  3.0600000000000D+00  0.0000000000000D+00  0.0000000000000D+00
308  3.0700000000000D+00  0.0000000000000D+00  0.0000000000000D+00
309  3.0800000000000D+00  0.0000000000000D+00  0.0000000000000D+00
310  3.0900000000000D+00  0.0000000000000D+00  0.0000000000000D+00
311  3.1000000000000D+00  0.0000000000000D+00  0.0000000000000D+00
312  3.1100000000000D+00  0.0000000000000D+00  0.0000000000000D+00
313  3.1200000000000D+00  0.0000000000000D+00  0.0000000000000D+00
314  3.1300000000000D+00  0.0000000000000D+00  0.0000000000000D+00
315  3.1400000000000D+00  0.0000000000000D+00  0.0000000000000D+00
316  3.1500000000000D+00  0.0000000000000D+00  0.0000000000000D+00
317  3.1600000000000D+00  0.0000000000000D+00  0.0000000000000D+00
318  3.1700000000000D+00  0.0000000000000D+00  0.0000000000000D+00
319  3.1800000000000D+00  0.0000000000000D+00  0.0000000000000D+00
320  3.1900000000000D+00  0.0000000000000D+00  0.0000000000000D+00
321  3.2000000000000D+00  0.0000000000000D+00  0.0000000000000D+00
322  3.2100000000000D+00  0.0000000000000D+00  0.0000000000000D+00
323  3.2200000000000D+00  0.0000000000000D+00  0.0000000000000D+00
324  3.2300000000000D+00  0.0000000000000D+00  0.0000000000000D+00
325  3.2400000000000D+00  0.0000000000000D+00  0.0000000000000D+00
326  3.2500000000000D+00  0.0000000000000D+00  0.0000000000000D+00
327  3.2600000000000D+00  0.0000000000000D+00  0.0000000000000D+00
328  3.2700000000000D+00  0.0000000000000D+00  0.0000000000000D+00
329  3.2800000000000D+00  0.0000000000000D+00  0.0000000000000D+00
330  3.2900000000000D+00  0.0000000000000D+00  0.0000000000000D+00
331  3.3000000000000D+00  0.0000000000000D+00  0.0000000000000D+00
332  3.3100000000000D+00  0.0000000000000D+00  0.0000000000000D+00
333  3.3200000000000D+00  0.0000000000000D+00  0.0000000000000D+00
334  3.3300000000000D+00  0.0000000000000D+00  0.0000000000000D+00
335  3.3400000000000D+00  0.0000000000000D+00  0.0000000000000D+00
336  3.3500000000000D+00  0.0000000000000D+00  0.0000000000000D+00
337  3.3600000000000D+00  0.0000000000000D+00  0.0000000000000D+00
338  3.3700000000000D+00  0.0000000000000D+00  0.0000000000000D+00
339  3.3800000000000D+00  0.0000000000000D+00  0.0000000000000D+00
340  3.3900000000000D+00  0.0000000000000D+00  0.0000000000000D+00
341  3.4000000000000D+00  0.0000000000000D+00  0.0000000000000D+00
342  3.4100000000000D+00  0.0000000000000D+00  0.0000000000000D+00
343  3.4200000000000D+00  0.0000000000000D+00  0.0000000000000D+00
344  3.4300000000000D+00  0.0000000000000D+00  0.0000000000000D+00
345  3.4400000000000D+00  0.0000000000000D+00  0.0000000000000D+00
346  3.4500000000000D+00  0.0000000000000D+00  0.0000000000000D+00
347  3.4600000000000D+00  0.0000000000000D+00  0.0000000000000D+00
348  3.4700000000000D+00  0.0000000000000D+00  0.0000000000000D+00
349  3.4800000000000D+00  0.0000000000000D+00  0.0000000000000D+00
350  3.4900000000000D+00  0.0000000000000D+00  0.0000000000000D+00
351  3.5000000000000D+00  0.0000000000000D+00  0.0000000000000D+00
352  3.5100000000000D+00  0.0000000000000D+00  0.0000000000000D+00
353  3.5200000000000D+00  0.0000000000000D+00  0.0000000000000D+00
354  3.5300000000000D+00  0.0000000000000D+00  0.0000000000000D+00
355  3.5400000000000D+00  0.0000000000000D+00  0.0000000000000D+00
356  3.5500000000000D+00  0.0000000000000D+00  0.0000000000000D+00
357  3.5600000000000D+00  0.0000000000000D+00  0.0000000000000D+00
358  3.5700000000000D+00  0.0000000000000D+00  0.0000000000000D+00
359  3.5800000000000D+00  0.0000000000000D+00  0.0000000000000D+00
360  3.5900000000000D+00  0.0000000000000D+00  0.0000000000000D+00
361  3.6000000000000D+00  0.0000000000000D+00  0.0000000000000D+00
362  3.6100000000000D+00  0.0000000000000D+00  0.0000000000000D+00
363  3.6200000000000D+00  0.0000000000000D+00  0.0000000000000D+00
364  3.6300000000000D+00  0.0000000000000D+00  0.0000000000000D+00
365  3.6400000000000D+00  0.0000000000000D+00  0.0000000000000D+00
366  3.6500000000000D+00  0.0000000000000D+00  0.0000000000000D+00
367  3.6600000000000D+00  0.0000000000000D+00  0.0000000000000D+00
368  3.6700000000000D+00  0.0000000000000D+00  0.0000000000000D+00
369  3.6800000000000D+00  0.0000000000000D+00  0.0000000000000D+00
370  3.6900000000000D+00  0.0000000000000D+00  0.0000000000000D+00
371  3.7000000000000D+00  0.0000000000000D+00  0.0000000000000D+00
372  3.7100000000000D+00  0.0000000000000D+00  0.0000000000000D+00
373  3.7200000000000D+00  0.0000000000000D+00  0.0000000000000D+00
374  3.7300000000000D+00  0.0000000000000D+00  0.0000000000000D+00
375  3.7400000000000D+00  0.0000000000000D+00  0.0000000000000D+00
376  3.7500000000000D+00  0.0000000000000D+00  0.0000000000000D+00
377  3.7600000000000D+00  0.0000000000000D+00  0.0000000000000D+00
378  3.7700000000000D+00  0.0000000000000D+00  0.0000000000000D+00
379  3.7800000000000D+00  0.0000000000000D+00  0.0000000000000D+00
380  3.7900000000000D+00  0.0000000000000D+00  0.0000000000000D+00
381  3.8000000000000D+00  0.0000000000000D+00  0.0000000000000D+00
382  3.8100000000000D+00  0.0000000000000D+00  0.0000000000000D+00
383  3.8200000000000D+00  0.0000000000000D+00  0.0000000000000D+00
384  3.8300000000000D+00  0.0000000000000D+00  0.0000000000000D+00
385  3.8400000000000D+00  0.0000000000000D+00  0.0000000000000D+00
386  3.8500000000000D+00  0.0000000000000D+00  0.0000000000000D+00
387  3.8600000000000D+00  0.0000000000000D+00  0.0000000000000D+00
388  3.8700000000000D+00  0.0000000000000D+00  0.0000000000000D+00
389  3.8800000000000D+00  0.0000000000000D+00  0.0000000000000D+00
390  3.8900000000000D+00  0.0000000000000D+00  0.0000000000000D+00
391  3.9000000000000D+00  0.0000000000000D+00  0.0000000000000D+00
392  3.9100000000000D+00  0.0000000000000D+00  0.0000000000000D+00
393  3.9200000000000D+00  0.0000000000000D+00  0.0000000000000D+00
394  3.9300000000000D+00  0.0000000000000D+00  0.0000000000000D+00
395  3.9400000000000D+00  0.0000000000000D+00  0.0000000000000D+00
396  3.9500000000000D+00  0.0000000000000D+00  0.0000000000000D+00
397  3.9600000000000D+00  0.0000000000000D+00  0.0000000000000D+00
398  3.9700000000000D+00  0.0000000000000D+00  0.0000000000000D+00
399  3.9800000000000D+00  0.0000000000000D+00  0.0000000000000D+00
400  3.9900000000000D+00  0.0000000000000D+00  0.0000000000000D+00
401  4.0000000000000D+00  0.0000000000000D+00  0.0000000000000D+00
1                        -4.3287064098696D+00 -2.8384257057751D+00
1  0.0000000000000D+00  0.0000000000000D+00  0.0000000000000D+00
2  1.0000000000000D-02  6.7079531924815D-04  1.4394414118903D-03
3  2.0000000000000D-02  2.6947207509953D-03  5.7417039142605D-03
4  3.0000000000000D-02  6.1061276925699D-03  1.2858724390169D-02
5  4.0000000000000D-02  1.0961382541697D-02  2.2710803870774D-02
6  5.0000000000000D-02  1.7337552270910D-02  3.5187214366155D-02
7  6.0000000000000D-02  2.5330592966698D-02  5.0147043418642D-02
8  7.0000000000000D-02  3.5053069587839D-02  6.7420271384133D-02
9  8.0000000000000D-02  4.6631442588760D-02  8.6809075042986D-02
10  9.0000000000000D-02  6.0202963954655D-02  1.0808934975218D-01
11  1.0000000000000D-01  7.5912231481716D-02  1.3101244099259D-01
12  1.1000000000000D-01  9.3907455775559D-02  1.5530707481445D-01
13  1.2000000000000D-01  1.1433649927005D-01  1.8068147539052D-01
14  1.3000000000000D-01  1.3734275062590D-01  2.0682565659052D-01
15  1.4000000000000D-01  1.6306090089276D-01  2.3341387334448D-01
16  1.5000000000000D-01  1.9161269022970D-01  2.6010721720278D-01
17  1.6000000000000D-01  2.2310269484517D-01  2.8655633969711D-01
18  1.7000000000000D-01  2.5761422448101D-01  3.1240428555126D-01
19  1.8000000000000D-01  2.9520539943146D-01  3.3728941746039D-01
20  1.9000000000000D-01  3.3590547489162D-01  3.6084841282083D-01
21  2.0000000000000D-01  3.7971147723775D-01  3.8271931161879D-01
22  2.1000000000000D-01  4.2658521330825D-01  4.0254459513860D-01
23  2.2000000000000D-01  4.7645070888516D-01  4.1997427310721D-01
24  2.3000000000000D-01  5.2919212810334D-01  4.3466895772895D-01
25  2.4000000000000D-01  5.8465221747325D-01  4.4630290134225D-01
26  2.5000000000000D-01  6.4263131133319D-01  4.5456697529407D-01
27  2.6000000000000D-01  7.0288693572717D-01  4.5917156759362D-01
28  2.7000000000000D-01  7.6513402151271D-01  4.5984937497966D-01
29  2.8000000000000D-01  8.2904574829309D-01  4.5635806824126D-01
30  2.9000000000000D-01  8.9425502511695D-01  4.4848280782196D-01
31  3.0000000000000D-01  9.6035660092435D-01  4.3603858764349D-01
32  3.1000000000000D-01  1.0269097935887D+00  4.1887238603610D-01
33  3.2000000000000D-01  1.0934418144109D+00  3.9686510356562D-01
34  3.3000000000000D-01  1.1594516264286D+00  3.6993327463931D-01
35  3.4000000000000D-01  1.2244144442579D+00  3.3803050938155D-01
36  3.5000000000000D-01  1.2877865083568D+00  3.0114870474223D-01
37  3.6000000000000D-01  1.3490105483677D+00  2.5931892342914D-01
38  3.7000000000000D-01  1.4075213330563D+00  2.1261203733733D-01
39  3.8000000000000D-01  1.4627517577527D+00  1.6113900927634D-01
40  3.9000000000000D-01  1.5141390400909D+00  1.0505088428642D-01
41  4.0000000000000D-01  1.5611310514887D+00  4.4538466143698D-02
42  4.1000000000000D-01  1.6031927721956D+00 -2.0168350761993D-02