Mg    ONCVPSP  r_core=  1.11  1.56
12.0000     10.0000      140816    zatom,zion,pspd
8    11     1     4   401     0    pspcod,pspxc,lmax,lloc,mmax,r2well
4.00000000  0.05000000  0.00000000    rchrg fchrg qchrg
2     2     0     0     0    nproj
0                 extension_switch
0                         2.8531039970980D+00 -8.2356813286395D-01
1  0.0000000000000D+00  0.0000000000000D+00  0.0000000000000D+00
2  1.0000000000000D-02  4.7987843374135D-02  2.2063876122822D-02
3  2.0000000000000D-02  9.6407650254375D-02  4.4275974285569D-02
4  3.0000000000000D-02  1.4567927248657D-01  6.6782251498987D-02
5  4.0000000000000D-02  1.9619855793354D-01  8.9724167629683D-02
6  5.0000000000000D-02  2.4832589319116D-01  1.1323651860963D-01
7  6.0000000000000D-02  3.0237538982607D-01  1.3744536637936D-01
8  7.0000000000000D-02  3.5860491194751D-01  1.6246609549452D-01
9  8.0000000000000D-02  4.1720712892947D-01  1.8840162438159D-01
10  9.0000000000000D-02  4.7830176014803D-01  2.1534079688014D-01
11  1.0000000000000D-01  5.4192915855150D-01  2.4335697690796D-01
12  1.1000000000000D-01  6.0804535791963D-01  2.7250686605256D-01
13  1.2000000000000D-01  6.7651868388835D-01  3.0282956041491D-01
14  1.3000000000000D-01  7.4712800298486D-01  3.3434585946285D-01
15  1.4000000000000D-01  8.1956265596688D-01  3.6705783564635D-01
16  1.5000000000000D-01  8.9342409437540D-01  4.0094866990313D-01
17  1.6000000000000D-01  9.6822920958512D-01  4.3598275366440D-01
18  1.7000000000000D-01  1.0434153147425D+00  4.7210605442268D-01
19  1.8000000000000D-01  1.1183467131600D+00  5.0924673746008D-01
20  1.9000000000000D-01  1.1923227612772D+00  5.4731603318677D-01
21  2.0000000000000D-01  1.2645872992148D+00  5.8620933476474D-01
22  2.1000000000000D-01  1.3343393144581D+00  6.2580750859492D-01
23  2.2000000000000D-01  1.4007446631182D+00  6.6597839554602D-01
24  2.3000000000000D-01  1.4629486788446D+00  7.0657848039385D-01
25  2.4000000000000D-01  1.5200894512466D+00  7.4745470101387D-01
26  2.5000000000000D-01  1.5713115594280D+00  7.8844636838300D-01
27  2.6000000000000D-01  1.6157800947384D+00  8.2938717507000D-01
28  2.7000000000000D-01  1.6526946376458D+00  8.7010724714435D-01
29  2.8000000000000D-01  1.6813030401688D+00  9.1043521840868D-01
30  2.9000000000000D-01  1.7009147793096D+00  9.5020029492811D-01
31  3.0000000000000D-01  1.7109136313344D+00  9.8923427504017D-01
32  3.1000000000000D-01  1.7107694639174D+00  1.0273734961584D+00
33  3.2000000000000D-01  1.7000489351536D+00  1.0644606782142D+00
34  3.3000000000000D-01  1.6784248003119D+00  1.1003466180235D+00
35  3.4000000000000D-01  1.6456842359052D+00  1.1348918030028D+00
36  3.5000000000000D-01  1.6017347688787D+00  1.1679677180677D+00
37  3.6000000000000D-01  1.5466094671176D+00  1.1994581166308D+00
38  3.7000000000000D-01  1.4804693941945D+00  1.2292599224789D+00
39  3.8000000000000D-01  1.4036049419237D+00  1.2572840383396D+00
40  3.9000000000000D-01  1.3164348721315D+00  1.2834558573549D+00
41  4.0000000000000D-01  1.2195034684883D+00  1.3077155389822D+00
42  4.1000000000000D-01  1.1134759126752D+00  1.3300180717539D+00
43  4.2000000000000D-01  9.9913177783501D-01  1.3503330948864D+00
44  4.3000000000000D-01  8.7735676740859D-01  1.3686444943893D+00
45  4.4000000000000D-01  7.4913281239140D-01  1.3849497851208D+00
46  4.5000000000000D-01  6.1552666396342D-01  1.3992592933572D+00
47  4.6000000000000D-01  4.7767714262752D-01  1.4115951575046D+00
48  4.7000000000000D-01  3.3678123112808D-01  1.4219901677924D+00
49  4.8000000000000D-01  1.9407924348519D-01  1.4304864699939D+00
50  4.9000000000000D-01  5.0839607145405D-02  1.4371341785870D+00
51  5.0000000000000D-01 -9.1658186320531D-02  1.4419898387066D+00
52  5.1000000000000D-01 -2.3213917364713D-01  1.4451149032343D+00
53  5.2000000000000D-01 -3.6934855295826D-01  1.4465742206379D+00
54  5.3000000000000D-01 -5.0206984914986D-01  1.4464343267411D+00
55  5.4000000000000D-01 -6.2913874874732D-01  1.4447620242572D+00
56  5.5000000000000D-01 -7.4945799163145D-01  1.4416229239231D+00
57  5.6000000000000D-01 -8.6201355164575D-01  1.4370798804961D+00
58  5.7000000000000D-01 -9.6588342723943D-01  1.4311920485554D+00
59  5.8000000000000D-01 -1.0602542667786D+00  1.4240133316612D+00
60  5.9000000000000D-01 -1.1444258773561D+00  1.4155918622088D+00
61  6.0000000000000D-01 -1.2178240100759D+00  1.4059688346780D+00
62  6.1000000000000D-01 -1.2800044712546D+00  1.3951781072147D+00
63  6.2000000000000D-01 -1.3306564324373D+00  1.3832459174556D+00
64  6.3000000000000D-01 -1.3696098300738D+00  1.3701903038298D+00
65  6.4000000000000D-01 -1.3968303228837D+00  1.3560216203157D+00
66  6.5000000000000D-01 -1.4124205476132D+00  1.3407425703657D+00
67  6.6000000000000D-01 -1.4166183911379D+00  1.3243485549192D+00
68  6.7000000000000D-01 -1.4097886011004D+00  1.3068285998454D+00
69  6.8000000000000D-01 -1.3924163920037D+00  1.2881661535484D+00
70  6.9000000000000D-01 -1.3651007657871D+00  1.2683400043209D+00
71  7.0000000000000D-01 -1.3285422274179D+00  1.2473256294618D+00
72  7.1000000000000D-01 -1.2835313370922D+00  1.2250965161382D+00
73  7.2000000000000D-01 -1.2309361026262D+00  1.2016256031158D+00
74  7.3000000000000D-01 -1.1716885095517D+00  1.1768867635610D+00
75  7.4000000000000D-01 -1.1067692188750D+00  1.1508565652470D+00
76  7.5000000000000D-01 -1.0371926943825D+00  1.1235158097073D+00
77  7.6000000000000D-01 -9.6399197112056D-01  1.0948511659145D+00
78  7.7000000000000D-01 -8.8820326619613D-01  1.0648567773688D+00
79  7.8000000000000D-01 -8.1085084873043D-01  1.0335357990285D+00
80  7.9000000000000D-01 -7.3293238464968D-01  1.0009018413292D+00
81  8.0000000000000D-01 -6.5540499301179D-01  9.6698029239923D-01
82  8.1000000000000D-01 -5.7917223653967D-01  9.3180949148701D-01
83  8.2000000000000D-01 -5.0507225128231D-01  8.9544172900473D-01
84  8.3000000000000D-01 -4.3386719929354D-01  8.5794405139030D-01
85  8.4000000000000D-01 -3.6623420437452D-01  8.1939885215485D-01
86  8.5000000000000D-01 -3.0275790474408D-01  7.7990423394305D-01
87  8.6000000000000D-01 -2.4392472843459D-01  7.3957413013669D-01
88  8.7000000000000D-01 -1.9011896767766D-01  6.9853817842561D-01
89  8.8000000000000D-01 -1.4162069791285D-01  6.5694134280608D-01
90  8.9000000000000D-01 -9.8605555649492D-02  6.1494328460563D-01
91  9.0000000000000D-01 -6.1146357532198D-02  5.7271748733612D-01
92  9.1000000000000D-01 -2.9216510897207D-02  5.3045014440620D-01
93  9.2000000000000D-01 -2.6951341929773D-03  4.8833882293475D-01
94  9.3000000000000D-01  1.8626225702920D-02  4.4659092104102D-01
95  9.4000000000000D-01  3.5035422438685D-02  4.0542193996767D-01
96  9.5000000000000D-01  4.6890256876379D-02  3.6505359611250D-01
97  9.6000000000000D-01  5.4607938360765D-02  3.2571180136774D-01
98  9.7000000000000D-01  5.8653706347453D-02  2.8762463959595D-01
99  9.8000000000000D-01  5.9529556553795D-02  2.5102028454206D-01
100  9.9000000000000D-01  5.7760475928914D-02  2.1612403995757D-01
101  1.0000000000000D+00  5.3881547972990D-02  1.8315672911296D-01
102  1.0100000000000D+00  4.8425602485781D-02  1.5233229649170D-01
103  1.0200000000000D+00  4.1910903407773D-02  1.2385566033820D-01
104  1.0300000000000D+00  3.4829566158656D-02  9.7920705201863D-02
105  1.0400000000000D+00  2.7641414002841D-02  7.4709620213520D-02
106  1.0500000000000D+00  2.0749120146841D-02  5.4387126006892D-02
107  1.0600000000000D+00  1.4501910796723D-02  3.7102471639123D-02
108  1.0700000000000D+00  9.1848403831388D-03  2.2987043991154D-02
109  1.0800000000000D+00  5.0141639073490D-03  1.2153533956433D-02
110  1.0900000000000D+00  2.1362588712013D-03  4.6958774756207D-03
111  1.1000000000000D+00  6.8878769721331D-04  8.6751291371175D-04
112  1.1100000000000D+00  1.7572357821782D-04 -2.1651279466696D-04
113  1.1200000000000D+00 -1.8935675175002D-06  3.1421625409248D-07
114  1.1300000000000D+00 -1.2660173446397D-05  2.1008135383203D-06
115  1.1400000000000D+00  0.0000000000000D+00  0.0000000000000D+00
116  1.1500000000000D+00  0.0000000000000D+00  0.0000000000000D+00
117  1.1600000000000D+00  0.0000000000000D+00  0.0000000000000D+00
118  1.1700000000000D+00  0.0000000000000D+00  0.0000000000000D+00
119  1.1800000000000D+00  0.0000000000000D+00  0.0000000000000D+00
120  1.1900000000000D+00  0.0000000000000D+00  0.0000000000000D+00
121  1.2000000000000D+00  0.0000000000000D+00  0.0000000000000D+00
122  1.2100000000000D+00  0.0000000000000D+00  0.0000000000000D+00
123  1.2200000000000D+00  0.0000000000000D+00  0.0000000000000D+00
124  1.2300000000000D+00  0.0000000000000D+00  0.0000000000000D+00
125  1.2400000000000D+00  0.0000000000000D+00  0.0000000000000D+00
126  1.2500000000000D+00  0.0000000000000D+00  0.0000000000000D+00
127  1.2600000000000D+00  0.0000000000000D+00  0.0000000000000D+00
128  1.2700000000000D+00  0.0000000000000D+00  0.0000000000000D+00
129  1.2800000000000D+00  0.0000000000000D+00  0.0000000000000D+00
130  1.2900000000000D+00  0.0000000000000D+00  0.0000000000000D+00
131  1.3000000000000D+00  0.0000000000000D+00  0.0000000000000D+00
132  1.3100000000000D+00  0.0000000000000D+00  0.0000000000000D+00
133  1.3200000000000D+00  0.0000000000000D+00  0.0000000000000D+00
134  1.3300000000000D+00  0.0000000000000D+00  0.0000000000000D+00
135  1.3400000000000D+00  0.0000000000000D+00  0.0000000000000D+00
136  1.3500000000000D+00  0.0000000000000D+00  0.0000000000000D+00
137  1.3600000000000D+00  0.0000000000000D+00  0.0000000000000D+00
138  1.3700000000000D+00  0.0000000000000D+00  0.0000000000000D+00
139  1.3800000000000D+00  0.0000000000000D+00  0.0000000000000D+00
140  1.3900000000000D+00  0.0000000000000D+00  0.0000000000000D+00
141  1.4000000000000D+00  0.0000000000000D+00  0.0000000000000D+00
142  1.4100000000000D+00  0.0000000000000D+00  0.0000000000000D+00
143  1.4200000000000D+00  0.0000000000000D+00  0.0000000000000D+00
144  1.4300000000000D+00  0.0000000000000D+00  0.0000000000000D+00
145  1.4400000000000D+00  0.0000000000000D+00  0.0000000000000D+00
146  1.4500000000000D+00  0.0000000000000D+00  0.0000000000000D+00
147  1.4600000000000D+00  0.0000000000000D+00  0.0000000000000D+00
148  1.4700000000000D+00  0.0000000000000D+00  0.0000000000000D+00
149  1.4800000000000D+00  0.0000000000000D+00  0.0000000000000D+00
150  1.4900000000000D+00  0.0000000000000D+00  0.0000000000000D+00
151  1.5000000000000D+00  0.0000000000000D+00  0.0000000000000D+00
152  1.5100000000000D+00  0.0000000000000D+00  0.0000000000000D+00
153  1.5200000000000D+00  0.0000000000000D+00  0.0000000000000D+00
154  1.5300000000000D+00  0.0000000000000D+00  0.0000000000000D+00
155  1.5400000000000D+00  0.0000000000000D+00  0.0000000000000D+00
156  1.5500000000000D+00  0.0000000000000D+00  0.0000000000000D+00
157  1.5600000000000D+00  0.0000000000000D+00  0.0000000000000D+00
158  1.5700000000000D+00  0.0000000000000D+00  0.0000000000000D+00
159  1.5800000000000D+00  0.0000000000000D+00  0.0000000000000D+00
160  1.5900000000000D+00  0.0000000000000D+00  0.0000000000000D+00
161  1.6000000000000D+00  0.0000000000000D+00  0.0000000000000D+00
162  1.6100000000000D+00  0.0000000000000D+00  0.0000000000000D+00
163  1.6200000000000D+00  0.0000000000000D+00  0.0000000000000D+00
164  1.6300000000000D+00  0.0000000000000D+00  0.0000000000000D+00
165  1.6400000000000D+00  0.0000000000000D+00  0.0000000000000D+00
166  1.6500000000000D+00  0.0000000000000D+00  0.0000000000000D+00
167  1.6600000000000D+00  0.0000000000000D+00  0.0000000000000D+00
168  1.6700000000000D+00  0.0000000000000D+00  0.0000000000000D+00
169  1.6800000000000D+00  0.0000000000000D+00  0.0000000000000D+00
170  1.6900000000000D+00  0.0000000000000D+00  0.0000000000000D+00
171  1.7000000000000D+00  0.0000000000000D+00  0.0000000000000D+00
172  1.7100000000000D+00  0.0000000000000D+00  0.0000000000000D+00
173  1.7200000000000D+00  0.0000000000000D+00  0.0000000000000D+00
174  1.7300000000000D+00  0.0000000000000D+00  0.0000000000000D+00
175  1.7400000000000D+00  0.0000000000000D+00  0.0000000000000D+00
176  1.7500000000000D+00  0.0000000000000D+00  0.0000000000000D+00
177  1.7600000000000D+00  0.0000000000000D+00  0.0000000000000D+00
178  1.7700000000000D+00  0.0000000000000D+00  0.0000000000000D+00
179  1.7800000000000D+00  0.0000000000000D+00  0.0000000000000D+00
180  1.7900000000000D+00  0.0000000000000D+00  0.0000000000000D+00
181  1.8000000000000D+00  0.0000000000000D+00  0.0000000000000D+00
182  1.8100000000000D+00  0.0000000000000D+00  0.0000000000000D+00
183  1.8200000000000D+00  0.0000000000000D+00  0.0000000000000D+00
184  1.8300000000000D+00  0.0000000000000D+00  0.0000000000000D+00
185  1.8400000000000D+00  0.0000000000000D+00  0.0000000000000D+00
186  1.8500000000000D+00  0.0000000000000D+00  0.0000000000000D+00
187  1.8600000000000D+00  0.0000000000000D+00  0.0000000000000D+00
188  1.8700000000000D+00  0.0000000000000D+00  0.0000000000000D+00
189  1.8800000000000D+00  0.0000000000000D+00  0.0000000000000D+00
190  1.8900000000000D+00  0.0000000000000D+00  0.0000000000000D+00
191  1.9000000000000D+00  0.0000000000000D+00  0.0000000000000D+00
192  1.9100000000000D+00  0.0000000000000D+00  0.0000000000000D+00
193  1.9200000000000D+00  0.0000000000000D+00  0.0000000000000D+00
194  1.9300000000000D+00  0.0000000000000D+00  0.0000000000000D+00
195  1.9400000000000D+00  0.0000000000000D+00  0.0000000000000D+00
196  1.9500000000000D+00  0.0000000000000D+00  0.0000000000000D+00
197  1.9600000000000D+00  0.0000000000000D+00  0.0000000000000D+00
198  1.9700000000000D+00  0.0000000000000D+00  0.0000000000000D+00
199  1.9800000000000D+00  0.0000000000000D+00  0.0000000000000D+00
200  1.9900000000000D+00  0.0000000000000D+00  0.0000000000000D+00
201  2.0000000000000D+00  0.0000000000000D+00  0.0000000000000D+00
202  2.0100000000000D+00  0.0000000000000D+00  0.0000000000000D+00
203  2.0200000000000D+00  0.0000000000000D+00  0.0000000000000D+00
204  2.0300000000000D+00  0.0000000000000D+00  0.0000000000000D+00
205  2.0400000000000D+00  0.0000000000000D+00  0.0000000000000D+00
206  2.0500000000000D+00  0.0000000000000D+00  0.0000000000000D+00
207  2.0600000000000D+00  0.0000000000000D+00  0.0000000000000D+00
208  2.0700000000000D+00  0.0000000000000D+00  0.0000000000000D+00
209  2.0800000000000D+00  0.0000000000000D+00  0.0000000000000D+00
210  2.0900000000000D+00  0.0000000000000D+00  0.0000000000000D+00
211  2.1000000000000D+00  0.0000000000000D+00  0.0000000000000D+00
212  2.1100000000000D+00  0.0000000000000D+00  0.0000000000000D+00
213  2.1200000000000D+00  0.0000000000000D+00  0.0000000000000D+00
214  2.1300000000000D+00  0.0000000000000D+00  0.0000000000000D+00
215  2.1400000000000D+00  0.0000000000000D+00  0.0000000000000D+00
216  2.1500000000000D+00  0.0000000000000D+00  0.0000000000000D+00
217  2.1600000000000D+00  0.0000000000000D+00  0.0000000000000D+00
218  2.1700000000000D+00  0.0000000000000D+00  0.0000000000000D+00
219  2.1800000000000D+00  0.0000000000000D+00  0.0000000000000D+00
220  2.1900000000000D+00  0.0000000000000D+00  0.0000000000000D+00
221  2.2000000000000D+00  0.0000000000000D+00  0.0000000000000D+00
222  2.2100000000000D+00  0.0000000000000D+00  0.0000000000000D+00
223  2.2200000000000D+00  0.0000000000000D+00  0.0000000000000D+00
224  2.2300000000000D+00  0.0000000000000D+00  0.0000000000000D+00
225  2.2400000000000D+00  0.0000000000000D+00  0.0000000000000D+00
226  2.2500000000000D+00  0.0000000000000D+00  0.0000000000000D+00
227  2.2600000000000D+00  0.0000000000000D+00  0.0000000000000D+00
228  2.2700000000000D+00  0.0000000000000D+00  0.0000000000000D+00
229  2.2800000000000D+00  0.0000000000000D+00  0.0000000000000D+00
230  2.2900000000000D+00  0.0000000000000D+00  0.0000000000000D+00
231  2.3000000000000D+00  0.0000000000000D+00  0.0000000000000D+00
232  2.3100000000000D+00  0.0000000000000D+00  0.0000000000000D+00
233  2.3200000000000D+00  0.0000000000000D+00  0.0000000000000D+00
234  2.3300000000000D+00  0.0000000000000D+00  0.0000000000000D+00
235  2.3400000000000D+00  0.0000000000000D+00  0.0000000000000D+00
236  2.3500000000000D+00  0.0000000000000D+00  0.0000000000000D+00
237  2.3600000000000D+00  0.0000000000000D+00  0.0000000000000D+00
238  2.3700000000000D+00  0.0000000000000D+00  0.0000000000000D+00
239  2.3800000000000D+00  0.0000000000000D+00  0.0000000000000D+00
240  2.3900000000000D+00  0.0000000000000D+00  0.0000000000000D+00
241  2.4000000000000D+00  0.0000000000000D+00  0.0000000000000D+00
242  2.4100000000000D+00  0.0000000000000D+00  0.0000000000000D+00
243  2.4200000000000D+00  0.0000000000000D+00  0.0000000000000D+00
244  2.4300000000000D+00  0.0000000000000D+00  0.0000000000000D+00
245  2.4400000000000D+00  0.0000000000000D+00  0.0000000000000D+00
246  2.4500000000000D+00  0.0000000000000D+00  0.0000000000000D+00
247  2.4600000000000D+00  0.0000000000000D+00  0.0000000000000D+00
248  2.4700000000000D+00  0.0000000000000D+00  0.0000000000000D+00
249  2.4800000000000D+00  0.0000000000000D+00  0.0000000000000D+00
250  2.4900000000000D+00  0.0000000000000D+00  0.0000000000000D+00
251  2.5000000000000D+00  0.0000000000000D+00  0.0000000000000D+00
252  2.5100000000000D+00  0.0000000000000D+00  0.0000000000000D+00
253  2.5200000000000D+00  0.0000000000000D+00  0.0000000000000D+00
254  2.5300000000000D+00  0.0000000000000D+00  0.0000000000000D+00
255  2.5400000000000D+00  0.0000000000000D+00  0.0000000000000D+00
256  2.5500000000000D+00  0.0000000000000D+00  0.0000000000000D+00
257  2.5600000000000D+00  0.0000000000000D+00  0.0000000000000D+00
258  2.5700000000000D+00  0.0000000000000D+00  0.0000000000000D+00
259  2.5800000000000D+00  0.0000000000000D+00  0.0000000000000D+00
260  2.5900000000000D+00  0.0000000000000D+00  0.0000000000000D+00
261  2.6000000000000D+00  0.0000000000000D+00  0.0000000000000D+00
262  2.6100000000000D+00  0.0000000000000D+00  0.0000000000000D+00
263  2.6200000000000D+00  0.0000000000000D+00  0.0000000000000D+00
264  2.6300000000000D+00  0.0000000000000D+00  0.0000000000000D+00
265  2.6400000000000D+00  0.0000000000000D+00  0.0000000000000D+00
266  2.6500000000000D+00  0.0000000000000D+00  0.0000000000000D+00
267  2.6600000000000D+00  0.0000000000000D+00  0.0000000000000D+00
268  2.6700000000000D+00  0.0000000000000D+00  0.0000000000000D+00
269  2.6800000000000D+00  0.0000000000000D+00  0.0000000000000D+00
270  2.6900000000000D+00  0.0000000000000D+00  0.0000000000000D+00
271  2.7000000000000D+00  0.0000000000000D+00  0.0000000000000D+00
272  2.7100000000000D+00  0.0000000000000D+00  0.0000000000000D+00
273  2.7200000000000D+00  0.0000000000000D+00  0.0000000000000D+00
274  2.7300000000000D+00  0.0000000000000D+00  0.0000000000000D+00
275  2.7400000000000D+00  0.0000000000000D+00  0.0000000000000D+00
276  2.7500000000000D+00  0.0000000000000D+00  0.0000000000000D+00
277  2.7600000000000D+00  0.0000000000000D+00  0.0000000000000D+00
278  2.7700000000000D+00  0.0000000000000D+00  0.0000000000000D+00
279  2.7800000000000D+00  0.0000000000000D+00  0.0000000000000D+00
280  2.7900000000000D+00  0.0000000000000D+00  0.0000000000000D+00
281  2.8000000000000D+00  0.0000000000000D+00  0.0000000000000D+00
282  2.8100000000000D+00  0.0000000000000D+00  0.0000000000000D+00
283  2.8200000000000D+00  0.0000000000000D+00  0.0000000000000D+00
284  2.8300000000000D+00  0.0000000000000D+00  0.0000000000000D+00
285  2.8400000000000D+00  0.0000000000000D+00  0.0000000000000D+00
286  2.8500000000000D+00  0.0000000000000D+00  0.0000000000000D+00
287  2.8600000000000D+00  0.0000000000000D+00  0.0000000000000D+00
288  2.8700000000000D+00  0.0000000000000D+00  0.0000000000000D+00
289  2.8800000000000D+00  0.0000000000000D+00  0.0000000000000D+00
290  2.8900000000000D+00  0.0000000000000D+00  0.0000000000000D+00
291  2.9000000000000D+00  0.0000000000000D+00  0.0000000000000D+00
292  2.9100000000000D+00  0.0000000000000D+00  0.0000000000000D+00
293  2.9200000000000D+00  0.0000000000000D+00  0.0000000000000D+00
294  2.9300000000000D+00  0.0000000000000D+00  0.0000000000000D+00
295  2.9400000000000D+00  0.0000000000000D+00  0.0000000000000D+00
296  2.9500000000000D+00  0.0000000000000D+00  0.0000000000000D+00
297  2.9600000000000D+00  0.0000000000000D+00  0.0000000000000D+00
298  2.9700000000000D+00  0.0000000000000D+00  0.0000000000000D+00
299  2.9800000000000D+00  0.0000000000000D+00  0.0000000000000D+00
300  2.9900000000000D+00  0.0000000000000D+00  0.0000000000000D+00
301  3.0000000000000D+00  0.0000000000000D+00  0.0000000000000D+00
302  3.0100000000000D+00  0.0000000000000D+00  0.0000000000000D+00
303  3.0200000000000D+00  0.0000000000000D+00  0.0000000000000D+00
304  3.0300000000000D+00  0.0000000000000D+00  0.0000000000000D+00
305  3.0400000000000D+00  0.0000000000000D+00  0.0000000000000D+00
306  3.0500000000000D+00  0.0000000000000D+00  0.0000000000000D+00
307  3.0600000000000D+00  0.0000000000000D+00  0.0000000000000D+00
308  3.0700000000000D+00  0.0000000000000D+00  0.0000000000000D+00
309  3.0800000000000D+00  0.0000000000000D+00  0.0000000000000D+00
310  3.0900000000000D+00  0.0000000000000D+00  0.0000000000000D+00
311  3.1000000000000D+00  0.0000000000000D+00  0.0000000000000D+00
312  3.1100000000000D+00  0.0000000000000D+00  0.0000000000000D+00
313  3.1200000000000D+00  0.0000000000000D+00  0.0000000000000D+00
314  3.1300000000000D+00  0.0000000000000D+00  0.0000000000000D+00
315  3.1400000000000D+00  0.0000000000000D+00  0.0000000000000D+00
316  3.1500000000000D+00  0.0000000000000D+00  0.0000000000000D+00
317  3.1600000000000D+00  0.0000000000000D+00  0.0000000000000D+00
318  3.1700000000000D+00  0.0000000000000D+00  0.0000000000000D+00
319  3.1800000000000D+00  0.0000000000000D+00  0.0000000000000D+00
320  3.1900000000000D+00  0.0000000000000D+00  0.0000000000000D+00
321  3.2000000000000D+00  0.0000000000000D+00  0.0000000000000D+00
322  3.2100000000000D+00  0.0000000000000D+00  0.0000000000000D+00
323  3.2200000000000D+00  0.0000000000000D+00  0.0000000000000D+00
324  3.2300000000000D+00  0.0000000000000D+00  0.0000000000000D+00
325  3.2400000000000D+00  0.0000000000000D+00  0.0000000000000D+00
326  3.2500000000000D+00  0.0000000000000D+00  0.0000000000000D+00
327  3.2600000000000D+00  0.0000000000000D+00  0.0000000000000D+00
328  3.2700000000000D+00  0.0000000000000D+00  0.0000000000000D+00
329  3.2800000000000D+00  0.0000000000000D+00  0.0000000000000D+00
330  3.2900000000000D+00  0.0000000000000D+00  0.0000000000000D+00
331  3.3000000000000D+00  0.0000000000000D+00  0.0000000000000D+00
332  3.3100000000000D+00  0.0000000000000D+00  0.0000000000000D+00
333  3.3200000000000D+00  0.0000000000000D+00  0.0000000000000D+00
334  3.3300000000000D+00  0.0000000000000D+00  0.0000000000000D+00
335  3.3400000000000D+00  0.0000000000000D+00  0.0000000000000D+00
336  3.3500000000000D+00  0.0000000000000D+00  0.0000000000000D+00
337  3.3600000000000D+00  0.0000000000000D+00  0.0000000000000D+00
338  3.3700000000000D+00  0.0000000000000D+00  0.0000000000000D+00
339  3.3800000000000D+00  0.0000000000000D+00  0.0000000000000D+00
340  3.3900000000000D+00  0.0000000000000D+00  0.0000000000000D+00
341  3.4000000000000D+00  0.0000000000000D+00  0.0000000000000D+00
342  3.4100000000000D+00  0.0000000000000D+00  0.0000000000000D+00
343  3.4200000000000D+00  0.0000000000000D+00  0.0000000000000D+00
344  3.4300000000000D+00  0.0000000000000D+00  0.0000000000000D+00
345  3.4400000000000D+00  0.0000000000000D+00  0.0000000000000D+00
346  3.4500000000000D+00  0.0000000000000D+00  0.0000000000000D+00
347  3.4600000000000D+00  0.0000000000000D+00  0.0000000000000D+00
348  3.4700000000000D+00  0.0000000000000D+00  0.0000000000000D+00
349  3.4800000000000D+00  0.0000000000000D+00  0.0000000000000D+00
350  3.4900000000000D+00  0.0000000000000D+00  0.0000000000000D+00
351  3.5000000000000D+00  0.0000000000000D+00  0.0000000000000D+00
352  3.5100000000000D+00  0.0000000000000D+00  0.0000000000000D+00
353  3.5200000000000D+00  0.0000000000000D+00  0.0000000000000D+00
354  3.5300000000000D+00  0.0000000000000D+00  0.0000000000000D+00
355  3.5400000000000D+00  0.0000000000000D+00  0.0000000000000D+00
356  3.5500000000000D+00  0.0000000000000D+00  0.0000000000000D+00
357  3.5600000000000D+00  0.0000000000000D+00  0.0000000000000D+00
358  3.5700000000000D+00  0.0000000000000D+00  0.0000000000000D+00
359  3.5800000000000D+00  0.0000000000000D+00  0.0000000000000D+00
360  3.5900000000000D+00  0.0000000000000D+00  0.0000000000000D+00
361  3.6000000000000D+00  0.0000000000000D+00  0.0000000000000D+00
362  3.6100000000000D+00  0.0000000000000D+00  0.0000000000000D+00
363  3.6200000000000D+00  0.0000000000000D+00  0.0000000000000D+00
364  3.6300000000000D+00  0.0000000000000D+00  0.0000000000000D+00
365  3.6400000000000D+00  0.0000000000000D+00  0.0000000000000D+00
366  3.6500000000000D+00  0.0000000000000D+00  0.0000000000000D+00
367  3.6600000000000D+00  0.0000000000000D+00  0.0000000000000D+00
368  3.6700000000000D+00  0.0000000000000D+00  0.0000000000000D+00
369  3.6800000000000D+00  0.0000000000000D+00  0.0000000000000D+00
370  3.6900000000000D+00  0.0000000000000D+00  0.0000000000000D+00
371  3.7000000000000D+00  0.0000000000000D+00  0.0000000000000D+00
372  3.7100000000000D+00  0.0000000000000D+00  0.0000000000000D+00
373  3.7200000000000D+00  0.0000000000000D+00  0.0000000000000D+00
374  3.7300000000000D+00  0.0000000000000D+00  0.0000000000000D+00
375  3.7400000000000D+00  0.0000000000000D+00  0.0000000000000D+00
376  3.7500000000000D+00  0.0000000000000D+00  0.0000000000000D+00
377  3.7600000000000D+00  0.0000000000000D+00  0.0000000000000D+00
378  3.7700000000000D+00  0.0000000000000D+00  0.0000000000000D+00
379  3.7800000000000D+00  0.0000000000000D+00  0.0000000000000D+00
380  3.7900000000000D+00  0.0000000000000D+00  0.0000000000000D+00
381  3.8000000000000D+00  0.0000000000000D+00  0.0000000000000D+00
382  3.8100000000000D+00  0.0000000000000D+00  0.0000000000000D+00
383  3.8200000000000D+00  0.0000000000000D+00  0.0000000000000D+00
384  3.8300000000000D+00  0.0000000000000D+00  0.0000000000000D+00
385  3.8400000000000D+00  0.0000000000000D+00  0.0000000000000D+00
386  3.8500000000000D+00  0.0000000000000D+00  0.0000000000000D+00
387  3.8600000000000D+00  0.0000000000000D+00  0.0000000000000D+00
388  3.8700000000000D+00  0.0000000000000D+00  0.0000000000000D+00
389  3.8800000000000D+00  0.0000000000000D+00  0.0000000000000D+00
390  3.8900000000000D+00  0.0000000000000D+00  0.0000000000000D+00
391  3.9000000000000D+00  0.0000000000000D+00  0.0000000000000D+00
392  3.9100000000000D+00  0.0000000000000D+00  0.0000000000000D+00
393  3.9200000000000D+00  0.0000000000000D+00  0.0000000000000D+00
394  3.9300000000000D+00  0.0000000000000D+00  0.0000000000000D+00
395  3.9400000000000D+00  0.0000000000000D+00  0.0000000000000D+00
396  3.9500000000000D+00  0.0000000000000D+00  0.0000000000000D+00
397  3.9600000000000D+00  0.0000000000000D+00  0.0000000000000D+00
398  3.9700000000000D+00  0.0000000000000D+00  0.0000000000000D+00
399  3.9800000000000D+00  0.0000000000000D+00  0.0000000000000D+00
400  3.9900000000000D+00  0.0000000000000D+00  0.0000000000000D+00
401  4.0000000000000D+00  0.0000000000000D+00  0.0000000000000D+00
1                        -6.5630352088730D+00 -2.5886531776882D+00
1  0.0000000000000D+00  0.0000000000000D+00  0.0000000000000D+00
2  1.0000000000000D-02  1.9774603483714D-03  7.7891771905540D-04
3  2.0000000000000D-02  7.9010312434964D-03  3.1088984579811D-03
4  3.0000000000000D-02  1.7744314485487D-02  6.9696591823739D-03
5  4.0000000000000D-02  3.1463420536594D-02  1.2327508821031D-02
6  5.0000000000000D-02  4.8997129579622D-02  1.9135518958949D-02
7  6.0000000000000D-02  7.0267116726063D-02  2.7333762231470D-02
8  7.0000000000000D-02  9.5178241090486D-02  3.6849617835721D-02
9  8.0000000000000D-02  1.2361889835308D-01  4.7598143397377D-02
10  9.0000000000000D-02  1.5546143632658D-01  5.9482512244032D-02
11  1.0000000000000D-01  1.9056263292941D-01  7.2394514943042D-02
12  1.1000000000000D-01  2.2876423583284D-01  8.6215123751909D-02
13  1.2000000000000D-01  2.6989356290923D-01  1.0081511841549D-01
14  1.3000000000000D-01  3.1376416243850D-01  1.1605577150582D-01
15  1.4000000000000D-01  3.6017653187822D-01  1.3178959128393D-01
16  1.5000000000000D-01  4.0891889374759D-01  1.4786111974730D-01
17  1.6000000000000D-01  4.5976802706867D-01  1.6410778336545D-01
18  1.7000000000000D-01  5.1249015240411D-01  1.8036079355361D-01
19  1.8000000000000D-01  5.6684186851449D-01  1.9644609387326D-01
20  1.9000000000000D-01  6.2257113826130D-01  2.1218535051158D-01
21  2.0000000000000D-01  6.7941832092440D-01  2.2739698211952D-01
22  2.1000000000000D-01  7.3711724831378D-01  2.4189722525170D-01
23  2.2000000000000D-01  7.9539634114115D-01  2.5550123075433D-01
24  2.3000000000000D-01  8.5397976244568D-01  2.6802418672499D-01
25  2.4000000000000D-01  9.1258860384857D-01  2.7928246271166D-01
26  2.5000000000000D-01  9.7094210054515D-01  2.8909476994756D-01
27  2.6000000000000D-01  1.0287588713523D+00  2.9728333267013D-01
28  2.7000000000000D-01  1.0857581773986D+00  3.0367506331237D-01
29  2.8000000000000D-01  1.1416611956619D+00  3.0810273653767D-01
30  2.9000000000000D-01  1.1961923018017D+00  3.1040615556098D-01
31  3.0000000000000D-01  1.2490803562392D+00  3.1043330385234D-01
32  3.1000000000000D-01  1.3000599877259D+00  3.0804147556414D-01
33  3.2000000000000D-01  1.3488728681346D+00  3.0309837766713D-01
34  3.3000000000000D-01  1.3952689711070D+00  2.9548319661553D-01
35  3.4000000000000D-01  1.4390078135879D+00  2.8508762399204D-01
36  3.5000000000000D-01  1.4798596612788D+00  2.7181683043749D-01
37  3.6000000000000D-01  1.5176067078799D+00  2.5559038437734D-01
38  3.7000000000000D-01  1.5520442048010D+00  2.3634310741860D-01
39  3.8000000000000D-01  1.5829815477084D+00  2.1402585757436D-01
40  3.9000000000000D-01  1.6102433044712D+00  1.8860623539892D-01
41  4.0000000000000D-01  1.6336701818510D+00  1.6006920786209D-01
42  4.1000000000000D-01  1.6531199236146D+00  1.2841764057337D-01