Mg    ONCVPSP  r_core=  2.11  2.32
12.0000      2.0000      140818    zatom,zion,pspd
8    11     1     4   401     0    pspcod,pspxc,lmax,lloc,mmax,r2well
4.00000000  2.00000000  0.00000000    rchrg fchrg qchrg
2     2     0     0     0    nproj
0                 extension_switch
0                         3.8456576145369D+00  6.1475566861262D-01
1  0.0000000000000D+00  0.0000000000000D+00  0.0000000000000D+00
2  1.0000000000000D-02  8.8639152295493D-03  4.8210035596211D-02
3  2.0000000000000D-02  1.7465504150524D-02  9.6029781413338D-02
4  3.0000000000000D-02  2.5544988654283D-02  1.4307263495622D-01
5  4.0000000000000D-02  3.2847663319971D-02  1.8895933383425D-01
6  5.0000000000000D-02  3.9126372696318D-02  2.3332153997420D-01
7  6.0000000000000D-02  4.4143918318623D-02  2.7580532171680D-01
8  7.0000000000000D-02  4.7675373047139D-02  3.1607450123110D-01
9  8.0000000000000D-02  4.9510281172686D-02  3.5381383593692D-01
10  9.0000000000000D-02  4.9454723764612D-02  3.8873200412998D-01
11  1.0000000000000D-01  4.7333230033665D-02  4.2056436689905D-01
12  1.1000000000000D-01  4.2990516809997D-02  4.4907548036567D-01
13  1.2000000000000D-01  3.6293039915522D-02  4.7406133472800D-01
14  1.3000000000000D-01  2.7130342818188D-02  4.9535129894171D-01
15  1.4000000000000D-01  1.5416190125469D-02  5.1280975303372D-01
16  1.5000000000000D-01  1.0894748050165D-03  5.2633739199940D-01
17  1.6000000000000D-01 -1.5885108866069D-02  5.3587218975965D-01
18  1.7000000000000D-01 -3.5516633835641D-02  5.4139001282888D-01
19  1.8000000000000D-01 -5.7787753626373D-02  5.4290487897310D-01
20  1.9000000000000D-01 -8.2654763002923D-02  5.4046885737191D-01
21  2.0000000000000D-01 -1.1004790587556D-01  5.3417161057282D-01
22  2.1000000000000D-01 -1.3987192707233D-01  5.2413958327455D-01
23  2.2000000000000D-01 -1.7200686365665D-01  5.1053484441930D-01
24  2.3000000000000D-01 -2.0630906880704D-01  4.9355359290227D-01
25  2.4000000000000D-01 -2.4261245865753D-01  4.7342434105951D-01
26  2.5000000000000D-01 -2.8072996971733D-01  4.5040579410247D-01
27  2.6000000000000D-01 -3.2045521889403D-01  4.2478443725648D-01
28  2.7000000000000D-01 -3.6156434239946D-01  3.9687186531381D-01
29  2.8000000000000D-01 -4.0381800251005D-01  3.6700187075303D-01
30  2.9000000000000D-01 -4.4696354462745D-01  3.3552731612416D-01
31  3.0000000000000D-01 -4.9073728244323D-01  3.0281682312406D-01
32  3.1000000000000D-01 -5.3486689147918D-01  2.6925130717480D-01
33  3.2000000000000D-01 -5.7907388792734D-01  2.3522039116773D-01
34  3.3000000000000D-01 -6.2307614646440D-01  2.0111876566514D-01
35  3.4000000000000D-01 -6.6659054408331D-01  1.6734236971440D-01
36  3.5000000000000D-01 -7.0933546489885D-01  1.3428477628464D-01
37  3.6000000000000D-01 -7.5103349399466D-01  1.0233330751287D-01
38  3.7000000000000D-01 -7.9141387093648D-01  7.1865501276979D-02
39  3.8000000000000D-01 -8.3021506635287D-01  4.3245403569058D-02
40  3.9000000000000D-01 -8.6718719124847D-01  1.6820106685971D-02
41  4.0000000000000D-01 -9.0209429516802D-01 -7.0835480221295D-03
42  4.1000000000000D-01 -9.3471658119556D-01 -2.8162143064347D-02
43  4.2000000000000D-01 -9.6485246479824D-01 -4.6138627962475D-02
44  4.3000000000000D-01 -9.9232047005378D-01 -6.0765023354728D-02
45  4.4000000000000D-01 -1.0169609462990D+00 -7.1824861631894D-02
46  4.5000000000000D-01 -1.0386375894229D+00 -7.9135341446735D-02
47  4.6000000000000D-01 -1.0572387531031D+00 -8.2549175047527D-02
48  4.7000000000000D-01 -1.0726785364581D+00 -8.1956109143904D-02
49  4.8000000000000D-01 -1.0848976326539D+00 -7.7284097391331D-02
50  4.9000000000000D-01 -1.0938638846609D+00 -6.8500048525309D-02
51  5.0000000000000D-01 -1.0995728547105D+00 -5.5610585501868D-02
52  5.1000000000000D-01 -1.1020477409954D+00 -3.8661868129539D-02
53  5.2000000000000D-01 -1.1013392151185D+00 -1.7739298710379D-02
54  5.3000000000000D-01 -1.0975252780950D+00  7.0327585133982D-03
55  5.4000000000000D-01 -1.0907103851019D+00  3.5492297726139D-02
56  5.5000000000000D-01 -1.0810246429852D+00  6.7440894678716D-02
57  5.6000000000000D-01 -1.0686227750861D+00  1.0264527511932D-01
58  5.7000000000000D-01 -1.0536826359308D+00  1.4083950452521D-01
59  5.8000000000000D-01 -1.0364037886910D+00  1.8172712646965D-01
60  5.9000000000000D-01 -1.0170056759979D+00  2.2498383770753D-01
61  6.0000000000000D-01 -9.9572568420182D-01  2.7026036005726D-01
62  6.1000000000000D-01 -9.7281704125382D-01  3.1718551661501D-01
63  6.2000000000000D-01 -9.4854666192141D-01  3.6536938365140D-01
64  6.3000000000000D-01 -9.2319246428893D-01  4.1440723384373D-01
65  6.4000000000000D-01 -8.9704124894676D-01  4.6388260487658D-01
66  6.5000000000000D-01 -8.7038598996863D-01  5.1337125572959D-01
67  6.6000000000000D-01 -8.4352286829186D-01  5.6244548657461D-01
68  6.7000000000000D-01 -8.1674902769569D-01  6.1067737583548D-01
69  6.8000000000000D-01 -7.9036000763577D-01  6.5764249769631D-01
70  6.9000000000000D-01 -7.6464633631521D-01  7.0292486324356D-01
71  7.0000000000000D-01 -7.3989137010024D-01  7.4612001760275D-01
72  7.1000000000000D-01 -7.1636873134555D-01  7.8683872513843D-01
73  7.2000000000000D-01 -6.9433971972453D-01  8.2471068599215D-01
74  7.3000000000000D-01 -6.7405120837412D-01  8.5938753905797D-01
75  7.4000000000000D-01 -6.5573243132595D-01  8.9054746940763D-01
76  7.5000000000000D-01 -6.3959364009175D-01  9.1789708780010D-01
77  7.6000000000000D-01 -6.2582399113091D-01  9.4117442525669D-01
78  7.7000000000000D-01 -6.1458970070293D-01  9.6015153126049D-01
79  7.8000000000000D-01 -6.0603244859036D-01  9.7463670398157D-01
80  7.9000000000000D-01 -6.0026799620611D-01  9.8447640327941D-01
81  8.0000000000000D-01 -5.9738503166663D-01  9.8955682880237D-01
82  8.1000000000000D-01 -5.9744425226936D-01  9.8980514867674D-01
83  8.2000000000000D-01 -6.0047769261863D-01  9.8519036751970D-01
84  8.3000000000000D-01 -6.0648830442319D-01  9.7572382578763D-01
85  8.4000000000000D-01 -6.1544979176247D-01  9.6145932574954D-01
86  8.5000000000000D-01 -6.2730670340011D-01  9.4249288263823D-01
87  8.6000000000000D-01 -6.4197478152668D-01  9.1896210275870D-01
88  8.7000000000000D-01 -6.5934156413577D-01  8.9104519352647D-01
89  8.8000000000000D-01 -6.7926723608558D-01  8.5895961356137D-01
90  8.9000000000000D-01 -7.0158572175748D-01  8.2296037409208D-01
91  9.0000000000000D-01 -7.2610601009447D-01  7.8333800603450D-01
92  9.1000000000000D-01 -7.5261370067272D-01  7.4041621020939D-01
93  9.2000000000000D-01 -7.8087275732998D-01  6.9454921125915D-01
94  9.3000000000000D-01 -8.1062745374887D-01  6.4611883890304D-01
95  9.4000000000000D-01 -8.4160449329026D-01  5.9553136320343D-01
96  9.5000000000000D-01 -8.7351528332623D-01  5.4321411345108D-01
97  9.6000000000000D-01 -9.0605834239168D-01  4.8961191302632D-01
98  9.7000000000000D-01 -9.3892173244219D-01  4.3518350174008D-01
99  9.8000000000000D-01 -9.7178552086543D-01  3.8039790797727D-01
100  9.9000000000000D-01 -1.0043251499342D+00  3.2572943494375D-01
101  1.0000000000000D+00 -1.0362136314571D+00  2.7165454976465D-01
102  1.0100000000000D+00 -1.0671244294192D+00  2.1864764700632D-01
103  1.0200000000000D+00 -1.0967341932209D+00  1.6717707749895D-01
104  1.0300000000000D+00 -1.1247254073270D+00  1.1770131313901D-01
105  1.0400000000000D+00 -1.1507875300039D+00  7.0667373318503D-02
106  1.0500000000000D+00 -1.1746241606699D+00  2.6500243807041D-02
107  1.0600000000000D+00 -1.1959515181655D+00 -1.4394645543157D-02
108  1.0700000000000D+00 -1.2145019007755D+00 -5.1636450001410D-02
109  1.0800000000000D+00 -1.2300254544420D+00 -8.4871395701851D-02
110  1.0900000000000D+00 -1.2422908580968D+00 -1.1377368824302D-01
111  1.1000000000000D+00 -1.2510941066939D+00 -1.3805826110127D-01
112  1.1100000000000D+00 -1.2562531777734D+00 -1.5747277342930D-01
113  1.1200000000000D+00 -1.2576114832178D+00 -1.7180255356462D-01
114  1.1300000000000D+00 -1.2550355049066D+00 -1.8086707314895D-01
115  1.1400000000000D+00 -1.2484273738967D+00 -1.8453802874351D-01
116  1.1500000000000D+00 -1.2377153658529D+00 -1.8272536109807D-01
117  1.1600000000000D+00 -1.2228559067483D+00 -1.7538005733630D-01
118  1.1700000000000D+00 -1.2038327801446D+00 -1.6249293493480D-01
119  1.1800000000000D+00 -1.1806678034867D+00 -1.4410964404504D-01
120  1.1900000000000D+00 -1.1534084700759D+00 -1.2031281185329D-01
121  1.2000000000000D+00 -1.1221282789735D+00 -9.1222489763311D-02
122  1.2100000000000D+00 -1.0869352809905D+00 -5.7007971833135D-02
123  1.2200000000000D+00 -1.0479654894774D+00 -1.7878147746188D-02
124  1.2300000000000D+00 -1.0053779848681D+00  2.5925400162072D-02
125  1.2400000000000D+00 -9.5935956193291D-01  7.4122123446388D-02
126  1.2500000000000D+00 -9.1012420971489D-01  1.2639386374130D-01
127  1.2600000000000D+00 -8.5790422851280D-01  1.8239702025386D-01
128  1.2700000000000D+00 -8.0295393889826D-01  2.4175768646222D-01
129  1.2800000000000D+00 -7.4554852203235D-01  3.0407430769080D-01
130  1.2900000000000D+00 -6.8597658586647D-01  3.6892717441157D-01
131  1.3000000000000D+00 -6.2454294671234D-01  4.3587529649364D-01
132  1.3100000000000D+00 -5.6156338338280D-01  5.0446483390368D-01
133  1.3200000000000D+00 -4.9736331047204D-01  5.7422933228902D-01
134  1.3300000000000D+00 -4.3227559869620D-01  6.4469466202470D-01
135  1.3400000000000D+00 -3.6663440921763D-01  7.1538774462711D-01
136  1.3500000000000D+00 -3.0078173462025D-01  7.8582546313524D-01
137  1.3600000000000D+00 -2.3505161074596D-01  8.5554057785000D-01
138  1.3700000000000D+00 -1.6977717189651D-01  9.2406903358318D-01
139  1.3800000000000D+00 -1.0529144282285D-01  9.9094921779321D-01
140  1.3900000000000D+00 -4.1906300904736D-02  1.0557543210191D+00
141  1.4000000000000D+00  2.0062229116119D-02  1.1180526104017D+00
142  1.4100000000000D+00  8.0322109111285D-02  1.1774510191078D+00
143  1.4200000000000D+00  1.3859473819922D-01  1.2335781529343D+00
144  1.4300000000000D+00  1.9460674602377D-01  1.2860721494304D+00
145  1.4400000000000D+00  2.4812573116961D-01  1.3346341701697D+00
146  1.4500000000000D+00  2.9891276863260D-01  1.3789567967970D+00
147  1.4600000000000D+00  3.4677482685956D-01  1.4188024900369D+00
148  1.4700000000000D+00  3.9152717334758D-01  1.4539469455176D+00
149  1.4800000000000D+00  4.3300992488387D-01  1.4842039906382D+00
150  1.4900000000000D+00  4.7110048979743D-01  1.5094430975233D+00
151  1.5000000000000D+00  5.0567549239070D-01  1.5295339369236D+00
152  1.5100000000000D+00  5.3667262081183D-01  1.5444358673639D+00
153  1.5200000000000D+00  5.6401715340617D-01  1.5540914094792D+00
154  1.5300000000000D+00  5.8769482601168D-01  1.5585310393409D+00
155  1.5400000000000D+00  6.0768955136432D-01  1.5577834560248D+00
156  1.5500000000000D+00  6.2402754029176D-01  1.5519385743141D+00
157  1.5600000000000D+00  6.3675040186918D-01  1.5411085501941D+00
158  1.5700000000000D+00  6.4592386325184D-01  1.5254406052951D+00
159  1.5800000000000D+00  6.5164131468306D-01  1.5051204081353D+00
160  1.5900000000000D+00  6.5400640668179D-01  1.4803493578598D+00
161  1.6000000000000D+00  6.5315644336968D-01  1.4513739284305D+00
162  1.6100000000000D+00  6.4923041877141D-01  1.4184450600324D+00
163  1.6200000000000D+00  6.4240044971435D-01  1.3818556551173D+00
164  1.6300000000000D+00  6.3283711111501D-01  1.3418997855705D+00
165  1.6400000000000D+00  6.2073763183965D-01  1.2989016933129D+00
166  1.6500000000000D+00  6.0629918102288D-01  1.2531903680322D+00
167  1.6600000000000D+00  5.8973436213340D-01  1.2051064748985D+00
168  1.6700000000000D+00  5.7126076449927D-01  1.1550038690335D+00
169  1.6800000000000D+00  5.5109717324273D-01  1.1032258031696D+00
170  1.6900000000000D+00  5.2947420775718D-01  1.0501392915316D+00
171  1.7000000000000D+00  5.0660842860168D-01  9.9607747944003D-01
172  1.7100000000000D+00  4.8273610352852D-01  9.4140929263657D-01
173  1.7200000000000D+00  4.5806382404079D-01  8.8644611089083D-01
174  1.7300000000000D+00  4.3282500241236D-01  8.3154557052605D-01
175  1.7400000000000D+00  4.0721087549572D-01  7.7698976995111D-01
176  1.7500000000000D+00  3.8144308199507D-01  7.2311138141641D-01
177  1.7600000000000D+00  3.5569371393989D-01  6.7015806256434D-01
178  1.7700000000000D+00  3.3016384325275D-01  6.1842429448766D-01
179  1.7800000000000D+00  3.0500441197261D-01  5.6812087461166D-01
180  1.7900000000000D+00  2.8038761316948D-01  5.1949182825633D-01
181  1.8000000000000D+00  2.5644286873069D-01  4.7271113995733D-01
182  1.8100000000000D+00  2.3330627539292D-01  4.2796204796965D-01
183  1.8200000000000D+00  2.1108650283732D-01  3.8538341249142D-01
184  1.8300000000000D+00  1.8987824039758D-01  3.4509056072289D-01
185  1.8400000000000D+00  1.6977054819333D-01  3.0718933617806D-01
186  1.8500000000000D+00  1.5081421897492D-01  2.7172464779129D-01
187  1.8600000000000D+00  1.3307931206593D-01  2.3877043606271D-01
188  1.8700000000000D+00  1.1657442178116D-01  2.0830533932819D-01
189  1.8800000000000D+00  1.0134828631671D-01  1.8036792771741D-01
190  1.8900000000000D+00  8.7378863239823D-02  1.5488953643737D-01
191  1.9000000000000D+00  7.4676539317640D-02  1.3184852817906D-01
192  1.9100000000000D+00  6.3209516744691D-02  1.1116091401169D-01
193  1.9200000000000D+00  5.2948380971041D-02  9.2744583270293D-02
194  1.9300000000000D+00  4.3852899345681D-02  7.6501867096907D-02
195  1.9400000000000D+00  3.5862911469177D-02  6.2306243112990D-02
196  1.9500000000000D+00  2.8927747547982D-02  5.0042772604233D-02
197  1.9600000000000D+00  2.2970465338669D-02  3.9563333700842D-02
198  1.9700000000000D+00  1.7923559743784D-02  3.0727684665991D-02
199  1.9800000000000D+00  1.3707924848383D-02  2.3386873235836D-02
200  1.9900000000000D+00  1.0242430139211D-02  1.7384718048522D-02
201  2.0000000000000D+00  7.4471490052505D-03  1.2570492874624D-02
202  2.0100000000000D+00  5.2420557647260D-03  8.7977602335454D-03
203  2.0200000000000D+00  3.5398191851160D-03  5.9029838917994D-03
204  2.0300000000000D+00  2.2732825844594D-03  3.7672643740804D-03
205  2.0400000000000D+00  1.3568945691852D-03  2.2342896273849D-03
206  2.0500000000000D+00  7.2896976946904D-04  1.1949124046187D-03
207  2.0600000000000D+00  3.2592164828792D-04  5.3691820129916D-04
208  2.0700000000000D+00  7.9563262181473D-05  1.3920754981859D-04
209  2.0800000000000D+00 -4.2129194089175D-05 -5.1022705566757D-05
210  2.0900000000000D+00 -1.0866699727312D-04 -1.5278943118290D-04
211  2.1000000000000D+00 -1.2689993049841D-04 -1.7863986172830D-04
212  2.1100000000000D+00 -1.0551895125671D-04 -1.4609021921093D-04
213  2.1200000000000D+00 -6.0661694034758D-05 -8.4243531557541D-05
214  2.1300000000000D+00 -1.0825845271165D-05 -1.5062936137431D-05
215  2.1400000000000D+00  7.0801153873612D-06  9.7900902739869D-06
216  2.1500000000000D+00  5.6736634824290D-06  7.8453068401058D-06
217  2.1600000000000D+00  0.0000000000000D+00  0.0000000000000D+00
218  2.1700000000000D+00  0.0000000000000D+00  0.0000000000000D+00
219  2.1800000000000D+00  0.0000000000000D+00  0.0000000000000D+00
220  2.1900000000000D+00  0.0000000000000D+00  0.0000000000000D+00
221  2.2000000000000D+00  0.0000000000000D+00  0.0000000000000D+00
222  2.2100000000000D+00  0.0000000000000D+00  0.0000000000000D+00
223  2.2200000000000D+00  0.0000000000000D+00  0.0000000000000D+00
224  2.2300000000000D+00  0.0000000000000D+00  0.0000000000000D+00
225  2.2400000000000D+00  0.0000000000000D+00  0.0000000000000D+00
226  2.2500000000000D+00  0.0000000000000D+00  0.0000000000000D+00
227  2.2600000000000D+00  0.0000000000000D+00  0.0000000000000D+00
228  2.2700000000000D+00  0.0000000000000D+00  0.0000000000000D+00
229  2.2800000000000D+00  0.0000000000000D+00  0.0000000000000D+00
230  2.2900000000000D+00  0.0000000000000D+00  0.0000000000000D+00
231  2.3000000000000D+00  0.0000000000000D+00  0.0000000000000D+00
232  2.3100000000000D+00  0.0000000000000D+00  0.0000000000000D+00
233  2.3200000000000D+00  0.0000000000000D+00  0.0000000000000D+00
234  2.3300000000000D+00  0.0000000000000D+00  0.0000000000000D+00
235  2.3400000000000D+00  0.0000000000000D+00  0.0000000000000D+00
236  2.3500000000000D+00  0.0000000000000D+00  0.0000000000000D+00
237  2.3600000000000D+00  0.0000000000000D+00  0.0000000000000D+00
238  2.3700000000000D+00  0.0000000000000D+00  0.0000000000000D+00
239  2.3800000000000D+00  0.0000000000000D+00  0.0000000000000D+00
240  2.3900000000000D+00  0.0000000000000D+00  0.0000000000000D+00
241  2.4000000000000D+00  0.0000000000000D+00  0.0000000000000D+00
242  2.4100000000000D+00  0.0000000000000D+00  0.0000000000000D+00
243  2.4200000000000D+00  0.0000000000000D+00  0.0000000000000D+00
244  2.4300000000000D+00  0.0000000000000D+00  0.0000000000000D+00
245  2.4400000000000D+00  0.0000000000000D+00  0.0000000000000D+00
246  2.4500000000000D+00  0.0000000000000D+00  0.0000000000000D+00
247  2.4600000000000D+00  0.0000000000000D+00  0.0000000000000D+00
248  2.4700000000000D+00  0.0000000000000D+00  0.0000000000000D+00
249  2.4800000000000D+00  0.0000000000000D+00  0.0000000000000D+00
250  2.4900000000000D+00  0.0000000000000D+00  0.0000000000000D+00
251  2.5000000000000D+00  0.0000000000000D+00  0.0000000000000D+00
252  2.5100000000000D+00  0.0000000000000D+00  0.0000000000000D+00
253  2.5200000000000D+00  0.0000000000000D+00  0.0000000000000D+00
254  2.5300000000000D+00  0.0000000000000D+00  0.0000000000000D+00
255  2.5400000000000D+00  0.0000000000000D+00  0.0000000000000D+00
256  2.5500000000000D+00  0.0000000000000D+00  0.0000000000000D+00
257  2.5600000000000D+00  0.0000000000000D+00  0.0000000000000D+00
258  2.5700000000000D+00  0.0000000000000D+00  0.0000000000000D+00
259  2.5800000000000D+00  0.0000000000000D+00  0.0000000000000D+00
260  2.5900000000000D+00  0.0000000000000D+00  0.0000000000000D+00
261  2.6000000000000D+00  0.0000000000000D+00  0.0000000000000D+00
262  2.6100000000000D+00  0.0000000000000D+00  0.0000000000000D+00
263  2.6200000000000D+00  0.0000000000000D+00  0.0000000000000D+00
264  2.6300000000000D+00  0.0000000000000D+00  0.0000000000000D+00
265  2.6400000000000D+00  0.0000000000000D+00  0.0000000000000D+00
266  2.6500000000000D+00  0.0000000000000D+00  0.0000000000000D+00
267  2.6600000000000D+00  0.0000000000000D+00  0.0000000000000D+00
268  2.6700000000000D+00  0.0000000000000D+00  0.0000000000000D+00
269  2.6800000000000D+00  0.0000000000000D+00  0.0000000000000D+00
270  2.6900000000000D+00  0.0000000000000D+00  0.0000000000000D+00
271  2.7000000000000D+00  0.0000000000000D+00  0.0000000000000D+00
272  2.7100000000000D+00  0.0000000000000D+00  0.0000000000000D+00
273  2.7200000000000D+00  0.0000000000000D+00  0.0000000000000D+00
274  2.7300000000000D+00  0.0000000000000D+00  0.0000000000000D+00
275  2.7400000000000D+00  0.0000000000000D+00  0.0000000000000D+00
276  2.7500000000000D+00  0.0000000000000D+00  0.0000000000000D+00
277  2.7600000000000D+00  0.0000000000000D+00  0.0000000000000D+00
278  2.7700000000000D+00  0.0000000000000D+00  0.0000000000000D+00
279  2.7800000000000D+00  0.0000000000000D+00  0.0000000000000D+00
280  2.7900000000000D+00  0.0000000000000D+00  0.0000000000000D+00
281  2.8000000000000D+00  0.0000000000000D+00  0.0000000000000D+00
282  2.8100000000000D+00  0.0000000000000D+00  0.0000000000000D+00
283  2.8200000000000D+00  0.0000000000000D+00  0.0000000000000D+00
284  2.8300000000000D+00  0.0000000000000D+00  0.0000000000000D+00
285  2.8400000000000D+00  0.0000000000000D+00  0.0000000000000D+00
286  2.8500000000000D+00  0.0000000000000D+00  0.0000000000000D+00
287  2.8600000000000D+00  0.0000000000000D+00  0.0000000000000D+00
288  2.8700000000000D+00  0.0000000000000D+00  0.0000000000000D+00
289  2.8800000000000D+00  0.0000000000000D+00  0.0000000000000D+00
290  2.8900000000000D+00  0.0000000000000D+00  0.0000000000000D+00
291  2.9000000000000D+00  0.0000000000000D+00  0.0000000000000D+00
292  2.9100000000000D+00  0.0000000000000D+00  0.0000000000000D+00
293  2.9200000000000D+00  0.0000000000000D+00  0.0000000000000D+00
294  2.9300000000000D+00  0.0000000000000D+00  0.0000000000000D+00
295  2.9400000000000D+00  0.0000000000000D+00  0.0000000000000D+00
296  2.9500000000000D+00  0.0000000000000D+00  0.0000000000000D+00
297  2.9600000000000D+00  0.0000000000000D+00  0.0000000000000D+00
298  2.9700000000000D+00  0.0000000000000D+00  0.0000000000000D+00
299  2.9800000000000D+00  0.0000000000000D+00  0.0000000000000D+00
300  2.9900000000000D+00  0.0000000000000D+00  0.0000000000000D+00
301  3.0000000000000D+00  0.0000000000000D+00  0.0000000000000D+00
302  3.0100000000000D+00  0.0000000000000D+00  0.0000000000000D+00
303  3.0200000000000D+00  0.0000000000000D+00  0.0000000000000D+00
304  3.0300000000000D+00  0.0000000000000D+00  0.0000000000000D+00
305  3.0400000000000D+00  0.0000000000000D+00  0.0000000000000D+00
306  3.0500000000000D+00  0.0000000000000D+00  0.0000000000000D+00
307  3.0600000000000D+00  0.0000000000000D+00  0.0000000000000D+00
308  3.0700000000000D+00  0.0000000000000D+00  0.0000000000000D+00
309  3.0800000000000D+00  0.0000000000000D+00  0.0000000000000D+00
310  3.0900000000000D+00  0.0000000000000D+00  0.0000000000000D+00
311  3.1000000000000D+00  0.0000000000000D+00  0.0000000000000D+00
312  3.1100000000000D+00  0.0000000000000D+00  0.0000000000000D+00
313  3.1200000000000D+00  0.0000000000000D+00  0.0000000000000D+00
314  3.1300000000000D+00  0.0000000000000D+00  0.0000000000000D+00
315  3.1400000000000D+00  0.0000000000000D+00  0.0000000000000D+00
316  3.1500000000000D+00  0.0000000000000D+00  0.0000000000000D+00
317  3.1600000000000D+00  0.0000000000000D+00  0.0000000000000D+00
318  3.1700000000000D+00  0.0000000000000D+00  0.0000000000000D+00
319  3.1800000000000D+00  0.0000000000000D+00  0.0000000000000D+00
320  3.1900000000000D+00  0.0000000000000D+00  0.0000000000000D+00
321  3.2000000000000D+00  0.0000000000000D+00  0.0000000000000D+00
322  3.2100000000000D+00  0.0000000000000D+00  0.0000000000000D+00
323  3.2200000000000D+00  0.0000000000000D+00  0.0000000000000D+00
324  3.2300000000000D+00  0.0000000000000D+00  0.0000000000000D+00
325  3.2400000000000D+00  0.0000000000000D+00  0.0000000000000D+00
326  3.2500000000000D+00  0.0000000000000D+00  0.0000000000000D+00
327  3.2600000000000D+00  0.0000000000000D+00  0.0000000000000D+00
328  3.2700000000000D+00  0.0000000000000D+00  0.0000000000000D+00
329  3.2800000000000D+00  0.0000000000000D+00  0.0000000000000D+00
330  3.2900000000000D+00  0.0000000000000D+00  0.0000000000000D+00
331  3.3000000000000D+00  0.0000000000000D+00  0.0000000000000D+00
332  3.3100000000000D+00  0.0000000000000D+00  0.0000000000000D+00
333  3.3200000000000D+00  0.0000000000000D+00  0.0000000000000D+00
334  3.3300000000000D+00  0.0000000000000D+00  0.0000000000000D+00
335  3.3400000000000D+00  0.0000000000000D+00  0.0000000000000D+00
336  3.3500000000000D+00  0.0000000000000D+00  0.0000000000000D+00
337  3.3600000000000D+00  0.0000000000000D+00  0.0000000000000D+00
338  3.3700000000000D+00  0.0000000000000D+00  0.0000000000000D+00
339  3.3800000000000D+00  0.0000000000000D+00  0.0000000000000D+00
340  3.3900000000000D+00  0.0000000000000D+00  0.0000000000000D+00
341  3.4000000000000D+00  0.0000000000000D+00  0.0000000000000D+00
342  3.4100000000000D+00  0.0000000000000D+00  0.0000000000000D+00
343  3.4200000000000D+00  0.0000000000000D+00  0.0000000000000D+00
344  3.4300000000000D+00  0.0000000000000D+00  0.0000000000000D+00
345  3.4400000000000D+00  0.0000000000000D+00  0.0000000000000D+00
346  3.4500000000000D+00  0.0000000000000D+00  0.0000000000000D+00
347  3.4600000000000D+00  0.0000000000000D+00  0.0000000000000D+00
348  3.4700000000000D+00  0.0000000000000D+00  0.0000000000000D+00
349  3.4800000000000D+00  0.0000000000000D+00  0.0000000000000D+00
350  3.4900000000000D+00  0.0000000000000D+00  0.0000000000000D+00
351  3.5000000000000D+00  0.0000000000000D+00  0.0000000000000D+00
352  3.5100000000000D+00  0.0000000000000D+00  0.0000000000000D+00
353  3.5200000000000D+00  0.0000000000000D+00  0.0000000000000D+00
354  3.5300000000000D+00  0.0000000000000D+00  0.0000000000000D+00
355  3.5400000000000D+00  0.0000000000000D+00  0.0000000000000D+00
356  3.5500000000000D+00  0.0000000000000D+00  0.0000000000000D+00
357  3.5600000000000D+00  0.0000000000000D+00  0.0000000000000D+00
358  3.5700000000000D+00  0.0000000000000D+00  0.0000000000000D+00
359  3.5800000000000D+00  0.0000000000000D+00  0.0000000000000D+00
360  3.5900000000000D+00  0.0000000000000D+00  0.0000000000000D+00
361  3.6000000000000D+00  0.0000000000000D+00  0.0000000000000D+00
362  3.6100000000000D+00  0.0000000000000D+00  0.0000000000000D+00
363  3.6200000000000D+00  0.0000000000000D+00  0.0000000000000D+00
364  3.6300000000000D+00  0.0000000000000D+00  0.0000000000000D+00
365  3.6400000000000D+00  0.0000000000000D+00  0.0000000000000D+00
366  3.6500000000000D+00  0.0000000000000D+00  0.0000000000000D+00
367  3.6600000000000D+00  0.0000000000000D+00  0.0000000000000D+00
368  3.6700000000000D+00  0.0000000000000D+00  0.0000000000000D+00
369  3.6800000000000D+00  0.0000000000000D+00  0.0000000000000D+00
370  3.6900000000000D+00  0.0000000000000D+00  0.0000000000000D+00
371  3.7000000000000D+00  0.0000000000000D+00  0.0000000000000D+00
372  3.7100000000000D+00  0.0000000000000D+00  0.0000000000000D+00
373  3.7200000000000D+00  0.0000000000000D+00  0.0000000000000D+00
374  3.7300000000000D+00  0.0000000000000D+00  0.0000000000000D+00
375  3.7400000000000D+00  0.0000000000000D+00  0.0000000000000D+00
376  3.7500000000000D+00  0.0000000000000D+00  0.0000000000000D+00
377  3.7600000000000D+00  0.0000000000000D+00  0.0000000000000D+00
378  3.7700000000000D+00  0.0000000000000D+00  0.0000000000000D+00
379  3.7800000000000D+00  0.0000000000000D+00  0.0000000000000D+00
380  3.7900000000000D+00  0.0000000000000D+00  0.0000000000000D+00
381  3.8000000000000D+00  0.0000000000000D+00  0.0000000000000D+00
382  3.8100000000000D+00  0.0000000000000D+00  0.0000000000000D+00
383  3.8200000000000D+00  0.0000000000000D+00  0.0000000000000D+00
384  3.8300000000000D+00  0.0000000000000D+00  0.0000000000000D+00
385  3.8400000000000D+00  0.0000000000000D+00  0.0000000000000D+00
386  3.8500000000000D+00  0.0000000000000D+00  0.0000000000000D+00
387  3.8600000000000D+00  0.0000000000000D+00  0.0000000000000D+00
388  3.8700000000000D+00  0.0000000000000D+00  0.0000000000000D+00
389  3.8800000000000D+00  0.0000000000000D+00  0.0000000000000D+00
390  3.8900000000000D+00  0.0000000000000D+00  0.0000000000000D+00
391  3.9000000000000D+00  0.0000000000000D+00  0.0000000000000D+00
392  3.9100000000000D+00  0.0000000000000D+00  0.0000000000000D+00
393  3.9200000000000D+00  0.0000000000000D+00  0.0000000000000D+00
394  3.9300000000000D+00  0.0000000000000D+00  0.0000000000000D+00
395  3.9400000000000D+00  0.0000000000000D+00  0.0000000000000D+00
396  3.9500000000000D+00  0.0000000000000D+00  0.0000000000000D+00
397  3.9600000000000D+00  0.0000000000000D+00  0.0000000000000D+00
398  3.9700000000000D+00  0.0000000000000D+00  0.0000000000000D+00
399  3.9800000000000D+00  0.0000000000000D+00  0.0000000000000D+00
400  3.9900000000000D+00  0.0000000000000D+00  0.0000000000000D+00
401  4.0000000000000D+00  0.0000000000000D+00  0.0000000000000D+00
1                         2.5307058765221D+00  3.9240939299833D-01
1  0.0000000000000D+00  0.0000000000000D+00  0.0000000000000D+00
2  1.0000000000000D-02  1.2208140026433D-03  3.3082593803517D-04
3  2.0000000000000D-02  4.8700382566140D-03  1.3178732727891D-03
4  3.0000000000000D-02  1.0908144848009D-02  2.9449079398901D-03
5  4.0000000000000D-02  1.9269670593405D-02  5.1850638645509D-03
6  5.0000000000000D-02  2.9863838022641D-02  8.0011271026784D-03
7  6.0000000000000D-02  4.2575416738510D-02  1.1345929841294D-02
8  7.0000000000000D-02  5.7265817224127D-02  1.5162850503013D-02
9  8.0000000000000D-02  7.3774407027427D-02  1.9386415186372D-02
10  9.0000000000000D-02  9.1920037198656D-02  2.3942994703066D-02
11  1.0000000000000D-01  1.1150276492294D-01  2.8751590560082D-02
12  1.1000000000000D-01  1.3230575646444D-01  3.3724702374110D-02
13  1.2000000000000D-01  1.5409735288151D-01  3.8769268425727D-02
14  1.3000000000000D-01  1.7663327943723D-01  4.3787670340651D-02
15  1.4000000000000D-01  1.9965897836203D-01  4.8678792291039D-02
16  1.5000000000000D-01  2.2291204331181D-01  5.3339124500856D-02
17  1.6000000000000D-01  2.4612473317604D-01  5.7663900516571D-02
18  1.7000000000000D-01  2.6902654172798D-01  6.1548257177605D-02
19  1.8000000000000D-01  2.9134679959542D-01  6.4888406212497D-02
20  1.9000000000000D-01  3.1281728431765D-01  6.7582806072823D-02
21  2.0000000000000D-01  3.3317481397752D-01  6.9533322514530D-02
22  2.1000000000000D-01  3.5216380076946D-01  7.0646366832481D-02
23  2.2000000000000D-01  3.6953874027968D-01  7.0834000437658D-02
24  2.3000000000000D-01  3.8506661354320D-01  7.0014995051730D-02
25  2.4000000000000D-01  3.9852917909686D-01  6.8115837936909D-02
26  2.5000000000000D-01  4.0972513395244D-01  6.5071672377012D-02
27  2.6000000000000D-01  4.1847212237138D-01  6.0827163568036D-02
28  2.7000000000000D-01  4.2460857431181D-01  5.5337281699324D-02
29  2.8000000000000D-01  4.2799535583465D-01  4.8567994004308D-02
30  2.9000000000000D-01  4.2851721511753D-01  4.0496858332507D-02
31  3.0000000000000D-01  4.2608401048154D-01  3.1113512140560D-02
32  3.1000000000000D-01  4.2063170818929D-01  2.0420051417227D-02
33  3.2000000000000D-01  4.1212314038258D-01  8.4312953348404D-03
34  3.3000000000000D-01  4.0054852461467D-01 -4.8250622011421D-03
35  3.4000000000000D-01  3.8592569850532D-01 -1.9308436352418D-02
36  3.5000000000000D-01  3.6830015583412D-01 -3.4965427871639D-02
37  3.6000000000000D-01  3.4774474890679D-01 -5.1730057872887D-02
38  3.7000000000000D-01  3.2435922067663D-01 -6.9524080956231D-02
39  3.8000000000000D-01  2.9826940918141D-01 -8.8257452658163D-02
40  3.9000000000000D-01  2.6962624269370D-01 -1.0782889350420D-01
41  4.0000000000000D-01  2.3860450550644D-01 -1.2812655918826D-01
42  4.1000000000000D-01  2.0540135732159D-01 -1.4902882463764D-01