Be    ONCVPSP-3.3.0  r_core=   1.20427   1.05618
4.0000      4.0000      180112    zatom,zion,pspd
8 -116133   1     4   400     0    pspcod,pspxc,lmax,lloc,mmax,r2well
3.99000000  0.00000000  0.00000000    rchrg fchrg qchrg
2     2     0     0     0    nproj
1     1           extension_switch
0                        -9.5837855062045D+00 -3.3193318565535D+00
1  0.0000000000000D+00 -1.4361101197125D-10 -2.3886892464020D-10
2  1.0000000000000D-02  1.2186776152948D-01 -4.8631966267002D-02
3  2.0000000000000D-02  2.4322263952758D-01 -9.6795033203012D-02
4  3.0000000000000D-02  3.6355436899341D-01 -1.4402314966175D-01
5  4.0000000000000D-02  4.8235790899188D-01 -1.8985594984125D-01
6  5.0000000000000D-02  5.9913602223314D-01 -2.3384156832689D-01
7  6.0000000000000D-02  7.1340181580507D-01 -2.7553942179637D-01
8  7.0000000000000D-02  8.2468123027386D-01 -3.1452294597682D-01
9  8.0000000000000D-02  9.3251546451069D-01 -3.5038227620532D-01
10  9.0000000000000D-02  1.0364633237868D+00 -3.8272685966484D-01
11  1.0000000000000D-01  1.1361034789045D+00 -4.1118798706082D-01
12  1.1000000000000D-01  1.2310366244021D+00 -4.3542123118248D-01
13  1.2000000000000D-01  1.3208875241915D+00 -4.5510877947508D-01
14  1.3000000000000D-01  1.4053069333553D+00 -4.6996164745040D-01
15  1.4000000000000D-01  1.4839733852564D+00 -4.7972175950212D-01
16  1.5000000000000D-01  1.5565948335962D+00 -4.8416388348881D-01
17  1.6000000000000D-01  1.6229101395986D+00 -4.8309740531923D-01
18  1.7000000000000D-01  1.6826903951074D+00 -4.7636792974135D-01
19  1.8000000000000D-01  1.7357400730523D+00 -4.6385869361642D-01
20  1.9000000000000D-01  1.7818979974819D+00 -4.4549177816970D-01
21  2.0000000000000D-01  1.8210381261705D+00 -4.2122910706609D-01
22  2.1000000000000D-01  1.8530701396793D+00 -3.9107321767609D-01
23  2.2000000000000D-01  1.8779398317023D+00 -3.5506779358743D-01
24  2.3000000000000D-01  1.8956292965367D+00 -3.1329794728953D-01
25  2.4000000000000D-01  1.9061569105985D+00 -2.6589024301915D-01
26  2.5000000000000D-01  1.9095771060393D+00 -2.1301245100974D-01
27  2.6000000000000D-01  1.9059799357198D+00 -1.5487302583473D-01
28  2.7000000000000D-01  1.8954904300408D+00 -9.1720303173888D-02
29  2.8000000000000D-01  1.8782677474267D+00 -2.3841411156150D-02
30  2.9000000000000D-01  1.8545041215843D+00  4.8439105568597D-02
31  3.0000000000000D-01  1.8244236100198D+00  1.2476094871392D-01
32  3.1000000000000D-01  1.7882806496732D+00  2.0473001357471D-01
33  3.2000000000000D-01  1.7463584269125D+00  2.8792061552139D-01
34  3.3000000000000D-01  1.6989670705150D+00  3.7387798817527D-01
35  3.4000000000000D-01  1.6464416776262D+00  4.6212104305425D-01
36  3.5000000000000D-01  1.5891401840251D+00  5.5214537781272D-01
37  3.6000000000000D-01  1.5274410913222D+00  6.4342651751501D-01
38  3.7000000000000D-01  1.4617410649538D+00  7.3542337071089D-01
39  3.8000000000000D-01  1.3924524180117D+00  8.2758187945766D-01
40  3.9000000000000D-01  1.3200004970347D+00  9.1933883989161D-01
41  4.0000000000000D-01  1.2448209868811D+00  1.0101258675269D+00
42  4.1000000000000D-01  1.1673571526861D+00  1.0993734791882D+00
43  4.2000000000000D-01  1.0880570376726D+00  1.1865152613992D+00
44  4.3000000000000D-01  1.0073706362077D+00  1.2709920931856D+00
45  4.4000000000000D-01  9.2574706198961D-01  1.3522563896424D+00
46  4.5000000000000D-01  8.4363173157548D-01  1.4297763312899D+00
47  4.6000000000000D-01  7.6146358363275D-01  1.5030400432274D+00
48  4.7000000000000D-01  6.7967235429781D-01  1.5715596874196D+00
49  4.8000000000000D-01  5.9867592885064D-01  1.6348754311255D+00
50  4.9000000000000D-01  5.1887778956374D-01  1.6925592545395D+00
51  5.0000000000000D-01  4.4066457905202D-01  1.7442185611548D+00
52  5.1000000000000D-01  3.6440379773994D-01  1.7894995552009D+00
53  5.2000000000000D-01  2.9044165317350D-01  1.8280903517454D+00
54  5.3000000000000D-01  2.1910107784264D-01  1.8597237866980D+00
55  5.4000000000000D-01  1.5067993095110D-01  1.8841798959809D+00
56  5.5000000000000D-01  8.5449398180180D-02  1.9012880355586D+00
57  5.6000000000000D-01  2.3652601955682D-02  1.9109286167967D+00
58  5.7000000000000D-01 -3.4496566949288D-02  1.9130344347581D+00
59  5.8000000000000D-01 -8.8814387444152D-02  1.9075915704915D+00
60  5.9000000000000D-01 -1.3914800865887D-01  1.8946398521086D+00
61  6.0000000000000D-01 -1.8537590786823D-01  1.8742728634449D+00
62  6.1000000000000D-01 -2.2740810275372D-01  1.8466374933031D+00
63  6.2000000000000D-01 -2.6518611708002D-01  1.8119330226620D+00
64  6.3000000000000D-01 -2.9868270103113D-01  1.7704097517525D+00
65  6.4000000000000D-01 -3.2790130961319D-01  1.7223671734692D+00
66  6.5000000000000D-01 -3.5287534470526D-01  1.6681517042234D+00
67  6.6000000000000D-01 -3.7366716846646D-01  1.6081539879284D+00
68  6.7000000000000D-01 -3.9036689787817D-01  1.5428057933074D+00
69  6.8000000000000D-01 -4.0309099221108D-01  1.4725765291240D+00
70  6.9000000000000D-01 -4.1198064710091D-01  1.3979694061225D+00
71  7.0000000000000D-01 -4.1720001070096D-01  1.3195172784366D+00
72  7.1000000000000D-01 -4.1893423902136D-01  1.2377782009069D+00
73  7.2000000000000D-01 -4.1738740905369D-01  1.1533307421124D+00
74  7.3000000000000D-01 -4.1278030958492D-01  1.0667690958878D+00
75  7.4000000000000D-01 -4.0534813072504D-01  9.7869803666890D-01
76  7.5000000000000D-01 -3.9533807408536D-01  8.8972776611558D-01
77  7.6000000000000D-01 -3.8300690624048D-01  8.0046870008802D-01
78  7.7000000000000D-01 -3.6861847857870D-01  7.1152624617207D-01
79  7.8000000000000D-01 -3.5244123688091D-01  6.2349562252948D-01
80  7.9000000000000D-01 -3.3474574396722D-01  5.3695676888847D-01
81  8.0000000000000D-01 -3.1580223850939D-01  4.5246939997286D-01
82  8.1000000000000D-01 -2.9587825262619D-01  3.7056825059212D-01
83  8.2000000000000D-01 -2.7523631016153D-01  2.9175855998639D-01
84  8.3000000000000D-01 -2.5413172659819D-01  2.1651184084855D-01
85  8.4000000000000D-01 -2.3281053039061D-01  1.4526197574834D-01
86  8.5000000000000D-01 -2.1150752412078D-01  7.8401680484440D-02
87  8.6000000000000D-01 -1.9044450230496D-01  1.6279370219769D-02
88  8.7000000000000D-01 -1.6982864092161D-01 -4.0803539851546D-02
89  8.8000000000000D-01 -1.4985107181099D-01 -9.2594872057676D-02
90  8.9000000000000D-01 -1.3068565303503D-01 -1.3889343962360D-01
91  9.0000000000000D-01 -1.1248794410296D-01 -1.7955029861113D-01
92  9.1000000000000D-01 -9.5394392689499D-02 -2.1446948655334D-01
93  9.2000000000000D-01 -7.9521737120759D-02 -2.4360824147741D-01
94  9.3000000000000D-01 -6.4966628546534D-02 -2.6697669366613D-01
95  9.4000000000000D-01 -5.1805465159425D-02 -2.8463706042035D-01
96  9.5000000000000D-01 -4.0094412781696D-02 -2.9670242844089D-01
97  9.6000000000000D-01 -2.9869792534256D-02 -3.0333451225966D-01
98  9.7000000000000D-01 -2.1147649675601D-02 -3.0474445190017D-01
99  9.8000000000000D-01 -1.3918594456039D-02 -3.0120991211470D-01
100  9.9000000000000D-01 -8.1403354090971D-03 -2.9309932564595D-01
101  1.0000000000000D+00 -3.7358611990759D-03 -2.8087630125685D-01
102  1.0100000000000D+00 -5.9412798710556D-04 -2.6509565209211D-01
103  1.0200000000000D+00  1.4275150947570D-03 -2.4639405278142D-01
104  1.0300000000000D+00  2.4983229829136D-03 -2.2547267063273D-01
105  1.0400000000000D+00  2.8065211820654D-03 -2.0307184574192D-01
106  1.0500000000000D+00  2.5492932588158D-03 -1.7993883847435D-01
107  1.0600000000000D+00  1.9211495799890D-03 -1.5679124535256D-01
108  1.0700000000000D+00  1.1019077678779D-03 -1.3428007721473D-01
109  1.0800000000000D+00  2.4578319024734D-04 -1.1295720887044D-01
110  1.0900000000000D+00 -5.2695264434275D-04 -9.3251630760248D-02
111  1.1000000000000D+00 -1.1345653199277D-03 -7.5457937362459D-02
112  1.1100000000000D+00 -1.5341629348285D-03 -5.9738368353374D-02
113  1.1200000000000D+00 -1.7179819833595D-03 -4.6137192070702D-02
114  1.1300000000000D+00 -1.7065372886993D-03 -3.4604366318320D-02
115  1.1400000000000D+00 -1.5399390238487D-03 -2.5024207795424D-02
116  1.1500000000000D+00 -1.2689289268048D-03 -1.7244164593933D-02
117  1.1600000000000D+00 -9.4688715251550D-04 -1.1099884044708D-02
118  1.1700000000000D+00 -6.2398237987839D-04 -6.4360733537966D-03
119  1.1800000000000D+00 -3.4027936680978D-04 -3.0986856962308D-03
120  1.1900000000000D+00 -1.3459019351786D-04 -1.0045030428764D-03
121  1.2000000000000D+00 -3.4204280003927D-05 -7.1522372549060D-05
122  1.2100000000000D+00 -3.4148758147552D-06  9.1366110976815D-05
123  1.2200000000000D+00 -1.9564566545408D-08 -8.2238243817926D-06
124  1.2300000000000D+00 -2.3274873021531D-07 -1.3304470506347D-05
125  1.2400000000000D+00 -4.0974198358430D-08  4.5602042523825D-06
126  1.2500000000000D+00  1.9387200308620D-08 -7.8976956267806D-08
127  1.2600000000000D+00  2.5813821760102D-08 -1.0515685812284D-07
128  1.2700000000000D+00  0.0000000000000D+00  0.0000000000000D+00
129  1.2800000000000D+00  0.0000000000000D+00  0.0000000000000D+00
130  1.2900000000000D+00  0.0000000000000D+00  0.0000000000000D+00
131  1.3000000000000D+00  0.0000000000000D+00  0.0000000000000D+00
132  1.3100000000000D+00  0.0000000000000D+00  0.0000000000000D+00
133  1.3200000000000D+00  0.0000000000000D+00  0.0000000000000D+00
134  1.3300000000000D+00  0.0000000000000D+00  0.0000000000000D+00
135  1.3400000000000D+00  0.0000000000000D+00  0.0000000000000D+00
136  1.3500000000000D+00  0.0000000000000D+00  0.0000000000000D+00
137  1.3600000000000D+00  0.0000000000000D+00  0.0000000000000D+00
138  1.3700000000000D+00  0.0000000000000D+00  0.0000000000000D+00
139  1.3800000000000D+00  0.0000000000000D+00  0.0000000000000D+00
140  1.3900000000000D+00  0.0000000000000D+00  0.0000000000000D+00
141  1.4000000000000D+00  0.0000000000000D+00  0.0000000000000D+00
142  1.4100000000000D+00  0.0000000000000D+00  0.0000000000000D+00
143  1.4200000000000D+00  0.0000000000000D+00  0.0000000000000D+00
144  1.4300000000000D+00  0.0000000000000D+00  0.0000000000000D+00
145  1.4400000000000D+00  0.0000000000000D+00  0.0000000000000D+00
146  1.4500000000000D+00  0.0000000000000D+00  0.0000000000000D+00
147  1.4600000000000D+00  0.0000000000000D+00  0.0000000000000D+00
148  1.4700000000000D+00  0.0000000000000D+00  0.0000000000000D+00
149  1.4800000000000D+00  0.0000000000000D+00  0.0000000000000D+00
150  1.4900000000000D+00  0.0000000000000D+00  0.0000000000000D+00
151  1.5000000000000D+00  0.0000000000000D+00  0.0000000000000D+00
152  1.5100000000000D+00  0.0000000000000D+00  0.0000000000000D+00
153  1.5200000000000D+00  0.0000000000000D+00  0.0000000000000D+00
154  1.5300000000000D+00  0.0000000000000D+00  0.0000000000000D+00
155  1.5400000000000D+00  0.0000000000000D+00  0.0000000000000D+00
156  1.5500000000000D+00  0.0000000000000D+00  0.0000000000000D+00
157  1.5600000000000D+00  0.0000000000000D+00  0.0000000000000D+00
158  1.5700000000000D+00  0.0000000000000D+00  0.0000000000000D+00
159  1.5800000000000D+00  0.0000000000000D+00  0.0000000000000D+00
160  1.5900000000000D+00  0.0000000000000D+00  0.0000000000000D+00
161  1.6000000000000D+00  0.0000000000000D+00  0.0000000000000D+00
162  1.6100000000000D+00  0.0000000000000D+00  0.0000000000000D+00
163  1.6200000000000D+00  0.0000000000000D+00  0.0000000000000D+00
164  1.6300000000000D+00  0.0000000000000D+00  0.0000000000000D+00
165  1.6400000000000D+00  0.0000000000000D+00  0.0000000000000D+00
166  1.6500000000000D+00  0.0000000000000D+00  0.0000000000000D+00
167  1.6600000000000D+00  0.0000000000000D+00  0.0000000000000D+00
168  1.6700000000000D+00  0.0000000000000D+00  0.0000000000000D+00
169  1.6800000000000D+00  0.0000000000000D+00  0.0000000000000D+00
170  1.6900000000000D+00  0.0000000000000D+00  0.0000000000000D+00
171  1.7000000000000D+00  0.0000000000000D+00  0.0000000000000D+00
172  1.7100000000000D+00  0.0000000000000D+00  0.0000000000000D+00
173  1.7200000000000D+00  0.0000000000000D+00  0.0000000000000D+00
174  1.7300000000000D+00  0.0000000000000D+00  0.0000000000000D+00
175  1.7400000000000D+00  0.0000000000000D+00  0.0000000000000D+00
176  1.7500000000000D+00  0.0000000000000D+00  0.0000000000000D+00
177  1.7600000000000D+00  0.0000000000000D+00  0.0000000000000D+00
178  1.7700000000000D+00  0.0000000000000D+00  0.0000000000000D+00
179  1.7800000000000D+00  0.0000000000000D+00  0.0000000000000D+00
180  1.7900000000000D+00  0.0000000000000D+00  0.0000000000000D+00
181  1.8000000000000D+00  0.0000000000000D+00  0.0000000000000D+00
182  1.8100000000000D+00  0.0000000000000D+00  0.0000000000000D+00
183  1.8200000000000D+00  0.0000000000000D+00  0.0000000000000D+00
184  1.8300000000000D+00  0.0000000000000D+00  0.0000000000000D+00
185  1.8400000000000D+00  0.0000000000000D+00  0.0000000000000D+00
186  1.8500000000000D+00  0.0000000000000D+00  0.0000000000000D+00
187  1.8600000000000D+00  0.0000000000000D+00  0.0000000000000D+00
188  1.8700000000000D+00  0.0000000000000D+00  0.0000000000000D+00
189  1.8800000000000D+00  0.0000000000000D+00  0.0000000000000D+00
190  1.8900000000000D+00  0.0000000000000D+00  0.0000000000000D+00
191  1.9000000000000D+00  0.0000000000000D+00  0.0000000000000D+00
192  1.9100000000000D+00  0.0000000000000D+00  0.0000000000000D+00
193  1.9200000000000D+00  0.0000000000000D+00  0.0000000000000D+00
194  1.9300000000000D+00  0.0000000000000D+00  0.0000000000000D+00
195  1.9400000000000D+00  0.0000000000000D+00  0.0000000000000D+00
196  1.9500000000000D+00  0.0000000000000D+00  0.0000000000000D+00
197  1.9600000000000D+00  0.0000000000000D+00  0.0000000000000D+00
198  1.9700000000000D+00  0.0000000000000D+00  0.0000000000000D+00
199  1.9800000000000D+00  0.0000000000000D+00  0.0000000000000D+00
200  1.9900000000000D+00  0.0000000000000D+00  0.0000000000000D+00
201  2.0000000000000D+00  0.0000000000000D+00  0.0000000000000D+00
202  2.0100000000000D+00  0.0000000000000D+00  0.0000000000000D+00
203  2.0200000000000D+00  0.0000000000000D+00  0.0000000000000D+00
204  2.0300000000000D+00  0.0000000000000D+00  0.0000000000000D+00
205  2.0400000000000D+00  0.0000000000000D+00  0.0000000000000D+00
206  2.0500000000000D+00  0.0000000000000D+00  0.0000000000000D+00
207  2.0600000000000D+00  0.0000000000000D+00  0.0000000000000D+00
208  2.0700000000000D+00  0.0000000000000D+00  0.0000000000000D+00
209  2.0800000000000D+00  0.0000000000000D+00  0.0000000000000D+00
210  2.0900000000000D+00  0.0000000000000D+00  0.0000000000000D+00
211  2.1000000000000D+00  0.0000000000000D+00  0.0000000000000D+00
212  2.1100000000000D+00  0.0000000000000D+00  0.0000000000000D+00
213  2.1200000000000D+00  0.0000000000000D+00  0.0000000000000D+00
214  2.1300000000000D+00  0.0000000000000D+00  0.0000000000000D+00
215  2.1400000000000D+00  0.0000000000000D+00  0.0000000000000D+00
216  2.1500000000000D+00  0.0000000000000D+00  0.0000000000000D+00
217  2.1600000000000D+00  0.0000000000000D+00  0.0000000000000D+00
218  2.1700000000000D+00  0.0000000000000D+00  0.0000000000000D+00
219  2.1800000000000D+00  0.0000000000000D+00  0.0000000000000D+00
220  2.1900000000000D+00  0.0000000000000D+00  0.0000000000000D+00
221  2.2000000000000D+00  0.0000000000000D+00  0.0000000000000D+00
222  2.2100000000000D+00  0.0000000000000D+00  0.0000000000000D+00
223  2.2200000000000D+00  0.0000000000000D+00  0.0000000000000D+00
224  2.2300000000000D+00  0.0000000000000D+00  0.0000000000000D+00
225  2.2400000000000D+00  0.0000000000000D+00  0.0000000000000D+00
226  2.2500000000000D+00  0.0000000000000D+00  0.0000000000000D+00
227  2.2600000000000D+00  0.0000000000000D+00  0.0000000000000D+00
228  2.2700000000000D+00  0.0000000000000D+00  0.0000000000000D+00
229  2.2800000000000D+00  0.0000000000000D+00  0.0000000000000D+00
230  2.2900000000000D+00  0.0000000000000D+00  0.0000000000000D+00
231  2.3000000000000D+00  0.0000000000000D+00  0.0000000000000D+00
232  2.3100000000000D+00  0.0000000000000D+00  0.0000000000000D+00
233  2.3200000000000D+00  0.0000000000000D+00  0.0000000000000D+00
234  2.3300000000000D+00  0.0000000000000D+00  0.0000000000000D+00
235  2.3400000000000D+00  0.0000000000000D+00  0.0000000000000D+00
236  2.3500000000000D+00  0.0000000000000D+00  0.0000000000000D+00
237  2.3600000000000D+00  0.0000000000000D+00  0.0000000000000D+00
238  2.3700000000000D+00  0.0000000000000D+00  0.0000000000000D+00
239  2.3800000000000D+00  0.0000000000000D+00  0.0000000000000D+00
240  2.3900000000000D+00  0.0000000000000D+00  0.0000000000000D+00
241  2.4000000000000D+00  0.0000000000000D+00  0.0000000000000D+00
242  2.4100000000000D+00  0.0000000000000D+00  0.0000000000000D+00
243  2.4200000000000D+00  0.0000000000000D+00  0.0000000000000D+00
244  2.4300000000000D+00  0.0000000000000D+00  0.0000000000000D+00
245  2.4400000000000D+00  0.0000000000000D+00  0.0000000000000D+00
246  2.4500000000000D+00  0.0000000000000D+00  0.0000000000000D+00
247  2.4600000000000D+00  0.0000000000000D+00  0.0000000000000D+00
248  2.4700000000000D+00  0.0000000000000D+00  0.0000000000000D+00
249  2.4800000000000D+00  0.0000000000000D+00  0.0000000000000D+00
250  2.4900000000000D+00  0.0000000000000D+00  0.0000000000000D+00
251  2.5000000000000D+00  0.0000000000000D+00  0.0000000000000D+00
252  2.5100000000000D+00  0.0000000000000D+00  0.0000000000000D+00
253  2.5200000000000D+00  0.0000000000000D+00  0.0000000000000D+00
254  2.5300000000000D+00  0.0000000000000D+00  0.0000000000000D+00
255  2.5400000000000D+00  0.0000000000000D+00  0.0000000000000D+00
256  2.5500000000000D+00  0.0000000000000D+00  0.0000000000000D+00
257  2.5600000000000D+00  0.0000000000000D+00  0.0000000000000D+00
258  2.5700000000000D+00  0.0000000000000D+00  0.0000000000000D+00
259  2.5800000000000D+00  0.0000000000000D+00  0.0000000000000D+00
260  2.5900000000000D+00  0.0000000000000D+00  0.0000000000000D+00
261  2.6000000000000D+00  0.0000000000000D+00  0.0000000000000D+00
262  2.6100000000000D+00  0.0000000000000D+00  0.0000000000000D+00
263  2.6200000000000D+00  0.0000000000000D+00  0.0000000000000D+00
264  2.6300000000000D+00  0.0000000000000D+00  0.0000000000000D+00
265  2.6400000000000D+00  0.0000000000000D+00  0.0000000000000D+00
266  2.6500000000000D+00  0.0000000000000D+00  0.0000000000000D+00
267  2.6600000000000D+00  0.0000000000000D+00  0.0000000000000D+00
268  2.6700000000000D+00  0.0000000000000D+00  0.0000000000000D+00
269  2.6800000000000D+00  0.0000000000000D+00  0.0000000000000D+00
270  2.6900000000000D+00  0.0000000000000D+00  0.0000000000000D+00
271  2.7000000000000D+00  0.0000000000000D+00  0.0000000000000D+00
272  2.7100000000000D+00  0.0000000000000D+00  0.0000000000000D+00
273  2.7200000000000D+00  0.0000000000000D+00  0.0000000000000D+00
274  2.7300000000000D+00  0.0000000000000D+00  0.0000000000000D+00
275  2.7400000000000D+00  0.0000000000000D+00  0.0000000000000D+00
276  2.7500000000000D+00  0.0000000000000D+00  0.0000000000000D+00
277  2.7600000000000D+00  0.0000000000000D+00  0.0000000000000D+00
278  2.7700000000000D+00  0.0000000000000D+00  0.0000000000000D+00
279  2.7800000000000D+00  0.0000000000000D+00  0.0000000000000D+00
280  2.7900000000000D+00  0.0000000000000D+00  0.0000000000000D+00
281  2.8000000000000D+00  0.0000000000000D+00  0.0000000000000D+00
282  2.8100000000000D+00  0.0000000000000D+00  0.0000000000000D+00
283  2.8200000000000D+00  0.0000000000000D+00  0.0000000000000D+00
284  2.8300000000000D+00  0.0000000000000D+00  0.0000000000000D+00
285  2.8400000000000D+00  0.0000000000000D+00  0.0000000000000D+00
286  2.8500000000000D+00  0.0000000000000D+00  0.0000000000000D+00
287  2.8600000000000D+00  0.0000000000000D+00  0.0000000000000D+00
288  2.8700000000000D+00  0.0000000000000D+00  0.0000000000000D+00
289  2.8800000000000D+00  0.0000000000000D+00  0.0000000000000D+00
290  2.8900000000000D+00  0.0000000000000D+00  0.0000000000000D+00
291  2.9000000000000D+00  0.0000000000000D+00  0.0000000000000D+00
292  2.9100000000000D+00  0.0000000000000D+00  0.0000000000000D+00
293  2.9200000000000D+00  0.0000000000000D+00  0.0000000000000D+00
294  2.9300000000000D+00  0.0000000000000D+00  0.0000000000000D+00
295  2.9400000000000D+00  0.0000000000000D+00  0.0000000000000D+00
296  2.9500000000000D+00  0.0000000000000D+00  0.0000000000000D+00
297  2.9600000000000D+00  0.0000000000000D+00  0.0000000000000D+00
298  2.9700000000000D+00  0.0000000000000D+00  0.0000000000000D+00
299  2.9800000000000D+00  0.0000000000000D+00  0.0000000000000D+00
300  2.9900000000000D+00  0.0000000000000D+00  0.0000000000000D+00
301  3.0000000000000D+00  0.0000000000000D+00  0.0000000000000D+00
302  3.0100000000000D+00  0.0000000000000D+00  0.0000000000000D+00
303  3.0200000000000D+00  0.0000000000000D+00  0.0000000000000D+00
304  3.0300000000000D+00  0.0000000000000D+00  0.0000000000000D+00
305  3.0400000000000D+00  0.0000000000000D+00  0.0000000000000D+00
306  3.0500000000000D+00  0.0000000000000D+00  0.0000000000000D+00
307  3.0600000000000D+00  0.0000000000000D+00  0.0000000000000D+00
308  3.0700000000000D+00  0.0000000000000D+00  0.0000000000000D+00
309  3.0800000000000D+00  0.0000000000000D+00  0.0000000000000D+00
310  3.0900000000000D+00  0.0000000000000D+00  0.0000000000000D+00
311  3.1000000000000D+00  0.0000000000000D+00  0.0000000000000D+00
312  3.1100000000000D+00  0.0000000000000D+00  0.0000000000000D+00
313  3.1200000000000D+00  0.0000000000000D+00  0.0000000000000D+00
314  3.1300000000000D+00  0.0000000000000D+00  0.0000000000000D+00
315  3.1400000000000D+00  0.0000000000000D+00  0.0000000000000D+00
316  3.1500000000000D+00  0.0000000000000D+00  0.0000000000000D+00
317  3.1600000000000D+00  0.0000000000000D+00  0.0000000000000D+00
318  3.1700000000000D+00  0.0000000000000D+00  0.0000000000000D+00
319  3.1800000000000D+00  0.0000000000000D+00  0.0000000000000D+00
320  3.1900000000000D+00  0.0000000000000D+00  0.0000000000000D+00
321  3.2000000000000D+00  0.0000000000000D+00  0.0000000000000D+00
322  3.2100000000000D+00  0.0000000000000D+00  0.0000000000000D+00
323  3.2200000000000D+00  0.0000000000000D+00  0.0000000000000D+00
324  3.2300000000000D+00  0.0000000000000D+00  0.0000000000000D+00
325  3.2400000000000D+00  0.0000000000000D+00  0.0000000000000D+00
326  3.2500000000000D+00  0.0000000000000D+00  0.0000000000000D+00
327  3.2600000000000D+00  0.0000000000000D+00  0.0000000000000D+00
328  3.2700000000000D+00  0.0000000000000D+00  0.0000000000000D+00
329  3.2800000000000D+00  0.0000000000000D+00  0.0000000000000D+00
330  3.2900000000000D+00  0.0000000000000D+00  0.0000000000000D+00
331  3.3000000000000D+00  0.0000000000000D+00  0.0000000000000D+00
332  3.3100000000000D+00  0.0000000000000D+00  0.0000000000000D+00
333  3.3200000000000D+00  0.0000000000000D+00  0.0000000000000D+00
334  3.3300000000000D+00  0.0000000000000D+00  0.0000000000000D+00
335  3.3400000000000D+00  0.0000000000000D+00  0.0000000000000D+00
336  3.3500000000000D+00  0.0000000000000D+00  0.0000000000000D+00
337  3.3600000000000D+00  0.0000000000000D+00  0.0000000000000D+00
338  3.3700000000000D+00  0.0000000000000D+00  0.0000000000000D+00
339  3.3800000000000D+00  0.0000000000000D+00  0.0000000000000D+00
340  3.3900000000000D+00  0.0000000000000D+00  0.0000000000000D+00
341  3.4000000000000D+00  0.0000000000000D+00  0.0000000000000D+00
342  3.4100000000000D+00  0.0000000000000D+00  0.0000000000000D+00
343  3.4200000000000D+00  0.0000000000000D+00  0.0000000000000D+00
344  3.4300000000000D+00  0.0000000000000D+00  0.0000000000000D+00
345  3.4400000000000D+00  0.0000000000000D+00  0.0000000000000D+00
346  3.4500000000000D+00  0.0000000000000D+00  0.0000000000000D+00
347  3.4600000000000D+00  0.0000000000000D+00  0.0000000000000D+00
348  3.4700000000000D+00  0.0000000000000D+00  0.0000000000000D+00
349  3.4800000000000D+00  0.0000000000000D+00  0.0000000000000D+00
350  3.4900000000000D+00  0.0000000000000D+00  0.0000000000000D+00
351  3.5000000000000D+00  0.0000000000000D+00  0.0000000000000D+00
352  3.5100000000000D+00  0.0000000000000D+00  0.0000000000000D+00
353  3.5200000000000D+00  0.0000000000000D+00  0.0000000000000D+00
354  3.5300000000000D+00  0.0000000000000D+00  0.0000000000000D+00
355  3.5400000000000D+00  0.0000000000000D+00  0.0000000000000D+00
356  3.5500000000000D+00  0.0000000000000D+00  0.0000000000000D+00
357  3.5600000000000D+00  0.0000000000000D+00  0.0000000000000D+00
358  3.5700000000000D+00  0.0000000000000D+00  0.0000000000000D+00
359  3.5800000000000D+00  0.0000000000000D+00  0.0000000000000D+00
360  3.5900000000000D+00  0.0000000000000D+00  0.0000000000000D+00
361  3.6000000000000D+00  0.0000000000000D+00  0.0000000000000D+00
362  3.6100000000000D+00  0.0000000000000D+00  0.0000000000000D+00
363  3.6200000000000D+00  0.0000000000000D+00  0.0000000000000D+00
364  3.6300000000000D+00  0.0000000000000D+00  0.0000000000000D+00
365  3.6400000000000D+00  0.0000000000000D+00  0.0000000000000D+00
366  3.6500000000000D+00  0.0000000000000D+00  0.0000000000000D+00
367  3.6600000000000D+00  0.0000000000000D+00  0.0000000000000D+00
368  3.6700000000000D+00  0.0000000000000D+00  0.0000000000000D+00
369  3.6800000000000D+00  0.0000000000000D+00  0.0000000000000D+00
370  3.6900000000000D+00  0.0000000000000D+00  0.0000000000000D+00
371  3.7000000000000D+00  0.0000000000000D+00  0.0000000000000D+00
372  3.7100000000000D+00  0.0000000000000D+00  0.0000000000000D+00
373  3.7200000000000D+00  0.0000000000000D+00  0.0000000000000D+00
374  3.7300000000000D+00  0.0000000000000D+00  0.0000000000000D+00
375  3.7400000000000D+00  0.0000000000000D+00  0.0000000000000D+00
376  3.7500000000000D+00  0.0000000000000D+00  0.0000000000000D+00
377  3.7600000000000D+00  0.0000000000000D+00  0.0000000000000D+00
378  3.7700000000000D+00  0.0000000000000D+00  0.0000000000000D+00
379  3.7800000000000D+00  0.0000000000000D+00  0.0000000000000D+00
380  3.7900000000000D+00  0.0000000000000D+00  0.0000000000000D+00
381  3.8000000000000D+00  0.0000000000000D+00  0.0000000000000D+00
382  3.8100000000000D+00  0.0000000000000D+00  0.0000000000000D+00
383  3.8200000000000D+00  0.0000000000000D+00  0.0000000000000D+00
384  3.8300000000000D+00  0.0000000000000D+00  0.0000000000000D+00
385  3.8400000000000D+00  0.0000000000000D+00  0.0000000000000D+00
386  3.8500000000000D+00  0.0000000000000D+00  0.0000000000000D+00
387  3.8600000000000D+00  0.0000000000000D+00  0.0000000000000D+00
388  3.8700000000000D+00  0.0000000000000D+00  0.0000000000000D+00
389  3.8800000000000D+00  0.0000000000000D+00  0.0000000000000D+00
390  3.8900000000000D+00  0.0000000000000D+00  0.0000000000000D+00
391  3.9000000000000D+00  0.0000000000000D+00  0.0000000000000D+00
392  3.9100000000000D+00  0.0000000000000D+00  0.0000000000000D+00
393  3.9200000000000D+00  0.0000000000000D+00  0.0000000000000D+00
394  3.9300000000000D+00  0.0000000000000D+00  0.0000000000000D+00
395  3.9400000000000D+00  0.0000000000000D+00  0.0000000000000D+00
396  3.9500000000000D+00  0.0000000000000D+00  0.0000000000000D+00
397  3.9600000000000D+00  0.0000000000000D+00  0.0000000000000D+00
398  3.9700000000000D+00  0.0000000000000D+00  0.0000000000000D+00
399  3.9800000000000D+00  0.0000000000000D+00  0.0000000000000D+00
400  3.9900000000000D+00  0.0000000000000D+00  0.0000000000000D+00
1                        -3.8939526580116D+00 -8.2227646369227D-01
1  0.0000000000000D+00 -1.2413400418687D-08  3.8271553346597D-08
2  1.0000000000000D-02  2.8969746087087D-03 -7.7385762245033D-05
3  2.0000000000000D-02  1.1578812617836D-02 -3.3202478864726D-04
4  3.0000000000000D-02  2.6018045409182D-02 -8.3048252069081D-04
5  4.0000000000000D-02  4.6168195762481D-02 -1.6807922373262D-03
6  5.0000000000000D-02  7.1962760334825D-02 -3.0281729592105D-03
7  6.0000000000000D-02  1.0331383797128D-01 -5.0491956967130D-03
8  7.0000000000000D-02  1.4011045509877D-01 -7.9445546204347D-03
9  8.0000000000000D-02  1.8221665186854D-01 -1.1930638004539D-02
10  9.0000000000000D-02  2.2946940352703D-01 -1.7230127424894D-02
11  1.0000000000000D-01  2.8167646042705D-01 -2.4061881868016D-02
12  1.1000000000000D-01  3.3861419690799D-01 -3.2630385438426D-02
13  1.2000000000000D-01  4.0002556378378D-01 -4.3115052690634D-02
14  1.3000000000000D-01  4.6561824125018D-01 -5.5659693867416D-02
15  1.4000000000000D-01  5.3506308857579D-01 -7.0362443258987D-02
16  1.5000000000000D-01  6.0799298395549D-01 -8.7266447445802D-02
17  1.6000000000000D-01  6.8400214242202D-01 -1.0635159646012D-01
18  1.7000000000000D-01  7.6264599182087D-01 -1.2752756015530D-01
19  1.8000000000000D-01  8.4344167671731D-01 -1.5062836475906D-01
20  1.9000000000000D-01  9.2586924792138D-01 -1.7540871127802D-01
21  2.0000000000000D-01  1.0093735813452D+00 -2.0154219884976D-01
22  2.1000000000000D-01  1.0933670544461D+00 -2.2862157315515D-01
23  2.2000000000000D-01  1.1772329918893D+00 -2.5616107355578D-01
24  2.3000000000000D-01  1.2603298746549D+00 -2.8360090376075D-01
25  2.4000000000000D-01  1.3419962889979D+00 -3.1031380063796D-01
26  2.5000000000000D-01  1.4215565738467D+00 -3.3561362542208D-01
27  2.6000000000000D-01  1.4983271077970D+00 -3.5876585216521D-01
28  2.7000000000000D-01  1.5716231602269D+00 -3.7899978097722D-01
29  2.8000000000000D-01  1.6407662156000D+00 -3.9552225949255D-01
30  2.9000000000000D-01  1.7050916661139D+00 -4.0753265611545D-01
31  3.0000000000000D-01  1.7639567558078D+00 -4.1423879387885D-01
32  3.1000000000000D-01  1.8167486493694D+00 -4.1487352503245D-01
33  3.2000000000000D-01  1.8628924914312D+00 -4.0871160446436D-01
34  3.3000000000000D-01  1.9018593173037D+00 -3.9508650531446D-01
35  3.4000000000000D-01  1.9331736740224D+00 -3.7340681306501D-01
36  3.5000000000000D-01  1.9564208113619D+00 -3.4317183522697D-01
37  3.6000000000000D-01  1.9712533061208D+00 -3.0398607255034D-01
38  3.7000000000000D-01  1.9773969894764D+00 -2.5557221435275D-01
39  3.8000000000000D-01  1.9746560564458D+00 -1.9778234480885D-01
40  3.9000000000000D-01  1.9629172483194D+00 -1.3060707841175D-01
41  4.0000000000000D-01  1.9421530131394D+00 -5.4182380696370D-02
42  4.1000000000000D-01  1.9124235656189D+00  3.1206126047832D-02
43  4.2000000000000D-01  1.8738777860220D+00  1.2512152385247D-01