Hg    ONCVPSP  r_core=  2.58  2.40  2.11
80.0000     12.0000      160315    zatom,zion,pspd
8   -1013   2     4   600     0    pspcod,pspxc,lmax,lloc,mmax,r2well
5.99000000  6.00000000  0.00000000    rchrg fchrg qchrg
2     2     2     0     0    nproj
1                 extension_switch
0                         4.9190463886373D+00  6.9652525594583D-01
1  0.0000000000000D+00  8.3162643438328D-13 -2.5833640782125D-12
2  1.0000000000000D-02  1.1141856011761D-02  7.6193115129053D-03
3  2.0000000000000D-02  2.2297169468481D-02  1.5200887368078D-02
4  3.0000000000000D-02  3.3479352647054D-02  2.2707110621841D-02
5  4.0000000000000D-02  4.4701727593684D-02  3.0100601453488D-02
6  5.0000000000000D-02  5.5977481271950D-02  3.7344334964571D-02
7  6.0000000000000D-02  6.7319621026366D-02  4.4401758065376D-02
8  7.0000000000000D-02  7.8740930465600D-02  5.1236905147428D-02
9  8.0000000000000D-02  9.0253925868691D-02  5.7814512243408D-02
10  9.0000000000000D-02  1.0187081321652D-01  6.4100129379217D-02
11  1.0000000000000D-01  1.1360344594952D-01  7.0060230826817D-02
12  1.1000000000000D-01  1.2546328355124D-01  7.5662322970990D-02
13  1.2000000000000D-01  1.3746135105540D-01  8.0875049508455D-02
14  1.3000000000000D-01  1.4960819957276D-01  8.5668293703497D-02
15  1.4000000000000D-01  1.6191386793127D-01  9.0013277430762D-02
16  1.5000000000000D-01  1.7438784552154D-01  9.3882656742917D-02
17  1.6000000000000D-01  1.8703903643643D-01  9.7250613708482D-02
18  1.7000000000000D-01  1.9987572499154D-01  1.0009294427342D-01
19  1.8000000000000D-01  2.1290554271011D-01  1.0238714190887D-01
20  1.9000000000000D-01  2.2613543685295D-01  1.0411247681672D-01
21  2.0000000000000D-01  2.3957164057103D-01  1.0525007047480D-01
22  2.1000000000000D-01  2.5321964475460D-01  1.0578296531370D-01
23  2.2000000000000D-01  2.6708417164953D-01  1.0569618932836D-01
24  2.3000000000000D-01  2.8116915030774D-01  1.0497681543902D-01
25  2.4000000000000D-01  2.9547769393465D-01  1.0361401542801D-01
26  2.5000000000000D-01  3.1001207919280D-01  1.0159910829134D-01
27  2.6000000000000D-01  3.2477372751645D-01  9.8925602856756D-02
28  2.7000000000000D-01  3.3976318848795D-01  9.5589234533521D-02
29  2.8000000000000D-01  3.5498012532193D-01  9.1587996072377D-02
30  2.9000000000000D-01  3.7042330249926D-01  8.6922162228600D-02
31  3.0000000000000D-01  3.8609057558782D-01  8.1594308235209D-02
32  3.1000000000000D-01  4.0197888328251D-01  7.5609322008141D-02
33  3.2000000000000D-01  4.1808424169209D-01  6.8974410020192D-02
34  3.3000000000000D-01  4.3440174089566D-01  6.1699096795783D-02
35  3.4000000000000D-01  4.5092554378635D-01  5.3795217994082D-02
36  3.5000000000000D-01  4.6764888721508D-01  4.5276907063693D-02
37  3.6000000000000D-01  4.8456408544187D-01  3.6160575467981D-02
38  3.7000000000000D-01  5.0166253589731D-01  2.6464886496069D-02
39  3.8000000000000D-01  5.1893472725129D-01  1.6210722690683D-02
40  3.9000000000000D-01  5.3637024978123D-01  5.4211469400747D-03
41  4.0000000000000D-01  5.5395780802665D-01 -5.8786427024114D-03
42  4.1000000000000D-01  5.7168523571160D-01 -1.7661364391538D-02
43  4.2000000000000D-01  5.8953951291156D-01 -2.9897709960295D-02
44  4.3000000000000D-01  6.0750678543589D-01 -4.2556408375124D-02
45  4.4000000000000D-01  6.2557238639200D-01 -5.5604295048416D-02
46  4.5000000000000D-01  6.4372085989202D-01 -6.9006386864713D-02
47  4.6000000000000D-01  6.6193598685800D-01 -8.2725962761527D-02
48  4.7000000000000D-01  6.8020081287633D-01 -9.6724649690204D-02
49  4.8000000000000D-01  6.9849767804734D-01 -1.1096251376735D-01
50  4.9000000000000D-01  7.1680824877110D-01 -1.2539815641245D-01
51  5.0000000000000D-01  7.3511355140578D-01 -1.3998881525322D-01
52  5.1000000000000D-01  7.5339400773003D-01 -1.5469046956570D-01
53  5.2000000000000D-01  7.7162947213675D-01 -1.6945795000329D-01
54  5.3000000000000D-01  7.8979927048073D-01 -1.8424505235520D-01
55  5.4000000000000D-01  8.0788224049885D-01 -1.9900465506272D-01
56  5.5000000000000D-01  8.2585677371709D-01 -2.1368884020948D-01
57  5.6000000000000D-01  8.4370085875490D-01 -2.2824901769072D-01
58  5.7000000000000D-01  8.6139212593359D-01 -2.4263605225546D-01
59  5.8000000000000D-01  8.7890789309190D-01 -2.5680039310600D-01
60  5.9000000000000D-01  8.9622521250870D-01 -2.7069220572921D-01
61  6.0000000000000D-01  9.1332091882916D-01 -2.8426150562594D-01
62  6.1000000000000D-01  9.3017167788845D-01 -2.9745829359672D-01
63  6.2000000000000D-01  9.4675403632367D-01 -3.1023269223508D-01
64  6.3000000000000D-01  9.6304447186274D-01 -3.2253508327369D-01
65  6.4000000000000D-01  9.7901944417642D-01 -3.3431624542290D-01
66  6.5000000000000D-01  9.9465544617789D-01 -3.4552749233734D-01
67  6.6000000000000D-01  1.0099290556523D+00 -3.5612081034219D-01
68  6.7000000000000D-01  1.0248169870976D+00 -3.6604899554864D-01
69  6.8000000000000D-01  1.0392961436568D+00 -3.7526578998624D-01
70  6.9000000000000D-01  1.0533436690200D+00 -3.8372601637913D-01
71  7.0000000000000D-01  1.0669369991754D+00 -3.9138571119394D-01
72  7.1000000000000D-01  1.0800539138872D+00 -3.9820225558800D-01
73  7.2000000000000D-01  1.0926725877781D+00 -4.0413450388930D-01
74  7.3000000000000D-01  1.1047716408952D+00 -4.0914290924301D-01
75  7.4000000000000D-01  1.1163301886375D+00 -4.1318964606372D-01
76  7.5000000000000D-01  1.1273278909256D+00 -4.1623872893816D-01
77  7.6000000000000D-01  1.1377450004939D+00 -4.1825612762973D-01
78  7.7000000000000D-01  1.1475624101872D+00 -4.1920987784358D-01
79  7.8000000000000D-01  1.1567616991465D+00 -4.1907018741979D-01
80  7.9000000000000D-01  1.1653251777701D+00 -4.1780953763165D-01
81  8.0000000000000D-01  1.1732359313372D+00 -4.1540277927648D-01
82  8.1000000000000D-01  1.1804778621867D+00 -4.1182722325843D-01
83  8.2000000000000D-01  1.1870357303435D+00 -4.0706272537480D-01
84  8.3000000000000D-01  1.1928951924912D+00 -4.0109176503099D-01
85  8.4000000000000D-01  1.1980428391893D+00 -3.9389951762375D-01
86  8.5000000000000D-01  1.2024662302422D+00 -3.8547392034739D-01
87  8.6000000000000D-01  1.2061539281258D+00 -3.7580573119378D-01
88  8.7000000000000D-01  1.2090955293853D+00 -3.6488858093398D-01
89  8.8000000000000D-01  1.2112816939219D+00 -3.5271901788675D-01
90  8.9000000000000D-01  1.2127041720883D+00 -3.3929654529787D-01
91  9.0000000000000D-01  1.2133558295224D+00 -3.2462365117303D-01
92  9.1000000000000D-01  1.2132306696478D+00 -3.0870583042692D-01
93  9.2000000000000D-01  1.2123238537823D+00 -2.9155159923126D-01
94  9.3000000000000D-01  1.2106317187930D+00 -2.7317250146551D-01
95  9.4000000000000D-01  1.2081517922510D+00 -2.5358310719518D-01
96  9.5000000000000D-01  1.2048828050356D+00 -2.3280100312436D-01
97  9.6000000000000D-01  1.2008247013534D+00 -2.1084677499117D-01
98  9.7000000000000D-01  1.1959786461341D+00 -1.8774398189725D-01
99  9.8000000000000D-01  1.1903470297805D+00 -1.6351912258471D-01
100  9.9000000000000D-01  1.1839334702490D+00 -1.3820159369750D-01
101  1.0000000000000D+00  1.1767428124478D+00 -1.1182364008557D-01
102  1.0100000000000D+00  1.1687811249455D+00 -8.4420297234639D-02
103  1.0200000000000D+00  1.1600556939883D+00 -5.6029325926244D-02
104  1.0300000000000D+00  1.1505750148328D+00 -2.6691139255854D-02
105  1.0400000000000D+00  1.1403487804056D+00  3.5512778409207D-03
106  1.0500000000000D+00  1.1293878673091D+00  3.4652456380785D-02
107  1.0600000000000D+00  1.1177043191998D+00  6.6564538250408D-02
108  1.0700000000000D+00  1.1053113275710D+00  9.9237378032307D-02
109  1.0800000000000D+00  1.0922232099780D+00  1.3261865150185D-01
110  1.0900000000000D+00  1.0784553857529D+00  1.6665397053768D-01
111  1.1000000000000D+00  1.0640243492587D+00  2.0128700416661D-01
112  1.1100000000000D+00  1.0489476407424D+00  2.3645960544760D-01
113  1.1200000000000D+00  1.0332438148498D+00  2.7211194387719D-01
114  1.1300000000000D+00  1.0169324068730D+00  3.0818264298341D-01
115  1.1400000000000D+00  1.0000338968070D+00  3.4460892275610D-01
116  1.1500000000000D+00  9.8256967129473D-01  3.8132674654920D-01
117  1.1600000000000D+00  9.6456198355102D-01  4.1827097207103D-01
118  1.1700000000000D+00  9.4603391135446D-01  4.5537550606722D-01
119  1.1800000000000D+00  9.2700931320730D-01  4.9257346228609D-01
120  1.1900000000000D+00  9.0751278276316D-01  5.2979732230852D-01
121  1.2000000000000D+00  8.8756960163080D-01  5.6697909880750D-01
122  1.2100000000000D+00  8.6720569066449D-01  6.0405050079731D-01
123  1.2200000000000D+00  8.4644755985545D-01  6.4094310042376D-01
124  1.2300000000000D+00  8.2532225694305D-01  6.7758850083865D-01
125  1.2400000000000D+00  8.0385731486823D-01  7.1391850469584D-01
126  1.2500000000000D+00  7.8208069819372D-01  7.4986528280392D-01
127  1.2600000000000D+00  7.6002074861843D-01  7.8536154246582D-01
128  1.2700000000000D+00  7.3770612971703D-01  8.2034069503432D-01
129  1.2800000000000D+00  7.1516577103639D-01  8.5473702221426D-01
130  1.2900000000000D+00  6.9242881168257D-01  8.8848584063981D-01
131  1.3000000000000D+00  6.6952454353440D-01  9.2152366426163D-01
132  1.3100000000000D+00  6.4648235421909D-01  9.5378836408289D-01
133  1.3200000000000D+00  6.2333166998742D-01  9.8521932478188D-01
134  1.3300000000000D+00  6.0010189862552D-01  1.0157575977777D+00
135  1.3400000000000D+00  5.7682237253997D-01  1.0453460502946D+00
136  1.3500000000000D+00  5.5352229215395D-01  1.0739295099880D+00
137  1.3600000000000D+00  5.3023066974875D-01  1.1014549047242D+00
138  1.3700000000000D+00  5.0697627388674D-01  1.1278713970905D+00
139  1.3800000000000D+00  4.8378757454881D-01  1.1531305132473D+00
140  1.3900000000000D+00  4.6069268911528D-01  1.1771862657533D+00
141  1.4000000000000D+00  4.3771932932390D-01  1.1999952699724D+00
142  1.4100000000000D+00  4.1489474932606D-01  1.2215168537492D+00
143  1.4200000000000D+00  3.9224569496832D-01  1.2417131600016D+00
144  1.4300000000000D+00  3.6979835441989D-01  1.2605492419228D+00
145  1.4400000000000D+00  3.4757831025702D-01  1.2779931505343D+00
146  1.4500000000000D+00  3.2561049312780D-01  1.2940160142664D+00
147  1.4600000000000D+00  3.0391913709311D-01  1.3085921103910D+00
148  1.4700000000000D+00  2.8252773675919D-01  1.3216989280254D+00
149  1.4800000000000D+00  2.6145900629525D-01  1.3333172225428D+00
150  1.4900000000000D+00  2.4073484042875D-01  1.3434310612232D+00
151  1.5000000000000D+00  2.2037627751897D-01  1.3520278599456D+00
152  1.5100000000000D+00  2.0040346477131D-01  1.3590984108949D+00
153  1.5200000000000D+00  1.8083562569977D-01  1.3646369010588D+00
154  1.5300000000000D+00  1.6169102987759D-01  1.3686409215847D+00
155  1.5400000000000D+00  1.4298696507153D-01  1.3711114678275D+00
156  1.5500000000000D+00  1.2473971179762D-01  1.3720529301679D+00
157  1.5600000000000D+00  1.0696452036488D-01  1.3714730755551D+00
158  1.5700000000000D+00  8.9675590451779D-02  1.3693830198246D+00
159  1.5800000000000D+00  7.2886053247287D-02  1.3657971908875D+00
160  1.5900000000000D+00  5.6607956210592D-02  1.3607332828060D+00
161  1.6000000000000D+00  4.0852250445030D-02  1.3542122009910D+00
162  1.6100000000000D+00  2.5628780749585D-02  1.3462579985064D+00
163  1.6200000000000D+00  1.0946278307524D-02  1.3368978038460D+00
164  1.6300000000000D+00 -3.1876439164174D-03  1.3261617401451D+00
165  1.6400000000000D+00 -1.6766493144812D-02  1.3140828363076D+00
166  1.6500000000000D+00 -2.9784896046948D-02  1.3006969300073D+00
167  1.6600000000000D+00 -4.2238595388741D-02  1.2860425631200D+00
168  1.6700000000000D+00 -5.4124444006173D-02  1.2701608695880D+00
169  1.6800000000000D+00 -6.5440396215897D-02  1.2530954563019D+00
170  1.6900000000000D+00 -7.6185496609565D-02  1.2348922770625D+00
171  1.7000000000000D+00 -8.6359866358866D-02  1.2155995002303D+00
172  1.7100000000000D+00 -9.5964686988330D-02  1.1952673701767D+00
173  1.7200000000000D+00 -1.0500218175888D-01  1.1739480631692D+00
174  1.7300000000000D+00 -1.1347559462573D-01  1.1516955378454D+00
175  1.7400000000000D+00 -1.2138916693210D-01  1.1285653809322D+00
176  1.7500000000000D+00 -1.2874811180579D-01  1.1046146484008D+00
177  1.7600000000000D+00 -1.3555858643783D-01  1.0799017027239D+00
178  1.7700000000000D+00 -1.4182766221720D-01  1.0544860464780D+00
179  1.7800000000000D+00 -1.4756329290707D-01  1.0284281529284D+00
180  1.7900000000000D+00 -1.5277428085826D-01  1.0017892939225D+00
181  1.8000000000000D+00 -1.5747024143446D-01  9.7463136566612D-01
182  1.8100000000000D+00 -1.6166156567780D-01  9.4701671279956D-01
183  1.8200000000000D+00 -1.6535938136917D-01  9.1900795128022D-01
184  1.8300000000000D+00 -1.6857551254949D-01  8.9066779055871D-01
185  1.8400000000000D+00 -1.7132243763101D-01  8.6205885551001D-01
186  1.8500000000000D+00 -1.7361324620256D-01  8.3324350862798D-01
187  1.8600000000000D+00 -1.7546159463331D-01  8.0428367295192D-01
188  1.8700000000000D+00 -1.7688166061019D-01  7.7524065617441D-01
189  1.8800000000000D+00 -1.7788809669632D-01  7.4617497649094D-01
190  1.8900000000000D+00 -1.7849598306307D-01  7.1714619047554D-01
191  1.9000000000000D+00 -1.7872077948204D-01  6.8821272371227D-01
192  1.9100000000000D+00 -1.7857827672353D-01  6.5943170427828D-01
193  1.9200000000000D+00 -1.7808454746850D-01  6.3085879988944D-01
194  1.9300000000000D+00 -1.7725589685802D-01  6.0254805878750D-01
195  1.9400000000000D+00 -1.7610881280670D-01  5.7455175502045D-01
196  1.9500000000000D+00 -1.7465991619664D-01  5.4692023843038D-01
197  1.9600000000000D+00 -1.7292591106770D-01  5.1970178958565D-01
198  1.9700000000000D+00 -1.7092353494769D-01  4.9294248042028D-01
199  1.9800000000000D+00 -1.6866950939245D-01  4.6668604026695D-01
200  1.9900000000000D+00 -1.6618049092302D-01  4.4097372843094D-01
201  2.0000000000000D+00 -1.6347302239960D-01  4.1584421280998D-01
202  2.0100000000000D+00 -1.6056348500484D-01  3.9133345541446D-01
203  2.0200000000000D+00 -1.5746805092689D-01  3.6747460487166D-01
204  2.0300000000000D+00 -1.5420263681627D-01  3.4429789586588D-01
205  2.0400000000000D+00 -1.5078285748739D-01  3.2183055275270D-01
206  2.0500000000000D+00 -1.4722398420963D-01  3.0009671887660D-01
207  2.0600000000000D+00 -1.4354089493021D-01  2.7911734780896D-01
208  2.0700000000000D+00 -1.3974803907538D-01  2.5891016765203D-01
209  2.0800000000000D+00 -1.3585940402658D-01  2.3948965566538D-01
210  2.0900000000000D+00 -1.3188846398223D-01  2.2086693771325D-01
211  2.1000000000000D+00 -1.2784808904103D-01  2.0304945670171D-01
212  2.1100000000000D+00 -1.2375060401418D-01  1.8604143186013D-01
213  2.1200000000000D+00 -1.1960780246147D-01  1.6984408753096D-01
214  2.1300000000000D+00 -1.1543097538573D-01  1.5445593661538D-01
215  2.1400000000000D+00 -1.1123094247805D-01  1.3987301124598D-01
216  2.1500000000000D+00 -1.0701815564379D-01  1.2608948774497D-01
217  2.1600000000000D+00 -1.0280265375316D-01  1.1309753575703D-01
218  2.1700000000000D+00 -9.8594057492567D-02  1.0088736065207D-01
219  2.1800000000000D+00 -9.4401555901675D-02  8.9447196693823D-02
220  2.1900000000000D+00 -9.0233927234347D-02  7.8763502289654D-02
221  2.2000000000000D+00 -8.6099531921987D-02  6.8820992633302D-02
222  2.2100000000000D+00 -8.2006316832918D-02  5.9602734958089D-02
223  2.2200000000000D+00 -7.7961819681400D-02  5.1090243629089D-02
224  2.2300000000000D+00 -7.3973173292018D-02  4.3263573436600D-02
225  2.2400000000000D+00 -7.0047111095513D-02  3.6101418425067D-02
226  2.2500000000000D+00 -6.6189973328883D-02  2.9581213427954D-02
227  2.2600000000000D+00 -6.2407713965263D-02  2.3679238327031D-02
228  2.2700000000000D+00 -5.8705908329044D-02  1.8370724718252D-02
229  2.2800000000000D+00 -5.5089761271150D-02  1.3629964333045D-02
230  2.2900000000000D+00 -5.1564115923355D-02  9.4304191461719D-03
231  2.3000000000000D+00 -4.8133462932608D-02  5.7448326413107D-03
232  2.3100000000000D+00 -4.4801950111816D-02  2.5453418817436D-03
233  2.3200000000000D+00 -4.1573392476541D-02 -1.9640998298394D-04
234  2.3300000000000D+00 -3.8451282585115D-02 -2.5091611137889D-03
235  2.3400000000000D+00 -3.5438801133417D-02 -4.4219186590966D-03
236  2.3500000000000D+00 -3.2538827727601D-02 -5.9638472493942D-03
237  2.3600000000000D+00 -2.9753951813206D-02 -7.1641583235530D-03
238  2.3700000000000D+00 -2.7086483662827D-02 -8.0520009828128D-03
239  2.3800000000000D+00 -2.4538465359700D-02 -8.6563547537076D-03
240  2.3900000000000D+00 -2.2111681798205D-02 -9.0059240584956D-03
241  2.4000000000000D+00 -1.9807671528804D-02 -9.1290355450109D-03
242  2.4100000000000D+00 -1.7627737447833D-02 -9.0535382276444D-03
243  2.4200000000000D+00 -1.5572957373388D-02 -8.8067061515994D-03
244  2.4300000000000D+00 -1.3644194243998D-02 -8.4151452721262D-03
245  2.4400000000000D+00 -1.1842106043927D-02 -7.9047038504260D-03
246  2.4500000000000D+00 -1.0167155494889D-02 -7.3003861131352D-03
247  2.4600000000000D+00 -8.6196191511247D-03 -6.6262714523833D-03
248  2.4700000000000D+00 -7.1995961464683D-03 -5.9054375855846D-03
249  2.4800000000000D+00 -5.9070165722391D-03 -5.1598878126464D-03
250  2.4900000000000D+00 -4.7417402202870D-03 -4.4106908191416D-03
251  2.5000000000000D+00 -3.7038963570460D-03 -3.6786708380264D-03
252  2.5100000000000D+00 -2.7916284737520D-03 -2.9792361201340D-03
253  2.5200000000000D+00 -2.0037401729782D-03 -2.3278951410425D-03
254  2.5300000000000D+00 -1.3383379826328D-03 -1.7360081626216D-03
255  2.5400000000000D+00 -8.0014785970210D-04 -1.2358623714457D-03
256  2.5500000000000D+00 -3.9006149474074D-04 -8.4736132004911D-04
257  2.5600000000000D+00 -1.0547611760084D-04 -5.8875088459051D-04
258  2.5700000000000D+00  6.3535170545655D-05 -4.1643298718073D-04
259  2.5800000000000D+00  1.3279075675922D-04 -2.9517313672768D-04
260  2.5900000000000D+00  1.1793296261972D-04 -1.7568050191731D-04
261  2.6000000000000D+00  6.2952522075474D-05 -7.6119849810755D-05
262  2.6100000000000D+00  2.9732548310154D-06 -3.1986368307220D-06
263  2.6200000000000D+00 -2.0633461848490D-05  2.1085825591769D-05
264  2.6300000000000D+00 -1.9276087167780D-05  1.8422866685533D-05
265  2.6400000000000D+00 -3.4923350175817D-06  3.1740164427537D-06
266  2.6500000000000D+00  3.7491509176372D-06 -4.4668312222743D-06
267  2.6600000000000D+00  4.4827229575567D-06 -5.1996718702071D-06
268  2.6700000000000D+00  1.5099311441146D-06 -1.7124358424343D-06
269  2.6800000000000D+00 -2.4241895781431D-07  5.5085069573505D-07
270  2.6900000000000D+00 -3.7150919564911D-07  8.4418356031393D-07
271  2.7000000000000D+00 -1.8689178592479D-07  4.2467582251836D-07
272  2.7100000000000D+00  0.0000000000000D+00  0.0000000000000D+00
273  2.7200000000000D+00  0.0000000000000D+00  0.0000000000000D+00
274  2.7300000000000D+00  0.0000000000000D+00  0.0000000000000D+00
275  2.7400000000000D+00  0.0000000000000D+00  0.0000000000000D+00
276  2.7500000000000D+00  0.0000000000000D+00  0.0000000000000D+00
277  2.7600000000000D+00  0.0000000000000D+00  0.0000000000000D+00
278  2.7700000000000D+00  0.0000000000000D+00  0.0000000000000D+00
279  2.7800000000000D+00  0.0000000000000D+00  0.0000000000000D+00
280  2.7900000000000D+00  0.0000000000000D+00  0.0000000000000D+00
281  2.8000000000000D+00  0.0000000000000D+00  0.0000000000000D+00
282  2.8100000000000D+00  0.0000000000000D+00  0.0000000000000D+00
283  2.8200000000000D+00  0.0000000000000D+00  0.0000000000000D+00
284  2.8300000000000D+00  0.0000000000000D+00  0.0000000000000D+00
285  2.8400000000000D+00  0.0000000000000D+00  0.0000000000000D+00
286  2.8500000000000D+00  0.0000000000000D+00  0.0000000000000D+00
287  2.8600000000000D+00  0.0000000000000D+00  0.0000000000000D+00
288  2.8700000000000D+00  0.0000000000000D+00  0.0000000000000D+00
289  2.8800000000000D+00  0.0000000000000D+00  0.0000000000000D+00
290  2.8900000000000D+00  0.0000000000000D+00  0.0000000000000D+00
291  2.9000000000000D+00  0.0000000000000D+00  0.0000000000000D+00
292  2.9100000000000D+00  0.0000000000000D+00  0.0000000000000D+00
293  2.9200000000000D+00  0.0000000000000D+00  0.0000000000000D+00
294  2.9300000000000D+00  0.0000000000000D+00  0.0000000000000D+00
295  2.9400000000000D+00  0.0000000000000D+00  0.0000000000000D+00
296  2.9500000000000D+00  0.0000000000000D+00  0.0000000000000D+00
297  2.9600000000000D+00  0.0000000000000D+00  0.0000000000000D+00
298  2.9700000000000D+00  0.0000000000000D+00  0.0000000000000D+00
299  2.9800000000000D+00  0.0000000000000D+00  0.0000000000000D+00
300  2.9900000000000D+00  0.0000000000000D+00  0.0000000000000D+00
301  3.0000000000000D+00  0.0000000000000D+00  0.0000000000000D+00
302  3.0100000000000D+00  0.0000000000000D+00  0.0000000000000D+00
303  3.0200000000000D+00  0.0000000000000D+00  0.0000000000000D+00
304  3.0300000000000D+00  0.0000000000000D+00  0.0000000000000D+00
305  3.0400000000000D+00  0.0000000000000D+00  0.0000000000000D+00
306  3.0500000000000D+00  0.0000000000000D+00  0.0000000000000D+00
307  3.0600000000000D+00  0.0000000000000D+00  0.0000000000000D+00
308  3.0700000000000D+00  0.0000000000000D+00  0.0000000000000D+00
309  3.0800000000000D+00  0.0000000000000D+00  0.0000000000000D+00
310  3.0900000000000D+00  0.0000000000000D+00  0.0000000000000D+00
311  3.1000000000000D+00  0.0000000000000D+00  0.0000000000000D+00
312  3.1100000000000D+00  0.0000000000000D+00  0.0000000000000D+00
313  3.1200000000000D+00  0.0000000000000D+00  0.0000000000000D+00
314  3.1300000000000D+00  0.0000000000000D+00  0.0000000000000D+00
315  3.1400000000000D+00  0.0000000000000D+00  0.0000000000000D+00
316  3.1500000000000D+00  0.0000000000000D+00  0.0000000000000D+00
317  3.1600000000000D+00  0.0000000000000D+00  0.0000000000000D+00
318  3.1700000000000D+00  0.0000000000000D+00  0.0000000000000D+00
319  3.1800000000000D+00  0.0000000000000D+00  0.0000000000000D+00
320  3.1900000000000D+00  0.0000000000000D+00  0.0000000000000D+00
321  3.2000000000000D+00  0.0000000000000D+00  0.0000000000000D+00
322  3.2100000000000D+00  0.0000000000000D+00  0.0000000000000D+00
323  3.2200000000000D+00  0.0000000000000D+00  0.0000000000000D+00
324  3.2300000000000D+00  0.0000000000000D+00  0.0000000000000D+00
325  3.2400000000000D+00  0.0000000000000D+00  0.0000000000000D+00
326  3.2500000000000D+00  0.0000000000000D+00  0.0000000000000D+00
327  3.2600000000000D+00  0.0000000000000D+00  0.0000000000000D+00
328  3.2700000000000D+00  0.0000000000000D+00  0.0000000000000D+00
329  3.2800000000000D+00  0.0000000000000D+00  0.0000000000000D+00
330  3.2900000000000D+00  0.0000000000000D+00  0.0000000000000D+00
331  3.3000000000000D+00  0.0000000000000D+00  0.0000000000000D+00
332  3.3100000000000D+00  0.0000000000000D+00  0.0000000000000D+00
333  3.3200000000000D+00  0.0000000000000D+00  0.0000000000000D+00
334  3.3300000000000D+00  0.0000000000000D+00  0.0000000000000D+00
335  3.3400000000000D+00  0.0000000000000D+00  0.0000000000000D+00
336  3.3500000000000D+00  0.0000000000000D+00  0.0000000000000D+00
337  3.3600000000000D+00  0.0000000000000D+00  0.0000000000000D+00
338  3.3700000000000D+00  0.0000000000000D+00  0.0000000000000D+00
339  3.3800000000000D+00  0.0000000000000D+00  0.0000000000000D+00
340  3.3900000000000D+00  0.0000000000000D+00  0.0000000000000D+00
341  3.4000000000000D+00  0.0000000000000D+00  0.0000000000000D+00
342  3.4100000000000D+00  0.0000000000000D+00  0.0000000000000D+00
343  3.4200000000000D+00  0.0000000000000D+00  0.0000000000000D+00
344  3.4300000000000D+00  0.0000000000000D+00  0.0000000000000D+00
345  3.4400000000000D+00  0.0000000000000D+00  0.0000000000000D+00
346  3.4500000000000D+00  0.0000000000000D+00  0.0000000000000D+00
347  3.4600000000000D+00  0.0000000000000D+00  0.0000000000000D+00
348  3.4700000000000D+00  0.0000000000000D+00  0.0000000000000D+00
349  3.4800000000000D+00  0.0000000000000D+00  0.0000000000000D+00
350  3.4900000000000D+00  0.0000000000000D+00  0.0000000000000D+00
351  3.5000000000000D+00  0.0000000000000D+00  0.0000000000000D+00
352  3.5100000000000D+00  0.0000000000000D+00  0.0000000000000D+00
353  3.5200000000000D+00  0.0000000000000D+00  0.0000000000000D+00
354  3.5300000000000D+00  0.0000000000000D+00  0.0000000000000D+00
355  3.5400000000000D+00  0.0000000000000D+00  0.0000000000000D+00
356  3.5500000000000D+00  0.0000000000000D+00  0.0000000000000D+00
357  3.5600000000000D+00  0.0000000000000D+00  0.0000000000000D+00
358  3.5700000000000D+00  0.0000000000000D+00  0.0000000000000D+00
359  3.5800000000000D+00  0.0000000000000D+00  0.0000000000000D+00
360  3.5900000000000D+00  0.0000000000000D+00  0.0000000000000D+00
361  3.6000000000000D+00  0.0000000000000D+00  0.0000000000000D+00
362  3.6100000000000D+00  0.0000000000000D+00  0.0000000000000D+00
363  3.6200000000000D+00  0.0000000000000D+00  0.0000000000000D+00
364  3.6300000000000D+00  0.0000000000000D+00  0.0000000000000D+00
365  3.6400000000000D+00  0.0000000000000D+00  0.0000000000000D+00
366  3.6500000000000D+00  0.0000000000000D+00  0.0000000000000D+00
367  3.6600000000000D+00  0.0000000000000D+00  0.0000000000000D+00
368  3.6700000000000D+00  0.0000000000000D+00  0.0000000000000D+00
369  3.6800000000000D+00  0.0000000000000D+00  0.0000000000000D+00
370  3.6900000000000D+00  0.0000000000000D+00  0.0000000000000D+00
371  3.7000000000000D+00  0.0000000000000D+00  0.0000000000000D+00
372  3.7100000000000D+00  0.0000000000000D+00  0.0000000000000D+00
373  3.7200000000000D+00  0.0000000000000D+00  0.0000000000000D+00
374  3.7300000000000D+00  0.0000000000000D+00  0.0000000000000D+00
375  3.7400000000000D+00  0.0000000000000D+00  0.0000000000000D+00
376  3.7500000000000D+00  0.0000000000000D+00  0.0000000000000D+00
377  3.7600000000000D+00  0.0000000000000D+00  0.0000000000000D+00
378  3.7700000000000D+00  0.0000000000000D+00  0.0000000000000D+00
379  3.7800000000000D+00  0.0000000000000D+00  0.0000000000000D+00
380  3.7900000000000D+00  0.0000000000000D+00  0.0000000000000D+00
381  3.8000000000000D+00  0.0000000000000D+00  0.0000000000000D+00
382  3.8100000000000D+00  0.0000000000000D+00  0.0000000000000D+00
383  3.8200000000000D+00  0.0000000000000D+00  0.0000000000000D+00
384  3.8300000000000D+00  0.0000000000000D+00  0.0000000000000D+00
385  3.8400000000000D+00  0.0000000000000D+00  0.0000000000000D+00
386  3.8500000000000D+00  0.0000000000000D+00  0.0000000000000D+00
387  3.8600000000000D+00  0.0000000000000D+00  0.0000000000000D+00
388  3.8700000000000D+00  0.0000000000000D+00  0.0000000000000D+00
389  3.8800000000000D+00  0.0000000000000D+00  0.0000000000000D+00
390  3.8900000000000D+00  0.0000000000000D+00  0.0000000000000D+00
391  3.9000000000000D+00  0.0000000000000D+00  0.0000000000000D+00
392  3.9100000000000D+00  0.0000000000000D+00  0.0000000000000D+00
393  3.9200000000000D+00  0.0000000000000D+00  0.0000000000000D+00
394  3.9300000000000D+00  0.0000000000000D+00  0.0000000000000D+00
395  3.9400000000000D+00  0.0000000000000D+00  0.0000000000000D+00
396  3.9500000000000D+00  0.0000000000000D+00  0.0000000000000D+00
397  3.9600000000000D+00  0.0000000000000D+00  0.0000000000000D+00
398  3.9700000000000D+00  0.0000000000000D+00  0.0000000000000D+00
399  3.9800000000000D+00  0.0000000000000D+00  0.0000000000000D+00
400  3.9900000000000D+00  0.0000000000000D+00  0.0000000000000D+00
401  4.0000000000000D+00  0.0000000000000D+00  0.0000000000000D+00
402  4.0100000000000D+00  0.0000000000000D+00  0.0000000000000D+00
403  4.0200000000000D+00  0.0000000000000D+00  0.0000000000000D+00
404  4.0300000000000D+00  0.0000000000000D+00  0.0000000000000D+00
405  4.0400000000000D+00  0.0000000000000D+00  0.0000000000000D+00
406  4.0500000000000D+00  0.0000000000000D+00  0.0000000000000D+00
407  4.0600000000000D+00  0.0000000000000D+00  0.0000000000000D+00
408  4.0700000000000D+00  0.0000000000000D+00  0.0000000000000D+00
409  4.0800000000000D+00  0.0000000000000D+00  0.0000000000000D+00
410  4.0900000000000D+00  0.0000000000000D+00  0.0000000000000D+00
411  4.1000000000000D+00  0.0000000000000D+00  0.0000000000000D+00
412  4.1100000000000D+00  0.0000000000000D+00  0.0000000000000D+00
413  4.1200000000000D+00  0.0000000000000D+00  0.0000000000000D+00
414  4.1300000000000D+00  0.0000000000000D+00  0.0000000000000D+00
415  4.1400000000000D+00  0.0000000000000D+00  0.0000000000000D+00
416  4.1500000000000D+00  0.0000000000000D+00  0.0000000000000D+00
417  4.1600000000000D+00  0.0000000000000D+00  0.0000000000000D+00
418  4.1700000000000D+00  0.0000000000000D+00  0.0000000000000D+00
419  4.1800000000000D+00  0.0000000000000D+00  0.0000000000000D+00
420  4.1900000000000D+00  0.0000000000000D+00  0.0000000000000D+00
421  4.2000000000000D+00  0.0000000000000D+00  0.0000000000000D+00
422  4.2100000000000D+00  0.0000000000000D+00  0.0000000000000D+00
423  4.2200000000000D+00  0.0000000000000D+00  0.0000000000000D+00
424  4.2300000000000D+00  0.0000000000000D+00  0.0000000000000D+00
425  4.2400000000000D+00  0.0000000000000D+00  0.0000000000000D+00
426  4.2500000000000D+00  0.0000000000000D+00  0.0000000000000D+00
427  4.2600000000000D+00  0.0000000000000D+00  0.0000000000000D+00
428  4.2700000000000D+00  0.0000000000000D+00  0.0000000000000D+00
429  4.2800000000000D+00  0.0000000000000D+00  0.0000000000000D+00
430  4.2900000000000D+00  0.0000000000000D+00  0.0000000000000D+00
431  4.3000000000000D+00  0.0000000000000D+00  0.0000000000000D+00
432  4.3100000000000D+00  0.0000000000000D+00  0.0000000000000D+00
433  4.3200000000000D+00  0.0000000000000D+00  0.0000000000000D+00
434  4.3300000000000D+00  0.0000000000000D+00  0.0000000000000D+00
435  4.3400000000000D+00  0.0000000000000D+00  0.0000000000000D+00
436  4.3500000000000D+00  0.0000000000000D+00  0.0000000000000D+00
437  4.3600000000000D+00  0.0000000000000D+00  0.0000000000000D+00
438  4.3700000000000D+00  0.0000000000000D+00  0.0000000000000D+00
439  4.3800000000000D+00  0.0000000000000D+00  0.0000000000000D+00
440  4.3900000000000D+00  0.0000000000000D+00  0.0000000000000D+00
441  4.4000000000000D+00  0.0000000000000D+00  0.0000000000000D+00
442  4.4100000000000D+00  0.0000000000000D+00  0.0000000000000D+00
443  4.4200000000000D+00  0.0000000000000D+00  0.0000000000000D+00
444  4.4300000000000D+00  0.0000000000000D+00  0.0000000000000D+00