Ag    ONCVPSP  r_core=  2.02  2.22  1.71
47.0000     11.0000      150807    zatom,zion,pspd
8      11   2     4   600     0    pspcod,pspxc,lmax,lloc,mmax,r2well
5.99000000  5.00000000  0.00000000    rchrg fchrg qchrg
2     2     2     0     0    nproj
0                 extension_switch
0                         8.2989964864771D+00  1.3549740056060D+00
1  0.0000000000000D+00  5.7413684917407D-11 -6.9863254070768D-11
2  1.0000000000000D-02  1.9883193058412D-02 -9.7730922697331D-03
3  2.0000000000000D-02  3.9777406231654D-02 -1.9546323616619D-02
4  3.0000000000000D-02  5.9693456161716D-02 -2.9319637818121D-02
5  4.0000000000000D-02  7.9641754397566D-02 -3.9092590162500D-02
6  5.0000000000000D-02  9.9632109465660D-02 -4.8864158461833D-02
7  6.0000000000000D-02  1.1967353443996D-01 -5.8632560324301D-02
8  7.0000000000000D-02  1.3977406177672D-01 -6.8395078689444D-02
9  8.0000000000000D-02  1.5994056712201D-01 -7.8147897560179D-02
10  9.0000000000000D-02  1.8017860372822D-01 -8.7885949778256D-02
11  1.0000000000000D-01  2.0049224903222D-01 -9.7602778587911D-02
12  1.1000000000000D-01  2.2088396485036D-01 -1.0729041461402D-01
13  1.2000000000000D-01  2.4135447253738D-01 -1.1693926974975D-01
14  1.3000000000000D-01  2.6190264433628D-01 -1.2653804930278D-01
15  1.4000000000000D-01  2.8252541201642D-01 -1.3607368359193D-01
16  1.5000000000000D-01  3.0321769375792D-01 -1.4553128001739D-01
17  1.6000000000000D-01  3.2397234009288D-01 -1.5489409644909D-01
18  1.7000000000000D-01  3.4478009955969D-01 -1.6414353659147D-01
19  1.8000000000000D-01  3.6562960456515D-01 -1.7325916778817D-01
20  1.9000000000000D-01  3.8650737778442D-01 -1.8221876153159D-01
21  2.0000000000000D-01  4.0739785925855D-01 -1.9099835673804D-01
22  2.1000000000000D-01  4.2828345417842D-01 -1.9957234564410D-01
23  2.2000000000000D-01  4.4914460116980D-01 -2.0791358197170D-01
24  2.3000000000000D-01  4.6995986072261D-01 -2.1599351080514D-01
25  2.4000000000000D-01  4.9070602323474D-01 -2.2378231941764D-01
26  2.5000000000000D-01  5.1135823597319D-01 -2.3124910808707D-01
27  2.6000000000000D-01  5.3189014808920D-01 -2.3836207974497D-01
28  2.7000000000000D-01  5.5227407266596D-01 -2.4508874711737D-01
29  2.8000000000000D-01  5.7248116462335D-01 -2.5139615583651D-01
30  2.9000000000000D-01  5.9248161315949D-01 -2.5725112183591D-01
31  3.0000000000000D-01  6.1224484727251D-01 -2.6262048118367D-01
32  3.1000000000000D-01  6.3173975277993D-01 -2.6747135036758D-01
33  3.2000000000000D-01  6.5093489913665D-01 -2.7177139491399D-01
34  3.3000000000000D-01  6.6979877425164D-01 -2.7548910411251D-01
35  3.4000000000000D-01  6.8830002541064D-01 -2.7859406951873D-01
36  3.5000000000000D-01  7.0640770433832D-01 -2.8105726483050D-01
37  3.6000000000000D-01  7.2409151436985D-01 -2.8285132467129D-01
38  3.7000000000000D-01  7.4132205765626D-01 -2.8395081977368D-01
39  3.8000000000000D-01  7.5807108029678D-01 -2.8433252603398D-01
40  3.9000000000000D-01  7.7431171327682D-01 -2.8397568490819D-01
41  4.0000000000000D-01  7.9001870709199D-01 -2.8286225263864D-01
42  4.1000000000000D-01  8.0516865795740D-01 -2.8097713584132D-01
43  4.2000000000000D-01  8.1974022353655D-01 -2.7830841104464D-01
44  4.3000000000000D-01  8.3371432617586D-01 -2.7484752585182D-01
45  4.4000000000000D-01  8.4707434170053D-01 -2.7058947950225D-01
46  4.5000000000000D-01  8.5980627191101D-01 -2.6553298072790D-01
47  4.6000000000000D-01  8.7189889902117D-01 -2.5968058094335D-01
48  4.7000000000000D-01  8.8334392039471D-01 -2.5303878096701D-01
49  4.8000000000000D-01  8.9413606206729D-01 -2.4561810964887D-01
50  4.9000000000000D-01  9.0427316968724D-01 -2.3743317297527D-01
51  5.0000000000000D-01  9.1375627566365D-01 -2.2850267242788D-01
52  5.1000000000000D-01  9.2258964148248D-01 -2.1884939160059D-01
53  5.2000000000000D-01  9.3078077433049D-01 -2.0850015031163D-01
54  5.3000000000000D-01  9.3834041735695D-01 -1.9748572569516D-01
55  5.4000000000000D-01  9.4528251310394D-01 -1.8584074001455D-01
56  5.5000000000000D-01  9.5162413983817D-01 -1.7360351519885D-01
57  5.6000000000000D-01  9.5738542073261D-01 -1.6081589437715D-01
58  5.7000000000000D-01  9.6258940605810D-01 -1.4752303095363D-01
59  5.8000000000000D-01  9.6726192876557D-01 -1.3377314604260D-01
60  5.9000000000000D-01  9.7143143405693D-01 -1.1961725535406D-01
61  6.0000000000000D-01  9.7512878376061D-01 -1.0510886689055D-01
62  6.1000000000000D-01  9.7838703654369D-01 -9.0303651081254D-02
63  6.2000000000000D-01  9.8124120520473D-01 -7.5259085238774D-02
64  6.3000000000000D-01  9.8372799249423D-01 -6.0034074468848D-02
65  6.4000000000000D-01  9.8588550711101D-01 -4.4688551405269D-02
66  6.5000000000000D-01  9.8775296170951D-01 -2.9283057362879D-02
67  6.6000000000000D-01  9.8937035493181D-01 -1.3878307711268D-02
68  6.7000000000000D-01  9.9077813964472D-01  1.4652555366021D-03
69  6.8000000000000D-01  9.9201687971257D-01  1.6687920756565D-02
70  6.9000000000000D-01  9.9312689777640D-01  3.1731170047766D-02
71  7.0000000000000D-01  9.9414791662734D-01  4.6538145425575D-02
72  7.1000000000000D-01  9.9511869686729D-01  6.1054114322693D-02
73  7.2000000000000D-01  9.9607667363356D-01  7.5226930767747D-02
74  7.3000000000000D-01  9.9705759522679D-01  8.9007488561301D-02
75  7.4000000000000D-01  9.9809516652871D-01  1.0235016273765D-01
76  7.5000000000000D-01  9.9922070011424D-01  1.1521323560945D-01
77  7.6000000000000D-01  1.0004627779674D+00  1.2755930371729D-01
78  7.7000000000000D-01  1.0018469266854D+00  1.3935566207038D-01
79  7.8000000000000D-01  1.0033953090136D+00  1.5057466215028D-01
80  7.9000000000000D-01  1.0051264344855D+00  1.6119404027088D-01
81  8.0000000000000D-01  1.0070548918544D+00  1.7119721302981D-01
82  8.1000000000000D-01  1.0091911058905D+00  1.8057353676657D-01
83  8.2000000000000D-01  1.0115411209863D+00  1.8931852813997D-01
84  8.3000000000000D-01  1.0141064138562D+00  1.9743404316975D-01
85  8.4000000000000D-01  1.0168837374449D+00  2.0492841233863D-01
86  8.5000000000000D-01  1.0198649979626D+00  2.1181652962926D-01
87  8.6000000000000D-01  1.0230371667560D+00  2.1811989367132D-01
88  8.7000000000000D-01  1.0263822284917D+00  2.2386659949237D-01
89  8.8000000000000D-01  1.0298771668874D+00  2.2909127970504D-01
90  8.9000000000000D-01  1.0334939889669D+00  2.3383499431829D-01
91  9.0000000000000D-01  1.0371997885422D+00  2.3814506872685D-01
92  9.1000000000000D-01  1.0409568493494D+00  2.4207487981396D-01
93  9.2000000000000D-01  1.0447227879719D+00  2.4568359048861D-01
94  9.3000000000000D-01  1.0484507363901D+00  2.4903583337419D-01
95  9.4000000000000D-01  1.0520895636973D+00  2.5220134475973D-01
96  9.5000000000000D-01  1.0555841362194D+00  2.5525455032046D-01
97  9.6000000000000D-01  1.0588756149726D+00  2.5827410451265D-01
98  9.7000000000000D-01  1.0619017890952D+00  2.6134238592853D-01
99  9.8000000000000D-01  1.0645974435958D+00  2.6454495127891D-01
100  9.9000000000000D-01  1.0668947594695D+00  2.6796995103635D-01
101  1.0000000000000D+00  1.0687237439595D+00  2.7170751012136D-01
102  1.0100000000000D+00  1.0700126884720D+00  2.7584907734705D-01
103  1.0200000000000D+00  1.0706886513970D+00  2.8048674765312D-01
104  1.0300000000000D+00  1.0706779628638D+00  2.8571256143462D-01
105  1.0400000000000D+00  1.0699067482200D+00  2.9161778555280D-01
106  1.0500000000000D+00  1.0683014668428D+00  2.9829218083096D-01
107  1.0600000000000D+00  1.0657894627053D+00  3.0582326104738D-01
108  1.0700000000000D+00  1.0622995229650D+00  3.1429554860801D-01
109  1.0800000000000D+00  1.0577624407237D+00  3.2378983220388D-01
110  1.0900000000000D+00  1.0521115779941D+00  3.3438243187010D-01
111  1.1000000000000D+00  1.0452834248368D+00  3.4614447691301D-01
112  1.1100000000000D+00  1.0372181505899D+00  3.5914120219401D-01
113  1.1200000000000D+00  1.0278601430941D+00  3.7343126822948D-01
114  1.1300000000000D+00  1.0171585318256D+00  3.8906611052757D-01
115  1.1400000000000D+00  1.0050676908952D+00  4.0608932345739D-01
116  1.1500000000000D+00  9.9154771794685D-01  4.2453608381642D-01
117  1.1600000000000D+00  9.7656488510622D-01  4.4443261905278D-01
118  1.1700000000000D+00  9.6009205821871D-01  4.6579572494714D-01
119  1.1800000000000D+00  9.4210908083502D-01  4.8863233721063D-01
120  1.1900000000000D+00  9.2260311958020D-01  5.1293916118210D-01
121  1.2000000000000D+00  9.0156896773392D-01  5.3870236351412D-01
122  1.2100000000000D+00  8.7900930410369D-01  5.6589732935402D-01
123  1.2200000000000D+00  8.5493490458488D-01  5.9448848806749D-01
124  1.2300000000000D+00  8.2936480409674D-01  6.2442921012415D-01
125  1.2400000000000D+00  8.0232640675572D-01  6.5566177751015D-01
126  1.2500000000000D+00  7.7385554269557D-01  6.8811742924801D-01
127  1.2600000000000D+00  7.4399647026310D-01  7.2171648315677D-01
128  1.2700000000000D+00  7.1280182239471D-01  7.5636853487086D-01
129  1.2800000000000D+00  6.8033249677620D-01  7.9197273401728D-01
130  1.2900000000000D+00  6.4665748964825D-01  8.2841813709935D-01
131  1.3000000000000D+00  6.1185367315268D-01  8.6558413657977D-01
132  1.3100000000000D+00  5.7600551710114D-01  9.0334096429920D-01
133  1.3200000000000D+00  5.3920475617316D-01  9.4155026720586D-01
134  1.3300000000000D+00  5.0155000362023D-01  9.8006575326528D-01
135  1.3400000000000D+00  4.6314631366184D-01  1.0187339039233D+00
136  1.3500000000000D+00  4.2410469458228D-01  1.0573947497448D+00
137  1.3600000000000D+00  3.8454157492090D-01  1.0958827053210D+00
138  1.3700000000000D+00  3.4457822607360D-01  1.1340274583289D+00
139  1.3800000000000D+00  3.0434014415978D-01  1.1716549082353D+00
140  1.3900000000000D+00  2.6395639494053D-01  1.2085881489084D+00
141  1.4000000000000D+00  2.2355892584133D-01  1.2446484890902D+00
142  1.4100000000000D+00  1.8328184880268D-01  1.2796565050699D+00
143  1.4200000000000D+00  1.4326069893342D-01  1.3134331183479D+00
144  1.4300000000000D+00  1.0363167321214D-01  1.3458006919948D+00
145  1.4400000000000D+00  6.4530854266368D-02  1.3765841384208D+00
146  1.4500000000000D+00  2.6093424290995D-02  1.4056120313240D+00
147  1.4600000000000D+00 -1.1547125944383D-02  1.4327177146057D+00
148  1.4700000000000D+00 -4.8259787528477D-02  1.4577404006212D+00
149  1.4800000000000D+00 -8.3916818192929D-02  1.4805262504369D+00
150  1.4900000000000D+00 -1.1839451596233D-01  1.5009294284675D+00
151  1.5000000000000D+00 -1.5157397658215D-01  1.5188131243713D+00
152  1.5100000000000D+00 -1.8334182914288D-01  1.5340505343861D+00
153  1.5200000000000D+00 -2.1359094532913D-01  1.5465257959484D+00
154  1.5300000000000D+00 -2.4222111642270D-01  1.5561348673221D+00
155  1.5400000000000D+00 -2.6913969428950D-01  1.5627863473766D+00
156  1.5500000000000D+00 -2.9426219052445D-01  1.5664022273587D+00
157  1.5600000000000D+00 -3.1751283044765D-01  1.5669185704911D+00
158  1.5700000000000D+00 -3.3882505694055D-01  1.5642861125373D+00
159  1.5800000000000D+00 -3.5814198078044D-01  1.5584707790871D+00
160  1.5900000000000D+00 -3.7541677393051D-01  1.5494541149333D+00
161  1.6000000000000D+00 -3.9061300211079D-01  1.5372336207925D+00
162  1.6100000000000D+00 -4.0370489501326D-01  1.5218229955577D+00
163  1.6200000000000D+00 -4.1467754999212D-01  1.5032522786241D+00
164  1.6300000000000D+00 -4.2352706977320D-01  1.4815678936368D+00
165  1.6400000000000D+00 -4.3026062948672D-01  1.4568325874713D+00
166  1.6500000000000D+00 -4.3489647584403D-01  1.4291252690431D+00
167  1.6600000000000D+00 -4.3746385316495D-01  1.3985407392236D+00
168  1.6700000000000D+00 -4.3800286243416D-01  1.3651893330009D+00
169  1.6800000000000D+00 -4.3656424317062D-01  1.3291964144426D+00
170  1.6900000000000D+00 -4.3320910074665D-01  1.2907018885104D+00
171  1.7000000000000D+00 -4.2800854381204D-01  1.2498594560192D+00
172  1.7100000000000D+00 -4.2104325801148D-01  1.2068356911986D+00
173  1.7200000000000D+00 -4.1240305883117D-01  1.1618096234623D+00
174  1.7300000000000D+00 -4.0218637578526D-01  1.1149721422425D+00
175  1.7400000000000D+00 -3.9049970775626D-01  1.0665253475972D+00
176  1.7500000000000D+00 -3.7745704293381D-01  1.0166820225668D+00
177  1.7600000000000D+00 -3.6317918646091D-01  9.6566450797377D-01
178  1.7700000000000D+00 -3.4779304654068D-01  9.1370346838443D-01
179  1.7800000000000D+00 -3.3143088376135D-01  8.6103674788490D-01
180  1.7900000000000D+00 -3.1422952145222D-01  8.0790812976702D-01
181  1.8000000000000D+00 -2.9632952238196D-01  7.5456604480682D-01
182  1.8100000000000D+00 -2.7787433840701D-01  7.0126225120768D-01
183  1.8200000000000D+00 -2.5900943698478D-01  6.4825048012225D-01
184  1.8300000000000D+00 -2.3988140995400D-01  5.9578505981006D-01
185  1.8400000000000D+00 -2.2063707067455D-01  5.4411952622925D-01
186  1.8500000000000D+00 -2.0142254403747D-01  4.9350522681279D-01
187  1.8600000000000D+00 -1.8238235569462D-01  4.4418992643403D-01
188  1.8700000000000D+00 -1.6365852595010D-01  3.9641642377187D-01
189  1.8800000000000D+00 -1.4538967285853D-01  3.5042118433373D-01
190  1.8900000000000D+00 -1.2771013241178D-01  3.0643300189825D-01
191  1.9000000000000D+00 -1.1074909772773D-01  2.6467169084917D-01
192  1.9100000000000D+00 -9.4629786580508D-02  2.2534682311884D-01
193  1.9200000000000D+00 -7.9468638681672D-02  1.8865651165320D-01
194  1.9300000000000D+00 -6.5374550107632D-02  1.5478625111215D-01
195  1.9400000000000D+00 -5.2448149606787D-02  1.2390782264942D-01
196  1.9500000000000D+00 -4.0781117738406D-02  9.6178264090846D-02
197  1.9600000000000D+00 -3.0464274221958D-02  7.1759699739242D-02
198  1.9700000000000D+00 -2.1549630772253D-02  5.0729361371871D-02
199  1.9800000000000D+00 -1.4070364735101D-02  3.3127639614115D-02
200  1.9900000000000D+00 -8.1360342178854D-03  1.9185603598425D-02
201  2.0000000000000D+00 -3.8778809195028D-03  9.1952965748933D-03
202  2.0100000000000D+00 -1.2861198944459D-03  3.1217560937963D-03
203  2.0200000000000D+00 -2.8516499057604D-05  1.6583696363423D-04
204  2.0300000000000D+00  3.0227074261716D-04 -6.4244725467457D-04
205  2.0400000000000D+00  1.5739230307213D-04 -3.4583556449554D-04
206  2.0500000000000D+00 -4.5516807844396D-05  1.0077177168692D-04
207  2.0600000000000D+00 -7.9418174899873D-05  1.7684733974653D-04
208  2.0700000000000D+00 -8.8896744092357D-06  1.9860461870764D-05
209  2.0800000000000D+00  1.4785471134010D-05 -3.2516151333397D-05
210  2.0900000000000D+00  9.9251425792537D-06 -2.1886683122045D-05
211  2.1000000000000D+00 -1.6780940226098D-07  2.4324180259183D-07
212  2.1100000000000D+00 -2.8905353288105D-07  4.1898666842385D-07
213  2.1200000000000D+00 -3.4517083614723D-08  5.0032939308137D-08
214  2.1300000000000D+00  0.0000000000000D+00  0.0000000000000D+00
215  2.1400000000000D+00  0.0000000000000D+00  0.0000000000000D+00
216  2.1500000000000D+00  0.0000000000000D+00  0.0000000000000D+00
217  2.1600000000000D+00  0.0000000000000D+00  0.0000000000000D+00
218  2.1700000000000D+00  0.0000000000000D+00  0.0000000000000D+00
219  2.1800000000000D+00  0.0000000000000D+00  0.0000000000000D+00
220  2.1900000000000D+00  0.0000000000000D+00  0.0000000000000D+00
221  2.2000000000000D+00  0.0000000000000D+00  0.0000000000000D+00
222  2.2100000000000D+00  0.0000000000000D+00  0.0000000000000D+00
223  2.2200000000000D+00  0.0000000000000D+00  0.0000000000000D+00
224  2.2300000000000D+00  0.0000000000000D+00  0.0000000000000D+00
225  2.2400000000000D+00  0.0000000000000D+00  0.0000000000000D+00
226  2.2500000000000D+00  0.0000000000000D+00  0.0000000000000D+00
227  2.2600000000000D+00  0.0000000000000D+00  0.0000000000000D+00
228  2.2700000000000D+00  0.0000000000000D+00  0.0000000000000D+00
229  2.2800000000000D+00  0.0000000000000D+00  0.0000000000000D+00
230  2.2900000000000D+00  0.0000000000000D+00  0.0000000000000D+00
231  2.3000000000000D+00  0.0000000000000D+00  0.0000000000000D+00
232  2.3100000000000D+00  0.0000000000000D+00  0.0000000000000D+00
233  2.3200000000000D+00  0.0000000000000D+00  0.0000000000000D+00
234  2.3300000000000D+00  0.0000000000000D+00  0.0000000000000D+00
235  2.3400000000000D+00  0.0000000000000D+00  0.0000000000000D+00
236  2.3500000000000D+00  0.0000000000000D+00  0.0000000000000D+00
237  2.3600000000000D+00  0.0000000000000D+00  0.0000000000000D+00
238  2.3700000000000D+00  0.0000000000000D+00  0.0000000000000D+00
239  2.3800000000000D+00  0.0000000000000D+00  0.0000000000000D+00
240  2.3900000000000D+00  0.0000000000000D+00  0.0000000000000D+00
241  2.4000000000000D+00  0.0000000000000D+00  0.0000000000000D+00
242  2.4100000000000D+00  0.0000000000000D+00  0.0000000000000D+00
243  2.4200000000000D+00  0.0000000000000D+00  0.0000000000000D+00
244  2.4300000000000D+00  0.0000000000000D+00  0.0000000000000D+00
245  2.4400000000000D+00  0.0000000000000D+00  0.0000000000000D+00
246  2.4500000000000D+00  0.0000000000000D+00  0.0000000000000D+00
247  2.4600000000000D+00  0.0000000000000D+00  0.0000000000000D+00
248  2.4700000000000D+00  0.0000000000000D+00  0.0000000000000D+00
249  2.4800000000000D+00  0.0000000000000D+00  0.0000000000000D+00
250  2.4900000000000D+00  0.0000000000000D+00  0.0000000000000D+00
251  2.5000000000000D+00  0.0000000000000D+00  0.0000000000000D+00
252  2.5100000000000D+00  0.0000000000000D+00  0.0000000000000D+00
253  2.5200000000000D+00  0.0000000000000D+00  0.0000000000000D+00
254  2.5300000000000D+00  0.0000000000000D+00  0.0000000000000D+00
255  2.5400000000000D+00  0.0000000000000D+00  0.0000000000000D+00
256  2.5500000000000D+00  0.0000000000000D+00  0.0000000000000D+00
257  2.5600000000000D+00  0.0000000000000D+00  0.0000000000000D+00
258  2.5700000000000D+00  0.0000000000000D+00  0.0000000000000D+00
259  2.5800000000000D+00  0.0000000000000D+00  0.0000000000000D+00
260  2.5900000000000D+00  0.0000000000000D+00  0.0000000000000D+00
261  2.6000000000000D+00  0.0000000000000D+00  0.0000000000000D+00
262  2.6100000000000D+00  0.0000000000000D+00  0.0000000000000D+00
263  2.6200000000000D+00  0.0000000000000D+00  0.0000000000000D+00
264  2.6300000000000D+00  0.0000000000000D+00  0.0000000000000D+00
265  2.6400000000000D+00  0.0000000000000D+00  0.0000000000000D+00
266  2.6500000000000D+00  0.0000000000000D+00  0.0000000000000D+00
267  2.6600000000000D+00  0.0000000000000D+00  0.0000000000000D+00
268  2.6700000000000D+00  0.0000000000000D+00  0.0000000000000D+00
269  2.6800000000000D+00  0.0000000000000D+00  0.0000000000000D+00
270  2.6900000000000D+00  0.0000000000000D+00  0.0000000000000D+00
271  2.7000000000000D+00  0.0000000000000D+00  0.0000000000000D+00
272  2.7100000000000D+00  0.0000000000000D+00  0.0000000000000D+00
273  2.7200000000000D+00  0.0000000000000D+00  0.0000000000000D+00
274  2.7300000000000D+00  0.0000000000000D+00  0.0000000000000D+00
275  2.7400000000000D+00  0.0000000000000D+00  0.0000000000000D+00
276  2.7500000000000D+00  0.0000000000000D+00  0.0000000000000D+00
277  2.7600000000000D+00  0.0000000000000D+00  0.0000000000000D+00
278  2.7700000000000D+00  0.0000000000000D+00  0.0000000000000D+00
279  2.7800000000000D+00  0.0000000000000D+00  0.0000000000000D+00
280  2.7900000000000D+00  0.0000000000000D+00  0.0000000000000D+00
281  2.8000000000000D+00  0.0000000000000D+00  0.0000000000000D+00
282  2.8100000000000D+00  0.0000000000000D+00  0.0000000000000D+00
283  2.8200000000000D+00  0.0000000000000D+00  0.0000000000000D+00
284  2.8300000000000D+00  0.0000000000000D+00  0.0000000000000D+00
285  2.8400000000000D+00  0.0000000000000D+00  0.0000000000000D+00
286  2.8500000000000D+00  0.0000000000000D+00  0.0000000000000D+00
287  2.8600000000000D+00  0.0000000000000D+00  0.0000000000000D+00
288  2.8700000000000D+00  0.0000000000000D+00  0.0000000000000D+00
289  2.8800000000000D+00  0.0000000000000D+00  0.0000000000000D+00
290  2.8900000000000D+00  0.0000000000000D+00  0.0000000000000D+00
291  2.9000000000000D+00  0.0000000000000D+00  0.0000000000000D+00
292  2.9100000000000D+00  0.0000000000000D+00  0.0000000000000D+00
293  2.9200000000000D+00  0.0000000000000D+00  0.0000000000000D+00
294  2.9300000000000D+00  0.0000000000000D+00  0.0000000000000D+00
295  2.9400000000000D+00  0.0000000000000D+00  0.0000000000000D+00
296  2.9500000000000D+00  0.0000000000000D+00  0.0000000000000D+00
297  2.9600000000000D+00  0.0000000000000D+00  0.0000000000000D+00
298  2.9700000000000D+00  0.0000000000000D+00  0.0000000000000D+00
299  2.9800000000000D+00  0.0000000000000D+00  0.0000000000000D+00
300  2.9900000000000D+00  0.0000000000000D+00  0.0000000000000D+00
301  3.0000000000000D+00  0.0000000000000D+00  0.0000000000000D+00
302  3.0100000000000D+00  0.0000000000000D+00  0.0000000000000D+00
303  3.0200000000000D+00  0.0000000000000D+00  0.0000000000000D+00
304  3.0300000000000D+00  0.0000000000000D+00  0.0000000000000D+00
305  3.0400000000000D+00  0.0000000000000D+00  0.0000000000000D+00
306  3.0500000000000D+00  0.0000000000000D+00  0.0000000000000D+00
307  3.0600000000000D+00  0.0000000000000D+00  0.0000000000000D+00
308  3.0700000000000D+00  0.0000000000000D+00  0.0000000000000D+00
309  3.0800000000000D+00  0.0000000000000D+00  0.0000000000000D+00
310  3.0900000000000D+00  0.0000000000000D+00  0.0000000000000D+00
311  3.1000000000000D+00  0.0000000000000D+00  0.0000000000000D+00
312  3.1100000000000D+00  0.0000000000000D+00  0.0000000000000D+00
313  3.1200000000000D+00  0.0000000000000D+00  0.0000000000000D+00
314  3.1300000000000D+00  0.0000000000000D+00  0.0000000000000D+00
315  3.1400000000000D+00  0.0000000000000D+00  0.0000000000000D+00
316  3.1500000000000D+00  0.0000000000000D+00  0.0000000000000D+00
317  3.1600000000000D+00  0.0000000000000D+00  0.0000000000000D+00
318  3.1700000000000D+00  0.0000000000000D+00  0.0000000000000D+00
319  3.1800000000000D+00  0.0000000000000D+00  0.0000000000000D+00
320  3.1900000000000D+00  0.0000000000000D+00  0.0000000000000D+00
321  3.2000000000000D+00  0.0000000000000D+00  0.0000000000000D+00
322  3.2100000000000D+00  0.0000000000000D+00  0.0000000000000D+00
323  3.2200000000000D+00  0.0000000000000D+00  0.0000000000000D+00
324  3.2300000000000D+00  0.0000000000000D+00  0.0000000000000D+00
325  3.2400000000000D+00  0.0000000000000D+00  0.0000000000000D+00
326  3.2500000000000D+00  0.0000000000000D+00  0.0000000000000D+00
327  3.2600000000000D+00  0.0000000000000D+00  0.0000000000000D+00
328  3.2700000000000D+00  0.0000000000000D+00  0.0000000000000D+00
329  3.2800000000000D+00  0.0000000000000D+00  0.0000000000000D+00
330  3.2900000000000D+00  0.0000000000000D+00  0.0000000000000D+00
331  3.3000000000000D+00  0.0000000000000D+00  0.0000000000000D+00
332  3.3100000000000D+00  0.0000000000000D+00  0.0000000000000D+00
333  3.3200000000000D+00  0.0000000000000D+00  0.0000000000000D+00
334  3.3300000000000D+00  0.0000000000000D+00  0.0000000000000D+00
335  3.3400000000000D+00  0.0000000000000D+00  0.0000000000000D+00
336  3.3500000000000D+00  0.0000000000000D+00  0.0000000000000D+00
337  3.3600000000000D+00  0.0000000000000D+00  0.0000000000000D+00
338  3.3700000000000D+00  0.0000000000000D+00  0.0000000000000D+00
339  3.3800000000000D+00  0.0000000000000D+00  0.0000000000000D+00
340  3.3900000000000D+00  0.0000000000000D+00  0.0000000000000D+00
341  3.4000000000000D+00  0.0000000000000D+00  0.0000000000000D+00
342  3.4100000000000D+00  0.0000000000000D+00  0.0000000000000D+00
343  3.4200000000000D+00  0.0000000000000D+00  0.0000000000000D+00
344  3.4300000000000D+00  0.0000000000000D+00  0.0000000000000D+00
345  3.4400000000000D+00  0.0000000000000D+00  0.0000000000000D+00
346  3.4500000000000D+00  0.0000000000000D+00  0.0000000000000D+00
347  3.4600000000000D+00  0.0000000000000D+00  0.0000000000000D+00
348  3.4700000000000D+00  0.0000000000000D+00  0.0000000000000D+00
349  3.4800000000000D+00  0.0000000000000D+00  0.0000000000000D+00
350  3.4900000000000D+00  0.0000000000000D+00  0.0000000000000D+00
351  3.5000000000000D+00  0.0000000000000D+00  0.0000000000000D+00
352  3.5100000000000D+00  0.0000000000000D+00  0.0000000000000D+00
353  3.5200000000000D+00  0.0000000000000D+00  0.0000000000000D+00
354  3.5300000000000D+00  0.0000000000000D+00  0.0000000000000D+00
355  3.5400000000000D+00  0.0000000000000D+00  0.0000000000000D+00
356  3.5500000000000D+00  0.0000000000000D+00  0.0000000000000D+00
357  3.5600000000000D+00  0.0000000000000D+00  0.0000000000000D+00
358  3.5700000000000D+00  0.0000000000000D+00  0.0000000000000D+00
359  3.5800000000000D+00  0.0000000000000D+00  0.0000000000000D+00
360  3.5900000000000D+00  0.0000000000000D+00  0.0000000000000D+00
361  3.6000000000000D+00  0.0000000000000D+00  0.0000000000000D+00
362  3.6100000000000D+00  0.0000000000000D+00  0.0000000000000D+00
363  3.6200000000000D+00  0.0000000000000D+00  0.0000000000000D+00
364  3.6300000000000D+00  0.0000000000000D+00  0.0000000000000D+00
365  3.6400000000000D+00  0.0000000000000D+00  0.0000000000000D+00
366  3.6500000000000D+00  0.0000000000000D+00  0.0000000000000D+00
367  3.6600000000000D+00  0.0000000000000D+00  0.0000000000000D+00
368  3.6700000000000D+00  0.0000000000000D+00  0.0000000000000D+00
369  3.6800000000000D+00  0.0000000000000D+00  0.0000000000000D+00
370  3.6900000000000D+00  0.0000000000000D+00  0.0000000000000D+00
371  3.7000000000000D+00  0.0000000000000D+00  0.0000000000000D+00
372  3.7100000000000D+00  0.0000000000000D+00  0.0000000000000D+00
373  3.7200000000000D+00  0.0000000000000D+00  0.0000000000000D+00
374  3.7300000000000D+00  0.0000000000000D+00  0.0000000000000D+00
375  3.7400000000000D+00  0.0000000000000D+00  0.0000000000000D+00
376  3.7500000000000D+00  0.0000000000000D+00  0.0000000000000D+00
377  3.7600000000000D+00  0.0000000000000D+00  0.0000000000000D+00
378  3.7700000000000D+00  0.0000000000000D+00  0.0000000000000D+00
379  3.7800000000000D+00  0.0000000000000D+00  0.0000000000000D+00
380  3.7900000000000D+00  0.0000000000000D+00  0.0000000000000D+00
381  3.8000000000000D+00  0.0000000000000D+00  0.0000000000000D+00
382  3.8100000000000D+00  0.0000000000000D+00  0.0000000000000D+00
383  3.8200000000000D+00  0.0000000000000D+00  0.0000000000000D+00
384  3.8300000000000D+00  0.0000000000000D+00  0.0000000000000D+00
385  3.8400000000000D+00  0.0000000000000D+00  0.0000000000000D+00
386  3.8500000000000D+00  0.0000000000000D+00  0.0000000000000D+00
387  3.8600000000000D+00  0.0000000000000D+00  0.0000000000000D+00
388  3.8700000000000D+00  0.0000000000000D+00  0.0000000000000D+00
389  3.8800000000000D+00  0.0000000000000D+00  0.0000000000000D+00
390  3.8900000000000D+00  0.0000000000000D+00  0.0000000000000D+00
391  3.9000000000000D+00  0.0000000000000D+00  0.0000000000000D+00
392  3.9100000000000D+00  0.0000000000000D+00  0.0000000000000D+00
393  3.9200000000000D+00  0.0000000000000D+00  0.0000000000000D+00
394  3.9300000000000D+00  0.0000000000000D+00  0.0000000000000D+00
395  3.9400000000000D+00  0.0000000000000D+00  0.0000000000000D+00
396  3.9500000000000D+00  0.0000000000000D+00  0.0000000000000D+00
397  3.9600000000000D+00  0.0000000000000D+00  0.0000000000000D+00
398  3.9700000000000D+00  0.0000000000000D+00  0.0000000000000D+00
399  3.9800000000000D+00  0.0000000000000D+00  0.0000000000000D+00
400  3.9900000000000D+00  0.0000000000000D+00  0.0000000000000D+00
401  4.0000000000000D+00  0.0000000000000D+00  0.0000000000000D+00
402  4.0100000000000D+00  0.0000000000000D+00  0.0000000000000D+00
403  4.0200000000000D+00  0.0000000000000D+00  0.0000000000000D+00
404  4.0300000000000D+00  0.0000000000000D+00  0.0000000000000D+00
405  4.0400000000000D+00  0.0000000000000D+00  0.0000000000000D+00
406  4.0500000000000D+00  0.0000000000000D+00  0.0000000000000D+00
407  4.0600000000000D+00  0.0000000000000D+00  0.0000000000000D+00
408  4.0700000000000D+00  0.0000000000000D+00  0.0000000000000D+00
409  4.0800000000000D+00  0.0000000000000D+00  0.0000000000000D+00
410  4.0900000000000D+00  0.0000000000000D+00  0.0000000000000D+00
411  4.1000000000000D+00  0.0000000000000D+00  0.0000000000000D+00
412  4.1100000000000D+00  0.0000000000000D+00  0.0000000000000D+00
413  4.1200000000000D+00  0.0000000000000D+00  0.0000000000000D+00
414  4.1300000000000D+00  0.0000000000000D+00  0.0000000000000D+00
415  4.1400000000000D+00  0.0000000000000D+00  0.0000000000000D+00
416  4.1500000000000D+00  0.0000000000000D+00  0.0000000000000D+00
417  4.1600000000000D+00  0.0000000000000D+00  0.0000000000000D+00
418  4.1700000000000D+00  0.0000000000000D+00  0.0000000000000D+00
419  4.1800000000000D+00  0.0000000000000D+00  0.0000000000000D+00
420  4.1900000000000D+00  0.0000000000000D+00  0.0000000000000D+00
421  4.2000000000000D+00  0.0000000000000D+00  0.0000000000000D+00
422  4.2100000000000D+00  0.0000000000000D+00  0.0000000000000D+00
423  4.2200000000000D+00  0.0000000000000D+00  0.0000000000000D+00
424  4.2300000000000D+00  0.0000000000000D+00  0.0000000000000D+00
425  4.2400000000000D+00  0.0000000000000D+00  0.0000000000000D+00
426  4.2500000000000D+00  0.0000000000000D+00  0.0000000000000D+00
427  4.2600000000000D+00  0.0000000000000D+00  0.0000000000000D+00
428  4.2700000000000D+00  0.0000000000000D+00  0.0000000000000D+00
429  4.2800000000000D+00  0.0000000000000D+00  0.0000000000000D+00
430  4.2900000000000D+00  0.0000000000000D+00  0.0000000000000D+00
431  4.3000000000000D+00  0.0000000000000D+00  0.0000000000000D+00
432  4.3100000000000D+00  0.0000000000000D+00  0.0000000000000D+00
433  4.3200000000000D+00  0.0000000000000D+00  0.0000000000000D+00
434  4.3300000000000D+00  0.0000000000000D+00  0.0000000000000D+00
435  4.3400000000000D+00  0.0000000000000D+00  0.0000000000000D+00
436  4.3500000000000D+00  0.0000000000000D+00  0.0000000000000D+00
437  4.3600000000000D+00  0.0000000000000D+00  0.0000000000000D+00
438  4.3700000000000D+00  0.0000000000000D+00  0.0000000000000D+00
439  4.3800000000000D+00  0.0000000000000D+00  0.0000000000000D+00
440  4.3900000000000D+00  0.0000000000000D+00  0.0000000000000D+00
441  4.4000000000000D+00  0.0000000000000D+00  0.0000000000000D+00
442  4.4100000000000D+00  0.0000000000000D+00  0.0000000000000D+00
443  4.4200000000000D+00  0.0000000000000D+00  0.0000000000000D+00
444  4.4300000000000D+00  0.0000000000000D+00  0.0000000000000D+00