Pb    ONCVPSP-3.3.0  r_core=   2.42823   2.42823   2.10438
82.0000     14.0000      180112    zatom,zion,pspd
8 -116133   2     4   600     0    pspcod,pspxc,lmax,lloc,mmax,r2well
5.99000000  6.00000000  0.00000000    rchrg fchrg qchrg
2     2     2     0     0    nproj
1     1           extension_switch
0                         6.2567796803092D+00  1.2065212329061D+00
1  0.0000000000000D+00  2.2777751906844D-12 -5.6511739732201D-12
2  1.0000000000000D-02  5.2765516525136D-03  2.2156838294534D-02
3  2.0000000000000D-02  1.0588390752628D-02  4.4241611892049D-02
4  3.0000000000000D-02  1.5970690746937D-02  6.6182482681398D-02
5  4.0000000000000D-02  2.1458397369159D-02  8.7908065096864D-02
6  5.0000000000000D-02  2.7086115505950D-02  1.0934765082652D-01
7  6.0000000000000D-02  3.2887996927826D-02  1.3043143164735D-01
8  7.0000000000000D-02  3.8897629170855D-02  1.5109071976932D-01
9  8.0000000000000D-02  4.5147925852514D-02  1.7125816507639D-01
10  9.0000000000000D-02  5.1671018702201D-02  1.9086796865937D-01
11  1.0000000000000D-01  5.8498151583483D-02  2.0985609204417D-01
12  1.1000000000000D-01  6.5659576781098D-02  2.2816046152880D-01
13  1.2000000000000D-01  7.3184453821192D-02  2.4572116705374D-01
14  1.3000000000000D-01  8.1100751088090D-02  2.6248065504306D-01
15  1.4000000000000D-01  8.9435150495200D-02  2.7838391466739D-01
16  1.5000000000000D-01  9.8212955461365D-02  2.9337865699547D-01
17  1.6000000000000D-01  1.0745800243717D-01  3.0741548651752D-01
18  1.7000000000000D-01  1.1719257621833D-01  3.2044806454157D-01
19  1.8000000000000D-01  1.2743732927530D-01  3.3243326398309D-01
20  1.9000000000000D-01  1.3821120531989D-01  3.4333131508908D-01
21  2.0000000000000D-01  1.4953136732067D-01  3.5310594165882D-01
22  2.1000000000000D-01  1.6141313016918D-01  3.6172448734708D-01
23  2.2000000000000D-01  1.7386989818945D-01  3.6915803165909D-01
24  2.3000000000000D-01  1.8691310767211D-01  3.7538149527205D-01
25  2.4000000000000D-01  2.0055217460406D-01  3.8037373434408D-01
26  2.5000000000000D-01  2.1479444775256D-01  3.8411762349884D-01
27  2.6000000000000D-01  2.2964516725095D-01  3.8660012720239D-01
28  2.7000000000000D-01  2.4510742882080D-01  3.8781235927799D-01
29  2.8000000000000D-01  2.6118215375216D-01  3.8774963033477D-01
30  2.9000000000000D-01  2.7786806475062D-01  3.8641148291721D-01
31  3.0000000000000D-01  2.9516166774596D-01  3.8380171421408D-01
32  3.1000000000000D-01  3.1305723974332D-01  3.7992838619795D-01
33  3.2000000000000D-01  3.3154682278332D-01  3.7480382309968D-01
34  3.3000000000000D-01  3.5062022406275D-01  3.6844459615590D-01
35  3.4000000000000D-01  3.7026502225259D-01  3.6087149560183D-01
36  3.5000000000000D-01  3.9046658003477D-01  3.5210948991656D-01
37  3.6000000000000D-01  4.1120806286338D-01  3.4218767236280D-01
38  3.7000000000000D-01  4.3247046394055D-01  3.3113919489876D-01
39  3.8000000000000D-01  4.5423263538100D-01  3.1900118957508D-01
40  3.9000000000000D-01  4.7647132552347D-01  3.0581467756571D-01
41  4.0000000000000D-01  4.9916122233072D-01  2.9162446601712D-01
42  4.1000000000000D-01  5.2227500280390D-01  2.7647903293595D-01
43  4.2000000000000D-01  5.4578338832046D-01  2.6043040037076D-01
44  4.3000000000000D-01  5.6965520578883D-01  2.4353399617853D-01
45  4.4000000000000D-01  5.9385745449648D-01  2.2584850470168D-01
46  4.5000000000000D-01  6.1835537851225D-01  2.0743570671560D-01
47  4.6000000000000D-01  6.4311254448760D-01  1.8836030904040D-01
48  4.7000000000000D-01  6.6809092468570D-01  1.6868976424413D-01
49  4.8000000000000D-01  6.9325098505172D-01  1.4849408089651D-01
50  4.9000000000000D-01  7.1855177812239D-01  1.2784562486418D-01
51  5.0000000000000D-01  7.4395104055801D-01  1.0681891216879D-01
52  5.1000000000000D-01  7.6940529506538D-01  8.5490393958569D-02
53  5.2000000000000D-01  7.9486995646608D-01  6.3938234172259D-02
54  5.3000000000000D-01  8.2029944165080D-01  4.2242080501309D-02
55  5.4000000000000D-01  8.4564728314737D-01  2.0482829281458D-02
56  5.5000000000000D-01  8.7086624601734D-01 -1.2576150309646D-03
57  5.6000000000000D-01  8.9590844778428D-01 -2.2896585120575D-02
58  5.7000000000000D-01  9.2072548108541D-01 -4.4350900113995D-02
59  5.8000000000000D-01  9.4526853872786D-01 -6.5537118203524D-02
60  5.9000000000000D-01  9.6948854082077D-01 -8.6371791859342D-02
61  6.0000000000000D-01  9.9333626364564D-01 -1.0677172488142D-01
62  6.1000000000000D-01  1.0167624699191D+00 -1.2665423052926D-01
63  6.2000000000000D-01  1.0397180400948D+00 -1.4593738995691D-01
64  6.3000000000000D-01  1.0621541043455D+00 -1.6454031017218D-01
65  6.4000000000000D-01  1.0840221748596D+00 -1.8238338073262D-01
66  6.5000000000000D-01  1.1052742780835D+00 -1.9938852838706D-01
67  6.6000000000000D-01  1.1258630865375D+00 -2.1547946886976D-01
68  6.7000000000000D-01  1.1457420498291D+00 -2.3058195505542D-01
69  6.8000000000000D-01  1.1648655244888D+00 -2.4462402068632D-01
70  6.9000000000000D-01  1.1831889022514D+00 -2.5753621888922D-01
71  7.0000000000000D-01  1.2006687364083D+00 -2.6925185470753D-01
72  7.1000000000000D-01  1.2172628658565D+00 -2.7970721088573D-01
73  7.2000000000000D-01  1.2329305364758D+00 -2.8884176615632D-01
74  7.3000000000000D-01  1.2476325194683D+00 -2.9659840529563D-01
75  7.4000000000000D-01  1.2613312263005D+00 -3.0292362023363D-01
76  7.5000000000000D-01  1.2739908198959D+00 -3.0776770152379D-01
77  7.6000000000000D-01  1.2855773217320D+00 -3.1108491950303D-01
78  7.7000000000000D-01  1.2960587145074D+00 -3.1283369449747D-01
79  7.8000000000000D-01  1.3054050400529D+00 -3.1297675545855D-01
80  7.9000000000000D-01  1.3135884921730D+00 -3.1148128644488D-01
81  8.0000000000000D-01  1.3205835041158D+00 -3.0831906039793D-01
82  8.1000000000000D-01  1.3263668303844D+00 -3.0346655969582D-01
83  8.2000000000000D-01  1.3309176226166D+00 -2.9690508300578D-01
84  8.3000000000000D-01  1.3342174992748D+00 -2.8862083799650D-01
85  8.4000000000000D-01  1.3362506089062D+00 -2.7860501951203D-01
86  8.5000000000000D-01  1.3370036867502D+00 -2.6685387285256D-01
87  8.6000000000000D-01  1.3364661044884D+00 -2.5336874185209D-01
88  8.7000000000000D-01  1.3346299129522D+00 -2.3815610148948D-01
89  8.8000000000000D-01  1.3314898776230D+00 -2.2122757481703D-01
90  8.9000000000000D-01  1.3270435067810D+00 -2.0259993403990D-01
91  9.0000000000000D-01  1.3212910721812D+00 -1.8229508562984D-01
92  9.1000000000000D-01  1.3142356221540D+00 -1.6034003940771D-01
93  9.2000000000000D-01  1.3058829870563D+00 -1.3676686158130D-01
94  9.3000000000000D-01  1.2962417770155D+00 -1.1161261177722D-01
95  9.4000000000000D-01  1.2853233719384D+00 -8.4919264158789D-02
96  9.5000000000000D-01  1.2731419037767D+00 -5.6733612774884D-02
97  9.6000000000000D-01  1.2597142310667D+00 -2.7107161337768D-02
98  9.7000000000000D-01  1.2450599057855D+00  3.9040023186011D-03
99  9.8000000000000D-01  1.2292011325892D+00  3.6239346795966D-02
100  9.9000000000000D-01  1.2121627205234D+00  6.9834052348299D-02
101  1.0000000000000D+00  1.1939720273213D+00  1.0461918034985D-01
102  1.0100000000000D+00  1.1746588964274D+00  1.4052185655648D-01
103  1.0200000000000D+00  1.1542555869096D+00  1.7746546765169D-01
104  1.0300000000000D+00  1.1327966964456D+00  2.1536987052142D-01
105  1.0400000000000D+00  1.1103190775925D+00  2.5415161365453D-01
106  1.0500000000000D+00  1.0868617475714D+00  2.9372417002023D-01
107  1.0600000000000D+00  1.0624657918195D+00  3.3399818073152D-01
108  1.0700000000000D+00  1.0371742615841D+00  3.7488170876214D-01
109  1.0800000000000D+00  1.0110320658542D+00  4.1628050194422D-01
110  1.0900000000000D+00  9.8408585794212D-01  4.5809826443890D-01
111  1.1000000000000D+00  9.5638391705009D-01  5.0023693583585D-01
112  1.1100000000000D+00  9.2797602517003D-01  5.4259697700952D-01
113  1.1200000000000D+00  8.9891333968411D-01  5.8507766182762D-01
114  1.1300000000000D+00  8.6924826204810D-01  6.2757737378334D-01
115  1.1400000000000D+00  8.3903430295380D-01  6.6999390659952D-01
116  1.1500000000000D+00  8.0832594437864D-01  7.1222476783487D-01
117  1.1600000000000D+00  7.7717849894295D-01  7.5416748450469D-01
118  1.1700000000000D+00  7.4564796700560D-01  7.9571990971550D-01
119  1.1800000000000D+00  7.1379089193707D-01  8.3678052930479D-01
120  1.1900000000000D+00  6.8166421401492D-01  8.7724876747150D-01
121  1.2000000000000D+00  6.4932512339451D-01  9.1702529037826D-01
122  1.2100000000000D+00  6.1683091261046D-01  9.5601230671033D-01
123  1.2200000000000D+00  5.8423882906663D-01  9.9411386418196D-01
124  1.2300000000000D+00  5.5160592797446D-01  1.0312361409837D+00
125  1.2400000000000D+00  5.1898892619837D-01  1.0672877311830D+00
126  1.2500000000000D+00  4.8644405746249D-01  1.1021799231103D+00
127  1.2600000000000D+00  4.5402692937438D-01  1.1358269697622D+00
128  1.2700000000000D+00  4.2179238271084D-01  1.1681463503010D+00
129  1.2800000000000D+00  3.8979435340218D-01  1.1990590217534D+00
130  1.2900000000000D+00  3.5808573765371D-01  1.2284896600105D+00
131  1.3000000000000D+00  3.2671826061974D-01  1.2563668893069D+00
132  1.3100000000000D+00  2.9574234903538D-01  1.2826234993848D+00
133  1.3200000000000D+00  2.6520700821493D-01  1.3071966495402D+00
134  1.3300000000000D+00  2.3515970378538D-01  1.3300280588692D+00
135  1.3400000000000D+00  2.0564624852129D-01  1.3510641820317D+00
136  1.3500000000000D+00  1.7671069464280D-01  1.3702563698705D+00
137  1.3600000000000D+00  1.4839523188384D-01  1.3875610143661D+00
138  1.3700000000000D+00  1.2074009165634D-01  1.4029396773621D+00
139  1.3800000000000D+00  9.3783457600919D-02  1.4163592025874D+00
140  1.3900000000000D+00  6.7561382762206D-02  1.4277918106371D+00
141  1.4000000000000D+00  4.2107713678459D-02  1.4372151764426D+00
142  1.4100000000000D+00  1.7454021560566D-02  1.4446124890538D+00
143  1.4200000000000D+00 -6.3704592265929D-03  1.4499724934557D+00
144  1.4300000000000D+00 -2.9338885192522D-02  1.4532895142126D+00
145  1.4400000000000D+00 -5.1426850172472D-02  1.4545634609717D+00
146  1.4500000000000D+00 -7.2612424006566D-02  1.4537998156022D+00
147  1.4600000000000D+00 -9.2876183433752D-02  1.4510096011810D+00
148  1.4700000000000D+00 -1.1220123509172D-01  1.4462093328066D+00
149  1.4800000000000D+00 -1.3057323059149D-01  1.4394209504096D+00
150  1.4900000000000D+00 -1.4798037370558D-01  1.4306717338870D+00
151  1.5000000000000D+00 -1.6441341960194D-01  1.4199942006460D+00
152  1.5100000000000D+00 -1.7986566629111D-01  1.4074259861781D+00
153  1.5200000000000D+00 -1.9433293823525D-01  1.3930097077881D+00
154  1.5300000000000D+00 -2.0781356233555D-01  1.3767928122085D+00
155  1.5400000000000D+00 -2.2030833634660D-01  1.3588274074475D+00
156  1.5500000000000D+00 -2.3182048991385D-01  1.3391700795549D+00
157  1.5600000000000D+00 -2.4235563841795D-01  1.3178816949497D+00
158  1.5700000000000D+00 -2.5192172978792D-01  1.2950271889200D+00
159  1.5800000000000D+00 -2.6052898459654D-01  1.2706753412104D+00
160  1.5900000000000D+00 -2.6818982957159D-01  1.2448985392556D+00
161  1.6000000000000D+00 -2.7491882494815D-01  1.2177725301940D+00
162  1.6100000000000D+00 -2.8073258578453D-01  1.1893761622093D+00
163  1.6200000000000D+00 -2.8564969774188D-01  1.1597911164677D+00
164  1.6300000000000D+00 -2.8969062747802D-01  1.1291016302681D+00
165  1.6400000000000D+00 -2.9287762817897D-01  1.0973942126970D+00
166  1.6500000000000D+00 -2.9523464043918D-01  1.0647573535343D+00
167  1.6600000000000D+00 -2.9678718900926D-01  1.0312812266712D+00
168  1.6700000000000D+00 -2.9756227568442D-01  9.9705738891061D-01
169  1.6800000000000D+00 -2.9758826884369D-01  9.6217847536955D-01
170  1.6900000000000D+00 -2.9689478996400D-01  9.2673789245517D-01
171  1.7000000000000D+00 -2.9551259760882D-01  8.9082950957962D-01
172  1.7100000000000D+00 -2.9347346925669D-01  8.5454735067021D-01
173  1.7200000000000D+00 -2.9081008145277D-01  8.1798528656263D-01
174  1.7300000000000D+00 -2.8755588868666D-01  7.8123672941903D-01
175  1.7400000000000D+00 -2.8374500144836D-01  7.4439433013368D-01
176  1.7500000000000D+00 -2.7941206390960D-01  7.0754967998167D-01
177  1.7600000000000D+00 -2.7459213162581D-01  6.7079301727184D-01
178  1.7700000000000D+00 -2.6932054976825D-01  6.3421294043263D-01
179  1.7800000000000D+00 -2.6363283218739D-01  5.9789612798605D-01
180  1.7900000000000D+00 -2.5756454190330D-01  5.6192706707577D-01
181  1.8000000000000D+00 -2.5115117320534D-01  5.2638779065283D-01
182  1.8100000000000D+00 -2.4442803603025D-01  4.9135762515257D-01
183  1.8200000000000D+00 -2.3743014271224D-01  4.5691294854586D-01
184  1.8300000000000D+00 -2.3019209777867D-01  4.2312696053774D-01
185  1.8400000000000D+00 -2.2274799087122D-01  3.9006946481411D-01
186  1.8500000000000D+00 -2.1513129337306D-01  3.5780666476972D-01
187  1.8600000000000D+00 -2.0737475890594D-01  3.2640097290794D-01
188  1.8700000000000D+00 -1.9951032806339D-01  2.9591083468481D-01
189  1.8800000000000D+00 -1.9156903775200D-01  2.6639056760371D-01
190  1.8900000000000D+00 -1.8358093515195D-01  2.3789021531517D-01
191  1.9000000000000D+00 -1.7557499700655D-01  2.1045541846702D-01
192  1.9100000000000D+00 -1.6757905379103D-01  1.8412730079839D-01
193  1.9200000000000D+00 -1.5961971979478D-01  1.5894237308120D-01
194  1.9300000000000D+00 -1.5172232844156D-01  1.3493245282566D-01
195  1.9400000000000D+00 -1.4391087372322D-01  1.1212460187716D-01
196  1.9500000000000D+00 -1.3620795740286D-01  9.0541080755041D-02
197  1.9600000000000D+00 -1.2863474224846D-01  7.0199320189552D-02
198  1.9700000000000D+00 -1.2121091159432D-01  5.1111910415208D-02
199  1.9800000000000D+00 -1.1395463467469D-01  3.3286606544209D-02
200  1.9900000000000D+00 -1.0688253869459D-01  1.6726352288056D-02
201  2.0000000000000D+00 -1.0000968657651D-01  1.4293190831123D-03
202  2.0100000000000D+00 -9.3349561313940D-02 -1.2611037241973D-02
203  2.0200000000000D+00 -8.6914056270525D-02 -2.5405904145160D-02
204  2.0300000000000D+00 -8.0713471498292D-02 -3.6971024443035D-02
205  2.0400000000000D+00 -7.4756515432593D-02 -4.7326595188630D-02
206  2.0500000000000D+00 -6.9050316900201D-02 -5.6497137613082D-02
207  2.0600000000000D+00 -6.3600429189613D-02 -6.4511395110424D-02
208  2.0700000000000D+00 -5.8410866511974D-02 -7.1402136645387D-02
209  2.0800000000000D+00 -5.3484124046696D-02 -7.7206012091594D-02
210  2.0900000000000D+00 -4.8821200809430D-02 -8.1963399822447D-02
211  2.1000000000000D+00 -4.4421573953230D-02 -8.5718420256145D-02
212  2.1100000000000D+00 -4.0283370323889D-02 -8.8518330226242D-02
213  2.1200000000000D+00 -3.6403455680753D-02 -9.0413173434524D-02
214  2.1300000000000D+00 -3.2777557703302D-02 -9.1455354355527D-02
215  2.1400000000000D+00 -2.9400378873466D-02 -9.1699263493499D-02
216  2.1500000000000D+00 -2.6265800524682D-02 -9.1200617062011D-02
217  2.1600000000000D+00 -2.3366885213738D-02 -9.0016430439801D-02
218  2.1700000000000D+00 -2.0695956525519D-02 -8.8204762688461D-02
219  2.1800000000000D+00 -1.8244672665393D-02 -8.5824478797485D-02
220  2.1900000000000D+00 -1.6004124408566D-02 -8.2934931857549D-02
221  2.2000000000000D+00 -1.3964906100682D-02 -7.9595738075380D-02
222  2.2100000000000D+00 -1.2117200981582D-02 -7.5866506713064D-02
223  2.2200000000000D+00 -1.0450862417663D-02 -7.1806585077527D-02
224  2.2300000000000D+00 -8.9554949837030D-03 -6.7474805605757D-02
225  2.2400000000000D+00 -7.6205346466166D-03 -6.2929237185413D-02
226  2.2500000000000D+00 -6.4353280289420D-03 -5.8226940714697D-02
227  2.2600000000000D+00 -5.3892098760936D-03 -5.3423731324905D-02
228  2.2700000000000D+00 -4.4715785256829D-03 -4.8573947757668D-02
229  2.2800000000000D+00 -3.6719696082595D-03 -4.3730228232531D-02
230  2.2900000000000D+00 -2.9801264683758D-03 -3.8943296884140D-02
231  2.3000000000000D+00 -2.3860681158016D-03 -3.4261758540003D-02
232  2.3100000000000D+00 -1.8801541469522D-03 -2.9731903333328D-02
233  2.3200000000000D+00 -1.4531454916919D-03 -2.5397524181856D-02
234  2.3300000000000D+00 -1.0962621606368D-03 -2.1299743992343D-02
235  2.3400000000000D+00 -8.0123667261107D-04 -1.7476856077251D-02
236  2.3500000000000D+00 -5.6027823748266D-04 -1.3967320949964D-02
237  2.3600000000000D+00 -3.6641813100996D-04 -1.0798484665732D-02
238  2.3700000000000D+00 -2.1330083828482D-04 -7.9956954264674D-03
239  2.3800000000000D+00 -9.6188225362300D-05 -5.5698571182664D-03
240  2.3900000000000D+00 -7.7932527826553D-06 -3.5821076461404D-03
241  2.4000000000000D+00  5.7326741673188D-05 -2.0707996186674D-03
242  2.4100000000000D+00  1.0562977755485D-04 -1.0623174878096D-03
243  2.4200000000000D+00  1.2849767197908D-04 -4.5612522968141D-04
244  2.4300000000000D+00  1.2090338087751D-04 -1.4650574761419D-04
245  2.4400000000000D+00  8.0241049730941D-05 -1.5019236220687D-05
246  2.4500000000000D+00  3.1049116342243D-05  1.0235989696008D-05
247  2.4600000000000D+00 -5.6149759785691D-06 -2.9832718344171D-06
248  2.4700000000000D+00 -1.4380164203185D-05 -1.0912815299212D-05
249  2.4800000000000D+00 -8.0610258719880D-06 -7.4187703542070D-06
250  2.4900000000000D+00  1.2662569701362D-06  3.0693857222699D-07
251  2.5000000000000D+00  3.2063299245505D-06  1.0462347699667D-06
252  2.5100000000000D+00  1.9094952758664D-06  7.5480966161228D-07
253  2.5200000000000D+00 -1.3820370921827D-07  2.0532480462186D-07
254  2.5300000000000D+00 -3.5477874237146D-07  5.2708336392306D-07
255  2.5400000000000D+00 -2.2261365236251D-07  3.3072994159153D-07
256  2.5500000000000D+00  0.0000000000000D+00  0.0000000000000D+00
257  2.5600000000000D+00  0.0000000000000D+00  0.0000000000000D+00
258  2.5700000000000D+00  0.0000000000000D+00  0.0000000000000D+00
259  2.5800000000000D+00  0.0000000000000D+00  0.0000000000000D+00
260  2.5900000000000D+00  0.0000000000000D+00  0.0000000000000D+00
261  2.6000000000000D+00  0.0000000000000D+00  0.0000000000000D+00
262  2.6100000000000D+00  0.0000000000000D+00  0.0000000000000D+00
263  2.6200000000000D+00  0.0000000000000D+00  0.0000000000000D+00
264  2.6300000000000D+00  0.0000000000000D+00  0.0000000000000D+00
265  2.6400000000000D+00  0.0000000000000D+00  0.0000000000000D+00
266  2.6500000000000D+00  0.0000000000000D+00  0.0000000000000D+00
267  2.6600000000000D+00  0.0000000000000D+00  0.0000000000000D+00
268  2.6700000000000D+00  0.0000000000000D+00  0.0000000000000D+00
269  2.6800000000000D+00  0.0000000000000D+00  0.0000000000000D+00
270  2.6900000000000D+00  0.0000000000000D+00  0.0000000000000D+00
271  2.7000000000000D+00  0.0000000000000D+00  0.0000000000000D+00
272  2.7100000000000D+00  0.0000000000000D+00  0.0000000000000D+00
273  2.7200000000000D+00  0.0000000000000D+00  0.0000000000000D+00
274  2.7300000000000D+00  0.0000000000000D+00  0.0000000000000D+00
275  2.7400000000000D+00  0.0000000000000D+00  0.0000000000000D+00
276  2.7500000000000D+00  0.0000000000000D+00  0.0000000000000D+00
277  2.7600000000000D+00  0.0000000000000D+00  0.0000000000000D+00
278  2.7700000000000D+00  0.0000000000000D+00  0.0000000000000D+00
279  2.7800000000000D+00  0.0000000000000D+00  0.0000000000000D+00
280  2.7900000000000D+00  0.0000000000000D+00  0.0000000000000D+00
281  2.8000000000000D+00  0.0000000000000D+00  0.0000000000000D+00
282  2.8100000000000D+00  0.0000000000000D+00  0.0000000000000D+00
283  2.8200000000000D+00  0.0000000000000D+00  0.0000000000000D+00
284  2.8300000000000D+00  0.0000000000000D+00  0.0000000000000D+00
285  2.8400000000000D+00  0.0000000000000D+00  0.0000000000000D+00
286  2.8500000000000D+00  0.0000000000000D+00  0.0000000000000D+00
287  2.8600000000000D+00  0.0000000000000D+00  0.0000000000000D+00
288  2.8700000000000D+00  0.0000000000000D+00  0.0000000000000D+00
289  2.8800000000000D+00  0.0000000000000D+00  0.0000000000000D+00
290  2.8900000000000D+00  0.0000000000000D+00  0.0000000000000D+00
291  2.9000000000000D+00  0.0000000000000D+00  0.0000000000000D+00
292  2.9100000000000D+00  0.0000000000000D+00  0.0000000000000D+00
293  2.9200000000000D+00  0.0000000000000D+00  0.0000000000000D+00
294  2.9300000000000D+00  0.0000000000000D+00  0.0000000000000D+00
295  2.9400000000000D+00  0.0000000000000D+00  0.0000000000000D+00
296  2.9500000000000D+00  0.0000000000000D+00  0.0000000000000D+00
297  2.9600000000000D+00  0.0000000000000D+00  0.0000000000000D+00
298  2.9700000000000D+00  0.0000000000000D+00  0.0000000000000D+00
299  2.9800000000000D+00  0.0000000000000D+00  0.0000000000000D+00
300  2.9900000000000D+00  0.0000000000000D+00  0.0000000000000D+00
301  3.0000000000000D+00  0.0000000000000D+00  0.0000000000000D+00
302  3.0100000000000D+00  0.0000000000000D+00  0.0000000000000D+00
303  3.0200000000000D+00  0.0000000000000D+00  0.0000000000000D+00
304  3.0300000000000D+00  0.0000000000000D+00  0.0000000000000D+00
305  3.0400000000000D+00  0.0000000000000D+00  0.0000000000000D+00
306  3.0500000000000D+00  0.0000000000000D+00  0.0000000000000D+00
307  3.0600000000000D+00  0.0000000000000D+00  0.0000000000000D+00
308  3.0700000000000D+00  0.0000000000000D+00  0.0000000000000D+00
309  3.0800000000000D+00  0.0000000000000D+00  0.0000000000000D+00
310  3.0900000000000D+00  0.0000000000000D+00  0.0000000000000D+00
311  3.1000000000000D+00  0.0000000000000D+00  0.0000000000000D+00
312  3.1100000000000D+00  0.0000000000000D+00  0.0000000000000D+00
313  3.1200000000000D+00  0.0000000000000D+00  0.0000000000000D+00
314  3.1300000000000D+00  0.0000000000000D+00  0.0000000000000D+00
315  3.1400000000000D+00  0.0000000000000D+00  0.0000000000000D+00
316  3.1500000000000D+00  0.0000000000000D+00  0.0000000000000D+00
317  3.1600000000000D+00  0.0000000000000D+00  0.0000000000000D+00
318  3.1700000000000D+00  0.0000000000000D+00  0.0000000000000D+00
319  3.1800000000000D+00  0.0000000000000D+00  0.0000000000000D+00
320  3.1900000000000D+00  0.0000000000000D+00  0.0000000000000D+00
321  3.2000000000000D+00  0.0000000000000D+00  0.0000000000000D+00
322  3.2100000000000D+00  0.0000000000000D+00  0.0000000000000D+00
323  3.2200000000000D+00  0.0000000000000D+00  0.0000000000000D+00
324  3.2300000000000D+00  0.0000000000000D+00  0.0000000000000D+00
325  3.2400000000000D+00  0.0000000000000D+00  0.0000000000000D+00
326  3.2500000000000D+00  0.0000000000000D+00  0.0000000000000D+00
327  3.2600000000000D+00  0.0000000000000D+00  0.0000000000000D+00
328  3.2700000000000D+00  0.0000000000000D+00  0.0000000000000D+00
329  3.2800000000000D+00  0.0000000000000D+00  0.0000000000000D+00
330  3.2900000000000D+00  0.0000000000000D+00  0.0000000000000D+00
331  3.3000000000000D+00  0.0000000000000D+00  0.0000000000000D+00
332  3.3100000000000D+00  0.0000000000000D+00  0.0000000000000D+00
333  3.3200000000000D+00  0.0000000000000D+00  0.0000000000000D+00
334  3.3300000000000D+00  0.0000000000000D+00  0.0000000000000D+00
335  3.3400000000000D+00  0.0000000000000D+00  0.0000000000000D+00
336  3.3500000000000D+00  0.0000000000000D+00  0.0000000000000D+00
337  3.3600000000000D+00  0.0000000000000D+00  0.0000000000000D+00
338  3.3700000000000D+00  0.0000000000000D+00  0.0000000000000D+00
339  3.3800000000000D+00  0.0000000000000D+00  0.0000000000000D+00
340  3.3900000000000D+00  0.0000000000000D+00  0.0000000000000D+00
341  3.4000000000000D+00  0.0000000000000D+00  0.0000000000000D+00
342  3.4100000000000D+00  0.0000000000000D+00  0.0000000000000D+00
343  3.4200000000000D+00  0.0000000000000D+00  0.0000000000000D+00
344  3.4300000000000D+00  0.0000000000000D+00  0.0000000000000D+00
345  3.4400000000000D+00  0.0000000000000D+00  0.0000000000000D+00
346  3.4500000000000D+00  0.0000000000000D+00  0.0000000000000D+00
347  3.4600000000000D+00  0.0000000000000D+00  0.0000000000000D+00
348  3.4700000000000D+00  0.0000000000000D+00  0.0000000000000D+00
349  3.4800000000000D+00  0.0000000000000D+00  0.0000000000000D+00
350  3.4900000000000D+00  0.0000000000000D+00  0.0000000000000D+00
351  3.5000000000000D+00  0.0000000000000D+00  0.0000000000000D+00
352  3.5100000000000D+00  0.0000000000000D+00  0.0000000000000D+00
353  3.5200000000000D+00  0.0000000000000D+00  0.0000000000000D+00
354  3.5300000000000D+00  0.0000000000000D+00  0.0000000000000D+00
355  3.5400000000000D+00  0.0000000000000D+00  0.0000000000000D+00
356  3.5500000000000D+00  0.0000000000000D+00  0.0000000000000D+00
357  3.5600000000000D+00  0.0000000000000D+00  0.0000000000000D+00
358  3.5700000000000D+00  0.0000000000000D+00  0.0000000000000D+00
359  3.5800000000000D+00  0.0000000000000D+00  0.0000000000000D+00
360  3.5900000000000D+00  0.0000000000000D+00  0.0000000000000D+00
361  3.6000000000000D+00  0.0000000000000D+00  0.0000000000000D+00
362  3.6100000000000D+00  0.0000000000000D+00  0.0000000000000D+00
363  3.6200000000000D+00  0.0000000000000D+00  0.0000000000000D+00
364  3.6300000000000D+00  0.0000000000000D+00  0.0000000000000D+00
365  3.6400000000000D+00  0.0000000000000D+00  0.0000000000000D+00
366  3.6500000000000D+00  0.0000000000000D+00  0.0000000000000D+00
367  3.6600000000000D+00  0.0000000000000D+00  0.0000000000000D+00
368  3.6700000000000D+00  0.0000000000000D+00  0.0000000000000D+00
369  3.6800000000000D+00  0.0000000000000D+00  0.0000000000000D+00
370  3.6900000000000D+00  0.0000000000000D+00  0.0000000000000D+00
371  3.7000000000000D+00  0.0000000000000D+00  0.0000000000000D+00
372  3.7100000000000D+00  0.0000000000000D+00  0.0000000000000D+00
373  3.7200000000000D+00  0.0000000000000D+00  0.0000000000000D+00
374  3.7300000000000D+00  0.0000000000000D+00  0.0000000000000D+00
375  3.7400000000000D+00  0.0000000000000D+00  0.0000000000000D+00
376  3.7500000000000D+00  0.0000000000000D+00  0.0000000000000D+00
377  3.7600000000000D+00  0.0000000000000D+00  0.0000000000000D+00
378  3.7700000000000D+00  0.0000000000000D+00  0.0000000000000D+00
379  3.7800000000000D+00  0.0000000000000D+00  0.0000000000000D+00
380  3.7900000000000D+00  0.0000000000000D+00  0.0000000000000D+00
381  3.8000000000000D+00  0.0000000000000D+00  0.0000000000000D+00
382  3.8100000000000D+00  0.0000000000000D+00  0.0000000000000D+00
383  3.8200000000000D+00  0.0000000000000D+00  0.0000000000000D+00
384  3.8300000000000D+00  0.0000000000000D+00  0.0000000000000D+00
385  3.8400000000000D+00  0.0000000000000D+00  0.0000000000000D+00
386  3.8500000000000D+00  0.0000000000000D+00  0.0000000000000D+00
387  3.8600000000000D+00  0.0000000000000D+00  0.0000000000000D+00
388  3.8700000000000D+00  0.0000000000000D+00  0.0000000000000D+00
389  3.8800000000000D+00  0.0000000000000D+00  0.0000000000000D+00
390  3.8900000000000D+00  0.0000000000000D+00  0.0000000000000D+00
391  3.9000000000000D+00  0.0000000000000D+00  0.0000000000000D+00
392  3.9100000000000D+00  0.0000000000000D+00  0.0000000000000D+00
393  3.9200000000000D+00  0.0000000000000D+00  0.0000000000000D+00
394  3.9300000000000D+00  0.0000000000000D+00  0.0000000000000D+00
395  3.9400000000000D+00  0.0000000000000D+00  0.0000000000000D+00
396  3.9500000000000D+00  0.0000000000000D+00  0.0000000000000D+00
397  3.9600000000000D+00  0.0000000000000D+00  0.0000000000000D+00
398  3.9700000000000D+00  0.0000000000000D+00  0.0000000000000D+00
399  3.9800000000000D+00  0.0000000000000D+00  0.0000000000000D+00
400  3.9900000000000D+00  0.0000000000000D+00  0.0000000000000D+00
401  4.0000000000000D+00  0.0000000000000D+00  0.0000000000000D+00
402  4.0100000000000D+00  0.0000000000000D+00  0.0000000000000D+00
403  4.0200000000000D+00  0.0000000000000D+00  0.0000000000000D+00
404  4.0300000000000D+00  0.0000000000000D+00  0.0000000000000D+00
405  4.0400000000000D+00  0.0000000000000D+00  0.0000000000000D+00
406  4.0500000000000D+00  0.0000000000000D+00  0.0000000000000D+00
407  4.0600000000000D+00  0.0000000000000D+00  0.0000000000000D+00
408  4.0700000000000D+00  0.0000000000000D+00  0.0000000000000D+00
409  4.0800000000000D+00  0.0000000000000D+00  0.0000000000000D+00
410  4.0900000000000D+00  0.0000000000000D+00  0.0000000000000D+00
411  4.1000000000000D+00  0.0000000000000D+00  0.0000000000000D+00
412  4.1100000000000D+00  0.0000000000000D+00  0.0000000000000D+00
413  4.1200000000000D+00  0.0000000000000D+00  0.0000000000000D+00
414  4.1300000000000D+00  0.0000000000000D+00  0.0000000000000D+00
415  4.1400000000000D+00  0.0000000000000D+00  0.0000000000000D+00
416  4.1500000000000D+00  0.0000000000000D+00  0.0000000000000D+00
417  4.1600000000000D+00  0.0000000000000D+00  0.0000000000000D+00
418  4.1700000000000D+00  0.0000000000000D+00  0.0000000000000D+00
419  4.1800000000000D+00  0.0000000000000D+00  0.0000000000000D+00
420  4.1900000000000D+00  0.0000000000000D+00  0.0000000000000D+00
421  4.2000000000000D+00  0.0000000000000D+00  0.0000000000000D+00
422  4.2100000000000D+00  0.0000000000000D+00  0.0000000000000D+00
423  4.2200000000000D+00  0.0000000000000D+00  0.0000000000000D+00
424  4.2300000000000D+00  0.0000000000000D+00  0.0000000000000D+00
425  4.2400000000000D+00  0.0000000000000D+00  0.0000000000000D+00
426  4.2500000000000D+00  0.0000000000000D+00  0.0000000000000D+00
427  4.2600000000000D+00  0.0000000000000D+00  0.0000000000000D+00
428  4.2700000000000D+00  0.0000000000000D+00  0.0000000000000D+00
429  4.2800000000000D+00  0.0000000000000D+00  0.0000000000000D+00
430  4.2900000000000D+00  0.0000000000000D+00  0.0000000000000D+00
431  4.3000000000000D+00  0.0000000000000D+00  0.0000000000000D+00
432  4.3100000000000D+00  0.0000000000000D+00  0.0000000000000D+00
433  4.3200000000000D+00  0.0000000000000D+00  0.0000000000000D+00
434  4.3300000000000D+00  0.0000000000000D+00  0.0000000000000D+00
435  4.3400000000000D+00  0.0000000000000D+00  0.0000000000000D+00
436  4.3500000000000D+00  0.0000000000000D+00  0.0000000000000D+00
437  4.3600000000000D+00  0.0000000000000D+00  0.0000000000000D+00
438  4.3700000000000D+00  0.0000000000000D+00  0.0000000000000D+00
439  4.3800000000000D+00  0.0000000000000D+00  0.0000000000000D+00
440  4.3900000000000D+00  0.0000000000000D+00  0.0000000000000D+00
441  4.4000000000000D+00  0.0000000000000D+00  0.0000000000000D+00
442  4.4100000000000D+00  0.0000000000000D+00  0.0000000000000D+00
443  4.4200000000000D+00  0.0000000000000D+00  0.0000000000000D+00