Pb    ONCVPSP-3.3.0  r_core=   1.40277   1.50685   1.40277
82.0000     22.0000      180112    zatom,zion,pspd
8 -116133   2     4   600     0    pspcod,pspxc,lmax,lloc,mmax,r2well
5.99000000  6.00000000  0.00000000    rchrg fchrg qchrg
2     2     2     0     0    nproj
1     1           extension_switch
0                         1.6718076560720D+01  2.1428554298247D+00
1  0.0000000000000D+00 -7.2279104923467D-10  2.0852256032988D-09
2  1.0000000000000D-02  8.3420190231418D-02 -2.6069347964959D-02
3  2.0000000000000D-02  1.6660986820272D-01 -5.1883731148201D-02
4  3.0000000000000D-02  2.4933964505895D-01 -7.7190642133557D-02
5  4.0000000000000D-02  3.3138236661741D-01 -1.0174245368710D-01
6  5.0000000000000D-02  4.1251420054654D-01 -1.2529877301785D-01
7  6.0000000000000D-02  4.9251568787952D-01 -1.4762869455043D-01
8  7.0000000000000D-02  5.7117274783755D-01 -1.6851291987001D-01
9  8.0000000000000D-02  6.4827762566076D-01 -1.8774571558513D-01
10  9.0000000000000D-02  7.2362977402654D-01 -2.0513668240035D-01
11  1.0000000000000D-01  7.9703665966310D-01 -2.2051231165984D-01
12  1.1000000000000D-01  8.6831448792258D-01 -2.3371730896869D-01
13  1.2000000000000D-01  9.3728883934664D-01 -2.4461566817076D-01
14  1.3000000000000D-01  1.0037952136164D+00 -2.5309148290259D-01
15  1.4000000000000D-01  1.0676794777077D+00 -2.5904948709273D-01
16  1.5000000000000D-01  1.1287982165480D+00 -2.6241532006911D-01
17  1.6000000000000D-01  1.1870189859699D+00 -2.6313551630828D-01
18  1.7000000000000D-01  1.2422204692551D+00 -2.6117722423942D-01
19  1.8000000000000D-01  1.2942925400313D+00 -2.5652766283514D-01
20  1.9000000000000D-01  1.3431362357119D+00 -2.4919332891070D-01
21  2.0000000000000D-01  1.3886636470134D+00 -2.3919897204631D-01
22  2.1000000000000D-01  1.4307977303408D+00 -2.2658635777892D-01
23  2.2000000000000D-01  1.4694720509665D+00 -2.1141284311860D-01
24  2.3000000000000D-01  1.5046304659285D+00 -1.9374979147402D-01
25  2.4000000000000D-01  1.5362267564165D+00 -1.7368085666871D-01
26  2.5000000000000D-01  1.5642242200909D+00 -1.5130016785106D-01
27  2.6000000000000D-01  1.5885952342678D+00 -1.2671044870590D-01
28  2.7000000000000D-01  1.6093208012056D+00 -1.0002110543459D-01
29  2.8000000000000D-01  1.6263900868214D+00 -7.1346318460138D-02
30  2.9000000000000D-01  1.6397999640630D+00 -4.0803172720680D-02
31  3.0000000000000D-01  1.6495545718475D+00 -8.5098607321264D-03
32  3.1000000000000D-01  1.6556648999651D+00  2.5416008664453D-02
33  3.2000000000000D-01  1.6581484096335D+00  6.0858964793075D-02
34  3.3000000000000D-01  1.6570286984922D+00  9.7707064177403D-02
35  3.4000000000000D-01  1.6523352177507D+00  1.3585308832856D-01
36  3.5000000000000D-01  1.6441030479737D+00  1.7519552787266D-01
37  3.6000000000000D-01  1.6323727386102D+00  2.1563933440965D-01
38  3.7000000000000D-01  1.6171902148845D+00  2.5709642567158D-01
39  3.8000000000000D-01  1.5986067540734D+00  2.9948593403276D-01
40  3.9000000000000D-01  1.5766790315375D+00  3.4273419314694D-01
41  4.0000000000000D-01  1.5514692351715D+00  3.8677446237492D-01
42  4.1000000000000D-01  1.5230452452197D+00  4.3154639363890D-01
43  4.2000000000000D-01  1.4914808747048D+00  4.7699525031928D-01
44  4.3000000000000D-01  1.4568561640589D+00  5.2307089271018D-01
45  4.4000000000000D-01  1.4192577219659D+00  5.6972654929027D-01
46  4.5000000000000D-01  1.3787791029505D+00  6.1691739756259D-01
47  4.6000000000000D-01  1.3355212109010D+00  6.6459898239119D-01
48  4.7000000000000D-01  1.2895927165365D+00  7.1272550353723D-01
49  4.8000000000000D-01  1.2411104758265D+00  7.6124800740188D-01
50  4.9000000000000D-01  1.1901999355837D+00  8.1011252075151D-01
51  5.0000000000000D-01  1.1369955118863D+00  8.5925816637541D-01
52  5.1000000000000D-01  1.0816409266680D+00  9.0861530215764D-01
53  5.2000000000000D-01  1.0242894877515D+00  9.5810372589226D-01
54  5.3000000000000D-01  9.6510429780358D-01  1.0076309883055D+00
55  5.4000000000000D-01  9.0425837816395D-01  1.0570908561495D+00
56  5.5000000000000D-01  8.4193469424433D-01  1.1063619658971D+00
57  5.6000000000000D-01  7.7832607020585D-01  1.1553067064863D+00
58  5.7000000000000D-01  7.1363498189027D-01  1.2037703667820D+00
59  5.8000000000000D-01  6.4807321850058D-01  1.2515805799239D+00
60  5.9000000000000D-01  5.8186140526235D-01  1.2985470926149D+00
61  6.0000000000000D-01  5.1522838125661D-01  1.3444618826508D+00
62  6.1000000000000D-01  4.4841042873473D-01  1.3890996427526D+00
63  6.2000000000000D-01  3.8165035251947D-01  1.4322186430068D+00
64  6.3000000000000D-01  3.1519641048983D-01  1.4735619781346D+00
65  6.4000000000000D-01  2.4930109863484D-01  1.5128591994073D+00
66  6.5000000000000D-01  1.8421979669833D-01  1.5498283244272D+00
67  6.6000000000000D-01  1.2020928296430D-01  1.5841782113411D+00
68  6.7000000000000D-01  5.7526129244106D-02  1.6156112773776D+00
69  6.8000000000000D-01 -3.5750104486687D-03  1.6438265350733D+00
70  6.9000000000000D-01 -6.2843201739903D-02  1.6685229132638D+00
71  7.0000000000000D-01 -1.2003310430947D-01  1.6894028239756D+00
72  7.1000000000000D-01 -1.7490689897204D-01  1.7061759308376D+00
73  7.2000000000000D-01 -2.2723624580477D-01  1.7185630697032D+00
74  7.3000000000000D-01 -2.7680425024730D-01  1.7263002678650D+00
75  7.4000000000000D-01 -3.2340741295114D-01  1.7291428046776D+00
76  7.5000000000000D-01 -3.6685753832852D-01  1.7268692536387D+00
77  7.6000000000000D-01 -4.0698357627819D-01  1.7192854440847D+00
78  7.7000000000000D-01 -4.4363337145891D-01  1.7062282796933D+00
79  7.8000000000000D-01 -4.7667529475471D-01  1.6875693509779D+00
80  7.9000000000000D-01 -5.0599973223585D-01  1.6632182799381D+00
81  8.0000000000000D-01 -5.3152040796722D-01  1.6331257370089D+00
82  8.1000000000000D-01 -5.5317551844534D-01  1.5972860734123D+00
83  8.2000000000000D-01 -5.7092865824575D-01  1.5557395159463D+00
84  8.3000000000000D-01 -5.8476951861562D-01  1.5085738760995D+00
85  8.4000000000000D-01 -5.9471434323069D-01  1.4559257311091D+00
86  8.5000000000000D-01 -6.0080612811679D-01  1.3979810411051D+00
87  8.6000000000000D-01 -6.0311455578684D-01  1.3349751737304D+00
88  8.7000000000000D-01 -6.0173565692196D-01  1.2671923155059D+00
89  8.8000000000000D-01 -5.9679119637678D-01  1.1949642575692D+00
90  8.9000000000000D-01 -5.8842778388581D-01  1.1186685522051D+00
91  9.0000000000000D-01 -5.7681571352134D-01  1.0387260456175D+00
92  9.1000000000000D-01 -5.6214753965781D-01  9.5559780155887D-01
93  9.2000000000000D-01 -5.4463640087811D-01  8.6978143959184D-01
94  9.3000000000000D-01 -5.2451410685650D-01  7.8180692076372D-01
95  9.4000000000000D-01 -5.0202900671599D-01  6.9223182218636D-01
96  9.5000000000000D-01 -4.7744366062990D-01  6.0163615029132D-01
97  9.6000000000000D-01 -4.5103233946590D-01  5.1061675023772D-01
98  9.7000000000000D-01 -4.2307838000570D-01  4.1978137595693D-01
99  9.8000000000000D-01 -3.9387142566717D-01  3.2974249150143D-01
100  9.9000000000000D-01 -3.6370458467655D-01  2.4111087964198D-01
101  1.0000000000000D+00 -3.3287153921022D-01  1.5448913782540D-01
102  1.0100000000000D+00 -3.0166364019299D-01  7.0465144779631D-02
103  1.0200000000000D+00 -2.7036702310540D-01 -1.0394417015543D-02
104  1.0300000000000D+00 -2.3925978031790D-01 -8.7550397098086D-02
105  1.0400000000000D+00 -2.0860922515976D-01 -1.6049728564627D-01
106  1.0500000000000D+00 -1.7866928206448D-01 -2.2876901146867D-01
107  1.0600000000000D+00 -1.4967803582060D-01 -2.9194434891210D-01
108  1.0700000000000D+00 -1.2185547120389D-01 -3.4965185738173D-01
109  1.0800000000000D+00 -9.5401431832362D-02 -4.0157428302088D-01
110  1.0900000000000D+00 -7.0493824501533D-02 -4.4745235836536D-01
111  1.1000000000000D+00 -4.7287091879253D-02 -4.8708794403616D-01
112  1.1100000000000D+00 -2.5910973330584D-02 -5.2034646415817D-01
113  1.1200000000000D+00 -6.4695695146298D-03 -5.4715859735531D-01
114  1.1300000000000D+00  1.0959277645300D-02 -5.6752119516111D-01
115  1.1400000000000D+00  2.6324282408578D-02 -5.8149741056435D-01
116  1.1500000000000D+00  3.9600686979976D-02 -5.8921602960649D-01
117  1.1600000000000D+00  5.0789909118828D-02 -5.9087001046173D-01
118  1.1700000000000D+00  5.9918872004004D-02 -5.8671424658732D-01
119  1.1800000000000D+00  6.7039027247455D-02 -5.7706258171853D-01
120  1.1900000000000D+00  7.2225085293733D-02 -5.6228411282723D-01
121  1.2000000000000D+00  7.5573473007253D-02 -5.4279883106815D-01
122  1.2100000000000D+00  7.7200541656681D-02 -5.1907265926350D-01
123  1.2200000000000D+00  7.7240551936402D-02 -4.9161195305535D-01
124  1.2300000000000D+00  7.5843465680405D-02 -4.6095754040153D-01
125  1.2400000000000D+00  7.3172577954619D-02 -4.2767838417755D-01
126  1.2500000000000D+00  6.9402024565947D-02 -3.9236495601246D-01
127  1.2600000000000D+00  6.4714201756605D-02 -3.5562241383416D-01
128  1.2700000000000D+00  5.9297141473758D-02 -3.1806369370215D-01
129  1.2800000000000D+00  5.3341876493661D-02 -2.8030259926190D-01
130  1.2900000000000D+00  4.7039759531135D-02 -2.4294677508675D-01
131  1.3000000000000D+00  4.0579983227849D-02 -2.0659124708093D-01
132  1.3100000000000D+00  3.4147662146905D-02 -1.7181360189968D-01
133  1.3200000000000D+00  2.7918657352993D-02 -1.3915960866628D-01
134  1.3300000000000D+00  2.2054528351138D-02 -1.0912932861611D-01
135  1.3400000000000D+00  1.6697221668747D-02 -8.2162614242813D-02
136  1.3500000000000D+00  1.1966924843032D-02 -5.8633792652331D-02
137  1.3600000000000D+00  7.9631859714086D-03 -3.8860589086799D-02
138  1.3700000000000D+00  4.7498356702698D-03 -2.3035454393026D-02
139  1.3800000000000D+00  2.3652532344583D-03 -1.1280612008414D-02
140  1.3900000000000D+00  9.1593259749547D-04 -4.0671587556869D-03
141  1.4000000000000D+00  2.7996115242451D-04 -8.8920835523379D-04
142  1.4100000000000D+00  5.8175878894369D-05 -7.2206922317180D-06
143  1.4200000000000D+00 -6.0327338526257D-07 -2.7638971456583D-06
144  1.4300000000000D+00 -1.8899623619165D-06 -3.4397692675432D-05
145  1.4400000000000D+00  1.0127592173284D-06  2.5307321439627D-06
146  1.4500000000000D+00  7.6099250100515D-07  3.0061280478637D-06
147  1.4600000000000D+00 -5.1720882182843D-07  1.3156946767537D-06
148  1.4700000000000D+00 -1.2374337376553D-07  3.1478291025915D-07
149  1.4800000000000D+00  0.0000000000000D+00  0.0000000000000D+00
150  1.4900000000000D+00  0.0000000000000D+00  0.0000000000000D+00
151  1.5000000000000D+00  0.0000000000000D+00  0.0000000000000D+00
152  1.5100000000000D+00  0.0000000000000D+00  0.0000000000000D+00
153  1.5200000000000D+00  0.0000000000000D+00  0.0000000000000D+00
154  1.5300000000000D+00  0.0000000000000D+00  0.0000000000000D+00
155  1.5400000000000D+00  0.0000000000000D+00  0.0000000000000D+00
156  1.5500000000000D+00  0.0000000000000D+00  0.0000000000000D+00
157  1.5600000000000D+00  0.0000000000000D+00  0.0000000000000D+00
158  1.5700000000000D+00  0.0000000000000D+00  0.0000000000000D+00
159  1.5800000000000D+00  0.0000000000000D+00  0.0000000000000D+00
160  1.5900000000000D+00  0.0000000000000D+00  0.0000000000000D+00
161  1.6000000000000D+00  0.0000000000000D+00  0.0000000000000D+00
162  1.6100000000000D+00  0.0000000000000D+00  0.0000000000000D+00
163  1.6200000000000D+00  0.0000000000000D+00  0.0000000000000D+00
164  1.6300000000000D+00  0.0000000000000D+00  0.0000000000000D+00
165  1.6400000000000D+00  0.0000000000000D+00  0.0000000000000D+00
166  1.6500000000000D+00  0.0000000000000D+00  0.0000000000000D+00
167  1.6600000000000D+00  0.0000000000000D+00  0.0000000000000D+00
168  1.6700000000000D+00  0.0000000000000D+00  0.0000000000000D+00
169  1.6800000000000D+00  0.0000000000000D+00  0.0000000000000D+00
170  1.6900000000000D+00  0.0000000000000D+00  0.0000000000000D+00
171  1.7000000000000D+00  0.0000000000000D+00  0.0000000000000D+00
172  1.7100000000000D+00  0.0000000000000D+00  0.0000000000000D+00
173  1.7200000000000D+00  0.0000000000000D+00  0.0000000000000D+00
174  1.7300000000000D+00  0.0000000000000D+00  0.0000000000000D+00
175  1.7400000000000D+00  0.0000000000000D+00  0.0000000000000D+00
176  1.7500000000000D+00  0.0000000000000D+00  0.0000000000000D+00
177  1.7600000000000D+00  0.0000000000000D+00  0.0000000000000D+00
178  1.7700000000000D+00  0.0000000000000D+00  0.0000000000000D+00
179  1.7800000000000D+00  0.0000000000000D+00  0.0000000000000D+00
180  1.7900000000000D+00  0.0000000000000D+00  0.0000000000000D+00
181  1.8000000000000D+00  0.0000000000000D+00  0.0000000000000D+00
182  1.8100000000000D+00  0.0000000000000D+00  0.0000000000000D+00
183  1.8200000000000D+00  0.0000000000000D+00  0.0000000000000D+00
184  1.8300000000000D+00  0.0000000000000D+00  0.0000000000000D+00
185  1.8400000000000D+00  0.0000000000000D+00  0.0000000000000D+00
186  1.8500000000000D+00  0.0000000000000D+00  0.0000000000000D+00
187  1.8600000000000D+00  0.0000000000000D+00  0.0000000000000D+00
188  1.8700000000000D+00  0.0000000000000D+00  0.0000000000000D+00
189  1.8800000000000D+00  0.0000000000000D+00  0.0000000000000D+00
190  1.8900000000000D+00  0.0000000000000D+00  0.0000000000000D+00
191  1.9000000000000D+00  0.0000000000000D+00  0.0000000000000D+00
192  1.9100000000000D+00  0.0000000000000D+00  0.0000000000000D+00
193  1.9200000000000D+00  0.0000000000000D+00  0.0000000000000D+00
194  1.9300000000000D+00  0.0000000000000D+00  0.0000000000000D+00
195  1.9400000000000D+00  0.0000000000000D+00  0.0000000000000D+00
196  1.9500000000000D+00  0.0000000000000D+00  0.0000000000000D+00
197  1.9600000000000D+00  0.0000000000000D+00  0.0000000000000D+00
198  1.9700000000000D+00  0.0000000000000D+00  0.0000000000000D+00
199  1.9800000000000D+00  0.0000000000000D+00  0.0000000000000D+00
200  1.9900000000000D+00  0.0000000000000D+00  0.0000000000000D+00
201  2.0000000000000D+00  0.0000000000000D+00  0.0000000000000D+00
202  2.0100000000000D+00  0.0000000000000D+00  0.0000000000000D+00
203  2.0200000000000D+00  0.0000000000000D+00  0.0000000000000D+00
204  2.0300000000000D+00  0.0000000000000D+00  0.0000000000000D+00
205  2.0400000000000D+00  0.0000000000000D+00  0.0000000000000D+00
206  2.0500000000000D+00  0.0000000000000D+00  0.0000000000000D+00
207  2.0600000000000D+00  0.0000000000000D+00  0.0000000000000D+00
208  2.0700000000000D+00  0.0000000000000D+00  0.0000000000000D+00
209  2.0800000000000D+00  0.0000000000000D+00  0.0000000000000D+00
210  2.0900000000000D+00  0.0000000000000D+00  0.0000000000000D+00
211  2.1000000000000D+00  0.0000000000000D+00  0.0000000000000D+00
212  2.1100000000000D+00  0.0000000000000D+00  0.0000000000000D+00
213  2.1200000000000D+00  0.0000000000000D+00  0.0000000000000D+00
214  2.1300000000000D+00  0.0000000000000D+00  0.0000000000000D+00
215  2.1400000000000D+00  0.0000000000000D+00  0.0000000000000D+00
216  2.1500000000000D+00  0.0000000000000D+00  0.0000000000000D+00
217  2.1600000000000D+00  0.0000000000000D+00  0.0000000000000D+00
218  2.1700000000000D+00  0.0000000000000D+00  0.0000000000000D+00
219  2.1800000000000D+00  0.0000000000000D+00  0.0000000000000D+00
220  2.1900000000000D+00  0.0000000000000D+00  0.0000000000000D+00
221  2.2000000000000D+00  0.0000000000000D+00  0.0000000000000D+00
222  2.2100000000000D+00  0.0000000000000D+00  0.0000000000000D+00
223  2.2200000000000D+00  0.0000000000000D+00  0.0000000000000D+00
224  2.2300000000000D+00  0.0000000000000D+00  0.0000000000000D+00
225  2.2400000000000D+00  0.0000000000000D+00  0.0000000000000D+00
226  2.2500000000000D+00  0.0000000000000D+00  0.0000000000000D+00
227  2.2600000000000D+00  0.0000000000000D+00  0.0000000000000D+00
228  2.2700000000000D+00  0.0000000000000D+00  0.0000000000000D+00
229  2.2800000000000D+00  0.0000000000000D+00  0.0000000000000D+00
230  2.2900000000000D+00  0.0000000000000D+00  0.0000000000000D+00
231  2.3000000000000D+00  0.0000000000000D+00  0.0000000000000D+00
232  2.3100000000000D+00  0.0000000000000D+00  0.0000000000000D+00
233  2.3200000000000D+00  0.0000000000000D+00  0.0000000000000D+00
234  2.3300000000000D+00  0.0000000000000D+00  0.0000000000000D+00
235  2.3400000000000D+00  0.0000000000000D+00  0.0000000000000D+00
236  2.3500000000000D+00  0.0000000000000D+00  0.0000000000000D+00
237  2.3600000000000D+00  0.0000000000000D+00  0.0000000000000D+00
238  2.3700000000000D+00  0.0000000000000D+00  0.0000000000000D+00
239  2.3800000000000D+00  0.0000000000000D+00  0.0000000000000D+00
240  2.3900000000000D+00  0.0000000000000D+00  0.0000000000000D+00
241  2.4000000000000D+00  0.0000000000000D+00  0.0000000000000D+00
242  2.4100000000000D+00  0.0000000000000D+00  0.0000000000000D+00
243  2.4200000000000D+00  0.0000000000000D+00  0.0000000000000D+00
244  2.4300000000000D+00  0.0000000000000D+00  0.0000000000000D+00
245  2.4400000000000D+00  0.0000000000000D+00  0.0000000000000D+00
246  2.4500000000000D+00  0.0000000000000D+00  0.0000000000000D+00
247  2.4600000000000D+00  0.0000000000000D+00  0.0000000000000D+00
248  2.4700000000000D+00  0.0000000000000D+00  0.0000000000000D+00
249  2.4800000000000D+00  0.0000000000000D+00  0.0000000000000D+00
250  2.4900000000000D+00  0.0000000000000D+00  0.0000000000000D+00
251  2.5000000000000D+00  0.0000000000000D+00  0.0000000000000D+00
252  2.5100000000000D+00  0.0000000000000D+00  0.0000000000000D+00
253  2.5200000000000D+00  0.0000000000000D+00  0.0000000000000D+00
254  2.5300000000000D+00  0.0000000000000D+00  0.0000000000000D+00
255  2.5400000000000D+00  0.0000000000000D+00  0.0000000000000D+00
256  2.5500000000000D+00  0.0000000000000D+00  0.0000000000000D+00
257  2.5600000000000D+00  0.0000000000000D+00  0.0000000000000D+00
258  2.5700000000000D+00  0.0000000000000D+00  0.0000000000000D+00
259  2.5800000000000D+00  0.0000000000000D+00  0.0000000000000D+00
260  2.5900000000000D+00  0.0000000000000D+00  0.0000000000000D+00
261  2.6000000000000D+00  0.0000000000000D+00  0.0000000000000D+00
262  2.6100000000000D+00  0.0000000000000D+00  0.0000000000000D+00
263  2.6200000000000D+00  0.0000000000000D+00  0.0000000000000D+00
264  2.6300000000000D+00  0.0000000000000D+00  0.0000000000000D+00
265  2.6400000000000D+00  0.0000000000000D+00  0.0000000000000D+00
266  2.6500000000000D+00  0.0000000000000D+00  0.0000000000000D+00
267  2.6600000000000D+00  0.0000000000000D+00  0.0000000000000D+00
268  2.6700000000000D+00  0.0000000000000D+00  0.0000000000000D+00
269  2.6800000000000D+00  0.0000000000000D+00  0.0000000000000D+00
270  2.6900000000000D+00  0.0000000000000D+00  0.0000000000000D+00
271  2.7000000000000D+00  0.0000000000000D+00  0.0000000000000D+00
272  2.7100000000000D+00  0.0000000000000D+00  0.0000000000000D+00
273  2.7200000000000D+00  0.0000000000000D+00  0.0000000000000D+00
274  2.7300000000000D+00  0.0000000000000D+00  0.0000000000000D+00
275  2.7400000000000D+00  0.0000000000000D+00  0.0000000000000D+00
276  2.7500000000000D+00  0.0000000000000D+00  0.0000000000000D+00
277  2.7600000000000D+00  0.0000000000000D+00  0.0000000000000D+00
278  2.7700000000000D+00  0.0000000000000D+00  0.0000000000000D+00
279  2.7800000000000D+00  0.0000000000000D+00  0.0000000000000D+00
280  2.7900000000000D+00  0.0000000000000D+00  0.0000000000000D+00
281  2.8000000000000D+00  0.0000000000000D+00  0.0000000000000D+00
282  2.8100000000000D+00  0.0000000000000D+00  0.0000000000000D+00
283  2.8200000000000D+00  0.0000000000000D+00  0.0000000000000D+00
284  2.8300000000000D+00  0.0000000000000D+00  0.0000000000000D+00
285  2.8400000000000D+00  0.0000000000000D+00  0.0000000000000D+00
286  2.8500000000000D+00  0.0000000000000D+00  0.0000000000000D+00
287  2.8600000000000D+00  0.0000000000000D+00  0.0000000000000D+00
288  2.8700000000000D+00  0.0000000000000D+00  0.0000000000000D+00
289  2.8800000000000D+00  0.0000000000000D+00  0.0000000000000D+00
290  2.8900000000000D+00  0.0000000000000D+00  0.0000000000000D+00
291  2.9000000000000D+00  0.0000000000000D+00  0.0000000000000D+00
292  2.9100000000000D+00  0.0000000000000D+00  0.0000000000000D+00
293  2.9200000000000D+00  0.0000000000000D+00  0.0000000000000D+00
294  2.9300000000000D+00  0.0000000000000D+00  0.0000000000000D+00
295  2.9400000000000D+00  0.0000000000000D+00  0.0000000000000D+00
296  2.9500000000000D+00  0.0000000000000D+00  0.0000000000000D+00
297  2.9600000000000D+00  0.0000000000000D+00  0.0000000000000D+00
298  2.9700000000000D+00  0.0000000000000D+00  0.0000000000000D+00
299  2.9800000000000D+00  0.0000000000000D+00  0.0000000000000D+00
300  2.9900000000000D+00  0.0000000000000D+00  0.0000000000000D+00
301  3.0000000000000D+00  0.0000000000000D+00  0.0000000000000D+00
302  3.0100000000000D+00  0.0000000000000D+00  0.0000000000000D+00
303  3.0200000000000D+00  0.0000000000000D+00  0.0000000000000D+00
304  3.0300000000000D+00  0.0000000000000D+00  0.0000000000000D+00
305  3.0400000000000D+00  0.0000000000000D+00  0.0000000000000D+00
306  3.0500000000000D+00  0.0000000000000D+00  0.0000000000000D+00
307  3.0600000000000D+00  0.0000000000000D+00  0.0000000000000D+00
308  3.0700000000000D+00  0.0000000000000D+00  0.0000000000000D+00
309  3.0800000000000D+00  0.0000000000000D+00  0.0000000000000D+00
310  3.0900000000000D+00  0.0000000000000D+00  0.0000000000000D+00
311  3.1000000000000D+00  0.0000000000000D+00  0.0000000000000D+00
312  3.1100000000000D+00  0.0000000000000D+00  0.0000000000000D+00
313  3.1200000000000D+00  0.0000000000000D+00  0.0000000000000D+00
314  3.1300000000000D+00  0.0000000000000D+00  0.0000000000000D+00
315  3.1400000000000D+00  0.0000000000000D+00  0.0000000000000D+00
316  3.1500000000000D+00  0.0000000000000D+00  0.0000000000000D+00
317  3.1600000000000D+00  0.0000000000000D+00  0.0000000000000D+00
318  3.1700000000000D+00  0.0000000000000D+00  0.0000000000000D+00
319  3.1800000000000D+00  0.0000000000000D+00  0.0000000000000D+00
320  3.1900000000000D+00  0.0000000000000D+00  0.0000000000000D+00
321  3.2000000000000D+00  0.0000000000000D+00  0.0000000000000D+00
322  3.2100000000000D+00  0.0000000000000D+00  0.0000000000000D+00
323  3.2200000000000D+00  0.0000000000000D+00  0.0000000000000D+00
324  3.2300000000000D+00  0.0000000000000D+00  0.0000000000000D+00
325  3.2400000000000D+00  0.0000000000000D+00  0.0000000000000D+00
326  3.2500000000000D+00  0.0000000000000D+00  0.0000000000000D+00
327  3.2600000000000D+00  0.0000000000000D+00  0.0000000000000D+00
328  3.2700000000000D+00  0.0000000000000D+00  0.0000000000000D+00
329  3.2800000000000D+00  0.0000000000000D+00  0.0000000000000D+00
330  3.2900000000000D+00  0.0000000000000D+00  0.0000000000000D+00
331  3.3000000000000D+00  0.0000000000000D+00  0.0000000000000D+00
332  3.3100000000000D+00  0.0000000000000D+00  0.0000000000000D+00
333  3.3200000000000D+00  0.0000000000000D+00  0.0000000000000D+00
334  3.3300000000000D+00  0.0000000000000D+00  0.0000000000000D+00
335  3.3400000000000D+00  0.0000000000000D+00  0.0000000000000D+00
336  3.3500000000000D+00  0.0000000000000D+00  0.0000000000000D+00
337  3.3600000000000D+00  0.0000000000000D+00  0.0000000000000D+00
338  3.3700000000000D+00  0.0000000000000D+00  0.0000000000000D+00
339  3.3800000000000D+00  0.0000000000000D+00  0.0000000000000D+00
340  3.3900000000000D+00  0.0000000000000D+00  0.0000000000000D+00
341  3.4000000000000D+00  0.0000000000000D+00  0.0000000000000D+00
342  3.4100000000000D+00  0.0000000000000D+00  0.0000000000000D+00
343  3.4200000000000D+00  0.0000000000000D+00  0.0000000000000D+00
344  3.4300000000000D+00  0.0000000000000D+00  0.0000000000000D+00
345  3.4400000000000D+00  0.0000000000000D+00  0.0000000000000D+00
346  3.4500000000000D+00  0.0000000000000D+00  0.0000000000000D+00
347  3.4600000000000D+00  0.0000000000000D+00  0.0000000000000D+00
348  3.4700000000000D+00  0.0000000000000D+00  0.0000000000000D+00
349  3.4800000000000D+00  0.0000000000000D+00  0.0000000000000D+00
350  3.4900000000000D+00  0.0000000000000D+00  0.0000000000000D+00
351  3.5000000000000D+00  0.0000000000000D+00  0.0000000000000D+00
352  3.5100000000000D+00  0.0000000000000D+00  0.0000000000000D+00
353  3.5200000000000D+00  0.0000000000000D+00  0.0000000000000D+00
354  3.5300000000000D+00  0.0000000000000D+00  0.0000000000000D+00
355  3.5400000000000D+00  0.0000000000000D+00  0.0000000000000D+00
356  3.5500000000000D+00  0.0000000000000D+00  0.0000000000000D+00
357  3.5600000000000D+00  0.0000000000000D+00  0.0000000000000D+00
358  3.5700000000000D+00  0.0000000000000D+00  0.0000000000000D+00
359  3.5800000000000D+00  0.0000000000000D+00  0.0000000000000D+00
360  3.5900000000000D+00  0.0000000000000D+00  0.0000000000000D+00
361  3.6000000000000D+00  0.0000000000000D+00  0.0000000000000D+00
362  3.6100000000000D+00  0.0000000000000D+00  0.0000000000000D+00
363  3.6200000000000D+00  0.0000000000000D+00  0.0000000000000D+00
364  3.6300000000000D+00  0.0000000000000D+00  0.0000000000000D+00
365  3.6400000000000D+00  0.0000000000000D+00  0.0000000000000D+00
366  3.6500000000000D+00  0.0000000000000D+00  0.0000000000000D+00
367  3.6600000000000D+00  0.0000000000000D+00  0.0000000000000D+00
368  3.6700000000000D+00  0.0000000000000D+00  0.0000000000000D+00
369  3.6800000000000D+00  0.0000000000000D+00  0.0000000000000D+00
370  3.6900000000000D+00  0.0000000000000D+00  0.0000000000000D+00
371  3.7000000000000D+00  0.0000000000000D+00  0.0000000000000D+00
372  3.7100000000000D+00  0.0000000000000D+00  0.0000000000000D+00
373  3.7200000000000D+00  0.0000000000000D+00  0.0000000000000D+00
374  3.7300000000000D+00  0.0000000000000D+00  0.0000000000000D+00
375  3.7400000000000D+00  0.0000000000000D+00  0.0000000000000D+00
376  3.7500000000000D+00  0.0000000000000D+00  0.0000000000000D+00
377  3.7600000000000D+00  0.0000000000000D+00  0.0000000000000D+00
378  3.7700000000000D+00  0.0000000000000D+00  0.0000000000000D+00
379  3.7800000000000D+00  0.0000000000000D+00  0.0000000000000D+00
380  3.7900000000000D+00  0.0000000000000D+00  0.0000000000000D+00
381  3.8000000000000D+00  0.0000000000000D+00  0.0000000000000D+00
382  3.8100000000000D+00  0.0000000000000D+00  0.0000000000000D+00
383  3.8200000000000D+00  0.0000000000000D+00  0.0000000000000D+00
384  3.8300000000000D+00  0.0000000000000D+00  0.0000000000000D+00
385  3.8400000000000D+00  0.0000000000000D+00  0.0000000000000D+00
386  3.8500000000000D+00  0.0000000000000D+00  0.0000000000000D+00
387  3.8600000000000D+00  0.0000000000000D+00  0.0000000000000D+00
388  3.8700000000000D+00  0.0000000000000D+00  0.0000000000000D+00
389  3.8800000000000D+00  0.0000000000000D+00  0.0000000000000D+00
390  3.8900000000000D+00  0.0000000000000D+00  0.0000000000000D+00
391  3.9000000000000D+00  0.0000000000000D+00  0.0000000000000D+00
392  3.9100000000000D+00  0.0000000000000D+00  0.0000000000000D+00
393  3.9200000000000D+00  0.0000000000000D+00  0.0000000000000D+00
394  3.9300000000000D+00  0.0000000000000D+00  0.0000000000000D+00
395  3.9400000000000D+00  0.0000000000000D+00  0.0000000000000D+00
396  3.9500000000000D+00  0.0000000000000D+00  0.0000000000000D+00
397  3.9600000000000D+00  0.0000000000000D+00  0.0000000000000D+00
398  3.9700000000000D+00  0.0000000000000D+00  0.0000000000000D+00
399  3.9800000000000D+00  0.0000000000000D+00  0.0000000000000D+00
400  3.9900000000000D+00  0.0000000000000D+00  0.0000000000000D+00
401  4.0000000000000D+00  0.0000000000000D+00  0.0000000000000D+00
402  4.0100000000000D+00  0.0000000000000D+00  0.0000000000000D+00
403  4.0200000000000D+00  0.0000000000000D+00  0.0000000000000D+00
404  4.0300000000000D+00  0.0000000000000D+00  0.0000000000000D+00
405  4.0400000000000D+00  0.0000000000000D+00  0.0000000000000D+00
406  4.0500000000000D+00  0.0000000000000D+00  0.0000000000000D+00
407  4.0600000000000D+00  0.0000000000000D+00  0.0000000000000D+00
408  4.0700000000000D+00  0.0000000000000D+00  0.0000000000000D+00
409  4.0800000000000D+00  0.0000000000000D+00  0.0000000000000D+00
410  4.0900000000000D+00  0.0000000000000D+00  0.0000000000000D+00
411  4.1000000000000D+00  0.0000000000000D+00  0.0000000000000D+00
412  4.1100000000000D+00  0.0000000000000D+00  0.0000000000000D+00
413  4.1200000000000D+00  0.0000000000000D+00  0.0000000000000D+00
414  4.1300000000000D+00  0.0000000000000D+00  0.0000000000000D+00
415  4.1400000000000D+00  0.0000000000000D+00  0.0000000000000D+00
416  4.1500000000000D+00  0.0000000000000D+00  0.0000000000000D+00
417  4.1600000000000D+00  0.0000000000000D+00  0.0000000000000D+00
418  4.1700000000000D+00  0.0000000000000D+00  0.0000000000000D+00
419  4.1800000000000D+00  0.0000000000000D+00  0.0000000000000D+00
420  4.1900000000000D+00  0.0000000000000D+00  0.0000000000000D+00
421  4.2000000000000D+00  0.0000000000000D+00  0.0000000000000D+00
422  4.2100000000000D+00  0.0000000000000D+00  0.0000000000000D+00
423  4.2200000000000D+00  0.0000000000000D+00  0.0000000000000D+00
424  4.2300000000000D+00  0.0000000000000D+00  0.0000000000000D+00
425  4.2400000000000D+00  0.0000000000000D+00  0.0000000000000D+00
426  4.2500000000000D+00  0.0000000000000D+00  0.0000000000000D+00
427  4.2600000000000D+00  0.0000000000000D+00  0.0000000000000D+00
428  4.2700000000000D+00  0.0000000000000D+00  0.0000000000000D+00
429  4.2800000000000D+00  0.0000000000000D+00  0.0000000000000D+00
430  4.2900000000000D+00  0.0000000000000D+00  0.0000000000000D+00
431  4.3000000000000D+00  0.0000000000000D+00  0.0000000000000D+00
432  4.3100000000000D+00  0.0000000000000D+00  0.0000000000000D+00
433  4.3200000000000D+00  0.0000000000000D+00  0.0000000000000D+00
434  4.3300000000000D+00  0.0000000000000D+00  0.0000000000000D+00
435  4.3400000000000D+00  0.0000000000000D+00  0.0000000000000D+00
436  4.3500000000000D+00  0.0000000000000D+00  0.0000000000000D+00
437  4.3600000000000D+00  0.0000000000000D+00  0.0000000000000D+00
438  4.3700000000000D+00  0.0000000000000D+00  0.0000000000000D+00
439  4.3800000000000D+00  0.0000000000000D+00  0.0000000000000D+00
440  4.3900000000000D+00  0.0000000000000D+00  0.0000000000000D+00
441  4.4000000000000D+00  0.0000000000000D+00  0.0000000000000D+00
442  4.4100000000000D+00  0.0000000000000D+00  0.0000000000000D+00
443  4.4200000000000D+00  0.0000000000000D+00  0.0000000000000D+00