Cu    ONCVPSP  r_core=  1.31  1.46  1.76
29.0000     19.0000      140827    zatom,zion,pspd
8    11     2     4   601     0    pspcod,pspxc,lmax,lloc,mmax,r2well
6.00000000  0.05000000  0.00000000    rchrg fchrg qchrg
2     2     2     0     0    nproj
0                 extension_switch
0                         4.7477248249193D+00 -1.0805343291607D+00
1  0.0000000000000D+00 -0.0000000000000D+00  0.0000000000000D+00
2  1.0000000000000D-02 -1.0420408492242D-01  2.0630693060754D-02
3  2.0000000000000D-02 -2.0802687094111D-01  4.1305624901543D-02
4  3.0000000000000D-02 -3.1108834782753D-01  6.2068572815047D-02
5  4.0000000000000D-02 -4.1301108222205D-01  8.2962395437177D-02
6  5.0000000000000D-02 -5.1342150479380D-01  1.0402858416876D-01
7  6.0000000000000D-02 -6.1195119567463D-01  1.2530682737229D-01
8  7.0000000000000D-02 -7.0823816726793D-01  1.4683459139514D-01
9  8.0000000000000D-02 -8.0192814326453D-01  1.6864672229592D-01
10  9.0000000000000D-02 -8.9267583235929D-01  1.9077507193853D-01
11  1.0000000000000D-01 -9.8014619480904D-01  2.1324815185815D-01
12  1.1000000000000D-01 -1.0640156994963D+00  2.3609081803025D-01
13  1.2000000000000D-01 -1.1439735687538D+00  2.5932398933799D-01
14  1.3000000000000D-01 -1.2197230076255D+00  2.8296440220628D-01
15  1.4000000000000D-01 -1.2909824139361D+00  3.0702440345296D-01
16  1.5000000000000D-01 -1.3574865645572D+00  3.3151178310748D-01
17  1.6000000000000D-01 -1.4189877734966D+00  3.5642964839313D-01
18  1.7000000000000D-01 -1.4752570157449D+00  3.8177633984046D-01
19  1.8000000000000D-01 -1.5260850118295D+00  4.0754538983492D-01
20  1.9000000000000D-01 -1.5712832667026D+00  4.3372552366341D-01
21  2.0000000000000D-01 -1.6106850548053D+00  4.6030070269474D-01
22  2.1000000000000D-01 -1.6441463466893D+00  4.8725020867667D-01
23  2.2000000000000D-01 -1.6715466671568D+00  5.1454876800954D-01
24  2.3000000000000D-01 -1.6927898797816D+00  5.4216671430397D-01
25  2.4000000000000D-01 -1.7078048875077D+00  5.7007018712386D-01
26  2.5000000000000D-01 -1.7165462430739D+00  5.9822136446059D-01
27  2.6000000000000D-01 -1.7189946625578D+00  6.2657872670522D-01
28  2.7000000000000D-01 -1.7151574305316D+00  6.5509734832793D-01
29  2.8000000000000D-01 -1.7050686921052D+00  6.8372921427274D-01
30  2.9000000000000D-01 -1.6887896256292D+00  7.1242355811296D-01
31  3.0000000000000D-01 -1.6664084870818D+00  7.4112721775718D-01
32  3.1000000000000D-01 -1.6380405207797D+00  7.6978500508661D-01
33  3.2000000000000D-01 -1.6038277306441D+00  7.9834008522885D-01
34  3.3000000000000D-01 -1.5639385085287D+00  8.2673435912687D-01
35  3.4000000000000D-01 -1.5185671156537D+00  8.5490885950640D-01
36  3.5000000000000D-01 -1.4679330133464D+00  8.8280412251937D-01
37  3.6000000000000D-01 -1.4122800365812D+00  9.1036058423968D-01
38  3.7000000000000D-01 -1.3518754276663D+00  9.3751893485065D-01
39  3.8000000000000D-01 -1.2870087045523D+00  9.6422048552168D-01
40  3.9000000000000D-01 -1.2179903797383D+00  9.9040750977403D-01
41  4.0000000000000D-01 -1.1451505445159D+00  1.0160235596161D+00
42  4.1000000000000D-01 -1.0688373000395D+00  1.0410137672852D+00
43  4.2000000000000D-01 -9.8941505424054D-01  1.0653251198674D+00
44  4.3000000000000D-01 -9.0726268964445D-01  1.0889067068845D+00
45  4.4000000000000D-01 -8.2277161062558D-01  1.1117099391478D+00
46  4.5000000000000D-01 -7.3634367991734D-01  1.1336887374946D+00
47  4.6000000000000D-01 -6.4838905578766D-01  1.1547996903221D+00
48  4.7000000000000D-01 -5.5932394336711D-01  1.1750021791496D+00
49  4.8000000000000D-01 -4.6956828793242D-01  1.1942584703826D+00
50  4.9000000000000D-01 -3.7954344336550D-01  1.2125337735576D+00
51  5.0000000000000D-01 -2.8966956917544D-01  1.2297962927786D+00
52  5.1000000000000D-01 -2.0036335488468D-01  1.2460172041149D+00
53  5.2000000000000D-01 -1.1203570520112D-01  1.2611706226596D+00
54  5.3000000000000D-01 -2.5088834022654D-02  1.2752335822629D+00
55  5.4000000000000D-01  6.0085675918456D-02  1.2881859172206D+00
56  5.5000000000000D-01  1.4310938187724D-01  1.3000101762050D+00
57  5.6000000000000D-01  2.2361953548123D-01  1.3106915038270D+00
58  5.7000000000000D-01  3.0127071138458D-01  1.3202174848150D+00
59  5.8000000000000D-01  3.7573769491877D-01  1.3285780068813D+00
60  5.9000000000000D-01  4.4671665106409D-01  1.3357650828536D+00
61  6.0000000000000D-01  5.1392760555754D-01  1.3417726842022D+00
62  6.1000000000000D-01  5.7711592662339D-01  1.3465965615480D+00
63  6.2000000000000D-01  6.3605333171492D-01  1.3502340756200D+00
64  6.3000000000000D-01  6.9054041910196D-01  1.3526840036852D+00
65  6.4000000000000D-01  7.4040655177685D-01  1.3539463927153D+00
66  6.5000000000000D-01  7.8551117873701D-01  1.3540223977239D+00
67  6.6000000000000D-01  8.2574519117684D-01  1.3529141092232D+00
68  6.7000000000000D-01  8.6103051167783D-01  1.3506244521007D+00
69  6.8000000000000D-01  8.9132043693811D-01  1.3471570742484D+00
70  6.9000000000000D-01  9.1660022653357D-01  1.3425162231622D+00
71  7.0000000000000D-01  9.3688649919530D-01  1.3367066903958D+00
72  7.1000000000000D-01  9.5222663068763D-01  1.3297337721481D+00
73  7.2000000000000D-01  9.6269815483666D-01  1.3216032408768D+00
74  7.3000000000000D-01  9.6840773482801D-01  1.3123213550171D+00
75  7.4000000000000D-01  9.6949027709858D-01  1.3018948670747D+00
76  7.5000000000000D-01  9.6610730039961D-01  1.2903310960988D+00
77  7.6000000000000D-01  9.5844533020608D-01  1.2776380113776D+00
78  7.7000000000000D-01  9.4671416309071D-01  1.2638243357722D+00
79  7.8000000000000D-01  9.3114490555996D-01  1.2488996764876D+00
80  7.9000000000000D-01  9.1198785218233D-01  1.2328746781396D+00
81  8.0000000000000D-01  8.8951022211853D-01  1.2157611960506D+00
82  8.1000000000000D-01  8.6399377459665D-01  1.1975724873295D+00
83  8.2000000000000D-01  8.3573232509450D-01  1.1783234169502D+00
84  8.3000000000000D-01  8.0502918499090D-01  1.1580306757421D+00
85  8.4000000000000D-01  7.7219454823106D-01  1.1367130069354D+00
86  8.5000000000000D-01  7.3754284912121D-01  1.1143914376874D+00
87  8.6000000000000D-01  7.0139011573094D-01  1.0910895118306D+00
88  8.7000000000000D-01  6.6405134354468D-01  1.0668335199494D+00
89  8.8000000000000D-01  6.2583791396847D-01  1.0416527227983D+00
90  8.9000000000000D-01  5.8705508206447D-01  1.0155795640292D+00
91  9.0000000000000D-01  5.4799955744425D-01  9.8864986819475D-01
92  9.1000000000000D-01  5.0895720158581D-01  9.6090302005229D-01
93  9.2000000000000D-01  4.7020086392238D-01  9.3238212130217D-01
94  9.3000000000000D-01  4.3198837784688D-01  9.0313412107226D-01
95  9.4000000000000D-01  3.9456073624094D-01  8.7320991671089D-01
96  9.5000000000000D-01  3.5814046422496D-01  8.4266442178312D-01
97  9.6000000000000D-01  3.2293020449012D-01  8.1155659858917D-01
98  9.7000000000000D-01  2.8911202019502D-01  7.7994942353841D-01
99  9.8000000000000D-01  2.5684551771664D-01  7.4790990930893D-01
100  9.9000000000000D-01  2.2626679607385D-01  7.1550902478542D-01
101  1.0000000000000D+00  1.9748919349919D-01  6.8282149175796D-01
102  1.0100000000000D+00  1.7060257341364D-01  6.4992564545673D-01
103  1.0200000000000D+00  1.4567336897688D-01  6.1690321992241D-01
104  1.0300000000000D+00  1.2274510935235D-01  5.8383909417020D-01
105  1.0400000000000D+00  1.0183919604301D-01  5.5082104027898D-01
106  1.0500000000000D+00  8.2952903229941D-02  5.1793933388590D-01
107  1.0600000000000D+00  6.6063758701877D-02  4.8528635557186D-01
108  1.0700000000000D+00  5.1129615869814D-02  4.5295620342115D-01
109  1.0800000000000D+00  3.8090286773998D-02  4.2104431911356D-01
110  1.0900000000000D+00  2.6868610994124D-02  3.8964709524346D-01
111  1.1000000000000D+00  1.7371104317132D-02  3.5886092236987D-01
112  1.1100000000000D+00  9.4920877373809D-03  3.2878208293116D-01
113  1.1200000000000D+00  3.1147440535359D-03  2.9950616307118D-01
114  1.1300000000000D+00 -1.8872547986769D-03  2.7112805062134D-01
115  1.1400000000000D+00 -5.6474908948935D-03  2.4373977104641D-01
116  1.1500000000000D+00 -8.3037273041668D-03  2.1743134710228D-01
117  1.1600000000000D+00 -9.9966750366873D-03  1.9229017365109D-01
118  1.1700000000000D+00 -1.0868505279529D-02  1.6840059150827D-01
119  1.1800000000000D+00 -1.1057507619548D-02  1.4584161659488D-01
120  1.1900000000000D+00 -1.0698712165401D-02  1.2468844979127D-01
121  1.2000000000000D+00 -9.9238553100722D-03  1.0501251548584D-01
122  1.2100000000000D+00 -8.8536705240972D-03  8.6878183273623D-02
123  1.2200000000000D+00 -7.5991716840427D-03  7.0344178554486D-02
124  1.2300000000000D+00 -6.2634542342950D-03  5.5464443924364D-02
125  1.2400000000000D+00 -4.9354707034636D-03  4.2285714172434D-02
126  1.2500000000000D+00 -3.6872809023530D-03  3.0846886587507D-02
127  1.2600000000000D+00 -2.5809036636925D-03  2.1181802644895D-02
128  1.2700000000000D+00 -1.6617761905658D-03  1.3316788092344D-02
129  1.2800000000000D+00 -9.5450016756161D-04  7.2692978491081D-03
130  1.2900000000000D+00 -4.7363044126296D-04  3.0519418117519D-03
131  1.3000000000000D+00 -2.3376430343237D-04  8.0619352571311D-04
132  1.3100000000000D+00 -1.2491865525633D-04 -6.5955562890509D-06
133  1.3200000000000D+00 -2.4296238416498D-05 -6.7913783444600D-05
134  1.3300000000000D+00  9.9998977886899D-06 -5.3976817308518D-06
135  1.3400000000000D+00  0.0000000000000D+00  0.0000000000000D+00
136  1.3500000000000D+00  0.0000000000000D+00  0.0000000000000D+00
137  1.3600000000000D+00  0.0000000000000D+00  0.0000000000000D+00
138  1.3700000000000D+00  0.0000000000000D+00  0.0000000000000D+00
139  1.3800000000000D+00  0.0000000000000D+00  0.0000000000000D+00
140  1.3900000000000D+00  0.0000000000000D+00  0.0000000000000D+00
141  1.4000000000000D+00  0.0000000000000D+00  0.0000000000000D+00
142  1.4100000000000D+00  0.0000000000000D+00  0.0000000000000D+00
143  1.4200000000000D+00  0.0000000000000D+00  0.0000000000000D+00
144  1.4300000000000D+00  0.0000000000000D+00  0.0000000000000D+00
145  1.4400000000000D+00  0.0000000000000D+00  0.0000000000000D+00
146  1.4500000000000D+00  0.0000000000000D+00  0.0000000000000D+00
147  1.4600000000000D+00  0.0000000000000D+00  0.0000000000000D+00
148  1.4700000000000D+00  0.0000000000000D+00  0.0000000000000D+00
149  1.4800000000000D+00  0.0000000000000D+00  0.0000000000000D+00
150  1.4900000000000D+00  0.0000000000000D+00  0.0000000000000D+00
151  1.5000000000000D+00  0.0000000000000D+00  0.0000000000000D+00
152  1.5100000000000D+00  0.0000000000000D+00  0.0000000000000D+00
153  1.5200000000000D+00  0.0000000000000D+00  0.0000000000000D+00
154  1.5300000000000D+00  0.0000000000000D+00  0.0000000000000D+00
155  1.5400000000000D+00  0.0000000000000D+00  0.0000000000000D+00
156  1.5500000000000D+00  0.0000000000000D+00  0.0000000000000D+00
157  1.5600000000000D+00  0.0000000000000D+00  0.0000000000000D+00
158  1.5700000000000D+00  0.0000000000000D+00  0.0000000000000D+00
159  1.5800000000000D+00  0.0000000000000D+00  0.0000000000000D+00
160  1.5900000000000D+00  0.0000000000000D+00  0.0000000000000D+00
161  1.6000000000000D+00  0.0000000000000D+00  0.0000000000000D+00
162  1.6100000000000D+00  0.0000000000000D+00  0.0000000000000D+00
163  1.6200000000000D+00  0.0000000000000D+00  0.0000000000000D+00
164  1.6300000000000D+00  0.0000000000000D+00  0.0000000000000D+00
165  1.6400000000000D+00  0.0000000000000D+00  0.0000000000000D+00
166  1.6500000000000D+00  0.0000000000000D+00  0.0000000000000D+00
167  1.6600000000000D+00  0.0000000000000D+00  0.0000000000000D+00
168  1.6700000000000D+00  0.0000000000000D+00  0.0000000000000D+00
169  1.6800000000000D+00  0.0000000000000D+00  0.0000000000000D+00
170  1.6900000000000D+00  0.0000000000000D+00  0.0000000000000D+00
171  1.7000000000000D+00  0.0000000000000D+00  0.0000000000000D+00
172  1.7100000000000D+00  0.0000000000000D+00  0.0000000000000D+00
173  1.7200000000000D+00  0.0000000000000D+00  0.0000000000000D+00
174  1.7300000000000D+00  0.0000000000000D+00  0.0000000000000D+00
175  1.7400000000000D+00  0.0000000000000D+00  0.0000000000000D+00
176  1.7500000000000D+00  0.0000000000000D+00  0.0000000000000D+00
177  1.7600000000000D+00  0.0000000000000D+00  0.0000000000000D+00
178  1.7700000000000D+00  0.0000000000000D+00  0.0000000000000D+00
179  1.7800000000000D+00  0.0000000000000D+00  0.0000000000000D+00
180  1.7900000000000D+00  0.0000000000000D+00  0.0000000000000D+00
181  1.8000000000000D+00  0.0000000000000D+00  0.0000000000000D+00
182  1.8100000000000D+00  0.0000000000000D+00  0.0000000000000D+00
183  1.8200000000000D+00  0.0000000000000D+00  0.0000000000000D+00
184  1.8300000000000D+00  0.0000000000000D+00  0.0000000000000D+00
185  1.8400000000000D+00  0.0000000000000D+00  0.0000000000000D+00
186  1.8500000000000D+00  0.0000000000000D+00  0.0000000000000D+00
187  1.8600000000000D+00  0.0000000000000D+00  0.0000000000000D+00
188  1.8700000000000D+00  0.0000000000000D+00  0.0000000000000D+00
189  1.8800000000000D+00  0.0000000000000D+00  0.0000000000000D+00
190  1.8900000000000D+00  0.0000000000000D+00  0.0000000000000D+00
191  1.9000000000000D+00  0.0000000000000D+00  0.0000000000000D+00
192  1.9100000000000D+00  0.0000000000000D+00  0.0000000000000D+00
193  1.9200000000000D+00  0.0000000000000D+00  0.0000000000000D+00
194  1.9300000000000D+00  0.0000000000000D+00  0.0000000000000D+00
195  1.9400000000000D+00  0.0000000000000D+00  0.0000000000000D+00
196  1.9500000000000D+00  0.0000000000000D+00  0.0000000000000D+00
197  1.9600000000000D+00  0.0000000000000D+00  0.0000000000000D+00
198  1.9700000000000D+00  0.0000000000000D+00  0.0000000000000D+00
199  1.9800000000000D+00  0.0000000000000D+00  0.0000000000000D+00
200  1.9900000000000D+00  0.0000000000000D+00  0.0000000000000D+00
201  2.0000000000000D+00  0.0000000000000D+00  0.0000000000000D+00
202  2.0100000000000D+00  0.0000000000000D+00  0.0000000000000D+00
203  2.0200000000000D+00  0.0000000000000D+00  0.0000000000000D+00
204  2.0300000000000D+00  0.0000000000000D+00  0.0000000000000D+00
205  2.0400000000000D+00  0.0000000000000D+00  0.0000000000000D+00
206  2.0500000000000D+00  0.0000000000000D+00  0.0000000000000D+00
207  2.0600000000000D+00  0.0000000000000D+00  0.0000000000000D+00
208  2.0700000000000D+00  0.0000000000000D+00  0.0000000000000D+00
209  2.0800000000000D+00  0.0000000000000D+00  0.0000000000000D+00
210  2.0900000000000D+00  0.0000000000000D+00  0.0000000000000D+00
211  2.1000000000000D+00  0.0000000000000D+00  0.0000000000000D+00
212  2.1100000000000D+00  0.0000000000000D+00  0.0000000000000D+00
213  2.1200000000000D+00  0.0000000000000D+00  0.0000000000000D+00
214  2.1300000000000D+00  0.0000000000000D+00  0.0000000000000D+00
215  2.1400000000000D+00  0.0000000000000D+00  0.0000000000000D+00
216  2.1500000000000D+00  0.0000000000000D+00  0.0000000000000D+00
217  2.1600000000000D+00  0.0000000000000D+00  0.0000000000000D+00
218  2.1700000000000D+00  0.0000000000000D+00  0.0000000000000D+00
219  2.1800000000000D+00  0.0000000000000D+00  0.0000000000000D+00
220  2.1900000000000D+00  0.0000000000000D+00  0.0000000000000D+00
221  2.2000000000000D+00  0.0000000000000D+00  0.0000000000000D+00
222  2.2100000000000D+00  0.0000000000000D+00  0.0000000000000D+00
223  2.2200000000000D+00  0.0000000000000D+00  0.0000000000000D+00
224  2.2300000000000D+00  0.0000000000000D+00  0.0000000000000D+00
225  2.2400000000000D+00  0.0000000000000D+00  0.0000000000000D+00
226  2.2500000000000D+00  0.0000000000000D+00  0.0000000000000D+00
227  2.2600000000000D+00  0.0000000000000D+00  0.0000000000000D+00
228  2.2700000000000D+00  0.0000000000000D+00  0.0000000000000D+00
229  2.2800000000000D+00  0.0000000000000D+00  0.0000000000000D+00
230  2.2900000000000D+00  0.0000000000000D+00  0.0000000000000D+00
231  2.3000000000000D+00  0.0000000000000D+00  0.0000000000000D+00
232  2.3100000000000D+00  0.0000000000000D+00  0.0000000000000D+00
233  2.3200000000000D+00  0.0000000000000D+00  0.0000000000000D+00
234  2.3300000000000D+00  0.0000000000000D+00  0.0000000000000D+00
235  2.3400000000000D+00  0.0000000000000D+00  0.0000000000000D+00
236  2.3500000000000D+00  0.0000000000000D+00  0.0000000000000D+00
237  2.3600000000000D+00  0.0000000000000D+00  0.0000000000000D+00
238  2.3700000000000D+00  0.0000000000000D+00  0.0000000000000D+00
239  2.3800000000000D+00  0.0000000000000D+00  0.0000000000000D+00
240  2.3900000000000D+00  0.0000000000000D+00  0.0000000000000D+00
241  2.4000000000000D+00  0.0000000000000D+00  0.0000000000000D+00
242  2.4100000000000D+00  0.0000000000000D+00  0.0000000000000D+00
243  2.4200000000000D+00  0.0000000000000D+00  0.0000000000000D+00
244  2.4300000000000D+00  0.0000000000000D+00  0.0000000000000D+00
245  2.4400000000000D+00  0.0000000000000D+00  0.0000000000000D+00
246  2.4500000000000D+00  0.0000000000000D+00  0.0000000000000D+00
247  2.4600000000000D+00  0.0000000000000D+00  0.0000000000000D+00
248  2.4700000000000D+00  0.0000000000000D+00  0.0000000000000D+00
249  2.4800000000000D+00  0.0000000000000D+00  0.0000000000000D+00
250  2.4900000000000D+00  0.0000000000000D+00  0.0000000000000D+00
251  2.5000000000000D+00  0.0000000000000D+00  0.0000000000000D+00
252  2.5100000000000D+00  0.0000000000000D+00  0.0000000000000D+00
253  2.5200000000000D+00  0.0000000000000D+00  0.0000000000000D+00
254  2.5300000000000D+00  0.0000000000000D+00  0.0000000000000D+00
255  2.5400000000000D+00  0.0000000000000D+00  0.0000000000000D+00
256  2.5500000000000D+00  0.0000000000000D+00  0.0000000000000D+00
257  2.5600000000000D+00  0.0000000000000D+00  0.0000000000000D+00
258  2.5700000000000D+00  0.0000000000000D+00  0.0000000000000D+00
259  2.5800000000000D+00  0.0000000000000D+00  0.0000000000000D+00
260  2.5900000000000D+00  0.0000000000000D+00  0.0000000000000D+00
261  2.6000000000000D+00  0.0000000000000D+00  0.0000000000000D+00
262  2.6100000000000D+00  0.0000000000000D+00  0.0000000000000D+00
263  2.6200000000000D+00  0.0000000000000D+00  0.0000000000000D+00
264  2.6300000000000D+00  0.0000000000000D+00  0.0000000000000D+00
265  2.6400000000000D+00  0.0000000000000D+00  0.0000000000000D+00
266  2.6500000000000D+00  0.0000000000000D+00  0.0000000000000D+00
267  2.6600000000000D+00  0.0000000000000D+00  0.0000000000000D+00
268  2.6700000000000D+00  0.0000000000000D+00  0.0000000000000D+00
269  2.6800000000000D+00  0.0000000000000D+00  0.0000000000000D+00
270  2.6900000000000D+00  0.0000000000000D+00  0.0000000000000D+00
271  2.7000000000000D+00  0.0000000000000D+00  0.0000000000000D+00
272  2.7100000000000D+00  0.0000000000000D+00  0.0000000000000D+00
273  2.7200000000000D+00  0.0000000000000D+00  0.0000000000000D+00
274  2.7300000000000D+00  0.0000000000000D+00  0.0000000000000D+00
275  2.7400000000000D+00  0.0000000000000D+00  0.0000000000000D+00
276  2.7500000000000D+00  0.0000000000000D+00  0.0000000000000D+00
277  2.7600000000000D+00  0.0000000000000D+00  0.0000000000000D+00
278  2.7700000000000D+00  0.0000000000000D+00  0.0000000000000D+00
279  2.7800000000000D+00  0.0000000000000D+00  0.0000000000000D+00
280  2.7900000000000D+00  0.0000000000000D+00  0.0000000000000D+00
281  2.8000000000000D+00  0.0000000000000D+00  0.0000000000000D+00
282  2.8100000000000D+00  0.0000000000000D+00  0.0000000000000D+00
283  2.8200000000000D+00  0.0000000000000D+00  0.0000000000000D+00
284  2.8300000000000D+00  0.0000000000000D+00  0.0000000000000D+00
285  2.8400000000000D+00  0.0000000000000D+00  0.0000000000000D+00
286  2.8500000000000D+00  0.0000000000000D+00  0.0000000000000D+00
287  2.8600000000000D+00  0.0000000000000D+00  0.0000000000000D+00
288  2.8700000000000D+00  0.0000000000000D+00  0.0000000000000D+00
289  2.8800000000000D+00  0.0000000000000D+00  0.0000000000000D+00
290  2.8900000000000D+00  0.0000000000000D+00  0.0000000000000D+00
291  2.9000000000000D+00  0.0000000000000D+00  0.0000000000000D+00
292  2.9100000000000D+00  0.0000000000000D+00  0.0000000000000D+00
293  2.9200000000000D+00  0.0000000000000D+00  0.0000000000000D+00
294  2.9300000000000D+00  0.0000000000000D+00  0.0000000000000D+00
295  2.9400000000000D+00  0.0000000000000D+00  0.0000000000000D+00
296  2.9500000000000D+00  0.0000000000000D+00  0.0000000000000D+00
297  2.9600000000000D+00  0.0000000000000D+00  0.0000000000000D+00
298  2.9700000000000D+00  0.0000000000000D+00  0.0000000000000D+00
299  2.9800000000000D+00  0.0000000000000D+00  0.0000000000000D+00
300  2.9900000000000D+00  0.0000000000000D+00  0.0000000000000D+00
301  3.0000000000000D+00  0.0000000000000D+00  0.0000000000000D+00
302  3.0100000000000D+00  0.0000000000000D+00  0.0000000000000D+00
303  3.0200000000000D+00  0.0000000000000D+00  0.0000000000000D+00
304  3.0300000000000D+00  0.0000000000000D+00  0.0000000000000D+00
305  3.0400000000000D+00  0.0000000000000D+00  0.0000000000000D+00
306  3.0500000000000D+00  0.0000000000000D+00  0.0000000000000D+00
307  3.0600000000000D+00  0.0000000000000D+00  0.0000000000000D+00
308  3.0700000000000D+00  0.0000000000000D+00  0.0000000000000D+00
309  3.0800000000000D+00  0.0000000000000D+00  0.0000000000000D+00
310  3.0900000000000D+00  0.0000000000000D+00  0.0000000000000D+00
311  3.1000000000000D+00  0.0000000000000D+00  0.0000000000000D+00
312  3.1100000000000D+00  0.0000000000000D+00  0.0000000000000D+00
313  3.1200000000000D+00  0.0000000000000D+00  0.0000000000000D+00
314  3.1300000000000D+00  0.0000000000000D+00  0.0000000000000D+00
315  3.1400000000000D+00  0.0000000000000D+00  0.0000000000000D+00
316  3.1500000000000D+00  0.0000000000000D+00  0.0000000000000D+00
317  3.1600000000000D+00  0.0000000000000D+00  0.0000000000000D+00
318  3.1700000000000D+00  0.0000000000000D+00  0.0000000000000D+00
319  3.1800000000000D+00  0.0000000000000D+00  0.0000000000000D+00
320  3.1900000000000D+00  0.0000000000000D+00  0.0000000000000D+00
321  3.2000000000000D+00  0.0000000000000D+00  0.0000000000000D+00
322  3.2100000000000D+00  0.0000000000000D+00  0.0000000000000D+00
323  3.2200000000000D+00  0.0000000000000D+00  0.0000000000000D+00
324  3.2300000000000D+00  0.0000000000000D+00  0.0000000000000D+00
325  3.2400000000000D+00  0.0000000000000D+00  0.0000000000000D+00
326  3.2500000000000D+00  0.0000000000000D+00  0.0000000000000D+00
327  3.2600000000000D+00  0.0000000000000D+00  0.0000000000000D+00
328  3.2700000000000D+00  0.0000000000000D+00  0.0000000000000D+00
329  3.2800000000000D+00  0.0000000000000D+00  0.0000000000000D+00
330  3.2900000000000D+00  0.0000000000000D+00  0.0000000000000D+00
331  3.3000000000000D+00  0.0000000000000D+00  0.0000000000000D+00
332  3.3100000000000D+00  0.0000000000000D+00  0.0000000000000D+00
333  3.3200000000000D+00  0.0000000000000D+00  0.0000000000000D+00
334  3.3300000000000D+00  0.0000000000000D+00  0.0000000000000D+00
335  3.3400000000000D+00  0.0000000000000D+00  0.0000000000000D+00
336  3.3500000000000D+00  0.0000000000000D+00  0.0000000000000D+00
337  3.3600000000000D+00  0.0000000000000D+00  0.0000000000000D+00
338  3.3700000000000D+00  0.0000000000000D+00  0.0000000000000D+00
339  3.3800000000000D+00  0.0000000000000D+00  0.0000000000000D+00
340  3.3900000000000D+00  0.0000000000000D+00  0.0000000000000D+00
341  3.4000000000000D+00  0.0000000000000D+00  0.0000000000000D+00
342  3.4100000000000D+00  0.0000000000000D+00  0.0000000000000D+00
343  3.4200000000000D+00  0.0000000000000D+00  0.0000000000000D+00
344  3.4300000000000D+00  0.0000000000000D+00  0.0000000000000D+00
345  3.4400000000000D+00  0.0000000000000D+00  0.0000000000000D+00
346  3.4500000000000D+00  0.0000000000000D+00  0.0000000000000D+00
347  3.4600000000000D+00  0.0000000000000D+00  0.0000000000000D+00
348  3.4700000000000D+00  0.0000000000000D+00  0.0000000000000D+00
349  3.4800000000000D+00  0.0000000000000D+00  0.0000000000000D+00
350  3.4900000000000D+00  0.0000000000000D+00  0.0000000000000D+00
351  3.5000000000000D+00  0.0000000000000D+00  0.0000000000000D+00
352  3.5100000000000D+00  0.0000000000000D+00  0.0000000000000D+00
353  3.5200000000000D+00  0.0000000000000D+00  0.0000000000000D+00
354  3.5300000000000D+00  0.0000000000000D+00  0.0000000000000D+00
355  3.5400000000000D+00  0.0000000000000D+00  0.0000000000000D+00
356  3.5500000000000D+00  0.0000000000000D+00  0.0000000000000D+00
357  3.5600000000000D+00  0.0000000000000D+00  0.0000000000000D+00
358  3.5700000000000D+00  0.0000000000000D+00  0.0000000000000D+00
359  3.5800000000000D+00  0.0000000000000D+00  0.0000000000000D+00
360  3.5900000000000D+00  0.0000000000000D+00  0.0000000000000D+00
361  3.6000000000000D+00  0.0000000000000D+00  0.0000000000000D+00
362  3.6100000000000D+00  0.0000000000000D+00  0.0000000000000D+00
363  3.6200000000000D+00  0.0000000000000D+00  0.0000000000000D+00
364  3.6300000000000D+00  0.0000000000000D+00  0.0000000000000D+00
365  3.6400000000000D+00  0.0000000000000D+00  0.0000000000000D+00
366  3.6500000000000D+00  0.0000000000000D+00  0.0000000000000D+00
367  3.6600000000000D+00  0.0000000000000D+00  0.0000000000000D+00
368  3.6700000000000D+00  0.0000000000000D+00  0.0000000000000D+00
369  3.6800000000000D+00  0.0000000000000D+00  0.0000000000000D+00
370  3.6900000000000D+00  0.0000000000000D+00  0.0000000000000D+00
371  3.7000000000000D+00  0.0000000000000D+00  0.0000000000000D+00
372  3.7100000000000D+00  0.0000000000000D+00  0.0000000000000D+00
373  3.7200000000000D+00  0.0000000000000D+00  0.0000000000000D+00
374  3.7300000000000D+00  0.0000000000000D+00  0.0000000000000D+00
375  3.7400000000000D+00  0.0000000000000D+00  0.0000000000000D+00
376  3.7500000000000D+00  0.0000000000000D+00  0.0000000000000D+00
377  3.7600000000000D+00  0.0000000000000D+00  0.0000000000000D+00
378  3.7700000000000D+00  0.0000000000000D+00  0.0000000000000D+00
379  3.7800000000000D+00  0.0000000000000D+00  0.0000000000000D+00
380  3.7900000000000D+00  0.0000000000000D+00  0.0000000000000D+00
381  3.8000000000000D+00  0.0000000000000D+00  0.0000000000000D+00
382  3.8100000000000D+00  0.0000000000000D+00  0.0000000000000D+00
383  3.8200000000000D+00  0.0000000000000D+00  0.0000000000000D+00
384  3.8300000000000D+00  0.0000000000000D+00  0.0000000000000D+00
385  3.8400000000000D+00  0.0000000000000D+00  0.0000000000000D+00
386  3.8500000000000D+00  0.0000000000000D+00  0.0000000000000D+00
387  3.8600000000000D+00  0.0000000000000D+00  0.0000000000000D+00
388  3.8700000000000D+00  0.0000000000000D+00  0.0000000000000D+00
389  3.8800000000000D+00  0.0000000000000D+00  0.0000000000000D+00
390  3.8900000000000D+00  0.0000000000000D+00  0.0000000000000D+00
391  3.9000000000000D+00  0.0000000000000D+00  0.0000000000000D+00
392  3.9100000000000D+00  0.0000000000000D+00  0.0000000000000D+00
393  3.9200000000000D+00  0.0000000000000D+00  0.0000000000000D+00
394  3.9300000000000D+00  0.0000000000000D+00  0.0000000000000D+00
395  3.9400000000000D+00  0.0000000000000D+00  0.0000000000000D+00
396  3.9500000000000D+00  0.0000000000000D+00  0.0000000000000D+00
397  3.9600000000000D+00  0.0000000000000D+00  0.0000000000000D+00
398  3.9700000000000D+00  0.0000000000000D+00  0.0000000000000D+00
399  3.9800000000000D+00  0.0000000000000D+00  0.0000000000000D+00
400  3.9900000000000D+00  0.0000000000000D+00  0.0000000000000D+00
401  4.0000000000000D+00  0.0000000000000D+00  0.0000000000000D+00
402  4.0100000000000D+00  0.0000000000000D+00  0.0000000000000D+00
403  4.0200000000000D+00  0.0000000000000D+00  0.0000000000000D+00
404  4.0300000000000D+00  0.0000000000000D+00  0.0000000000000D+00
405  4.0400000000000D+00  0.0000000000000D+00  0.0000000000000D+00
406  4.0500000000000D+00  0.0000000000000D+00  0.0000000000000D+00
407  4.0600000000000D+00  0.0000000000000D+00  0.0000000000000D+00
408  4.0700000000000D+00  0.0000000000000D+00  0.0000000000000D+00
409  4.0800000000000D+00  0.0000000000000D+00  0.0000000000000D+00
410  4.0900000000000D+00  0.0000000000000D+00  0.0000000000000D+00
411  4.1000000000000D+00  0.0000000000000D+00  0.0000000000000D+00
412  4.1100000000000D+00  0.0000000000000D+00  0.0000000000000D+00
413  4.1200000000000D+00  0.0000000000000D+00  0.0000000000000D+00
414  4.1300000000000D+00  0.0000000000000D+00  0.0000000000000D+00
415  4.1400000000000D+00  0.0000000000000D+00  0.0000000000000D+00
416  4.1500000000000D+00  0.0000000000000D+00  0.0000000000000D+00
417  4.1600000000000D+00  0.0000000000000D+00  0.0000000000000D+00
418  4.1700000000000D+00  0.0000000000000D+00  0.0000000000000D+00
419  4.1800000000000D+00  0.0000000000000D+00  0.0000000000000D+00
420  4.1900000000000D+00  0.0000000000000D+00  0.0000000000000D+00
421  4.2000000000000D+00  0.0000000000000D+00  0.0000000000000D+00
422  4.2100000000000D+00  0.0000000000000D+00  0.0000000000000D+00
423  4.2200000000000D+00  0.0000000000000D+00  0.0000000000000D+00
424  4.2300000000000D+00  0.0000000000000D+00  0.0000000000000D+00
425  4.2400000000000D+00  0.0000000000000D+00  0.0000000000000D+00
426  4.2500000000000D+00  0.0000000000000D+00  0.0000000000000D+00
427  4.2600000000000D+00  0.0000000000000D+00  0.0000000000000D+00
428  4.2700000000000D+00  0.0000000000000D+00  0.0000000000000D+00
429  4.2800000000000D+00  0.0000000000000D+00  0.0000000000000D+00
430  4.2900000000000D+00  0.0000000000000D+00  0.0000000000000D+00
431  4.3000000000000D+00  0.0000000000000D+00  0.0000000000000D+00
432  4.3100000000000D+00  0.0000000000000D+00  0.0000000000000D+00
433  4.3200000000000D+00  0.0000000000000D+00  0.0000000000000D+00
434  4.3300000000000D+00  0.0000000000000D+00  0.0000000000000D+00
435  4.3400000000000D+00  0.0000000000000D+00  0.0000000000000D+00
436  4.3500000000000D+00  0.0000000000000D+00  0.0000000000000D+00
437  4.3600000000000D+00  0.0000000000000D+00  0.0000000000000D+00
438  4.3700000000000D+00  0.0000000000000D+00  0.0000000000000D+00
439  4.3800000000000D+00  0.0000000000000D+00  0.0000000000000D+00
440  4.3900000000000D+00  0.0000000000000D+00  0.0000000000000D+00
441  4.4000000000000D+00  0.0000000000000D+00  0.0000000000000D+00
442  4.4100000000000D+00  0.0000000000000D+00  0.0000000000000D+00
443  4.4200000000000D+00  0.0000000000000D+00  0.0000000000000D+00
444  4.4300000000000D+00  0.0000000000000D+00  0.0000000000000D+00