Cu    ONCVPSP  r_core=  2.11  2.11  1.87
29.0000     11.0000      140820    zatom,zion,pspd
8    11     2     4   601     0    pspcod,pspxc,lmax,lloc,mmax,r2well
6.00000000  1.20000000  0.00000000    rchrg fchrg qchrg
2     2     2     0     0    nproj
0                 extension_switch
0                         4.6198820691832D+00  6.3846145488972D-01
1  0.0000000000000D+00 -0.0000000000000D+00 -0.0000000000000D+00
2  1.0000000000000D-02 -3.0221015518287D-02 -1.6440592964330D-02
3  2.0000000000000D-02 -6.0404515124625D-02 -3.2868230572021D-02
4  3.0000000000000D-02 -9.0513109830813D-02 -4.9269935047854D-02
5  4.0000000000000D-02 -1.2050966394910D-01 -6.5632683940908D-02
6  5.0000000000000D-02 -1.5035742037708D-01 -8.1943388189651D-02
7  6.0000000000000D-02 -1.8002012425053D-01 -9.8188870668475D-02
8  7.0000000000000D-02 -2.0946214443066D-01 -1.1435584537277D-01
9  8.0000000000000D-02 -2.3864859230151D-01 -1.3043089739667D-01
10  9.0000000000000D-02 -2.6754543736330D-01 -1.4640046385409D-01
11  1.0000000000000D-01 -2.9611961912369D-01 -1.6225081588915D-01
12  1.1000000000000D-01 -3.2433915479963D-01 -1.7796804191751D-01
13  1.2000000000000D-01 -3.5217324236528D-01 -1.9353803223406D-01
14  1.3000000000000D-01 -3.7959235849350D-01 -2.0894646511720D-01
15  1.4000000000000D-01 -4.0656835097716D-01 -2.2417879455044D-01
16  1.5000000000000D-01 -4.3307452520286D-01 -2.3922023968030D-01
17  1.6000000000000D-01 -4.5908572433474D-01 -2.5405577611306D-01
18  1.7000000000000D-01 -4.8457840280348D-01 -2.6867012915641D-01
19  1.8000000000000D-01 -5.0953069283647D-01 -2.8304776908856D-01
20  1.9000000000000D-01 -5.3392246372406D-01 -2.9717290853956D-01
21  2.0000000000000D-01 -5.5773537346950D-01 -3.1102950206312D-01
22  2.1000000000000D-01 -5.8095291275137D-01 -3.2460124794753D-01
23  2.2000000000000D-01 -6.0356044083549D-01 -3.3787159232986D-01
24  2.3000000000000D-01 -6.2554521341949D-01 -3.5082373564808D-01
25  2.4000000000000D-01 -6.4689640214314D-01 -3.6344064146515D-01
26  2.5000000000000D-01 -6.6760510576978D-01 -3.7570504767837D-01
27  2.6000000000000D-01 -6.8766435299701D-01 -3.8759948014795D-01
28  2.7000000000000D-01 -7.0706909673869D-01 -3.9910626871125D-01
29  2.8000000000000D-01 -7.2581620002250D-01 -4.1020756557797D-01
30  2.9000000000000D-01 -7.4390441355540D-01 -4.2088536611369D-01
31  3.0000000000000D-01 -7.6133434497145D-01 -4.3112153195536D-01
32  3.1000000000000D-01 -7.7810841991445D-01 -4.4089781642613D-01
33  3.2000000000000D-01 -7.9423083513808D-01 -4.5019589217306D-01
34  3.3000000000000D-01 -8.0970750410015D-01 -4.5899738078573D-01
35  3.4000000000000D-01 -8.2454599400973D-01 -4.6728388531469D-01
36  3.5000000000000D-01 -8.3875545758870D-01 -4.7503702323321D-01
37  3.6000000000000D-01 -8.5234655483629D-01 -4.8223846354991D-01
38  3.7000000000000D-01 -8.6533137176477D-01 -4.8886996329168D-01
39  3.8000000000000D-01 -8.7772332986091D-01 -4.9491340767470D-01
40  3.9000000000000D-01 -8.8953709053672D-01 -5.0035085124287D-01
41  4.0000000000000D-01 -9.0078845527198D-01 -5.0516455993057D-01
42  4.1000000000000D-01 -9.1149425949702D-01 -5.0933705517250D-01
43  4.2000000000000D-01 -9.2167226228009D-01 -5.1285115904689D-01
44  4.3000000000000D-01 -9.3134103199941D-01 -5.1569004049826D-01
45  4.4000000000000D-01 -9.4051982850223D-01 -5.1783726250484D-01
46  4.5000000000000D-01 -9.4922848227406D-01 -5.1927683004807D-01
47  4.6000000000000D-01 -9.5748727118078D-01 -5.1999323872832D-01
48  4.7000000000000D-01 -9.6531679540953D-01 -5.1997152384676D-01
49  4.8000000000000D-01 -9.7273785204482D-01 -5.1919730943989D-01
50  4.9000000000000D-01 -9.7977131081204D-01 -5.1765685673916D-01
51  5.0000000000000D-01 -9.8643797589043D-01 -5.1533711837665D-01
52  5.1000000000000D-01 -9.9275847004911D-01 -5.1222578332477D-01
53  5.2000000000000D-01 -9.9875311681536D-01 -5.0831132295341D-01
54  5.3000000000000D-01 -1.0044417899263D+00 -5.0358305066241D-01
55  5.4000000000000D-01 -1.0098438196272D+00 -4.9803115850495D-01
56  5.5000000000000D-01 -1.0149778655863D+00 -4.9164676793178D-01
57  5.6000000000000D-01 -1.0198617881624D+00 -4.8442198160187D-01
58  5.7000000000000D-01 -1.0245125698183D+00 -4.7634991532341D-01
59  5.8000000000000D-01 -1.0289461663852D+00 -4.6742475919872D-01
60  5.9000000000000D-01 -1.0331774508399D+00 -4.5764180169861D-01
61  6.0000000000000D-01 -1.0372200837260D+00 -4.4699748448255D-01
62  6.1000000000000D-01 -1.0410864356470D+00 -4.3548943674467D-01
63  6.2000000000000D-01 -1.0447875328944D+00 -4.2311650072423D-01
64  6.3000000000000D-01 -1.0483329174823D+00 -4.0987879391380D-01
65  6.4000000000000D-01 -1.0517306475916D+00 -3.9577771365356D-01
66  6.5000000000000D-01 -1.0549872169433D+00 -3.8081597647866D-01
67  6.6000000000000D-01 -1.0581074672915D+00 -3.6499766226455D-01
68  6.7000000000000D-01 -1.0610945950048D+00 -3.4832821894738D-01
69  6.8000000000000D-01 -1.0639501131209D+00 -3.3081448713586D-01
70  6.9000000000000D-01 -1.0666737929137D+00 -3.1246473604913D-01
71  7.0000000000000D-01 -1.0692636695600D+00 -2.9328867218875D-01
72  7.1000000000000D-01 -1.0717160446904D+00 -2.7329745031160D-01
73  7.2000000000000D-01 -1.0740254840952D+00 -2.5250368819220D-01
74  7.3000000000000D-01 -1.0761848386502D+00 -2.3092147149748D-01
75  7.4000000000000D-01 -1.0781852468691D+00 -2.0856637075055D-01
76  7.5000000000000D-01 -1.0800161845621D+00 -1.8545543578212D-01
77  7.6000000000000D-01 -1.0816655100871D+00 -1.6160719356992D-01
78  7.7000000000000D-01 -1.0831195135073D+00 -1.3704164612557D-01
79  7.8000000000000D-01 -1.0843629787260D+00 -1.1178026318402D-01
80  7.9000000000000D-01 -1.0853792548644D+00 -8.5845971538067D-02
81  8.0000000000000D-01 -1.0861503366122D+00 -5.9263141000970D-02
82  8.1000000000000D-01 -1.0866569532362D+00 -3.2057566987837D-02
83  8.2000000000000D-01 -1.0868786658921D+00 -4.2564497122259D-03
84  8.3000000000000D-01 -1.0867939728464D+00  2.4111629999741D-02
85  8.4000000000000D-01 -1.0863804221776D+00  5.3016738269962D-02
86  8.5000000000000D-01 -1.0856147314888D+00  8.2427619090581D-02
87  8.6000000000000D-01 -1.0844729141326D+00  1.1231172858979D-01
88  8.7000000000000D-01 -1.0829304114108D+00  1.4263527261756D-01
89  8.8000000000000D-01 -1.0809622301805D+00  1.7336324762186D-01
90  8.9000000000000D-01 -1.0785430852614D+00  2.0445948477962D-01
91  9.0000000000000D-01 -1.0756475460040D+00  2.3588669733877D-01
92  9.1000000000000D-01 -1.0722501863437D+00  2.6760653111927D-01
93  9.2000000000000D-01 -1.0683257376236D+00  2.9957961810945D-01
94  9.3000000000000D-01 -1.0638492434375D+00  3.3176563308178D-01
95  9.4000000000000D-01 -1.0587962157004D+00  3.6412335313619D-01
96  9.5000000000000D-01 -1.0531427911245D+00  3.9661072006047D-01
97  9.6000000000000D-01 -1.0468658872439D+00  4.2918490537593D-01
98  9.7000000000000D-01 -1.0399433245623D+00  4.6180236756964D-01
99  9.8000000000000D-01 -1.0323540317499D+00  4.9441893675063D-01
100  9.9000000000000D-01 -1.0240782299862D+00  5.2698990083194D-01
101  1.0000000000000D+00 -1.0150975008604D+00  5.5947005559619D-01
102  1.0100000000000D+00 -1.0053949604249D+00  5.9181379135326D-01
103  1.0200000000000D+00 -9.9495539646158D-01  6.2397517196914D-01
104  1.0300000000000D+00 -9.8376537393861D-01  6.5590800474170D-01
105  1.0400000000000D+00 -9.7181330893272D-01  6.8756589705401D-01
106  1.0500000000000D+00 -9.5908990780673D-01  7.1890247868684D-01
107  1.0600000000000D+00 -9.4558793669872D-01  7.4987134955502D-01
108  1.0700000000000D+00 -9.3130242868517D-01  7.8042620815983D-01
109  1.0800000000000D+00 -9.1623071613793D-01  8.1052090740835D-01
110  1.0900000000000D+00 -9.0037253015537D-01  8.4010954070693D-01
111  1.1000000000000D+00 -8.8373043491718D-01  8.6914673437057D-01
112  1.1100000000000D+00 -8.6630943164033D-01  8.9758750368096D-01
113  1.1200000000000D+00 -8.4811714276575D-01  9.2538740550195D-01
114  1.1300000000000D+00 -8.2916363317038D-01  9.5250246821745D-01
115  1.1400000000000D+00 -8.0946225464779D-01  9.7888982612961D-01
116  1.1500000000000D+00 -7.8902884236778D-01  1.0045073007364D+00
117  1.1600000000000D+00 -7.6788187881825D-01  1.0293135629858D+00
118  1.1700000000000D+00 -7.4604253008974D-01  1.0532682161735D+00
119  1.1800000000000D+00 -7.2353512066704D-01  1.0763323560370D+00
120  1.1900000000000D+00 -7.0038641463882D-01  1.0984680964448D+00
121  1.2000000000000D+00 -6.7662558967891D-01  1.1196385559008D+00
122  1.2100000000000D+00 -6.5228486921266D-01  1.1398086898227D+00
123  1.2200000000000D+00 -6.2739890444341D-01  1.1589448930697D+00
124  1.2300000000000D+00 -6.0200456360851D-01  1.1770147804052D+00
125  1.2400000000000D+00 -5.7614127464544D-01  1.1939878101790D+00
126  1.2500000000000D+00 -5.4985082042335D-01  1.2098354775130D+00
127  1.2600000000000D+00 -5.2317687947318D-01  1.2245306025821D+00
128  1.2700000000000D+00 -4.9616527774671D-01  1.2380479892999D+00
129  1.2800000000000D+00 -4.6886377707934D-01  1.2503649052441D+00
130  1.2900000000000D+00 -4.4132171275804D-01  1.2614599862909D+00
131  1.3000000000000D+00 -4.1359012255296D-01  1.2713142105117D+00
132  1.3100000000000D+00 -3.8572133112258D-01  1.2799111826754D+00
133  1.3200000000000D+00 -3.5776898333792D-01  1.2872358567908D+00
134  1.3300000000000D+00 -3.2978772700694D-01  1.2932761752724D+00
135  1.3400000000000D+00 -3.0183285669965D-01  1.2980225051584D+00
136  1.3500000000000D+00 -2.7396086336284D-01  1.3014665244678D+00
137  1.3600000000000D+00 -2.4622796789235D-01  1.3036038398706D+00
138  1.3700000000000D+00 -2.1869099455523D-01  1.3044315988889D+00
139  1.3800000000000D+00 -1.9140711061575D-01  1.3039492907885D+00
140  1.3900000000000D+00 -1.6443232069041D-01  1.3021599495681D+00
141  1.4000000000000D+00 -1.3782353793499D-01  1.2990677578042D+00
142  1.4100000000000D+00 -1.1163586311754D-01  1.2946807085861D+00
143  1.4200000000000D+00 -8.5923958920485D-02  1.2890088138170D+00
144  1.4300000000000D+00 -6.0742198915604D-02  1.2820642654479D+00
145  1.4400000000000D+00 -3.6141814604547D-02  1.2738629907884D+00
146  1.4500000000000D+00 -1.2175161132631D-02  1.2644218812359D+00
147  1.4600000000000D+00  1.1109806497643D-02  1.2537619792318D+00
148  1.4700000000000D+00  3.3665150093524D-02  1.2419057283995D+00
149  1.4800000000000D+00  5.5445544149384D-02  1.2288784719306D+00
150  1.4900000000000D+00  7.6408900614616D-02  1.2147082549234D+00
151  1.5000000000000D+00  9.6513084642827D-02  1.1994246980263D+00
152  1.5100000000000D+00  1.1572246225740D-01  1.1830610388604D+00
153  1.5200000000000D+00  1.3399942047279D-01  1.1656513477263D+00
154  1.5300000000000D+00  1.5131428588864D-01  1.1472333542129D+00
155  1.5400000000000D+00  1.6763620100111D-01  1.1278457919260D+00
156  1.5500000000000D+00  1.8294059985554D-01  1.1075302524565D+00
157  1.5600000000000D+00  1.9720441376353D-01  1.0863298277773D+00
158  1.5700000000000D+00  2.1040861288379D-01  1.0642897565767D+00
159  1.5800000000000D+00  2.2253829646498D-01  1.0414569478549D+00
160  1.5900000000000D+00  2.3358041514306D-01  1.0178800354737D+00
161  1.6000000000000D+00  2.4352839234196D-01  9.9360913528462D-01
162  1.6100000000000D+00  2.5237557729935D-01  9.6869596631471D-01
163  1.6200000000000D+00  2.6012367594745D-01  9.4319319202862D-01
164  1.6300000000000D+00  2.6677279022488D-01  9.1715523496150D-01
165  1.6400000000000D+00  2.7233269220698D-01  8.9063661241963D-01
166  1.6500000000000D+00  2.7681049592059D-01  8.6369398885421D-01
167  1.6600000000000D+00  2.8022366846041D-01  8.3638301892542D-01
168  1.6700000000000D+00  2.8258647748495D-01  8.0876206169603D-01
169  1.6800000000000D+00  2.8392357680347D-01  7.8088718196648D-01
170  1.6900000000000D+00  2.8425639391537D-01  7.5281779419692D-01
171  1.7000000000000D+00  2.8361614204872D-01  7.2460965034677D-01
172  1.7100000000000D+00  2.8203126384846D-01  6.9632247995498D-01
173  1.7200000000000D+00  2.7953880873922D-01  6.6801102345854D-01
174  1.7300000000000D+00  2.7617392073951D-01  6.3973447024176D-01
175  1.7400000000000D+00  2.7197869860368D-01  6.1154590085686D-01
176  1.7500000000000D+00  2.6699448017610D-01  5.8350297596939D-01
177  1.7600000000000D+00  2.6126760740220D-01  5.5565654903893D-01
178  1.7700000000000D+00  2.5484487774937D-01  5.2806160941247D-01
179  1.7800000000000D+00  2.4777610707026D-01  5.0076632928970D-01
180  1.7900000000000D+00  2.4011254324252D-01  4.7382164482504D-01
181  1.8000000000000D+00  2.3190682378719D-01  4.4727285439073D-01
182  1.8100000000000D+00  2.2321328811074D-01  4.2116499034342D-01
183  1.8200000000000D+00  2.1408700926110D-01  3.9554113763686D-01
184  1.8300000000000D+00  2.0458419397710D-01  3.7044149416097D-01
185  1.8400000000000D+00  1.9476211073192D-01  3.4590738238283D-01
186  1.8500000000000D+00  1.8467754148442D-01  3.2197580353979D-01
187  1.8600000000000D+00  1.7438990998500D-01  2.9868708148049D-01
188  1.8700000000000D+00  1.6395499925752D-01  2.7607427904647D-01
189  1.8800000000000D+00  1.5343363034804D-01  2.5417596665035D-01
190  1.8900000000000D+00  1.4288024856964D-01  2.3302209084822D-01
191  1.9000000000000D+00  1.3235438054389D-01  2.1264706834293D-01
192  1.9100000000000D+00  1.2191028184120D-01  1.9307942221886D-01
193  1.9200000000000D+00  1.1160355622939D-01  1.7434793545656D-01
194  1.9300000000000D+00  1.0148883217532D-01  1.5648007917643D-01
195  1.9400000000000D+00  9.1615338169666D-02  1.3949806156784D-01
196  1.9500000000000D+00  8.2038644086865D-02  1.2342853950037D-01
197  1.9600000000000D+00  7.2800912321268D-02  1.0828750863816D-01
198  1.9700000000000D+00  6.3954302596799D-02  9.4097615266344D-02
199  1.9800000000000D+00  5.5538131956140D-02  8.0872147307102D-02
200  1.9900000000000D+00  4.7595464220660D-02  6.8626308060233D-02
201  2.0000000000000D+00  4.0166084122411D-02  5.7372782676212D-02
202  2.0100000000000D+00  3.3280603817983D-02  4.7117875438866D-02
203  2.0200000000000D+00  2.6980186343172D-02  3.7873970202384D-02
204  2.0300000000000D+00  2.1284664831539D-02  2.9640037088270D-02
205  2.0400000000000D+00  1.6226266873893D-02  2.2421967057219D-02
206  2.0500000000000D+00  1.1824514936976D-02  1.6217800557399D-02
207  2.0600000000000D+00  8.0960106092289D-03  1.1023388580951D-02
208  2.0700000000000D+00  5.0625036627635D-03  6.8370879808372D-03
209  2.0800000000000D+00  2.7259610559173D-03  3.6456370847783D-03
210  2.0900000000000D+00  1.1936939470745D-03  1.5623950712098D-03
211  2.1000000000000D+00  3.1568190477476D-04  3.7844131935713D-04
212  2.1100000000000D+00 -8.9526300366174D-05 -1.5575233524839D-04
213  2.1200000000000D+00 -1.6484203416391D-04 -2.4226786097122D-04
214  2.1300000000000D+00 -5.1268085822674D-05 -7.3405779865674D-05
215  2.1400000000000D+00  2.0192612422738D-06  4.9496085137423D-06
216  2.1500000000000D+00  1.7993487574366D-06  4.4105595366012D-06
217  2.1600000000000D+00  0.0000000000000D+00  0.0000000000000D+00
218  2.1700000000000D+00  0.0000000000000D+00  0.0000000000000D+00
219  2.1800000000000D+00  0.0000000000000D+00  0.0000000000000D+00
220  2.1900000000000D+00  0.0000000000000D+00  0.0000000000000D+00
221  2.2000000000000D+00  0.0000000000000D+00  0.0000000000000D+00
222  2.2100000000000D+00  0.0000000000000D+00  0.0000000000000D+00
223  2.2200000000000D+00  0.0000000000000D+00  0.0000000000000D+00
224  2.2300000000000D+00  0.0000000000000D+00  0.0000000000000D+00
225  2.2400000000000D+00  0.0000000000000D+00  0.0000000000000D+00
226  2.2500000000000D+00  0.0000000000000D+00  0.0000000000000D+00
227  2.2600000000000D+00  0.0000000000000D+00  0.0000000000000D+00
228  2.2700000000000D+00  0.0000000000000D+00  0.0000000000000D+00
229  2.2800000000000D+00  0.0000000000000D+00  0.0000000000000D+00
230  2.2900000000000D+00  0.0000000000000D+00  0.0000000000000D+00
231  2.3000000000000D+00  0.0000000000000D+00  0.0000000000000D+00
232  2.3100000000000D+00  0.0000000000000D+00  0.0000000000000D+00
233  2.3200000000000D+00  0.0000000000000D+00  0.0000000000000D+00
234  2.3300000000000D+00  0.0000000000000D+00  0.0000000000000D+00
235  2.3400000000000D+00  0.0000000000000D+00  0.0000000000000D+00
236  2.3500000000000D+00  0.0000000000000D+00  0.0000000000000D+00
237  2.3600000000000D+00  0.0000000000000D+00  0.0000000000000D+00
238  2.3700000000000D+00  0.0000000000000D+00  0.0000000000000D+00
239  2.3800000000000D+00  0.0000000000000D+00  0.0000000000000D+00
240  2.3900000000000D+00  0.0000000000000D+00  0.0000000000000D+00
241  2.4000000000000D+00  0.0000000000000D+00  0.0000000000000D+00
242  2.4100000000000D+00  0.0000000000000D+00  0.0000000000000D+00
243  2.4200000000000D+00  0.0000000000000D+00  0.0000000000000D+00
244  2.4300000000000D+00  0.0000000000000D+00  0.0000000000000D+00
245  2.4400000000000D+00  0.0000000000000D+00  0.0000000000000D+00
246  2.4500000000000D+00  0.0000000000000D+00  0.0000000000000D+00
247  2.4600000000000D+00  0.0000000000000D+00  0.0000000000000D+00
248  2.4700000000000D+00  0.0000000000000D+00  0.0000000000000D+00
249  2.4800000000000D+00  0.0000000000000D+00  0.0000000000000D+00
250  2.4900000000000D+00  0.0000000000000D+00  0.0000000000000D+00
251  2.5000000000000D+00  0.0000000000000D+00  0.0000000000000D+00
252  2.5100000000000D+00  0.0000000000000D+00  0.0000000000000D+00
253  2.5200000000000D+00  0.0000000000000D+00  0.0000000000000D+00
254  2.5300000000000D+00  0.0000000000000D+00  0.0000000000000D+00
255  2.5400000000000D+00  0.0000000000000D+00  0.0000000000000D+00
256  2.5500000000000D+00  0.0000000000000D+00  0.0000000000000D+00
257  2.5600000000000D+00  0.0000000000000D+00  0.0000000000000D+00
258  2.5700000000000D+00  0.0000000000000D+00  0.0000000000000D+00
259  2.5800000000000D+00  0.0000000000000D+00  0.0000000000000D+00
260  2.5900000000000D+00  0.0000000000000D+00  0.0000000000000D+00
261  2.6000000000000D+00  0.0000000000000D+00  0.0000000000000D+00
262  2.6100000000000D+00  0.0000000000000D+00  0.0000000000000D+00
263  2.6200000000000D+00  0.0000000000000D+00  0.0000000000000D+00
264  2.6300000000000D+00  0.0000000000000D+00  0.0000000000000D+00
265  2.6400000000000D+00  0.0000000000000D+00  0.0000000000000D+00
266  2.6500000000000D+00  0.0000000000000D+00  0.0000000000000D+00
267  2.6600000000000D+00  0.0000000000000D+00  0.0000000000000D+00
268  2.6700000000000D+00  0.0000000000000D+00  0.0000000000000D+00
269  2.6800000000000D+00  0.0000000000000D+00  0.0000000000000D+00
270  2.6900000000000D+00  0.0000000000000D+00  0.0000000000000D+00
271  2.7000000000000D+00  0.0000000000000D+00  0.0000000000000D+00
272  2.7100000000000D+00  0.0000000000000D+00  0.0000000000000D+00
273  2.7200000000000D+00  0.0000000000000D+00  0.0000000000000D+00
274  2.7300000000000D+00  0.0000000000000D+00  0.0000000000000D+00
275  2.7400000000000D+00  0.0000000000000D+00  0.0000000000000D+00
276  2.7500000000000D+00  0.0000000000000D+00  0.0000000000000D+00
277  2.7600000000000D+00  0.0000000000000D+00  0.0000000000000D+00
278  2.7700000000000D+00  0.0000000000000D+00  0.0000000000000D+00
279  2.7800000000000D+00  0.0000000000000D+00  0.0000000000000D+00
280  2.7900000000000D+00  0.0000000000000D+00  0.0000000000000D+00
281  2.8000000000000D+00  0.0000000000000D+00  0.0000000000000D+00
282  2.8100000000000D+00  0.0000000000000D+00  0.0000000000000D+00
283  2.8200000000000D+00  0.0000000000000D+00  0.0000000000000D+00
284  2.8300000000000D+00  0.0000000000000D+00  0.0000000000000D+00
285  2.8400000000000D+00  0.0000000000000D+00  0.0000000000000D+00
286  2.8500000000000D+00  0.0000000000000D+00  0.0000000000000D+00
287  2.8600000000000D+00  0.0000000000000D+00  0.0000000000000D+00
288  2.8700000000000D+00  0.0000000000000D+00  0.0000000000000D+00
289  2.8800000000000D+00  0.0000000000000D+00  0.0000000000000D+00
290  2.8900000000000D+00  0.0000000000000D+00  0.0000000000000D+00
291  2.9000000000000D+00  0.0000000000000D+00  0.0000000000000D+00
292  2.9100000000000D+00  0.0000000000000D+00  0.0000000000000D+00
293  2.9200000000000D+00  0.0000000000000D+00  0.0000000000000D+00
294  2.9300000000000D+00  0.0000000000000D+00  0.0000000000000D+00
295  2.9400000000000D+00  0.0000000000000D+00  0.0000000000000D+00
296  2.9500000000000D+00  0.0000000000000D+00  0.0000000000000D+00
297  2.9600000000000D+00  0.0000000000000D+00  0.0000000000000D+00
298  2.9700000000000D+00  0.0000000000000D+00  0.0000000000000D+00
299  2.9800000000000D+00  0.0000000000000D+00  0.0000000000000D+00
300  2.9900000000000D+00  0.0000000000000D+00  0.0000000000000D+00
301  3.0000000000000D+00  0.0000000000000D+00  0.0000000000000D+00
302  3.0100000000000D+00  0.0000000000000D+00  0.0000000000000D+00
303  3.0200000000000D+00  0.0000000000000D+00  0.0000000000000D+00
304  3.0300000000000D+00  0.0000000000000D+00  0.0000000000000D+00
305  3.0400000000000D+00  0.0000000000000D+00  0.0000000000000D+00
306  3.0500000000000D+00  0.0000000000000D+00  0.0000000000000D+00
307  3.0600000000000D+00  0.0000000000000D+00  0.0000000000000D+00
308  3.0700000000000D+00  0.0000000000000D+00  0.0000000000000D+00
309  3.0800000000000D+00  0.0000000000000D+00  0.0000000000000D+00
310  3.0900000000000D+00  0.0000000000000D+00  0.0000000000000D+00
311  3.1000000000000D+00  0.0000000000000D+00  0.0000000000000D+00
312  3.1100000000000D+00  0.0000000000000D+00  0.0000000000000D+00
313  3.1200000000000D+00  0.0000000000000D+00  0.0000000000000D+00
314  3.1300000000000D+00  0.0000000000000D+00  0.0000000000000D+00
315  3.1400000000000D+00  0.0000000000000D+00  0.0000000000000D+00
316  3.1500000000000D+00  0.0000000000000D+00  0.0000000000000D+00
317  3.1600000000000D+00  0.0000000000000D+00  0.0000000000000D+00
318  3.1700000000000D+00  0.0000000000000D+00  0.0000000000000D+00
319  3.1800000000000D+00  0.0000000000000D+00  0.0000000000000D+00
320  3.1900000000000D+00  0.0000000000000D+00  0.0000000000000D+00
321  3.2000000000000D+00  0.0000000000000D+00  0.0000000000000D+00
322  3.2100000000000D+00  0.0000000000000D+00  0.0000000000000D+00
323  3.2200000000000D+00  0.0000000000000D+00  0.0000000000000D+00
324  3.2300000000000D+00  0.0000000000000D+00  0.0000000000000D+00
325  3.2400000000000D+00  0.0000000000000D+00  0.0000000000000D+00
326  3.2500000000000D+00  0.0000000000000D+00  0.0000000000000D+00
327  3.2600000000000D+00  0.0000000000000D+00  0.0000000000000D+00
328  3.2700000000000D+00  0.0000000000000D+00  0.0000000000000D+00
329  3.2800000000000D+00  0.0000000000000D+00  0.0000000000000D+00
330  3.2900000000000D+00  0.0000000000000D+00  0.0000000000000D+00
331  3.3000000000000D+00  0.0000000000000D+00  0.0000000000000D+00
332  3.3100000000000D+00  0.0000000000000D+00  0.0000000000000D+00
333  3.3200000000000D+00  0.0000000000000D+00  0.0000000000000D+00
334  3.3300000000000D+00  0.0000000000000D+00  0.0000000000000D+00
335  3.3400000000000D+00  0.0000000000000D+00  0.0000000000000D+00
336  3.3500000000000D+00  0.0000000000000D+00  0.0000000000000D+00
337  3.3600000000000D+00  0.0000000000000D+00  0.0000000000000D+00
338  3.3700000000000D+00  0.0000000000000D+00  0.0000000000000D+00
339  3.3800000000000D+00  0.0000000000000D+00  0.0000000000000D+00
340  3.3900000000000D+00  0.0000000000000D+00  0.0000000000000D+00
341  3.4000000000000D+00  0.0000000000000D+00  0.0000000000000D+00
342  3.4100000000000D+00  0.0000000000000D+00  0.0000000000000D+00
343  3.4200000000000D+00  0.0000000000000D+00  0.0000000000000D+00
344  3.4300000000000D+00  0.0000000000000D+00  0.0000000000000D+00
345  3.4400000000000D+00  0.0000000000000D+00  0.0000000000000D+00
346  3.4500000000000D+00  0.0000000000000D+00  0.0000000000000D+00
347  3.4600000000000D+00  0.0000000000000D+00  0.0000000000000D+00
348  3.4700000000000D+00  0.0000000000000D+00  0.0000000000000D+00
349  3.4800000000000D+00  0.0000000000000D+00  0.0000000000000D+00
350  3.4900000000000D+00  0.0000000000000D+00  0.0000000000000D+00
351  3.5000000000000D+00  0.0000000000000D+00  0.0000000000000D+00
352  3.5100000000000D+00  0.0000000000000D+00  0.0000000000000D+00
353  3.5200000000000D+00  0.0000000000000D+00  0.0000000000000D+00
354  3.5300000000000D+00  0.0000000000000D+00  0.0000000000000D+00
355  3.5400000000000D+00  0.0000000000000D+00  0.0000000000000D+00
356  3.5500000000000D+00  0.0000000000000D+00  0.0000000000000D+00
357  3.5600000000000D+00  0.0000000000000D+00  0.0000000000000D+00
358  3.5700000000000D+00  0.0000000000000D+00  0.0000000000000D+00
359  3.5800000000000D+00  0.0000000000000D+00  0.0000000000000D+00
360  3.5900000000000D+00  0.0000000000000D+00  0.0000000000000D+00
361  3.6000000000000D+00  0.0000000000000D+00  0.0000000000000D+00
362  3.6100000000000D+00  0.0000000000000D+00  0.0000000000000D+00
363  3.6200000000000D+00  0.0000000000000D+00  0.0000000000000D+00
364  3.6300000000000D+00  0.0000000000000D+00  0.0000000000000D+00
365  3.6400000000000D+00  0.0000000000000D+00  0.0000000000000D+00
366  3.6500000000000D+00  0.0000000000000D+00  0.0000000000000D+00
367  3.6600000000000D+00  0.0000000000000D+00  0.0000000000000D+00
368  3.6700000000000D+00  0.0000000000000D+00  0.0000000000000D+00
369  3.6800000000000D+00  0.0000000000000D+00  0.0000000000000D+00
370  3.6900000000000D+00  0.0000000000000D+00  0.0000000000000D+00
371  3.7000000000000D+00  0.0000000000000D+00  0.0000000000000D+00
372  3.7100000000000D+00  0.0000000000000D+00  0.0000000000000D+00
373  3.7200000000000D+00  0.0000000000000D+00  0.0000000000000D+00
374  3.7300000000000D+00  0.0000000000000D+00  0.0000000000000D+00
375  3.7400000000000D+00  0.0000000000000D+00  0.0000000000000D+00
376  3.7500000000000D+00  0.0000000000000D+00  0.0000000000000D+00
377  3.7600000000000D+00  0.0000000000000D+00  0.0000000000000D+00
378  3.7700000000000D+00  0.0000000000000D+00  0.0000000000000D+00
379  3.7800000000000D+00  0.0000000000000D+00  0.0000000000000D+00
380  3.7900000000000D+00  0.0000000000000D+00  0.0000000000000D+00
381  3.8000000000000D+00  0.0000000000000D+00  0.0000000000000D+00
382  3.8100000000000D+00  0.0000000000000D+00  0.0000000000000D+00
383  3.8200000000000D+00  0.0000000000000D+00  0.0000000000000D+00
384  3.8300000000000D+00  0.0000000000000D+00  0.0000000000000D+00
385  3.8400000000000D+00  0.0000000000000D+00  0.0000000000000D+00
386  3.8500000000000D+00  0.0000000000000D+00  0.0000000000000D+00
387  3.8600000000000D+00  0.0000000000000D+00  0.0000000000000D+00
388  3.8700000000000D+00  0.0000000000000D+00  0.0000000000000D+00
389  3.8800000000000D+00  0.0000000000000D+00  0.0000000000000D+00
390  3.8900000000000D+00  0.0000000000000D+00  0.0000000000000D+00
391  3.9000000000000D+00  0.0000000000000D+00  0.0000000000000D+00
392  3.9100000000000D+00  0.0000000000000D+00  0.0000000000000D+00
393  3.9200000000000D+00  0.0000000000000D+00  0.0000000000000D+00
394  3.9300000000000D+00  0.0000000000000D+00  0.0000000000000D+00
395  3.9400000000000D+00  0.0000000000000D+00  0.0000000000000D+00
396  3.9500000000000D+00  0.0000000000000D+00  0.0000000000000D+00
397  3.9600000000000D+00  0.0000000000000D+00  0.0000000000000D+00
398  3.9700000000000D+00  0.0000000000000D+00  0.0000000000000D+00
399  3.9800000000000D+00  0.0000000000000D+00  0.0000000000000D+00
400  3.9900000000000D+00  0.0000000000000D+00  0.0000000000000D+00
401  4.0000000000000D+00  0.0000000000000D+00  0.0000000000000D+00
402  4.0100000000000D+00  0.0000000000000D+00  0.0000000000000D+00
403  4.0200000000000D+00  0.0000000000000D+00  0.0000000000000D+00
404  4.0300000000000D+00  0.0000000000000D+00  0.0000000000000D+00
405  4.0400000000000D+00  0.0000000000000D+00  0.0000000000000D+00
406  4.0500000000000D+00  0.0000000000000D+00  0.0000000000000D+00
407  4.0600000000000D+00  0.0000000000000D+00  0.0000000000000D+00
408  4.0700000000000D+00  0.0000000000000D+00  0.0000000000000D+00
409  4.0800000000000D+00  0.0000000000000D+00  0.0000000000000D+00
410  4.0900000000000D+00  0.0000000000000D+00  0.0000000000000D+00
411  4.1000000000000D+00  0.0000000000000D+00  0.0000000000000D+00
412  4.1100000000000D+00  0.0000000000000D+00  0.0000000000000D+00
413  4.1200000000000D+00  0.0000000000000D+00  0.0000000000000D+00
414  4.1300000000000D+00  0.0000000000000D+00  0.0000000000000D+00
415  4.1400000000000D+00  0.0000000000000D+00  0.0000000000000D+00
416  4.1500000000000D+00  0.0000000000000D+00  0.0000000000000D+00
417  4.1600000000000D+00  0.0000000000000D+00  0.0000000000000D+00
418  4.1700000000000D+00  0.0000000000000D+00  0.0000000000000D+00
419  4.1800000000000D+00  0.0000000000000D+00  0.0000000000000D+00
420  4.1900000000000D+00  0.0000000000000D+00  0.0000000000000D+00
421  4.2000000000000D+00  0.0000000000000D+00  0.0000000000000D+00
422  4.2100000000000D+00  0.0000000000000D+00  0.0000000000000D+00
423  4.2200000000000D+00  0.0000000000000D+00  0.0000000000000D+00
424  4.2300000000000D+00  0.0000000000000D+00  0.0000000000000D+00
425  4.2400000000000D+00  0.0000000000000D+00  0.0000000000000D+00
426  4.2500000000000D+00  0.0000000000000D+00  0.0000000000000D+00
427  4.2600000000000D+00  0.0000000000000D+00  0.0000000000000D+00
428  4.2700000000000D+00  0.0000000000000D+00  0.0000000000000D+00
429  4.2800000000000D+00  0.0000000000000D+00  0.0000000000000D+00
430  4.2900000000000D+00  0.0000000000000D+00  0.0000000000000D+00
431  4.3000000000000D+00  0.0000000000000D+00  0.0000000000000D+00
432  4.3100000000000D+00  0.0000000000000D+00  0.0000000000000D+00
433  4.3200000000000D+00  0.0000000000000D+00  0.0000000000000D+00
434  4.3300000000000D+00  0.0000000000000D+00  0.0000000000000D+00
435  4.3400000000000D+00  0.0000000000000D+00  0.0000000000000D+00
436  4.3500000000000D+00  0.0000000000000D+00  0.0000000000000D+00
437  4.3600000000000D+00  0.0000000000000D+00  0.0000000000000D+00
438  4.3700000000000D+00  0.0000000000000D+00  0.0000000000000D+00
439  4.3800000000000D+00  0.0000000000000D+00  0.0000000000000D+00
440  4.3900000000000D+00  0.0000000000000D+00  0.0000000000000D+00
441  4.4000000000000D+00  0.0000000000000D+00  0.0000000000000D+00
442  4.4100000000000D+00  0.0000000000000D+00  0.0000000000000D+00
443  4.4200000000000D+00  0.0000000000000D+00  0.0000000000000D+00
444  4.4300000000000D+00  0.0000000000000D+00  0.0000000000000D+00