W     ONCVPSP-3.2.3.1  r_core=   1.61105   1.61105   1.61105   2.02088
74.0000     14.0000      170501    zatom,zion,pspd
8      11   3     4   600     0    pspcod,pspxc,lmax,lloc,mmax,r2well
5.99000000  5.00000000  0.00000000    rchrg fchrg qchrg
2     2     2     2     0    nproj
1     1           extension_switch
0                         1.2992055998228D+01  1.8444105044683D+00
1  0.0000000000000D+00 -6.3610505751655D-11  3.1402119793356D-10
2  1.0000000000000D-02  5.2772720354707D-02 -2.0461566573550D-02
3  2.0000000000000D-02  1.0548415054915D-01 -4.0833276761917D-02
4  3.0000000000000D-02  1.5807307092400D-01 -6.1025816179424D-02
5  4.0000000000000D-02  2.1047840195049D-01 -8.0950947928925D-02
6  5.0000000000000D-02  2.6263927213391D-01 -1.0052203515036D-01
7  6.0000000000000D-02  3.1449508336861D-01 -1.1965454435907D-01
8  7.0000000000000D-02  3.6598557297048D-01 -1.3826652354241D-01
9  8.0000000000000D-02  4.1705087167661D-01 -1.5627904929698D-01
10  9.0000000000000D-02  4.6763155697973D-01 -1.7361663767548D-01
11  1.0000000000000D-01  5.1766870125678D-01 -1.9020761386684D-01
12  1.1000000000000D-01  5.6710391425478D-01 -2.0598443635226D-01
13  1.2000000000000D-01  6.1587937961274D-01 -2.2088397175677D-01
14  1.3000000000000D-01  6.6393788522270D-01 -2.3484771724564D-01
15  1.4000000000000D-01  7.1122284736657D-01 -2.4782196799025D-01
16  1.5000000000000D-01  7.5767832870456D-01 -2.5975792794140D-01
17  1.6000000000000D-01  8.0324905033499D-01 -2.7061176289283D-01
18  1.7000000000000D-01  8.4788039829227D-01 -2.8034459558399D-01
19  1.8000000000000D-01  8.9151842499660D-01 -2.8892244337192D-01
20  1.9000000000000D-01  9.3410984631496D-01 -2.9631609978721D-01
21  2.0000000000000D-01  9.7560203503491D-01 -3.0250096206996D-01
22  2.1000000000000D-01  1.0159430116887D+00 -3.0745680754875D-01
23  2.2000000000000D-01  1.0550814337933D+00 -3.1116752246981D-01
24  2.3000000000000D-01  1.0929665846896D+00 -3.1362078759444D-01
25  2.4000000000000D-01  1.1295483632692D+00 -3.1480772555281D-01
26  2.5000000000000D-01  1.1647772759680D+00 -3.1472251556015D-01
27  2.6000000000000D-01  1.1986044324802D+00 -3.1336198166080D-01
28  2.7000000000000D-01  1.2309815467009D+00 -3.1072516115575D-01
29  2.8000000000000D-01  1.2618609444429D+00 -3.0681286028504D-01
30  2.9000000000000D-01  1.2911955794857D+00 -3.0162720456803D-01
31  3.0000000000000D-01  1.3189390595065D+00 -2.9517119144783D-01
32  3.1000000000000D-01  1.3450456834084D+00 -2.8744825303425D-01
33  3.2000000000000D-01  1.3694704915057D+00 -2.7846183678854D-01
34  3.3000000000000D-01  1.3921693299384D+00 -2.6821501193878D-01
35  3.4000000000000D-01  1.4130989305822D+00 -2.5671010925581D-01
36  3.5000000000000D-01  1.4322170075823D+00 -2.4394840155322D-01
37  3.6000000000000D-01  1.4494823714804D+00 -2.2992983190236D-01
38  3.7000000000000D-01  1.4648550617167D+00 -2.1465279607555D-01
39  3.8000000000000D-01  1.4782964980836D+00 -1.9811398514993D-01
40  3.9000000000000D-01  1.4897696514714D+00 -1.8030829352488D-01
41  4.0000000000000D-01  1.4992392340006D+00 -1.6122879683398D-01
42  4.1000000000000D-01  1.5066719083616D+00 -1.4086680337211D-01
43  4.2000000000000D-01  1.5120365159010D+00 -1.1921198172123D-01
44  4.3000000000000D-01  1.5153043226928D+00 -9.6252566250263D-02
45  4.4000000000000D-01  1.5164492825286D+00 -7.1975641098294D-02
46  4.5000000000000D-01  1.5154483154460D+00 -4.6367502137095D-02
47  4.6000000000000D-01  1.5122816000986D+00 -1.9414095259451D-02
48  4.7000000000000D-01  1.5069328779575D+00  8.8984718289370D-03
49  4.8000000000000D-01  1.4993897670249D+00  3.8583348313164D-02
50  4.9000000000000D-01  1.4896440824431D+00  6.9652294636699D-02
51  5.0000000000000D-01  1.4776921610963D+00  1.0211497884597D-01
52  5.1000000000000D-01  1.4635351870376D+00  1.3597822233215D-01
53  5.2000000000000D-01  1.4471795143301D+00  1.7124520344261D-01
54  5.3000000000000D-01  1.4286369836767D+00  2.0791462841576D-01
55  5.4000000000000D-01  1.4079252290263D+00  2.4597987999163D-01
56  5.5000000000000D-01  1.3850679701972D+00  2.8542815484568D-01
57  5.6000000000000D-01  1.3600952874463D+00  3.2623960167817D-01
58  5.7000000000000D-01  1.3330438738462D+00  3.6838647234750D-01
59  5.8000000000000D-01  1.3039572613067D+00  4.1183229885389D-01
60  5.9000000000000D-01  1.2728860161041D+00  4.5653110924968D-01
61  6.0000000000000D-01  1.2398878998550D+00  5.0242669566360D-01
62  6.1000000000000D-01  1.2050279919949D+00  5.4945194757326D-01
63  6.2000000000000D-01  1.1683787700023D+00  5.9752826323651D-01
64  6.3000000000000D-01  1.1300201438365D+00  6.4656505179605D-01
65  6.4000000000000D-01  1.0900394413391D+00  6.9645933799782D-01
66  6.5000000000000D-01  1.0485313416824D+00  7.4709548072249D-01
67  6.6000000000000D-01  1.0055977543295D+00  7.9834501561017D-01
68  6.7000000000000D-01  9.6134764140160D-01  8.5006663097881D-01
69  6.8000000000000D-01  9.1589678181601D-01  9.0210628500278D-01
70  6.9000000000000D-01  8.6936747607687D-01  9.5429747073107D-01
71  7.0000000000000D-01  8.2188819114565D-01  1.0064616340081D+00
72  7.1000000000000D-01  7.7359314539968D-01  1.0584087477199D+00
73  7.2000000000000D-01  7.2462183429033D-01  1.1099380440532D+00
74  7.3000000000000D-01  6.7511849793730D-01  1.1608389046215D+00
75  7.4000000000000D-01  6.2523153253239D-01  1.2108919064247D+00
76  7.5000000000000D-01  5.7511284806777D-01  1.2598700196734D+00
77  7.6000000000000D-01  5.2491717554483D-01  1.3075399515507D+00
78  7.7000000000000D-01  4.7480132745198D-01  1.3536636280320D+00
79  7.8000000000000D-01  4.2492341591554D-01  1.3979998039537D+00
80  7.9000000000000D-01  3.7544203351718D-01  1.4403057896503D+00
81  8.0000000000000D-01  3.2651540233409D-01  1.4803392806677D+00
82  8.1000000000000D-01  2.7830049727559D-01  1.5178602753720D+00
83  8.2000000000000D-01  2.3095215026460D-01  1.5526330636843D+00
84  8.3000000000000D-01  1.8462214223294D-01  1.5844282687491D+00
85  8.4000000000000D-01  1.3945829025945D-01  1.6130249220745D+00
86  8.5000000000000D-01  9.5603537475223D-02  1.6382125516106D+00
87  8.6000000000000D-01  5.3195053583731D-02  1.6597932613600D+00
88  8.7000000000000D-01  1.2363353992210D-02  1.6775837804674D+00
89  8.8000000000000D-01 -2.6768554380547D-02  1.6914174593244D+00
90  8.9000000000000D-01 -6.4085992567985D-02  1.7011461900544D+00
91  9.0000000000000D-01 -9.9483386336679D-02  1.7066422288362D+00
92  9.1000000000000D-01 -1.3286499251255D-01  1.7077998978679D+00
93  9.2000000000000D-01 -1.6414556734863D-01  1.7045371453823D+00
94  9.3000000000000D-01 -1.9325096978230D-01  1.6967969429920D+00
95  9.4000000000000D-01 -2.2011869286769D-01  1.6845485007736D+00
96  9.5000000000000D-01 -2.4469831717665D-01  1.6677882818553D+00
97  9.6000000000000D-01 -2.6695188055499D-01  1.6465407998902D+00
98  9.7000000000000D-01 -2.8685415927926D-01  1.6208591846252D+00
99  9.8000000000000D-01 -3.0439285638025D-01  1.5908255028028D+00
100  9.9000000000000D-01 -3.1956869367959D-01  1.5565508238503D+00
101  1.0000000000000D+00 -3.3239540491525D-01  1.5181750221867D+00
102  1.0100000000000D+00 -3.4289962819665D-01  1.4758663104767D+00
103  1.0200000000000D+00 -3.5112069695637D-01  1.4298205008529D+00
104  1.0300000000000D+00 -3.5711032943020D-01  1.3802599936508D+00
105  1.0400000000000D+00 -3.6093221770157D-01  1.3274324961487D+00
106  1.0500000000000D+00 -3.6266151824011D-01  1.2716094764388D+00
107  1.0600000000000D+00 -3.6238424679918D-01  1.2130843603172D+00
108  1.0700000000000D+00 -3.6019658146288D-01  1.1521704818266D+00
109  1.0800000000000D+00 -3.5620407847936D-01  1.0891988006009D+00
110  1.0900000000000D+00 -3.5052080635956D-01  1.0245154016672D+00
111  1.1000000000000D+00 -3.4326840454434D-01  9.5847879582146D-01
112  1.1100000000000D+00 -3.3457507361649D-01  8.9145704070570D-01
113  1.1200000000000D+00 -3.2457450474979D-01  8.2382470485279D-01
114  1.1300000000000D+00 -3.1340475655661D-01  7.5595969837181D-01
115  1.1400000000000D+00 -3.0120708814102D-01  6.8823999587463D-01
116  1.1500000000000D+00 -2.8812475745819D-01  6.2104027812235D-01
117  1.1600000000000D+00 -2.7430179442665D-01  5.5472851989575D-01
118  1.1700000000000D+00 -2.5988175842371D-01  4.8966255214029D-01
119  1.1800000000000D+00 -2.4500648995949D-01  4.2618662690962D-01
120  1.1900000000000D+00 -2.2981486625245D-01  3.6462801339706D-01
121  1.2000000000000D+00 -2.1444157033149D-01  3.0529365302457D-01
122  1.2100000000000D+00 -1.9901588316901D-01  2.4846690116482D-01
123  1.2200000000000D+00 -1.8366050664152D-01  1.9440437594641D-01
124  1.2300000000000D+00 -1.6849042556140D-01  1.4333293948711D-01
125  1.2400000000000D+00 -1.5361186302445D-01  9.5447028077827D-02
126  1.2500000000000D+00 -1.3912117111525D-01  5.0905648010936D-02
127  1.2600000000000D+00 -1.2510381698630D-01  9.8296731556437D-03
128  1.2700000000000D+00 -1.1163476137099D-01 -2.7694596827799D-02
129  1.2800000000000D+00 -9.8779089214820D-02 -6.1611362987981D-02
130  1.2900000000000D+00 -8.6592848507134D-02 -9.1890842515576D-02
131  1.3000000000000D+00 -7.5122728062024D-02 -1.1853034068027D-01
132  1.3100000000000D+00 -6.4406009393750D-02 -1.4155422161396D-01
133  1.3200000000000D+00 -5.4470628663917D-02 -1.6101347473902D-01
134  1.3300000000000D+00 -4.5335306514962D-02 -1.7698512002038D-01
135  1.3400000000000D+00 -3.7009759702755D-02 -1.8957136804692D-01
136  1.3500000000000D+00 -2.9494997550955D-02 -1.9889851983162D-01
137  1.3600000000000D+00 -2.2783693835275D-02 -2.0511564340155D-01
138  1.3700000000000D+00 -1.6860633610137D-02 -2.0839302406740D-01
139  1.3800000000000D+00 -1.1703234116837D-02 -2.0892038781761D-01
140  1.3900000000000D+00 -7.2821274895914D-03 -2.0690494276689D-01
141  1.4000000000000D+00 -3.5618004526524D-03 -2.0256925163459D-01
142  1.4100000000000D+00 -5.0128841718872D-04 -1.9614894022373D-01
143  1.4200000000000D+00  1.9450868058465D-03 -1.8789027791715D-01
144  1.4300000000000D+00  3.8269423513140D-03 -1.7804765061649D-01
145  1.4400000000000D+00  5.1970306207386D-03 -1.6688095043337D-01
146  1.4500000000000D+00  6.1104153214496D-03 -1.5465290956135D-01
147  1.4600000000000D+00  6.6236353796869D-03 -1.4162640368285D-01
148  1.4700000000000D+00  6.7938658670625D-03 -1.2806175350175D-01
149  1.4800000000000D+00  6.6780843395690D-03 -1.1421405058709D-01
150  1.4900000000000D+00  6.3322517003981D-03 -1.0033053601572D-01
151  1.5000000000000D+00  5.8105154743390D-03 -8.6648056488813D-02
152  1.5100000000000D+00  5.1644449854023D-03 -7.3390627558846D-02
153  1.5200000000000D+00  4.4423042134264D-03 -6.0767121930667D-02
154  1.5300000000000D+00  3.6883738700404D-03 -4.8969119538473D-02
155  1.5400000000000D+00  2.9423258474021D-03 -3.8168928760498D-02
156  1.5500000000000D+00  2.2386559407374D-03 -2.8517795849283D-02
157  1.5600000000000D+00  1.6065841239596D-03 -2.0149129542840D-02
158  1.5700000000000D+00  1.0679288665357D-03 -1.3156758442005D-02
159  1.5800000000000D+00  6.3585217781053D-04 -7.5889452662131D-03
160  1.5900000000000D+00  3.2904267795858D-04 -3.5937815677434D-03
161  1.6000000000000D+00  1.5888053859187D-04 -1.2714029594625D-03
162  1.6100000000000D+00  8.0705256007890D-05 -2.5725251391602D-04
163  1.6200000000000D+00  3.1536833868619D-05  2.3950526659560D-05
164  1.6300000000000D+00  7.9436163713848D-07  2.4419428090606D-06
165  1.6400000000000D+00 -4.6774960185476D-06 -2.1977997481760D-05
166  1.6500000000000D+00  1.2488759215146D-08  2.5055274650106D-08
167  1.6600000000000D+00  1.1926680292760D-06  3.0703487912147D-06
168  1.6700000000000D+00 -1.0083409235234D-08  2.7290650643055D-08
169  1.6800000000000D+00 -2.1206570903500D-07  5.7395381300433D-07
170  1.6900000000000D+00  0.0000000000000D+00  0.0000000000000D+00
171  1.7000000000000D+00  0.0000000000000D+00  0.0000000000000D+00
172  1.7100000000000D+00  0.0000000000000D+00  0.0000000000000D+00
173  1.7200000000000D+00  0.0000000000000D+00  0.0000000000000D+00
174  1.7300000000000D+00  0.0000000000000D+00  0.0000000000000D+00
175  1.7400000000000D+00  0.0000000000000D+00  0.0000000000000D+00
176  1.7500000000000D+00  0.0000000000000D+00  0.0000000000000D+00
177  1.7600000000000D+00  0.0000000000000D+00  0.0000000000000D+00
178  1.7700000000000D+00  0.0000000000000D+00  0.0000000000000D+00
179  1.7800000000000D+00  0.0000000000000D+00  0.0000000000000D+00
180  1.7900000000000D+00  0.0000000000000D+00  0.0000000000000D+00
181  1.8000000000000D+00  0.0000000000000D+00  0.0000000000000D+00
182  1.8100000000000D+00  0.0000000000000D+00  0.0000000000000D+00
183  1.8200000000000D+00  0.0000000000000D+00  0.0000000000000D+00
184  1.8300000000000D+00  0.0000000000000D+00  0.0000000000000D+00
185  1.8400000000000D+00  0.0000000000000D+00  0.0000000000000D+00
186  1.8500000000000D+00  0.0000000000000D+00  0.0000000000000D+00
187  1.8600000000000D+00  0.0000000000000D+00  0.0000000000000D+00
188  1.8700000000000D+00  0.0000000000000D+00  0.0000000000000D+00
189  1.8800000000000D+00  0.0000000000000D+00  0.0000000000000D+00
190  1.8900000000000D+00  0.0000000000000D+00  0.0000000000000D+00
191  1.9000000000000D+00  0.0000000000000D+00  0.0000000000000D+00
192  1.9100000000000D+00  0.0000000000000D+00  0.0000000000000D+00
193  1.9200000000000D+00  0.0000000000000D+00  0.0000000000000D+00
194  1.9300000000000D+00  0.0000000000000D+00  0.0000000000000D+00
195  1.9400000000000D+00  0.0000000000000D+00  0.0000000000000D+00
196  1.9500000000000D+00  0.0000000000000D+00  0.0000000000000D+00
197  1.9600000000000D+00  0.0000000000000D+00  0.0000000000000D+00
198  1.9700000000000D+00  0.0000000000000D+00  0.0000000000000D+00
199  1.9800000000000D+00  0.0000000000000D+00  0.0000000000000D+00
200  1.9900000000000D+00  0.0000000000000D+00  0.0000000000000D+00
201  2.0000000000000D+00  0.0000000000000D+00  0.0000000000000D+00
202  2.0100000000000D+00  0.0000000000000D+00  0.0000000000000D+00
203  2.0200000000000D+00  0.0000000000000D+00  0.0000000000000D+00
204  2.0300000000000D+00  0.0000000000000D+00  0.0000000000000D+00
205  2.0400000000000D+00  0.0000000000000D+00  0.0000000000000D+00
206  2.0500000000000D+00  0.0000000000000D+00  0.0000000000000D+00
207  2.0600000000000D+00  0.0000000000000D+00  0.0000000000000D+00
208  2.0700000000000D+00  0.0000000000000D+00  0.0000000000000D+00
209  2.0800000000000D+00  0.0000000000000D+00  0.0000000000000D+00
210  2.0900000000000D+00  0.0000000000000D+00  0.0000000000000D+00
211  2.1000000000000D+00  0.0000000000000D+00  0.0000000000000D+00
212  2.1100000000000D+00  0.0000000000000D+00  0.0000000000000D+00
213  2.1200000000000D+00  0.0000000000000D+00  0.0000000000000D+00
214  2.1300000000000D+00  0.0000000000000D+00  0.0000000000000D+00
215  2.1400000000000D+00  0.0000000000000D+00  0.0000000000000D+00
216  2.1500000000000D+00  0.0000000000000D+00  0.0000000000000D+00
217  2.1600000000000D+00  0.0000000000000D+00  0.0000000000000D+00
218  2.1700000000000D+00  0.0000000000000D+00  0.0000000000000D+00
219  2.1800000000000D+00  0.0000000000000D+00  0.0000000000000D+00
220  2.1900000000000D+00  0.0000000000000D+00  0.0000000000000D+00
221  2.2000000000000D+00  0.0000000000000D+00  0.0000000000000D+00
222  2.2100000000000D+00  0.0000000000000D+00  0.0000000000000D+00
223  2.2200000000000D+00  0.0000000000000D+00  0.0000000000000D+00
224  2.2300000000000D+00  0.0000000000000D+00  0.0000000000000D+00
225  2.2400000000000D+00  0.0000000000000D+00  0.0000000000000D+00
226  2.2500000000000D+00  0.0000000000000D+00  0.0000000000000D+00
227  2.2600000000000D+00  0.0000000000000D+00  0.0000000000000D+00
228  2.2700000000000D+00  0.0000000000000D+00  0.0000000000000D+00
229  2.2800000000000D+00  0.0000000000000D+00  0.0000000000000D+00
230  2.2900000000000D+00  0.0000000000000D+00  0.0000000000000D+00
231  2.3000000000000D+00  0.0000000000000D+00  0.0000000000000D+00
232  2.3100000000000D+00  0.0000000000000D+00  0.0000000000000D+00
233  2.3200000000000D+00  0.0000000000000D+00  0.0000000000000D+00
234  2.3300000000000D+00  0.0000000000000D+00  0.0000000000000D+00
235  2.3400000000000D+00  0.0000000000000D+00  0.0000000000000D+00
236  2.3500000000000D+00  0.0000000000000D+00  0.0000000000000D+00
237  2.3600000000000D+00  0.0000000000000D+00  0.0000000000000D+00
238  2.3700000000000D+00  0.0000000000000D+00  0.0000000000000D+00
239  2.3800000000000D+00  0.0000000000000D+00  0.0000000000000D+00
240  2.3900000000000D+00  0.0000000000000D+00  0.0000000000000D+00
241  2.4000000000000D+00  0.0000000000000D+00  0.0000000000000D+00
242  2.4100000000000D+00  0.0000000000000D+00  0.0000000000000D+00
243  2.4200000000000D+00  0.0000000000000D+00  0.0000000000000D+00
244  2.4300000000000D+00  0.0000000000000D+00  0.0000000000000D+00
245  2.4400000000000D+00  0.0000000000000D+00  0.0000000000000D+00
246  2.4500000000000D+00  0.0000000000000D+00  0.0000000000000D+00
247  2.4600000000000D+00  0.0000000000000D+00  0.0000000000000D+00
248  2.4700000000000D+00  0.0000000000000D+00  0.0000000000000D+00
249  2.4800000000000D+00  0.0000000000000D+00  0.0000000000000D+00
250  2.4900000000000D+00  0.0000000000000D+00  0.0000000000000D+00
251  2.5000000000000D+00  0.0000000000000D+00  0.0000000000000D+00
252  2.5100000000000D+00  0.0000000000000D+00  0.0000000000000D+00
253  2.5200000000000D+00  0.0000000000000D+00  0.0000000000000D+00
254  2.5300000000000D+00  0.0000000000000D+00  0.0000000000000D+00
255  2.5400000000000D+00  0.0000000000000D+00  0.0000000000000D+00
256  2.5500000000000D+00  0.0000000000000D+00  0.0000000000000D+00
257  2.5600000000000D+00  0.0000000000000D+00  0.0000000000000D+00
258  2.5700000000000D+00  0.0000000000000D+00  0.0000000000000D+00
259  2.5800000000000D+00  0.0000000000000D+00  0.0000000000000D+00
260  2.5900000000000D+00  0.0000000000000D+00  0.0000000000000D+00
261  2.6000000000000D+00  0.0000000000000D+00  0.0000000000000D+00
262  2.6100000000000D+00  0.0000000000000D+00  0.0000000000000D+00
263  2.6200000000000D+00  0.0000000000000D+00  0.0000000000000D+00
264  2.6300000000000D+00  0.0000000000000D+00  0.0000000000000D+00
265  2.6400000000000D+00  0.0000000000000D+00  0.0000000000000D+00
266  2.6500000000000D+00  0.0000000000000D+00  0.0000000000000D+00
267  2.6600000000000D+00  0.0000000000000D+00  0.0000000000000D+00
268  2.6700000000000D+00  0.0000000000000D+00  0.0000000000000D+00
269  2.6800000000000D+00  0.0000000000000D+00  0.0000000000000D+00
270  2.6900000000000D+00  0.0000000000000D+00  0.0000000000000D+00
271  2.7000000000000D+00  0.0000000000000D+00  0.0000000000000D+00
272  2.7100000000000D+00  0.0000000000000D+00  0.0000000000000D+00
273  2.7200000000000D+00  0.0000000000000D+00  0.0000000000000D+00
274  2.7300000000000D+00  0.0000000000000D+00  0.0000000000000D+00
275  2.7400000000000D+00  0.0000000000000D+00  0.0000000000000D+00
276  2.7500000000000D+00  0.0000000000000D+00  0.0000000000000D+00
277  2.7600000000000D+00  0.0000000000000D+00  0.0000000000000D+00
278  2.7700000000000D+00  0.0000000000000D+00  0.0000000000000D+00
279  2.7800000000000D+00  0.0000000000000D+00  0.0000000000000D+00
280  2.7900000000000D+00  0.0000000000000D+00  0.0000000000000D+00
281  2.8000000000000D+00  0.0000000000000D+00  0.0000000000000D+00
282  2.8100000000000D+00  0.0000000000000D+00  0.0000000000000D+00
283  2.8200000000000D+00  0.0000000000000D+00  0.0000000000000D+00
284  2.8300000000000D+00  0.0000000000000D+00  0.0000000000000D+00
285  2.8400000000000D+00  0.0000000000000D+00  0.0000000000000D+00
286  2.8500000000000D+00  0.0000000000000D+00  0.0000000000000D+00
287  2.8600000000000D+00  0.0000000000000D+00  0.0000000000000D+00
288  2.8700000000000D+00  0.0000000000000D+00  0.0000000000000D+00
289  2.8800000000000D+00  0.0000000000000D+00  0.0000000000000D+00
290  2.8900000000000D+00  0.0000000000000D+00  0.0000000000000D+00
291  2.9000000000000D+00  0.0000000000000D+00  0.0000000000000D+00
292  2.9100000000000D+00  0.0000000000000D+00  0.0000000000000D+00
293  2.9200000000000D+00  0.0000000000000D+00  0.0000000000000D+00
294  2.9300000000000D+00  0.0000000000000D+00  0.0000000000000D+00
295  2.9400000000000D+00  0.0000000000000D+00  0.0000000000000D+00
296  2.9500000000000D+00  0.0000000000000D+00  0.0000000000000D+00
297  2.9600000000000D+00  0.0000000000000D+00  0.0000000000000D+00
298  2.9700000000000D+00  0.0000000000000D+00  0.0000000000000D+00
299  2.9800000000000D+00  0.0000000000000D+00  0.0000000000000D+00
300  2.9900000000000D+00  0.0000000000000D+00  0.0000000000000D+00
301  3.0000000000000D+00  0.0000000000000D+00  0.0000000000000D+00
302  3.0100000000000D+00  0.0000000000000D+00  0.0000000000000D+00
303  3.0200000000000D+00  0.0000000000000D+00  0.0000000000000D+00
304  3.0300000000000D+00  0.0000000000000D+00  0.0000000000000D+00
305  3.0400000000000D+00  0.0000000000000D+00  0.0000000000000D+00
306  3.0500000000000D+00  0.0000000000000D+00  0.0000000000000D+00
307  3.0600000000000D+00  0.0000000000000D+00  0.0000000000000D+00
308  3.0700000000000D+00  0.0000000000000D+00  0.0000000000000D+00
309  3.0800000000000D+00  0.0000000000000D+00  0.0000000000000D+00
310  3.0900000000000D+00  0.0000000000000D+00  0.0000000000000D+00
311  3.1000000000000D+00  0.0000000000000D+00  0.0000000000000D+00
312  3.1100000000000D+00  0.0000000000000D+00  0.0000000000000D+00
313  3.1200000000000D+00  0.0000000000000D+00  0.0000000000000D+00
314  3.1300000000000D+00  0.0000000000000D+00  0.0000000000000D+00
315  3.1400000000000D+00  0.0000000000000D+00  0.0000000000000D+00
316  3.1500000000000D+00  0.0000000000000D+00  0.0000000000000D+00
317  3.1600000000000D+00  0.0000000000000D+00  0.0000000000000D+00
318  3.1700000000000D+00  0.0000000000000D+00  0.0000000000000D+00
319  3.1800000000000D+00  0.0000000000000D+00  0.0000000000000D+00
320  3.1900000000000D+00  0.0000000000000D+00  0.0000000000000D+00
321  3.2000000000000D+00  0.0000000000000D+00  0.0000000000000D+00
322  3.2100000000000D+00  0.0000000000000D+00  0.0000000000000D+00
323  3.2200000000000D+00  0.0000000000000D+00  0.0000000000000D+00
324  3.2300000000000D+00  0.0000000000000D+00  0.0000000000000D+00
325  3.2400000000000D+00  0.0000000000000D+00  0.0000000000000D+00
326  3.2500000000000D+00  0.0000000000000D+00  0.0000000000000D+00
327  3.2600000000000D+00  0.0000000000000D+00  0.0000000000000D+00
328  3.2700000000000D+00  0.0000000000000D+00  0.0000000000000D+00
329  3.2800000000000D+00  0.0000000000000D+00  0.0000000000000D+00
330  3.2900000000000D+00  0.0000000000000D+00  0.0000000000000D+00
331  3.3000000000000D+00  0.0000000000000D+00  0.0000000000000D+00
332  3.3100000000000D+00  0.0000000000000D+00  0.0000000000000D+00
333  3.3200000000000D+00  0.0000000000000D+00  0.0000000000000D+00
334  3.3300000000000D+00  0.0000000000000D+00  0.0000000000000D+00
335  3.3400000000000D+00  0.0000000000000D+00  0.0000000000000D+00
336  3.3500000000000D+00  0.0000000000000D+00  0.0000000000000D+00
337  3.3600000000000D+00  0.0000000000000D+00  0.0000000000000D+00
338  3.3700000000000D+00  0.0000000000000D+00  0.0000000000000D+00
339  3.3800000000000D+00  0.0000000000000D+00  0.0000000000000D+00
340  3.3900000000000D+00  0.0000000000000D+00  0.0000000000000D+00
341  3.4000000000000D+00  0.0000000000000D+00  0.0000000000000D+00
342  3.4100000000000D+00  0.0000000000000D+00  0.0000000000000D+00
343  3.4200000000000D+00  0.0000000000000D+00  0.0000000000000D+00
344  3.4300000000000D+00  0.0000000000000D+00  0.0000000000000D+00
345  3.4400000000000D+00  0.0000000000000D+00  0.0000000000000D+00
346  3.4500000000000D+00  0.0000000000000D+00  0.0000000000000D+00
347  3.4600000000000D+00  0.0000000000000D+00  0.0000000000000D+00
348  3.4700000000000D+00  0.0000000000000D+00  0.0000000000000D+00
349  3.4800000000000D+00  0.0000000000000D+00  0.0000000000000D+00
350  3.4900000000000D+00  0.0000000000000D+00  0.0000000000000D+00
351  3.5000000000000D+00  0.0000000000000D+00  0.0000000000000D+00
352  3.5100000000000D+00  0.0000000000000D+00  0.0000000000000D+00
353  3.5200000000000D+00  0.0000000000000D+00  0.0000000000000D+00
354  3.5300000000000D+00  0.0000000000000D+00  0.0000000000000D+00
355  3.5400000000000D+00  0.0000000000000D+00  0.0000000000000D+00
356  3.5500000000000D+00  0.0000000000000D+00  0.0000000000000D+00
357  3.5600000000000D+00  0.0000000000000D+00  0.0000000000000D+00
358  3.5700000000000D+00  0.0000000000000D+00  0.0000000000000D+00
359  3.5800000000000D+00  0.0000000000000D+00  0.0000000000000D+00
360  3.5900000000000D+00  0.0000000000000D+00  0.0000000000000D+00
361  3.6000000000000D+00  0.0000000000000D+00  0.0000000000000D+00
362  3.6100000000000D+00  0.0000000000000D+00  0.0000000000000D+00
363  3.6200000000000D+00  0.0000000000000D+00  0.0000000000000D+00
364  3.6300000000000D+00  0.0000000000000D+00  0.0000000000000D+00
365  3.6400000000000D+00  0.0000000000000D+00  0.0000000000000D+00
366  3.6500000000000D+00  0.0000000000000D+00  0.0000000000000D+00
367  3.6600000000000D+00  0.0000000000000D+00  0.0000000000000D+00
368  3.6700000000000D+00  0.0000000000000D+00  0.0000000000000D+00
369  3.6800000000000D+00  0.0000000000000D+00  0.0000000000000D+00
370  3.6900000000000D+00  0.0000000000000D+00  0.0000000000000D+00
371  3.7000000000000D+00  0.0000000000000D+00  0.0000000000000D+00
372  3.7100000000000D+00  0.0000000000000D+00  0.0000000000000D+00
373  3.7200000000000D+00  0.0000000000000D+00  0.0000000000000D+00
374  3.7300000000000D+00  0.0000000000000D+00  0.0000000000000D+00
375  3.7400000000000D+00  0.0000000000000D+00  0.0000000000000D+00
376  3.7500000000000D+00  0.0000000000000D+00  0.0000000000000D+00
377  3.7600000000000D+00  0.0000000000000D+00  0.0000000000000D+00
378  3.7700000000000D+00  0.0000000000000D+00  0.0000000000000D+00
379  3.7800000000000D+00  0.0000000000000D+00  0.0000000000000D+00
380  3.7900000000000D+00  0.0000000000000D+00  0.0000000000000D+00
381  3.8000000000000D+00  0.0000000000000D+00  0.0000000000000D+00
382  3.8100000000000D+00  0.0000000000000D+00  0.0000000000000D+00
383  3.8200000000000D+00  0.0000000000000D+00  0.0000000000000D+00
384  3.8300000000000D+00  0.0000000000000D+00  0.0000000000000D+00
385  3.8400000000000D+00  0.0000000000000D+00  0.0000000000000D+00
386  3.8500000000000D+00  0.0000000000000D+00  0.0000000000000D+00
387  3.8600000000000D+00  0.0000000000000D+00  0.0000000000000D+00
388  3.8700000000000D+00  0.0000000000000D+00  0.0000000000000D+00
389  3.8800000000000D+00  0.0000000000000D+00  0.0000000000000D+00
390  3.8900000000000D+00  0.0000000000000D+00  0.0000000000000D+00
391  3.9000000000000D+00  0.0000000000000D+00  0.0000000000000D+00
392  3.9100000000000D+00  0.0000000000000D+00  0.0000000000000D+00
393  3.9200000000000D+00  0.0000000000000D+00  0.0000000000000D+00
394  3.9300000000000D+00  0.0000000000000D+00  0.0000000000000D+00
395  3.9400000000000D+00  0.0000000000000D+00  0.0000000000000D+00
396  3.9500000000000D+00  0.0000000000000D+00  0.0000000000000D+00
397  3.9600000000000D+00  0.0000000000000D+00  0.0000000000000D+00
398  3.9700000000000D+00  0.0000000000000D+00  0.0000000000000D+00
399  3.9800000000000D+00  0.0000000000000D+00  0.0000000000000D+00
400  3.9900000000000D+00  0.0000000000000D+00  0.0000000000000D+00
401  4.0000000000000D+00  0.0000000000000D+00  0.0000000000000D+00
402  4.0100000000000D+00  0.0000000000000D+00  0.0000000000000D+00
403  4.0200000000000D+00  0.0000000000000D+00  0.0000000000000D+00
404  4.0300000000000D+00  0.0000000000000D+00  0.0000000000000D+00
405  4.0400000000000D+00  0.0000000000000D+00  0.0000000000000D+00
406  4.0500000000000D+00  0.0000000000000D+00  0.0000000000000D+00
407  4.0600000000000D+00  0.0000000000000D+00  0.0000000000000D+00
408  4.0700000000000D+00  0.0000000000000D+00  0.0000000000000D+00
409  4.0800000000000D+00  0.0000000000000D+00  0.0000000000000D+00
410  4.0900000000000D+00  0.0000000000000D+00  0.0000000000000D+00
411  4.1000000000000D+00  0.0000000000000D+00  0.0000000000000D+00
412  4.1100000000000D+00  0.0000000000000D+00  0.0000000000000D+00
413  4.1200000000000D+00  0.0000000000000D+00  0.0000000000000D+00
414  4.1300000000000D+00  0.0000000000000D+00  0.0000000000000D+00
415  4.1400000000000D+00  0.0000000000000D+00  0.0000000000000D+00
416  4.1500000000000D+00  0.0000000000000D+00  0.0000000000000D+00
417  4.1600000000000D+00  0.0000000000000D+00  0.0000000000000D+00
418  4.1700000000000D+00  0.0000000000000D+00  0.0000000000000D+00
419  4.1800000000000D+00  0.0000000000000D+00  0.0000000000000D+00
420  4.1900000000000D+00  0.0000000000000D+00  0.0000000000000D+00
421  4.2000000000000D+00  0.0000000000000D+00  0.0000000000000D+00
422  4.2100000000000D+00  0.0000000000000D+00  0.0000000000000D+00
423  4.2200000000000D+00  0.0000000000000D+00  0.0000000000000D+00
424  4.2300000000000D+00  0.0000000000000D+00  0.0000000000000D+00
425  4.2400000000000D+00  0.0000000000000D+00  0.0000000000000D+00
426  4.2500000000000D+00  0.0000000000000D+00  0.0000000000000D+00
427  4.2600000000000D+00  0.0000000000000D+00  0.0000000000000D+00
428  4.2700000000000D+00  0.0000000000000D+00  0.0000000000000D+00
429  4.2800000000000D+00  0.0000000000000D+00  0.0000000000000D+00
430  4.2900000000000D+00  0.0000000000000D+00  0.0000000000000D+00
431  4.3000000000000D+00  0.0000000000000D+00  0.0000000000000D+00
432  4.3100000000000D+00  0.0000000000000D+00  0.0000000000000D+00
433  4.3200000000000D+00  0.0000000000000D+00  0.0000000000000D+00
434  4.3300000000000D+00  0.0000000000000D+00  0.0000000000000D+00
435  4.3400000000000D+00  0.0000000000000D+00  0.0000000000000D+00
436  4.3500000000000D+00  0.0000000000000D+00  0.0000000000000D+00
437  4.3600000000000D+00  0.0000000000000D+00  0.0000000000000D+00
438  4.3700000000000D+00  0.0000000000000D+00  0.0000000000000D+00
439  4.3800000000000D+00  0.0000000000000D+00  0.0000000000000D+00
440  4.3900000000000D+00  0.0000000000000D+00  0.0000000000000D+00
441  4.4000000000000D+00  0.0000000000000D+00  0.0000000000000D+00
442  4.4100000000000D+00  0.0000000000000D+00  0.0000000000000D+00
443  4.4200000000000D+00  0.0000000000000D+00  0.0000000000000D+00