Na    ONCVPSP  r_core=  1.25  1.61
11.0000      9.0000      140908    zatom,zion,pspd
8    11     1     4   401     0    pspcod,pspxc,lmax,lloc,mmax,r2well
4.00000000  0.03000000  0.00000000    rchrg fchrg qchrg
2     2     0     0     0    nproj
0                 extension_switch
0                         1.8307037644768D+00 -6.6583640103161D-01
1  0.0000000000000D+00  0.0000000000000D+00  0.0000000000000D+00
2  1.0000000000000D-02  1.1036030140346D-01  2.2308186139147D-02
3  2.0000000000000D-02  2.1962274713278D-01  4.4634861601334D-02
4  3.0000000000000D-02  3.2670860231203D-01  6.6998764743837D-02
5  4.0000000000000D-02  4.3057700200712D-01  8.9419121163167D-02
6  5.0000000000000D-02  5.3024296429234D-01  1.1191586048968D-01
7  6.0000000000000D-02  6.2479431710365D-01  1.3450980168145D-01
8  7.0000000000000D-02  7.1340720996441D-01  1.5722279745220D-01
9  8.0000000000000D-02  7.9535990900764D-01  1.8007782940892D-01
10  9.0000000000000D-02  8.7004460743647D-01  2.0309904661947D-01
11  1.0000000000000D-01  9.3697702185471D-01  2.2631174164613D-01
12  1.1000000000000D-01  9.9580358829806D-01  2.4974225955232D-01
13  1.2000000000000D-01  1.0463061186409D+00  2.7341783697516D-01
14  1.3000000000000D-01  1.0884038274466D+00  2.9736637002010D-01
15  1.4000000000000D-01  1.1221526902970D+00  3.2161611151953D-01
16  1.5000000000000D-01  1.1477421482162D+00  3.4619529978787D-01
17  1.6000000000000D-01  1.1654892233370D+00  3.7113172305073D-01
18  1.7000000000000D-01  1.1758301611267D+00  3.9645222484657D-01
19  1.8000000000000D-01  1.1793097676466D+00  4.2218215809592D-01
20  1.9000000000000D-01  1.1765686445158D+00  4.4834479587541D-01
21  2.0000000000000D-01  1.1683285967478D+00  4.7496071021353D-01
22  2.1000000000000D-01  1.1553764479643D+00  5.0204712723687D-01
23  2.2000000000000D-01  1.1385466615978D+00  5.2961727469355D-01
24  2.3000000000000D-01  1.1187030400322D+00  5.5767973093614D-01
25  2.4000000000000D-01  1.0967199393163D+00  5.8623779179914D-01
26  2.5000000000000D-01  1.0734632067140D+00  6.1528886234602D-01
27  2.6000000000000D-01  1.0497715826032D+00  6.4482390024061D-01
28  2.7000000000000D-01  1.0264383780104D+00  6.7482690312943D-01
29  2.8000000000000D-01  1.0041944114727D+00  7.0527447455494D-01
30  2.9000000000000D-01  9.8369208939806D-01  7.3613546345365D-01
31  3.0000000000000D-01  9.6549115513145D-01  7.6737069488125D-01
32  3.1000000000000D-01  9.5004636552109D-01  7.9893279980358D-01
33  3.2000000000000D-01  9.3769743675983D-01  8.3076615306827D-01
34  3.3000000000000D-01  9.2866105657011D-01  8.6280691650596D-01
35  3.4000000000000D-01  9.2302593174018D-01  8.9498320899195D-01
36  3.5000000000000D-01  9.2075014435613D-01  9.2721538581891D-01
37  3.6000000000000D-01  9.2166137718981D-01  9.5941643985169D-01
38  3.7000000000000D-01  9.2545982298782D-01  9.9149251880568D-01
39  3.8000000000000D-01  9.3172398945666D-01  1.0233435516630D+00
40  3.9000000000000D-01  9.3991883160467D-01  1.0548639837901D+00
41  4.0000000000000D-01  9.4940655016197D-01  1.0859436112098D+00
42  4.1000000000000D-01  9.5945962680391D-01  1.1164684960487D+00
43  4.2000000000000D-01  9.6927583471068D-01  1.1463219628304D+00
44  4.3000000000000D-01  9.7799502209818D-01  1.1753856567198D+00
45  4.4000000000000D-01  9.8471732372049D-01  1.2035406502825D+00
46  4.5000000000000D-01  9.8852245067837D-01  1.2306685832769D+00
47  4.6000000000000D-01  9.8848968283408D-01  1.2566528189964D+00
48  4.7000000000000D-01  9.8371803586223D-01  1.2813795906436D+00
49  4.8000000000000D-01  9.7334648803424D-01  1.3047391424857D+00
50  4.9000000000000D-01  9.5657433343414D-01  1.3266268757628D+00
51  5.0000000000000D-01  9.3267943474743D-01  1.3469443589785D+00
52  5.1000000000000D-01  9.0103521518921D-01  1.3656002776038D+00
53  5.2000000000000D-01  8.6112836097529D-01  1.3825114519118D+00
54  5.3000000000000D-01  8.1257235914657D-01  1.3976036112179D+00
55  5.4000000000000D-01  7.5511684109552D-01  1.4108119389415D+00
56  5.5000000000000D-01  6.8866260083337D-01  1.4220820223077D+00
57  5.6000000000000D-01  6.1326161402569D-01  1.4313698841392D+00
58  5.7000000000000D-01  5.2912710818318D-01  1.4386427140672D+00
59  5.8000000000000D-01  4.3662899932871D-01  1.4438787011981D+00
60  5.9000000000000D-01  3.3629740930196D-01  1.4470674632029D+00
61  6.0000000000000D-01  2.2881163973285D-01  1.4482095427674D+00
62  6.1000000000000D-01  1.1499850849073D-01  1.4473166448161D+00
63  6.2000000000000D-01 -4.1833475005781D-03  1.4444109093533D+00
64  6.3000000000000D-01 -1.2765438285147D-01  1.4395246172162D+00
65  6.4000000000000D-01 -2.5422998245682D-01  1.4326996226455D+00
66  6.5000000000000D-01 -3.8263895323365D-01  1.4239865458915D+00
67  6.6000000000000D-01 -5.1154240663268D-01  1.4134440721672D+00
68  6.7000000000000D-01 -6.3955591104962D-01  1.4011380722079D+00
69  6.8000000000000D-01 -7.6527078197697D-01  1.3871406461973D+00
70  6.9000000000000D-01 -8.8727603290164D-01  1.3715291984635D+00
71  7.0000000000000D-01 -1.0041831869506D+00  1.3543853980022D+00
72  7.1000000000000D-01 -1.1146496729183D+00  1.3357941326443D+00
73  7.2000000000000D-01 -1.2173992688219D+00  1.3158425508062D+00
74  7.3000000000000D-01 -1.3112441379938D+00  1.2946190561457D+00
75  7.4000000000000D-01 -1.3951048237559D+00  1.2722123539578D+00
76  7.5000000000000D-01 -1.4680266349383D+00  1.2487106229396D+00
77  7.6000000000000D-01 -1.5292012044764D+00  1.2242004740906D+00
78  7.7000000000000D-01 -1.5779755625363D+00  1.1987663708674D+00
79  7.8000000000000D-01 -1.6138639405512D+00  1.1724899441358D+00
80  7.9000000000000D-01 -1.6365563134633D+00  1.1454494204871D+00
81  8.0000000000000D-01 -1.6459235951382D+00  1.1177191717908D+00
82  8.1000000000000D-01 -1.6420197123657D+00  1.0893693790672D+00
83  8.2000000000000D-01 -1.6250805158172D+00  1.0604658138857D+00
84  8.3000000000000D-01 -1.5955195459770D+00  1.0310697381991D+00
85  8.4000000000000D-01 -1.5539207310384D+00  1.0012379212476D+00
86  8.5000000000000D-01 -1.5010281510265D+00  9.7102276994692D-01
87  8.6000000000000D-01 -1.4377330570471D+00  9.4047256704091D-01
88  8.7000000000000D-01 -1.3650583857577D+00  9.0963180930012D-01
89  8.8000000000000D-01 -1.2841410561591D+00  8.7854163618835D-01
90  8.9000000000000D-01 -1.1962123779369D+00  8.4724033774702D-01
91  9.0000000000000D-01 -1.1025769371102D+00  8.1576392897447D-01
92  9.1000000000000D-01 -1.0045903549395D+00  7.8414677673813D-01
93  9.2000000000000D-01 -9.0363633901273D-01  7.5242226428223D-01
94  9.3000000000000D-01 -8.0110346020813D-01  7.2062347771747D-01
95  9.4000000000000D-01 -6.9836209471611D-01  6.8878389854303D-01
96  9.5000000000000D-01 -5.9674470359727D-01  6.5693804485081D-01
97  9.6000000000000D-01 -4.9751860337300D-01  6.2512219885858D-01
98  9.7000000000000D-01 -4.0186745765892D-01  5.9337503753570D-01
99  9.8000000000000D-01 -3.1087493685891D-01  5.6173815975778D-01
100  9.9000000000000D-01 -2.2550743865960D-01  5.3025659822960D-01
101  1.0000000000000D+00 -1.4660029765597D-01  4.9897923984893D-01
102  1.0100000000000D+00 -7.4846659839011D-02  4.6795915812834D-01
103  1.0200000000000D+00 -1.0795921594549D-02  4.3725371232538D-01
104  1.0300000000000D+00  4.5169837614696D-02  4.0692507112997D-01
105  1.0400000000000D+00  9.2828869797755D-02  3.7704005042825D-01
106  1.0500000000000D+00  1.3211424313635D-01  3.4766993592835D-01
107  1.0600000000000D+00  1.6311324658724D-01  3.1889036974104D-01
108  1.0700000000000D+00  1.8605624175220D-01  2.9078101252735D-01
109  1.0800000000000D+00  2.0132059983663D-01  2.6342542607212D-01
110  1.0900000000000D+00  2.0941581156556D-01  2.3691046134619D-01
111  1.1000000000000D+00  2.1095776483517D-01  2.1132554096239D-01
112  1.1100000000000D+00  2.0665811393360D-01  1.8676216656514D-01
113  1.1200000000000D+00  1.9730988277919D-01  1.6331349084060D-01
114  1.1300000000000D+00  1.8377124394854D-01  1.4107302806841D-01
115  1.1400000000000D+00  1.6693342712032D-01  1.2013415204492D-01
116  1.1500000000000D+00  1.4770909892066D-01  1.0058949163382D-01
117  1.1600000000000D+00  1.2701891829480D-01  8.2530408844310D-02
118  1.1700000000000D+00  1.0574643924398D-01  6.6044698069810D-02
119  1.1800000000000D+00  8.4737558462113D-02  5.1217246958839D-02
120  1.1900000000000D+00  6.4796929517836D-02  3.8129884175033D-02
121  1.2000000000000D+00  4.6634998537905D-02  2.6858682936118D-02
122  1.2100000000000D+00  3.0863351221237D-02  1.7474048776623D-02
123  1.2200000000000D+00  1.8009289783988D-02  1.0040996959532D-02
124  1.2300000000000D+00  8.4835407375082D-03  4.6169572998951D-03
125  1.2400000000000D+00  2.6865519847334D-03  1.3366651090875D-03
126  1.2500000000000D+00  3.5208192313277D-04  1.8021255803688D-05
127  1.2600000000000D+00 -1.4559833335912D-04 -1.5357283101548D-04
128  1.2700000000000D+00 -1.3853739282212D-05  2.4413330240583D-06
129  1.2800000000000D+00 -3.4598101444901D-06  6.0969450851157D-07
130  1.2900000000000D+00  0.0000000000000D+00  0.0000000000000D+00
131  1.3000000000000D+00  0.0000000000000D+00  0.0000000000000D+00
132  1.3100000000000D+00  0.0000000000000D+00  0.0000000000000D+00
133  1.3200000000000D+00  0.0000000000000D+00  0.0000000000000D+00
134  1.3300000000000D+00  0.0000000000000D+00  0.0000000000000D+00
135  1.3400000000000D+00  0.0000000000000D+00  0.0000000000000D+00
136  1.3500000000000D+00  0.0000000000000D+00  0.0000000000000D+00
137  1.3600000000000D+00  0.0000000000000D+00  0.0000000000000D+00
138  1.3700000000000D+00  0.0000000000000D+00  0.0000000000000D+00
139  1.3800000000000D+00  0.0000000000000D+00  0.0000000000000D+00
140  1.3900000000000D+00  0.0000000000000D+00  0.0000000000000D+00
141  1.4000000000000D+00  0.0000000000000D+00  0.0000000000000D+00
142  1.4100000000000D+00  0.0000000000000D+00  0.0000000000000D+00
143  1.4200000000000D+00  0.0000000000000D+00  0.0000000000000D+00
144  1.4300000000000D+00  0.0000000000000D+00  0.0000000000000D+00
145  1.4400000000000D+00  0.0000000000000D+00  0.0000000000000D+00
146  1.4500000000000D+00  0.0000000000000D+00  0.0000000000000D+00
147  1.4600000000000D+00  0.0000000000000D+00  0.0000000000000D+00
148  1.4700000000000D+00  0.0000000000000D+00  0.0000000000000D+00
149  1.4800000000000D+00  0.0000000000000D+00  0.0000000000000D+00
150  1.4900000000000D+00  0.0000000000000D+00  0.0000000000000D+00
151  1.5000000000000D+00  0.0000000000000D+00  0.0000000000000D+00
152  1.5100000000000D+00  0.0000000000000D+00  0.0000000000000D+00
153  1.5200000000000D+00  0.0000000000000D+00  0.0000000000000D+00
154  1.5300000000000D+00  0.0000000000000D+00  0.0000000000000D+00
155  1.5400000000000D+00  0.0000000000000D+00  0.0000000000000D+00
156  1.5500000000000D+00  0.0000000000000D+00  0.0000000000000D+00
157  1.5600000000000D+00  0.0000000000000D+00  0.0000000000000D+00
158  1.5700000000000D+00  0.0000000000000D+00  0.0000000000000D+00
159  1.5800000000000D+00  0.0000000000000D+00  0.0000000000000D+00
160  1.5900000000000D+00  0.0000000000000D+00  0.0000000000000D+00
161  1.6000000000000D+00  0.0000000000000D+00  0.0000000000000D+00
162  1.6100000000000D+00  0.0000000000000D+00  0.0000000000000D+00
163  1.6200000000000D+00  0.0000000000000D+00  0.0000000000000D+00
164  1.6300000000000D+00  0.0000000000000D+00  0.0000000000000D+00
165  1.6400000000000D+00  0.0000000000000D+00  0.0000000000000D+00
166  1.6500000000000D+00  0.0000000000000D+00  0.0000000000000D+00
167  1.6600000000000D+00  0.0000000000000D+00  0.0000000000000D+00
168  1.6700000000000D+00  0.0000000000000D+00  0.0000000000000D+00
169  1.6800000000000D+00  0.0000000000000D+00  0.0000000000000D+00
170  1.6900000000000D+00  0.0000000000000D+00  0.0000000000000D+00
171  1.7000000000000D+00  0.0000000000000D+00  0.0000000000000D+00
172  1.7100000000000D+00  0.0000000000000D+00  0.0000000000000D+00
173  1.7200000000000D+00  0.0000000000000D+00  0.0000000000000D+00
174  1.7300000000000D+00  0.0000000000000D+00  0.0000000000000D+00
175  1.7400000000000D+00  0.0000000000000D+00  0.0000000000000D+00
176  1.7500000000000D+00  0.0000000000000D+00  0.0000000000000D+00
177  1.7600000000000D+00  0.0000000000000D+00  0.0000000000000D+00
178  1.7700000000000D+00  0.0000000000000D+00  0.0000000000000D+00
179  1.7800000000000D+00  0.0000000000000D+00  0.0000000000000D+00
180  1.7900000000000D+00  0.0000000000000D+00  0.0000000000000D+00
181  1.8000000000000D+00  0.0000000000000D+00  0.0000000000000D+00
182  1.8100000000000D+00  0.0000000000000D+00  0.0000000000000D+00
183  1.8200000000000D+00  0.0000000000000D+00  0.0000000000000D+00
184  1.8300000000000D+00  0.0000000000000D+00  0.0000000000000D+00
185  1.8400000000000D+00  0.0000000000000D+00  0.0000000000000D+00
186  1.8500000000000D+00  0.0000000000000D+00  0.0000000000000D+00
187  1.8600000000000D+00  0.0000000000000D+00  0.0000000000000D+00
188  1.8700000000000D+00  0.0000000000000D+00  0.0000000000000D+00
189  1.8800000000000D+00  0.0000000000000D+00  0.0000000000000D+00
190  1.8900000000000D+00  0.0000000000000D+00  0.0000000000000D+00
191  1.9000000000000D+00  0.0000000000000D+00  0.0000000000000D+00
192  1.9100000000000D+00  0.0000000000000D+00  0.0000000000000D+00
193  1.9200000000000D+00  0.0000000000000D+00  0.0000000000000D+00
194  1.9300000000000D+00  0.0000000000000D+00  0.0000000000000D+00
195  1.9400000000000D+00  0.0000000000000D+00  0.0000000000000D+00
196  1.9500000000000D+00  0.0000000000000D+00  0.0000000000000D+00
197  1.9600000000000D+00  0.0000000000000D+00  0.0000000000000D+00
198  1.9700000000000D+00  0.0000000000000D+00  0.0000000000000D+00
199  1.9800000000000D+00  0.0000000000000D+00  0.0000000000000D+00
200  1.9900000000000D+00  0.0000000000000D+00  0.0000000000000D+00
201  2.0000000000000D+00  0.0000000000000D+00  0.0000000000000D+00
202  2.0100000000000D+00  0.0000000000000D+00  0.0000000000000D+00
203  2.0200000000000D+00  0.0000000000000D+00  0.0000000000000D+00
204  2.0300000000000D+00  0.0000000000000D+00  0.0000000000000D+00
205  2.0400000000000D+00  0.0000000000000D+00  0.0000000000000D+00
206  2.0500000000000D+00  0.0000000000000D+00  0.0000000000000D+00
207  2.0600000000000D+00  0.0000000000000D+00  0.0000000000000D+00
208  2.0700000000000D+00  0.0000000000000D+00  0.0000000000000D+00
209  2.0800000000000D+00  0.0000000000000D+00  0.0000000000000D+00
210  2.0900000000000D+00  0.0000000000000D+00  0.0000000000000D+00
211  2.1000000000000D+00  0.0000000000000D+00  0.0000000000000D+00
212  2.1100000000000D+00  0.0000000000000D+00  0.0000000000000D+00
213  2.1200000000000D+00  0.0000000000000D+00  0.0000000000000D+00
214  2.1300000000000D+00  0.0000000000000D+00  0.0000000000000D+00
215  2.1400000000000D+00  0.0000000000000D+00  0.0000000000000D+00
216  2.1500000000000D+00  0.0000000000000D+00  0.0000000000000D+00
217  2.1600000000000D+00  0.0000000000000D+00  0.0000000000000D+00
218  2.1700000000000D+00  0.0000000000000D+00  0.0000000000000D+00
219  2.1800000000000D+00  0.0000000000000D+00  0.0000000000000D+00
220  2.1900000000000D+00  0.0000000000000D+00  0.0000000000000D+00
221  2.2000000000000D+00  0.0000000000000D+00  0.0000000000000D+00
222  2.2100000000000D+00  0.0000000000000D+00  0.0000000000000D+00
223  2.2200000000000D+00  0.0000000000000D+00  0.0000000000000D+00
224  2.2300000000000D+00  0.0000000000000D+00  0.0000000000000D+00
225  2.2400000000000D+00  0.0000000000000D+00  0.0000000000000D+00
226  2.2500000000000D+00  0.0000000000000D+00  0.0000000000000D+00
227  2.2600000000000D+00  0.0000000000000D+00  0.0000000000000D+00
228  2.2700000000000D+00  0.0000000000000D+00  0.0000000000000D+00
229  2.2800000000000D+00  0.0000000000000D+00  0.0000000000000D+00
230  2.2900000000000D+00  0.0000000000000D+00  0.0000000000000D+00
231  2.3000000000000D+00  0.0000000000000D+00  0.0000000000000D+00
232  2.3100000000000D+00  0.0000000000000D+00  0.0000000000000D+00
233  2.3200000000000D+00  0.0000000000000D+00  0.0000000000000D+00
234  2.3300000000000D+00  0.0000000000000D+00  0.0000000000000D+00
235  2.3400000000000D+00  0.0000000000000D+00  0.0000000000000D+00
236  2.3500000000000D+00  0.0000000000000D+00  0.0000000000000D+00
237  2.3600000000000D+00  0.0000000000000D+00  0.0000000000000D+00
238  2.3700000000000D+00  0.0000000000000D+00  0.0000000000000D+00
239  2.3800000000000D+00  0.0000000000000D+00  0.0000000000000D+00
240  2.3900000000000D+00  0.0000000000000D+00  0.0000000000000D+00
241  2.4000000000000D+00  0.0000000000000D+00  0.0000000000000D+00
242  2.4100000000000D+00  0.0000000000000D+00  0.0000000000000D+00
243  2.4200000000000D+00  0.0000000000000D+00  0.0000000000000D+00
244  2.4300000000000D+00  0.0000000000000D+00  0.0000000000000D+00
245  2.4400000000000D+00  0.0000000000000D+00  0.0000000000000D+00
246  2.4500000000000D+00  0.0000000000000D+00  0.0000000000000D+00
247  2.4600000000000D+00  0.0000000000000D+00  0.0000000000000D+00
248  2.4700000000000D+00  0.0000000000000D+00  0.0000000000000D+00
249  2.4800000000000D+00  0.0000000000000D+00  0.0000000000000D+00
250  2.4900000000000D+00  0.0000000000000D+00  0.0000000000000D+00
251  2.5000000000000D+00  0.0000000000000D+00  0.0000000000000D+00
252  2.5100000000000D+00  0.0000000000000D+00  0.0000000000000D+00
253  2.5200000000000D+00  0.0000000000000D+00  0.0000000000000D+00
254  2.5300000000000D+00  0.0000000000000D+00  0.0000000000000D+00
255  2.5400000000000D+00  0.0000000000000D+00  0.0000000000000D+00
256  2.5500000000000D+00  0.0000000000000D+00  0.0000000000000D+00
257  2.5600000000000D+00  0.0000000000000D+00  0.0000000000000D+00
258  2.5700000000000D+00  0.0000000000000D+00  0.0000000000000D+00
259  2.5800000000000D+00  0.0000000000000D+00  0.0000000000000D+00
260  2.5900000000000D+00  0.0000000000000D+00  0.0000000000000D+00
261  2.6000000000000D+00  0.0000000000000D+00  0.0000000000000D+00
262  2.6100000000000D+00  0.0000000000000D+00  0.0000000000000D+00
263  2.6200000000000D+00  0.0000000000000D+00  0.0000000000000D+00
264  2.6300000000000D+00  0.0000000000000D+00  0.0000000000000D+00
265  2.6400000000000D+00  0.0000000000000D+00  0.0000000000000D+00
266  2.6500000000000D+00  0.0000000000000D+00  0.0000000000000D+00
267  2.6600000000000D+00  0.0000000000000D+00  0.0000000000000D+00
268  2.6700000000000D+00  0.0000000000000D+00  0.0000000000000D+00
269  2.6800000000000D+00  0.0000000000000D+00  0.0000000000000D+00
270  2.6900000000000D+00  0.0000000000000D+00  0.0000000000000D+00
271  2.7000000000000D+00  0.0000000000000D+00  0.0000000000000D+00
272  2.7100000000000D+00  0.0000000000000D+00  0.0000000000000D+00
273  2.7200000000000D+00  0.0000000000000D+00  0.0000000000000D+00
274  2.7300000000000D+00  0.0000000000000D+00  0.0000000000000D+00
275  2.7400000000000D+00  0.0000000000000D+00  0.0000000000000D+00
276  2.7500000000000D+00  0.0000000000000D+00  0.0000000000000D+00
277  2.7600000000000D+00  0.0000000000000D+00  0.0000000000000D+00
278  2.7700000000000D+00  0.0000000000000D+00  0.0000000000000D+00
279  2.7800000000000D+00  0.0000000000000D+00  0.0000000000000D+00
280  2.7900000000000D+00  0.0000000000000D+00  0.0000000000000D+00
281  2.8000000000000D+00  0.0000000000000D+00  0.0000000000000D+00
282  2.8100000000000D+00  0.0000000000000D+00  0.0000000000000D+00
283  2.8200000000000D+00  0.0000000000000D+00  0.0000000000000D+00
284  2.8300000000000D+00  0.0000000000000D+00  0.0000000000000D+00
285  2.8400000000000D+00  0.0000000000000D+00  0.0000000000000D+00
286  2.8500000000000D+00  0.0000000000000D+00  0.0000000000000D+00
287  2.8600000000000D+00  0.0000000000000D+00  0.0000000000000D+00
288  2.8700000000000D+00  0.0000000000000D+00  0.0000000000000D+00
289  2.8800000000000D+00  0.0000000000000D+00  0.0000000000000D+00
290  2.8900000000000D+00  0.0000000000000D+00  0.0000000000000D+00
291  2.9000000000000D+00  0.0000000000000D+00  0.0000000000000D+00
292  2.9100000000000D+00  0.0000000000000D+00  0.0000000000000D+00
293  2.9200000000000D+00  0.0000000000000D+00  0.0000000000000D+00
294  2.9300000000000D+00  0.0000000000000D+00  0.0000000000000D+00
295  2.9400000000000D+00  0.0000000000000D+00  0.0000000000000D+00
296  2.9500000000000D+00  0.0000000000000D+00  0.0000000000000D+00
297  2.9600000000000D+00  0.0000000000000D+00  0.0000000000000D+00
298  2.9700000000000D+00  0.0000000000000D+00  0.0000000000000D+00
299  2.9800000000000D+00  0.0000000000000D+00  0.0000000000000D+00
300  2.9900000000000D+00  0.0000000000000D+00  0.0000000000000D+00
301  3.0000000000000D+00  0.0000000000000D+00  0.0000000000000D+00
302  3.0100000000000D+00  0.0000000000000D+00  0.0000000000000D+00
303  3.0200000000000D+00  0.0000000000000D+00  0.0000000000000D+00
304  3.0300000000000D+00  0.0000000000000D+00  0.0000000000000D+00
305  3.0400000000000D+00  0.0000000000000D+00  0.0000000000000D+00
306  3.0500000000000D+00  0.0000000000000D+00  0.0000000000000D+00
307  3.0600000000000D+00  0.0000000000000D+00  0.0000000000000D+00
308  3.0700000000000D+00  0.0000000000000D+00  0.0000000000000D+00
309  3.0800000000000D+00  0.0000000000000D+00  0.0000000000000D+00
310  3.0900000000000D+00  0.0000000000000D+00  0.0000000000000D+00
311  3.1000000000000D+00  0.0000000000000D+00  0.0000000000000D+00
312  3.1100000000000D+00  0.0000000000000D+00  0.0000000000000D+00
313  3.1200000000000D+00  0.0000000000000D+00  0.0000000000000D+00
314  3.1300000000000D+00  0.0000000000000D+00  0.0000000000000D+00
315  3.1400000000000D+00  0.0000000000000D+00  0.0000000000000D+00
316  3.1500000000000D+00  0.0000000000000D+00  0.0000000000000D+00
317  3.1600000000000D+00  0.0000000000000D+00  0.0000000000000D+00
318  3.1700000000000D+00  0.0000000000000D+00  0.0000000000000D+00
319  3.1800000000000D+00  0.0000000000000D+00  0.0000000000000D+00
320  3.1900000000000D+00  0.0000000000000D+00  0.0000000000000D+00
321  3.2000000000000D+00  0.0000000000000D+00  0.0000000000000D+00
322  3.2100000000000D+00  0.0000000000000D+00  0.0000000000000D+00
323  3.2200000000000D+00  0.0000000000000D+00  0.0000000000000D+00
324  3.2300000000000D+00  0.0000000000000D+00  0.0000000000000D+00
325  3.2400000000000D+00  0.0000000000000D+00  0.0000000000000D+00
326  3.2500000000000D+00  0.0000000000000D+00  0.0000000000000D+00
327  3.2600000000000D+00  0.0000000000000D+00  0.0000000000000D+00
328  3.2700000000000D+00  0.0000000000000D+00  0.0000000000000D+00
329  3.2800000000000D+00  0.0000000000000D+00  0.0000000000000D+00
330  3.2900000000000D+00  0.0000000000000D+00  0.0000000000000D+00
331  3.3000000000000D+00  0.0000000000000D+00  0.0000000000000D+00
332  3.3100000000000D+00  0.0000000000000D+00  0.0000000000000D+00
333  3.3200000000000D+00  0.0000000000000D+00  0.0000000000000D+00
334  3.3300000000000D+00  0.0000000000000D+00  0.0000000000000D+00
335  3.3400000000000D+00  0.0000000000000D+00  0.0000000000000D+00
336  3.3500000000000D+00  0.0000000000000D+00  0.0000000000000D+00
337  3.3600000000000D+00  0.0000000000000D+00  0.0000000000000D+00
338  3.3700000000000D+00  0.0000000000000D+00  0.0000000000000D+00
339  3.3800000000000D+00  0.0000000000000D+00  0.0000000000000D+00
340  3.3900000000000D+00  0.0000000000000D+00  0.0000000000000D+00
341  3.4000000000000D+00  0.0000000000000D+00  0.0000000000000D+00
342  3.4100000000000D+00  0.0000000000000D+00  0.0000000000000D+00
343  3.4200000000000D+00  0.0000000000000D+00  0.0000000000000D+00
344  3.4300000000000D+00  0.0000000000000D+00  0.0000000000000D+00
345  3.4400000000000D+00  0.0000000000000D+00  0.0000000000000D+00
346  3.4500000000000D+00  0.0000000000000D+00  0.0000000000000D+00
347  3.4600000000000D+00  0.0000000000000D+00  0.0000000000000D+00
348  3.4700000000000D+00  0.0000000000000D+00  0.0000000000000D+00
349  3.4800000000000D+00  0.0000000000000D+00  0.0000000000000D+00
350  3.4900000000000D+00  0.0000000000000D+00  0.0000000000000D+00
351  3.5000000000000D+00  0.0000000000000D+00  0.0000000000000D+00
352  3.5100000000000D+00  0.0000000000000D+00  0.0000000000000D+00
353  3.5200000000000D+00  0.0000000000000D+00  0.0000000000000D+00
354  3.5300000000000D+00  0.0000000000000D+00  0.0000000000000D+00
355  3.5400000000000D+00  0.0000000000000D+00  0.0000000000000D+00
356  3.5500000000000D+00  0.0000000000000D+00  0.0000000000000D+00
357  3.5600000000000D+00  0.0000000000000D+00  0.0000000000000D+00
358  3.5700000000000D+00  0.0000000000000D+00  0.0000000000000D+00
359  3.5800000000000D+00  0.0000000000000D+00  0.0000000000000D+00
360  3.5900000000000D+00  0.0000000000000D+00  0.0000000000000D+00
361  3.6000000000000D+00  0.0000000000000D+00  0.0000000000000D+00
362  3.6100000000000D+00  0.0000000000000D+00  0.0000000000000D+00
363  3.6200000000000D+00  0.0000000000000D+00  0.0000000000000D+00
364  3.6300000000000D+00  0.0000000000000D+00  0.0000000000000D+00
365  3.6400000000000D+00  0.0000000000000D+00  0.0000000000000D+00
366  3.6500000000000D+00  0.0000000000000D+00  0.0000000000000D+00
367  3.6600000000000D+00  0.0000000000000D+00  0.0000000000000D+00
368  3.6700000000000D+00  0.0000000000000D+00  0.0000000000000D+00
369  3.6800000000000D+00  0.0000000000000D+00  0.0000000000000D+00
370  3.6900000000000D+00  0.0000000000000D+00  0.0000000000000D+00
371  3.7000000000000D+00  0.0000000000000D+00  0.0000000000000D+00
372  3.7100000000000D+00  0.0000000000000D+00  0.0000000000000D+00
373  3.7200000000000D+00  0.0000000000000D+00  0.0000000000000D+00
374  3.7300000000000D+00  0.0000000000000D+00  0.0000000000000D+00
375  3.7400000000000D+00  0.0000000000000D+00  0.0000000000000D+00
376  3.7500000000000D+00  0.0000000000000D+00  0.0000000000000D+00
377  3.7600000000000D+00  0.0000000000000D+00  0.0000000000000D+00
378  3.7700000000000D+00  0.0000000000000D+00  0.0000000000000D+00
379  3.7800000000000D+00  0.0000000000000D+00  0.0000000000000D+00
380  3.7900000000000D+00  0.0000000000000D+00  0.0000000000000D+00
381  3.8000000000000D+00  0.0000000000000D+00  0.0000000000000D+00
382  3.8100000000000D+00  0.0000000000000D+00  0.0000000000000D+00
383  3.8200000000000D+00  0.0000000000000D+00  0.0000000000000D+00
384  3.8300000000000D+00  0.0000000000000D+00  0.0000000000000D+00
385  3.8400000000000D+00  0.0000000000000D+00  0.0000000000000D+00
386  3.8500000000000D+00  0.0000000000000D+00  0.0000000000000D+00
387  3.8600000000000D+00  0.0000000000000D+00  0.0000000000000D+00
388  3.8700000000000D+00  0.0000000000000D+00  0.0000000000000D+00
389  3.8800000000000D+00  0.0000000000000D+00  0.0000000000000D+00
390  3.8900000000000D+00  0.0000000000000D+00  0.0000000000000D+00
391  3.9000000000000D+00  0.0000000000000D+00  0.0000000000000D+00
392  3.9100000000000D+00  0.0000000000000D+00  0.0000000000000D+00
393  3.9200000000000D+00  0.0000000000000D+00  0.0000000000000D+00
394  3.9300000000000D+00  0.0000000000000D+00  0.0000000000000D+00
395  3.9400000000000D+00  0.0000000000000D+00  0.0000000000000D+00
396  3.9500000000000D+00  0.0000000000000D+00  0.0000000000000D+00
397  3.9600000000000D+00  0.0000000000000D+00  0.0000000000000D+00
398  3.9700000000000D+00  0.0000000000000D+00  0.0000000000000D+00
399  3.9800000000000D+00  0.0000000000000D+00  0.0000000000000D+00
400  3.9900000000000D+00  0.0000000000000D+00  0.0000000000000D+00
401  4.0000000000000D+00  0.0000000000000D+00  0.0000000000000D+00
1                        -6.0296484204279D+00 -2.1590544521049D+00
1  0.0000000000000D+00  0.0000000000000D+00  0.0000000000000D+00
2  1.0000000000000D-02  1.8342915086961D-03  7.7233916015061D-04
3  2.0000000000000D-02  7.3293116042960D-03  3.0829858067996D-03
4  3.0000000000000D-02  1.6461527406910D-02  6.9128628170524D-03
5  4.0000000000000D-02  2.9191818730666D-02  1.2230292731720D-02
6  5.0000000000000D-02  4.5465629685051D-02  1.8991173735452D-02
7  6.0000000000000D-02  6.5213180277444D-02  2.7139224755924D-02
8  7.0000000000000D-02  8.8349737377970D-02  3.6606298419374D-02
9  8.0000000000000D-02  1.1477594422440D-01  4.7312760251115D-02
10  9.0000000000000D-02  1.4437820746360D-01  5.9167932173721D-02
11  1.0000000000000D-01  1.7702914054238D-01  7.2070598028406D-02
12  1.1000000000000D-01  2.1258806207883D-01  8.5909568533564D-02
13  1.2000000000000D-01  2.5090154766509D-01  1.0056430279997D-01
14  1.3000000000000D-01  2.9180403337512D-01  1.1590558324620D-01
15  1.4000000000000D-01  3.3511846904303D-01  1.3179624046827D-01
16  1.5000000000000D-01  3.8065701927479D-01  1.4809192445636D-01
17  1.6000000000000D-01  4.2822180983417D-01  1.6464191818088D-01
18  1.7000000000000D-01  4.7760571709214D-01  1.8128998960220D-01
19  1.8000000000000D-01  5.2859319775475D-01  1.9787527767612D-01
20  1.9000000000000D-01  5.8096115628648D-01  2.1423320814452D-01
21  2.0000000000000D-01  6.3447984670849D-01  2.3019643422547D-01
22  2.1000000000000D-01  6.8891380637769D-01  2.4559579821596D-01
23  2.2000000000000D-01  7.4402281743877D-01  2.6026130833005D-01
24  2.3000000000000D-01  7.9956289344968D-01  2.7402312681938D-01
25  2.4000000000000D-01  8.5528728680651D-01  2.8671256386567D-01
26  2.5000000000000D-01  9.1094751469571D-01  2.9816307347985D-01
27  2.6000000000000D-01  9.6629439668681D-01  3.0821124432756D-01
28  2.7000000000000D-01  1.0210791045989D+00  3.1669778393388D-01
29  2.8000000000000D-01  1.0750542155848D+00  3.2346848801184D-01
30  2.9000000000000D-01  1.1279747678945D+00  3.2837519268668D-01
31  3.0000000000000D-01  1.1795993134190D+00  3.3127670382214D-01
32  3.1000000000000D-01  1.2296909629172D+00  3.3203969907190D-01
33  3.2000000000000D-01  1.2780184190411D+00  3.3053959833065D-01
34  3.3000000000000D-01  1.3243569950276D+00  3.2666139809116D-01
35  3.4000000000000D-01  1.3684896099193D+00  3.2030046548042D-01
36  3.5000000000000D-01  1.4102077607910D+00  3.1136328830795D-01
37  3.6000000000000D-01  1.4493124643962D+00  2.9976817660999D-01
38  3.7000000000000D-01  1.4856151647882D+00  2.8544591154268D-01
39  3.8000000000000D-01  1.5189386021518D+00  2.6834034195245D-01
40  3.9000000000000D-01  1.5491176390190D+00  2.4840891798554D-01
41  4.0000000000000D-01  1.5760000383114D+00  2.2562316390028D-01
42  4.1000000000000D-01  1.5994471910209D+00  1.9996908878597D-01