Na    ONCVPSP  r_core=  1.21  1.55
11.0000      9.0000      150111    zatom,zion,pspd
8    11     1     4   401     0    pspcod,pspxc,lmax,lloc,mmax,r2well
4.00000000  0.00000000  0.00000000    rchrg fchrg qchrg
2     2     0     0     0    nproj
0                 extension_switch
0                         2.5039869325759D+00 -6.7711957820275D-01
1  0.0000000000000D+00  0.0000000000000D+00  0.0000000000000D+00
2  1.0000000000000D-02  7.0690219696615D-02  1.7807542418644D-02
3  2.0000000000000D-02  1.4140447441885D-01  3.5727301221206D-02
4  3.0000000000000D-02  2.1216265374002D-01  5.3870146728692D-02
5  4.0000000000000D-02  2.8297643001931D-01  7.2344272895705D-02
6  5.0000000000000D-02  3.5384533293351D-01  9.1253898327450D-02
7  6.0000000000000D-02  4.2475304075373D-01  1.1069801378699D-01
8  7.0000000000000D-02  4.9566395559908D-01  1.3076919077161D-01
9  8.0000000000000D-02  5.6652012574619D-01  1.5155246498572D-01
10  9.0000000000000D-02  6.3723857287133D-01  1.7312430757432D-01
11  1.0000000000000D-01  7.0770907617891D-01  1.9555169590937D-01
12  1.1000000000000D-01  7.7779245852735D-01  2.1889129445649D-01
13  1.2000000000000D-01  8.4731941217569D-01  2.4318875486504D-01
14  1.3000000000000D-01  9.1608989374562D-01  2.6847814293122D-01
15  1.4000000000000D-01  9.8387310958376D-01  2.9478149863462D-01
16  1.5000000000000D-01  1.0504081034169D+00  3.2210853340660D-01
17  1.6000000000000D-01  1.1154049495689D+00  3.5045646774053D-01
18  1.7000000000000D-01  1.1785465456838D+00  3.7981000967062D-01
19  1.8000000000000D-01  1.2394909889960D+00  4.1014147380776D-01
20  1.9000000000000D-01  1.2978745134025D+00  4.4141103812908D-01
21  2.0000000000000D-01  1.3533149489783D+00  4.7356713429341D-01
22  2.1000000000000D-01  1.4054156749392D+00  5.0654696630965D-01
23  2.2000000000000D-01  1.4537699986120D+00  5.4027714916492D-01
24  2.3000000000000D-01  1.4979659208828D+00  5.7467445964651D-01
25  2.4000000000000D-01  1.5375912068846D+00  6.0964668727036D-01
26  2.5000000000000D-01  1.5722387369905D+00  6.4509358014699D-01
27  2.6000000000000D-01  1.6015119693548D+00  6.8090785923874D-01
28  2.7000000000000D-01  1.6250305877073D+00  7.1697631060890D-01
29  2.8000000000000D-01  1.6424360882545D+00  7.5318091579131D-01
30  2.9000000000000D-01  1.6533973502585D+00  7.8940002553368D-01
31  3.0000000000000D-01  1.6576160547053D+00  8.2550955366292D-01
32  3.1000000000000D-01  1.6548318793333D+00  8.6138417743886D-01
33  3.2000000000000D-01  1.6448273573917D+00  8.9689852203719D-01
34  3.3000000000000D-01  1.6274324783602D+00  9.3192834718031D-01
35  3.4000000000000D-01  1.6025286688533D+00  9.6635166087043D-01
36  3.5000000000000D-01  1.5700523864877D+00  1.0000498085286D+00
37  3.6000000000000D-01  1.5299980988250D+00  1.0329084911024D+00
38  3.7000000000000D-01  1.4824206718236D+00  1.0648187174796D+00
39  3.8000000000000D-01  1.4274369662241D+00  1.0956776393385D+00
40  3.9000000000000D-01  1.3652269009986D+00  1.1253893373404D+00
41  4.0000000000000D-01  1.2960336850941D+00  1.1538654817109D+00
42  4.1000000000000D-01  1.2201632662281D+00  1.1810258716970D+00
43  4.2000000000000D-01  1.1379830823271D+00  1.2067988804655D+00
44  4.3000000000000D-01  1.0499200320965D+00  1.2311217765766D+00
45  4.4000000000000D-01  9.5645769830887D-01  1.2539409263919D+00
46  4.5000000000000D-01  8.5813284661239D-01  1.2752118774781D+00
47  4.6000000000000D-01  7.5553123270651D-01  1.2948993245689D+00
48  4.7000000000000D-01  6.4928277880821D-01  1.3129769575719D+00
49  4.8000000000000D-01  5.4005616023213D-01  1.3294272110993D+00
50  4.9000000000000D-01  4.2855272699240D-01  1.3442409154494D+00
51  5.0000000000000D-01  3.1550012197535D-01  1.3574168204921D+00
52  5.1000000000000D-01  2.0164562751990D-01  1.3689610607836D+00
53  5.2000000000000D-01  8.7748663366877D-02  1.3788865560952D+00
54  5.3000000000000D-01 -2.5426582327220D-02  1.3872123064542D+00
55  5.4000000000000D-01 -1.3711781714658D-01  1.3939626891331D+00
56  5.5000000000000D-01 -2.4657403396456D-01  1.3991666326942D+00
57  5.6000000000000D-01 -3.5306077009466D-01  1.4028568897119D+00
58  5.7000000000000D-01 -4.5586979537905D-01  1.4050691253036D+00
59  5.8000000000000D-01 -5.5432392705345D-01  1.4058412221849D+00
60  5.9000000000000D-01 -6.4778664637630D-01  1.4052123071047D+00
61  6.0000000000000D-01 -7.3566493743481D-01  1.4032222182741D+00
62  6.1000000000000D-01 -8.1741960137000D-01  1.3999104447573D+00
63  6.2000000000000D-01 -8.9256674074714D-01  1.3953157319585D+00
64  6.3000000000000D-01 -9.6068435831666D-01  1.3894753106713D+00
65  6.4000000000000D-01 -1.0214172198178D+00  1.3824242610186D+00
66  6.5000000000000D-01 -1.0744779013424D+00  1.3741952330988D+00
67  6.6000000000000D-01 -1.1196507504521D+00  1.3648179277866D+00
68  6.7000000000000D-01 -1.1567944862149D+00  1.3543187059703D+00
69  6.8000000000000D-01 -1.1858412233328D+00  1.3427205598333D+00
70  6.9000000000000D-01 -1.2067967994231D+00  1.3300429839892D+00
71  7.0000000000000D-01 -1.2197410051761D+00  1.3163018660205D+00
72  7.1000000000000D-01 -1.2248256189160D+00  1.3015096124991D+00
73  7.2000000000000D-01 -1.2222711468269D+00  1.2856754273415D+00
74  7.3000000000000D-01 -1.2123639391811D+00  1.2688055679315D+00
75  7.4000000000000D-01 -1.1954521711690D+00  1.2509037324766D+00
76  7.5000000000000D-01 -1.1719410087516D+00  1.2319715464441D+00
77  7.6000000000000D-01 -1.1422877134194D+00  1.2120090649763D+00
78  7.7000000000000D-01 -1.1069951293182D+00  1.1910154589940D+00
79  7.8000000000000D-01 -1.0666054485550D+00  1.1689896786758D+00
80  7.9000000000000D-01 -1.0216934408992D+00  1.1459311793929D+00
81  8.0000000000000D-01 -9.7285933992897D-01  1.1218406874387D+00
82  8.1000000000000D-01 -9.2072151205643D-01  1.0967209894095D+00
83  8.2000000000000D-01 -8.6590900558582D-01  1.0705777320723D+00
84  8.3000000000000D-01 -8.0905407813819D-01  1.0434202193013D+00
85  8.4000000000000D-01 -7.5078480062798D-01  1.0152621926014D+00
86  8.5000000000000D-01 -6.9171783454862D-01  9.8612258186677D-01
87  8.6000000000000D-01 -6.3245147666508D-01  9.5602621334496D-01
88  8.7000000000000D-01 -5.7355906137448D-01  9.2500446227195D-01
89  8.8000000000000D-01 -5.1558280602006D-01  8.9309583832149D-01
90  8.9000000000000D-01 -4.5902817835729D-01  8.6034649285962D-01
91  9.0000000000000D-01 -4.0435885818127D-01  8.2681063801602D-01
92  9.1000000000000D-01 -3.5199235682680D-01  7.9255086877850D-01
93  9.2000000000000D-01 -3.0229634883113D-01  7.5763838068747D-01
94  9.3000000000000D-01 -2.5558575949848D-01  7.2215307725409D-01
95  9.4000000000000D-01 -2.1212064044274D-01  6.8618356294667D-01
96  9.5000000000000D-01 -1.7210602278466D-01  6.4982693157318D-01
97  9.6000000000000D-01 -1.3568838923089D-01  6.1318877730916D-01
98  9.7000000000000D-01 -1.0295765908816D-01  5.7638267309584D-01
99  9.8000000000000D-01 -7.3948963682047D-02  5.3952965097859D-01
100  9.9000000000000D-01 -4.8644015996990D-02  5.0275765761411D-01
101  1.0000000000000D+00 -2.6973759870707D-02  4.6620086166101D-01
102  1.0100000000000D+00 -8.8216949058526D-03  4.2999886713117D-01
103  1.0200000000000D+00  5.9713207392597D-03  3.9429591996530D-01
104  1.0300000000000D+00  1.7605641248008D-02  3.5923990523410D-01
105  1.0400000000000D+00  2.6315226390906D-02  3.2498117252365D-01
106  1.0500000000000D+00  3.2361882970121D-02  2.9167155428849D-01
107  1.0600000000000D+00  3.6030108167625D-02  2.5946324648654D-01
108  1.0700000000000D+00  3.7621698542698D-02  2.2850799887370D-01
109  1.0800000000000D+00  3.7449864190159D-02  1.9895550776470D-01
110  1.0900000000000D+00  3.5830848534221D-02  1.7095179181051D-01
111  1.1000000000000D+00  3.3079133235215D-02  1.4463883144338D-01
112  1.1100000000000D+00  2.9502102336509D-02  1.2015341002314D-01
113  1.1200000000000D+00  2.5397287430109D-02  9.7626844459581D-02
114  1.1300000000000D+00  2.1036277223537D-02  7.7180671082411D-02
115  1.1400000000000D+00  1.6669221113545D-02  5.8928894235178D-02
116  1.1500000000000D+00  1.2520018223125D-02  4.2976764368584D-02
117  1.1600000000000D+00  8.7833390286199D-03  2.9420198201846D-02
118  1.1700000000000D+00  5.6079102041449D-03  1.8341480711514D-02
119  1.1800000000000D+00  3.1095318598787D-03  9.8130191391291D-03
120  1.1900000000000D+00  1.3706534539545D-03  3.8972277319089D-03
121  1.2000000000000D+00  4.8247285348940D-04  8.1169878961348D-04
122  1.2100000000000D+00  1.4330737449164D-04 -1.6762440046310D-04
123  1.2200000000000D+00  6.7498047366344D-06 -5.5105251663775D-05
124  1.2300000000000D+00 -1.3632581328143D-05  2.1464913324533D-06
125  1.2400000000000D+00  0.0000000000000D+00  0.0000000000000D+00
126  1.2500000000000D+00  0.0000000000000D+00  0.0000000000000D+00
127  1.2600000000000D+00  0.0000000000000D+00  0.0000000000000D+00
128  1.2700000000000D+00  0.0000000000000D+00  0.0000000000000D+00
129  1.2800000000000D+00  0.0000000000000D+00  0.0000000000000D+00
130  1.2900000000000D+00  0.0000000000000D+00  0.0000000000000D+00
131  1.3000000000000D+00  0.0000000000000D+00  0.0000000000000D+00
132  1.3100000000000D+00  0.0000000000000D+00  0.0000000000000D+00
133  1.3200000000000D+00  0.0000000000000D+00  0.0000000000000D+00
134  1.3300000000000D+00  0.0000000000000D+00  0.0000000000000D+00
135  1.3400000000000D+00  0.0000000000000D+00  0.0000000000000D+00
136  1.3500000000000D+00  0.0000000000000D+00  0.0000000000000D+00
137  1.3600000000000D+00  0.0000000000000D+00  0.0000000000000D+00
138  1.3700000000000D+00  0.0000000000000D+00  0.0000000000000D+00
139  1.3800000000000D+00  0.0000000000000D+00  0.0000000000000D+00
140  1.3900000000000D+00  0.0000000000000D+00  0.0000000000000D+00
141  1.4000000000000D+00  0.0000000000000D+00  0.0000000000000D+00
142  1.4100000000000D+00  0.0000000000000D+00  0.0000000000000D+00
143  1.4200000000000D+00  0.0000000000000D+00  0.0000000000000D+00
144  1.4300000000000D+00  0.0000000000000D+00  0.0000000000000D+00
145  1.4400000000000D+00  0.0000000000000D+00  0.0000000000000D+00
146  1.4500000000000D+00  0.0000000000000D+00  0.0000000000000D+00
147  1.4600000000000D+00  0.0000000000000D+00  0.0000000000000D+00
148  1.4700000000000D+00  0.0000000000000D+00  0.0000000000000D+00
149  1.4800000000000D+00  0.0000000000000D+00  0.0000000000000D+00
150  1.4900000000000D+00  0.0000000000000D+00  0.0000000000000D+00
151  1.5000000000000D+00  0.0000000000000D+00  0.0000000000000D+00
152  1.5100000000000D+00  0.0000000000000D+00  0.0000000000000D+00
153  1.5200000000000D+00  0.0000000000000D+00  0.0000000000000D+00
154  1.5300000000000D+00  0.0000000000000D+00  0.0000000000000D+00
155  1.5400000000000D+00  0.0000000000000D+00  0.0000000000000D+00
156  1.5500000000000D+00  0.0000000000000D+00  0.0000000000000D+00
157  1.5600000000000D+00  0.0000000000000D+00  0.0000000000000D+00
158  1.5700000000000D+00  0.0000000000000D+00  0.0000000000000D+00
159  1.5800000000000D+00  0.0000000000000D+00  0.0000000000000D+00
160  1.5900000000000D+00  0.0000000000000D+00  0.0000000000000D+00
161  1.6000000000000D+00  0.0000000000000D+00  0.0000000000000D+00
162  1.6100000000000D+00  0.0000000000000D+00  0.0000000000000D+00
163  1.6200000000000D+00  0.0000000000000D+00  0.0000000000000D+00
164  1.6300000000000D+00  0.0000000000000D+00  0.0000000000000D+00
165  1.6400000000000D+00  0.0000000000000D+00  0.0000000000000D+00
166  1.6500000000000D+00  0.0000000000000D+00  0.0000000000000D+00
167  1.6600000000000D+00  0.0000000000000D+00  0.0000000000000D+00
168  1.6700000000000D+00  0.0000000000000D+00  0.0000000000000D+00
169  1.6800000000000D+00  0.0000000000000D+00  0.0000000000000D+00
170  1.6900000000000D+00  0.0000000000000D+00  0.0000000000000D+00
171  1.7000000000000D+00  0.0000000000000D+00  0.0000000000000D+00
172  1.7100000000000D+00  0.0000000000000D+00  0.0000000000000D+00
173  1.7200000000000D+00  0.0000000000000D+00  0.0000000000000D+00
174  1.7300000000000D+00  0.0000000000000D+00  0.0000000000000D+00
175  1.7400000000000D+00  0.0000000000000D+00  0.0000000000000D+00
176  1.7500000000000D+00  0.0000000000000D+00  0.0000000000000D+00
177  1.7600000000000D+00  0.0000000000000D+00  0.0000000000000D+00
178  1.7700000000000D+00  0.0000000000000D+00  0.0000000000000D+00
179  1.7800000000000D+00  0.0000000000000D+00  0.0000000000000D+00
180  1.7900000000000D+00  0.0000000000000D+00  0.0000000000000D+00
181  1.8000000000000D+00  0.0000000000000D+00  0.0000000000000D+00
182  1.8100000000000D+00  0.0000000000000D+00  0.0000000000000D+00
183  1.8200000000000D+00  0.0000000000000D+00  0.0000000000000D+00
184  1.8300000000000D+00  0.0000000000000D+00  0.0000000000000D+00
185  1.8400000000000D+00  0.0000000000000D+00  0.0000000000000D+00
186  1.8500000000000D+00  0.0000000000000D+00  0.0000000000000D+00
187  1.8600000000000D+00  0.0000000000000D+00  0.0000000000000D+00
188  1.8700000000000D+00  0.0000000000000D+00  0.0000000000000D+00
189  1.8800000000000D+00  0.0000000000000D+00  0.0000000000000D+00
190  1.8900000000000D+00  0.0000000000000D+00  0.0000000000000D+00
191  1.9000000000000D+00  0.0000000000000D+00  0.0000000000000D+00
192  1.9100000000000D+00  0.0000000000000D+00  0.0000000000000D+00
193  1.9200000000000D+00  0.0000000000000D+00  0.0000000000000D+00
194  1.9300000000000D+00  0.0000000000000D+00  0.0000000000000D+00
195  1.9400000000000D+00  0.0000000000000D+00  0.0000000000000D+00
196  1.9500000000000D+00  0.0000000000000D+00  0.0000000000000D+00
197  1.9600000000000D+00  0.0000000000000D+00  0.0000000000000D+00
198  1.9700000000000D+00  0.0000000000000D+00  0.0000000000000D+00
199  1.9800000000000D+00  0.0000000000000D+00  0.0000000000000D+00
200  1.9900000000000D+00  0.0000000000000D+00  0.0000000000000D+00
201  2.0000000000000D+00  0.0000000000000D+00  0.0000000000000D+00
202  2.0100000000000D+00  0.0000000000000D+00  0.0000000000000D+00
203  2.0200000000000D+00  0.0000000000000D+00  0.0000000000000D+00
204  2.0300000000000D+00  0.0000000000000D+00  0.0000000000000D+00
205  2.0400000000000D+00  0.0000000000000D+00  0.0000000000000D+00
206  2.0500000000000D+00  0.0000000000000D+00  0.0000000000000D+00
207  2.0600000000000D+00  0.0000000000000D+00  0.0000000000000D+00
208  2.0700000000000D+00  0.0000000000000D+00  0.0000000000000D+00
209  2.0800000000000D+00  0.0000000000000D+00  0.0000000000000D+00
210  2.0900000000000D+00  0.0000000000000D+00  0.0000000000000D+00
211  2.1000000000000D+00  0.0000000000000D+00  0.0000000000000D+00
212  2.1100000000000D+00  0.0000000000000D+00  0.0000000000000D+00
213  2.1200000000000D+00  0.0000000000000D+00  0.0000000000000D+00
214  2.1300000000000D+00  0.0000000000000D+00  0.0000000000000D+00
215  2.1400000000000D+00  0.0000000000000D+00  0.0000000000000D+00
216  2.1500000000000D+00  0.0000000000000D+00  0.0000000000000D+00
217  2.1600000000000D+00  0.0000000000000D+00  0.0000000000000D+00
218  2.1700000000000D+00  0.0000000000000D+00  0.0000000000000D+00
219  2.1800000000000D+00  0.0000000000000D+00  0.0000000000000D+00
220  2.1900000000000D+00  0.0000000000000D+00  0.0000000000000D+00
221  2.2000000000000D+00  0.0000000000000D+00  0.0000000000000D+00
222  2.2100000000000D+00  0.0000000000000D+00  0.0000000000000D+00
223  2.2200000000000D+00  0.0000000000000D+00  0.0000000000000D+00
224  2.2300000000000D+00  0.0000000000000D+00  0.0000000000000D+00
225  2.2400000000000D+00  0.0000000000000D+00  0.0000000000000D+00
226  2.2500000000000D+00  0.0000000000000D+00  0.0000000000000D+00
227  2.2600000000000D+00  0.0000000000000D+00  0.0000000000000D+00
228  2.2700000000000D+00  0.0000000000000D+00  0.0000000000000D+00
229  2.2800000000000D+00  0.0000000000000D+00  0.0000000000000D+00
230  2.2900000000000D+00  0.0000000000000D+00  0.0000000000000D+00
231  2.3000000000000D+00  0.0000000000000D+00  0.0000000000000D+00
232  2.3100000000000D+00  0.0000000000000D+00  0.0000000000000D+00
233  2.3200000000000D+00  0.0000000000000D+00  0.0000000000000D+00
234  2.3300000000000D+00  0.0000000000000D+00  0.0000000000000D+00
235  2.3400000000000D+00  0.0000000000000D+00  0.0000000000000D+00
236  2.3500000000000D+00  0.0000000000000D+00  0.0000000000000D+00
237  2.3600000000000D+00  0.0000000000000D+00  0.0000000000000D+00
238  2.3700000000000D+00  0.0000000000000D+00  0.0000000000000D+00
239  2.3800000000000D+00  0.0000000000000D+00  0.0000000000000D+00
240  2.3900000000000D+00  0.0000000000000D+00  0.0000000000000D+00
241  2.4000000000000D+00  0.0000000000000D+00  0.0000000000000D+00
242  2.4100000000000D+00  0.0000000000000D+00  0.0000000000000D+00
243  2.4200000000000D+00  0.0000000000000D+00  0.0000000000000D+00
244  2.4300000000000D+00  0.0000000000000D+00  0.0000000000000D+00
245  2.4400000000000D+00  0.0000000000000D+00  0.0000000000000D+00
246  2.4500000000000D+00  0.0000000000000D+00  0.0000000000000D+00
247  2.4600000000000D+00  0.0000000000000D+00  0.0000000000000D+00
248  2.4700000000000D+00  0.0000000000000D+00  0.0000000000000D+00
249  2.4800000000000D+00  0.0000000000000D+00  0.0000000000000D+00
250  2.4900000000000D+00  0.0000000000000D+00  0.0000000000000D+00
251  2.5000000000000D+00  0.0000000000000D+00  0.0000000000000D+00
252  2.5100000000000D+00  0.0000000000000D+00  0.0000000000000D+00
253  2.5200000000000D+00  0.0000000000000D+00  0.0000000000000D+00
254  2.5300000000000D+00  0.0000000000000D+00  0.0000000000000D+00
255  2.5400000000000D+00  0.0000000000000D+00  0.0000000000000D+00
256  2.5500000000000D+00  0.0000000000000D+00  0.0000000000000D+00
257  2.5600000000000D+00  0.0000000000000D+00  0.0000000000000D+00
258  2.5700000000000D+00  0.0000000000000D+00  0.0000000000000D+00
259  2.5800000000000D+00  0.0000000000000D+00  0.0000000000000D+00
260  2.5900000000000D+00  0.0000000000000D+00  0.0000000000000D+00
261  2.6000000000000D+00  0.0000000000000D+00  0.0000000000000D+00
262  2.6100000000000D+00  0.0000000000000D+00  0.0000000000000D+00
263  2.6200000000000D+00  0.0000000000000D+00  0.0000000000000D+00
264  2.6300000000000D+00  0.0000000000000D+00  0.0000000000000D+00
265  2.6400000000000D+00  0.0000000000000D+00  0.0000000000000D+00
266  2.6500000000000D+00  0.0000000000000D+00  0.0000000000000D+00
267  2.6600000000000D+00  0.0000000000000D+00  0.0000000000000D+00
268  2.6700000000000D+00  0.0000000000000D+00  0.0000000000000D+00
269  2.6800000000000D+00  0.0000000000000D+00  0.0000000000000D+00
270  2.6900000000000D+00  0.0000000000000D+00  0.0000000000000D+00
271  2.7000000000000D+00  0.0000000000000D+00  0.0000000000000D+00
272  2.7100000000000D+00  0.0000000000000D+00  0.0000000000000D+00
273  2.7200000000000D+00  0.0000000000000D+00  0.0000000000000D+00
274  2.7300000000000D+00  0.0000000000000D+00  0.0000000000000D+00
275  2.7400000000000D+00  0.0000000000000D+00  0.0000000000000D+00
276  2.7500000000000D+00  0.0000000000000D+00  0.0000000000000D+00
277  2.7600000000000D+00  0.0000000000000D+00  0.0000000000000D+00
278  2.7700000000000D+00  0.0000000000000D+00  0.0000000000000D+00
279  2.7800000000000D+00  0.0000000000000D+00  0.0000000000000D+00
280  2.7900000000000D+00  0.0000000000000D+00  0.0000000000000D+00
281  2.8000000000000D+00  0.0000000000000D+00  0.0000000000000D+00
282  2.8100000000000D+00  0.0000000000000D+00  0.0000000000000D+00
283  2.8200000000000D+00  0.0000000000000D+00  0.0000000000000D+00
284  2.8300000000000D+00  0.0000000000000D+00  0.0000000000000D+00
285  2.8400000000000D+00  0.0000000000000D+00  0.0000000000000D+00
286  2.8500000000000D+00  0.0000000000000D+00  0.0000000000000D+00
287  2.8600000000000D+00  0.0000000000000D+00  0.0000000000000D+00
288  2.8700000000000D+00  0.0000000000000D+00  0.0000000000000D+00
289  2.8800000000000D+00  0.0000000000000D+00  0.0000000000000D+00
290  2.8900000000000D+00  0.0000000000000D+00  0.0000000000000D+00
291  2.9000000000000D+00  0.0000000000000D+00  0.0000000000000D+00
292  2.9100000000000D+00  0.0000000000000D+00  0.0000000000000D+00
293  2.9200000000000D+00  0.0000000000000D+00  0.0000000000000D+00
294  2.9300000000000D+00  0.0000000000000D+00  0.0000000000000D+00
295  2.9400000000000D+00  0.0000000000000D+00  0.0000000000000D+00
296  2.9500000000000D+00  0.0000000000000D+00  0.0000000000000D+00
297  2.9600000000000D+00  0.0000000000000D+00  0.0000000000000D+00
298  2.9700000000000D+00  0.0000000000000D+00  0.0000000000000D+00
299  2.9800000000000D+00  0.0000000000000D+00  0.0000000000000D+00
300  2.9900000000000D+00  0.0000000000000D+00  0.0000000000000D+00
301  3.0000000000000D+00  0.0000000000000D+00  0.0000000000000D+00
302  3.0100000000000D+00  0.0000000000000D+00  0.0000000000000D+00
303  3.0200000000000D+00  0.0000000000000D+00  0.0000000000000D+00
304  3.0300000000000D+00  0.0000000000000D+00  0.0000000000000D+00
305  3.0400000000000D+00  0.0000000000000D+00  0.0000000000000D+00
306  3.0500000000000D+00  0.0000000000000D+00  0.0000000000000D+00
307  3.0600000000000D+00  0.0000000000000D+00  0.0000000000000D+00
308  3.0700000000000D+00  0.0000000000000D+00  0.0000000000000D+00
309  3.0800000000000D+00  0.0000000000000D+00  0.0000000000000D+00
310  3.0900000000000D+00  0.0000000000000D+00  0.0000000000000D+00
311  3.1000000000000D+00  0.0000000000000D+00  0.0000000000000D+00
312  3.1100000000000D+00  0.0000000000000D+00  0.0000000000000D+00
313  3.1200000000000D+00  0.0000000000000D+00  0.0000000000000D+00
314  3.1300000000000D+00  0.0000000000000D+00  0.0000000000000D+00
315  3.1400000000000D+00  0.0000000000000D+00  0.0000000000000D+00
316  3.1500000000000D+00  0.0000000000000D+00  0.0000000000000D+00
317  3.1600000000000D+00  0.0000000000000D+00  0.0000000000000D+00
318  3.1700000000000D+00  0.0000000000000D+00  0.0000000000000D+00
319  3.1800000000000D+00  0.0000000000000D+00  0.0000000000000D+00
320  3.1900000000000D+00  0.0000000000000D+00  0.0000000000000D+00
321  3.2000000000000D+00  0.0000000000000D+00  0.0000000000000D+00
322  3.2100000000000D+00  0.0000000000000D+00  0.0000000000000D+00
323  3.2200000000000D+00  0.0000000000000D+00  0.0000000000000D+00
324  3.2300000000000D+00  0.0000000000000D+00  0.0000000000000D+00
325  3.2400000000000D+00  0.0000000000000D+00  0.0000000000000D+00
326  3.2500000000000D+00  0.0000000000000D+00  0.0000000000000D+00
327  3.2600000000000D+00  0.0000000000000D+00  0.0000000000000D+00
328  3.2700000000000D+00  0.0000000000000D+00  0.0000000000000D+00
329  3.2800000000000D+00  0.0000000000000D+00  0.0000000000000D+00
330  3.2900000000000D+00  0.0000000000000D+00  0.0000000000000D+00
331  3.3000000000000D+00  0.0000000000000D+00  0.0000000000000D+00
332  3.3100000000000D+00  0.0000000000000D+00  0.0000000000000D+00
333  3.3200000000000D+00  0.0000000000000D+00  0.0000000000000D+00
334  3.3300000000000D+00  0.0000000000000D+00  0.0000000000000D+00
335  3.3400000000000D+00  0.0000000000000D+00  0.0000000000000D+00
336  3.3500000000000D+00  0.0000000000000D+00  0.0000000000000D+00
337  3.3600000000000D+00  0.0000000000000D+00  0.0000000000000D+00
338  3.3700000000000D+00  0.0000000000000D+00  0.0000000000000D+00
339  3.3800000000000D+00  0.0000000000000D+00  0.0000000000000D+00
340  3.3900000000000D+00  0.0000000000000D+00  0.0000000000000D+00
341  3.4000000000000D+00  0.0000000000000D+00  0.0000000000000D+00
342  3.4100000000000D+00  0.0000000000000D+00  0.0000000000000D+00
343  3.4200000000000D+00  0.0000000000000D+00  0.0000000000000D+00
344  3.4300000000000D+00  0.0000000000000D+00  0.0000000000000D+00
345  3.4400000000000D+00  0.0000000000000D+00  0.0000000000000D+00
346  3.4500000000000D+00  0.0000000000000D+00  0.0000000000000D+00
347  3.4600000000000D+00  0.0000000000000D+00  0.0000000000000D+00
348  3.4700000000000D+00  0.0000000000000D+00  0.0000000000000D+00
349  3.4800000000000D+00  0.0000000000000D+00  0.0000000000000D+00
350  3.4900000000000D+00  0.0000000000000D+00  0.0000000000000D+00
351  3.5000000000000D+00  0.0000000000000D+00  0.0000000000000D+00
352  3.5100000000000D+00  0.0000000000000D+00  0.0000000000000D+00
353  3.5200000000000D+00  0.0000000000000D+00  0.0000000000000D+00
354  3.5300000000000D+00  0.0000000000000D+00  0.0000000000000D+00
355  3.5400000000000D+00  0.0000000000000D+00  0.0000000000000D+00
356  3.5500000000000D+00  0.0000000000000D+00  0.0000000000000D+00
357  3.5600000000000D+00  0.0000000000000D+00  0.0000000000000D+00
358  3.5700000000000D+00  0.0000000000000D+00  0.0000000000000D+00
359  3.5800000000000D+00  0.0000000000000D+00  0.0000000000000D+00
360  3.5900000000000D+00  0.0000000000000D+00  0.0000000000000D+00
361  3.6000000000000D+00  0.0000000000000D+00  0.0000000000000D+00
362  3.6100000000000D+00  0.0000000000000D+00  0.0000000000000D+00
363  3.6200000000000D+00  0.0000000000000D+00  0.0000000000000D+00
364  3.6300000000000D+00  0.0000000000000D+00  0.0000000000000D+00
365  3.6400000000000D+00  0.0000000000000D+00  0.0000000000000D+00
366  3.6500000000000D+00  0.0000000000000D+00  0.0000000000000D+00
367  3.6600000000000D+00  0.0000000000000D+00  0.0000000000000D+00
368  3.6700000000000D+00  0.0000000000000D+00  0.0000000000000D+00
369  3.6800000000000D+00  0.0000000000000D+00  0.0000000000000D+00
370  3.6900000000000D+00  0.0000000000000D+00  0.0000000000000D+00
371  3.7000000000000D+00  0.0000000000000D+00  0.0000000000000D+00
372  3.7100000000000D+00  0.0000000000000D+00  0.0000000000000D+00
373  3.7200000000000D+00  0.0000000000000D+00  0.0000000000000D+00
374  3.7300000000000D+00  0.0000000000000D+00  0.0000000000000D+00
375  3.7400000000000D+00  0.0000000000000D+00  0.0000000000000D+00
376  3.7500000000000D+00  0.0000000000000D+00  0.0000000000000D+00
377  3.7600000000000D+00  0.0000000000000D+00  0.0000000000000D+00
378  3.7700000000000D+00  0.0000000000000D+00  0.0000000000000D+00
379  3.7800000000000D+00  0.0000000000000D+00  0.0000000000000D+00
380  3.7900000000000D+00  0.0000000000000D+00  0.0000000000000D+00
381  3.8000000000000D+00  0.0000000000000D+00  0.0000000000000D+00
382  3.8100000000000D+00  0.0000000000000D+00  0.0000000000000D+00
383  3.8200000000000D+00  0.0000000000000D+00  0.0000000000000D+00
384  3.8300000000000D+00  0.0000000000000D+00  0.0000000000000D+00
385  3.8400000000000D+00  0.0000000000000D+00  0.0000000000000D+00
386  3.8500000000000D+00  0.0000000000000D+00  0.0000000000000D+00
387  3.8600000000000D+00  0.0000000000000D+00  0.0000000000000D+00
388  3.8700000000000D+00  0.0000000000000D+00  0.0000000000000D+00
389  3.8800000000000D+00  0.0000000000000D+00  0.0000000000000D+00
390  3.8900000000000D+00  0.0000000000000D+00  0.0000000000000D+00
391  3.9000000000000D+00  0.0000000000000D+00  0.0000000000000D+00
392  3.9100000000000D+00  0.0000000000000D+00  0.0000000000000D+00
393  3.9200000000000D+00  0.0000000000000D+00  0.0000000000000D+00
394  3.9300000000000D+00  0.0000000000000D+00  0.0000000000000D+00
395  3.9400000000000D+00  0.0000000000000D+00  0.0000000000000D+00
396  3.9500000000000D+00  0.0000000000000D+00  0.0000000000000D+00
397  3.9600000000000D+00  0.0000000000000D+00  0.0000000000000D+00
398  3.9700000000000D+00  0.0000000000000D+00  0.0000000000000D+00
399  3.9800000000000D+00  0.0000000000000D+00  0.0000000000000D+00
400  3.9900000000000D+00  0.0000000000000D+00  0.0000000000000D+00
401  4.0000000000000D+00  0.0000000000000D+00  0.0000000000000D+00
1                        -6.5300178872206D+00 -2.2074610071727D+00
1  0.0000000000000D+00  0.0000000000000D+00  0.0000000000000D+00
2  1.0000000000000D-02  2.0141067293091D-03  8.2096624957190D-04
3  2.0000000000000D-02  8.0472063487835D-03  3.2770787027104D-03
4  3.0000000000000D-02  1.8071674228334D-02  7.3480107979931D-03
5  4.0000000000000D-02  3.2041592810097D-02  1.2999992629992D-02
6  5.0000000000000D-02  4.9892936524603D-02  2.0185972304899D-02
7  6.0000000000000D-02  7.1543830026699D-02  2.8845841454155D-02
8  7.0000000000000D-02  9.6894879099914D-02  3.8906724511811D-02
9  8.0000000000000D-02  1.2582957338434D-01  5.0283331233535D-02
10  9.0000000000000D-02  1.5821475988644D-01  6.2878371798447D-02
11  1.0000000000000D-01  1.9390118602412D-01  7.6583033683330D-02
12  1.1000000000000D-01  2.3272411075064D-01  9.1277519335029D-02
13  1.2000000000000D-01  2.7450398208611D-01  1.0683164348813D-01
14  1.3000000000000D-01  3.1904717916510D-01  1.2310548878299D-01
15  1.4000000000000D-01  3.6614681664376D-01  1.3995011809422D-01
16  1.5000000000000D-01  4.1558360916478D-01  1.5720834183322D-01
17  1.6000000000000D-01  4.6712679315448D-01  1.7471553807782D-01
18  1.7000000000000D-01  5.2053510325269D-01  1.9230052336711D-01
19  1.8000000000000D-01  5.7555780004385D-01  2.0978647137723D-01
20  1.9000000000000D-01  6.3193574596200D-01  2.2699187681893D-01
21  2.0000000000000D-01  6.8940252526053D-01  2.4373156092998D-01
22  2.1000000000000D-01  7.4768560504566D-01  2.5981771587642D-01
23  2.2000000000000D-01  8.0650753189028D-01  2.7506098300252D-01
24  2.3000000000000D-01  8.6558716075849D-01  2.8927156181411D-01
25  2.4000000000000D-01  9.2464091052648D-01  3.0226034421941D-01
26  2.5000000000000D-01  9.8338404297851D-01  3.1384007085708D-01
27  2.6000000000000D-01  1.0415319562158D+00  3.2382650068895D-01
28  2.7000000000000D-01  1.0988014928985D+00  3.3203959377157D-01
29  2.8000000000000D-01  1.1549122513561D+00  3.3830469544514D-01
30  2.9000000000000D-01  1.2095878983543D+00  3.4245372010688D-01
31  3.0000000000000D-01  1.2625574754319D+00  3.4432632619712D-01
32  3.1000000000000D-01  1.3135566929506D+00  3.4377107600858D-01
33  3.2000000000000D-01  1.3623292050016D+00  3.4064657294480D-01
34  3.3000000000000D-01  1.4086278615593D+00  3.3482257154936D-01
35  3.4000000000000D-01  1.4522159257928D+00  3.2618104814713D-01
36  3.5000000000000D-01  1.4928682561068D+00  3.1461723013533D-01
37  3.6000000000000D-01  1.5303724425916D+00  3.0004057306719D-01
38  3.7000000000000D-01  1.5645298925962D+00  2.8237567904116D-01
39  3.8000000000000D-01  1.5951568592653D+00  2.6156315009454D-01
40  3.9000000000000D-01  1.6220854062891D+00  2.3756036732180D-01
41  4.0000000000000D-01  1.6451643020468D+00  2.1034218910209D-01
42  4.1000000000000D-01  1.6642598399978D+00  1.7990156446967D-01