Na    ONCVPSP  r_core=  1.15  1.55
11.0000      9.0000      140816    zatom,zion,pspd
8    11     1     4   401     0    pspcod,pspxc,lmax,lloc,mmax,r2well
4.00000000  0.05000000  0.00000000    rchrg fchrg qchrg
2     2     0     0     0    nproj
0                 extension_switch
0                         3.2047545822364D+00 -4.7463654864184D-01
1  0.0000000000000D+00 -0.0000000000000D+00 -0.0000000000000D+00
2  1.0000000000000D-02 -8.0176609391343D-02 -4.4079223354889D-03
3  2.0000000000000D-02 -1.6033925832260D-01 -8.4375543302391D-03
4  3.0000000000000D-02 -2.4046949811500D-01 -1.1715898766319D-02
5  4.0000000000000D-02 -3.2053999292550D-01 -1.3880468175146D-02
6  5.0000000000000D-02 -4.0051029789993D-01 -1.4584349601643D-02
7  6.0000000000000D-02 -4.8032289938672D-01 -1.3501044372558D-02
8  7.0000000000000D-02 -5.5989959789977D-01 -1.0329013082740D-02
9  8.0000000000000D-02 -6.3913830899797D-01 -4.7958603059220D-03
10  9.0000000000000D-02 -7.1791035037935D-01  3.3379010564465D-03
11  1.0000000000000D-01 -7.9605827564525D-01  1.4275559777121D-02
12  1.1000000000000D-01 -8.7339430619552D-01  2.8181437571969D-02
13  1.2000000000000D-01 -9.4969940290436D-01  4.5178680834057D-02
14  1.3000000000000D-01 -1.0247230087517D+00  6.5347643765833D-02
15  1.4000000000000D-01 -1.0981834825394D+00  8.8724885477996D-02
16  1.5000000000000D-01 -1.1697692321776D+00  1.1530279347132D-01
17  1.6000000000000D-01 -1.2391405443585D+00  1.4502983841842D-01
18  1.7000000000000D-01 -1.3059320964301D+00  1.7781145386404D-01
19  1.8000000000000D-01 -1.3697561227974D+00  2.1351152691635D-01
20  1.9000000000000D-01 -1.4302062008250D+00  2.5195447639976D-01
21  2.0000000000000D-01 -1.4868616007397D+00  2.9292788338164D-01
22  2.1000000000000D-01 -1.5392921576079D+00  3.3618564131727D-01
23  2.2000000000000D-01 -1.5870635738034D+00  3.8145156616765D-01
24  2.3000000000000D-01 -1.6297430982035D+00  4.2842342242017D-01
25  2.4000000000000D-01 -1.6669054760070D+00  4.7677729046776D-01
26  2.5000000000000D-01 -1.6981391326595D+00  5.2617224429189D-01
27  2.6000000000000D-01 -1.7230523837522D+00  5.7625519068145D-01
28  2.7000000000000D-01 -1.7412797532601D+00  6.2666592081603D-01
29  2.8000000000000D-01 -1.7524881039521D+00  6.7704215996249D-01
30  2.9000000000000D-01 -1.7563826294919D+00  7.2702464371222D-01
31  3.0000000000000D-01 -1.7527125463266D+00  7.7626209936610D-01
32  3.1000000000000D-01 -1.7412764011893D+00  8.2441606493733D-01
33  3.2000000000000D-01 -1.7219268683679D+00  8.7116544259386D-01
34  3.3000000000000D-01 -1.6945751154662D+00  9.1621085692537D-01
35  3.4000000000000D-01 -1.6591943499566D+00  9.5927849253816D-01
36  3.5000000000000D-01 -1.6158227990579D+00  1.0001236214178D+00
37  3.6000000000000D-01 -1.5645658803247D+00  1.0385336184634D+00
38  3.7000000000000D-01 -1.5055975944914D+00  1.0743304913312D+00
39  3.8000000000000D-01 -1.4391609574009D+00  1.1073727401671D+00
40  3.9000000000000D-01 -1.3655677196910D+00  1.1375567996671D+00
41  4.0000000000000D-01 -1.2851971025221D+00  1.1648177901318D+00
42  4.1000000000000D-01 -1.1984936274413D+00  1.1891296253452D+00
43  4.2000000000000D-01 -1.1059641229884D+00  1.2105045717004D+00
44  4.3000000000000D-01 -1.0081738614107D+00  1.2289921843338D+00
45  4.4000000000000D-01 -9.0574188242903D-01  1.2446776594672D+00
46  4.5000000000000D-01 -7.9933555488793D-01  1.2576796310413D+00
47  4.6000000000000D-01 -6.8966443923520D-01  1.2681474482863D+00
48  4.7000000000000D-01 -5.7747355963169D-01  1.2762579864653D+00
49  4.8000000000000D-01 -4.6353611921280D-01  1.2822120507288D+00
50  4.9000000000000D-01 -3.4864557160321D-01  1.2862303441027D+00
51  5.0000000000000D-01 -2.3360765501810D-01  1.2885492069511D+00
52  5.1000000000000D-01 -1.1923228783480D-01  1.2894162244340D+00
53  5.2000000000000D-01 -6.3245437230080D-03  1.2890853735392D+00
54  5.3000000000000D-01  1.0432377867436D-01  1.2878122722136D+00
55  5.4000000000000D-01  2.1194147031919D-01  1.2858499435769D+00
56  5.5000000000000D-01  3.1578852573900D-01  1.2834430706745D+00
57  5.6000000000000D-01  4.1516111006525D-01  1.2808248075341D+00
58  5.7000000000000D-01  5.0940196293113D-01  1.2782111228536D+00
59  5.8000000000000D-01  5.9790448867021D-01  1.2757981669360D+00
60  5.9000000000000D-01  6.8012240514001D-01  1.2737570096270D+00
61  6.0000000000000D-01  7.5557125153919D-01  1.2722324685811D+00
62  6.1000000000000D-01  8.2383816249381D-01  1.2713378886848D+00
63  6.2000000000000D-01  8.8458156531691D-01  1.2711550861639D+00
64  6.3000000000000D-01  9.3753634131459D-01  1.2717316372219D+00
65  6.4000000000000D-01  9.8251675133401D-01  1.2730794059232D+00
66  6.5000000000000D-01  1.0194153638390D+00  1.2751752157364D+00
67  6.6000000000000D-01  1.0482047220553D+00  1.2779602457593D+00
68  6.7000000000000D-01  1.0689372894403D+00  1.2813404448107D+00
69  6.8000000000000D-01  1.0817420033965D+00  1.2851887464318D+00
70  6.9000000000000D-01  1.0868219641871D+00  1.2893468144973D+00
71  7.0000000000000D-01  1.0844516340145D+00  1.2936272067673D+00
72  7.1000000000000D-01  1.0749720155983D+00  1.2978166388472D+00
73  7.2000000000000D-01  1.0587848709112D+00  1.3016797475858D+00
74  7.3000000000000D-01  1.0363470391990D+00  1.3049629409685D+00
75  7.4000000000000D-01  1.0081638286791D+00  1.3073987543651D+00
76  7.5000000000000D-01  9.7478200168674D-01  1.3087103696162D+00
77  7.6000000000000D-01  9.3678193504721D-01  1.3086168646465D+00
78  7.7000000000000D-01  8.9476973964289D-01  1.3068380852030D+00
79  7.8000000000000D-01  8.4936922648467D-01  1.3030997655202D+00
80  7.9000000000000D-01  8.0121369977758D-01  1.2971386783001D+00
81  8.0000000000000D-01  7.5093778908851D-01  1.2887076816767D+00
82  8.1000000000000D-01  6.9916942723760D-01  1.2775806004677D+00
83  8.2000000000000D-01  6.4652208900261D-01  1.2635568625161D+00
84  8.3000000000000D-01  5.9358740098910D-01  1.2464658144322D+00
85  8.4000000000000D-01  5.4092822667644D-01  1.2261706457067D+00
86  8.5000000000000D-01  4.8907232283314D-01  1.2025718558962D+00
87  8.6000000000000D-01  4.3850665434171D-01  1.1756102062697D+00
88  8.7000000000000D-01  3.8967244410964D-01  1.1452691048864D+00
89  8.8000000000000D-01  3.4296102328452D-01  1.1115763824460D+00
90  8.9000000000000D-01  2.9871053453794D-01  1.0746054253644D+00
91  9.0000000000000D-01  2.5720352782273D-01  1.0344756423032D+00
92  9.1000000000000D-01  2.1866547382858D-01  9.9135225076515D-01
93  9.2000000000000D-01  1.8326420546503D-01  9.4544538127985D-01
94  9.3000000000000D-01  1.5111028222670D-01  8.9700850804069D-01
95  9.4000000000000D-01  1.2225825644936D-01  8.4633622645556D-01
96  9.5000000000000D-01  9.6709621071246D-02  7.9376111398952D-01
97  9.6000000000000D-01  7.4413419457879D-02  7.3965133237892D-01
98  9.7000000000000D-01  5.5271516855774D-02  6.8440580404568D-01
99  9.8000000000000D-01  3.9143397148662D-02  6.2844966339423D-01
100  9.9000000000000D-01  2.5850781067497D-02  5.7222954926282D-01
101  1.0000000000000D+00  1.5183159112683D-02  5.1620838836566D-01
102  1.0100000000000D+00  6.9037082519222D-03  4.6085993713959D-01
103  1.0200000000000D+00  7.5518340495744D-04  4.0666413199156D-01
104  1.0300000000000D+00 -3.5337927430485D-03  3.5409958692132D-01
105  1.0400000000000D+00 -6.2409831281867D-03  3.0363775495877D-01
106  1.0500000000000D+00 -7.6446369456122D-03  2.5573817510504D-01
107  1.0600000000000D+00 -8.0173000999241D-03  2.1084270501833D-01
108  1.0700000000000D+00 -7.6214426531688D-03  1.6937234102840D-01
109  1.0800000000000D+00 -6.7014193978771D-03  1.3171877536185D-01
110  1.0900000000000D+00 -5.4761748853158D-03  9.8237851097321D-02
111  1.1000000000000D+00 -4.1385982564525D-03  6.9250486929255D-02
112  1.1100000000000D+00 -2.8512314245827D-03  4.5038379812768D-02
113  1.1200000000000D+00 -1.7458584516528D-03  2.5844299829993D-02
114  1.1300000000000D+00 -9.0761545135195D-04  1.1854101426458D-02
115  1.1400000000000D+00 -4.0163650686431D-04  3.3757239529538D-03
116  1.1500000000000D+00 -2.0687526685944D-04  1.0810534386023D-04
117  1.1600000000000D+00 -4.8838354951503D-05 -2.6718332768708D-04
118  1.1700000000000D+00  1.3071985604734D-05  3.4509748077295D-07
119  1.1800000000000D+00  0.0000000000000D+00  0.0000000000000D+00
120  1.1900000000000D+00  0.0000000000000D+00  0.0000000000000D+00
121  1.2000000000000D+00  0.0000000000000D+00  0.0000000000000D+00
122  1.2100000000000D+00  0.0000000000000D+00  0.0000000000000D+00
123  1.2200000000000D+00  0.0000000000000D+00  0.0000000000000D+00
124  1.2300000000000D+00  0.0000000000000D+00  0.0000000000000D+00
125  1.2400000000000D+00  0.0000000000000D+00  0.0000000000000D+00
126  1.2500000000000D+00  0.0000000000000D+00  0.0000000000000D+00
127  1.2600000000000D+00  0.0000000000000D+00  0.0000000000000D+00
128  1.2700000000000D+00  0.0000000000000D+00  0.0000000000000D+00
129  1.2800000000000D+00  0.0000000000000D+00  0.0000000000000D+00
130  1.2900000000000D+00  0.0000000000000D+00  0.0000000000000D+00
131  1.3000000000000D+00  0.0000000000000D+00  0.0000000000000D+00
132  1.3100000000000D+00  0.0000000000000D+00  0.0000000000000D+00
133  1.3200000000000D+00  0.0000000000000D+00  0.0000000000000D+00
134  1.3300000000000D+00  0.0000000000000D+00  0.0000000000000D+00
135  1.3400000000000D+00  0.0000000000000D+00  0.0000000000000D+00
136  1.3500000000000D+00  0.0000000000000D+00  0.0000000000000D+00
137  1.3600000000000D+00  0.0000000000000D+00  0.0000000000000D+00
138  1.3700000000000D+00  0.0000000000000D+00  0.0000000000000D+00
139  1.3800000000000D+00  0.0000000000000D+00  0.0000000000000D+00
140  1.3900000000000D+00  0.0000000000000D+00  0.0000000000000D+00
141  1.4000000000000D+00  0.0000000000000D+00  0.0000000000000D+00
142  1.4100000000000D+00  0.0000000000000D+00  0.0000000000000D+00
143  1.4200000000000D+00  0.0000000000000D+00  0.0000000000000D+00
144  1.4300000000000D+00  0.0000000000000D+00  0.0000000000000D+00
145  1.4400000000000D+00  0.0000000000000D+00  0.0000000000000D+00
146  1.4500000000000D+00  0.0000000000000D+00  0.0000000000000D+00
147  1.4600000000000D+00  0.0000000000000D+00  0.0000000000000D+00
148  1.4700000000000D+00  0.0000000000000D+00  0.0000000000000D+00
149  1.4800000000000D+00  0.0000000000000D+00  0.0000000000000D+00
150  1.4900000000000D+00  0.0000000000000D+00  0.0000000000000D+00
151  1.5000000000000D+00  0.0000000000000D+00  0.0000000000000D+00
152  1.5100000000000D+00  0.0000000000000D+00  0.0000000000000D+00
153  1.5200000000000D+00  0.0000000000000D+00  0.0000000000000D+00
154  1.5300000000000D+00  0.0000000000000D+00  0.0000000000000D+00
155  1.5400000000000D+00  0.0000000000000D+00  0.0000000000000D+00
156  1.5500000000000D+00  0.0000000000000D+00  0.0000000000000D+00
157  1.5600000000000D+00  0.0000000000000D+00  0.0000000000000D+00
158  1.5700000000000D+00  0.0000000000000D+00  0.0000000000000D+00
159  1.5800000000000D+00  0.0000000000000D+00  0.0000000000000D+00
160  1.5900000000000D+00  0.0000000000000D+00  0.0000000000000D+00
161  1.6000000000000D+00  0.0000000000000D+00  0.0000000000000D+00
162  1.6100000000000D+00  0.0000000000000D+00  0.0000000000000D+00
163  1.6200000000000D+00  0.0000000000000D+00  0.0000000000000D+00
164  1.6300000000000D+00  0.0000000000000D+00  0.0000000000000D+00
165  1.6400000000000D+00  0.0000000000000D+00  0.0000000000000D+00
166  1.6500000000000D+00  0.0000000000000D+00  0.0000000000000D+00
167  1.6600000000000D+00  0.0000000000000D+00  0.0000000000000D+00
168  1.6700000000000D+00  0.0000000000000D+00  0.0000000000000D+00
169  1.6800000000000D+00  0.0000000000000D+00  0.0000000000000D+00
170  1.6900000000000D+00  0.0000000000000D+00  0.0000000000000D+00
171  1.7000000000000D+00  0.0000000000000D+00  0.0000000000000D+00
172  1.7100000000000D+00  0.0000000000000D+00  0.0000000000000D+00
173  1.7200000000000D+00  0.0000000000000D+00  0.0000000000000D+00
174  1.7300000000000D+00  0.0000000000000D+00  0.0000000000000D+00
175  1.7400000000000D+00  0.0000000000000D+00  0.0000000000000D+00
176  1.7500000000000D+00  0.0000000000000D+00  0.0000000000000D+00
177  1.7600000000000D+00  0.0000000000000D+00  0.0000000000000D+00
178  1.7700000000000D+00  0.0000000000000D+00  0.0000000000000D+00
179  1.7800000000000D+00  0.0000000000000D+00  0.0000000000000D+00
180  1.7900000000000D+00  0.0000000000000D+00  0.0000000000000D+00
181  1.8000000000000D+00  0.0000000000000D+00  0.0000000000000D+00
182  1.8100000000000D+00  0.0000000000000D+00  0.0000000000000D+00
183  1.8200000000000D+00  0.0000000000000D+00  0.0000000000000D+00
184  1.8300000000000D+00  0.0000000000000D+00  0.0000000000000D+00
185  1.8400000000000D+00  0.0000000000000D+00  0.0000000000000D+00
186  1.8500000000000D+00  0.0000000000000D+00  0.0000000000000D+00
187  1.8600000000000D+00  0.0000000000000D+00  0.0000000000000D+00
188  1.8700000000000D+00  0.0000000000000D+00  0.0000000000000D+00
189  1.8800000000000D+00  0.0000000000000D+00  0.0000000000000D+00
190  1.8900000000000D+00  0.0000000000000D+00  0.0000000000000D+00
191  1.9000000000000D+00  0.0000000000000D+00  0.0000000000000D+00
192  1.9100000000000D+00  0.0000000000000D+00  0.0000000000000D+00
193  1.9200000000000D+00  0.0000000000000D+00  0.0000000000000D+00
194  1.9300000000000D+00  0.0000000000000D+00  0.0000000000000D+00
195  1.9400000000000D+00  0.0000000000000D+00  0.0000000000000D+00
196  1.9500000000000D+00  0.0000000000000D+00  0.0000000000000D+00
197  1.9600000000000D+00  0.0000000000000D+00  0.0000000000000D+00
198  1.9700000000000D+00  0.0000000000000D+00  0.0000000000000D+00
199  1.9800000000000D+00  0.0000000000000D+00  0.0000000000000D+00
200  1.9900000000000D+00  0.0000000000000D+00  0.0000000000000D+00
201  2.0000000000000D+00  0.0000000000000D+00  0.0000000000000D+00
202  2.0100000000000D+00  0.0000000000000D+00  0.0000000000000D+00
203  2.0200000000000D+00  0.0000000000000D+00  0.0000000000000D+00
204  2.0300000000000D+00  0.0000000000000D+00  0.0000000000000D+00
205  2.0400000000000D+00  0.0000000000000D+00  0.0000000000000D+00
206  2.0500000000000D+00  0.0000000000000D+00  0.0000000000000D+00
207  2.0600000000000D+00  0.0000000000000D+00  0.0000000000000D+00
208  2.0700000000000D+00  0.0000000000000D+00  0.0000000000000D+00
209  2.0800000000000D+00  0.0000000000000D+00  0.0000000000000D+00
210  2.0900000000000D+00  0.0000000000000D+00  0.0000000000000D+00
211  2.1000000000000D+00  0.0000000000000D+00  0.0000000000000D+00
212  2.1100000000000D+00  0.0000000000000D+00  0.0000000000000D+00
213  2.1200000000000D+00  0.0000000000000D+00  0.0000000000000D+00
214  2.1300000000000D+00  0.0000000000000D+00  0.0000000000000D+00
215  2.1400000000000D+00  0.0000000000000D+00  0.0000000000000D+00
216  2.1500000000000D+00  0.0000000000000D+00  0.0000000000000D+00
217  2.1600000000000D+00  0.0000000000000D+00  0.0000000000000D+00
218  2.1700000000000D+00  0.0000000000000D+00  0.0000000000000D+00
219  2.1800000000000D+00  0.0000000000000D+00  0.0000000000000D+00
220  2.1900000000000D+00  0.0000000000000D+00  0.0000000000000D+00
221  2.2000000000000D+00  0.0000000000000D+00  0.0000000000000D+00
222  2.2100000000000D+00  0.0000000000000D+00  0.0000000000000D+00
223  2.2200000000000D+00  0.0000000000000D+00  0.0000000000000D+00
224  2.2300000000000D+00  0.0000000000000D+00  0.0000000000000D+00
225  2.2400000000000D+00  0.0000000000000D+00  0.0000000000000D+00
226  2.2500000000000D+00  0.0000000000000D+00  0.0000000000000D+00
227  2.2600000000000D+00  0.0000000000000D+00  0.0000000000000D+00
228  2.2700000000000D+00  0.0000000000000D+00  0.0000000000000D+00
229  2.2800000000000D+00  0.0000000000000D+00  0.0000000000000D+00
230  2.2900000000000D+00  0.0000000000000D+00  0.0000000000000D+00
231  2.3000000000000D+00  0.0000000000000D+00  0.0000000000000D+00
232  2.3100000000000D+00  0.0000000000000D+00  0.0000000000000D+00
233  2.3200000000000D+00  0.0000000000000D+00  0.0000000000000D+00
234  2.3300000000000D+00  0.0000000000000D+00  0.0000000000000D+00
235  2.3400000000000D+00  0.0000000000000D+00  0.0000000000000D+00
236  2.3500000000000D+00  0.0000000000000D+00  0.0000000000000D+00
237  2.3600000000000D+00  0.0000000000000D+00  0.0000000000000D+00
238  2.3700000000000D+00  0.0000000000000D+00  0.0000000000000D+00
239  2.3800000000000D+00  0.0000000000000D+00  0.0000000000000D+00
240  2.3900000000000D+00  0.0000000000000D+00  0.0000000000000D+00
241  2.4000000000000D+00  0.0000000000000D+00  0.0000000000000D+00
242  2.4100000000000D+00  0.0000000000000D+00  0.0000000000000D+00
243  2.4200000000000D+00  0.0000000000000D+00  0.0000000000000D+00
244  2.4300000000000D+00  0.0000000000000D+00  0.0000000000000D+00
245  2.4400000000000D+00  0.0000000000000D+00  0.0000000000000D+00
246  2.4500000000000D+00  0.0000000000000D+00  0.0000000000000D+00
247  2.4600000000000D+00  0.0000000000000D+00  0.0000000000000D+00
248  2.4700000000000D+00  0.0000000000000D+00  0.0000000000000D+00
249  2.4800000000000D+00  0.0000000000000D+00  0.0000000000000D+00
250  2.4900000000000D+00  0.0000000000000D+00  0.0000000000000D+00
251  2.5000000000000D+00  0.0000000000000D+00  0.0000000000000D+00
252  2.5100000000000D+00  0.0000000000000D+00  0.0000000000000D+00
253  2.5200000000000D+00  0.0000000000000D+00  0.0000000000000D+00
254  2.5300000000000D+00  0.0000000000000D+00  0.0000000000000D+00
255  2.5400000000000D+00  0.0000000000000D+00  0.0000000000000D+00
256  2.5500000000000D+00  0.0000000000000D+00  0.0000000000000D+00
257  2.5600000000000D+00  0.0000000000000D+00  0.0000000000000D+00
258  2.5700000000000D+00  0.0000000000000D+00  0.0000000000000D+00
259  2.5800000000000D+00  0.0000000000000D+00  0.0000000000000D+00
260  2.5900000000000D+00  0.0000000000000D+00  0.0000000000000D+00
261  2.6000000000000D+00  0.0000000000000D+00  0.0000000000000D+00
262  2.6100000000000D+00  0.0000000000000D+00  0.0000000000000D+00
263  2.6200000000000D+00  0.0000000000000D+00  0.0000000000000D+00
264  2.6300000000000D+00  0.0000000000000D+00  0.0000000000000D+00
265  2.6400000000000D+00  0.0000000000000D+00  0.0000000000000D+00
266  2.6500000000000D+00  0.0000000000000D+00  0.0000000000000D+00
267  2.6600000000000D+00  0.0000000000000D+00  0.0000000000000D+00
268  2.6700000000000D+00  0.0000000000000D+00  0.0000000000000D+00
269  2.6800000000000D+00  0.0000000000000D+00  0.0000000000000D+00
270  2.6900000000000D+00  0.0000000000000D+00  0.0000000000000D+00
271  2.7000000000000D+00  0.0000000000000D+00  0.0000000000000D+00
272  2.7100000000000D+00  0.0000000000000D+00  0.0000000000000D+00
273  2.7200000000000D+00  0.0000000000000D+00  0.0000000000000D+00
274  2.7300000000000D+00  0.0000000000000D+00  0.0000000000000D+00
275  2.7400000000000D+00  0.0000000000000D+00  0.0000000000000D+00
276  2.7500000000000D+00  0.0000000000000D+00  0.0000000000000D+00
277  2.7600000000000D+00  0.0000000000000D+00  0.0000000000000D+00
278  2.7700000000000D+00  0.0000000000000D+00  0.0000000000000D+00
279  2.7800000000000D+00  0.0000000000000D+00  0.0000000000000D+00
280  2.7900000000000D+00  0.0000000000000D+00  0.0000000000000D+00
281  2.8000000000000D+00  0.0000000000000D+00  0.0000000000000D+00
282  2.8100000000000D+00  0.0000000000000D+00  0.0000000000000D+00
283  2.8200000000000D+00  0.0000000000000D+00  0.0000000000000D+00
284  2.8300000000000D+00  0.0000000000000D+00  0.0000000000000D+00
285  2.8400000000000D+00  0.0000000000000D+00  0.0000000000000D+00
286  2.8500000000000D+00  0.0000000000000D+00  0.0000000000000D+00
287  2.8600000000000D+00  0.0000000000000D+00  0.0000000000000D+00
288  2.8700000000000D+00  0.0000000000000D+00  0.0000000000000D+00
289  2.8800000000000D+00  0.0000000000000D+00  0.0000000000000D+00
290  2.8900000000000D+00  0.0000000000000D+00  0.0000000000000D+00
291  2.9000000000000D+00  0.0000000000000D+00  0.0000000000000D+00
292  2.9100000000000D+00  0.0000000000000D+00  0.0000000000000D+00
293  2.9200000000000D+00  0.0000000000000D+00  0.0000000000000D+00
294  2.9300000000000D+00  0.0000000000000D+00  0.0000000000000D+00
295  2.9400000000000D+00  0.0000000000000D+00  0.0000000000000D+00
296  2.9500000000000D+00  0.0000000000000D+00  0.0000000000000D+00
297  2.9600000000000D+00  0.0000000000000D+00  0.0000000000000D+00
298  2.9700000000000D+00  0.0000000000000D+00  0.0000000000000D+00
299  2.9800000000000D+00  0.0000000000000D+00  0.0000000000000D+00
300  2.9900000000000D+00  0.0000000000000D+00  0.0000000000000D+00
301  3.0000000000000D+00  0.0000000000000D+00  0.0000000000000D+00
302  3.0100000000000D+00  0.0000000000000D+00  0.0000000000000D+00
303  3.0200000000000D+00  0.0000000000000D+00  0.0000000000000D+00
304  3.0300000000000D+00  0.0000000000000D+00  0.0000000000000D+00
305  3.0400000000000D+00  0.0000000000000D+00  0.0000000000000D+00
306  3.0500000000000D+00  0.0000000000000D+00  0.0000000000000D+00
307  3.0600000000000D+00  0.0000000000000D+00  0.0000000000000D+00
308  3.0700000000000D+00  0.0000000000000D+00  0.0000000000000D+00
309  3.0800000000000D+00  0.0000000000000D+00  0.0000000000000D+00
310  3.0900000000000D+00  0.0000000000000D+00  0.0000000000000D+00
311  3.1000000000000D+00  0.0000000000000D+00  0.0000000000000D+00
312  3.1100000000000D+00  0.0000000000000D+00  0.0000000000000D+00
313  3.1200000000000D+00  0.0000000000000D+00  0.0000000000000D+00
314  3.1300000000000D+00  0.0000000000000D+00  0.0000000000000D+00
315  3.1400000000000D+00  0.0000000000000D+00  0.0000000000000D+00
316  3.1500000000000D+00  0.0000000000000D+00  0.0000000000000D+00
317  3.1600000000000D+00  0.0000000000000D+00  0.0000000000000D+00
318  3.1700000000000D+00  0.0000000000000D+00  0.0000000000000D+00
319  3.1800000000000D+00  0.0000000000000D+00  0.0000000000000D+00
320  3.1900000000000D+00  0.0000000000000D+00  0.0000000000000D+00
321  3.2000000000000D+00  0.0000000000000D+00  0.0000000000000D+00
322  3.2100000000000D+00  0.0000000000000D+00  0.0000000000000D+00
323  3.2200000000000D+00  0.0000000000000D+00  0.0000000000000D+00
324  3.2300000000000D+00  0.0000000000000D+00  0.0000000000000D+00
325  3.2400000000000D+00  0.0000000000000D+00  0.0000000000000D+00
326  3.2500000000000D+00  0.0000000000000D+00  0.0000000000000D+00
327  3.2600000000000D+00  0.0000000000000D+00  0.0000000000000D+00
328  3.2700000000000D+00  0.0000000000000D+00  0.0000000000000D+00
329  3.2800000000000D+00  0.0000000000000D+00  0.0000000000000D+00
330  3.2900000000000D+00  0.0000000000000D+00  0.0000000000000D+00
331  3.3000000000000D+00  0.0000000000000D+00  0.0000000000000D+00
332  3.3100000000000D+00  0.0000000000000D+00  0.0000000000000D+00
333  3.3200000000000D+00  0.0000000000000D+00  0.0000000000000D+00
334  3.3300000000000D+00  0.0000000000000D+00  0.0000000000000D+00
335  3.3400000000000D+00  0.0000000000000D+00  0.0000000000000D+00
336  3.3500000000000D+00  0.0000000000000D+00  0.0000000000000D+00
337  3.3600000000000D+00  0.0000000000000D+00  0.0000000000000D+00
338  3.3700000000000D+00  0.0000000000000D+00  0.0000000000000D+00
339  3.3800000000000D+00  0.0000000000000D+00  0.0000000000000D+00
340  3.3900000000000D+00  0.0000000000000D+00  0.0000000000000D+00
341  3.4000000000000D+00  0.0000000000000D+00  0.0000000000000D+00
342  3.4100000000000D+00  0.0000000000000D+00  0.0000000000000D+00
343  3.4200000000000D+00  0.0000000000000D+00  0.0000000000000D+00
344  3.4300000000000D+00  0.0000000000000D+00  0.0000000000000D+00
345  3.4400000000000D+00  0.0000000000000D+00  0.0000000000000D+00
346  3.4500000000000D+00  0.0000000000000D+00  0.0000000000000D+00
347  3.4600000000000D+00  0.0000000000000D+00  0.0000000000000D+00
348  3.4700000000000D+00  0.0000000000000D+00  0.0000000000000D+00
349  3.4800000000000D+00  0.0000000000000D+00  0.0000000000000D+00
350  3.4900000000000D+00  0.0000000000000D+00  0.0000000000000D+00
351  3.5000000000000D+00  0.0000000000000D+00  0.0000000000000D+00
352  3.5100000000000D+00  0.0000000000000D+00  0.0000000000000D+00
353  3.5200000000000D+00  0.0000000000000D+00  0.0000000000000D+00
354  3.5300000000000D+00  0.0000000000000D+00  0.0000000000000D+00
355  3.5400000000000D+00  0.0000000000000D+00  0.0000000000000D+00
356  3.5500000000000D+00  0.0000000000000D+00  0.0000000000000D+00
357  3.5600000000000D+00  0.0000000000000D+00  0.0000000000000D+00
358  3.5700000000000D+00  0.0000000000000D+00  0.0000000000000D+00
359  3.5800000000000D+00  0.0000000000000D+00  0.0000000000000D+00
360  3.5900000000000D+00  0.0000000000000D+00  0.0000000000000D+00
361  3.6000000000000D+00  0.0000000000000D+00  0.0000000000000D+00
362  3.6100000000000D+00  0.0000000000000D+00  0.0000000000000D+00
363  3.6200000000000D+00  0.0000000000000D+00  0.0000000000000D+00
364  3.6300000000000D+00  0.0000000000000D+00  0.0000000000000D+00
365  3.6400000000000D+00  0.0000000000000D+00  0.0000000000000D+00
366  3.6500000000000D+00  0.0000000000000D+00  0.0000000000000D+00
367  3.6600000000000D+00  0.0000000000000D+00  0.0000000000000D+00
368  3.6700000000000D+00  0.0000000000000D+00  0.0000000000000D+00
369  3.6800000000000D+00  0.0000000000000D+00  0.0000000000000D+00
370  3.6900000000000D+00  0.0000000000000D+00  0.0000000000000D+00
371  3.7000000000000D+00  0.0000000000000D+00  0.0000000000000D+00
372  3.7100000000000D+00  0.0000000000000D+00  0.0000000000000D+00
373  3.7200000000000D+00  0.0000000000000D+00  0.0000000000000D+00
374  3.7300000000000D+00  0.0000000000000D+00  0.0000000000000D+00
375  3.7400000000000D+00  0.0000000000000D+00  0.0000000000000D+00
376  3.7500000000000D+00  0.0000000000000D+00  0.0000000000000D+00
377  3.7600000000000D+00  0.0000000000000D+00  0.0000000000000D+00
378  3.7700000000000D+00  0.0000000000000D+00  0.0000000000000D+00
379  3.7800000000000D+00  0.0000000000000D+00  0.0000000000000D+00
380  3.7900000000000D+00  0.0000000000000D+00  0.0000000000000D+00
381  3.8000000000000D+00  0.0000000000000D+00  0.0000000000000D+00
382  3.8100000000000D+00  0.0000000000000D+00  0.0000000000000D+00
383  3.8200000000000D+00  0.0000000000000D+00  0.0000000000000D+00
384  3.8300000000000D+00  0.0000000000000D+00  0.0000000000000D+00
385  3.8400000000000D+00  0.0000000000000D+00  0.0000000000000D+00
386  3.8500000000000D+00  0.0000000000000D+00  0.0000000000000D+00
387  3.8600000000000D+00  0.0000000000000D+00  0.0000000000000D+00
388  3.8700000000000D+00  0.0000000000000D+00  0.0000000000000D+00
389  3.8800000000000D+00  0.0000000000000D+00  0.0000000000000D+00
390  3.8900000000000D+00  0.0000000000000D+00  0.0000000000000D+00
391  3.9000000000000D+00  0.0000000000000D+00  0.0000000000000D+00
392  3.9100000000000D+00  0.0000000000000D+00  0.0000000000000D+00
393  3.9200000000000D+00  0.0000000000000D+00  0.0000000000000D+00
394  3.9300000000000D+00  0.0000000000000D+00  0.0000000000000D+00
395  3.9400000000000D+00  0.0000000000000D+00  0.0000000000000D+00
396  3.9500000000000D+00  0.0000000000000D+00  0.0000000000000D+00
397  3.9600000000000D+00  0.0000000000000D+00  0.0000000000000D+00
398  3.9700000000000D+00  0.0000000000000D+00  0.0000000000000D+00
399  3.9800000000000D+00  0.0000000000000D+00  0.0000000000000D+00
400  3.9900000000000D+00  0.0000000000000D+00  0.0000000000000D+00
401  4.0000000000000D+00  0.0000000000000D+00  0.0000000000000D+00
1                        -6.1840033161649D+00 -2.1961545374696D+00
1  0.0000000000000D+00  0.0000000000000D+00  0.0000000000000D+00
2  1.0000000000000D-02  1.8904127301646D-03  6.3899977159943D-04
3  2.0000000000000D-02  7.5537778861349D-03  2.5511085273998D-03
4  3.0000000000000D-02  1.6966499968124D-02  5.7216685127071D-03
5  4.0000000000000D-02  3.0089331860840D-02  1.0126296664610D-02
6  5.0000000000000D-02  4.6867493042629D-02  1.5730954823918D-02
7  6.0000000000000D-02  6.7230835336957D-02  2.2492048860716D-02
8  7.0000000000000D-02  9.1094056449981D-02  3.0356557518756D-02
9  8.0000000000000D-02  1.1835696158574D-01  3.9262191980079D-02
10  9.0000000000000D-02  1.4890477346403D-01  4.9137587323604D-02
11  1.0000000000000D-01  1.8260849107892D-01  5.9902527193449D-02
12  1.1000000000000D-01  2.1932529752877D-01  7.1468203101262D-02
13  1.2000000000000D-01  2.5889901721879D-01  8.3737509858956D-02
14  1.3000000000000D-01  3.0116062268314D-01  9.6605378670485D-02
15  1.4000000000000D-01  3.4592879116403D-01  1.0995914937847D-01
16  1.5000000000000D-01  3.9301051104094D-01  1.2367898335227D-01
17  1.6000000000000D-01  4.4220173792550D-01  1.3763831829512D-01
18  1.7000000000000D-01  4.9328810027695D-01  1.5170436625238D-01
19  1.8000000000000D-01  5.4604565389637D-01  1.6573865567008D-01
20  1.9000000000000D-01  6.0024168479845D-01  1.7959761839309D-01
21  2.0000000000000D-01  6.5563555909083D-01  1.9313322168892D-01
22  2.1000000000000D-01  7.1197961940541D-01  2.0619364605471D-01
23  2.2000000000000D-01  7.6902012514968D-01  2.1862400749691D-01
24  2.3000000000000D-01  8.2649823570968D-01  2.3026712442704D-01
25  2.4000000000000D-01  8.8415103336709D-01  2.4096432708761D-01
26  2.5000000000000D-01  9.4171258518726D-01  2.5055630956815D-01
27  2.6000000000000D-01  9.9891503674638D-01  2.5888401828994D-01
28  2.7000000000000D-01  1.0554897405733D+00  2.6578958017145D-01
29  2.8000000000000D-01  1.1111684085550D+00  2.7111726049145D-01
30  2.9000000000000D-01  1.1656842891872D+00  2.7471445144917D-01
31  3.0000000000000D-01  1.2187733627801D+00  2.7643268476764D-01
32  3.1000000000000D-01  1.2701755499431D+00  2.7612866361146D-01
33  3.2000000000000D-01  1.3196359267915D+00  2.7366530694586D-01
34  3.3000000000000D-01  1.3669059463462D+00  2.6891280584735D-01
35  3.4000000000000D-01  1.4117446500163D+00  2.6174967436534D-01
36  3.5000000000000D-01  1.4539198731807D+00  2.5206379895628D-01
37  3.6000000000000D-01  1.4932094321950D+00  2.3975347260512D-01
38  3.7000000000000D-01  1.5294022886113D+00  2.2472840866117D-01
39  3.8000000000000D-01  1.5622996789338D+00  2.0691072074884D-01
40  3.9000000000000D-01  1.5917162112928D+00  1.8623587048979D-01
41  4.0000000000000D-01  1.6174809135568D+00  1.6265356485900D-01
42  4.1000000000000D-01  1.6394382283527D+00  1.3612859738359D-01