Na    ONCVPSP  r_core=  1.21  1.51
11.0000      9.0000      140826    zatom,zion,pspd
8    11     1     4   401     0    pspcod,pspxc,lmax,lloc,mmax,r2well
4.00000000  0.15000000  0.00000000    rchrg fchrg qchrg
2     2     0     0     0    nproj
0                 extension_switch
0                         2.1297408410970D+00 -6.8363665604065D-01
1  0.0000000000000D+00  0.0000000000000D+00  0.0000000000000D+00
2  1.0000000000000D-02  1.1752310208386D-01  2.0526605884100D-02
3  2.0000000000000D-02  2.3377845295701D-01  4.1021670832255D-02
4  3.0000000000000D-02  3.4752219602050D-01  6.1455546711649D-02
5  4.0000000000000D-02  4.5755776484742D-01  8.1802320940677D-02
6  5.0000000000000D-02  5.6275829106485D-01  1.0204156023933D-01
7  6.0000000000000D-02  6.6208755651765D-01  1.2215990863711D-01
8  7.0000000000000D-02  7.5461905218958D-01  1.4215249624495D-01
9  8.0000000000000D-02  8.3955274566458D-01  1.6202411949597D-01
10  9.0000000000000D-02  9.1622920716734D-01  1.8179015868812D-01
11  1.0000000000000D-01  9.8414079901033D-01  2.0147720450826D-01
12  1.1000000000000D-01  1.0429396950257D+00  2.2112337177379D-01
13  1.2000000000000D-01  1.0924425629584D+00  2.4077828567116D-01
14  1.3000000000000D-01  1.1326318124584D+00  2.6050273314469D-01
15  1.4000000000000D-01  1.1636533831514D+00  2.8036797980171D-01
16  1.5000000000000D-01  1.1858111208071D+00  3.0045476013452D-01
17  1.6000000000000D-01  1.1995578611849D+00  3.2085195697244D-01
18  1.7000000000000D-01  1.2054834071865D+00  3.4165499214313D-01
19  1.8000000000000D-01  1.2042996596169D+00  3.6296395917184D-01
20  1.9000000000000D-01  1.1968232038985D+00  3.8488153198113D-01
21  2.0000000000000D-01  1.1839557538916D+00  4.0751069530303D-01
22  2.1000000000000D-01  1.1666627924595D+00  4.3095233341902D-01
23  2.2000000000000D-01  1.1459509701884D+00  4.5530274067275D-01
24  2.3000000000000D-01  1.1228446428497D+00  4.8065109381166D-01
25  2.4000000000000D-01  1.0983621463593D+00  5.0707695200527D-01
26  2.5000000000000D-01  1.0734921003871D+00  5.3464781519800D-01
27  2.6000000000000D-01  1.0491707121805D+00  5.6341684594901D-01
28  2.7000000000000D-01  1.0262598512944D+00  5.9342072845993D-01
29  2.8000000000000D-01  1.0055271520713D+00  6.2467779923453D-01
30  2.9000000000000D-01  9.8762799160745D-01  6.5718643139777D-01
31  3.0000000000000D-01  9.7308999473697D-01  6.9092374090903D-01
32  3.1000000000000D-01  9.6230036637861D-01  7.2584464450751D-01
33  3.2000000000000D-01  9.5549642945656D-01  7.6188130494225D-01
34  3.3000000000000D-01  9.5275912538062D-01  7.9894294342367D-01
35  3.4000000000000D-01  9.5401052960440D-01  8.3691611231040D-01
36  3.5000000000000D-01  9.5901450283243D-01  8.7566534573255D-01
37  3.6000000000000D-01  9.6738105426328D-01  9.1503423795876D-01
38  3.7000000000000D-01  9.7857413218540D-01  9.5484691977425D-01
39  3.8000000000000D-01  9.9192289772372D-01  9.9490991579724D-01
40  3.9000000000000D-01  1.0066359005737D+00  1.0350143503424D+00
41  4.0000000000000D-01  1.0218182921869D+00  1.0749384823183D+00
42  4.1000000000000D-01  1.0364914524118D+00  1.1144504975137D+00
43  4.2000000000000D-01  1.0496147207550D+00  1.1533115383967D+00
44  4.3000000000000D-01  1.0601088054890D+00  1.1912789070960D+00
45  4.4000000000000D-01  1.0668803751819D+00  1.2281093862050D+00
46  4.5000000000000D-01  1.0688473224837D+00  1.2635626176619D+00
47  4.6000000000000D-01  1.0649641687017D+00  1.2974044776765D+00
48  4.7000000000000D-01  1.0542468856246D+00  1.3294103583497D+00
49  4.8000000000000D-01  1.0357970276822D+00  1.3593683577818D+00
50  4.9000000000000D-01  1.0088252029673D+00  1.3870823923482D+00
51  5.0000000000000D-01  9.7267095122670D-01  1.4123748265652D+00
52  5.1000000000000D-01  9.2682039528975D-01  1.4350888357074D+00
53  5.2000000000000D-01  8.7092400152503D-01  1.4550908357761D+00
54  5.3000000000000D-01  8.0480825871780D-01  1.4722721151129D+00
55  5.4000000000000D-01  7.2848196319228D-01  1.4865497704193D+00
56  5.5000000000000D-01  6.4214808420619D-01  1.4978685234345D+00
57  5.6000000000000D-01  5.4619797765491D-01  1.5062000960609D+00
58  5.7000000000000D-01  4.4121596431693D-01  1.5115441759766D+00
59  5.8000000000000D-01  3.2796771136570D-01  1.5139271148118D+00
60  5.9000000000000D-01  2.0739582263812D-01  1.5134018254416D+00
61  6.0000000000000D-01  8.0601387720332D-02  1.5100456060120D+00
62  6.1000000000000D-01 -5.1167862841699D-02  1.5039592249800D+00
63  6.2000000000000D-01 -1.8654066767684D-01  1.4952641755960D+00
64  6.3000000000000D-01 -3.2404289805462D-01  1.4841005483692D+00
65  6.4000000000000D-01 -4.6212302020493D-01  1.4706242614876D+00
66  6.5000000000000D-01 -5.9917744041942D-01  1.4550041217383D+00
67  6.6000000000000D-01 -7.3357839282221D-01  1.4374187762225D+00
68  6.7000000000000D-01 -8.6370444530793D-01  1.4180533104928D+00
69  6.8000000000000D-01 -9.8796638672734D-01  1.3970962152513D+00
70  6.9000000000000D-01 -1.1048345900952D+00  1.3747362741537D+00
71  7.0000000000000D-01 -1.2128693153527D+00  1.3511591324377D+00
72  7.1000000000000D-01 -1.3107467658585D+00  1.3265442616718D+00
73  7.2000000000000D-01 -1.3972798797062D+00  1.3010624775859D+00
74  7.3000000000000D-01 -1.4714408493917D+00  1.2748732982926D+00
75  7.4000000000000D-01 -1.5323796174165D+00  1.2481227196925D+00
76  7.5000000000000D-01 -1.5794369055427D+00  1.2209415806439D+00
77  7.6000000000000D-01 -1.6121625387484D+00  1.1934433510367D+00
78  7.7000000000000D-01 -1.6303173717038D+00  1.1657236902557D+00
79  7.8000000000000D-01 -1.6338782457721D+00  1.1378596880719D+00
80  7.9000000000000D-01 -1.6230383127678D+00  1.1099096060489D+00
81  8.0000000000000D-01 -1.5982029295817D+00  1.0819131012168D+00
82  8.1000000000000D-01 -1.5599816100641D+00  1.0538918798166D+00
83  8.2000000000000D-01 -1.5091761963583D+00  1.0258507636058D+00
84  8.3000000000000D-01 -1.4467654883186D+00  9.9777914264297D-01
85  8.4000000000000D-01 -1.3738866407676D+00  9.6965278050025D-01
86  8.5000000000000D-01 -1.2918137028785D+00  9.4143593062481D-01
87  8.6000000000000D-01 -1.2019337308597D+00  9.1308371620753D-01
88  8.7000000000000D-01 -1.1057209534686D+00  8.8454472051349D-01
89  8.8000000000000D-01 -1.0047095089517D+00  8.5576373027411D-01
90  8.9000000000000D-01 -9.0046530110552D-01  8.2668457150722D-01
91  9.0000000000000D-01 -7.9455754062156D-01  7.9725297509599D-01
92  9.1000000000000D-01 -6.8853054502008D-01  7.6741940869568D-01
93  9.2000000000000D-01 -5.8387636555805D-01  7.3714181213278D-01
94  9.3000000000000D-01 -4.8200879176387D-01  7.0638817549497D-01
95  9.4000000000000D-01 -3.8423925302935D-01  6.7513890265934D-01
96  9.5000000000000D-01 -2.9175910248631D-01  6.4338853967316D-01
97  9.6000000000000D-01 -2.0561129995668D-01  6.1114842681331D-01
98  9.7000000000000D-01 -1.2667843030123D-01  5.7844777906434D-01
99  9.8000000000000D-01 -5.5673006506074D-02  5.4533448603306D-01
100  9.9000000000000D-01  6.8728535006970D-03  5.1187589916202D-01
101  1.0000000000000D+00  6.0612216358726D-02  4.7815903641686D-01
102  1.0100000000000D+00  1.0538425465856D-01  4.4429035855640D-01
103  1.0200000000000D+00  1.4120536783519D-01  4.1039466055262D-01
104  1.0300000000000D+00  1.6828055952201D-01  3.7661552146432D-01
105  1.0400000000000D+00  1.8698159742577D-01  3.4311276941373D-01
106  1.0500000000000D+00  1.9782967475185D-01  3.1006037985995D-01
107  1.0600000000000D+00  2.0148199262101D-01  2.7764458449046D-01
108  1.0700000000000D+00  1.9871153157601D-01  2.4606157084573D-01
109  1.0800000000000D+00  1.9039372043121D-01  2.1551521059409D-01
110  1.0900000000000D+00  1.7747557416183D-01  1.8621317850608D-01
111  1.1000000000000D+00  1.6094827951044D-01  1.5836422457494D-01
112  1.1100000000000D+00  1.4182691215973D-01  1.3217550633988D-01
113  1.1200000000000D+00  1.2113492181863D-01  1.0785098472394D-01
114  1.1300000000000D+00  9.9852304962537D-02  8.5583585927010D-02
115  1.1400000000000D+00  7.8910429396514D-02  6.5556263355364D-02
116  1.1500000000000D+00  5.9173500281035D-02  4.7939384955497D-02
117  1.1600000000000D+00  4.1423695666556D-02  3.2888918056387D-02
118  1.1700000000000D+00  2.6295393710828D-02  2.0537144446894D-02
119  1.1800000000000D+00  1.4310874567227D-02  1.0998575821134D-02
120  1.1900000000000D+00  5.8778329369321D-03  4.3696204693825D-03
121  1.2000000000000D+00  1.4728981697667D-03  9.0868092766001D-04
122  1.2100000000000D+00 -2.3112060429249D-06 -1.8989325062660D-04
123  1.2200000000000D+00 -5.0725808637810D-05 -6.2033900946894D-05
124  1.2300000000000D+00 -1.4575271091412D-05  2.5462515139898D-06
125  1.2400000000000D+00  0.0000000000000D+00  0.0000000000000D+00
126  1.2500000000000D+00  0.0000000000000D+00  0.0000000000000D+00
127  1.2600000000000D+00  0.0000000000000D+00  0.0000000000000D+00
128  1.2700000000000D+00  0.0000000000000D+00  0.0000000000000D+00
129  1.2800000000000D+00  0.0000000000000D+00  0.0000000000000D+00
130  1.2900000000000D+00  0.0000000000000D+00  0.0000000000000D+00
131  1.3000000000000D+00  0.0000000000000D+00  0.0000000000000D+00
132  1.3100000000000D+00  0.0000000000000D+00  0.0000000000000D+00
133  1.3200000000000D+00  0.0000000000000D+00  0.0000000000000D+00
134  1.3300000000000D+00  0.0000000000000D+00  0.0000000000000D+00
135  1.3400000000000D+00  0.0000000000000D+00  0.0000000000000D+00
136  1.3500000000000D+00  0.0000000000000D+00  0.0000000000000D+00
137  1.3600000000000D+00  0.0000000000000D+00  0.0000000000000D+00
138  1.3700000000000D+00  0.0000000000000D+00  0.0000000000000D+00
139  1.3800000000000D+00  0.0000000000000D+00  0.0000000000000D+00
140  1.3900000000000D+00  0.0000000000000D+00  0.0000000000000D+00
141  1.4000000000000D+00  0.0000000000000D+00  0.0000000000000D+00
142  1.4100000000000D+00  0.0000000000000D+00  0.0000000000000D+00
143  1.4200000000000D+00  0.0000000000000D+00  0.0000000000000D+00
144  1.4300000000000D+00  0.0000000000000D+00  0.0000000000000D+00
145  1.4400000000000D+00  0.0000000000000D+00  0.0000000000000D+00
146  1.4500000000000D+00  0.0000000000000D+00  0.0000000000000D+00
147  1.4600000000000D+00  0.0000000000000D+00  0.0000000000000D+00
148  1.4700000000000D+00  0.0000000000000D+00  0.0000000000000D+00
149  1.4800000000000D+00  0.0000000000000D+00  0.0000000000000D+00
150  1.4900000000000D+00  0.0000000000000D+00  0.0000000000000D+00
151  1.5000000000000D+00  0.0000000000000D+00  0.0000000000000D+00
152  1.5100000000000D+00  0.0000000000000D+00  0.0000000000000D+00
153  1.5200000000000D+00  0.0000000000000D+00  0.0000000000000D+00
154  1.5300000000000D+00  0.0000000000000D+00  0.0000000000000D+00
155  1.5400000000000D+00  0.0000000000000D+00  0.0000000000000D+00
156  1.5500000000000D+00  0.0000000000000D+00  0.0000000000000D+00
157  1.5600000000000D+00  0.0000000000000D+00  0.0000000000000D+00
158  1.5700000000000D+00  0.0000000000000D+00  0.0000000000000D+00
159  1.5800000000000D+00  0.0000000000000D+00  0.0000000000000D+00
160  1.5900000000000D+00  0.0000000000000D+00  0.0000000000000D+00
161  1.6000000000000D+00  0.0000000000000D+00  0.0000000000000D+00
162  1.6100000000000D+00  0.0000000000000D+00  0.0000000000000D+00
163  1.6200000000000D+00  0.0000000000000D+00  0.0000000000000D+00
164  1.6300000000000D+00  0.0000000000000D+00  0.0000000000000D+00
165  1.6400000000000D+00  0.0000000000000D+00  0.0000000000000D+00
166  1.6500000000000D+00  0.0000000000000D+00  0.0000000000000D+00
167  1.6600000000000D+00  0.0000000000000D+00  0.0000000000000D+00
168  1.6700000000000D+00  0.0000000000000D+00  0.0000000000000D+00
169  1.6800000000000D+00  0.0000000000000D+00  0.0000000000000D+00
170  1.6900000000000D+00  0.0000000000000D+00  0.0000000000000D+00
171  1.7000000000000D+00  0.0000000000000D+00  0.0000000000000D+00
172  1.7100000000000D+00  0.0000000000000D+00  0.0000000000000D+00
173  1.7200000000000D+00  0.0000000000000D+00  0.0000000000000D+00
174  1.7300000000000D+00  0.0000000000000D+00  0.0000000000000D+00
175  1.7400000000000D+00  0.0000000000000D+00  0.0000000000000D+00
176  1.7500000000000D+00  0.0000000000000D+00  0.0000000000000D+00
177  1.7600000000000D+00  0.0000000000000D+00  0.0000000000000D+00
178  1.7700000000000D+00  0.0000000000000D+00  0.0000000000000D+00
179  1.7800000000000D+00  0.0000000000000D+00  0.0000000000000D+00
180  1.7900000000000D+00  0.0000000000000D+00  0.0000000000000D+00
181  1.8000000000000D+00  0.0000000000000D+00  0.0000000000000D+00
182  1.8100000000000D+00  0.0000000000000D+00  0.0000000000000D+00
183  1.8200000000000D+00  0.0000000000000D+00  0.0000000000000D+00
184  1.8300000000000D+00  0.0000000000000D+00  0.0000000000000D+00
185  1.8400000000000D+00  0.0000000000000D+00  0.0000000000000D+00
186  1.8500000000000D+00  0.0000000000000D+00  0.0000000000000D+00
187  1.8600000000000D+00  0.0000000000000D+00  0.0000000000000D+00
188  1.8700000000000D+00  0.0000000000000D+00  0.0000000000000D+00
189  1.8800000000000D+00  0.0000000000000D+00  0.0000000000000D+00
190  1.8900000000000D+00  0.0000000000000D+00  0.0000000000000D+00
191  1.9000000000000D+00  0.0000000000000D+00  0.0000000000000D+00
192  1.9100000000000D+00  0.0000000000000D+00  0.0000000000000D+00
193  1.9200000000000D+00  0.0000000000000D+00  0.0000000000000D+00
194  1.9300000000000D+00  0.0000000000000D+00  0.0000000000000D+00
195  1.9400000000000D+00  0.0000000000000D+00  0.0000000000000D+00
196  1.9500000000000D+00  0.0000000000000D+00  0.0000000000000D+00
197  1.9600000000000D+00  0.0000000000000D+00  0.0000000000000D+00
198  1.9700000000000D+00  0.0000000000000D+00  0.0000000000000D+00
199  1.9800000000000D+00  0.0000000000000D+00  0.0000000000000D+00
200  1.9900000000000D+00  0.0000000000000D+00  0.0000000000000D+00
201  2.0000000000000D+00  0.0000000000000D+00  0.0000000000000D+00
202  2.0100000000000D+00  0.0000000000000D+00  0.0000000000000D+00
203  2.0200000000000D+00  0.0000000000000D+00  0.0000000000000D+00
204  2.0300000000000D+00  0.0000000000000D+00  0.0000000000000D+00
205  2.0400000000000D+00  0.0000000000000D+00  0.0000000000000D+00
206  2.0500000000000D+00  0.0000000000000D+00  0.0000000000000D+00
207  2.0600000000000D+00  0.0000000000000D+00  0.0000000000000D+00
208  2.0700000000000D+00  0.0000000000000D+00  0.0000000000000D+00
209  2.0800000000000D+00  0.0000000000000D+00  0.0000000000000D+00
210  2.0900000000000D+00  0.0000000000000D+00  0.0000000000000D+00
211  2.1000000000000D+00  0.0000000000000D+00  0.0000000000000D+00
212  2.1100000000000D+00  0.0000000000000D+00  0.0000000000000D+00
213  2.1200000000000D+00  0.0000000000000D+00  0.0000000000000D+00
214  2.1300000000000D+00  0.0000000000000D+00  0.0000000000000D+00
215  2.1400000000000D+00  0.0000000000000D+00  0.0000000000000D+00
216  2.1500000000000D+00  0.0000000000000D+00  0.0000000000000D+00
217  2.1600000000000D+00  0.0000000000000D+00  0.0000000000000D+00
218  2.1700000000000D+00  0.0000000000000D+00  0.0000000000000D+00
219  2.1800000000000D+00  0.0000000000000D+00  0.0000000000000D+00
220  2.1900000000000D+00  0.0000000000000D+00  0.0000000000000D+00
221  2.2000000000000D+00  0.0000000000000D+00  0.0000000000000D+00
222  2.2100000000000D+00  0.0000000000000D+00  0.0000000000000D+00
223  2.2200000000000D+00  0.0000000000000D+00  0.0000000000000D+00
224  2.2300000000000D+00  0.0000000000000D+00  0.0000000000000D+00
225  2.2400000000000D+00  0.0000000000000D+00  0.0000000000000D+00
226  2.2500000000000D+00  0.0000000000000D+00  0.0000000000000D+00
227  2.2600000000000D+00  0.0000000000000D+00  0.0000000000000D+00
228  2.2700000000000D+00  0.0000000000000D+00  0.0000000000000D+00
229  2.2800000000000D+00  0.0000000000000D+00  0.0000000000000D+00
230  2.2900000000000D+00  0.0000000000000D+00  0.0000000000000D+00
231  2.3000000000000D+00  0.0000000000000D+00  0.0000000000000D+00
232  2.3100000000000D+00  0.0000000000000D+00  0.0000000000000D+00
233  2.3200000000000D+00  0.0000000000000D+00  0.0000000000000D+00
234  2.3300000000000D+00  0.0000000000000D+00  0.0000000000000D+00
235  2.3400000000000D+00  0.0000000000000D+00  0.0000000000000D+00
236  2.3500000000000D+00  0.0000000000000D+00  0.0000000000000D+00
237  2.3600000000000D+00  0.0000000000000D+00  0.0000000000000D+00
238  2.3700000000000D+00  0.0000000000000D+00  0.0000000000000D+00
239  2.3800000000000D+00  0.0000000000000D+00  0.0000000000000D+00
240  2.3900000000000D+00  0.0000000000000D+00  0.0000000000000D+00
241  2.4000000000000D+00  0.0000000000000D+00  0.0000000000000D+00
242  2.4100000000000D+00  0.0000000000000D+00  0.0000000000000D+00
243  2.4200000000000D+00  0.0000000000000D+00  0.0000000000000D+00
244  2.4300000000000D+00  0.0000000000000D+00  0.0000000000000D+00
245  2.4400000000000D+00  0.0000000000000D+00  0.0000000000000D+00
246  2.4500000000000D+00  0.0000000000000D+00  0.0000000000000D+00
247  2.4600000000000D+00  0.0000000000000D+00  0.0000000000000D+00
248  2.4700000000000D+00  0.0000000000000D+00  0.0000000000000D+00
249  2.4800000000000D+00  0.0000000000000D+00  0.0000000000000D+00
250  2.4900000000000D+00  0.0000000000000D+00  0.0000000000000D+00
251  2.5000000000000D+00  0.0000000000000D+00  0.0000000000000D+00
252  2.5100000000000D+00  0.0000000000000D+00  0.0000000000000D+00
253  2.5200000000000D+00  0.0000000000000D+00  0.0000000000000D+00
254  2.5300000000000D+00  0.0000000000000D+00  0.0000000000000D+00
255  2.5400000000000D+00  0.0000000000000D+00  0.0000000000000D+00
256  2.5500000000000D+00  0.0000000000000D+00  0.0000000000000D+00
257  2.5600000000000D+00  0.0000000000000D+00  0.0000000000000D+00
258  2.5700000000000D+00  0.0000000000000D+00  0.0000000000000D+00
259  2.5800000000000D+00  0.0000000000000D+00  0.0000000000000D+00
260  2.5900000000000D+00  0.0000000000000D+00  0.0000000000000D+00
261  2.6000000000000D+00  0.0000000000000D+00  0.0000000000000D+00
262  2.6100000000000D+00  0.0000000000000D+00  0.0000000000000D+00
263  2.6200000000000D+00  0.0000000000000D+00  0.0000000000000D+00
264  2.6300000000000D+00  0.0000000000000D+00  0.0000000000000D+00
265  2.6400000000000D+00  0.0000000000000D+00  0.0000000000000D+00
266  2.6500000000000D+00  0.0000000000000D+00  0.0000000000000D+00
267  2.6600000000000D+00  0.0000000000000D+00  0.0000000000000D+00
268  2.6700000000000D+00  0.0000000000000D+00  0.0000000000000D+00
269  2.6800000000000D+00  0.0000000000000D+00  0.0000000000000D+00
270  2.6900000000000D+00  0.0000000000000D+00  0.0000000000000D+00
271  2.7000000000000D+00  0.0000000000000D+00  0.0000000000000D+00
272  2.7100000000000D+00  0.0000000000000D+00  0.0000000000000D+00
273  2.7200000000000D+00  0.0000000000000D+00  0.0000000000000D+00
274  2.7300000000000D+00  0.0000000000000D+00  0.0000000000000D+00
275  2.7400000000000D+00  0.0000000000000D+00  0.0000000000000D+00
276  2.7500000000000D+00  0.0000000000000D+00  0.0000000000000D+00
277  2.7600000000000D+00  0.0000000000000D+00  0.0000000000000D+00
278  2.7700000000000D+00  0.0000000000000D+00  0.0000000000000D+00
279  2.7800000000000D+00  0.0000000000000D+00  0.0000000000000D+00
280  2.7900000000000D+00  0.0000000000000D+00  0.0000000000000D+00
281  2.8000000000000D+00  0.0000000000000D+00  0.0000000000000D+00
282  2.8100000000000D+00  0.0000000000000D+00  0.0000000000000D+00
283  2.8200000000000D+00  0.0000000000000D+00  0.0000000000000D+00
284  2.8300000000000D+00  0.0000000000000D+00  0.0000000000000D+00
285  2.8400000000000D+00  0.0000000000000D+00  0.0000000000000D+00
286  2.8500000000000D+00  0.0000000000000D+00  0.0000000000000D+00
287  2.8600000000000D+00  0.0000000000000D+00  0.0000000000000D+00
288  2.8700000000000D+00  0.0000000000000D+00  0.0000000000000D+00
289  2.8800000000000D+00  0.0000000000000D+00  0.0000000000000D+00
290  2.8900000000000D+00  0.0000000000000D+00  0.0000000000000D+00
291  2.9000000000000D+00  0.0000000000000D+00  0.0000000000000D+00
292  2.9100000000000D+00  0.0000000000000D+00  0.0000000000000D+00
293  2.9200000000000D+00  0.0000000000000D+00  0.0000000000000D+00
294  2.9300000000000D+00  0.0000000000000D+00  0.0000000000000D+00
295  2.9400000000000D+00  0.0000000000000D+00  0.0000000000000D+00
296  2.9500000000000D+00  0.0000000000000D+00  0.0000000000000D+00
297  2.9600000000000D+00  0.0000000000000D+00  0.0000000000000D+00
298  2.9700000000000D+00  0.0000000000000D+00  0.0000000000000D+00
299  2.9800000000000D+00  0.0000000000000D+00  0.0000000000000D+00
300  2.9900000000000D+00  0.0000000000000D+00  0.0000000000000D+00
301  3.0000000000000D+00  0.0000000000000D+00  0.0000000000000D+00
302  3.0100000000000D+00  0.0000000000000D+00  0.0000000000000D+00
303  3.0200000000000D+00  0.0000000000000D+00  0.0000000000000D+00
304  3.0300000000000D+00  0.0000000000000D+00  0.0000000000000D+00
305  3.0400000000000D+00  0.0000000000000D+00  0.0000000000000D+00
306  3.0500000000000D+00  0.0000000000000D+00  0.0000000000000D+00
307  3.0600000000000D+00  0.0000000000000D+00  0.0000000000000D+00
308  3.0700000000000D+00  0.0000000000000D+00  0.0000000000000D+00
309  3.0800000000000D+00  0.0000000000000D+00  0.0000000000000D+00
310  3.0900000000000D+00  0.0000000000000D+00  0.0000000000000D+00
311  3.1000000000000D+00  0.0000000000000D+00  0.0000000000000D+00
312  3.1100000000000D+00  0.0000000000000D+00  0.0000000000000D+00
313  3.1200000000000D+00  0.0000000000000D+00  0.0000000000000D+00
314  3.1300000000000D+00  0.0000000000000D+00  0.0000000000000D+00
315  3.1400000000000D+00  0.0000000000000D+00  0.0000000000000D+00
316  3.1500000000000D+00  0.0000000000000D+00  0.0000000000000D+00
317  3.1600000000000D+00  0.0000000000000D+00  0.0000000000000D+00
318  3.1700000000000D+00  0.0000000000000D+00  0.0000000000000D+00
319  3.1800000000000D+00  0.0000000000000D+00  0.0000000000000D+00
320  3.1900000000000D+00  0.0000000000000D+00  0.0000000000000D+00
321  3.2000000000000D+00  0.0000000000000D+00  0.0000000000000D+00
322  3.2100000000000D+00  0.0000000000000D+00  0.0000000000000D+00
323  3.2200000000000D+00  0.0000000000000D+00  0.0000000000000D+00
324  3.2300000000000D+00  0.0000000000000D+00  0.0000000000000D+00
325  3.2400000000000D+00  0.0000000000000D+00  0.0000000000000D+00
326  3.2500000000000D+00  0.0000000000000D+00  0.0000000000000D+00
327  3.2600000000000D+00  0.0000000000000D+00  0.0000000000000D+00
328  3.2700000000000D+00  0.0000000000000D+00  0.0000000000000D+00
329  3.2800000000000D+00  0.0000000000000D+00  0.0000000000000D+00
330  3.2900000000000D+00  0.0000000000000D+00  0.0000000000000D+00
331  3.3000000000000D+00  0.0000000000000D+00  0.0000000000000D+00
332  3.3100000000000D+00  0.0000000000000D+00  0.0000000000000D+00
333  3.3200000000000D+00  0.0000000000000D+00  0.0000000000000D+00
334  3.3300000000000D+00  0.0000000000000D+00  0.0000000000000D+00
335  3.3400000000000D+00  0.0000000000000D+00  0.0000000000000D+00
336  3.3500000000000D+00  0.0000000000000D+00  0.0000000000000D+00
337  3.3600000000000D+00  0.0000000000000D+00  0.0000000000000D+00
338  3.3700000000000D+00  0.0000000000000D+00  0.0000000000000D+00
339  3.3800000000000D+00  0.0000000000000D+00  0.0000000000000D+00
340  3.3900000000000D+00  0.0000000000000D+00  0.0000000000000D+00
341  3.4000000000000D+00  0.0000000000000D+00  0.0000000000000D+00
342  3.4100000000000D+00  0.0000000000000D+00  0.0000000000000D+00
343  3.4200000000000D+00  0.0000000000000D+00  0.0000000000000D+00
344  3.4300000000000D+00  0.0000000000000D+00  0.0000000000000D+00
345  3.4400000000000D+00  0.0000000000000D+00  0.0000000000000D+00
346  3.4500000000000D+00  0.0000000000000D+00  0.0000000000000D+00
347  3.4600000000000D+00  0.0000000000000D+00  0.0000000000000D+00
348  3.4700000000000D+00  0.0000000000000D+00  0.0000000000000D+00
349  3.4800000000000D+00  0.0000000000000D+00  0.0000000000000D+00
350  3.4900000000000D+00  0.0000000000000D+00  0.0000000000000D+00
351  3.5000000000000D+00  0.0000000000000D+00  0.0000000000000D+00
352  3.5100000000000D+00  0.0000000000000D+00  0.0000000000000D+00
353  3.5200000000000D+00  0.0000000000000D+00  0.0000000000000D+00
354  3.5300000000000D+00  0.0000000000000D+00  0.0000000000000D+00
355  3.5400000000000D+00  0.0000000000000D+00  0.0000000000000D+00
356  3.5500000000000D+00  0.0000000000000D+00  0.0000000000000D+00
357  3.5600000000000D+00  0.0000000000000D+00  0.0000000000000D+00
358  3.5700000000000D+00  0.0000000000000D+00  0.0000000000000D+00
359  3.5800000000000D+00  0.0000000000000D+00  0.0000000000000D+00
360  3.5900000000000D+00  0.0000000000000D+00  0.0000000000000D+00
361  3.6000000000000D+00  0.0000000000000D+00  0.0000000000000D+00
362  3.6100000000000D+00  0.0000000000000D+00  0.0000000000000D+00
363  3.6200000000000D+00  0.0000000000000D+00  0.0000000000000D+00
364  3.6300000000000D+00  0.0000000000000D+00  0.0000000000000D+00
365  3.6400000000000D+00  0.0000000000000D+00  0.0000000000000D+00
366  3.6500000000000D+00  0.0000000000000D+00  0.0000000000000D+00
367  3.6600000000000D+00  0.0000000000000D+00  0.0000000000000D+00
368  3.6700000000000D+00  0.0000000000000D+00  0.0000000000000D+00
369  3.6800000000000D+00  0.0000000000000D+00  0.0000000000000D+00
370  3.6900000000000D+00  0.0000000000000D+00  0.0000000000000D+00
371  3.7000000000000D+00  0.0000000000000D+00  0.0000000000000D+00
372  3.7100000000000D+00  0.0000000000000D+00  0.0000000000000D+00
373  3.7200000000000D+00  0.0000000000000D+00  0.0000000000000D+00
374  3.7300000000000D+00  0.0000000000000D+00  0.0000000000000D+00
375  3.7400000000000D+00  0.0000000000000D+00  0.0000000000000D+00
376  3.7500000000000D+00  0.0000000000000D+00  0.0000000000000D+00
377  3.7600000000000D+00  0.0000000000000D+00  0.0000000000000D+00
378  3.7700000000000D+00  0.0000000000000D+00  0.0000000000000D+00
379  3.7800000000000D+00  0.0000000000000D+00  0.0000000000000D+00
380  3.7900000000000D+00  0.0000000000000D+00  0.0000000000000D+00
381  3.8000000000000D+00  0.0000000000000D+00  0.0000000000000D+00
382  3.8100000000000D+00  0.0000000000000D+00  0.0000000000000D+00
383  3.8200000000000D+00  0.0000000000000D+00  0.0000000000000D+00
384  3.8300000000000D+00  0.0000000000000D+00  0.0000000000000D+00
385  3.8400000000000D+00  0.0000000000000D+00  0.0000000000000D+00
386  3.8500000000000D+00  0.0000000000000D+00  0.0000000000000D+00
387  3.8600000000000D+00  0.0000000000000D+00  0.0000000000000D+00
388  3.8700000000000D+00  0.0000000000000D+00  0.0000000000000D+00
389  3.8800000000000D+00  0.0000000000000D+00  0.0000000000000D+00
390  3.8900000000000D+00  0.0000000000000D+00  0.0000000000000D+00
391  3.9000000000000D+00  0.0000000000000D+00  0.0000000000000D+00
392  3.9100000000000D+00  0.0000000000000D+00  0.0000000000000D+00
393  3.9200000000000D+00  0.0000000000000D+00  0.0000000000000D+00
394  3.9300000000000D+00  0.0000000000000D+00  0.0000000000000D+00
395  3.9400000000000D+00  0.0000000000000D+00  0.0000000000000D+00
396  3.9500000000000D+00  0.0000000000000D+00  0.0000000000000D+00
397  3.9600000000000D+00  0.0000000000000D+00  0.0000000000000D+00
398  3.9700000000000D+00  0.0000000000000D+00  0.0000000000000D+00
399  3.9800000000000D+00  0.0000000000000D+00  0.0000000000000D+00
400  3.9900000000000D+00  0.0000000000000D+00  0.0000000000000D+00
401  4.0000000000000D+00  0.0000000000000D+00  0.0000000000000D+00
1                        -6.7206576766800D+00 -2.3267934564014D+00
1  0.0000000000000D+00  0.0000000000000D+00  0.0000000000000D+00
2  1.0000000000000D-02  2.2133347943654D-03  1.0393150742037D-03
3  2.0000000000000D-02  8.8407431865991D-03  4.1458539823124D-03
4  3.0000000000000D-02  1.9844533319058D-02  9.2855137275924D-03
5  4.0000000000000D-02  3.5162204610466D-02  1.6401840899674D-02
6  5.0000000000000D-02  5.4706922343235D-02  2.5416603576618D-02
7  6.0000000000000D-02  7.8368173791107D-02  3.6230581135089D-02
8  7.0000000000000D-02  1.0601259776778D-01  4.8724561339577D-02
9  8.0000000000000D-02  1.3748497740033D-01  6.2760531354754D-02
10  9.0000000000000D-02  1.7260938403729D-01  7.8183046832095D-02
11  1.0000000000000D-01  2.1119045850887D-01  9.4820760987266D-02
12  1.1000000000000D-01  2.5301481450805D-01  1.1248809366274D-01
13  1.2000000000000D-01  2.9785254767484D-01  1.3098701878495D-01
14  1.3000000000000D-01  3.4545883306093D-01  1.5010894740200D-01
15  1.4000000000000D-01  3.9557559297945D-01  1.6963668257759D-01
16  1.5000000000000D-01  4.4793321707417D-01  1.8934642212017D-01
17  1.6000000000000D-01  5.0225231615457D-01  2.0900978476097D-01
18  1.7000000000000D-01  5.5824549200854D-01  2.2839583613347D-01
19  1.8000000000000D-01  6.1561910548742D-01  2.4727309109667D-01
20  1.9000000000000D-01  6.7407502650898D-01  2.6541147052475D-01
21  2.0000000000000D-01  7.3331235013601D-01  2.8258419158905D-01
22  2.1000000000000D-01  7.9302906497685D-01  2.9856957276529D-01
23  2.2000000000000D-01  8.5292366053898D-01  3.1315273615284D-01
24  2.3000000000000D-01  9.1269666301154D-01  3.2612719249022D-01
25  2.4000000000000D-01  9.7205209011885D-01  3.3729629671566D-01
26  2.5000000000000D-01  1.0306988168117D+00  3.4647456210829D-01
27  2.6000000000000D-01  1.0883518485152D+00  3.5348883054155D-01
28  2.7000000000000D-01  1.1447334944305D+00  3.5817928585418D-01
29  2.8000000000000D-01  1.1995744439897D+00  3.6040031796362D-01
30  2.9000000000000D-01  1.2526147428170D+00  3.6002123065446D-01
31  3.0000000000000D-01  1.3036046715806D+00  3.5692679909290D-01
32  3.1000000000000D-01  1.3523055309381D+00  3.5101768182566D-01
33  3.2000000000000D-01  1.3984903401286D+00  3.4221069903830D-01
34  3.3000000000000D-01  1.4419444436568D+00  3.3043896733307D-01
35  3.4000000000000D-01  1.4824660542718D+00  3.1565193661660D-01
36  3.5000000000000D-01  1.5198667186323D+00  2.9781530607188D-01
37  3.6000000000000D-01  1.5539717251762D+00  2.7691085097257D-01
38  3.7000000000000D-01  1.5846204559860D+00  2.5293616319654D-01
39  3.8000000000000D-01  1.6116667091607D+00  2.2590434838653D-01
40  3.9000000000000D-01  1.6349789655937D+00  1.9584363903795D-01
41  4.0000000000000D-01  1.6544406368073D+00  1.6279698365474D-01
42  4.1000000000000D-01  1.6699502978766D+00  1.2682162013517D-01