Zn    ONCVPSP  r_core=  1.31  1.61  1.77
30.0000     20.0000      140827    zatom,zion,pspd
8    11     2     4   601     0    pspcod,pspxc,lmax,lloc,mmax,r2well
6.00000000  0.15000000  0.00000000    rchrg fchrg qchrg
2     2     2     0     0    nproj
0                 extension_switch
0                         4.0921579449277D+00 -1.5581640966651D+00
1  0.0000000000000D+00  0.0000000000000D+00  0.0000000000000D+00
2  1.0000000000000D-02  1.0351302184468D-01  2.8228858723770D-02
3  2.0000000000000D-02  2.0663083137372D-01  5.6478818632925D-02
4  3.0000000000000D-02  3.0895954560524D-01  8.4770676648323D-02
5  4.0000000000000D-02  4.1010794033743D-01  1.1312462350030D-01
6  5.0000000000000D-02  5.0968877973492D-01  1.4155994646132D-01
7  6.0000000000000D-02  6.0732014591429D-01  1.7009473902096D-01
8  7.0000000000000D-02  7.0262676814317D-01  1.9874561973159D-01
9  8.0000000000000D-02  7.9524135093414D-01  2.2752746238271D-01
10  9.0000000000000D-02  8.8480589993098D-01  2.5645313957078D-01
11  1.0000000000000D-01  9.7097304401936D-01  2.8553328162777D-01
12  1.1000000000000D-01  1.0534073515670D+00  3.1477605275306D-01
13  1.2000000000000D-01  1.1317866381720D+00  3.4418694605274D-01
14  1.3000000000000D-01  1.2058032626791D+00  3.7376859904707D-01
15  1.4000000000000D-01  1.2751654075059D+00  4.0352063105970D-01
16  1.5000000000000D-01  1.3395983390085D+00  4.3343950368580D-01
17  1.6000000000000D-01  1.3988456423312D+00  4.6351840544523D-01
18  1.7000000000000D-01  1.4526704254982D+00  4.9374716141612D-01
19  1.8000000000000D-01  1.5008564856761D+00  5.2411216859580D-01
20  1.9000000000000D-01  1.5432094318273D+00  5.5459635736194D-01
21  2.0000000000000D-01  1.5795577536352D+00  5.8517917948178D-01
22  2.1000000000000D-01  1.6097538336449D+00  6.1583662245686D-01
23  2.2000000000000D-01  1.6336748877518D+00  6.4654125041987D-01
24  2.3000000000000D-01  1.6512238313062D+00  6.7726227097256D-01
25  2.4000000000000D-01  1.6623300570007D+00  7.0796562752835D-01
26  2.5000000000000D-01  1.6669501223817D+00  7.3861411661826D-01
27  2.6000000000000D-01  1.6650683260959D+00  7.6916752874919D-01
28  2.7000000000000D-01  1.6566971806171D+00  7.9958281271779D-01
29  2.8000000000000D-01  1.6418777545013D+00  8.2981426078292D-01
30  2.9000000000000D-01  1.6206798904911D+00  8.5981371453196D-01
31  3.0000000000000D-01  1.5932022841258D+00  8.8953078935024D-01
32  3.1000000000000D-01  1.5595724170440D+00  9.1891311592817D-01
33  3.2000000000000D-01  1.5199463378444D+00  9.4790659605157D-01
34  3.3000000000000D-01  1.4745082889578D+00  9.7645567370244D-01
35  3.4000000000000D-01  1.4234701668993D+00  1.0045036170203D+00
36  3.5000000000000D-01  1.3670708212962D+00  1.0319928050843D+00
37  3.6000000000000D-01  1.3055751804701D+00  1.0588650322731D+00
38  3.7000000000000D-01  1.2392732119935D+00  1.0850618071690D+00
39  3.8000000000000D-01  1.1684787230180D+00  1.1105246554187D+00
40  3.9000000000000D-01  1.0935279633833D+00  1.1351954371677D+00
41  4.0000000000000D-01  1.0147780998865D+00  1.1590166445700D+00
42  4.1000000000000D-01  9.3260551352666D-01  1.1819317065964D+00
43  4.2000000000000D-01  8.4740394551315D-01  1.2038852869005D+00
44  4.3000000000000D-01  7.5958249857121D-01  1.2248235741732D+00
45  4.4000000000000D-01  6.6956350249061D-01  1.2446945633975D+00
46  4.5000000000000D-01  5.7778025484910D-01  1.2634483262548D+00
47  4.6000000000000D-01  4.8467464974400D-01  1.2810372689581D+00
48  4.7000000000000D-01  3.9069470980687D-01  1.2974163757961D+00
49  4.8000000000000D-01  2.9629210006539D-01  1.3125434284107D+00
50  4.9000000000000D-01  2.0191936088381D-01  1.3263792399174D+00
51  5.0000000000000D-01  1.0802733152077D-01  1.3388878330568D+00
52  5.1000000000000D-01  1.5062527684815D-02  1.3500366074385D+00
53  5.2000000000000D-01 -7.6535593762917D-02  1.3597965014465D+00
54  5.3000000000000D-01 -1.6633759210058D-01  1.3681421525882D+00
55  5.4000000000000D-01 -2.5392612426134D-01  1.3750519524904D+00
56  5.5000000000000D-01 -3.3889925176344D-01  1.3805082095385D+00
57  5.6000000000000D-01 -4.2087236699598D-01  1.3844971618029D+00
58  5.7000000000000D-01 -4.9948105015901D-01  1.3870090663829D+00
59  5.8000000000000D-01 -5.7438308328866D-01  1.3880382020678D+00
60  5.9000000000000D-01 -6.4526101541938D-01  1.3875829061465D+00
61  6.0000000000000D-01 -7.1182350379947D-01  1.3856455177280D+00
62  6.1000000000000D-01 -7.7380828633635D-01  1.3822324126291D+00
63  6.2000000000000D-01 -8.3098240496886D-01  1.3773538741499D+00
64  6.3000000000000D-01 -8.8314498707015D-01  1.3710240919769D+00
65  6.4000000000000D-01 -9.3012783936800D-01  1.3632610430185D+00
66  6.5000000000000D-01 -9.7179599171219D-01  1.3540863786464D+00
67  6.6000000000000D-01 -1.0080494990540D+00  1.3435253408907D+00
68  6.7000000000000D-01 -1.0388232754955D+00  1.3316066082767D+00
69  6.8000000000000D-01 -1.0640872368795D+00  1.3183621533023D+00
70  6.9000000000000D-01 -1.0838461074068D+00  1.3038270941976D+00
71  7.0000000000000D-01 -1.0981400685102D+00  1.2880395282261D+00
72  7.1000000000000D-01 -1.1070431529040D+00  1.2710403547749D+00
73  7.2000000000000D-01 -1.1106627076838D+00  1.2528730979281D+00
74  7.3000000000000D-01 -1.1091382827336D+00  1.2335837205464D+00
75  7.4000000000000D-01 -1.1026401984714D+00  1.2132204420291D+00
76  7.5000000000000D-01 -1.0913681333120D+00  1.1918335255933D+00
77  7.6000000000000D-01 -1.0755490905825D+00  1.1694750891442D+00
78  7.7000000000000D-01 -1.0554353115939D+00  1.1461989167044D+00
79  7.8000000000000D-01 -1.0313020546851D+00  1.1220602588289D+00
80  7.9000000000000D-01 -1.0034451498232D+00  1.0971156386087D+00
81  8.0000000000000D-01 -9.7217839432462D-01  1.0714226603782D+00
82  8.1000000000000D-01 -9.3783081317617D-01  1.0450398220983D+00
83  8.2000000000000D-01 -9.0074380885921D-01  1.0180263322917D+00
84  8.3000000000000D-01 -8.6126822675675D-01  9.9044193231029D-01
85  8.4000000000000D-01 -8.1976136315425D-01  9.6234672461850D-01
86  8.5000000000000D-01 -7.7658394353137D-01  9.3380100767889D-01
87  8.6000000000000D-01 -7.3209709928948D-01  9.0486511793514D-01
88  8.7000000000000D-01 -6.8665937127070D-01  8.7559927929506D-01
89  8.8000000000000D-01 -6.4062376840021D-01  8.4606346043071D-01
90  8.9000000000000D-01 -5.9433490951905D-01  8.1631724012997D-01
91  9.0000000000000D-01 -5.4812627595532D-01  7.8641968085528D-01
92  9.1000000000000D-01 -5.0231760158719D-01  7.5642921059101D-01
93  9.2000000000000D-01 -4.5721242604593D-01  7.2640351299051D-01
94  9.3000000000000D-01 -4.1309583525086D-01  6.9639942576718D-01
95  9.4000000000000D-01 -3.7023241161035D-01  6.6647284721095D-01
96  9.5000000000000D-01 -3.2886441391226D-01  6.3667865065291D-01
97  9.6000000000000D-01 -2.8921098033974D-01  6.0707066124442D-01
98  9.7000000000000D-01 -2.5146480320705D-01  5.7770144442869D-01
99  9.8000000000000D-01 -2.1579232680936D-01  5.4862233085741D-01
100  9.9000000000000D-01 -1.8233318407723D-01  5.1988337199543D-01
101  1.0000000000000D+00 -1.5119946642814D-01  4.9153327067484D-01
102  1.0100000000000D+00 -1.2247555185670D-01  4.6361933641423D-01
103  1.0200000000000D+00 -9.6218292162166D-02  4.3618745200513D-01
104  1.0300000000000D+00 -7.2458555245976D-02  4.0928214006504D-01
105  1.0400000000000D+00 -5.1197529355629D-02  3.8294617772581D-01
106  1.0500000000000D+00 -3.2412261200165D-02  3.5722092433461D-01
107  1.0600000000000D+00 -1.6055438498958D-02  3.3214619041994D-01
108  1.0700000000000D+00 -2.0568437149461D-03  3.0776022047159D-01
109  1.0800000000000D+00  9.6740784388506D-03  2.8409983067914D-01
110  1.0900000000000D+00  1.9249986455134D-02  2.6119990164589D-01
111  1.1000000000000D+00  2.6799387280369D-02  2.3909384481153D-01
112  1.1100000000000D+00  3.2465739646461D-02  2.1781345976838D-01
113  1.1200000000000D+00  3.6405274833630D-02  1.9738904986337D-01
114  1.1300000000000D+00  3.8785266955596D-02  1.7784906877888D-01
115  1.1400000000000D+00  3.9779972002832D-02  1.5922031681295D-01
116  1.1500000000000D+00  3.9568500464057D-02  1.4152802638659D-01
117  1.1600000000000D+00  3.8333978743278D-02  1.2479596564823D-01
118  1.1700000000000D+00  3.6257678439814D-02  1.0904591907739D-01
119  1.1800000000000D+00  3.3517740649438D-02  9.4298118605938D-02
120  1.1900000000000D+00  3.0288399779025D-02  8.0571279851137D-02
121  1.2000000000000D+00  2.6737488478599D-02  6.7882497814952D-02
122  1.2100000000000D+00  2.3018271787464D-02  5.6246947528096D-02
123  1.2200000000000D+00  1.9274075575611D-02  4.5678359116204D-02
124  1.2300000000000D+00  1.5639819161466D-02  3.6189081221660D-02
125  1.2400000000000D+00  1.2224501939551D-02  2.7789343284390D-02
126  1.2500000000000D+00  9.1241942594053D-03  2.0488017445259D-02
127  1.2600000000000D+00  6.4228162203536D-03  1.4292612454606D-02
128  1.2700000000000D+00  4.1739794527538D-03  9.2086128613633D-03
129  1.2800000000000D+00  2.4149945979011D-03  5.2401055953660D-03
130  1.2900000000000D+00  1.1702810135795D-03  2.3898852108190D-03
131  1.3000000000000D+00  4.6131557730635D-04  7.2458025123798D-04
132  1.3100000000000D+00  1.7897577943921D-04  5.9832124388308D-05
133  1.3200000000000D+00  3.3937659793144D-05 -6.0924794504822D-05
134  1.3300000000000D+00 -9.4983350433632D-06 -2.4822308935221D-06
135  1.3400000000000D+00 -3.9493242236541D-06 -1.0320897874980D-06
136  1.3500000000000D+00  0.0000000000000D+00  0.0000000000000D+00
137  1.3600000000000D+00  0.0000000000000D+00  0.0000000000000D+00
138  1.3700000000000D+00  0.0000000000000D+00  0.0000000000000D+00
139  1.3800000000000D+00  0.0000000000000D+00  0.0000000000000D+00
140  1.3900000000000D+00  0.0000000000000D+00  0.0000000000000D+00
141  1.4000000000000D+00  0.0000000000000D+00  0.0000000000000D+00
142  1.4100000000000D+00  0.0000000000000D+00  0.0000000000000D+00
143  1.4200000000000D+00  0.0000000000000D+00  0.0000000000000D+00
144  1.4300000000000D+00  0.0000000000000D+00  0.0000000000000D+00
145  1.4400000000000D+00  0.0000000000000D+00  0.0000000000000D+00
146  1.4500000000000D+00  0.0000000000000D+00  0.0000000000000D+00
147  1.4600000000000D+00  0.0000000000000D+00  0.0000000000000D+00
148  1.4700000000000D+00  0.0000000000000D+00  0.0000000000000D+00
149  1.4800000000000D+00  0.0000000000000D+00  0.0000000000000D+00
150  1.4900000000000D+00  0.0000000000000D+00  0.0000000000000D+00
151  1.5000000000000D+00  0.0000000000000D+00  0.0000000000000D+00
152  1.5100000000000D+00  0.0000000000000D+00  0.0000000000000D+00
153  1.5200000000000D+00  0.0000000000000D+00  0.0000000000000D+00
154  1.5300000000000D+00  0.0000000000000D+00  0.0000000000000D+00
155  1.5400000000000D+00  0.0000000000000D+00  0.0000000000000D+00
156  1.5500000000000D+00  0.0000000000000D+00  0.0000000000000D+00
157  1.5600000000000D+00  0.0000000000000D+00  0.0000000000000D+00
158  1.5700000000000D+00  0.0000000000000D+00  0.0000000000000D+00
159  1.5800000000000D+00  0.0000000000000D+00  0.0000000000000D+00
160  1.5900000000000D+00  0.0000000000000D+00  0.0000000000000D+00
161  1.6000000000000D+00  0.0000000000000D+00  0.0000000000000D+00
162  1.6100000000000D+00  0.0000000000000D+00  0.0000000000000D+00
163  1.6200000000000D+00  0.0000000000000D+00  0.0000000000000D+00
164  1.6300000000000D+00  0.0000000000000D+00  0.0000000000000D+00
165  1.6400000000000D+00  0.0000000000000D+00  0.0000000000000D+00
166  1.6500000000000D+00  0.0000000000000D+00  0.0000000000000D+00
167  1.6600000000000D+00  0.0000000000000D+00  0.0000000000000D+00
168  1.6700000000000D+00  0.0000000000000D+00  0.0000000000000D+00
169  1.6800000000000D+00  0.0000000000000D+00  0.0000000000000D+00
170  1.6900000000000D+00  0.0000000000000D+00  0.0000000000000D+00
171  1.7000000000000D+00  0.0000000000000D+00  0.0000000000000D+00
172  1.7100000000000D+00  0.0000000000000D+00  0.0000000000000D+00
173  1.7200000000000D+00  0.0000000000000D+00  0.0000000000000D+00
174  1.7300000000000D+00  0.0000000000000D+00  0.0000000000000D+00
175  1.7400000000000D+00  0.0000000000000D+00  0.0000000000000D+00
176  1.7500000000000D+00  0.0000000000000D+00  0.0000000000000D+00
177  1.7600000000000D+00  0.0000000000000D+00  0.0000000000000D+00
178  1.7700000000000D+00  0.0000000000000D+00  0.0000000000000D+00
179  1.7800000000000D+00  0.0000000000000D+00  0.0000000000000D+00
180  1.7900000000000D+00  0.0000000000000D+00  0.0000000000000D+00
181  1.8000000000000D+00  0.0000000000000D+00  0.0000000000000D+00
182  1.8100000000000D+00  0.0000000000000D+00  0.0000000000000D+00
183  1.8200000000000D+00  0.0000000000000D+00  0.0000000000000D+00
184  1.8300000000000D+00  0.0000000000000D+00  0.0000000000000D+00
185  1.8400000000000D+00  0.0000000000000D+00  0.0000000000000D+00
186  1.8500000000000D+00  0.0000000000000D+00  0.0000000000000D+00
187  1.8600000000000D+00  0.0000000000000D+00  0.0000000000000D+00
188  1.8700000000000D+00  0.0000000000000D+00  0.0000000000000D+00
189  1.8800000000000D+00  0.0000000000000D+00  0.0000000000000D+00
190  1.8900000000000D+00  0.0000000000000D+00  0.0000000000000D+00
191  1.9000000000000D+00  0.0000000000000D+00  0.0000000000000D+00
192  1.9100000000000D+00  0.0000000000000D+00  0.0000000000000D+00
193  1.9200000000000D+00  0.0000000000000D+00  0.0000000000000D+00
194  1.9300000000000D+00  0.0000000000000D+00  0.0000000000000D+00
195  1.9400000000000D+00  0.0000000000000D+00  0.0000000000000D+00
196  1.9500000000000D+00  0.0000000000000D+00  0.0000000000000D+00
197  1.9600000000000D+00  0.0000000000000D+00  0.0000000000000D+00
198  1.9700000000000D+00  0.0000000000000D+00  0.0000000000000D+00
199  1.9800000000000D+00  0.0000000000000D+00  0.0000000000000D+00
200  1.9900000000000D+00  0.0000000000000D+00  0.0000000000000D+00
201  2.0000000000000D+00  0.0000000000000D+00  0.0000000000000D+00
202  2.0100000000000D+00  0.0000000000000D+00  0.0000000000000D+00
203  2.0200000000000D+00  0.0000000000000D+00  0.0000000000000D+00
204  2.0300000000000D+00  0.0000000000000D+00  0.0000000000000D+00
205  2.0400000000000D+00  0.0000000000000D+00  0.0000000000000D+00
206  2.0500000000000D+00  0.0000000000000D+00  0.0000000000000D+00
207  2.0600000000000D+00  0.0000000000000D+00  0.0000000000000D+00
208  2.0700000000000D+00  0.0000000000000D+00  0.0000000000000D+00
209  2.0800000000000D+00  0.0000000000000D+00  0.0000000000000D+00
210  2.0900000000000D+00  0.0000000000000D+00  0.0000000000000D+00
211  2.1000000000000D+00  0.0000000000000D+00  0.0000000000000D+00
212  2.1100000000000D+00  0.0000000000000D+00  0.0000000000000D+00
213  2.1200000000000D+00  0.0000000000000D+00  0.0000000000000D+00
214  2.1300000000000D+00  0.0000000000000D+00  0.0000000000000D+00
215  2.1400000000000D+00  0.0000000000000D+00  0.0000000000000D+00
216  2.1500000000000D+00  0.0000000000000D+00  0.0000000000000D+00
217  2.1600000000000D+00  0.0000000000000D+00  0.0000000000000D+00
218  2.1700000000000D+00  0.0000000000000D+00  0.0000000000000D+00
219  2.1800000000000D+00  0.0000000000000D+00  0.0000000000000D+00
220  2.1900000000000D+00  0.0000000000000D+00  0.0000000000000D+00
221  2.2000000000000D+00  0.0000000000000D+00  0.0000000000000D+00
222  2.2100000000000D+00  0.0000000000000D+00  0.0000000000000D+00
223  2.2200000000000D+00  0.0000000000000D+00  0.0000000000000D+00
224  2.2300000000000D+00  0.0000000000000D+00  0.0000000000000D+00
225  2.2400000000000D+00  0.0000000000000D+00  0.0000000000000D+00
226  2.2500000000000D+00  0.0000000000000D+00  0.0000000000000D+00
227  2.2600000000000D+00  0.0000000000000D+00  0.0000000000000D+00
228  2.2700000000000D+00  0.0000000000000D+00  0.0000000000000D+00
229  2.2800000000000D+00  0.0000000000000D+00  0.0000000000000D+00
230  2.2900000000000D+00  0.0000000000000D+00  0.0000000000000D+00
231  2.3000000000000D+00  0.0000000000000D+00  0.0000000000000D+00
232  2.3100000000000D+00  0.0000000000000D+00  0.0000000000000D+00
233  2.3200000000000D+00  0.0000000000000D+00  0.0000000000000D+00
234  2.3300000000000D+00  0.0000000000000D+00  0.0000000000000D+00
235  2.3400000000000D+00  0.0000000000000D+00  0.0000000000000D+00
236  2.3500000000000D+00  0.0000000000000D+00  0.0000000000000D+00
237  2.3600000000000D+00  0.0000000000000D+00  0.0000000000000D+00
238  2.3700000000000D+00  0.0000000000000D+00  0.0000000000000D+00
239  2.3800000000000D+00  0.0000000000000D+00  0.0000000000000D+00
240  2.3900000000000D+00  0.0000000000000D+00  0.0000000000000D+00
241  2.4000000000000D+00  0.0000000000000D+00  0.0000000000000D+00
242  2.4100000000000D+00  0.0000000000000D+00  0.0000000000000D+00
243  2.4200000000000D+00  0.0000000000000D+00  0.0000000000000D+00
244  2.4300000000000D+00  0.0000000000000D+00  0.0000000000000D+00
245  2.4400000000000D+00  0.0000000000000D+00  0.0000000000000D+00
246  2.4500000000000D+00  0.0000000000000D+00  0.0000000000000D+00
247  2.4600000000000D+00  0.0000000000000D+00  0.0000000000000D+00
248  2.4700000000000D+00  0.0000000000000D+00  0.0000000000000D+00
249  2.4800000000000D+00  0.0000000000000D+00  0.0000000000000D+00
250  2.4900000000000D+00  0.0000000000000D+00  0.0000000000000D+00
251  2.5000000000000D+00  0.0000000000000D+00  0.0000000000000D+00
252  2.5100000000000D+00  0.0000000000000D+00  0.0000000000000D+00
253  2.5200000000000D+00  0.0000000000000D+00  0.0000000000000D+00
254  2.5300000000000D+00  0.0000000000000D+00  0.0000000000000D+00
255  2.5400000000000D+00  0.0000000000000D+00  0.0000000000000D+00
256  2.5500000000000D+00  0.0000000000000D+00  0.0000000000000D+00
257  2.5600000000000D+00  0.0000000000000D+00  0.0000000000000D+00
258  2.5700000000000D+00  0.0000000000000D+00  0.0000000000000D+00
259  2.5800000000000D+00  0.0000000000000D+00  0.0000000000000D+00
260  2.5900000000000D+00  0.0000000000000D+00  0.0000000000000D+00
261  2.6000000000000D+00  0.0000000000000D+00  0.0000000000000D+00
262  2.6100000000000D+00  0.0000000000000D+00  0.0000000000000D+00
263  2.6200000000000D+00  0.0000000000000D+00  0.0000000000000D+00
264  2.6300000000000D+00  0.0000000000000D+00  0.0000000000000D+00
265  2.6400000000000D+00  0.0000000000000D+00  0.0000000000000D+00
266  2.6500000000000D+00  0.0000000000000D+00  0.0000000000000D+00
267  2.6600000000000D+00  0.0000000000000D+00  0.0000000000000D+00
268  2.6700000000000D+00  0.0000000000000D+00  0.0000000000000D+00
269  2.6800000000000D+00  0.0000000000000D+00  0.0000000000000D+00
270  2.6900000000000D+00  0.0000000000000D+00  0.0000000000000D+00
271  2.7000000000000D+00  0.0000000000000D+00  0.0000000000000D+00
272  2.7100000000000D+00  0.0000000000000D+00  0.0000000000000D+00
273  2.7200000000000D+00  0.0000000000000D+00  0.0000000000000D+00
274  2.7300000000000D+00  0.0000000000000D+00  0.0000000000000D+00
275  2.7400000000000D+00  0.0000000000000D+00  0.0000000000000D+00
276  2.7500000000000D+00  0.0000000000000D+00  0.0000000000000D+00
277  2.7600000000000D+00  0.0000000000000D+00  0.0000000000000D+00
278  2.7700000000000D+00  0.0000000000000D+00  0.0000000000000D+00
279  2.7800000000000D+00  0.0000000000000D+00  0.0000000000000D+00
280  2.7900000000000D+00  0.0000000000000D+00  0.0000000000000D+00
281  2.8000000000000D+00  0.0000000000000D+00  0.0000000000000D+00
282  2.8100000000000D+00  0.0000000000000D+00  0.0000000000000D+00
283  2.8200000000000D+00  0.0000000000000D+00  0.0000000000000D+00
284  2.8300000000000D+00  0.0000000000000D+00  0.0000000000000D+00
285  2.8400000000000D+00  0.0000000000000D+00  0.0000000000000D+00
286  2.8500000000000D+00  0.0000000000000D+00  0.0000000000000D+00
287  2.8600000000000D+00  0.0000000000000D+00  0.0000000000000D+00
288  2.8700000000000D+00  0.0000000000000D+00  0.0000000000000D+00
289  2.8800000000000D+00  0.0000000000000D+00  0.0000000000000D+00
290  2.8900000000000D+00  0.0000000000000D+00  0.0000000000000D+00
291  2.9000000000000D+00  0.0000000000000D+00  0.0000000000000D+00
292  2.9100000000000D+00  0.0000000000000D+00  0.0000000000000D+00
293  2.9200000000000D+00  0.0000000000000D+00  0.0000000000000D+00
294  2.9300000000000D+00  0.0000000000000D+00  0.0000000000000D+00
295  2.9400000000000D+00  0.0000000000000D+00  0.0000000000000D+00
296  2.9500000000000D+00  0.0000000000000D+00  0.0000000000000D+00
297  2.9600000000000D+00  0.0000000000000D+00  0.0000000000000D+00
298  2.9700000000000D+00  0.0000000000000D+00  0.0000000000000D+00
299  2.9800000000000D+00  0.0000000000000D+00  0.0000000000000D+00
300  2.9900000000000D+00  0.0000000000000D+00  0.0000000000000D+00
301  3.0000000000000D+00  0.0000000000000D+00  0.0000000000000D+00
302  3.0100000000000D+00  0.0000000000000D+00  0.0000000000000D+00
303  3.0200000000000D+00  0.0000000000000D+00  0.0000000000000D+00
304  3.0300000000000D+00  0.0000000000000D+00  0.0000000000000D+00
305  3.0400000000000D+00  0.0000000000000D+00  0.0000000000000D+00
306  3.0500000000000D+00  0.0000000000000D+00  0.0000000000000D+00
307  3.0600000000000D+00  0.0000000000000D+00  0.0000000000000D+00
308  3.0700000000000D+00  0.0000000000000D+00  0.0000000000000D+00
309  3.0800000000000D+00  0.0000000000000D+00  0.0000000000000D+00
310  3.0900000000000D+00  0.0000000000000D+00  0.0000000000000D+00
311  3.1000000000000D+00  0.0000000000000D+00  0.0000000000000D+00
312  3.1100000000000D+00  0.0000000000000D+00  0.0000000000000D+00
313  3.1200000000000D+00  0.0000000000000D+00  0.0000000000000D+00
314  3.1300000000000D+00  0.0000000000000D+00  0.0000000000000D+00
315  3.1400000000000D+00  0.0000000000000D+00  0.0000000000000D+00
316  3.1500000000000D+00  0.0000000000000D+00  0.0000000000000D+00
317  3.1600000000000D+00  0.0000000000000D+00  0.0000000000000D+00
318  3.1700000000000D+00  0.0000000000000D+00  0.0000000000000D+00
319  3.1800000000000D+00  0.0000000000000D+00  0.0000000000000D+00
320  3.1900000000000D+00  0.0000000000000D+00  0.0000000000000D+00
321  3.2000000000000D+00  0.0000000000000D+00  0.0000000000000D+00
322  3.2100000000000D+00  0.0000000000000D+00  0.0000000000000D+00
323  3.2200000000000D+00  0.0000000000000D+00  0.0000000000000D+00
324  3.2300000000000D+00  0.0000000000000D+00  0.0000000000000D+00
325  3.2400000000000D+00  0.0000000000000D+00  0.0000000000000D+00
326  3.2500000000000D+00  0.0000000000000D+00  0.0000000000000D+00
327  3.2600000000000D+00  0.0000000000000D+00  0.0000000000000D+00
328  3.2700000000000D+00  0.0000000000000D+00  0.0000000000000D+00
329  3.2800000000000D+00  0.0000000000000D+00  0.0000000000000D+00
330  3.2900000000000D+00  0.0000000000000D+00  0.0000000000000D+00
331  3.3000000000000D+00  0.0000000000000D+00  0.0000000000000D+00
332  3.3100000000000D+00  0.0000000000000D+00  0.0000000000000D+00
333  3.3200000000000D+00  0.0000000000000D+00  0.0000000000000D+00
334  3.3300000000000D+00  0.0000000000000D+00  0.0000000000000D+00
335  3.3400000000000D+00  0.0000000000000D+00  0.0000000000000D+00
336  3.3500000000000D+00  0.0000000000000D+00  0.0000000000000D+00
337  3.3600000000000D+00  0.0000000000000D+00  0.0000000000000D+00
338  3.3700000000000D+00  0.0000000000000D+00  0.0000000000000D+00
339  3.3800000000000D+00  0.0000000000000D+00  0.0000000000000D+00
340  3.3900000000000D+00  0.0000000000000D+00  0.0000000000000D+00
341  3.4000000000000D+00  0.0000000000000D+00  0.0000000000000D+00
342  3.4100000000000D+00  0.0000000000000D+00  0.0000000000000D+00
343  3.4200000000000D+00  0.0000000000000D+00  0.0000000000000D+00
344  3.4300000000000D+00  0.0000000000000D+00  0.0000000000000D+00
345  3.4400000000000D+00  0.0000000000000D+00  0.0000000000000D+00
346  3.4500000000000D+00  0.0000000000000D+00  0.0000000000000D+00
347  3.4600000000000D+00  0.0000000000000D+00  0.0000000000000D+00
348  3.4700000000000D+00  0.0000000000000D+00  0.0000000000000D+00
349  3.4800000000000D+00  0.0000000000000D+00  0.0000000000000D+00
350  3.4900000000000D+00  0.0000000000000D+00  0.0000000000000D+00
351  3.5000000000000D+00  0.0000000000000D+00  0.0000000000000D+00
352  3.5100000000000D+00  0.0000000000000D+00  0.0000000000000D+00
353  3.5200000000000D+00  0.0000000000000D+00  0.0000000000000D+00
354  3.5300000000000D+00  0.0000000000000D+00  0.0000000000000D+00
355  3.5400000000000D+00  0.0000000000000D+00  0.0000000000000D+00
356  3.5500000000000D+00  0.0000000000000D+00  0.0000000000000D+00
357  3.5600000000000D+00  0.0000000000000D+00  0.0000000000000D+00
358  3.5700000000000D+00  0.0000000000000D+00  0.0000000000000D+00
359  3.5800000000000D+00  0.0000000000000D+00  0.0000000000000D+00
360  3.5900000000000D+00  0.0000000000000D+00  0.0000000000000D+00
361  3.6000000000000D+00  0.0000000000000D+00  0.0000000000000D+00
362  3.6100000000000D+00  0.0000000000000D+00  0.0000000000000D+00
363  3.6200000000000D+00  0.0000000000000D+00  0.0000000000000D+00
364  3.6300000000000D+00  0.0000000000000D+00  0.0000000000000D+00
365  3.6400000000000D+00  0.0000000000000D+00  0.0000000000000D+00
366  3.6500000000000D+00  0.0000000000000D+00  0.0000000000000D+00
367  3.6600000000000D+00  0.0000000000000D+00  0.0000000000000D+00
368  3.6700000000000D+00  0.0000000000000D+00  0.0000000000000D+00
369  3.6800000000000D+00  0.0000000000000D+00  0.0000000000000D+00
370  3.6900000000000D+00  0.0000000000000D+00  0.0000000000000D+00
371  3.7000000000000D+00  0.0000000000000D+00  0.0000000000000D+00
372  3.7100000000000D+00  0.0000000000000D+00  0.0000000000000D+00
373  3.7200000000000D+00  0.0000000000000D+00  0.0000000000000D+00
374  3.7300000000000D+00  0.0000000000000D+00  0.0000000000000D+00
375  3.7400000000000D+00  0.0000000000000D+00  0.0000000000000D+00
376  3.7500000000000D+00  0.0000000000000D+00  0.0000000000000D+00
377  3.7600000000000D+00  0.0000000000000D+00  0.0000000000000D+00
378  3.7700000000000D+00  0.0000000000000D+00  0.0000000000000D+00
379  3.7800000000000D+00  0.0000000000000D+00  0.0000000000000D+00
380  3.7900000000000D+00  0.0000000000000D+00  0.0000000000000D+00
381  3.8000000000000D+00  0.0000000000000D+00  0.0000000000000D+00
382  3.8100000000000D+00  0.0000000000000D+00  0.0000000000000D+00
383  3.8200000000000D+00  0.0000000000000D+00  0.0000000000000D+00
384  3.8300000000000D+00  0.0000000000000D+00  0.0000000000000D+00
385  3.8400000000000D+00  0.0000000000000D+00  0.0000000000000D+00
386  3.8500000000000D+00  0.0000000000000D+00  0.0000000000000D+00
387  3.8600000000000D+00  0.0000000000000D+00  0.0000000000000D+00
388  3.8700000000000D+00  0.0000000000000D+00  0.0000000000000D+00
389  3.8800000000000D+00  0.0000000000000D+00  0.0000000000000D+00
390  3.8900000000000D+00  0.0000000000000D+00  0.0000000000000D+00
391  3.9000000000000D+00  0.0000000000000D+00  0.0000000000000D+00
392  3.9100000000000D+00  0.0000000000000D+00  0.0000000000000D+00
393  3.9200000000000D+00  0.0000000000000D+00  0.0000000000000D+00
394  3.9300000000000D+00  0.0000000000000D+00  0.0000000000000D+00
395  3.9400000000000D+00  0.0000000000000D+00  0.0000000000000D+00
396  3.9500000000000D+00  0.0000000000000D+00  0.0000000000000D+00
397  3.9600000000000D+00  0.0000000000000D+00  0.0000000000000D+00
398  3.9700000000000D+00  0.0000000000000D+00  0.0000000000000D+00
399  3.9800000000000D+00  0.0000000000000D+00  0.0000000000000D+00
400  3.9900000000000D+00  0.0000000000000D+00  0.0000000000000D+00
401  4.0000000000000D+00  0.0000000000000D+00  0.0000000000000D+00
402  4.0100000000000D+00  0.0000000000000D+00  0.0000000000000D+00
403  4.0200000000000D+00  0.0000000000000D+00  0.0000000000000D+00
404  4.0300000000000D+00  0.0000000000000D+00  0.0000000000000D+00
405  4.0400000000000D+00  0.0000000000000D+00  0.0000000000000D+00
406  4.0500000000000D+00  0.0000000000000D+00  0.0000000000000D+00
407  4.0600000000000D+00  0.0000000000000D+00  0.0000000000000D+00
408  4.0700000000000D+00  0.0000000000000D+00  0.0000000000000D+00
409  4.0800000000000D+00  0.0000000000000D+00  0.0000000000000D+00
410  4.0900000000000D+00  0.0000000000000D+00  0.0000000000000D+00
411  4.1000000000000D+00  0.0000000000000D+00  0.0000000000000D+00
412  4.1100000000000D+00  0.0000000000000D+00  0.0000000000000D+00
413  4.1200000000000D+00  0.0000000000000D+00  0.0000000000000D+00
414  4.1300000000000D+00  0.0000000000000D+00  0.0000000000000D+00
415  4.1400000000000D+00  0.0000000000000D+00  0.0000000000000D+00
416  4.1500000000000D+00  0.0000000000000D+00  0.0000000000000D+00
417  4.1600000000000D+00  0.0000000000000D+00  0.0000000000000D+00
418  4.1700000000000D+00  0.0000000000000D+00  0.0000000000000D+00
419  4.1800000000000D+00  0.0000000000000D+00  0.0000000000000D+00
420  4.1900000000000D+00  0.0000000000000D+00  0.0000000000000D+00
421  4.2000000000000D+00  0.0000000000000D+00  0.0000000000000D+00
422  4.2100000000000D+00  0.0000000000000D+00  0.0000000000000D+00
423  4.2200000000000D+00  0.0000000000000D+00  0.0000000000000D+00
424  4.2300000000000D+00  0.0000000000000D+00  0.0000000000000D+00
425  4.2400000000000D+00  0.0000000000000D+00  0.0000000000000D+00
426  4.2500000000000D+00  0.0000000000000D+00  0.0000000000000D+00
427  4.2600000000000D+00  0.0000000000000D+00  0.0000000000000D+00
428  4.2700000000000D+00  0.0000000000000D+00  0.0000000000000D+00
429  4.2800000000000D+00  0.0000000000000D+00  0.0000000000000D+00
430  4.2900000000000D+00  0.0000000000000D+00  0.0000000000000D+00
431  4.3000000000000D+00  0.0000000000000D+00  0.0000000000000D+00
432  4.3100000000000D+00  0.0000000000000D+00  0.0000000000000D+00
433  4.3200000000000D+00  0.0000000000000D+00  0.0000000000000D+00
434  4.3300000000000D+00  0.0000000000000D+00  0.0000000000000D+00
435  4.3400000000000D+00  0.0000000000000D+00  0.0000000000000D+00
436  4.3500000000000D+00  0.0000000000000D+00  0.0000000000000D+00
437  4.3600000000000D+00  0.0000000000000D+00  0.0000000000000D+00
438  4.3700000000000D+00  0.0000000000000D+00  0.0000000000000D+00
439  4.3800000000000D+00  0.0000000000000D+00  0.0000000000000D+00
440  4.3900000000000D+00  0.0000000000000D+00  0.0000000000000D+00
441  4.4000000000000D+00  0.0000000000000D+00  0.0000000000000D+00
442  4.4100000000000D+00  0.0000000000000D+00  0.0000000000000D+00
443  4.4200000000000D+00  0.0000000000000D+00  0.0000000000000D+00
444  4.4300000000000D+00  0.0000000000000D+00  0.0000000000000D+00