Zn    ONCVPSP  r_core=  1.31  1.51  1.70
30.0000     20.0000      140826    zatom,zion,pspd
8    11     2     4   601     0    pspcod,pspxc,lmax,lloc,mmax,r2well
6.00000000  0.15000000  0.00000000    rchrg fchrg qchrg
2     2     2     0     0    nproj
0                 extension_switch
0                         4.2179218946683D+00 -1.1837504455942D+00
1  0.0000000000000D+00  0.0000000000000D+00  0.0000000000000D+00
2  1.0000000000000D-02  1.0260538378501D-01  2.5256758735712D-02
3  2.0000000000000D-02  2.0483034322756D-01  5.0545310720255D-02
4  3.0000000000000D-02  3.0629571384732D-01  7.5897055515403D-02
5  4.0000000000000D-02  4.0662485087533D-01  1.0134260878763D-01
6  5.0000000000000D-02  5.0544488900207D-01  1.2691141902447D-01
7  6.0000000000000D-02  6.0238800178468D-01  1.5263139455619D-01
8  7.0000000000000D-02  6.9709266025598D-01  1.7852854416469D-01
9  8.0000000000000D-02  7.8920488997910D-01  2.0462663443559D-01
10  9.0000000000000D-02  8.7837952544933D-01  2.3094686684807D-01
11  1.0000000000000D-01  9.6428146032770D-01  2.5750757741270D-01
12  1.1000000000000D-01  1.0465868915190D+00  2.8432396145703D-01
13  1.2000000000000D-01  1.1249845546362D+00  3.1140782591392D-01
14  1.3000000000000D-01  1.1991769478396D+00  3.3876737121502D-01
15  1.4000000000000D-01  1.2688815403867D+00  3.6640700462779D-01
16  1.5000000000000D-01  1.3338319619691D+00  3.9432718652541D-01
17  1.6000000000000D-01  1.3937791677225D+00  4.2252431087402D-01
18  1.7000000000000D-01  1.4484925741233D+00  4.5099062075961D-01
19  1.8000000000000D-01  1.4977611592834D+00  4.7971415961371D-01
20  1.9000000000000D-01  1.5413945223953D+00  5.0867875828242D-01
21  2.0000000000000D-01  1.5792238930057D+00  5.3786405800527D-01
22  2.1000000000000D-01  1.6111030874782D+00  5.6724556866404D-01
23  2.2000000000000D-01  1.6369093988677D+00  5.9679476181800D-01
24  2.3000000000000D-01  1.6565444178932D+00  6.2647919728873D-01
25  2.4000000000000D-01  1.6699347722147D+00  6.5626268188544D-01
26  2.5000000000000D-01  1.6770327822562D+00  6.8610545912200D-01
27  2.6000000000000D-01  1.6778170140727D+00  7.1596442686089D-01
28  2.7000000000000D-01  1.6722927368881D+00  7.4579338269830D-01
29  2.8000000000000D-01  1.6604922599841D+00  7.7554329213844D-01
30  2.9000000000000D-01  1.6424751551921D+00  8.0516257922043D-01
31  3.0000000000000D-01  1.6183283506309D+00  8.3459743578369D-01
32  3.1000000000000D-01  1.5881660903421D+00  8.6379214665366D-01
33  3.2000000000000D-01  1.5521297530858D+00  8.9268942638030D-01
34  3.3000000000000D-01  1.5103875291378D+00  9.2123076853604D-01
35  3.4000000000000D-01  1.4631339429730D+00  9.4935680068747D-01
36  3.5000000000000D-01  1.4105892263934D+00  9.7700763688791D-01
37  3.6000000000000D-01  1.3529985320390D+00  1.0041232440380D+00
38  3.7000000000000D-01  1.2906309928611D+00  1.0306437912764D+00
39  3.8000000000000D-01  1.2237786329732D+00  1.0565099951679D+00
40  3.9000000000000D-01  1.1527550963759D+00  1.0816634728962D+00
41  4.0000000000000D-01  1.0778942538165D+00  1.1060470604129D+00
42  4.1000000000000D-01  9.9954864541447D-01  1.1296051296383D+00
43  4.2000000000000D-01  9.1808778152006D-01  1.1522838868077D+00
44  4.3000000000000D-01  8.3389630763535D-01  1.1740316515263D+00
45  4.4000000000000D-01  7.4737204134111D-01  1.1947991148929D+00
46  4.5000000000000D-01  6.5892389097590D-01  1.2145395749767D+00
47  4.6000000000000D-01  5.6896966756219D-01  1.2332091481132D+00
48  4.7000000000000D-01  4.7793380373034D-01  1.2507669546699D+00
49  4.8000000000000D-01  3.8624505167166D-01  1.2671752704387D+00
50  4.9000000000000D-01  2.9433391826911D-01  1.2823996816085D+00
51  5.0000000000000D-01  2.0263027014977D-01  1.2964091747801D+00
52  5.1000000000000D-01  1.1156089212534D-01  1.3091762097272D+00
53  5.2000000000000D-01  2.1546936641922D-02  1.3206767787294D+00
54  5.3000000000000D-01 -6.6998838646654D-02  1.3308904515057D+00
55  5.4000000000000D-01 -1.5367402763769D-01  1.3398003291958D+00
56  5.5000000000000D-01 -2.3808967372310D-01  1.3473930742524D+00
57  5.6000000000000D-01 -3.1987209407594D-01  1.3536588191580D+00
58  5.7000000000000D-01 -3.9866557344719D-01  1.3585911265496D+00
59  5.8000000000000D-01 -4.7413428168657D-01  1.3621868829320D+00
60  5.9000000000000D-01 -5.4596471142124D-01  1.3644462095116D+00
61  6.0000000000000D-01 -6.1386697929250D-01  1.3653723191196D+00
62  6.1000000000000D-01 -6.7757766321861D-01  1.3649714084639D+00
63  6.2000000000000D-01 -7.3686006757908D-01  1.3632524859358D+00
64  6.3000000000000D-01 -7.9150690169110D-01  1.3602272349728D+00
65  6.4000000000000D-01 -8.4134090915959D-01  1.3559098434455D+00
66  6.5000000000000D-01 -8.8621545168889D-01  1.3503168469301D+00
67  6.6000000000000D-01 -9.2601630090687D-01  1.3434669522119D+00
68  6.7000000000000D-01 -9.6066157155764D-01  1.3353808746790D+00
69  6.8000000000000D-01 -9.9010195388451D-01  1.3260811800680D+00
70  6.9000000000000D-01 -1.0143206300179D+00  1.3155921394060D+00
71  7.0000000000000D-01 -1.0333340295369D+00  1.3039395349430D+00
72  7.1000000000000D-01 -1.0471904087776D+00  1.2911505576142D+00
73  7.2000000000000D-01 -1.0559694767608D+00  1.2772536645496D+00
74  7.3000000000000D-01 -1.0597814763696D+00  1.2622784588319D+00
75  7.4000000000000D-01 -1.0587659572235D+00  1.2462555920166D+00
76  7.5000000000000D-01 -1.0530906011167D+00  1.2292166448378D+00
77  7.6000000000000D-01 -1.0429494306369D+00  1.2111940621578D+00
78  7.7000000000000D-01 -1.0285609701219D+00  1.1922210962199D+00
79  7.8000000000000D-01 -1.0101662915170D+00  1.1723317519603D+00
80  7.9000000000000D-01 -9.8802684177509D-01  1.1515607525791D+00
81  8.0000000000000D-01 -9.6242211718372D-01  1.1299435196227D+00
82  8.1000000000000D-01 -9.3364720558804D-01  1.1075161669527D+00
83  8.2000000000000D-01 -9.0201021883363D-01  1.0843155077307D+00
84  8.3000000000000D-01 -8.6782963887903D-01  1.0603790733231D+00
85  8.4000000000000D-01 -8.3143160193236D-01  1.0357451428231D+00
86  8.5000000000000D-01 -7.9314714564811D-01  1.0104527816998D+00
87  8.6000000000000D-01 -7.5330944488405D-01  9.8454188792626D-01
88  8.7000000000000D-01 -7.1225106176663D-01  9.5805324379535D-01
89  8.8000000000000D-01 -6.7030123584798D-01  9.3102857152536D-01
90  8.9000000000000D-01 -6.2778323995281D-01  9.0351059066628D-01
91  9.0000000000000D-01 -5.8501182689905D-01  8.7554307526254D-01
92  9.1000000000000D-01 -5.4229079161073D-01  8.4717090869803D-01
93  9.2000000000000D-01 -4.9991067219737D-01  8.1844013415381D-01
94  9.3000000000000D-01 -4.5814661231120D-01  7.8939799864912D-01
95  9.4000000000000D-01 -4.1725640546963D-01  7.6009298871701D-01
96  9.5000000000000D-01 -3.7747873999657D-01  7.3057485589145D-01
97  9.6000000000000D-01 -3.3903237214533D-01  7.0089463247199D-01
98  9.7000000000000D-01 -3.0211298199117D-01  6.7110462869142D-01
99  9.8000000000000D-01 -2.6689322466652D-01  6.4125842003428D-01
100  9.9000000000000D-01 -2.3352209417168D-01  6.1141081654822D-01
101  1.0000000000000D+00 -2.0212412386307D-01  5.8161781437704D-01
102  1.0100000000000D+00 -1.7279909046623D-01  5.5193653054604D-01
103  1.0200000000000D+00 -1.4562204345664D-01  5.2242512184767D-01
104  1.0300000000000D+00 -1.2064462168231D-01  4.9314272167697D-01
105  1.0400000000000D+00 -9.7891355442754D-02  4.6414922429031D-01
106  1.0500000000000D+00 -7.7364704087179D-02  4.3550522103922D-01
107  1.0600000000000D+00 -5.9044658457391D-02  4.0727182728383D-01
108  1.0700000000000D+00 -4.2889907227545D-02  3.7951051595207D-01
109  1.0800000000000D+00 -2.8840171767298D-02  3.5228307154198D-01
110  1.0900000000000D+00 -1.6813977770207D-02  3.2565102385752D-01
111  1.1000000000000D+00 -6.7145821918147D-03  2.9967573445671D-01
112  1.1100000000000D+00  1.5694697230965D-03  2.7441811081024D-01
113  1.1200000000000D+00  8.1623395985702D-03  2.4993857101164D-01
114  1.1300000000000D+00  1.3199923834216D-02  2.2629638305105D-01
115  1.1400000000000D+00  1.6826124737700D-02  2.0354957779814D-01
116  1.1500000000000D+00  1.9190916535219D-02  1.8175488103197D-01
117  1.1600000000000D+00  2.0449486171850D-02  1.6096778571451D-01
118  1.1700000000000D+00  2.0757947363213D-02  1.4124129240522D-01
119  1.1800000000000D+00  2.0271647675679D-02  1.2262641359657D-01
120  1.1900000000000D+00  1.9144455909203D-02  1.0517215906993D-01
121  1.2000000000000D+00  1.7526776848073D-02  8.8925168714976D-02
122  1.2100000000000D+00  1.5559005297454D-02  7.3928578307222D-02
123  1.2200000000000D+00  1.3374823109799D-02  6.0223107837313D-02
124  1.2300000000000D+00  1.1102412704557D-02  4.7847283046913D-02
125  1.2400000000000D+00  8.8505881999399D-03  3.6834878872253D-02
126  1.2500000000000D+00  6.7188392425567D-03  2.7217144786607D-02
127  1.2600000000000D+00  4.7980271318483D-03  1.9022876842177D-02
128  1.2700000000000D+00  3.1562746865391D-03  1.2276079637346D-02
129  1.2800000000000D+00  1.8458733983626D-03  6.9961884186329D-03
130  1.2900000000000D+00  9.0825455204659D-04  3.1994807257579D-03
131  1.3000000000000D+00  3.7089110207524D-04  9.8000057782147D-04
132  1.3100000000000D+00  1.5522491124512D-04  9.3292455259777D-05
133  1.3200000000000D+00  3.3215907712563D-05 -7.5977765577840D-05
134  1.3300000000000D+00 -8.2697501121045D-06 -4.0507072715915D-06
135  1.3400000000000D+00 -3.4384894081117D-06 -1.6842484790854D-06
136  1.3500000000000D+00  0.0000000000000D+00  0.0000000000000D+00
137  1.3600000000000D+00  0.0000000000000D+00  0.0000000000000D+00
138  1.3700000000000D+00  0.0000000000000D+00  0.0000000000000D+00
139  1.3800000000000D+00  0.0000000000000D+00  0.0000000000000D+00
140  1.3900000000000D+00  0.0000000000000D+00  0.0000000000000D+00
141  1.4000000000000D+00  0.0000000000000D+00  0.0000000000000D+00
142  1.4100000000000D+00  0.0000000000000D+00  0.0000000000000D+00
143  1.4200000000000D+00  0.0000000000000D+00  0.0000000000000D+00
144  1.4300000000000D+00  0.0000000000000D+00  0.0000000000000D+00
145  1.4400000000000D+00  0.0000000000000D+00  0.0000000000000D+00
146  1.4500000000000D+00  0.0000000000000D+00  0.0000000000000D+00
147  1.4600000000000D+00  0.0000000000000D+00  0.0000000000000D+00
148  1.4700000000000D+00  0.0000000000000D+00  0.0000000000000D+00
149  1.4800000000000D+00  0.0000000000000D+00  0.0000000000000D+00
150  1.4900000000000D+00  0.0000000000000D+00  0.0000000000000D+00
151  1.5000000000000D+00  0.0000000000000D+00  0.0000000000000D+00
152  1.5100000000000D+00  0.0000000000000D+00  0.0000000000000D+00
153  1.5200000000000D+00  0.0000000000000D+00  0.0000000000000D+00
154  1.5300000000000D+00  0.0000000000000D+00  0.0000000000000D+00
155  1.5400000000000D+00  0.0000000000000D+00  0.0000000000000D+00
156  1.5500000000000D+00  0.0000000000000D+00  0.0000000000000D+00
157  1.5600000000000D+00  0.0000000000000D+00  0.0000000000000D+00
158  1.5700000000000D+00  0.0000000000000D+00  0.0000000000000D+00
159  1.5800000000000D+00  0.0000000000000D+00  0.0000000000000D+00
160  1.5900000000000D+00  0.0000000000000D+00  0.0000000000000D+00
161  1.6000000000000D+00  0.0000000000000D+00  0.0000000000000D+00
162  1.6100000000000D+00  0.0000000000000D+00  0.0000000000000D+00
163  1.6200000000000D+00  0.0000000000000D+00  0.0000000000000D+00
164  1.6300000000000D+00  0.0000000000000D+00  0.0000000000000D+00
165  1.6400000000000D+00  0.0000000000000D+00  0.0000000000000D+00
166  1.6500000000000D+00  0.0000000000000D+00  0.0000000000000D+00
167  1.6600000000000D+00  0.0000000000000D+00  0.0000000000000D+00
168  1.6700000000000D+00  0.0000000000000D+00  0.0000000000000D+00
169  1.6800000000000D+00  0.0000000000000D+00  0.0000000000000D+00
170  1.6900000000000D+00  0.0000000000000D+00  0.0000000000000D+00
171  1.7000000000000D+00  0.0000000000000D+00  0.0000000000000D+00
172  1.7100000000000D+00  0.0000000000000D+00  0.0000000000000D+00
173  1.7200000000000D+00  0.0000000000000D+00  0.0000000000000D+00
174  1.7300000000000D+00  0.0000000000000D+00  0.0000000000000D+00
175  1.7400000000000D+00  0.0000000000000D+00  0.0000000000000D+00
176  1.7500000000000D+00  0.0000000000000D+00  0.0000000000000D+00
177  1.7600000000000D+00  0.0000000000000D+00  0.0000000000000D+00
178  1.7700000000000D+00  0.0000000000000D+00  0.0000000000000D+00
179  1.7800000000000D+00  0.0000000000000D+00  0.0000000000000D+00
180  1.7900000000000D+00  0.0000000000000D+00  0.0000000000000D+00
181  1.8000000000000D+00  0.0000000000000D+00  0.0000000000000D+00
182  1.8100000000000D+00  0.0000000000000D+00  0.0000000000000D+00
183  1.8200000000000D+00  0.0000000000000D+00  0.0000000000000D+00
184  1.8300000000000D+00  0.0000000000000D+00  0.0000000000000D+00
185  1.8400000000000D+00  0.0000000000000D+00  0.0000000000000D+00
186  1.8500000000000D+00  0.0000000000000D+00  0.0000000000000D+00
187  1.8600000000000D+00  0.0000000000000D+00  0.0000000000000D+00
188  1.8700000000000D+00  0.0000000000000D+00  0.0000000000000D+00
189  1.8800000000000D+00  0.0000000000000D+00  0.0000000000000D+00
190  1.8900000000000D+00  0.0000000000000D+00  0.0000000000000D+00
191  1.9000000000000D+00  0.0000000000000D+00  0.0000000000000D+00
192  1.9100000000000D+00  0.0000000000000D+00  0.0000000000000D+00
193  1.9200000000000D+00  0.0000000000000D+00  0.0000000000000D+00
194  1.9300000000000D+00  0.0000000000000D+00  0.0000000000000D+00
195  1.9400000000000D+00  0.0000000000000D+00  0.0000000000000D+00
196  1.9500000000000D+00  0.0000000000000D+00  0.0000000000000D+00
197  1.9600000000000D+00  0.0000000000000D+00  0.0000000000000D+00
198  1.9700000000000D+00  0.0000000000000D+00  0.0000000000000D+00
199  1.9800000000000D+00  0.0000000000000D+00  0.0000000000000D+00
200  1.9900000000000D+00  0.0000000000000D+00  0.0000000000000D+00
201  2.0000000000000D+00  0.0000000000000D+00  0.0000000000000D+00
202  2.0100000000000D+00  0.0000000000000D+00  0.0000000000000D+00
203  2.0200000000000D+00  0.0000000000000D+00  0.0000000000000D+00
204  2.0300000000000D+00  0.0000000000000D+00  0.0000000000000D+00
205  2.0400000000000D+00  0.0000000000000D+00  0.0000000000000D+00
206  2.0500000000000D+00  0.0000000000000D+00  0.0000000000000D+00
207  2.0600000000000D+00  0.0000000000000D+00  0.0000000000000D+00
208  2.0700000000000D+00  0.0000000000000D+00  0.0000000000000D+00
209  2.0800000000000D+00  0.0000000000000D+00  0.0000000000000D+00
210  2.0900000000000D+00  0.0000000000000D+00  0.0000000000000D+00
211  2.1000000000000D+00  0.0000000000000D+00  0.0000000000000D+00
212  2.1100000000000D+00  0.0000000000000D+00  0.0000000000000D+00
213  2.1200000000000D+00  0.0000000000000D+00  0.0000000000000D+00
214  2.1300000000000D+00  0.0000000000000D+00  0.0000000000000D+00
215  2.1400000000000D+00  0.0000000000000D+00  0.0000000000000D+00
216  2.1500000000000D+00  0.0000000000000D+00  0.0000000000000D+00
217  2.1600000000000D+00  0.0000000000000D+00  0.0000000000000D+00
218  2.1700000000000D+00  0.0000000000000D+00  0.0000000000000D+00
219  2.1800000000000D+00  0.0000000000000D+00  0.0000000000000D+00
220  2.1900000000000D+00  0.0000000000000D+00  0.0000000000000D+00
221  2.2000000000000D+00  0.0000000000000D+00  0.0000000000000D+00
222  2.2100000000000D+00  0.0000000000000D+00  0.0000000000000D+00
223  2.2200000000000D+00  0.0000000000000D+00  0.0000000000000D+00
224  2.2300000000000D+00  0.0000000000000D+00  0.0000000000000D+00
225  2.2400000000000D+00  0.0000000000000D+00  0.0000000000000D+00
226  2.2500000000000D+00  0.0000000000000D+00  0.0000000000000D+00
227  2.2600000000000D+00  0.0000000000000D+00  0.0000000000000D+00
228  2.2700000000000D+00  0.0000000000000D+00  0.0000000000000D+00
229  2.2800000000000D+00  0.0000000000000D+00  0.0000000000000D+00
230  2.2900000000000D+00  0.0000000000000D+00  0.0000000000000D+00
231  2.3000000000000D+00  0.0000000000000D+00  0.0000000000000D+00
232  2.3100000000000D+00  0.0000000000000D+00  0.0000000000000D+00
233  2.3200000000000D+00  0.0000000000000D+00  0.0000000000000D+00
234  2.3300000000000D+00  0.0000000000000D+00  0.0000000000000D+00
235  2.3400000000000D+00  0.0000000000000D+00  0.0000000000000D+00
236  2.3500000000000D+00  0.0000000000000D+00  0.0000000000000D+00
237  2.3600000000000D+00  0.0000000000000D+00  0.0000000000000D+00
238  2.3700000000000D+00  0.0000000000000D+00  0.0000000000000D+00
239  2.3800000000000D+00  0.0000000000000D+00  0.0000000000000D+00
240  2.3900000000000D+00  0.0000000000000D+00  0.0000000000000D+00
241  2.4000000000000D+00  0.0000000000000D+00  0.0000000000000D+00
242  2.4100000000000D+00  0.0000000000000D+00  0.0000000000000D+00
243  2.4200000000000D+00  0.0000000000000D+00  0.0000000000000D+00
244  2.4300000000000D+00  0.0000000000000D+00  0.0000000000000D+00
245  2.4400000000000D+00  0.0000000000000D+00  0.0000000000000D+00
246  2.4500000000000D+00  0.0000000000000D+00  0.0000000000000D+00
247  2.4600000000000D+00  0.0000000000000D+00  0.0000000000000D+00
248  2.4700000000000D+00  0.0000000000000D+00  0.0000000000000D+00
249  2.4800000000000D+00  0.0000000000000D+00  0.0000000000000D+00
250  2.4900000000000D+00  0.0000000000000D+00  0.0000000000000D+00
251  2.5000000000000D+00  0.0000000000000D+00  0.0000000000000D+00
252  2.5100000000000D+00  0.0000000000000D+00  0.0000000000000D+00
253  2.5200000000000D+00  0.0000000000000D+00  0.0000000000000D+00
254  2.5300000000000D+00  0.0000000000000D+00  0.0000000000000D+00
255  2.5400000000000D+00  0.0000000000000D+00  0.0000000000000D+00
256  2.5500000000000D+00  0.0000000000000D+00  0.0000000000000D+00
257  2.5600000000000D+00  0.0000000000000D+00  0.0000000000000D+00
258  2.5700000000000D+00  0.0000000000000D+00  0.0000000000000D+00
259  2.5800000000000D+00  0.0000000000000D+00  0.0000000000000D+00
260  2.5900000000000D+00  0.0000000000000D+00  0.0000000000000D+00
261  2.6000000000000D+00  0.0000000000000D+00  0.0000000000000D+00
262  2.6100000000000D+00  0.0000000000000D+00  0.0000000000000D+00
263  2.6200000000000D+00  0.0000000000000D+00  0.0000000000000D+00
264  2.6300000000000D+00  0.0000000000000D+00  0.0000000000000D+00
265  2.6400000000000D+00  0.0000000000000D+00  0.0000000000000D+00
266  2.6500000000000D+00  0.0000000000000D+00  0.0000000000000D+00
267  2.6600000000000D+00  0.0000000000000D+00  0.0000000000000D+00
268  2.6700000000000D+00  0.0000000000000D+00  0.0000000000000D+00
269  2.6800000000000D+00  0.0000000000000D+00  0.0000000000000D+00
270  2.6900000000000D+00  0.0000000000000D+00  0.0000000000000D+00
271  2.7000000000000D+00  0.0000000000000D+00  0.0000000000000D+00
272  2.7100000000000D+00  0.0000000000000D+00  0.0000000000000D+00
273  2.7200000000000D+00  0.0000000000000D+00  0.0000000000000D+00
274  2.7300000000000D+00  0.0000000000000D+00  0.0000000000000D+00
275  2.7400000000000D+00  0.0000000000000D+00  0.0000000000000D+00
276  2.7500000000000D+00  0.0000000000000D+00  0.0000000000000D+00
277  2.7600000000000D+00  0.0000000000000D+00  0.0000000000000D+00
278  2.7700000000000D+00  0.0000000000000D+00  0.0000000000000D+00
279  2.7800000000000D+00  0.0000000000000D+00  0.0000000000000D+00
280  2.7900000000000D+00  0.0000000000000D+00  0.0000000000000D+00
281  2.8000000000000D+00  0.0000000000000D+00  0.0000000000000D+00
282  2.8100000000000D+00  0.0000000000000D+00  0.0000000000000D+00
283  2.8200000000000D+00  0.0000000000000D+00  0.0000000000000D+00
284  2.8300000000000D+00  0.0000000000000D+00  0.0000000000000D+00
285  2.8400000000000D+00  0.0000000000000D+00  0.0000000000000D+00
286  2.8500000000000D+00  0.0000000000000D+00  0.0000000000000D+00
287  2.8600000000000D+00  0.0000000000000D+00  0.0000000000000D+00
288  2.8700000000000D+00  0.0000000000000D+00  0.0000000000000D+00
289  2.8800000000000D+00  0.0000000000000D+00  0.0000000000000D+00
290  2.8900000000000D+00  0.0000000000000D+00  0.0000000000000D+00
291  2.9000000000000D+00  0.0000000000000D+00  0.0000000000000D+00
292  2.9100000000000D+00  0.0000000000000D+00  0.0000000000000D+00
293  2.9200000000000D+00  0.0000000000000D+00  0.0000000000000D+00
294  2.9300000000000D+00  0.0000000000000D+00  0.0000000000000D+00
295  2.9400000000000D+00  0.0000000000000D+00  0.0000000000000D+00
296  2.9500000000000D+00  0.0000000000000D+00  0.0000000000000D+00
297  2.9600000000000D+00  0.0000000000000D+00  0.0000000000000D+00
298  2.9700000000000D+00  0.0000000000000D+00  0.0000000000000D+00
299  2.9800000000000D+00  0.0000000000000D+00  0.0000000000000D+00
300  2.9900000000000D+00  0.0000000000000D+00  0.0000000000000D+00
301  3.0000000000000D+00  0.0000000000000D+00  0.0000000000000D+00
302  3.0100000000000D+00  0.0000000000000D+00  0.0000000000000D+00
303  3.0200000000000D+00  0.0000000000000D+00  0.0000000000000D+00
304  3.0300000000000D+00  0.0000000000000D+00  0.0000000000000D+00
305  3.0400000000000D+00  0.0000000000000D+00  0.0000000000000D+00
306  3.0500000000000D+00  0.0000000000000D+00  0.0000000000000D+00
307  3.0600000000000D+00  0.0000000000000D+00  0.0000000000000D+00
308  3.0700000000000D+00  0.0000000000000D+00  0.0000000000000D+00
309  3.0800000000000D+00  0.0000000000000D+00  0.0000000000000D+00
310  3.0900000000000D+00  0.0000000000000D+00  0.0000000000000D+00
311  3.1000000000000D+00  0.0000000000000D+00  0.0000000000000D+00
312  3.1100000000000D+00  0.0000000000000D+00  0.0000000000000D+00
313  3.1200000000000D+00  0.0000000000000D+00  0.0000000000000D+00
314  3.1300000000000D+00  0.0000000000000D+00  0.0000000000000D+00
315  3.1400000000000D+00  0.0000000000000D+00  0.0000000000000D+00
316  3.1500000000000D+00  0.0000000000000D+00  0.0000000000000D+00
317  3.1600000000000D+00  0.0000000000000D+00  0.0000000000000D+00
318  3.1700000000000D+00  0.0000000000000D+00  0.0000000000000D+00
319  3.1800000000000D+00  0.0000000000000D+00  0.0000000000000D+00
320  3.1900000000000D+00  0.0000000000000D+00  0.0000000000000D+00
321  3.2000000000000D+00  0.0000000000000D+00  0.0000000000000D+00
322  3.2100000000000D+00  0.0000000000000D+00  0.0000000000000D+00
323  3.2200000000000D+00  0.0000000000000D+00  0.0000000000000D+00
324  3.2300000000000D+00  0.0000000000000D+00  0.0000000000000D+00
325  3.2400000000000D+00  0.0000000000000D+00  0.0000000000000D+00
326  3.2500000000000D+00  0.0000000000000D+00  0.0000000000000D+00
327  3.2600000000000D+00  0.0000000000000D+00  0.0000000000000D+00
328  3.2700000000000D+00  0.0000000000000D+00  0.0000000000000D+00
329  3.2800000000000D+00  0.0000000000000D+00  0.0000000000000D+00
330  3.2900000000000D+00  0.0000000000000D+00  0.0000000000000D+00
331  3.3000000000000D+00  0.0000000000000D+00  0.0000000000000D+00
332  3.3100000000000D+00  0.0000000000000D+00  0.0000000000000D+00
333  3.3200000000000D+00  0.0000000000000D+00  0.0000000000000D+00
334  3.3300000000000D+00  0.0000000000000D+00  0.0000000000000D+00
335  3.3400000000000D+00  0.0000000000000D+00  0.0000000000000D+00
336  3.3500000000000D+00  0.0000000000000D+00  0.0000000000000D+00
337  3.3600000000000D+00  0.0000000000000D+00  0.0000000000000D+00
338  3.3700000000000D+00  0.0000000000000D+00  0.0000000000000D+00
339  3.3800000000000D+00  0.0000000000000D+00  0.0000000000000D+00
340  3.3900000000000D+00  0.0000000000000D+00  0.0000000000000D+00
341  3.4000000000000D+00  0.0000000000000D+00  0.0000000000000D+00
342  3.4100000000000D+00  0.0000000000000D+00  0.0000000000000D+00
343  3.4200000000000D+00  0.0000000000000D+00  0.0000000000000D+00
344  3.4300000000000D+00  0.0000000000000D+00  0.0000000000000D+00
345  3.4400000000000D+00  0.0000000000000D+00  0.0000000000000D+00
346  3.4500000000000D+00  0.0000000000000D+00  0.0000000000000D+00
347  3.4600000000000D+00  0.0000000000000D+00  0.0000000000000D+00
348  3.4700000000000D+00  0.0000000000000D+00  0.0000000000000D+00
349  3.4800000000000D+00  0.0000000000000D+00  0.0000000000000D+00
350  3.4900000000000D+00  0.0000000000000D+00  0.0000000000000D+00
351  3.5000000000000D+00  0.0000000000000D+00  0.0000000000000D+00
352  3.5100000000000D+00  0.0000000000000D+00  0.0000000000000D+00
353  3.5200000000000D+00  0.0000000000000D+00  0.0000000000000D+00
354  3.5300000000000D+00  0.0000000000000D+00  0.0000000000000D+00
355  3.5400000000000D+00  0.0000000000000D+00  0.0000000000000D+00
356  3.5500000000000D+00  0.0000000000000D+00  0.0000000000000D+00
357  3.5600000000000D+00  0.0000000000000D+00  0.0000000000000D+00
358  3.5700000000000D+00  0.0000000000000D+00  0.0000000000000D+00
359  3.5800000000000D+00  0.0000000000000D+00  0.0000000000000D+00
360  3.5900000000000D+00  0.0000000000000D+00  0.0000000000000D+00
361  3.6000000000000D+00  0.0000000000000D+00  0.0000000000000D+00
362  3.6100000000000D+00  0.0000000000000D+00  0.0000000000000D+00
363  3.6200000000000D+00  0.0000000000000D+00  0.0000000000000D+00
364  3.6300000000000D+00  0.0000000000000D+00  0.0000000000000D+00
365  3.6400000000000D+00  0.0000000000000D+00  0.0000000000000D+00
366  3.6500000000000D+00  0.0000000000000D+00  0.0000000000000D+00
367  3.6600000000000D+00  0.0000000000000D+00  0.0000000000000D+00
368  3.6700000000000D+00  0.0000000000000D+00  0.0000000000000D+00
369  3.6800000000000D+00  0.0000000000000D+00  0.0000000000000D+00
370  3.6900000000000D+00  0.0000000000000D+00  0.0000000000000D+00
371  3.7000000000000D+00  0.0000000000000D+00  0.0000000000000D+00
372  3.7100000000000D+00  0.0000000000000D+00  0.0000000000000D+00
373  3.7200000000000D+00  0.0000000000000D+00  0.0000000000000D+00
374  3.7300000000000D+00  0.0000000000000D+00  0.0000000000000D+00
375  3.7400000000000D+00  0.0000000000000D+00  0.0000000000000D+00
376  3.7500000000000D+00  0.0000000000000D+00  0.0000000000000D+00
377  3.7600000000000D+00  0.0000000000000D+00  0.0000000000000D+00
378  3.7700000000000D+00  0.0000000000000D+00  0.0000000000000D+00
379  3.7800000000000D+00  0.0000000000000D+00  0.0000000000000D+00
380  3.7900000000000D+00  0.0000000000000D+00  0.0000000000000D+00
381  3.8000000000000D+00  0.0000000000000D+00  0.0000000000000D+00
382  3.8100000000000D+00  0.0000000000000D+00  0.0000000000000D+00
383  3.8200000000000D+00  0.0000000000000D+00  0.0000000000000D+00
384  3.8300000000000D+00  0.0000000000000D+00  0.0000000000000D+00
385  3.8400000000000D+00  0.0000000000000D+00  0.0000000000000D+00
386  3.8500000000000D+00  0.0000000000000D+00  0.0000000000000D+00
387  3.8600000000000D+00  0.0000000000000D+00  0.0000000000000D+00
388  3.8700000000000D+00  0.0000000000000D+00  0.0000000000000D+00
389  3.8800000000000D+00  0.0000000000000D+00  0.0000000000000D+00
390  3.8900000000000D+00  0.0000000000000D+00  0.0000000000000D+00
391  3.9000000000000D+00  0.0000000000000D+00  0.0000000000000D+00
392  3.9100000000000D+00  0.0000000000000D+00  0.0000000000000D+00
393  3.9200000000000D+00  0.0000000000000D+00  0.0000000000000D+00
394  3.9300000000000D+00  0.0000000000000D+00  0.0000000000000D+00
395  3.9400000000000D+00  0.0000000000000D+00  0.0000000000000D+00
396  3.9500000000000D+00  0.0000000000000D+00  0.0000000000000D+00
397  3.9600000000000D+00  0.0000000000000D+00  0.0000000000000D+00
398  3.9700000000000D+00  0.0000000000000D+00  0.0000000000000D+00
399  3.9800000000000D+00  0.0000000000000D+00  0.0000000000000D+00
400  3.9900000000000D+00  0.0000000000000D+00  0.0000000000000D+00
401  4.0000000000000D+00  0.0000000000000D+00  0.0000000000000D+00
402  4.0100000000000D+00  0.0000000000000D+00  0.0000000000000D+00
403  4.0200000000000D+00  0.0000000000000D+00  0.0000000000000D+00
404  4.0300000000000D+00  0.0000000000000D+00  0.0000000000000D+00
405  4.0400000000000D+00  0.0000000000000D+00  0.0000000000000D+00
406  4.0500000000000D+00  0.0000000000000D+00  0.0000000000000D+00
407  4.0600000000000D+00  0.0000000000000D+00  0.0000000000000D+00
408  4.0700000000000D+00  0.0000000000000D+00  0.0000000000000D+00
409  4.0800000000000D+00  0.0000000000000D+00  0.0000000000000D+00
410  4.0900000000000D+00  0.0000000000000D+00  0.0000000000000D+00
411  4.1000000000000D+00  0.0000000000000D+00  0.0000000000000D+00
412  4.1100000000000D+00  0.0000000000000D+00  0.0000000000000D+00
413  4.1200000000000D+00  0.0000000000000D+00  0.0000000000000D+00
414  4.1300000000000D+00  0.0000000000000D+00  0.0000000000000D+00
415  4.1400000000000D+00  0.0000000000000D+00  0.0000000000000D+00
416  4.1500000000000D+00  0.0000000000000D+00  0.0000000000000D+00
417  4.1600000000000D+00  0.0000000000000D+00  0.0000000000000D+00
418  4.1700000000000D+00  0.0000000000000D+00  0.0000000000000D+00
419  4.1800000000000D+00  0.0000000000000D+00  0.0000000000000D+00
420  4.1900000000000D+00  0.0000000000000D+00  0.0000000000000D+00
421  4.2000000000000D+00  0.0000000000000D+00  0.0000000000000D+00
422  4.2100000000000D+00  0.0000000000000D+00  0.0000000000000D+00
423  4.2200000000000D+00  0.0000000000000D+00  0.0000000000000D+00
424  4.2300000000000D+00  0.0000000000000D+00  0.0000000000000D+00
425  4.2400000000000D+00  0.0000000000000D+00  0.0000000000000D+00
426  4.2500000000000D+00  0.0000000000000D+00  0.0000000000000D+00
427  4.2600000000000D+00  0.0000000000000D+00  0.0000000000000D+00
428  4.2700000000000D+00  0.0000000000000D+00  0.0000000000000D+00
429  4.2800000000000D+00  0.0000000000000D+00  0.0000000000000D+00
430  4.2900000000000D+00  0.0000000000000D+00  0.0000000000000D+00
431  4.3000000000000D+00  0.0000000000000D+00  0.0000000000000D+00
432  4.3100000000000D+00  0.0000000000000D+00  0.0000000000000D+00
433  4.3200000000000D+00  0.0000000000000D+00  0.0000000000000D+00
434  4.3300000000000D+00  0.0000000000000D+00  0.0000000000000D+00
435  4.3400000000000D+00  0.0000000000000D+00  0.0000000000000D+00
436  4.3500000000000D+00  0.0000000000000D+00  0.0000000000000D+00
437  4.3600000000000D+00  0.0000000000000D+00  0.0000000000000D+00
438  4.3700000000000D+00  0.0000000000000D+00  0.0000000000000D+00
439  4.3800000000000D+00  0.0000000000000D+00  0.0000000000000D+00
440  4.3900000000000D+00  0.0000000000000D+00  0.0000000000000D+00
441  4.4000000000000D+00  0.0000000000000D+00  0.0000000000000D+00
442  4.4100000000000D+00  0.0000000000000D+00  0.0000000000000D+00
443  4.4200000000000D+00  0.0000000000000D+00  0.0000000000000D+00
444  4.4300000000000D+00  0.0000000000000D+00  0.0000000000000D+00