Tm    ONCVPSP  r_core=  1.81  1.52  1.67  1.71
69.0000     23.0000      160625    zatom,zion,pspd
8      11   3     4   600     0    pspcod,pspxc,lmax,lloc,mmax,r2well
5.99000000  0.25000000  0.00000000    rchrg fchrg qchrg
2     2     2     2     0    nproj
1                 extension_switch
0                         8.9946337523140D+00  8.3505417130957D-01
1  0.0000000000000D+00 -1.6635093302853D-10  6.8672964537164D-10
2  1.0000000000000D-02  5.7319912627432D-02 -2.6617794029741D-02
3  2.0000000000000D-02  1.1451894666695D-01 -5.2982811948200D-02
4  3.0000000000000D-02  1.7147681833603D-01 -7.8844480124558D-02
5  4.0000000000000D-02  2.2807442867394D-01 -1.0395660997774D-01
6  5.0000000000000D-02  2.8419444402266D-01 -1.2807954089861D-01
7  6.0000000000000D-02  3.3972186231045D-01 -1.5098222413822D-01
8  7.0000000000000D-02  3.9454456060206D-01 -1.7244422879531D-01
9  8.0000000000000D-02  4.4855381954608D-01 -1.9225765172315D-01
10  9.0000000000000D-02  5.0164482055518D-01 -2.1022891402315D-01
11  1.0000000000000D-01  5.5371711179729D-01 -2.2618042779524D-01
12  1.1000000000000D-01  6.0467503935369D-01 -2.3995211796171D-01
13  1.2000000000000D-01  6.5442814021037D-01 -2.5140278526620D-01
14  1.3000000000000D-01  7.0289149408938D-01 -2.6041129795807D-01
15  1.4000000000000D-01  7.4998603149507D-01 -2.6687760119653D-01
16  1.5000000000000D-01  7.9563879574190D-01 -2.7072353483334D-01
17  1.6000000000000D-01  8.3978315714304D-01 -2.7189345194480D-01
18  1.7000000000000D-01  8.8235897796905D-01 -2.7035463226921D-01
19  1.8000000000000D-01  9.2331272722877D-01 -2.6609748654892D-01
20  1.9000000000000D-01  9.6259754477747D-01 -2.5913554966141D-01
21  2.0000000000000D-01  1.0001732547153D+00 -2.4950526233527D-01
22  2.1000000000000D-01  1.0360063284988D+00 -2.3726554316730D-01
23  2.2000000000000D-01  1.0700697986451D+00 -2.2249715457090D-01
24  2.3000000000000D-01  1.1023431243589D+00 -2.0530186817527D-01
25  2.4000000000000D-01  1.1328120108502D+00 -1.8580143704314D-01
26  2.5000000000000D-01  1.1614681845369D+00 -1.6413638386648D-01
27  2.6000000000000D-01  1.1883091267301D+00 -1.4046461601699D-01
28  2.7000000000000D-01  1.2133377687829D+00 -1.1495987995650D-01
29  2.8000000000000D-01  1.2365621520395D+00 -8.7810069036590D-02
30  2.9000000000000D-01  1.2579950562469D+00 -5.9215400120949D-02
31  3.0000000000000D-01  1.2776536003858D+00 -2.9386475737695D-02
32  3.1000000000000D-01  1.2955588201319D+00  1.4577504043422D-03
33  3.2000000000000D-01  1.3117352263786D+00  3.3092085728938D-02
34  3.3000000000000D-01  1.3262103494260D+00  6.5287269324399D-02
35  3.4000000000000D-01  1.3390142735783D+00  9.7812180452648D-02
36  3.5000000000000D-01  1.3501791669745D+00  1.3043606434650D-01
37  3.6000000000000D-01  1.3597388115246D+00  1.6293075434677D-01
38  3.7000000000000D-01  1.3677281378138D+00  1.9507286936423D-01
39  3.8000000000000D-01  1.3741827697875D+00  2.2664596577875D-01
40  3.9000000000000D-01  1.3791385839280D+00  2.5744262321250D-01
41  4.0000000000000D-01  1.3826312874853D+00  2.8726644413176D-01
42  4.1000000000000D-01  1.3846960201346D+00  3.1593394794242D-01
43  4.2000000000000D-01  1.3853669831884D+00  3.4327634114144D-01
44  4.3000000000000D-01  1.3846771002153D+00  3.6914114616515D-01
45  4.4000000000000D-01  1.3826577125911D+00  3.9339367282511D-01
46  4.5000000000000D-01  1.3793383131494D+00  4.1591831763673D-01
47  4.6000000000000D-01  1.3747463207011D+00  4.3661967790887D-01
48  4.7000000000000D-01  1.3689068977679D+00  4.5542346916572D-01
49  4.8000000000000D-01  1.3618428134177D+00  4.7227723629607D-01
50  4.9000000000000D-01  1.3535743526121D+00  4.8715085075732D-01
51  5.0000000000000D-01  1.3441192729805D+00  5.0003678818198D-01
52  5.1000000000000D-01  1.3334928094216D+00  5.1095018282561D-01
53  5.2000000000000D-01  1.3217077264165D+00  5.1992865743837D-01
54  5.3000000000000D-01  1.3087744174093D+00  5.2703192931325D-01
55  5.4000000000000D-01  1.2947010500931D+00  5.3234119544800D-01
56  5.5000000000000D-01  1.2794937559199D+00  5.3595830192793D-01
57  5.6000000000000D-01  1.2631568616540D+00  5.3800470477044D-01
58  5.7000000000000D-01  1.2456931603005D+00  5.3862023155700D-01
59  5.8000000000000D-01  1.2271042182806D+00  5.3796165517579D-01
60  5.9000000000000D-01  1.2073907152927D+00  5.3620109291011D-01
61  6.0000000000000D-01  1.1865528128991D+00  5.3352424588515D-01
62  6.1000000000000D-01  1.1645905475172D+00  5.3012849554115D-01
63  6.2000000000000D-01  1.1415042431778D+00  5.2622087528402D-01
64  6.3000000000000D-01  1.1172949391414D+00  5.2201593678431D-01
65  6.4000000000000D-01  1.0919648272455D+00  5.1773353151976D-01
66  6.5000000000000D-01  1.0655176936898D+00  5.1359652907701D-01
67  6.6000000000000D-01  1.0379593598580D+00  5.0982849443560D-01
68  6.7000000000000D-01  1.0092981167248D+00  5.0665134693632D-01
69  6.8000000000000D-01  9.7954514740959D-01  5.0428302388214D-01
70  6.9000000000000D-01  9.4871493250736D-01  5.0293517172953D-01
71  7.0000000000000D-01  9.1682563296426D-01  5.0281088759385D-01
72  7.1000000000000D-01  8.8389944545831D-01  5.0410253331889D-01
73  7.2000000000000D-01  8.4996292550018D-01  5.0698964365104D-01
74  7.3000000000000D-01  8.1504727378247D-01  5.1163694911104D-01
75  7.4000000000000D-01  7.7918858167245D-01  5.1819253298970D-01
76  7.5000000000000D-01  7.4242803216316D-01  5.2678614051181D-01
77  7.6000000000000D-01  7.0481205306502D-01  5.3752765662996D-01
78  7.7000000000000D-01  6.6639241972999D-01  5.5050576714613D-01
79  7.8000000000000D-01  6.2722630514776D-01  5.6578681593216D-01
80  7.9000000000000D-01  5.8737627583453D-01  5.8341386894153D-01
81  8.0000000000000D-01  5.4691023253842D-01  6.0340599351740D-01
82  8.1000000000000D-01  5.0590129540922D-01  6.2575775921122D-01
83  8.2000000000000D-01  4.6442763391446D-01  6.5043896397049D-01
84  8.3000000000000D-01  4.2257224242083D-01  6.7739458715638D-01
85  8.4000000000000D-01  3.8042266299312D-01  7.0654496844416D-01
86  8.5000000000000D-01  3.3807065758260D-01  7.3778620926914D-01
87  8.6000000000000D-01  2.9561183237603D-01  7.7099079113941D-01
88  8.7000000000000D-01  2.5314521764705D-01  8.0600840287476D-01
89  8.8000000000000D-01  2.1077280698460D-01  8.4266696667659D-01
90  8.9000000000000D-01  1.6859906026273D-01  8.8077385091758D-01
91  9.0000000000000D-01  1.2673037515244D-01  9.2011725568887D-01
92  9.1000000000000D-01  8.5274532355422D-02  9.6046775548240D-01
93  9.2000000000000D-01  4.4340120052659D-02  1.0015799819422D+00
94  9.3000000000000D-01  4.0359433038204D-03  1.0431944284117D+00
95  9.4000000000000D-01 -3.5529575698342D-02  1.0850393570532D+00
96  9.5000000000000D-01 -7.4249000526598D-02  1.1268327886364D+00
97  9.6000000000000D-01 -1.1201648057357D-01  1.1682845547051D+00
98  9.7000000000000D-01 -1.4872834233934D-01  1.2090983917217D+00
99  9.8000000000000D-01 -1.8428366619703D-01  1.2489740569947D+00
100  9.9000000000000D-01 -2.1858484312664D-01  1.2876094466889D+00
101  1.0000000000000D+00 -2.5153810623963D-01  1.3247026970116D+00
102  1.0100000000000D+00 -2.8305403232829D-01  1.3599542507454D+00
103  1.0200000000000D+00 -3.1304800915989D-01  1.3930688726429D+00
104  1.0300000000000D+00 -3.4144066481712D-01  1.4237575988755D+00
105  1.0400000000000D+00 -3.6815825595680D-01  1.4517396074036D+00
106  1.0500000000000D+00 -3.9313301261070D-01  1.4767439984016D+00
107  1.0600000000000D+00 -4.1630343783463D-01  1.4985114759498D+00
108  1.0700000000000D+00 -4.3761456129227D-01  1.5167959246127D+00
109  1.0800000000000D+00 -4.5701814669429D-01  1.5313658771120D+00
110  1.0900000000000D+00 -4.7447285372905D-01  1.5420058715362D+00
111  1.1000000000000D+00 -4.8994435604373D-01  1.5485176994149D+00
112  1.1100000000000D+00 -5.0340541757389D-01  1.5507215482996D+00
113  1.1200000000000D+00 -5.1483593032347D-01  1.5484570450032D+00
114  1.1300000000000D+00 -5.2422291740164D-01  1.5415842078298D+00
115  1.1400000000000D+00 -5.3156050579258D-01  1.5299843181955D+00
116  1.1500000000000D+00 -5.3684987400741D-01  1.5135607240696D+00
117  1.1600000000000D+00 -5.4009918021510D-01  1.4922395889604D+00
118  1.1700000000000D+00 -5.4132347683835D-01  1.4659706012425D+00
119  1.1800000000000D+00 -5.4054461794793D-01  1.4347276595419D+00
120  1.1900000000000D+00 -5.3779116592862D-01  1.3985095500413D+00
121  1.2000000000000D+00 -5.3309830374508D-01  1.3573406307148D+00
122  1.2100000000000D+00 -5.2650775916901D-01  1.3112715374279D+00
123  1.2200000000000D+00 -5.1806774683253D-01  1.2603799245761D+00
124  1.2300000000000D+00 -5.0783293325790D-01  1.2047712501170D+00
125  1.2400000000000D+00 -4.9586442945489D-01  1.1445796125956D+00
126  1.2500000000000D+00 -4.8222981473145D-01  1.0799686440000D+00
127  1.2600000000000D+00 -4.6700319349462D-01  1.0111324551887D+00
128  1.2700000000000D+00 -4.5026528575097D-01  9.3829662659127D-01
129  1.2800000000000D+00 -4.3210355073892D-01  8.6171923199295D-01
130  1.2900000000000D+00 -4.1261233932165D-01  7.8169186900584D-01
131  1.3000000000000D+00 -3.9189306978952D-01  6.9854066619429D-01
132  1.3100000000000D+00 -3.7005441963098D-01  6.1262722897489D-01
133  1.3200000000000D+00 -3.4721251943920D-01  5.2434946272924D-01
134  1.3300000000000D+00 -3.2349113570350D-01  4.3414221372426D-01
135  1.3400000000000D+00 -2.9902182430193D-01  3.4247765013462D-01
136  1.3500000000000D+00 -2.7394402768672D-01  2.4986527285646D-01
137  1.3600000000000D+00 -2.4840509383086D-01  1.5685146455229D-01
138  1.3700000000000D+00 -2.2256018082906D-01  6.4018432977396D-02
139  1.3800000000000D+00 -1.9657200662233D-01 -2.8017611748455D-02
140  1.3900000000000D+00 -1.7061040872207D-01 -1.1860918621865D-01
141  1.4000000000000D+00 -1.4485165204159D-01 -2.0708140851665D-01
142  1.4100000000000D+00 -1.1947743618042D-01 -2.9273720909145D-01
143  1.4200000000000D+00 -9.4673537452976D-02 -3.7486412744737D-01
144  1.4300000000000D+00 -7.0628001252225D-02 -4.5274301764706D-01
145  1.4400000000000D+00 -4.7528826136561D-02 -5.2565888966036D-01
146  1.4500000000000D+00 -2.5561022808012D-02 -5.9291432996051D-01
147  1.4600000000000D+00 -4.9029693396271D-03 -6.5384580288083D-01
148  1.4700000000000D+00  1.4278115516325D-02 -7.0784354605126D-01
149  1.4800000000000D+00  3.1831330892827D-02 -7.5437386670727D-01
150  1.4900000000000D+00  4.7629468218670D-02 -7.9301076628804D-01
151  1.5000000000000D+00  6.1573469676374D-02 -8.2345423708619D-01
152  1.5100000000000D+00  7.3608086584934D-02 -8.4559707797075D-01
153  1.5200000000000D+00  8.3729583727036D-02 -8.5955633081411D-01
154  1.5300000000000D+00  9.1976106698144D-02 -8.6562601740997D-01
155  1.5400000000000D+00  9.8418028304687D-02 -8.6423183890132D-01
156  1.5500000000000D+00  1.0313725274616D-01 -8.5583892893026D-01
157  1.5600000000000D+00  1.0622263683971D-01 -8.4093147388862D-01
158  1.5700000000000D+00  1.0777425833127D-01 -8.2003268516570D-01
159  1.5800000000000D+00  1.0790054446331D-01 -7.9369244942260D-01
160  1.5900000000000D+00  1.0671754986175D-01 -7.6248473941458D-01
161  1.6000000000000D+00  1.0434765484136D-01 -7.2700249853736D-01
162  1.6100000000000D+00  1.0091841750764D-01 -6.8785324661816D-01
163  1.6200000000000D+00  9.6561355410202D-02 -6.4565440396712D-01
164  1.6300000000000D+00  9.1410695480512D-02 -6.0102849836001D-01
165  1.6400000000000D+00  8.5602105945694D-02 -5.5459831031070D-01
166  1.6500000000000D+00  7.9271422370554D-02 -5.0698200253346D-01
167  1.6600000000000D+00  7.2553377809998D-02 -4.5878827106015D-01
168  1.6700000000000D+00  6.5580347888428D-02 -4.1061155885934D-01
169  1.6800000000000D+00  5.8481121917460D-02 -3.6302737373379D-01
170  1.6900000000000D+00  5.1379709343345D-02 -3.1658774559067D-01
171  1.7000000000000D+00  4.4394193398976D-02 -2.7181686778790D-01
172  1.7100000000000D+00  3.7635639256397D-02 -2.2920695013409D-01
173  1.7200000000000D+00  3.1207068980718D-02 -1.8921432977774D-01
174  1.7300000000000D+00  2.5202507778898D-02 -1.5225585702871D-01
175  1.7400000000000D+00  1.9706116788492D-02 -1.1870561405098D-01
176  1.7500000000000D+00  1.4792191703806D-02 -8.8896642927032D-02
177  1.7600000000000D+00  1.0524479977058D-02 -6.3118374438404D-02
178  1.7700000000000D+00  6.9423154006606D-03 -4.1535014221802D-02
179  1.7800000000000D+00  4.0738188076038D-03 -2.4268100196022D-02
180  1.7900000000000D+00  2.0078193565311D-03 -1.1814090199915D-02
181  1.8000000000000D+00  7.7688962871676D-04 -4.3520966621174D-03
182  1.8100000000000D+00  1.9130616636864D-04 -8.1721844153885D-04
183  1.8200000000000D+00 -4.5852063449112D-06  2.4810052451136D-04
184  1.8300000000000D+00 -1.3865480034475D-05  1.3860841206352D-04
185  1.8400000000000D+00  1.1425382479740D-05 -1.0028603668209D-04
186  1.8500000000000D+00  1.0260523290563D-05 -8.4712615668181D-05
187  1.8600000000000D+00 -1.1328338545541D-06  1.1729172247821D-05
188  1.8700000000000D+00 -1.8527541247737D-06  1.8038511123983D-05
189  1.8800000000000D+00 -9.8771478437908D-08  3.3678850075409D-07
190  1.8900000000000D+00 -3.4810848001882D-07  1.1869715320605D-06
191  1.9000000000000D+00 -3.6981250723921D-08  1.2609773777103D-07
192  1.9100000000000D+00  0.0000000000000D+00  0.0000000000000D+00
193  1.9200000000000D+00  0.0000000000000D+00  0.0000000000000D+00
194  1.9300000000000D+00  0.0000000000000D+00  0.0000000000000D+00
195  1.9400000000000D+00  0.0000000000000D+00  0.0000000000000D+00
196  1.9500000000000D+00  0.0000000000000D+00  0.0000000000000D+00
197  1.9600000000000D+00  0.0000000000000D+00  0.0000000000000D+00
198  1.9700000000000D+00  0.0000000000000D+00  0.0000000000000D+00
199  1.9800000000000D+00  0.0000000000000D+00  0.0000000000000D+00
200  1.9900000000000D+00  0.0000000000000D+00  0.0000000000000D+00
201  2.0000000000000D+00  0.0000000000000D+00  0.0000000000000D+00
202  2.0100000000000D+00  0.0000000000000D+00  0.0000000000000D+00
203  2.0200000000000D+00  0.0000000000000D+00  0.0000000000000D+00
204  2.0300000000000D+00  0.0000000000000D+00  0.0000000000000D+00
205  2.0400000000000D+00  0.0000000000000D+00  0.0000000000000D+00
206  2.0500000000000D+00  0.0000000000000D+00  0.0000000000000D+00
207  2.0600000000000D+00  0.0000000000000D+00  0.0000000000000D+00
208  2.0700000000000D+00  0.0000000000000D+00  0.0000000000000D+00
209  2.0800000000000D+00  0.0000000000000D+00  0.0000000000000D+00
210  2.0900000000000D+00  0.0000000000000D+00  0.0000000000000D+00
211  2.1000000000000D+00  0.0000000000000D+00  0.0000000000000D+00
212  2.1100000000000D+00  0.0000000000000D+00  0.0000000000000D+00
213  2.1200000000000D+00  0.0000000000000D+00  0.0000000000000D+00
214  2.1300000000000D+00  0.0000000000000D+00  0.0000000000000D+00
215  2.1400000000000D+00  0.0000000000000D+00  0.0000000000000D+00
216  2.1500000000000D+00  0.0000000000000D+00  0.0000000000000D+00
217  2.1600000000000D+00  0.0000000000000D+00  0.0000000000000D+00
218  2.1700000000000D+00  0.0000000000000D+00  0.0000000000000D+00
219  2.1800000000000D+00  0.0000000000000D+00  0.0000000000000D+00
220  2.1900000000000D+00  0.0000000000000D+00  0.0000000000000D+00
221  2.2000000000000D+00  0.0000000000000D+00  0.0000000000000D+00
222  2.2100000000000D+00  0.0000000000000D+00  0.0000000000000D+00
223  2.2200000000000D+00  0.0000000000000D+00  0.0000000000000D+00
224  2.2300000000000D+00  0.0000000000000D+00  0.0000000000000D+00
225  2.2400000000000D+00  0.0000000000000D+00  0.0000000000000D+00
226  2.2500000000000D+00  0.0000000000000D+00  0.0000000000000D+00
227  2.2600000000000D+00  0.0000000000000D+00  0.0000000000000D+00
228  2.2700000000000D+00  0.0000000000000D+00  0.0000000000000D+00
229  2.2800000000000D+00  0.0000000000000D+00  0.0000000000000D+00
230  2.2900000000000D+00  0.0000000000000D+00  0.0000000000000D+00
231  2.3000000000000D+00  0.0000000000000D+00  0.0000000000000D+00
232  2.3100000000000D+00  0.0000000000000D+00  0.0000000000000D+00
233  2.3200000000000D+00  0.0000000000000D+00  0.0000000000000D+00
234  2.3300000000000D+00  0.0000000000000D+00  0.0000000000000D+00
235  2.3400000000000D+00  0.0000000000000D+00  0.0000000000000D+00
236  2.3500000000000D+00  0.0000000000000D+00  0.0000000000000D+00
237  2.3600000000000D+00  0.0000000000000D+00  0.0000000000000D+00
238  2.3700000000000D+00  0.0000000000000D+00  0.0000000000000D+00
239  2.3800000000000D+00  0.0000000000000D+00  0.0000000000000D+00
240  2.3900000000000D+00  0.0000000000000D+00  0.0000000000000D+00
241  2.4000000000000D+00  0.0000000000000D+00  0.0000000000000D+00
242  2.4100000000000D+00  0.0000000000000D+00  0.0000000000000D+00
243  2.4200000000000D+00  0.0000000000000D+00  0.0000000000000D+00
244  2.4300000000000D+00  0.0000000000000D+00  0.0000000000000D+00
245  2.4400000000000D+00  0.0000000000000D+00  0.0000000000000D+00
246  2.4500000000000D+00  0.0000000000000D+00  0.0000000000000D+00
247  2.4600000000000D+00  0.0000000000000D+00  0.0000000000000D+00
248  2.4700000000000D+00  0.0000000000000D+00  0.0000000000000D+00
249  2.4800000000000D+00  0.0000000000000D+00  0.0000000000000D+00
250  2.4900000000000D+00  0.0000000000000D+00  0.0000000000000D+00
251  2.5000000000000D+00  0.0000000000000D+00  0.0000000000000D+00
252  2.5100000000000D+00  0.0000000000000D+00  0.0000000000000D+00
253  2.5200000000000D+00  0.0000000000000D+00  0.0000000000000D+00
254  2.5300000000000D+00  0.0000000000000D+00  0.0000000000000D+00
255  2.5400000000000D+00  0.0000000000000D+00  0.0000000000000D+00
256  2.5500000000000D+00  0.0000000000000D+00  0.0000000000000D+00
257  2.5600000000000D+00  0.0000000000000D+00  0.0000000000000D+00
258  2.5700000000000D+00  0.0000000000000D+00  0.0000000000000D+00
259  2.5800000000000D+00  0.0000000000000D+00  0.0000000000000D+00
260  2.5900000000000D+00  0.0000000000000D+00  0.0000000000000D+00
261  2.6000000000000D+00  0.0000000000000D+00  0.0000000000000D+00
262  2.6100000000000D+00  0.0000000000000D+00  0.0000000000000D+00
263  2.6200000000000D+00  0.0000000000000D+00  0.0000000000000D+00
264  2.6300000000000D+00  0.0000000000000D+00  0.0000000000000D+00
265  2.6400000000000D+00  0.0000000000000D+00  0.0000000000000D+00
266  2.6500000000000D+00  0.0000000000000D+00  0.0000000000000D+00
267  2.6600000000000D+00  0.0000000000000D+00  0.0000000000000D+00
268  2.6700000000000D+00  0.0000000000000D+00  0.0000000000000D+00
269  2.6800000000000D+00  0.0000000000000D+00  0.0000000000000D+00
270  2.6900000000000D+00  0.0000000000000D+00  0.0000000000000D+00
271  2.7000000000000D+00  0.0000000000000D+00  0.0000000000000D+00
272  2.7100000000000D+00  0.0000000000000D+00  0.0000000000000D+00
273  2.7200000000000D+00  0.0000000000000D+00  0.0000000000000D+00
274  2.7300000000000D+00  0.0000000000000D+00  0.0000000000000D+00
275  2.7400000000000D+00  0.0000000000000D+00  0.0000000000000D+00
276  2.7500000000000D+00  0.0000000000000D+00  0.0000000000000D+00
277  2.7600000000000D+00  0.0000000000000D+00  0.0000000000000D+00
278  2.7700000000000D+00  0.0000000000000D+00  0.0000000000000D+00
279  2.7800000000000D+00  0.0000000000000D+00  0.0000000000000D+00
280  2.7900000000000D+00  0.0000000000000D+00  0.0000000000000D+00
281  2.8000000000000D+00  0.0000000000000D+00  0.0000000000000D+00
282  2.8100000000000D+00  0.0000000000000D+00  0.0000000000000D+00
283  2.8200000000000D+00  0.0000000000000D+00  0.0000000000000D+00
284  2.8300000000000D+00  0.0000000000000D+00  0.0000000000000D+00
285  2.8400000000000D+00  0.0000000000000D+00  0.0000000000000D+00
286  2.8500000000000D+00  0.0000000000000D+00  0.0000000000000D+00
287  2.8600000000000D+00  0.0000000000000D+00  0.0000000000000D+00
288  2.8700000000000D+00  0.0000000000000D+00  0.0000000000000D+00
289  2.8800000000000D+00  0.0000000000000D+00  0.0000000000000D+00
290  2.8900000000000D+00  0.0000000000000D+00  0.0000000000000D+00
291  2.9000000000000D+00  0.0000000000000D+00  0.0000000000000D+00
292  2.9100000000000D+00  0.0000000000000D+00  0.0000000000000D+00
293  2.9200000000000D+00  0.0000000000000D+00  0.0000000000000D+00
294  2.9300000000000D+00  0.0000000000000D+00  0.0000000000000D+00
295  2.9400000000000D+00  0.0000000000000D+00  0.0000000000000D+00
296  2.9500000000000D+00  0.0000000000000D+00  0.0000000000000D+00
297  2.9600000000000D+00  0.0000000000000D+00  0.0000000000000D+00
298  2.9700000000000D+00  0.0000000000000D+00  0.0000000000000D+00
299  2.9800000000000D+00  0.0000000000000D+00  0.0000000000000D+00
300  2.9900000000000D+00  0.0000000000000D+00  0.0000000000000D+00
301  3.0000000000000D+00  0.0000000000000D+00  0.0000000000000D+00
302  3.0100000000000D+00  0.0000000000000D+00  0.0000000000000D+00
303  3.0200000000000D+00  0.0000000000000D+00  0.0000000000000D+00
304  3.0300000000000D+00  0.0000000000000D+00  0.0000000000000D+00
305  3.0400000000000D+00  0.0000000000000D+00  0.0000000000000D+00
306  3.0500000000000D+00  0.0000000000000D+00  0.0000000000000D+00
307  3.0600000000000D+00  0.0000000000000D+00  0.0000000000000D+00
308  3.0700000000000D+00  0.0000000000000D+00  0.0000000000000D+00
309  3.0800000000000D+00  0.0000000000000D+00  0.0000000000000D+00
310  3.0900000000000D+00  0.0000000000000D+00  0.0000000000000D+00
311  3.1000000000000D+00  0.0000000000000D+00  0.0000000000000D+00
312  3.1100000000000D+00  0.0000000000000D+00  0.0000000000000D+00
313  3.1200000000000D+00  0.0000000000000D+00  0.0000000000000D+00
314  3.1300000000000D+00  0.0000000000000D+00  0.0000000000000D+00
315  3.1400000000000D+00  0.0000000000000D+00  0.0000000000000D+00
316  3.1500000000000D+00  0.0000000000000D+00  0.0000000000000D+00
317  3.1600000000000D+00  0.0000000000000D+00  0.0000000000000D+00
318  3.1700000000000D+00  0.0000000000000D+00  0.0000000000000D+00
319  3.1800000000000D+00  0.0000000000000D+00  0.0000000000000D+00
320  3.1900000000000D+00  0.0000000000000D+00  0.0000000000000D+00
321  3.2000000000000D+00  0.0000000000000D+00  0.0000000000000D+00
322  3.2100000000000D+00  0.0000000000000D+00  0.0000000000000D+00
323  3.2200000000000D+00  0.0000000000000D+00  0.0000000000000D+00
324  3.2300000000000D+00  0.0000000000000D+00  0.0000000000000D+00
325  3.2400000000000D+00  0.0000000000000D+00  0.0000000000000D+00
326  3.2500000000000D+00  0.0000000000000D+00  0.0000000000000D+00
327  3.2600000000000D+00  0.0000000000000D+00  0.0000000000000D+00
328  3.2700000000000D+00  0.0000000000000D+00  0.0000000000000D+00
329  3.2800000000000D+00  0.0000000000000D+00  0.0000000000000D+00
330  3.2900000000000D+00  0.0000000000000D+00  0.0000000000000D+00
331  3.3000000000000D+00  0.0000000000000D+00  0.0000000000000D+00
332  3.3100000000000D+00  0.0000000000000D+00  0.0000000000000D+00
333  3.3200000000000D+00  0.0000000000000D+00  0.0000000000000D+00
334  3.3300000000000D+00  0.0000000000000D+00  0.0000000000000D+00
335  3.3400000000000D+00  0.0000000000000D+00  0.0000000000000D+00
336  3.3500000000000D+00  0.0000000000000D+00  0.0000000000000D+00
337  3.3600000000000D+00  0.0000000000000D+00  0.0000000000000D+00
338  3.3700000000000D+00  0.0000000000000D+00  0.0000000000000D+00
339  3.3800000000000D+00  0.0000000000000D+00  0.0000000000000D+00
340  3.3900000000000D+00  0.0000000000000D+00  0.0000000000000D+00
341  3.4000000000000D+00  0.0000000000000D+00  0.0000000000000D+00
342  3.4100000000000D+00  0.0000000000000D+00  0.0000000000000D+00
343  3.4200000000000D+00  0.0000000000000D+00  0.0000000000000D+00
344  3.4300000000000D+00  0.0000000000000D+00  0.0000000000000D+00
345  3.4400000000000D+00  0.0000000000000D+00  0.0000000000000D+00
346  3.4500000000000D+00  0.0000000000000D+00  0.0000000000000D+00
347  3.4600000000000D+00  0.0000000000000D+00  0.0000000000000D+00
348  3.4700000000000D+00  0.0000000000000D+00  0.0000000000000D+00
349  3.4800000000000D+00  0.0000000000000D+00  0.0000000000000D+00
350  3.4900000000000D+00  0.0000000000000D+00  0.0000000000000D+00
351  3.5000000000000D+00  0.0000000000000D+00  0.0000000000000D+00
352  3.5100000000000D+00  0.0000000000000D+00  0.0000000000000D+00
353  3.5200000000000D+00  0.0000000000000D+00  0.0000000000000D+00
354  3.5300000000000D+00  0.0000000000000D+00  0.0000000000000D+00
355  3.5400000000000D+00  0.0000000000000D+00  0.0000000000000D+00
356  3.5500000000000D+00  0.0000000000000D+00  0.0000000000000D+00
357  3.5600000000000D+00  0.0000000000000D+00  0.0000000000000D+00
358  3.5700000000000D+00  0.0000000000000D+00  0.0000000000000D+00
359  3.5800000000000D+00  0.0000000000000D+00  0.0000000000000D+00
360  3.5900000000000D+00  0.0000000000000D+00  0.0000000000000D+00
361  3.6000000000000D+00  0.0000000000000D+00  0.0000000000000D+00
362  3.6100000000000D+00  0.0000000000000D+00  0.0000000000000D+00
363  3.6200000000000D+00  0.0000000000000D+00  0.0000000000000D+00
364  3.6300000000000D+00  0.0000000000000D+00  0.0000000000000D+00
365  3.6400000000000D+00  0.0000000000000D+00  0.0000000000000D+00
366  3.6500000000000D+00  0.0000000000000D+00  0.0000000000000D+00
367  3.6600000000000D+00  0.0000000000000D+00  0.0000000000000D+00
368  3.6700000000000D+00  0.0000000000000D+00  0.0000000000000D+00
369  3.6800000000000D+00  0.0000000000000D+00  0.0000000000000D+00
370  3.6900000000000D+00  0.0000000000000D+00  0.0000000000000D+00
371  3.7000000000000D+00  0.0000000000000D+00  0.0000000000000D+00
372  3.7100000000000D+00  0.0000000000000D+00  0.0000000000000D+00
373  3.7200000000000D+00  0.0000000000000D+00  0.0000000000000D+00
374  3.7300000000000D+00  0.0000000000000D+00  0.0000000000000D+00
375  3.7400000000000D+00  0.0000000000000D+00  0.0000000000000D+00
376  3.7500000000000D+00  0.0000000000000D+00  0.0000000000000D+00
377  3.7600000000000D+00  0.0000000000000D+00  0.0000000000000D+00
378  3.7700000000000D+00  0.0000000000000D+00  0.0000000000000D+00
379  3.7800000000000D+00  0.0000000000000D+00  0.0000000000000D+00
380  3.7900000000000D+00  0.0000000000000D+00  0.0000000000000D+00
381  3.8000000000000D+00  0.0000000000000D+00  0.0000000000000D+00
382  3.8100000000000D+00  0.0000000000000D+00  0.0000000000000D+00
383  3.8200000000000D+00  0.0000000000000D+00  0.0000000000000D+00
384  3.8300000000000D+00  0.0000000000000D+00  0.0000000000000D+00
385  3.8400000000000D+00  0.0000000000000D+00  0.0000000000000D+00
386  3.8500000000000D+00  0.0000000000000D+00  0.0000000000000D+00
387  3.8600000000000D+00  0.0000000000000D+00  0.0000000000000D+00
388  3.8700000000000D+00  0.0000000000000D+00  0.0000000000000D+00
389  3.8800000000000D+00  0.0000000000000D+00  0.0000000000000D+00
390  3.8900000000000D+00  0.0000000000000D+00  0.0000000000000D+00
391  3.9000000000000D+00  0.0000000000000D+00  0.0000000000000D+00
392  3.9100000000000D+00  0.0000000000000D+00  0.0000000000000D+00
393  3.9200000000000D+00  0.0000000000000D+00  0.0000000000000D+00
394  3.9300000000000D+00  0.0000000000000D+00  0.0000000000000D+00
395  3.9400000000000D+00  0.0000000000000D+00  0.0000000000000D+00
396  3.9500000000000D+00  0.0000000000000D+00  0.0000000000000D+00
397  3.9600000000000D+00  0.0000000000000D+00  0.0000000000000D+00
398  3.9700000000000D+00  0.0000000000000D+00  0.0000000000000D+00
399  3.9800000000000D+00  0.0000000000000D+00  0.0000000000000D+00
400  3.9900000000000D+00  0.0000000000000D+00  0.0000000000000D+00
401  4.0000000000000D+00  0.0000000000000D+00  0.0000000000000D+00
402  4.0100000000000D+00  0.0000000000000D+00  0.0000000000000D+00
403  4.0200000000000D+00  0.0000000000000D+00  0.0000000000000D+00
404  4.0300000000000D+00  0.0000000000000D+00  0.0000000000000D+00
405  4.0400000000000D+00  0.0000000000000D+00  0.0000000000000D+00
406  4.0500000000000D+00  0.0000000000000D+00  0.0000000000000D+00
407  4.0600000000000D+00  0.0000000000000D+00  0.0000000000000D+00
408  4.0700000000000D+00  0.0000000000000D+00  0.0000000000000D+00
409  4.0800000000000D+00  0.0000000000000D+00  0.0000000000000D+00
410  4.0900000000000D+00  0.0000000000000D+00  0.0000000000000D+00
411  4.1000000000000D+00  0.0000000000000D+00  0.0000000000000D+00
412  4.1100000000000D+00  0.0000000000000D+00  0.0000000000000D+00
413  4.1200000000000D+00  0.0000000000000D+00  0.0000000000000D+00
414  4.1300000000000D+00  0.0000000000000D+00  0.0000000000000D+00
415  4.1400000000000D+00  0.0000000000000D+00  0.0000000000000D+00
416  4.1500000000000D+00  0.0000000000000D+00  0.0000000000000D+00
417  4.1600000000000D+00  0.0000000000000D+00  0.0000000000000D+00
418  4.1700000000000D+00  0.0000000000000D+00  0.0000000000000D+00
419  4.1800000000000D+00  0.0000000000000D+00  0.0000000000000D+00
420  4.1900000000000D+00  0.0000000000000D+00  0.0000000000000D+00
421  4.2000000000000D+00  0.0000000000000D+00  0.0000000000000D+00
422  4.2100000000000D+00  0.0000000000000D+00  0.0000000000000D+00
423  4.2200000000000D+00  0.0000000000000D+00  0.0000000000000D+00
424  4.2300000000000D+00  0.0000000000000D+00  0.0000000000000D+00
425  4.2400000000000D+00  0.0000000000000D+00  0.0000000000000D+00
426  4.2500000000000D+00  0.0000000000000D+00  0.0000000000000D+00
427  4.2600000000000D+00  0.0000000000000D+00  0.0000000000000D+00
428  4.2700000000000D+00  0.0000000000000D+00  0.0000000000000D+00
429  4.2800000000000D+00  0.0000000000000D+00  0.0000000000000D+00
430  4.2900000000000D+00  0.0000000000000D+00  0.0000000000000D+00
431  4.3000000000000D+00  0.0000000000000D+00  0.0000000000000D+00
432  4.3100000000000D+00  0.0000000000000D+00  0.0000000000000D+00
433  4.3200000000000D+00  0.0000000000000D+00  0.0000000000000D+00
434  4.3300000000000D+00  0.0000000000000D+00  0.0000000000000D+00
435  4.3400000000000D+00  0.0000000000000D+00  0.0000000000000D+00
436  4.3500000000000D+00  0.0000000000000D+00  0.0000000000000D+00
437  4.3600000000000D+00  0.0000000000000D+00  0.0000000000000D+00
438  4.3700000000000D+00  0.0000000000000D+00  0.0000000000000D+00
439  4.3800000000000D+00  0.0000000000000D+00  0.0000000000000D+00
440  4.3900000000000D+00  0.0000000000000D+00  0.0000000000000D+00
441  4.4000000000000D+00  0.0000000000000D+00  0.0000000000000D+00
442  4.4100000000000D+00  0.0000000000000D+00  0.0000000000000D+00
443  4.4200000000000D+00  0.0000000000000D+00  0.0000000000000D+00