Sr    ONCVPSP  r_core=  1.86  1.31  1.52  1.97
38.0000     10.0000      160722    zatom,zion,pspd
8      11   3     4   600     0    pspcod,pspxc,lmax,lloc,mmax,r2well
5.99000000  6.00000000  0.00000000    rchrg fchrg qchrg
2     2     2     2     0    nproj
1                 extension_switch
0                         9.1915069267885D+00  1.0794582866099D+00
1  0.0000000000000D+00 -5.8861804319577D-12  5.5494941975098D-11
2  1.0000000000000D-02  4.2661392254881D-02 -2.2335034055930D-02
3  2.0000000000000D-02  8.5287965124294D-02 -4.4607234065751D-02
4  3.0000000000000D-02  1.2784490015008D-01 -6.6753971799187D-02
5  4.0000000000000D-02  1.7029738074817D-01 -8.8713029126356D-02
6  5.0000000000000D-02  2.1261059319567D-01 -1.1042279925392D-01
7  6.0000000000000D-02  2.5474972768245D-01 -1.3182248342390D-01
8  7.0000000000000D-02  2.9667997945543D-01 -1.5285228162818D-01
9  8.0000000000000D-02  3.3836655009002D-01 -1.7345357594736D-01
10  9.0000000000000D-02  3.7977464893039D-01 -1.9356910519104D-01
11  1.0000000000000D-01  4.2086949474842D-01 -2.1314312959795D-01
12  1.1000000000000D-01  4.6161631768123D-01 -2.3212158444735D-01
13  1.2000000000000D-01  5.0198036151755D-01 -2.5045222153737D-01
14  1.3000000000000D-01  5.4192688641504D-01 -2.6808473760083D-01
15  1.4000000000000D-01  5.8142117214271D-01 -2.8497088885296D-01
16  1.5000000000000D-01  6.2042852195589D-01 -3.0106459099842D-01
17  1.6000000000000D-01  6.5891426722409D-01 -3.1632200416484D-01
18  1.7000000000000D-01  6.9684377294608D-01 -3.3070160237651D-01
19  1.8000000000000D-01  7.3418244429976D-01 -3.4416422733323D-01
20  1.9000000000000D-01  7.7089573438797D-01 -3.5667312641440D-01
21  2.0000000000000D-01  8.0694915335424D-01 -3.6819397498583D-01
22  2.1000000000000D-01  8.4230827905490D-01 -3.7869488324561D-01
23  2.2000000000000D-01  8.7693876948523D-01 -3.8814638800300D-01
24  2.3000000000000D-01  9.1080637716784D-01 -3.9652142994098D-01
25  2.4000000000000D-01  9.4387696572029D-01 -4.0379531706592D-01
26  2.5000000000000D-01  9.7611652882638D-01 -4.0994567519567D-01
27  2.6000000000000D-01  1.0074912118408D+00 -4.1495238647955D-01
28  2.7000000000000D-01  1.0379673362608D+00 -4.1879751707752D-01
29  2.8000000000000D-01  1.0675114272989D+00 -4.2146523525075D-01
30  2.9000000000000D-01  1.0960902447898D+00 -4.2294172123002D-01
31  3.0000000000000D-01  1.1236708176603D+00 -4.2321507033084D-01
32  3.1000000000000D-01  1.1502204821842D+00 -4.2227519087313D-01
33  3.2000000000000D-01  1.1757069242334D+00 -4.2011369853832D-01
34  3.3000000000000D-01  1.2000982257239D+00 -4.1672380885566D-01
35  3.4000000000000D-01  1.2233629154378D+00 -4.1210022955275D-01
36  3.5000000000000D-01  1.2454700243831D+00 -4.0623905453023D-01
37  3.6000000000000D-01  1.2663891458286D+00 -3.9913766122850D-01
38  3.7000000000000D-01  1.2860905001238D+00 -3.9079461314248D-01
39  3.8000000000000D-01  1.3045450043853D+00 -3.8120956921041D-01
40  3.9000000000000D-01  1.3217243470916D+00 -3.7038320175257D-01
41  4.0000000000000D-01  1.3376010675977D+00 -3.5831712456669D-01
42  4.1000000000000D-01  1.3521486405332D+00 -3.4501383269779D-01
43  4.2000000000000D-01  1.3653415650066D+00 -3.3047665529282D-01
44  4.3000000000000D-01  1.3771554584929D+00 -3.1470972282324D-01
45  4.4000000000000D-01  1.3875671552270D+00 -2.9771794981470D-01
46  4.5000000000000D-01  1.3965548088788D+00 -2.7950703406093D-01
47  4.6000000000000D-01  1.4040979992268D+00 -2.6008347312129D-01
48  4.7000000000000D-01  1.4101778424947D+00 -2.3945459870829D-01
49  4.8000000000000D-01  1.4147771049563D+00 -2.1762862936603D-01
50  4.9000000000000D-01  1.4178803193559D+00 -1.9461474162174D-01
51  5.0000000000000D-01  1.4194739036358D+00 -1.7042315956547D-01
52  5.1000000000000D-01  1.4195462813999D+00 -1.4506526257593D-01
53  5.2000000000000D-01  1.4180880034900D+00 -1.1855371067016D-01
54  5.3000000000000D-01  1.4150918699922D+00 -9.0902586707129D-02
55  5.4000000000000D-01  1.4105530519384D+00 -6.2127554430324D-02
56  5.5000000000000D-01  1.4044692119170D+00 -3.2246031087254D-02
57  5.6000000000000D-01  1.3968406227568D+00 -1.2773731222121D-03
58  5.7000000000000D-01  1.3876702834075D+00  3.0756926797110D-02
59  5.8000000000000D-01  1.3769640310973D+00  6.3833033385736D-02
60  5.9000000000000D-01  1.3647306488163D+00  9.7924555162235D-02
61  6.0000000000000D-01  1.3509819671432D+00  1.3300232606707D-01
62  6.1000000000000D-01  1.3357329594132D+00  1.6903418484651D-01
63  6.2000000000000D-01  1.3190018292091D+00  2.0598475493452D-01
64  6.3000000000000D-01  1.3008100891468D+00  2.4381522770946D-01
65  6.4000000000000D-01  1.2811826299315D+00  2.8248315212183D-01
66  6.5000000000000D-01  1.2601477786653D+00  3.2194223378280D-01
67  6.6000000000000D-01  1.2377373454058D+00  3.6214214666965D-01
68  6.7000000000000D-01  1.2139866570017D+00  4.0302836063987D-01
69  6.8000000000000D-01  1.1889345772662D+00  4.4454198795106D-01
70  6.9000000000000D-01  1.1626235125948D+00  4.8661965195617D-01
71  7.0000000000000D-01  1.1350994021883D+00  5.2919338108327D-01
72  7.1000000000000D-01  1.1064116921057D+00  5.7219053111395D-01
73  7.2000000000000D-01  1.0766132924459D+00  6.1553373864630D-01
74  7.3000000000000D-01  1.0457605170399D+00  6.5914090846445D-01
75  7.4000000000000D-01  1.0139130051262D+00  7.0292523733988D-01
76  7.5000000000000D-01  9.8113362458371D-01  7.4679527655898D-01
77  7.6000000000000D-01  9.4748835640472D-01  7.9065503520861D-01
78  7.7000000000000D-01  9.1304616020700D-01  8.3440412595736D-01
79  7.8000000000000D-01  8.7787882070642D-01  8.7793795474801D-01
80  7.9000000000000D-01  8.4206077520241D-01  9.2114795546541D-01
81  8.0000000000000D-01  8.0566892226253D-01  9.6392187026961D-01
82  8.1000000000000D-01  7.6878241193171D-01  1.0061440758873D+00
83  8.2000000000000D-01  7.3148241793513D-01  1.0476959557380D+00
84  8.3000000000000D-01  6.9385189248855D-01  1.0884563173391D+00
85  8.4000000000000D-01  6.5597530447648D-01  1.1283018539916D+00
86  8.5000000000000D-01  6.1793836190579D-01  1.1671076492925D+00
87  8.6000000000000D-01  5.7982771968763D-01  1.2047477225650D+00
88  8.7000000000000D-01  5.4173067394422D-01  1.2410956128382D+00
89  8.8000000000000D-01  5.0373484417684D-01  1.2760249985554D+00
90  8.9000000000000D-01  4.6592784476665D-01  1.3094103497408D+00
91  9.0000000000000D-01  4.2839694740864D-01  1.3411276089249D+00
92  9.1000000000000D-01  3.9122873620089D-01  1.3710548967066D+00
93  9.2000000000000D-01  3.5450875722430D-01  1.3990732374387D+00
94  9.3000000000000D-01  3.1832116455120D-01  1.4250673001486D+00
95  9.4000000000000D-01  2.8274836471377D-01  1.4489261494654D+00
96  9.5000000000000D-01  2.4787066174350D-01  1.4705440010166D+00
97  9.6000000000000D-01  2.1376590496036D-01  1.4898209754843D+00
98  9.7000000000000D-01  1.8050914174376D-01  1.5066638452805D+00
99  9.8000000000000D-01  1.4817227755671D-01  1.5209867676104D+00
100  9.9000000000000D-01  1.1682374551745D-01  1.5327119975522D+00
101  1.0000000000000D+00  8.6528187820683D-02  1.5417705746873D+00
102  1.0100000000000D+00  5.7346151301366D-02  1.5481029767705D+00
103  1.0200000000000D+00  2.9333799408682D-02  1.5516597339391D+00
104  1.0300000000000D+00  2.5426428127578D-03  1.5524019970258D+00
105  1.0400000000000D+00 -2.2980709187172D-02  1.5503020536425D+00
106  1.0500000000000D+00 -4.7194774367986D-02  1.5453437858876D+00
107  1.0600000000000D+00 -7.0063398404593D-02  1.5375230637413D+00
108  1.0700000000000D+00 -9.1555928921269D-02  1.5268480684881D+00
109  1.0800000000000D+00 -1.1164736101847D-01  1.5133395408568D+00
110  1.0900000000000D+00 -1.3031845264149D-01  1.4970309488890D+00
111  1.1000000000000D+00 -1.4755580833233D-01  1.4779685710265D+00
112  1.1100000000000D+00 -1.6335193006031D-01  1.4562114903446D+00
113  1.1200000000000D+00 -1.7770523401408D-01  1.4318314963834D+00
114  1.1300000000000D+00 -1.9062003241942D-01  1.4049128915569D+00
115  1.1400000000000D+00 -2.0210647963863D-01  1.3755521996696D+00
116  1.1500000000000D+00 -2.1218048203583D-01  1.3438577747454D+00
117  1.1600000000000D+00 -2.2086357129563D-01  1.3099493089703D+00
118  1.1700000000000D+00 -2.2818274108418D-01  1.2739572391532D+00
119  1.1800000000000D+00 -2.3417024716799D-01  1.2360220517844D+00
120  1.1900000000000D+00 -2.3886337134415D-01  1.1962934874885D+00
121  1.2000000000000D+00 -2.4230414976493D-01  1.1549296463683D+00
122  1.2100000000000D+00 -2.4453906636889D-01  1.1120959961228D+00
123  1.2200000000000D+00 -2.4561871246632D-01  1.0679642858501D+00
124  1.2300000000000D+00 -2.4559741367634D-01  1.0227113689071D+00
125  1.2400000000000D+00 -2.4453282557584D-01  9.7651793869657D-01
126  1.2500000000000D+00 -2.4248549965658D-01  9.2956718198221D-01
127  1.2600000000000D+00 -2.3951842138670D-01  8.8204335495132D-01
128  1.2700000000000D+00 -2.3569652190538D-01  8.3413028511026D-01
129  1.2800000000000D+00 -2.3108616756030D-01  7.8600981948207D-01
130  1.2900000000000D+00 -2.2575461947934D-01  7.3786016098268D-01
131  1.3000000000000D+00 -2.1976951436270D-01  6.8985440877698D-01
132  1.3100000000000D+00 -2.1319821866556D-01  6.4215835517888D-01
133  1.3200000000000D+00 -2.0610729595327D-01  5.9492904854132D-01
134  1.3300000000000D+00 -1.9856240665045D-01  5.4831639249862D-01
135  1.3400000000000D+00 -1.9062829979265D-01  5.0246481807971D-01
136  1.3500000000000D+00 -1.8236889733301D-01  4.5751523111166D-01
137  1.3600000000000D+00 -1.7384690967856D-01  4.1360359305461D-01
138  1.3700000000000D+00 -1.6512354156517D-01  3.7086006102501D-01
139  1.3800000000000D+00 -1.5625822234052D-01  3.2940830252754D-01
140  1.3900000000000D+00 -1.4730833638214D-01  2.8936473948340D-01
141  1.4000000000000D+00 -1.3832896911974D-01  2.5083784865452D-01
142  1.4100000000000D+00 -1.2937266848708D-01  2.1392750684105D-01
143  1.4200000000000D+00 -1.2048922403702D-01  1.7872439037542D-01
144  1.4300000000000D+00 -1.1172546494420D-01  1.4530943240112D-01
145  1.4400000000000D+00 -1.0312507870479D-01  1.1375334404010D-01
146  1.4500000000000D+00 -9.4728451404500D-02  8.4116202312277D-02
147  1.4600000000000D+00 -8.6572531063705D-02  5.6447109878540D-02
148  1.4700000000000D+00 -7.8690714855274D-02  3.0783929217607D-02
149  1.4800000000000D+00 -7.1112760885355D-02  7.1530935608477D-03
150  1.4900000000000D+00 -6.3864725564888D-02 -1.4430502031150D-02
151  1.5000000000000D+00 -5.6968926264085D-02 -3.3963530407584D-02
152  1.5100000000000D+00 -5.0443930395292D-02 -5.1454179110390D-02
153  1.5200000000000D+00 -4.4304570015307D-02 -6.6922017116380D-02
154  1.5300000000000D+00 -3.8561982530496D-02 -8.0397779600209D-02
155  1.5400000000000D+00 -3.3223676665646D-02 -9.1923073397205D-02
156  1.5500000000000D+00 -2.8293623295660D-02 -1.0155000442680D-01
157  1.5600000000000D+00 -2.3772370546573D-02 -1.0934072895672D-01
158  1.5700000000000D+00 -1.9657181774000D-02 -1.1536693319384D-01
159  1.5800000000000D+00 -1.5942196049692D-02 -1.1970924234378D-01
160  1.5900000000000D+00 -1.2618608898784D-02 -1.2245656645548D-01
161  1.6000000000000D+00 -9.6748730131890D-03 -1.2370538387330D-01
162  1.6100000000000D+00 -7.0969161028616D-03 -1.2355897152555D-01
163  1.6200000000000D+00 -4.8683754157452D-03 -1.2212658349727D-01
164  1.6300000000000D+00 -2.9708459266921D-03 -1.1952258766057D-01
165  1.6400000000000D+00 -1.3841412503045D-03 -1.1586556336587D-01
166  1.6500000000000D+00 -8.6564378559145D-05 -1.1127736966385D-01
167  1.6600000000000D+00  9.4481312855800D-04 -1.0588218838914D-01
168  1.6700000000000D+00  1.7338662659035D-03 -9.9805551184459D-02
169  1.6800000000000D+00  2.3051281456496D-03 -9.3173357645686D-02
170  1.6900000000000D+00  2.6835001857246D-03 -8.6110891379085D-02
171  1.7000000000000D+00  2.8939623103063D-03 -7.8741837686433D-02
172  1.7100000000000D+00  2.9612865327691D-03 -7.1187315021718D-02
173  1.7200000000000D+00  2.9097574444689D-03 -6.3564932837305D-02
174  1.7300000000000D+00  2.7628995810280D-03 -5.5987873817290D-02
175  1.7400000000000D+00  2.5432131821733D-03 -4.8564004197695D-02
176  1.7500000000000D+00  2.2719217183554D-03 -4.1395025419501D-02
177  1.7600000000000D+00  1.9687352073344D-03 -3.4575681061518D-02
178  1.7700000000000D+00  1.6516278157188D-03 -2.8193012429427D-02
179  1.7800000000000D+00  1.3366334647488D-03 -2.2325674669402D-02
180  1.7900000000000D+00  1.0376590538148D-03 -1.7043313025590D-02
181  1.8000000000000D+00  7.6657279903452D-04 -1.2410042721183D-02
182  1.8100000000000D+00  5.3190495063098D-04 -8.4655548715119D-03
183  1.8200000000000D+00  3.3893114450778D-04 -5.2334044393249D-03
184  1.8300000000000D+00  1.9560845993632D-04 -2.7937376551846D-03
185  1.8400000000000D+00  1.0753737036049D-04 -1.2096529115010D-03
186  1.8500000000000D+00  6.2564476096662D-05 -3.7334337572672D-04
187  1.8600000000000D+00  3.5969343281820D-05 -4.0371082437017D-05
188  1.8700000000000D+00  1.3373517370543D-05  2.6264784388198D-05
189  1.8800000000000D+00 -1.1100123873285D-06 -3.9330317775427D-06
190  1.8900000000000D+00 -3.1949932579141D-06 -1.5901513520143D-05
191  1.9000000000000D+00 -3.3655946853339D-07 -2.0219375373472D-06
192  1.9100000000000D+00  7.9707001346173D-07  2.2251675816528D-06
193  1.9200000000000D+00  3.5922576887177D-07  1.1513607031008D-06
194  1.9300000000000D+00 -1.0551629001618D-07  2.9148151849470D-07
195  1.9400000000000D+00 -1.0115219811172D-07  2.7942601374782D-07
196  1.9500000000000D+00  0.0000000000000D+00  0.0000000000000D+00
197  1.9600000000000D+00  0.0000000000000D+00  0.0000000000000D+00
198  1.9700000000000D+00  0.0000000000000D+00  0.0000000000000D+00
199  1.9800000000000D+00  0.0000000000000D+00  0.0000000000000D+00
200  1.9900000000000D+00  0.0000000000000D+00  0.0000000000000D+00
201  2.0000000000000D+00  0.0000000000000D+00  0.0000000000000D+00
202  2.0100000000000D+00  0.0000000000000D+00  0.0000000000000D+00
203  2.0200000000000D+00  0.0000000000000D+00  0.0000000000000D+00
204  2.0300000000000D+00  0.0000000000000D+00  0.0000000000000D+00
205  2.0400000000000D+00  0.0000000000000D+00  0.0000000000000D+00
206  2.0500000000000D+00  0.0000000000000D+00  0.0000000000000D+00
207  2.0600000000000D+00  0.0000000000000D+00  0.0000000000000D+00
208  2.0700000000000D+00  0.0000000000000D+00  0.0000000000000D+00
209  2.0800000000000D+00  0.0000000000000D+00  0.0000000000000D+00
210  2.0900000000000D+00  0.0000000000000D+00  0.0000000000000D+00
211  2.1000000000000D+00  0.0000000000000D+00  0.0000000000000D+00
212  2.1100000000000D+00  0.0000000000000D+00  0.0000000000000D+00
213  2.1200000000000D+00  0.0000000000000D+00  0.0000000000000D+00
214  2.1300000000000D+00  0.0000000000000D+00  0.0000000000000D+00
215  2.1400000000000D+00  0.0000000000000D+00  0.0000000000000D+00
216  2.1500000000000D+00  0.0000000000000D+00  0.0000000000000D+00
217  2.1600000000000D+00  0.0000000000000D+00  0.0000000000000D+00
218  2.1700000000000D+00  0.0000000000000D+00  0.0000000000000D+00
219  2.1800000000000D+00  0.0000000000000D+00  0.0000000000000D+00
220  2.1900000000000D+00  0.0000000000000D+00  0.0000000000000D+00
221  2.2000000000000D+00  0.0000000000000D+00  0.0000000000000D+00
222  2.2100000000000D+00  0.0000000000000D+00  0.0000000000000D+00
223  2.2200000000000D+00  0.0000000000000D+00  0.0000000000000D+00
224  2.2300000000000D+00  0.0000000000000D+00  0.0000000000000D+00
225  2.2400000000000D+00  0.0000000000000D+00  0.0000000000000D+00
226  2.2500000000000D+00  0.0000000000000D+00  0.0000000000000D+00
227  2.2600000000000D+00  0.0000000000000D+00  0.0000000000000D+00
228  2.2700000000000D+00  0.0000000000000D+00  0.0000000000000D+00
229  2.2800000000000D+00  0.0000000000000D+00  0.0000000000000D+00
230  2.2900000000000D+00  0.0000000000000D+00  0.0000000000000D+00
231  2.3000000000000D+00  0.0000000000000D+00  0.0000000000000D+00
232  2.3100000000000D+00  0.0000000000000D+00  0.0000000000000D+00
233  2.3200000000000D+00  0.0000000000000D+00  0.0000000000000D+00
234  2.3300000000000D+00  0.0000000000000D+00  0.0000000000000D+00
235  2.3400000000000D+00  0.0000000000000D+00  0.0000000000000D+00
236  2.3500000000000D+00  0.0000000000000D+00  0.0000000000000D+00
237  2.3600000000000D+00  0.0000000000000D+00  0.0000000000000D+00
238  2.3700000000000D+00  0.0000000000000D+00  0.0000000000000D+00
239  2.3800000000000D+00  0.0000000000000D+00  0.0000000000000D+00
240  2.3900000000000D+00  0.0000000000000D+00  0.0000000000000D+00
241  2.4000000000000D+00  0.0000000000000D+00  0.0000000000000D+00
242  2.4100000000000D+00  0.0000000000000D+00  0.0000000000000D+00
243  2.4200000000000D+00  0.0000000000000D+00  0.0000000000000D+00
244  2.4300000000000D+00  0.0000000000000D+00  0.0000000000000D+00
245  2.4400000000000D+00  0.0000000000000D+00  0.0000000000000D+00
246  2.4500000000000D+00  0.0000000000000D+00  0.0000000000000D+00
247  2.4600000000000D+00  0.0000000000000D+00  0.0000000000000D+00
248  2.4700000000000D+00  0.0000000000000D+00  0.0000000000000D+00
249  2.4800000000000D+00  0.0000000000000D+00  0.0000000000000D+00
250  2.4900000000000D+00  0.0000000000000D+00  0.0000000000000D+00
251  2.5000000000000D+00  0.0000000000000D+00  0.0000000000000D+00
252  2.5100000000000D+00  0.0000000000000D+00  0.0000000000000D+00
253  2.5200000000000D+00  0.0000000000000D+00  0.0000000000000D+00
254  2.5300000000000D+00  0.0000000000000D+00  0.0000000000000D+00
255  2.5400000000000D+00  0.0000000000000D+00  0.0000000000000D+00
256  2.5500000000000D+00  0.0000000000000D+00  0.0000000000000D+00
257  2.5600000000000D+00  0.0000000000000D+00  0.0000000000000D+00
258  2.5700000000000D+00  0.0000000000000D+00  0.0000000000000D+00
259  2.5800000000000D+00  0.0000000000000D+00  0.0000000000000D+00
260  2.5900000000000D+00  0.0000000000000D+00  0.0000000000000D+00
261  2.6000000000000D+00  0.0000000000000D+00  0.0000000000000D+00
262  2.6100000000000D+00  0.0000000000000D+00  0.0000000000000D+00
263  2.6200000000000D+00  0.0000000000000D+00  0.0000000000000D+00
264  2.6300000000000D+00  0.0000000000000D+00  0.0000000000000D+00
265  2.6400000000000D+00  0.0000000000000D+00  0.0000000000000D+00
266  2.6500000000000D+00  0.0000000000000D+00  0.0000000000000D+00
267  2.6600000000000D+00  0.0000000000000D+00  0.0000000000000D+00
268  2.6700000000000D+00  0.0000000000000D+00  0.0000000000000D+00
269  2.6800000000000D+00  0.0000000000000D+00  0.0000000000000D+00
270  2.6900000000000D+00  0.0000000000000D+00  0.0000000000000D+00
271  2.7000000000000D+00  0.0000000000000D+00  0.0000000000000D+00
272  2.7100000000000D+00  0.0000000000000D+00  0.0000000000000D+00
273  2.7200000000000D+00  0.0000000000000D+00  0.0000000000000D+00
274  2.7300000000000D+00  0.0000000000000D+00  0.0000000000000D+00
275  2.7400000000000D+00  0.0000000000000D+00  0.0000000000000D+00
276  2.7500000000000D+00  0.0000000000000D+00  0.0000000000000D+00
277  2.7600000000000D+00  0.0000000000000D+00  0.0000000000000D+00
278  2.7700000000000D+00  0.0000000000000D+00  0.0000000000000D+00
279  2.7800000000000D+00  0.0000000000000D+00  0.0000000000000D+00
280  2.7900000000000D+00  0.0000000000000D+00  0.0000000000000D+00
281  2.8000000000000D+00  0.0000000000000D+00  0.0000000000000D+00
282  2.8100000000000D+00  0.0000000000000D+00  0.0000000000000D+00
283  2.8200000000000D+00  0.0000000000000D+00  0.0000000000000D+00
284  2.8300000000000D+00  0.0000000000000D+00  0.0000000000000D+00
285  2.8400000000000D+00  0.0000000000000D+00  0.0000000000000D+00
286  2.8500000000000D+00  0.0000000000000D+00  0.0000000000000D+00
287  2.8600000000000D+00  0.0000000000000D+00  0.0000000000000D+00
288  2.8700000000000D+00  0.0000000000000D+00  0.0000000000000D+00
289  2.8800000000000D+00  0.0000000000000D+00  0.0000000000000D+00
290  2.8900000000000D+00  0.0000000000000D+00  0.0000000000000D+00
291  2.9000000000000D+00  0.0000000000000D+00  0.0000000000000D+00
292  2.9100000000000D+00  0.0000000000000D+00  0.0000000000000D+00
293  2.9200000000000D+00  0.0000000000000D+00  0.0000000000000D+00
294  2.9300000000000D+00  0.0000000000000D+00  0.0000000000000D+00
295  2.9400000000000D+00  0.0000000000000D+00  0.0000000000000D+00
296  2.9500000000000D+00  0.0000000000000D+00  0.0000000000000D+00
297  2.9600000000000D+00  0.0000000000000D+00  0.0000000000000D+00
298  2.9700000000000D+00  0.0000000000000D+00  0.0000000000000D+00
299  2.9800000000000D+00  0.0000000000000D+00  0.0000000000000D+00
300  2.9900000000000D+00  0.0000000000000D+00  0.0000000000000D+00
301  3.0000000000000D+00  0.0000000000000D+00  0.0000000000000D+00
302  3.0100000000000D+00  0.0000000000000D+00  0.0000000000000D+00
303  3.0200000000000D+00  0.0000000000000D+00  0.0000000000000D+00
304  3.0300000000000D+00  0.0000000000000D+00  0.0000000000000D+00
305  3.0400000000000D+00  0.0000000000000D+00  0.0000000000000D+00
306  3.0500000000000D+00  0.0000000000000D+00  0.0000000000000D+00
307  3.0600000000000D+00  0.0000000000000D+00  0.0000000000000D+00
308  3.0700000000000D+00  0.0000000000000D+00  0.0000000000000D+00
309  3.0800000000000D+00  0.0000000000000D+00  0.0000000000000D+00
310  3.0900000000000D+00  0.0000000000000D+00  0.0000000000000D+00
311  3.1000000000000D+00  0.0000000000000D+00  0.0000000000000D+00
312  3.1100000000000D+00  0.0000000000000D+00  0.0000000000000D+00
313  3.1200000000000D+00  0.0000000000000D+00  0.0000000000000D+00
314  3.1300000000000D+00  0.0000000000000D+00  0.0000000000000D+00
315  3.1400000000000D+00  0.0000000000000D+00  0.0000000000000D+00
316  3.1500000000000D+00  0.0000000000000D+00  0.0000000000000D+00
317  3.1600000000000D+00  0.0000000000000D+00  0.0000000000000D+00
318  3.1700000000000D+00  0.0000000000000D+00  0.0000000000000D+00
319  3.1800000000000D+00  0.0000000000000D+00  0.0000000000000D+00
320  3.1900000000000D+00  0.0000000000000D+00  0.0000000000000D+00
321  3.2000000000000D+00  0.0000000000000D+00  0.0000000000000D+00
322  3.2100000000000D+00  0.0000000000000D+00  0.0000000000000D+00
323  3.2200000000000D+00  0.0000000000000D+00  0.0000000000000D+00
324  3.2300000000000D+00  0.0000000000000D+00  0.0000000000000D+00
325  3.2400000000000D+00  0.0000000000000D+00  0.0000000000000D+00
326  3.2500000000000D+00  0.0000000000000D+00  0.0000000000000D+00
327  3.2600000000000D+00  0.0000000000000D+00  0.0000000000000D+00
328  3.2700000000000D+00  0.0000000000000D+00  0.0000000000000D+00
329  3.2800000000000D+00  0.0000000000000D+00  0.0000000000000D+00
330  3.2900000000000D+00  0.0000000000000D+00  0.0000000000000D+00
331  3.3000000000000D+00  0.0000000000000D+00  0.0000000000000D+00
332  3.3100000000000D+00  0.0000000000000D+00  0.0000000000000D+00
333  3.3200000000000D+00  0.0000000000000D+00  0.0000000000000D+00
334  3.3300000000000D+00  0.0000000000000D+00  0.0000000000000D+00
335  3.3400000000000D+00  0.0000000000000D+00  0.0000000000000D+00
336  3.3500000000000D+00  0.0000000000000D+00  0.0000000000000D+00
337  3.3600000000000D+00  0.0000000000000D+00  0.0000000000000D+00
338  3.3700000000000D+00  0.0000000000000D+00  0.0000000000000D+00
339  3.3800000000000D+00  0.0000000000000D+00  0.0000000000000D+00
340  3.3900000000000D+00  0.0000000000000D+00  0.0000000000000D+00
341  3.4000000000000D+00  0.0000000000000D+00  0.0000000000000D+00
342  3.4100000000000D+00  0.0000000000000D+00  0.0000000000000D+00
343  3.4200000000000D+00  0.0000000000000D+00  0.0000000000000D+00
344  3.4300000000000D+00  0.0000000000000D+00  0.0000000000000D+00
345  3.4400000000000D+00  0.0000000000000D+00  0.0000000000000D+00
346  3.4500000000000D+00  0.0000000000000D+00  0.0000000000000D+00
347  3.4600000000000D+00  0.0000000000000D+00  0.0000000000000D+00
348  3.4700000000000D+00  0.0000000000000D+00  0.0000000000000D+00
349  3.4800000000000D+00  0.0000000000000D+00  0.0000000000000D+00
350  3.4900000000000D+00  0.0000000000000D+00  0.0000000000000D+00
351  3.5000000000000D+00  0.0000000000000D+00  0.0000000000000D+00
352  3.5100000000000D+00  0.0000000000000D+00  0.0000000000000D+00
353  3.5200000000000D+00  0.0000000000000D+00  0.0000000000000D+00
354  3.5300000000000D+00  0.0000000000000D+00  0.0000000000000D+00
355  3.5400000000000D+00  0.0000000000000D+00  0.0000000000000D+00
356  3.5500000000000D+00  0.0000000000000D+00  0.0000000000000D+00
357  3.5600000000000D+00  0.0000000000000D+00  0.0000000000000D+00
358  3.5700000000000D+00  0.0000000000000D+00  0.0000000000000D+00
359  3.5800000000000D+00  0.0000000000000D+00  0.0000000000000D+00
360  3.5900000000000D+00  0.0000000000000D+00  0.0000000000000D+00
361  3.6000000000000D+00  0.0000000000000D+00  0.0000000000000D+00
362  3.6100000000000D+00  0.0000000000000D+00  0.0000000000000D+00
363  3.6200000000000D+00  0.0000000000000D+00  0.0000000000000D+00
364  3.6300000000000D+00  0.0000000000000D+00  0.0000000000000D+00
365  3.6400000000000D+00  0.0000000000000D+00  0.0000000000000D+00
366  3.6500000000000D+00  0.0000000000000D+00  0.0000000000000D+00
367  3.6600000000000D+00  0.0000000000000D+00  0.0000000000000D+00
368  3.6700000000000D+00  0.0000000000000D+00  0.0000000000000D+00
369  3.6800000000000D+00  0.0000000000000D+00  0.0000000000000D+00
370  3.6900000000000D+00  0.0000000000000D+00  0.0000000000000D+00
371  3.7000000000000D+00  0.0000000000000D+00  0.0000000000000D+00
372  3.7100000000000D+00  0.0000000000000D+00  0.0000000000000D+00
373  3.7200000000000D+00  0.0000000000000D+00  0.0000000000000D+00
374  3.7300000000000D+00  0.0000000000000D+00  0.0000000000000D+00
375  3.7400000000000D+00  0.0000000000000D+00  0.0000000000000D+00
376  3.7500000000000D+00  0.0000000000000D+00  0.0000000000000D+00
377  3.7600000000000D+00  0.0000000000000D+00  0.0000000000000D+00
378  3.7700000000000D+00  0.0000000000000D+00  0.0000000000000D+00
379  3.7800000000000D+00  0.0000000000000D+00  0.0000000000000D+00
380  3.7900000000000D+00  0.0000000000000D+00  0.0000000000000D+00
381  3.8000000000000D+00  0.0000000000000D+00  0.0000000000000D+00
382  3.8100000000000D+00  0.0000000000000D+00  0.0000000000000D+00
383  3.8200000000000D+00  0.0000000000000D+00  0.0000000000000D+00
384  3.8300000000000D+00  0.0000000000000D+00  0.0000000000000D+00
385  3.8400000000000D+00  0.0000000000000D+00  0.0000000000000D+00
386  3.8500000000000D+00  0.0000000000000D+00  0.0000000000000D+00
387  3.8600000000000D+00  0.0000000000000D+00  0.0000000000000D+00
388  3.8700000000000D+00  0.0000000000000D+00  0.0000000000000D+00
389  3.8800000000000D+00  0.0000000000000D+00  0.0000000000000D+00
390  3.8900000000000D+00  0.0000000000000D+00  0.0000000000000D+00
391  3.9000000000000D+00  0.0000000000000D+00  0.0000000000000D+00
392  3.9100000000000D+00  0.0000000000000D+00  0.0000000000000D+00
393  3.9200000000000D+00  0.0000000000000D+00  0.0000000000000D+00
394  3.9300000000000D+00  0.0000000000000D+00  0.0000000000000D+00
395  3.9400000000000D+00  0.0000000000000D+00  0.0000000000000D+00
396  3.9500000000000D+00  0.0000000000000D+00  0.0000000000000D+00
397  3.9600000000000D+00  0.0000000000000D+00  0.0000000000000D+00
398  3.9700000000000D+00  0.0000000000000D+00  0.0000000000000D+00
399  3.9800000000000D+00  0.0000000000000D+00  0.0000000000000D+00
400  3.9900000000000D+00  0.0000000000000D+00  0.0000000000000D+00
401  4.0000000000000D+00  0.0000000000000D+00  0.0000000000000D+00
402  4.0100000000000D+00  0.0000000000000D+00  0.0000000000000D+00
403  4.0200000000000D+00  0.0000000000000D+00  0.0000000000000D+00
404  4.0300000000000D+00  0.0000000000000D+00  0.0000000000000D+00
405  4.0400000000000D+00  0.0000000000000D+00  0.0000000000000D+00
406  4.0500000000000D+00  0.0000000000000D+00  0.0000000000000D+00
407  4.0600000000000D+00  0.0000000000000D+00  0.0000000000000D+00
408  4.0700000000000D+00  0.0000000000000D+00  0.0000000000000D+00
409  4.0800000000000D+00  0.0000000000000D+00  0.0000000000000D+00
410  4.0900000000000D+00  0.0000000000000D+00  0.0000000000000D+00
411  4.1000000000000D+00  0.0000000000000D+00  0.0000000000000D+00
412  4.1100000000000D+00  0.0000000000000D+00  0.0000000000000D+00
413  4.1200000000000D+00  0.0000000000000D+00  0.0000000000000D+00
414  4.1300000000000D+00  0.0000000000000D+00  0.0000000000000D+00
415  4.1400000000000D+00  0.0000000000000D+00  0.0000000000000D+00
416  4.1500000000000D+00  0.0000000000000D+00  0.0000000000000D+00
417  4.1600000000000D+00  0.0000000000000D+00  0.0000000000000D+00
418  4.1700000000000D+00  0.0000000000000D+00  0.0000000000000D+00
419  4.1800000000000D+00  0.0000000000000D+00  0.0000000000000D+00
420  4.1900000000000D+00  0.0000000000000D+00  0.0000000000000D+00
421  4.2000000000000D+00  0.0000000000000D+00  0.0000000000000D+00
422  4.2100000000000D+00  0.0000000000000D+00  0.0000000000000D+00
423  4.2200000000000D+00  0.0000000000000D+00  0.0000000000000D+00
424  4.2300000000000D+00  0.0000000000000D+00  0.0000000000000D+00
425  4.2400000000000D+00  0.0000000000000D+00  0.0000000000000D+00
426  4.2500000000000D+00  0.0000000000000D+00  0.0000000000000D+00
427  4.2600000000000D+00  0.0000000000000D+00  0.0000000000000D+00
428  4.2700000000000D+00  0.0000000000000D+00  0.0000000000000D+00
429  4.2800000000000D+00  0.0000000000000D+00  0.0000000000000D+00
430  4.2900000000000D+00  0.0000000000000D+00  0.0000000000000D+00
431  4.3000000000000D+00  0.0000000000000D+00  0.0000000000000D+00
432  4.3100000000000D+00  0.0000000000000D+00  0.0000000000000D+00
433  4.3200000000000D+00  0.0000000000000D+00  0.0000000000000D+00
434  4.3300000000000D+00  0.0000000000000D+00  0.0000000000000D+00
435  4.3400000000000D+00  0.0000000000000D+00  0.0000000000000D+00
436  4.3500000000000D+00  0.0000000000000D+00  0.0000000000000D+00
437  4.3600000000000D+00  0.0000000000000D+00  0.0000000000000D+00
438  4.3700000000000D+00  0.0000000000000D+00  0.0000000000000D+00
439  4.3800000000000D+00  0.0000000000000D+00  0.0000000000000D+00
440  4.3900000000000D+00  0.0000000000000D+00  0.0000000000000D+00
441  4.4000000000000D+00  0.0000000000000D+00  0.0000000000000D+00
442  4.4100000000000D+00  0.0000000000000D+00  0.0000000000000D+00
443  4.4200000000000D+00  0.0000000000000D+00  0.0000000000000D+00