Sr    ONCVPSP  r_core=  1.46  1.31  1.46
38.0000     10.0000      170209    zatom,zion,pspd
8      11   2     4   600     0    pspcod,pspxc,lmax,lloc,mmax,r2well
5.99000000  6.00000000  0.00000000    rchrg fchrg qchrg
2     2     2     0     0    nproj
1                 extension_switch
0                         9.7106788056870D+00  7.9378149964025D-01
1  0.0000000000000D+00  4.7287018745124D-10 -2.4827004202477D-09
2  1.0000000000000D-02  3.7607307554224D-02 -1.6221441640727D-03
3  2.0000000000000D-02  7.5232800564578D-02 -3.4238643421701D-03
4  3.0000000000000D-02  1.1289399950451D-01 -5.5816596657522D-03
5  4.0000000000000D-02  1.5060710391703D-01 -8.2659204951236D-03
6  5.0000000000000D-02  1.8838635441449D-01 -1.1637985875983D-02
7  6.0000000000000D-02  2.2624342129546D-01 -1.5847333415494D-02
8  7.0000000000000D-02  2.6418682808795D-01 -2.1028942759360D-02
9  8.0000000000000D-02  3.0222141785515D-01 -2.7300871368703D-02
10  9.0000000000000D-02  3.4034786952118D-01 -3.4762078257272D-02
11  1.0000000000000D-01  3.7856227079677D-01 -4.3490527798735D-02
12  1.1000000000000D-01  4.1685575351892D-01 -5.3541601698950D-02
13  1.2000000000000D-01  4.5521419637351D-01 -6.4946842806281D-02
14  1.3000000000000D-01  4.9361799905788D-01 -7.7713049665290D-02
15  1.4000000000000D-01  5.3204193097400D-01 -9.1821735672685D-02
16  1.5000000000000D-01  5.7045505653440D-01 -1.0722896143999D-01
17  1.6000000000000D-01  6.0882073812731D-01 -1.2386554357877D-01
18  1.7000000000000D-01  6.4709671673809D-01 -1.4163763767791D-01
19  1.8000000000000D-01  6.8523526917545D-01 -1.6042768781514D-01
20  1.9000000000000D-01  7.2318343981748D-01 -1.8009572961373D-01
21  2.0000000000000D-01  7.6088334378902D-01 -2.0048102869678D-01
22  2.1000000000000D-01  7.9827253752113D-01 -2.2140403147907D-01
23  2.2000000000000D-01  8.3528445173983D-01 -2.4266860064136D-01
24  2.3000000000000D-01  8.7184888109668D-01 -2.6406450342090D-01
25  2.4000000000000D-01  9.0789252389999D-01 -2.8537011708625D-01
26  2.5000000000000D-01  9.4333956474339D-01 -3.0635531270072D-01
27  2.6000000000000D-01  9.7811229226681D-01 -3.2678447556476D-01
28  2.7000000000000D-01  1.0121317438326D+00 -3.4641961860637D-01
29  2.8000000000000D-01  1.0453183685616D+00 -3.6502354349172D-01
30  2.9000000000000D-01  1.0775926999571D+00 -3.8236300338288D-01
31  3.0000000000000D-01  1.1088760292511D+00 -3.9821182108851D-01
32  3.1000000000000D-01  1.1390910706373D+00 -4.1235391684681D-01
33  3.2000000000000D-01  1.1681626097133D+00 -4.2458620114133D-01
34  3.3000000000000D-01  1.1960181267313D+00 -4.3472128976921D-01
35  3.4000000000000D-01  1.2225883866564D+00 -4.4259000083580D-01
36  3.5000000000000D-01  1.2478079885429D+00 -4.4804359640740D-01
37  3.6000000000000D-01  1.2716158673575D+00 -4.5095573517567D-01
38  3.7000000000000D-01  1.2939557420978D+00 -4.5122410662517D-01
39  3.8000000000000D-01  1.3147765048561D+00 -4.4877172179304D-01
40  3.9000000000000D-01  1.3340325463652D+00 -4.4354784070255D-01
41  4.0000000000000D-01  1.3516840145083D+00 -4.3552852187500D-01
42  4.1000000000000D-01  1.3676970032728D+00 -4.2471678489550D-01
43  4.2000000000000D-01  1.3820436706644D+00 -4.1114238275724D-01
44  4.3000000000000D-01  1.3947022851547D+00 -3.9486118654492D-01
45  4.4000000000000D-01  1.4056572012980D+00 -3.7595419086445D-01
46  4.5000000000000D-01  1.4148987662103D+00 -3.5452615419112D-01
47  4.6000000000000D-01  1.4224231596313D+00 -3.3070389391270D-01
48  4.7000000000000D-01  1.4282321712819D+00 -3.0463426119810D-01
49  4.8000000000000D-01  1.4323329201674D+00 -2.7648182585166D-01
50  4.9000000000000D-01  1.4347375213396D+00 -2.4642630593426D-01
51  5.0000000000000D-01  1.4354627064222D+00 -2.1465978107871D-01
52  5.1000000000000D-01  1.4345294048891D+00 -1.8138373202867D-01
53  5.2000000000000D-01  1.4319622936751D+00 -1.4680595193087D-01
54  5.3000000000000D-01  1.4277893231677D+00 -1.1113737725597D-01
55  5.4000000000000D-01  1.4220412279776D+00 -7.4588887877815D-02
56  5.5000000000000D-01  1.4147510311045D+00 -3.7368126762462D-02
57  5.6000000000000D-01  1.4059535502030D+00  3.2361010359038D-04
58  5.7000000000000D-01  1.3956849145996D+00  3.8294363507355D-02
59  5.8000000000000D-01  1.3839821015324D+00  7.6364331829203D-02
60  5.9000000000000D-01  1.3708824997579D+00  1.1436847630255D-01
61  6.0000000000000D-01  1.3564235082241D+00  1.5215886694368D-01
62  6.1000000000000D-01  1.3406421769249D+00  1.8960672892994D-01
63  6.2000000000000D-01  1.3235748963621D+00  2.2660415336637D-01
64  6.3000000000000D-01  1.3052571412312D+00  2.6306544118459D-01
65  6.4000000000000D-01  1.2857232730461D+00  2.9892805423745D-01
66  6.5000000000000D-01  1.2650064054313D+00  3.3415315343208D-01
67  6.6000000000000D-01  1.2431383347471D+00  3.6872570994913D-01
68  6.7000000000000D-01  1.2201495375984D+00  4.0265418206792D-01
69  6.8000000000000D-01  1.1960692356253D+00  4.3596975679801D-01
70  6.9000000000000D-01  1.1709255267890D+00  4.6872516235811D-01
71  7.0000000000000D-01  1.1447455811859D+00  5.0099306434696D-01
72  7.1000000000000D-01  1.1175558982520D+00  5.3286406520361D-01
73  7.2000000000000D-01  1.0893826210808D+00  5.6444433309234D-01
74  7.3000000000000D-01  1.0602519024825D+00  5.9585289264462D-01
75  7.4000000000000D-01  1.0301903163921D+00  6.2721861585564D-01
76  7.5000000000000D-01  9.9922530728946D-01  6.5867695685046D-01
77  7.6000000000000D-01  9.6738566945357D-01  6.9036647908352D-01
78  7.7000000000000D-01  9.3470204714044D-01  7.2242522773707D-01
79  7.8000000000000D-01  9.0120744617406D-01  7.5498700356684D-01
80  7.9000000000000D-01  8.6693774697054D-01  7.8817759715981D-01
81  8.0000000000000D-01  8.3193220869876D-01  8.2211104443490D-01
82  8.1000000000000D-01  7.9623395411614D-01  8.5688596522080D-01
83  8.2000000000000D-01  7.5989042461381D-01  8.9258204684352D-01
84  8.3000000000000D-01  7.2295379516429D-01  9.2925673383278D-01
85  8.4000000000000D-01  6.8548133918716D-01  9.6694218311041D-01
86  8.5000000000000D-01  6.4753573383290D-01  1.0056425413642D+00
87  8.6000000000000D-01  6.0918529682688D-01  1.0453315977587D+00
88  8.7000000000000D-01  5.7050414680989D-01  1.0859508607315D+00
89  8.8000000000000D-01  5.3157228004712D-01  1.1274081024087D+00
90  8.9000000000000D-01  4.9247555744577D-01  1.1695764082247D+00
91  9.0000000000000D-01  4.5330559700726D-01  1.2122937627017D+00
92  9.1000000000000D-01  4.1415956812957D-01  1.2553631951369D+00
93  9.2000000000000D-01  3.7513988555078D-01  1.2985535012395D+00
94  9.3000000000000D-01  3.3635380216881D-01  1.3416005486697D+00
95  9.4000000000000D-01  2.9791290146355D-01  1.3842091660579D+00
96  9.5000000000000D-01  2.5993249177132D-01  1.4260556065240D+00
97  9.6000000000000D-01  2.2253090618510D-01  1.4667905681417D+00
98  9.7000000000000D-01  1.8582871335465D-01  1.5060427453384D+00
99  9.8000000000000D-01  1.4994784595718D-01  1.5434228767713D+00
100  9.9000000000000D-01  1.1501065500224D-01  1.5785282473428D+00
101  1.0000000000000D+00  8.1138899477009D-02  1.6109475944004D+00
102  1.0100000000000D+00  4.8452682069281D-02  1.6402663611674D+00
103  1.0200000000000D+00  1.7069342818154D-02  1.6660722340903D+00
104  1.0300000000000D+00 -1.2897676473644D-02  1.6879608951306D+00
105  1.0400000000000D+00 -4.1339983447963D-02  1.7055419154951D+00
106  1.0500000000000D+00 -6.8155387689156D-02  1.7184447131119D+00
107  1.0600000000000D+00 -9.3249039758756D-02  1.7263244936124D+00
108  1.0700000000000D+00 -1.1653454170570D-01  1.7288680926434D+00
109  1.0800000000000D+00 -1.3793501393473D-01  1.7257996367777D+00
110  1.0900000000000D+00 -1.5738410338626D-01  1.7168859404772D+00
111  1.1000000000000D+00 -1.7482691832988D-01  1.7019415582240D+00
112  1.1100000000000D+00 -1.9022087558200D-01  1.6808334135289D+00
113  1.1200000000000D+00 -2.0353644670788D-01  1.6534849304296D+00
114  1.1300000000000D+00 -2.1475779064698D-01  1.6198795977249D+00
115  1.1400000000000D+00 -2.2388326121063D-01  1.5800639015521D+00
116  1.1500000000000D+00 -2.3092577931485D-01  1.5341495694813D+00
117  1.1600000000000D+00 -2.3591306118713D-01  1.4823150767023D+00
118  1.1700000000000D+00 -2.3888769520956D-01  1.4248063725438D+00
119  1.1800000000000D+00 -2.3990706173708D-01  1.3619367946170D+00
120  1.1900000000000D+00 -2.3904309215987D-01  1.2940861483278D+00
121  1.2000000000000D+00 -2.3638186543001D-01  1.2216989400901D+00
122  1.2100000000000D+00 -2.3202304133522D-01  1.1452817583305D+00
123  1.2200000000000D+00 -2.2607913280272D-01  1.0653998126807D+00
124  1.2300000000000D+00 -2.1867462096469D-01  9.8267264964604D-01
125  1.2400000000000D+00 -2.0994491821485D-01  8.9776907118339D-01
126  1.2500000000000D+00 -2.0003518675573D-01  8.1140129499246D-01
127  1.2600000000000D+00 -1.8909902214746D-01  7.2431840628641D-01
128  1.2700000000000D+00 -1.7729701188398D-01  6.3729915227843D-01
129  1.2800000000000D+00 -1.6479518370480D-01  5.5114416544707D-01
130  1.2900000000000D+00 -1.5176334644914D-01  4.6666759564039D-01
131  1.3000000000000D+00 -1.3837339342561D-01  3.8468868348041D-01
132  1.3100000000000D+00 -1.2479741375351D-01  3.0602195302589D-01
133  1.3200000000000D+00 -1.1120589825155D-01  2.3146833014650D-01
134  1.3300000000000D+00 -9.7766416950014D-02  1.6181060610500D-01
135  1.3400000000000D+00 -8.4642395516901D-02  9.7808987335484D-02
136  1.3500000000000D+00 -7.1992006021945D-02  4.0197105139400D-02
137  1.3600000000000D+00 -5.9966549002525D-02 -1.0326800457755D-02
138  1.3700000000000D+00 -4.8708977392244D-02 -5.3107661016926D-02
139  1.3800000000000D+00 -3.8352501086762D-02 -8.7540815494426D-02
140  1.3900000000000D+00 -2.9019259553325D-02 -1.1307897521553D-01
141  1.4000000000000D+00 -2.0819091563788D-02 -1.2923866671026D-01
142  1.4100000000000D+00 -1.3848415059762D-02 -1.3560609454698D-01
143  1.4200000000000D+00 -8.1982768761994D-03 -1.3160876608980D-01
144  1.4300000000000D+00 -3.8853513369913D-03 -1.1834607218184D-01
145  1.4400000000000D+00 -9.9975541348822D-04 -9.4574292705795D-02
146  1.4500000000000D+00  1.6003178282108D-04 -5.2173447414002D-02
147  1.4600000000000D+00  9.1586894243462D-05 -7.0526817543081D-03
148  1.4700000000000D+00 -4.8407955457832D-05  7.1424126838237D-03
149  1.4800000000000D+00  2.2928356097533D-07 -1.0184647316619D-04
150  1.4900000000000D+00  5.1692674559691D-06 -1.6031401748806D-03
151  1.5000000000000D+00  5.7443498748634D-07  1.0482667633088D-04
152  1.5100000000000D+00  9.0209819169586D-07  1.7061549871686D-04
153  1.5200000000000D+00 -4.9232359420270D-08  3.7880173569239D-08
154  1.5300000000000D+00 -3.6037321114900D-08  2.7727697694716D-08
155  1.5400000000000D+00  0.0000000000000D+00  0.0000000000000D+00
156  1.5500000000000D+00  0.0000000000000D+00  0.0000000000000D+00
157  1.5600000000000D+00  0.0000000000000D+00  0.0000000000000D+00
158  1.5700000000000D+00  0.0000000000000D+00  0.0000000000000D+00
159  1.5800000000000D+00  0.0000000000000D+00  0.0000000000000D+00
160  1.5900000000000D+00  0.0000000000000D+00  0.0000000000000D+00
161  1.6000000000000D+00  0.0000000000000D+00  0.0000000000000D+00
162  1.6100000000000D+00  0.0000000000000D+00  0.0000000000000D+00
163  1.6200000000000D+00  0.0000000000000D+00  0.0000000000000D+00
164  1.6300000000000D+00  0.0000000000000D+00  0.0000000000000D+00
165  1.6400000000000D+00  0.0000000000000D+00  0.0000000000000D+00
166  1.6500000000000D+00  0.0000000000000D+00  0.0000000000000D+00
167  1.6600000000000D+00  0.0000000000000D+00  0.0000000000000D+00
168  1.6700000000000D+00  0.0000000000000D+00  0.0000000000000D+00
169  1.6800000000000D+00  0.0000000000000D+00  0.0000000000000D+00
170  1.6900000000000D+00  0.0000000000000D+00  0.0000000000000D+00
171  1.7000000000000D+00  0.0000000000000D+00  0.0000000000000D+00
172  1.7100000000000D+00  0.0000000000000D+00  0.0000000000000D+00
173  1.7200000000000D+00  0.0000000000000D+00  0.0000000000000D+00
174  1.7300000000000D+00  0.0000000000000D+00  0.0000000000000D+00
175  1.7400000000000D+00  0.0000000000000D+00  0.0000000000000D+00
176  1.7500000000000D+00  0.0000000000000D+00  0.0000000000000D+00
177  1.7600000000000D+00  0.0000000000000D+00  0.0000000000000D+00
178  1.7700000000000D+00  0.0000000000000D+00  0.0000000000000D+00
179  1.7800000000000D+00  0.0000000000000D+00  0.0000000000000D+00
180  1.7900000000000D+00  0.0000000000000D+00  0.0000000000000D+00
181  1.8000000000000D+00  0.0000000000000D+00  0.0000000000000D+00
182  1.8100000000000D+00  0.0000000000000D+00  0.0000000000000D+00
183  1.8200000000000D+00  0.0000000000000D+00  0.0000000000000D+00
184  1.8300000000000D+00  0.0000000000000D+00  0.0000000000000D+00
185  1.8400000000000D+00  0.0000000000000D+00  0.0000000000000D+00
186  1.8500000000000D+00  0.0000000000000D+00  0.0000000000000D+00
187  1.8600000000000D+00  0.0000000000000D+00  0.0000000000000D+00
188  1.8700000000000D+00  0.0000000000000D+00  0.0000000000000D+00
189  1.8800000000000D+00  0.0000000000000D+00  0.0000000000000D+00
190  1.8900000000000D+00  0.0000000000000D+00  0.0000000000000D+00
191  1.9000000000000D+00  0.0000000000000D+00  0.0000000000000D+00
192  1.9100000000000D+00  0.0000000000000D+00  0.0000000000000D+00
193  1.9200000000000D+00  0.0000000000000D+00  0.0000000000000D+00
194  1.9300000000000D+00  0.0000000000000D+00  0.0000000000000D+00
195  1.9400000000000D+00  0.0000000000000D+00  0.0000000000000D+00
196  1.9500000000000D+00  0.0000000000000D+00  0.0000000000000D+00
197  1.9600000000000D+00  0.0000000000000D+00  0.0000000000000D+00
198  1.9700000000000D+00  0.0000000000000D+00  0.0000000000000D+00
199  1.9800000000000D+00  0.0000000000000D+00  0.0000000000000D+00
200  1.9900000000000D+00  0.0000000000000D+00  0.0000000000000D+00
201  2.0000000000000D+00  0.0000000000000D+00  0.0000000000000D+00
202  2.0100000000000D+00  0.0000000000000D+00  0.0000000000000D+00
203  2.0200000000000D+00  0.0000000000000D+00  0.0000000000000D+00
204  2.0300000000000D+00  0.0000000000000D+00  0.0000000000000D+00
205  2.0400000000000D+00  0.0000000000000D+00  0.0000000000000D+00
206  2.0500000000000D+00  0.0000000000000D+00  0.0000000000000D+00
207  2.0600000000000D+00  0.0000000000000D+00  0.0000000000000D+00
208  2.0700000000000D+00  0.0000000000000D+00  0.0000000000000D+00
209  2.0800000000000D+00  0.0000000000000D+00  0.0000000000000D+00
210  2.0900000000000D+00  0.0000000000000D+00  0.0000000000000D+00
211  2.1000000000000D+00  0.0000000000000D+00  0.0000000000000D+00
212  2.1100000000000D+00  0.0000000000000D+00  0.0000000000000D+00
213  2.1200000000000D+00  0.0000000000000D+00  0.0000000000000D+00
214  2.1300000000000D+00  0.0000000000000D+00  0.0000000000000D+00
215  2.1400000000000D+00  0.0000000000000D+00  0.0000000000000D+00
216  2.1500000000000D+00  0.0000000000000D+00  0.0000000000000D+00
217  2.1600000000000D+00  0.0000000000000D+00  0.0000000000000D+00
218  2.1700000000000D+00  0.0000000000000D+00  0.0000000000000D+00
219  2.1800000000000D+00  0.0000000000000D+00  0.0000000000000D+00
220  2.1900000000000D+00  0.0000000000000D+00  0.0000000000000D+00
221  2.2000000000000D+00  0.0000000000000D+00  0.0000000000000D+00
222  2.2100000000000D+00  0.0000000000000D+00  0.0000000000000D+00
223  2.2200000000000D+00  0.0000000000000D+00  0.0000000000000D+00
224  2.2300000000000D+00  0.0000000000000D+00  0.0000000000000D+00
225  2.2400000000000D+00  0.0000000000000D+00  0.0000000000000D+00
226  2.2500000000000D+00  0.0000000000000D+00  0.0000000000000D+00
227  2.2600000000000D+00  0.0000000000000D+00  0.0000000000000D+00
228  2.2700000000000D+00  0.0000000000000D+00  0.0000000000000D+00
229  2.2800000000000D+00  0.0000000000000D+00  0.0000000000000D+00
230  2.2900000000000D+00  0.0000000000000D+00  0.0000000000000D+00
231  2.3000000000000D+00  0.0000000000000D+00  0.0000000000000D+00
232  2.3100000000000D+00  0.0000000000000D+00  0.0000000000000D+00
233  2.3200000000000D+00  0.0000000000000D+00  0.0000000000000D+00
234  2.3300000000000D+00  0.0000000000000D+00  0.0000000000000D+00
235  2.3400000000000D+00  0.0000000000000D+00  0.0000000000000D+00
236  2.3500000000000D+00  0.0000000000000D+00  0.0000000000000D+00
237  2.3600000000000D+00  0.0000000000000D+00  0.0000000000000D+00
238  2.3700000000000D+00  0.0000000000000D+00  0.0000000000000D+00
239  2.3800000000000D+00  0.0000000000000D+00  0.0000000000000D+00
240  2.3900000000000D+00  0.0000000000000D+00  0.0000000000000D+00
241  2.4000000000000D+00  0.0000000000000D+00  0.0000000000000D+00
242  2.4100000000000D+00  0.0000000000000D+00  0.0000000000000D+00
243  2.4200000000000D+00  0.0000000000000D+00  0.0000000000000D+00
244  2.4300000000000D+00  0.0000000000000D+00  0.0000000000000D+00
245  2.4400000000000D+00  0.0000000000000D+00  0.0000000000000D+00
246  2.4500000000000D+00  0.0000000000000D+00  0.0000000000000D+00
247  2.4600000000000D+00  0.0000000000000D+00  0.0000000000000D+00
248  2.4700000000000D+00  0.0000000000000D+00  0.0000000000000D+00
249  2.4800000000000D+00  0.0000000000000D+00  0.0000000000000D+00
250  2.4900000000000D+00  0.0000000000000D+00  0.0000000000000D+00
251  2.5000000000000D+00  0.0000000000000D+00  0.0000000000000D+00
252  2.5100000000000D+00  0.0000000000000D+00  0.0000000000000D+00
253  2.5200000000000D+00  0.0000000000000D+00  0.0000000000000D+00
254  2.5300000000000D+00  0.0000000000000D+00  0.0000000000000D+00
255  2.5400000000000D+00  0.0000000000000D+00  0.0000000000000D+00
256  2.5500000000000D+00  0.0000000000000D+00  0.0000000000000D+00
257  2.5600000000000D+00  0.0000000000000D+00  0.0000000000000D+00
258  2.5700000000000D+00  0.0000000000000D+00  0.0000000000000D+00
259  2.5800000000000D+00  0.0000000000000D+00  0.0000000000000D+00
260  2.5900000000000D+00  0.0000000000000D+00  0.0000000000000D+00
261  2.6000000000000D+00  0.0000000000000D+00  0.0000000000000D+00
262  2.6100000000000D+00  0.0000000000000D+00  0.0000000000000D+00
263  2.6200000000000D+00  0.0000000000000D+00  0.0000000000000D+00
264  2.6300000000000D+00  0.0000000000000D+00  0.0000000000000D+00
265  2.6400000000000D+00  0.0000000000000D+00  0.0000000000000D+00
266  2.6500000000000D+00  0.0000000000000D+00  0.0000000000000D+00
267  2.6600000000000D+00  0.0000000000000D+00  0.0000000000000D+00
268  2.6700000000000D+00  0.0000000000000D+00  0.0000000000000D+00
269  2.6800000000000D+00  0.0000000000000D+00  0.0000000000000D+00
270  2.6900000000000D+00  0.0000000000000D+00  0.0000000000000D+00
271  2.7000000000000D+00  0.0000000000000D+00  0.0000000000000D+00
272  2.7100000000000D+00  0.0000000000000D+00  0.0000000000000D+00
273  2.7200000000000D+00  0.0000000000000D+00  0.0000000000000D+00
274  2.7300000000000D+00  0.0000000000000D+00  0.0000000000000D+00
275  2.7400000000000D+00  0.0000000000000D+00  0.0000000000000D+00
276  2.7500000000000D+00  0.0000000000000D+00  0.0000000000000D+00
277  2.7600000000000D+00  0.0000000000000D+00  0.0000000000000D+00
278  2.7700000000000D+00  0.0000000000000D+00  0.0000000000000D+00
279  2.7800000000000D+00  0.0000000000000D+00  0.0000000000000D+00
280  2.7900000000000D+00  0.0000000000000D+00  0.0000000000000D+00
281  2.8000000000000D+00  0.0000000000000D+00  0.0000000000000D+00
282  2.8100000000000D+00  0.0000000000000D+00  0.0000000000000D+00
283  2.8200000000000D+00  0.0000000000000D+00  0.0000000000000D+00
284  2.8300000000000D+00  0.0000000000000D+00  0.0000000000000D+00
285  2.8400000000000D+00  0.0000000000000D+00  0.0000000000000D+00
286  2.8500000000000D+00  0.0000000000000D+00  0.0000000000000D+00
287  2.8600000000000D+00  0.0000000000000D+00  0.0000000000000D+00
288  2.8700000000000D+00  0.0000000000000D+00  0.0000000000000D+00
289  2.8800000000000D+00  0.0000000000000D+00  0.0000000000000D+00
290  2.8900000000000D+00  0.0000000000000D+00  0.0000000000000D+00
291  2.9000000000000D+00  0.0000000000000D+00  0.0000000000000D+00
292  2.9100000000000D+00  0.0000000000000D+00  0.0000000000000D+00
293  2.9200000000000D+00  0.0000000000000D+00  0.0000000000000D+00
294  2.9300000000000D+00  0.0000000000000D+00  0.0000000000000D+00
295  2.9400000000000D+00  0.0000000000000D+00  0.0000000000000D+00
296  2.9500000000000D+00  0.0000000000000D+00  0.0000000000000D+00
297  2.9600000000000D+00  0.0000000000000D+00  0.0000000000000D+00
298  2.9700000000000D+00  0.0000000000000D+00  0.0000000000000D+00
299  2.9800000000000D+00  0.0000000000000D+00  0.0000000000000D+00
300  2.9900000000000D+00  0.0000000000000D+00  0.0000000000000D+00
301  3.0000000000000D+00  0.0000000000000D+00  0.0000000000000D+00
302  3.0100000000000D+00  0.0000000000000D+00  0.0000000000000D+00
303  3.0200000000000D+00  0.0000000000000D+00  0.0000000000000D+00
304  3.0300000000000D+00  0.0000000000000D+00  0.0000000000000D+00
305  3.0400000000000D+00  0.0000000000000D+00  0.0000000000000D+00
306  3.0500000000000D+00  0.0000000000000D+00  0.0000000000000D+00
307  3.0600000000000D+00  0.0000000000000D+00  0.0000000000000D+00
308  3.0700000000000D+00  0.0000000000000D+00  0.0000000000000D+00
309  3.0800000000000D+00  0.0000000000000D+00  0.0000000000000D+00
310  3.0900000000000D+00  0.0000000000000D+00  0.0000000000000D+00
311  3.1000000000000D+00  0.0000000000000D+00  0.0000000000000D+00
312  3.1100000000000D+00  0.0000000000000D+00  0.0000000000000D+00
313  3.1200000000000D+00  0.0000000000000D+00  0.0000000000000D+00
314  3.1300000000000D+00  0.0000000000000D+00  0.0000000000000D+00
315  3.1400000000000D+00  0.0000000000000D+00  0.0000000000000D+00
316  3.1500000000000D+00  0.0000000000000D+00  0.0000000000000D+00
317  3.1600000000000D+00  0.0000000000000D+00  0.0000000000000D+00
318  3.1700000000000D+00  0.0000000000000D+00  0.0000000000000D+00
319  3.1800000000000D+00  0.0000000000000D+00  0.0000000000000D+00
320  3.1900000000000D+00  0.0000000000000D+00  0.0000000000000D+00
321  3.2000000000000D+00  0.0000000000000D+00  0.0000000000000D+00
322  3.2100000000000D+00  0.0000000000000D+00  0.0000000000000D+00
323  3.2200000000000D+00  0.0000000000000D+00  0.0000000000000D+00
324  3.2300000000000D+00  0.0000000000000D+00  0.0000000000000D+00
325  3.2400000000000D+00  0.0000000000000D+00  0.0000000000000D+00
326  3.2500000000000D+00  0.0000000000000D+00  0.0000000000000D+00
327  3.2600000000000D+00  0.0000000000000D+00  0.0000000000000D+00
328  3.2700000000000D+00  0.0000000000000D+00  0.0000000000000D+00
329  3.2800000000000D+00  0.0000000000000D+00  0.0000000000000D+00
330  3.2900000000000D+00  0.0000000000000D+00  0.0000000000000D+00
331  3.3000000000000D+00  0.0000000000000D+00  0.0000000000000D+00
332  3.3100000000000D+00  0.0000000000000D+00  0.0000000000000D+00
333  3.3200000000000D+00  0.0000000000000D+00  0.0000000000000D+00
334  3.3300000000000D+00  0.0000000000000D+00  0.0000000000000D+00
335  3.3400000000000D+00  0.0000000000000D+00  0.0000000000000D+00
336  3.3500000000000D+00  0.0000000000000D+00  0.0000000000000D+00
337  3.3600000000000D+00  0.0000000000000D+00  0.0000000000000D+00
338  3.3700000000000D+00  0.0000000000000D+00  0.0000000000000D+00
339  3.3800000000000D+00  0.0000000000000D+00  0.0000000000000D+00
340  3.3900000000000D+00  0.0000000000000D+00  0.0000000000000D+00
341  3.4000000000000D+00  0.0000000000000D+00  0.0000000000000D+00
342  3.4100000000000D+00  0.0000000000000D+00  0.0000000000000D+00
343  3.4200000000000D+00  0.0000000000000D+00  0.0000000000000D+00
344  3.4300000000000D+00  0.0000000000000D+00  0.0000000000000D+00
345  3.4400000000000D+00  0.0000000000000D+00  0.0000000000000D+00
346  3.4500000000000D+00  0.0000000000000D+00  0.0000000000000D+00
347  3.4600000000000D+00  0.0000000000000D+00  0.0000000000000D+00
348  3.4700000000000D+00  0.0000000000000D+00  0.0000000000000D+00
349  3.4800000000000D+00  0.0000000000000D+00  0.0000000000000D+00
350  3.4900000000000D+00  0.0000000000000D+00  0.0000000000000D+00
351  3.5000000000000D+00  0.0000000000000D+00  0.0000000000000D+00
352  3.5100000000000D+00  0.0000000000000D+00  0.0000000000000D+00
353  3.5200000000000D+00  0.0000000000000D+00  0.0000000000000D+00
354  3.5300000000000D+00  0.0000000000000D+00  0.0000000000000D+00
355  3.5400000000000D+00  0.0000000000000D+00  0.0000000000000D+00
356  3.5500000000000D+00  0.0000000000000D+00  0.0000000000000D+00
357  3.5600000000000D+00  0.0000000000000D+00  0.0000000000000D+00
358  3.5700000000000D+00  0.0000000000000D+00  0.0000000000000D+00
359  3.5800000000000D+00  0.0000000000000D+00  0.0000000000000D+00
360  3.5900000000000D+00  0.0000000000000D+00  0.0000000000000D+00
361  3.6000000000000D+00  0.0000000000000D+00  0.0000000000000D+00
362  3.6100000000000D+00  0.0000000000000D+00  0.0000000000000D+00
363  3.6200000000000D+00  0.0000000000000D+00  0.0000000000000D+00
364  3.6300000000000D+00  0.0000000000000D+00  0.0000000000000D+00
365  3.6400000000000D+00  0.0000000000000D+00  0.0000000000000D+00
366  3.6500000000000D+00  0.0000000000000D+00  0.0000000000000D+00
367  3.6600000000000D+00  0.0000000000000D+00  0.0000000000000D+00
368  3.6700000000000D+00  0.0000000000000D+00  0.0000000000000D+00
369  3.6800000000000D+00  0.0000000000000D+00  0.0000000000000D+00
370  3.6900000000000D+00  0.0000000000000D+00  0.0000000000000D+00
371  3.7000000000000D+00  0.0000000000000D+00  0.0000000000000D+00
372  3.7100000000000D+00  0.0000000000000D+00  0.0000000000000D+00
373  3.7200000000000D+00  0.0000000000000D+00  0.0000000000000D+00
374  3.7300000000000D+00  0.0000000000000D+00  0.0000000000000D+00
375  3.7400000000000D+00  0.0000000000000D+00  0.0000000000000D+00
376  3.7500000000000D+00  0.0000000000000D+00  0.0000000000000D+00
377  3.7600000000000D+00  0.0000000000000D+00  0.0000000000000D+00
378  3.7700000000000D+00  0.0000000000000D+00  0.0000000000000D+00
379  3.7800000000000D+00  0.0000000000000D+00  0.0000000000000D+00
380  3.7900000000000D+00  0.0000000000000D+00  0.0000000000000D+00
381  3.8000000000000D+00  0.0000000000000D+00  0.0000000000000D+00
382  3.8100000000000D+00  0.0000000000000D+00  0.0000000000000D+00
383  3.8200000000000D+00  0.0000000000000D+00  0.0000000000000D+00
384  3.8300000000000D+00  0.0000000000000D+00  0.0000000000000D+00
385  3.8400000000000D+00  0.0000000000000D+00  0.0000000000000D+00
386  3.8500000000000D+00  0.0000000000000D+00  0.0000000000000D+00
387  3.8600000000000D+00  0.0000000000000D+00  0.0000000000000D+00
388  3.8700000000000D+00  0.0000000000000D+00  0.0000000000000D+00
389  3.8800000000000D+00  0.0000000000000D+00  0.0000000000000D+00
390  3.8900000000000D+00  0.0000000000000D+00  0.0000000000000D+00
391  3.9000000000000D+00  0.0000000000000D+00  0.0000000000000D+00
392  3.9100000000000D+00  0.0000000000000D+00  0.0000000000000D+00
393  3.9200000000000D+00  0.0000000000000D+00  0.0000000000000D+00
394  3.9300000000000D+00  0.0000000000000D+00  0.0000000000000D+00
395  3.9400000000000D+00  0.0000000000000D+00  0.0000000000000D+00
396  3.9500000000000D+00  0.0000000000000D+00  0.0000000000000D+00
397  3.9600000000000D+00  0.0000000000000D+00  0.0000000000000D+00
398  3.9700000000000D+00  0.0000000000000D+00  0.0000000000000D+00
399  3.9800000000000D+00  0.0000000000000D+00  0.0000000000000D+00
400  3.9900000000000D+00  0.0000000000000D+00  0.0000000000000D+00
401  4.0000000000000D+00  0.0000000000000D+00  0.0000000000000D+00
402  4.0100000000000D+00  0.0000000000000D+00  0.0000000000000D+00
403  4.0200000000000D+00  0.0000000000000D+00  0.0000000000000D+00
404  4.0300000000000D+00  0.0000000000000D+00  0.0000000000000D+00
405  4.0400000000000D+00  0.0000000000000D+00  0.0000000000000D+00
406  4.0500000000000D+00  0.0000000000000D+00  0.0000000000000D+00
407  4.0600000000000D+00  0.0000000000000D+00  0.0000000000000D+00
408  4.0700000000000D+00  0.0000000000000D+00  0.0000000000000D+00
409  4.0800000000000D+00  0.0000000000000D+00  0.0000000000000D+00
410  4.0900000000000D+00  0.0000000000000D+00  0.0000000000000D+00
411  4.1000000000000D+00  0.0000000000000D+00  0.0000000000000D+00
412  4.1100000000000D+00  0.0000000000000D+00  0.0000000000000D+00
413  4.1200000000000D+00  0.0000000000000D+00  0.0000000000000D+00
414  4.1300000000000D+00  0.0000000000000D+00  0.0000000000000D+00
415  4.1400000000000D+00  0.0000000000000D+00  0.0000000000000D+00
416  4.1500000000000D+00  0.0000000000000D+00  0.0000000000000D+00
417  4.1600000000000D+00  0.0000000000000D+00  0.0000000000000D+00
418  4.1700000000000D+00  0.0000000000000D+00  0.0000000000000D+00
419  4.1800000000000D+00  0.0000000000000D+00  0.0000000000000D+00
420  4.1900000000000D+00  0.0000000000000D+00  0.0000000000000D+00
421  4.2000000000000D+00  0.0000000000000D+00  0.0000000000000D+00
422  4.2100000000000D+00  0.0000000000000D+00  0.0000000000000D+00
423  4.2200000000000D+00  0.0000000000000D+00  0.0000000000000D+00
424  4.2300000000000D+00  0.0000000000000D+00  0.0000000000000D+00
425  4.2400000000000D+00  0.0000000000000D+00  0.0000000000000D+00
426  4.2500000000000D+00  0.0000000000000D+00  0.0000000000000D+00
427  4.2600000000000D+00  0.0000000000000D+00  0.0000000000000D+00
428  4.2700000000000D+00  0.0000000000000D+00  0.0000000000000D+00
429  4.2800000000000D+00  0.0000000000000D+00  0.0000000000000D+00
430  4.2900000000000D+00  0.0000000000000D+00  0.0000000000000D+00
431  4.3000000000000D+00  0.0000000000000D+00  0.0000000000000D+00
432  4.3100000000000D+00  0.0000000000000D+00  0.0000000000000D+00
433  4.3200000000000D+00  0.0000000000000D+00  0.0000000000000D+00
434  4.3300000000000D+00  0.0000000000000D+00  0.0000000000000D+00
435  4.3400000000000D+00  0.0000000000000D+00  0.0000000000000D+00
436  4.3500000000000D+00  0.0000000000000D+00  0.0000000000000D+00
437  4.3600000000000D+00  0.0000000000000D+00  0.0000000000000D+00
438  4.3700000000000D+00  0.0000000000000D+00  0.0000000000000D+00
439  4.3800000000000D+00  0.0000000000000D+00  0.0000000000000D+00
440  4.3900000000000D+00  0.0000000000000D+00  0.0000000000000D+00
441  4.4000000000000D+00  0.0000000000000D+00  0.0000000000000D+00
442  4.4100000000000D+00  0.0000000000000D+00  0.0000000000000D+00
443  4.4200000000000D+00  0.0000000000000D+00  0.0000000000000D+00
444  4.4300000000000D+00  0.0000000000000D+00  0.0000000000000D+00