Be    ONCVPSP  r_core=  1.51  1.70
4.0000      2.0000      151028    zatom,zion,pspd
8      11   1     4   400     0    pspcod,pspxc,lmax,lloc,mmax,r2well
3.99000000  5.00000000  0.00000000    rchrg fchrg qchrg
2     1     0     0     0    nproj
0                 extension_switch
0                         4.7183253225523D+00  8.7536680286196D-01
1  0.0000000000000D+00  3.8294359627766D-09 -5.0553667363396D-09
2  1.0000000000000D-02 -1.6965804358648D-02  6.1942783104601D-02
3  2.0000000000000D-02 -3.3518788324361D-02  1.2333939197111D-01
4  3.0000000000000D-02 -4.9251545378279D-02  1.8365072267768D-01
5  4.0000000000000D-02 -6.3767423578088D-02  2.4235171564150D-01
6  5.0000000000000D-02 -7.6685720907481D-02  2.9893813836202D-01
7  6.0000000000000D-02 -8.7646665058382D-02  3.5293308449550D-01
8  7.0000000000000D-02 -9.6316110349520D-02  4.0389310072365D-01
9  8.0000000000000D-02 -1.0238988831436D-01  4.5141385793465D-01
10  9.0000000000000D-02 -1.0559775318119D-01  4.9513528942579D-01
11  1.0000000000000D-01 -1.0570686895562D-01  5.3474612608043D-01
12  1.1000000000000D-01 -1.0252479102707D-01  5.6998776667127D-01
13  1.2000000000000D-01 -9.5901902073484D-02  6.0065743048648D-01
14  1.3000000000000D-01 -8.5733269439949D-02  6.2661054924391D-01
15  1.4000000000000D-01 -7.1959899018060D-02  6.4776236562054D-01
16  1.5000000000000D-01 -5.4569368849055D-02  6.6408871653942D-01
17  1.6000000000000D-01 -3.3595834103779D-02  6.7562599048023D-01
18  1.7000000000000D-01 -9.1194036441606D-03  6.8247025936166D-01
19  1.8000000000000D-01  1.8735103071786D-02  6.8477559683226D-01
20  1.9000000000000D-01  4.9800001530627D-02  6.8275160594954D-01
21  2.0000000000000D-01  8.3867164714266D-02  6.7666019007287D-01
22  2.1000000000000D-01  1.2069098933361D-01  6.6681161119953D-01
23  2.2000000000000D-01  1.5999186496831D-01  6.5355988979131D-01
24  2.3000000000000D-01  2.0146009842749D-01  6.3729760924076D-01
25  2.4000000000000D-01  2.4476023937474D-01  6.1845019638469D-01
26  2.5000000000000D-01  2.8953574771020D-01  5.9746975677668D-01
27  2.6000000000000D-01  3.3541393845047D-01  5.7482854967919D-01
28  2.7000000000000D-01  3.8201113595829D-01  5.5101219284177D-01
29  2.8000000000000D-01  4.2893796640246D-01  5.2651269102528D-01
30  2.9000000000000D-01  4.7580471531725D-01  5.0182138485588D-01
31  3.0000000000000D-01  5.2222667610820D-01  4.7742191790892D-01
32  3.1000000000000D-01  5.6782941533359D-01  4.5378331991145D-01
33  3.2000000000000D-01  6.1225388158184D-01  4.3135330260768D-01
34  3.3000000000000D-01  6.5516128675262D-01  4.1055186217060D-01
35  3.4000000000000D-01  6.9623769151055D-01  3.9176527809625D-01
36  3.5000000000000D-01  7.3519823057736D-01  3.7534059333369D-01
37  3.6000000000000D-01  7.7179091831131D-01  3.6158065405143D-01
38  3.7000000000000D-01  8.0579998063067D-01  3.5073977999911D-01
39  3.8000000000000D-01  8.3704866569723D-01  3.4302012799057D-01
40  3.9000000000000D-01  8.6540149280377D-01  3.3856880172022D-01
41  4.0000000000000D-01  8.9076590651359D-01  3.3747575105053D-01
42  4.1000000000000D-01  9.1309331117948D-01  3.3977249320941D-01
43  4.2000000000000D-01  9.3237946941929D-01  3.4543167715037D-01
44  4.3000000000000D-01  9.4866425682949D-01  3.5436750080905D-01
45  4.4000000000000D-01  9.6203077406487D-01  3.6643697928518D-01
46  4.5000000000000D-01  9.7260382628022D-01  3.8144205025060D-01
47  4.6000000000000D-01  9.8054778870128D-01  3.9913249128590D-01
48  4.7000000000000D-01  9.8606388564838D-01  4.1920961253876D-01
49  4.8000000000000D-01  9.8938691856154D-01  4.4133067722828D-01
50  4.9000000000000D-01  9.9078148635895D-01  4.6511399223920D-01
51  5.0000000000000D-01  9.9053774869356D-01  4.9014460150085D-01
52  5.1000000000000D-01  9.8896678925831D-01  5.1598050615522D-01
53  5.2000000000000D-01  9.8639564213591D-01  5.4215932781064D-01
54  5.3000000000000D-01  9.8316204921297D-01  5.6820532455930D-01
55  5.4000000000000D-01  9.7960902080736D-01  5.9363666400408D-01
56  5.5000000000000D-01  9.7607927483982D-01  6.1797285336313D-01
57  5.6000000000000D-01  9.7290963205444D-01  6.4074222387871D-01
58  5.7000000000000D-01  9.7042544594174D-01  6.6148936527272D-01
59  5.8000000000000D-01  9.6893514610329D-01  6.7978240591545D-01
60  5.9000000000000D-01  9.6872497282910D-01  6.9522003569180D-01
61  6.0000000000000D-01  9.7005397862802D-01  7.0743817127472D-01
62  6.1000000000000D-01  9.7314936939463D-01  7.1611616759820D-01
63  6.2000000000000D-01  9.7820225384217D-01  7.2098248472308D-01
64  6.3000000000000D-01  9.8536386480657D-01  7.2181972597442D-01
65  6.4000000000000D-01  9.9474231016127D-01  7.1846897102534D-01
66  6.5000000000000D-01  1.0063999043402D+00  7.1083333655750D-01
67  6.6000000000000D-01  1.0203511240294D+00  6.9888070700104D-01
68  6.7000000000000D-01  1.0365612235399D+00  6.8264558853621D-01
69  6.8000000000000D-01  1.0549455367137D+00  6.6223005102458D-01
70  6.9000000000000D-01  1.0753694832110D+00  6.3780373447981D-01
71  7.0000000000000D-01  1.0976492876760D+00  6.0960290907739D-01
72  7.1000000000000D-01  1.1215534107684D+00  5.7792859031131D-01
73  7.2000000000000D-01  1.1468046814356D+00  5.4314372363537D-01
74  7.3000000000000D-01  1.1730831103099D+00  5.0566946549797D-01
75  7.4000000000000D-01  1.2000293547798D+00  4.6598060004022D-01
76  7.5000000000000D-01  1.2272487972761D+00  4.2460014265010D-01
77  7.6000000000000D-01  1.2543161897650D+00  3.8209319287872D-01
78  7.7000000000000D-01  1.2807808093886D+00  3.3906010987329D-01
79  7.8000000000000D-01  1.3061720628715D+00  2.9612909316491D-01
80  7.9000000000000D-01  1.3300054707071D+00  2.5394826037503D-01
81  8.0000000000000D-01  1.3517889564051D+00  2.1317732097671D-01
82  8.1000000000000D-01  1.3710293612801D+00  1.7447895158096D-01
83  8.2000000000000D-01  1.3872391014650D+00  1.3850998321993D-01
84  8.3000000000000D-01  1.3999428810976D+00  1.0591251469342D-01
85  8.4000000000000D-01  1.4086843739958D+00  7.7305068177968D-02
86  8.5000000000000D-01  1.4130327856374D+00  5.3273903928327D-02
87  8.6000000000000D-01  1.4125892079061D+00  3.4364610014206D-02
88  8.7000000000000D-01  1.4069926808581D+00  2.1074080629524D-02
89  8.8000000000000D-01  1.3959258786827D+00  1.3842992609108D-02
90  8.9000000000000D-01  1.3791203410551D+00  1.3048884430549D-02
91  9.0000000000000D-01  1.3563611761511D+00  1.8999935223458D-02
92  9.1000000000000D-01  1.3274911676697D+00  3.1929533235752D-02
93  9.2000000000000D-01  1.2924142252030D+00  5.1991713911428D-02
94  9.3000000000000D-01  1.2510981251273D+00  7.9257537327733D-02
95  9.4000000000000D-01  1.2035764977732D+00  1.1371246334965D-01
96  9.5000000000000D-01  1.1499500258477D+00  1.5525477062645D-01
97  9.6000000000000D-01  1.0903868288217D+00  2.0369505263185D-01
98  9.7000000000000D-01  1.0251220181206D+00  2.5875681052645D-01
99  9.8000000000000D-01  9.5445641853243D-01  3.2007814859081D-01
100  9.9000000000000D-01  8.7875446139385D-01  3.8721456452991D-01
101  1.0000000000000D+00  7.9844126622548D-01  4.5964281222501D-01
102  1.0100000000000D+00  7.1399893753391D-01  5.3676580119474D-01
103  1.0200000000000D+00  6.2596211382573D-01  6.1791848334853D-01
104  1.0300000000000D+00  5.3491281561160D-01  7.0237466472487D-01
105  1.0400000000000D+00  4.4147464858962D-01  7.8935466744805D-01
106  1.0500000000000D+00  3.4630642649412D-01  8.7803375615649D-01
107  1.0600000000000D+00  2.5009528623065D-01  9.6755123239437D-01
108  1.0700000000000D+00  1.5354937492573D-01  1.0570200911937D+00
109  1.0800000000000D+00  5.7390194391529D-02  1.1455371263163D+00
110  1.0900000000000D+00 -3.7655306309470D-02  1.2321933637823D+00
111  1.1000000000000D+00 -1.3086279589009D-01  1.3160846985369D+00
112  1.1100000000000D+00 -2.2151868604903D-01  1.3963226050362D+00
113  1.1200000000000D+00 -3.0892821809811D-01  1.4720447907629D+00
114  1.1300000000000D+00 -3.9242341200760D-01  1.5424256614109D+00
115  1.1400000000000D+00 -4.7137077992244D-01  1.6066864679099D+00
116  1.1500000000000D+00 -5.4517870772575D-01  1.6641050075137D+00
117  1.1600000000000D+00 -6.1330441235098D-01  1.7140247566884D+00
118  1.1700000000000D+00 -6.7526038713910D-01  1.7558633196633D+00
119  1.1800000000000D+00 -7.3062025262882D-01  1.7891200832901D+00
120  1.1900000000000D+00 -7.7902393675070D-01  1.8133829776230D+00
121  1.2000000000000D+00 -8.2018211703040D-01  1.8283342531166D+00
122  1.2100000000000D+00 -8.5387986725730D-01  1.8337551984320D+00
123  1.2200000000000D+00 -8.7997945479868D-01  1.8295297278008D+00
124  1.2300000000000D+00 -8.9842225207445D-01  1.8156467899256D+00
125  1.2400000000000D+00 -9.0922973362223D-01  1.7922015609114D+00
126  1.2500000000000D+00 -9.1250353734596D-01  1.7593953932366D+00
127  1.2600000000000D+00 -9.0842458487591D-01  1.7175345144673D+00
128  1.2700000000000D+00 -8.9725126805047D-01  1.6670274854551D+00
129  1.2800000000000D+00 -8.7931671342067D-01  1.6083814342541D+00
130  1.2900000000000D+00 -8.5502515341424D-01  1.5421971042075D+00
131  1.3000000000000D+00 -8.2484744629597D-01  1.4691627725658D+00
132  1.3100000000000D+00 -7.8931578778359D-01  1.3900470969577D+00
133  1.3200000000000D+00 -7.4901767626463D-01  1.3056909723604D+00
134  1.3300000000000D+00 -7.0458920312156D-01  1.2169984938898D+00
135  1.3400000000000D+00 -6.5670773713987D-01  1.1249271173772D+00
136  1.3500000000000D+00 -6.0608409430388D-01  1.0304771393098D+00
137  1.3600000000000D+00 -5.5345428215286D-01  9.3468061486580D-01
138  1.3700000000000D+00 -4.9957091145022D-01  8.3858983754216D-01
139  1.3800000000000D+00 -4.4519438183058D-01  7.4326552227637D-01
140  1.3900000000000D+00 -3.9108393989277D-01  6.4976482310584D-01
141  1.4000000000000D+00 -3.3798871951250D-01  5.5912933138963D-01
142  1.4100000000000D+00 -2.8663886645350D-01  4.7237319034951D-01
143  1.4200000000000D+00 -2.3773685716601D-01  3.9047147210863D-01
144  1.4300000000000D+00 -1.9194911158009D-01  3.1434894991972D-01
145  1.4400000000000D+00 -1.4989799927807D-01  2.4486939775586D-01
146  1.4500000000000D+00 -1.1215434267070D-01  1.8282555503539D-01
147  1.4600000000000D+00 -7.9239315953154D-02  1.2894418230719D-01
148  1.4700000000000D+00 -5.1592751007807D-02  8.3836385061961D-02
149  1.4800000000000D+00 -2.9465641632447D-02  4.7824999944674D-02
150  1.4900000000000D+00 -1.3419366970195D-02  2.1754980514560D-02
151  1.5000000000000D+00 -4.0150506294720D-03  6.4901207714272D-03
152  1.5100000000000D+00 -1.1796599050665D-04  1.7070463580998D-04
153  1.5200000000000D+00  4.7134956231684D-04 -7.7381482778309D-04
154  1.5300000000000D+00 -4.3599198927331D-05  7.1349455624953D-05
155  1.5400000000000D+00 -1.4041936297224D-04  2.2943702847898D-04
156  1.5500000000000D+00  1.5254482233328D-05 -2.5019417644355D-05
157  1.5600000000000D+00  2.2419332969745D-05 -3.6742532590846D-05
158  1.5700000000000D+00  2.2100710431095D-08  5.7285915642400D-09
159  1.5800000000000D+00  1.9585525741132D-08  5.0766457436589D-09
160  1.5900000000000D+00  0.0000000000000D+00  0.0000000000000D+00
161  1.6000000000000D+00  0.0000000000000D+00  0.0000000000000D+00
162  1.6100000000000D+00  0.0000000000000D+00  0.0000000000000D+00
163  1.6200000000000D+00  0.0000000000000D+00  0.0000000000000D+00
164  1.6300000000000D+00  0.0000000000000D+00  0.0000000000000D+00
165  1.6400000000000D+00  0.0000000000000D+00  0.0000000000000D+00
166  1.6500000000000D+00  0.0000000000000D+00  0.0000000000000D+00
167  1.6600000000000D+00  0.0000000000000D+00  0.0000000000000D+00
168  1.6700000000000D+00  0.0000000000000D+00  0.0000000000000D+00
169  1.6800000000000D+00  0.0000000000000D+00  0.0000000000000D+00
170  1.6900000000000D+00  0.0000000000000D+00  0.0000000000000D+00
171  1.7000000000000D+00  0.0000000000000D+00  0.0000000000000D+00
172  1.7100000000000D+00  0.0000000000000D+00  0.0000000000000D+00
173  1.7200000000000D+00  0.0000000000000D+00  0.0000000000000D+00
174  1.7300000000000D+00  0.0000000000000D+00  0.0000000000000D+00
175  1.7400000000000D+00  0.0000000000000D+00  0.0000000000000D+00
176  1.7500000000000D+00  0.0000000000000D+00  0.0000000000000D+00
177  1.7600000000000D+00  0.0000000000000D+00  0.0000000000000D+00
178  1.7700000000000D+00  0.0000000000000D+00  0.0000000000000D+00
179  1.7800000000000D+00  0.0000000000000D+00  0.0000000000000D+00
180  1.7900000000000D+00  0.0000000000000D+00  0.0000000000000D+00
181  1.8000000000000D+00  0.0000000000000D+00  0.0000000000000D+00
182  1.8100000000000D+00  0.0000000000000D+00  0.0000000000000D+00
183  1.8200000000000D+00  0.0000000000000D+00  0.0000000000000D+00
184  1.8300000000000D+00  0.0000000000000D+00  0.0000000000000D+00
185  1.8400000000000D+00  0.0000000000000D+00  0.0000000000000D+00
186  1.8500000000000D+00  0.0000000000000D+00  0.0000000000000D+00
187  1.8600000000000D+00  0.0000000000000D+00  0.0000000000000D+00
188  1.8700000000000D+00  0.0000000000000D+00  0.0000000000000D+00
189  1.8800000000000D+00  0.0000000000000D+00  0.0000000000000D+00
190  1.8900000000000D+00  0.0000000000000D+00  0.0000000000000D+00
191  1.9000000000000D+00  0.0000000000000D+00  0.0000000000000D+00
192  1.9100000000000D+00  0.0000000000000D+00  0.0000000000000D+00
193  1.9200000000000D+00  0.0000000000000D+00  0.0000000000000D+00
194  1.9300000000000D+00  0.0000000000000D+00  0.0000000000000D+00
195  1.9400000000000D+00  0.0000000000000D+00  0.0000000000000D+00
196  1.9500000000000D+00  0.0000000000000D+00  0.0000000000000D+00
197  1.9600000000000D+00  0.0000000000000D+00  0.0000000000000D+00
198  1.9700000000000D+00  0.0000000000000D+00  0.0000000000000D+00
199  1.9800000000000D+00  0.0000000000000D+00  0.0000000000000D+00
200  1.9900000000000D+00  0.0000000000000D+00  0.0000000000000D+00
201  2.0000000000000D+00  0.0000000000000D+00  0.0000000000000D+00
202  2.0100000000000D+00  0.0000000000000D+00  0.0000000000000D+00
203  2.0200000000000D+00  0.0000000000000D+00  0.0000000000000D+00
204  2.0300000000000D+00  0.0000000000000D+00  0.0000000000000D+00
205  2.0400000000000D+00  0.0000000000000D+00  0.0000000000000D+00
206  2.0500000000000D+00  0.0000000000000D+00  0.0000000000000D+00
207  2.0600000000000D+00  0.0000000000000D+00  0.0000000000000D+00
208  2.0700000000000D+00  0.0000000000000D+00  0.0000000000000D+00
209  2.0800000000000D+00  0.0000000000000D+00  0.0000000000000D+00
210  2.0900000000000D+00  0.0000000000000D+00  0.0000000000000D+00
211  2.1000000000000D+00  0.0000000000000D+00  0.0000000000000D+00
212  2.1100000000000D+00  0.0000000000000D+00  0.0000000000000D+00
213  2.1200000000000D+00  0.0000000000000D+00  0.0000000000000D+00
214  2.1300000000000D+00  0.0000000000000D+00  0.0000000000000D+00
215  2.1400000000000D+00  0.0000000000000D+00  0.0000000000000D+00
216  2.1500000000000D+00  0.0000000000000D+00  0.0000000000000D+00
217  2.1600000000000D+00  0.0000000000000D+00  0.0000000000000D+00
218  2.1700000000000D+00  0.0000000000000D+00  0.0000000000000D+00
219  2.1800000000000D+00  0.0000000000000D+00  0.0000000000000D+00
220  2.1900000000000D+00  0.0000000000000D+00  0.0000000000000D+00
221  2.2000000000000D+00  0.0000000000000D+00  0.0000000000000D+00
222  2.2100000000000D+00  0.0000000000000D+00  0.0000000000000D+00
223  2.2200000000000D+00  0.0000000000000D+00  0.0000000000000D+00
224  2.2300000000000D+00  0.0000000000000D+00  0.0000000000000D+00
225  2.2400000000000D+00  0.0000000000000D+00  0.0000000000000D+00
226  2.2500000000000D+00  0.0000000000000D+00  0.0000000000000D+00
227  2.2600000000000D+00  0.0000000000000D+00  0.0000000000000D+00
228  2.2700000000000D+00  0.0000000000000D+00  0.0000000000000D+00
229  2.2800000000000D+00  0.0000000000000D+00  0.0000000000000D+00
230  2.2900000000000D+00  0.0000000000000D+00  0.0000000000000D+00
231  2.3000000000000D+00  0.0000000000000D+00  0.0000000000000D+00
232  2.3100000000000D+00  0.0000000000000D+00  0.0000000000000D+00
233  2.3200000000000D+00  0.0000000000000D+00  0.0000000000000D+00
234  2.3300000000000D+00  0.0000000000000D+00  0.0000000000000D+00
235  2.3400000000000D+00  0.0000000000000D+00  0.0000000000000D+00
236  2.3500000000000D+00  0.0000000000000D+00  0.0000000000000D+00
237  2.3600000000000D+00  0.0000000000000D+00  0.0000000000000D+00
238  2.3700000000000D+00  0.0000000000000D+00  0.0000000000000D+00
239  2.3800000000000D+00  0.0000000000000D+00  0.0000000000000D+00
240  2.3900000000000D+00  0.0000000000000D+00  0.0000000000000D+00
241  2.4000000000000D+00  0.0000000000000D+00  0.0000000000000D+00
242  2.4100000000000D+00  0.0000000000000D+00  0.0000000000000D+00
243  2.4200000000000D+00  0.0000000000000D+00  0.0000000000000D+00
244  2.4300000000000D+00  0.0000000000000D+00  0.0000000000000D+00
245  2.4400000000000D+00  0.0000000000000D+00  0.0000000000000D+00
246  2.4500000000000D+00  0.0000000000000D+00  0.0000000000000D+00
247  2.4600000000000D+00  0.0000000000000D+00  0.0000000000000D+00
248  2.4700000000000D+00  0.0000000000000D+00  0.0000000000000D+00
249  2.4800000000000D+00  0.0000000000000D+00  0.0000000000000D+00
250  2.4900000000000D+00  0.0000000000000D+00  0.0000000000000D+00
251  2.5000000000000D+00  0.0000000000000D+00  0.0000000000000D+00
252  2.5100000000000D+00  0.0000000000000D+00  0.0000000000000D+00
253  2.5200000000000D+00  0.0000000000000D+00  0.0000000000000D+00
254  2.5300000000000D+00  0.0000000000000D+00  0.0000000000000D+00
255  2.5400000000000D+00  0.0000000000000D+00  0.0000000000000D+00
256  2.5500000000000D+00  0.0000000000000D+00  0.0000000000000D+00
257  2.5600000000000D+00  0.0000000000000D+00  0.0000000000000D+00
258  2.5700000000000D+00  0.0000000000000D+00  0.0000000000000D+00
259  2.5800000000000D+00  0.0000000000000D+00  0.0000000000000D+00
260  2.5900000000000D+00  0.0000000000000D+00  0.0000000000000D+00
261  2.6000000000000D+00  0.0000000000000D+00  0.0000000000000D+00
262  2.6100000000000D+00  0.0000000000000D+00  0.0000000000000D+00
263  2.6200000000000D+00  0.0000000000000D+00  0.0000000000000D+00
264  2.6300000000000D+00  0.0000000000000D+00  0.0000000000000D+00
265  2.6400000000000D+00  0.0000000000000D+00  0.0000000000000D+00
266  2.6500000000000D+00  0.0000000000000D+00  0.0000000000000D+00
267  2.6600000000000D+00  0.0000000000000D+00  0.0000000000000D+00
268  2.6700000000000D+00  0.0000000000000D+00  0.0000000000000D+00
269  2.6800000000000D+00  0.0000000000000D+00  0.0000000000000D+00
270  2.6900000000000D+00  0.0000000000000D+00  0.0000000000000D+00
271  2.7000000000000D+00  0.0000000000000D+00  0.0000000000000D+00
272  2.7100000000000D+00  0.0000000000000D+00  0.0000000000000D+00
273  2.7200000000000D+00  0.0000000000000D+00  0.0000000000000D+00
274  2.7300000000000D+00  0.0000000000000D+00  0.0000000000000D+00
275  2.7400000000000D+00  0.0000000000000D+00  0.0000000000000D+00
276  2.7500000000000D+00  0.0000000000000D+00  0.0000000000000D+00
277  2.7600000000000D+00  0.0000000000000D+00  0.0000000000000D+00
278  2.7700000000000D+00  0.0000000000000D+00  0.0000000000000D+00
279  2.7800000000000D+00  0.0000000000000D+00  0.0000000000000D+00
280  2.7900000000000D+00  0.0000000000000D+00  0.0000000000000D+00
281  2.8000000000000D+00  0.0000000000000D+00  0.0000000000000D+00
282  2.8100000000000D+00  0.0000000000000D+00  0.0000000000000D+00
283  2.8200000000000D+00  0.0000000000000D+00  0.0000000000000D+00
284  2.8300000000000D+00  0.0000000000000D+00  0.0000000000000D+00
285  2.8400000000000D+00  0.0000000000000D+00  0.0000000000000D+00
286  2.8500000000000D+00  0.0000000000000D+00  0.0000000000000D+00
287  2.8600000000000D+00  0.0000000000000D+00  0.0000000000000D+00
288  2.8700000000000D+00  0.0000000000000D+00  0.0000000000000D+00
289  2.8800000000000D+00  0.0000000000000D+00  0.0000000000000D+00
290  2.8900000000000D+00  0.0000000000000D+00  0.0000000000000D+00
291  2.9000000000000D+00  0.0000000000000D+00  0.0000000000000D+00
292  2.9100000000000D+00  0.0000000000000D+00  0.0000000000000D+00
293  2.9200000000000D+00  0.0000000000000D+00  0.0000000000000D+00
294  2.9300000000000D+00  0.0000000000000D+00  0.0000000000000D+00
295  2.9400000000000D+00  0.0000000000000D+00  0.0000000000000D+00
296  2.9500000000000D+00  0.0000000000000D+00  0.0000000000000D+00
297  2.9600000000000D+00  0.0000000000000D+00  0.0000000000000D+00
298  2.9700000000000D+00  0.0000000000000D+00  0.0000000000000D+00
299  2.9800000000000D+00  0.0000000000000D+00  0.0000000000000D+00
300  2.9900000000000D+00  0.0000000000000D+00  0.0000000000000D+00
301  3.0000000000000D+00  0.0000000000000D+00  0.0000000000000D+00
302  3.0100000000000D+00  0.0000000000000D+00  0.0000000000000D+00
303  3.0200000000000D+00  0.0000000000000D+00  0.0000000000000D+00
304  3.0300000000000D+00  0.0000000000000D+00  0.0000000000000D+00
305  3.0400000000000D+00  0.0000000000000D+00  0.0000000000000D+00
306  3.0500000000000D+00  0.0000000000000D+00  0.0000000000000D+00
307  3.0600000000000D+00  0.0000000000000D+00  0.0000000000000D+00
308  3.0700000000000D+00  0.0000000000000D+00  0.0000000000000D+00
309  3.0800000000000D+00  0.0000000000000D+00  0.0000000000000D+00
310  3.0900000000000D+00  0.0000000000000D+00  0.0000000000000D+00
311  3.1000000000000D+00  0.0000000000000D+00  0.0000000000000D+00
312  3.1100000000000D+00  0.0000000000000D+00  0.0000000000000D+00
313  3.1200000000000D+00  0.0000000000000D+00  0.0000000000000D+00
314  3.1300000000000D+00  0.0000000000000D+00  0.0000000000000D+00
315  3.1400000000000D+00  0.0000000000000D+00  0.0000000000000D+00
316  3.1500000000000D+00  0.0000000000000D+00  0.0000000000000D+00
317  3.1600000000000D+00  0.0000000000000D+00  0.0000000000000D+00
318  3.1700000000000D+00  0.0000000000000D+00  0.0000000000000D+00
319  3.1800000000000D+00  0.0000000000000D+00  0.0000000000000D+00
320  3.1900000000000D+00  0.0000000000000D+00  0.0000000000000D+00
321  3.2000000000000D+00  0.0000000000000D+00  0.0000000000000D+00
322  3.2100000000000D+00  0.0000000000000D+00  0.0000000000000D+00
323  3.2200000000000D+00  0.0000000000000D+00  0.0000000000000D+00
324  3.2300000000000D+00  0.0000000000000D+00  0.0000000000000D+00
325  3.2400000000000D+00  0.0000000000000D+00  0.0000000000000D+00
326  3.2500000000000D+00  0.0000000000000D+00  0.0000000000000D+00
327  3.2600000000000D+00  0.0000000000000D+00  0.0000000000000D+00
328  3.2700000000000D+00  0.0000000000000D+00  0.0000000000000D+00
329  3.2800000000000D+00  0.0000000000000D+00  0.0000000000000D+00
330  3.2900000000000D+00  0.0000000000000D+00  0.0000000000000D+00
331  3.3000000000000D+00  0.0000000000000D+00  0.0000000000000D+00
332  3.3100000000000D+00  0.0000000000000D+00  0.0000000000000D+00
333  3.3200000000000D+00  0.0000000000000D+00  0.0000000000000D+00
334  3.3300000000000D+00  0.0000000000000D+00  0.0000000000000D+00
335  3.3400000000000D+00  0.0000000000000D+00  0.0000000000000D+00
336  3.3500000000000D+00  0.0000000000000D+00  0.0000000000000D+00
337  3.3600000000000D+00  0.0000000000000D+00  0.0000000000000D+00
338  3.3700000000000D+00  0.0000000000000D+00  0.0000000000000D+00
339  3.3800000000000D+00  0.0000000000000D+00  0.0000000000000D+00
340  3.3900000000000D+00  0.0000000000000D+00  0.0000000000000D+00
341  3.4000000000000D+00  0.0000000000000D+00  0.0000000000000D+00
342  3.4100000000000D+00  0.0000000000000D+00  0.0000000000000D+00
343  3.4200000000000D+00  0.0000000000000D+00  0.0000000000000D+00
344  3.4300000000000D+00  0.0000000000000D+00  0.0000000000000D+00
345  3.4400000000000D+00  0.0000000000000D+00  0.0000000000000D+00
346  3.4500000000000D+00  0.0000000000000D+00  0.0000000000000D+00
347  3.4600000000000D+00  0.0000000000000D+00  0.0000000000000D+00
348  3.4700000000000D+00  0.0000000000000D+00  0.0000000000000D+00
349  3.4800000000000D+00  0.0000000000000D+00  0.0000000000000D+00
350  3.4900000000000D+00  0.0000000000000D+00  0.0000000000000D+00
351  3.5000000000000D+00  0.0000000000000D+00  0.0000000000000D+00
352  3.5100000000000D+00  0.0000000000000D+00  0.0000000000000D+00
353  3.5200000000000D+00  0.0000000000000D+00  0.0000000000000D+00
354  3.5300000000000D+00  0.0000000000000D+00  0.0000000000000D+00
355  3.5400000000000D+00  0.0000000000000D+00  0.0000000000000D+00
356  3.5500000000000D+00  0.0000000000000D+00  0.0000000000000D+00
357  3.5600000000000D+00  0.0000000000000D+00  0.0000000000000D+00
358  3.5700000000000D+00  0.0000000000000D+00  0.0000000000000D+00
359  3.5800000000000D+00  0.0000000000000D+00  0.0000000000000D+00
360  3.5900000000000D+00  0.0000000000000D+00  0.0000000000000D+00
361  3.6000000000000D+00  0.0000000000000D+00  0.0000000000000D+00
362  3.6100000000000D+00  0.0000000000000D+00  0.0000000000000D+00
363  3.6200000000000D+00  0.0000000000000D+00  0.0000000000000D+00
364  3.6300000000000D+00  0.0000000000000D+00  0.0000000000000D+00
365  3.6400000000000D+00  0.0000000000000D+00  0.0000000000000D+00
366  3.6500000000000D+00  0.0000000000000D+00  0.0000000000000D+00
367  3.6600000000000D+00  0.0000000000000D+00  0.0000000000000D+00
368  3.6700000000000D+00  0.0000000000000D+00  0.0000000000000D+00
369  3.6800000000000D+00  0.0000000000000D+00  0.0000000000000D+00
370  3.6900000000000D+00  0.0000000000000D+00  0.0000000000000D+00
371  3.7000000000000D+00  0.0000000000000D+00  0.0000000000000D+00
372  3.7100000000000D+00  0.0000000000000D+00  0.0000000000000D+00
373  3.7200000000000D+00  0.0000000000000D+00  0.0000000000000D+00
374  3.7300000000000D+00  0.0000000000000D+00  0.0000000000000D+00
375  3.7400000000000D+00  0.0000000000000D+00  0.0000000000000D+00
376  3.7500000000000D+00  0.0000000000000D+00  0.0000000000000D+00
377  3.7600000000000D+00  0.0000000000000D+00  0.0000000000000D+00
378  3.7700000000000D+00  0.0000000000000D+00  0.0000000000000D+00
379  3.7800000000000D+00  0.0000000000000D+00  0.0000000000000D+00
380  3.7900000000000D+00  0.0000000000000D+00  0.0000000000000D+00
381  3.8000000000000D+00  0.0000000000000D+00  0.0000000000000D+00
382  3.8100000000000D+00  0.0000000000000D+00  0.0000000000000D+00
383  3.8200000000000D+00  0.0000000000000D+00  0.0000000000000D+00
384  3.8300000000000D+00  0.0000000000000D+00  0.0000000000000D+00
385  3.8400000000000D+00  0.0000000000000D+00  0.0000000000000D+00
386  3.8500000000000D+00  0.0000000000000D+00  0.0000000000000D+00
387  3.8600000000000D+00  0.0000000000000D+00  0.0000000000000D+00
388  3.8700000000000D+00  0.0000000000000D+00  0.0000000000000D+00
389  3.8800000000000D+00  0.0000000000000D+00  0.0000000000000D+00
390  3.8900000000000D+00  0.0000000000000D+00  0.0000000000000D+00
391  3.9000000000000D+00  0.0000000000000D+00  0.0000000000000D+00
392  3.9100000000000D+00  0.0000000000000D+00  0.0000000000000D+00
393  3.9200000000000D+00  0.0000000000000D+00  0.0000000000000D+00
394  3.9300000000000D+00  0.0000000000000D+00  0.0000000000000D+00
395  3.9400000000000D+00  0.0000000000000D+00  0.0000000000000D+00
396  3.9500000000000D+00  0.0000000000000D+00  0.0000000000000D+00
397  3.9600000000000D+00  0.0000000000000D+00  0.0000000000000D+00
398  3.9700000000000D+00  0.0000000000000D+00  0.0000000000000D+00
399  3.9800000000000D+00  0.0000000000000D+00  0.0000000000000D+00
400  3.9900000000000D+00  0.0000000000000D+00  0.0000000000000D+00
1                        -1.1052033750734D+00
1  0.0000000000000D+00  4.6291782906938D-10
2  1.0000000000000D-02 -7.0853162857367D-04
3  2.0000000000000D-02 -2.8336933289284D-03
4  3.0000000000000D-02 -6.3741700343307D-03
5  4.0000000000000D-02 -1.1327718523967D-02
6  5.0000000000000D-02 -1.7691091162494D-02
7  6.0000000000000D-02 -2.5459930930526D-02
8  7.0000000000000D-02 -3.4628639511845D-02
9  8.0000000000000D-02 -4.5190220665994D-02
10  9.0000000000000D-02 -5.7136101547460D-02
11  1.0000000000000D-01 -7.0455935028733D-02
12  1.1000000000000D-01 -8.5137386438842D-02
13  1.2000000000000D-01 -1.0116590843635D-01
14  1.3000000000000D-01 -1.1852450799225D-01
15  1.4000000000000D-01 -1.3719350965955D-01
16  1.5000000000000D-01 -1.5715031945040D-01
17  1.6000000000000D-01 -1.7836919372523D-01
18  1.7000000000000D-01 -2.0082101752101D-01
19  1.8000000000000D-01 -2.2447309670615D-01
20  1.9000000000000D-01 -2.4928896824846D-01
21  2.0000000000000D-01 -2.7522823272029D-01
22  2.1000000000000D-01 -3.0224641294426D-01
23  2.2000000000000D-01 -3.3029484240518D-01
24  2.3000000000000D-01 -3.5932058672392D-01
25  2.4000000000000D-01 -3.8926640110864D-01
26  2.5000000000000D-01 -4.2007072627604D-01
27  2.6000000000000D-01 -4.5166772487154D-01
28  2.7000000000000D-01 -4.8398735992201D-01
29  2.8000000000000D-01 -5.1695551633148D-01
30  2.9000000000000D-01 -5.5049416588719D-01
31  3.0000000000000D-01 -5.8452157568719D-01
32  3.1000000000000D-01 -6.1895255933808D-01
33  3.2000000000000D-01 -6.5369876971064D-01
34  3.3000000000000D-01 -6.8866903148809D-01
35  3.4000000000000D-01 -7.2376971120544D-01
36  3.5000000000000D-01 -7.5890512196407D-01
37  3.6000000000000D-01 -7.9397795952190D-01
38  3.7000000000000D-01 -8.2888976601145D-01
39  3.8000000000000D-01 -8.6354141713256D-01
40  3.9000000000000D-01 -8.9783362830894D-01
41  4.0000000000000D-01 -9.3166747499286D-01
42  4.1000000000000D-01 -9.6494492205460D-01
43  4.2000000000000D-01 -9.9756935700680D-01
44  4.3000000000000D-01 -1.0294461216904D+00
45  4.4000000000000D-01 -1.0604830369922D+00
46  4.5000000000000D-01 -1.0905909151730D+00
47  4.6000000000000D-01 -1.1196840544643D+00
48  4.7000000000000D-01 -1.1476807107330D+00
49  4.8000000000000D-01 -1.1745035412283D+00
50  4.9000000000000D-01 -1.2000800156920D+00
51  5.0000000000000D-01 -1.2243427904561D+00
52  5.1000000000000D-01 -1.2472300415344D+00
53  5.2000000000000D-01 -1.2686857531645D+00
54  5.3000000000000D-01 -1.2886599587456D+00
55  5.4000000000000D-01 -1.3071089316475D+00
56  5.5000000000000D-01 -1.3239953239363D+00
57  5.6000000000000D-01 -1.3392882516567D+00
58  5.7000000000000D-01 -1.3529633259255D+00
59  5.8000000000000D-01 -1.3650026297210D+00
60  5.9000000000000D-01 -1.3753946408887D+00
61  6.0000000000000D-01 -1.3841341025143D+00
62  6.1000000000000D-01 -1.3912218424366D+00
63  6.2000000000000D-01 -1.3966645442778D+00
64  6.3000000000000D-01 -1.4004744729442D+00