Be    ONCVPSP  r_core=  1.20  1.06
4.0000      4.0000      151028    zatom,zion,pspd
8      11   1     4   400     0    pspcod,pspxc,lmax,lloc,mmax,r2well
3.99000000  0.00000000  0.00000000    rchrg fchrg qchrg
2     2     0     0     0    nproj
0                 extension_switch
0                        -8.4250298227928D+00 -2.9998414744656D+00
1  0.0000000000000D+00 -1.4097567557769D-10  9.8194896658299D-11
2  1.0000000000000D-02  1.2037355062376D-01 -4.8252921129440D-02
3  2.0000000000000D-02  2.4024719613946D-01 -9.6027527301696D-02
4  3.0000000000000D-02  3.5912354434919D-01 -1.4284862194520D-01
5  4.0000000000000D-02  4.7651021651469D-01 -1.8824722900792D-01
6  5.0000000000000D-02  5.9192232321972D-01 -2.3176366260917D-01
7  6.0000000000000D-02  7.0488490328722D-01 -2.7295054802317D-01
8  7.0000000000000D-02  8.1493531359767D-01 -3.1137577787709D-01
9  8.0000000000000D-02  9.2162555779561D-01 -3.4662538754500D-01
10  9.0000000000000D-02  1.0245245420512D+00 -3.7830633385081D-01
11  1.0000000000000D-01  1.1232202462634D+00 -4.0604916136518D-01
12  1.1000000000000D-01  1.2173217993561D+00 -4.2951054079961D-01
13  1.2000000000000D-01  1.3064614476244D+00 -4.4837566427268D-01
14  1.3000000000000D-01  1.3902964054494D+00 -4.6236048255719D-01
15  1.4000000000000D-01  1.4685105781059D+00 -4.7121376982081D-01
16  1.5000000000000D-01  1.5408161468489D+00 -4.7471900185461D-01
17  1.6000000000000D-01  1.6069550069860D+00 -4.7269603435271D-01
18  1.7000000000000D-01  1.6667000502174D+00 -4.6500256846902D-01
19  1.8000000000000D-01  1.7198562831641D+00 -4.5153539164208D-01
20  1.9000000000000D-01  1.7662617747051D+00 -4.3223138255163D-01
21  2.0000000000000D-01  1.8057884255047D+00 -4.0706827005712D-01
22  2.1000000000000D-01  1.8383425539414D+00 -3.7606513707272D-01
23  2.2000000000000D-01  1.8638652935341D+00 -3.3928266155771D-01
24  2.3000000000000D-01  1.8823327979146D+00 -2.9682308814776D-01
25  2.4000000000000D-01  1.8937562504052D+00 -2.4882992541899D-01
26  2.5000000000000D-01  1.8981816763254D+00 -1.9548736536226D-01
27  2.6000000000000D-01  1.8956895572725D+00 -1.3701942334271D-01
28  2.7000000000000D-01  1.8863942477860D+00 -7.3688798624862D-02
29  2.8000000000000D-01  1.8704431960149D+00 -5.7954574450078D-03
30  2.9000000000000D-01  1.8480159712504D+00  6.6325057398964D-02
31  3.0000000000000D-01  1.8193231024536D+00  1.4230358440969D-01
32  3.1000000000000D-01  1.7846047331988D+00  2.2173956055592D-01
33  3.2000000000000D-01  1.7441290997465D+00  3.0420348743574D-01
34  3.3000000000000D-01  1.6981908402540D+00  3.8923963395391D-01
35  3.4000000000000D-01  1.6471091444107D+00  4.7636896085322D-01
36  3.5000000000000D-01  1.5912257540419D+00  5.6509225028630D-01
37  3.6000000000000D-01  1.5309028264389D+00  6.5489342150803D-01
38  3.7000000000000D-01  1.4665206733408D+00  7.4524301173467D-01
39  3.8000000000000D-01  1.3984753895975D+00  8.3560179927834D-01
40  3.9000000000000D-01  1.3271763865694D+00  9.2542454425151D-01
41  4.0000000000000D-01  1.2530438462594D+00  1.0141638204704D+00
42  4.1000000000000D-01  1.1765061130093D+00  1.1012739106946D+00
43  4.2000000000000D-01  1.0979970403171D+00  1.1862147360451D+00
44  4.3000000000000D-01  1.0179533109341D+00  1.2684557893748D+00
45  4.4000000000000D-01  9.3681174886289D-01  1.3474800415306D+00
46  4.5000000000000D-01  8.5500664220221D-01  1.4227877888882D+00
47  4.6000000000000D-01  7.7296709595027D-01  1.4939004102508D+00
48  4.7000000000000D-01  6.9111443389084D-01  1.5603640012175D+00
49  4.8000000000000D-01  6.0985966852926D-01  1.6217528544473D+00
50  4.9000000000000D-01  5.2960105772257D-01  1.6776727548794D+00
51  5.0000000000000D-01  4.5072176615385D-01  1.7277640599337D+00
52  5.1000000000000D-01  3.7358764913520D-01  1.7717045359969D+00
53  5.2000000000000D-01  2.9854517538938D-01  1.8092119241064D+00
54  5.3000000000000D-01  2.2591950445941D-01  1.8400462096681D+00
55  5.4000000000000D-01  1.5601273323559D-01  1.8640115732712D+00
56  5.5000000000000D-01  8.9102324774482D-02  1.8809580021854D+00
57  5.6000000000000D-01  2.5439731129295D-02  1.8907825449201D+00
58  5.7000000000000D-01 -3.4750779678801D-02  1.8934301942683D+00
59  5.8000000000000D-01 -9.1273084126411D-02  1.8888943875361D+00
60  5.9000000000000D-01 -1.4395994447922D-01  1.8772171161180D+00
61  6.0000000000000D-01 -1.9267352619795D-01  1.8584886402164D+00
62  6.1000000000000D-01 -2.3730568871619D-01  1.8328468082586D+00
63  6.2000000000000D-01 -2.7777804886464D-01  1.8004759844086D+00
64  6.3000000000000D-01 -3.1404181827229D-01  1.7616055914793D+00
65  6.4000000000000D-01 -3.4607741812404D-01  1.7165082804303D+00
66  6.5000000000000D-01 -3.7389387671151D-01  1.6654977415222D+00
67  6.6000000000000D-01 -3.9752801722324D-01  1.6089261759695D+00
68  6.7000000000000D-01 -4.1704344517218D-01  1.5471814505822D+00
69  6.8000000000000D-01 -4.3252934674810D-01  1.4806839613837D+00
70  6.9000000000000D-01 -4.4409911115645D-01  1.4098832354551D+00
71  7.0000000000000D-01 -4.5188879166840D-01  1.3352543032690D+00
72  7.1000000000000D-01 -4.5605542162810D-01  1.2572938764961D+00
73  7.2000000000000D-01 -4.5677520303243D-01  1.1765163686610D+00
74  7.3000000000000D-01 -4.5424158648640D-01  1.0934497980394D+00
75  7.4000000000000D-01 -4.4866326234303D-01  1.0086316138211D+00
76  7.5000000000000D-01 -4.4026208363738D-01  9.2260448777021D-01
77  7.6000000000000D-01 -4.2927094201457D-01  8.3591211438110D-01
78  7.7000000000000D-01 -4.1593161822194D-01  7.4909506284018D-01
79  7.8000000000000D-01 -4.0049262887749D-01  6.6268672394642D-01
80  7.9000000000000D-01 -3.8320709114114D-01  5.7720939451447D-01
81  8.0000000000000D-01 -3.6433062659907D-01  4.9317054068478D-01
82  8.1000000000000D-01 -3.4411932512725D-01  4.1105928000040D-01
83  8.2000000000000D-01 -3.2282778873375D-01  3.3134312009251D-01
84  8.3000000000000D-01 -3.0070727439704D-01  2.5446498936534D-01
85  8.4000000000000D-01 -2.7800395373093D-01  1.8084059220905D-01
86  8.5000000000000D-01 -2.5495730592765D-01  1.1085611802480D-01
87  8.6000000000000D-01 -2.3179865887472D-01  4.4866329755264D-02
88  8.7000000000000D-01 -2.0874989162643D-01 -1.6806946286784D-02
89  8.8000000000000D-01 -1.8602230955542D-01 -7.3875911665004D-02
90  8.9000000000000D-01 -1.6381570153628D-01 -1.2608745489969D-01
91  9.0000000000000D-01 -1.4231758644381D-01 -1.7322336969464D-01
92  9.1000000000000D-01 -1.2170265410717D-01 -2.1510012829520D-01
93  9.2000000000000D-01 -1.0213240367325D-01 -2.5156821069642D-01
94  9.3000000000000D-01 -8.3754982679216D-02 -2.8251098674884D-01
95  9.4000000000000D-01 -6.6705213951885D-02 -3.0784319965488D-01
96  9.5000000000000D-01 -5.1104804007567D-02 -3.2750906962613D-01
97  9.6000000000000D-01 -3.7062850942260D-02 -3.4147964271702D-01
98  9.7000000000000D-01 -2.4675372522384D-02 -3.4975357700687D-01
99  9.8000000000000D-01 -1.4019984768937D-02 -3.5237387551204D-01
100  9.9000000000000D-01 -5.1456209955191D-03 -3.4946003163830D-01
101  1.0000000000000D+00  1.9338998038354D-03 -3.4122665011744D-01
102  1.0100000000000D+00  7.2455012593837D-03 -3.2799898973263D-01
103  1.0200000000000D+00  1.0862178546999D-02 -3.1022733417741D-01
104  1.0300000000000D+00  1.2906593296663D-02 -2.8849570561933D-01
105  1.0400000000000D+00  1.3551838109704D-02 -2.6352173891231D-01
106  1.0500000000000D+00  1.3018190274299D-02 -2.3614434752180D-01
107  1.0600000000000D+00  1.1564912830992D-02 -2.0729664716768D-01
108  1.0700000000000D+00  9.4767961209523D-03 -1.7796359886703D-01
109  1.0800000000000D+00  7.0460328806294D-03 -1.4912655978658D-01
110  1.0900000000000D+00  4.5511009337699D-03 -1.2170009721962D-01
111  1.1000000000000D+00  2.2351977445159D-03 -9.6468892365112D-02
112  1.1100000000000D+00  2.8751147833070D-04 -7.4034521467870D-02
113  1.1200000000000D+00 -1.1696699353265D-03 -5.4780758157675D-02
114  1.1300000000000D+00 -2.0860111745336D-03 -3.8862849404219D-02
115  1.1400000000000D+00 -2.4796554481166D-03 -2.6222196133886D-02
116  1.1500000000000D+00 -2.4262253005484D-03 -1.6622800944882D-02
117  1.1600000000000D+00 -2.0429292355110D-03 -9.7012404557771D-03
118  1.1700000000000D+00 -1.4715090892579D-03 -5.0222225098801D-03
119  1.1800000000000D+00 -8.5267939204959D-04 -2.1229371652700D-03
120  1.1900000000000D+00 -3.4144992024874D-04 -5.7633423874397D-04
121  1.2000000000000D+00 -6.7558273196728D-05  5.1016209799017D-06
122  1.2100000000000D+00  8.3171077521647D-06  6.7670474162568D-05
123  1.2200000000000D+00 -1.2180645881556D-06 -5.7879747280154D-06
124  1.2300000000000D+00 -2.3418205386313D-06 -8.9333288687290D-06
125  1.2400000000000D+00  5.1390569329113D-07  3.5156501475941D-06
126  1.2500000000000D+00  2.0780693704918D-08 -8.6637079859304D-08
127  1.2600000000000D+00  2.7669241293781D-08 -1.1535621965538D-07
128  1.2700000000000D+00  0.0000000000000D+00  0.0000000000000D+00
129  1.2800000000000D+00  0.0000000000000D+00  0.0000000000000D+00
130  1.2900000000000D+00  0.0000000000000D+00  0.0000000000000D+00
131  1.3000000000000D+00  0.0000000000000D+00  0.0000000000000D+00
132  1.3100000000000D+00  0.0000000000000D+00  0.0000000000000D+00
133  1.3200000000000D+00  0.0000000000000D+00  0.0000000000000D+00
134  1.3300000000000D+00  0.0000000000000D+00  0.0000000000000D+00
135  1.3400000000000D+00  0.0000000000000D+00  0.0000000000000D+00
136  1.3500000000000D+00  0.0000000000000D+00  0.0000000000000D+00
137  1.3600000000000D+00  0.0000000000000D+00  0.0000000000000D+00
138  1.3700000000000D+00  0.0000000000000D+00  0.0000000000000D+00
139  1.3800000000000D+00  0.0000000000000D+00  0.0000000000000D+00
140  1.3900000000000D+00  0.0000000000000D+00  0.0000000000000D+00
141  1.4000000000000D+00  0.0000000000000D+00  0.0000000000000D+00
142  1.4100000000000D+00  0.0000000000000D+00  0.0000000000000D+00
143  1.4200000000000D+00  0.0000000000000D+00  0.0000000000000D+00
144  1.4300000000000D+00  0.0000000000000D+00  0.0000000000000D+00
145  1.4400000000000D+00  0.0000000000000D+00  0.0000000000000D+00
146  1.4500000000000D+00  0.0000000000000D+00  0.0000000000000D+00
147  1.4600000000000D+00  0.0000000000000D+00  0.0000000000000D+00
148  1.4700000000000D+00  0.0000000000000D+00  0.0000000000000D+00
149  1.4800000000000D+00  0.0000000000000D+00  0.0000000000000D+00
150  1.4900000000000D+00  0.0000000000000D+00  0.0000000000000D+00
151  1.5000000000000D+00  0.0000000000000D+00  0.0000000000000D+00
152  1.5100000000000D+00  0.0000000000000D+00  0.0000000000000D+00
153  1.5200000000000D+00  0.0000000000000D+00  0.0000000000000D+00
154  1.5300000000000D+00  0.0000000000000D+00  0.0000000000000D+00
155  1.5400000000000D+00  0.0000000000000D+00  0.0000000000000D+00
156  1.5500000000000D+00  0.0000000000000D+00  0.0000000000000D+00
157  1.5600000000000D+00  0.0000000000000D+00  0.0000000000000D+00
158  1.5700000000000D+00  0.0000000000000D+00  0.0000000000000D+00
159  1.5800000000000D+00  0.0000000000000D+00  0.0000000000000D+00
160  1.5900000000000D+00  0.0000000000000D+00  0.0000000000000D+00
161  1.6000000000000D+00  0.0000000000000D+00  0.0000000000000D+00
162  1.6100000000000D+00  0.0000000000000D+00  0.0000000000000D+00
163  1.6200000000000D+00  0.0000000000000D+00  0.0000000000000D+00
164  1.6300000000000D+00  0.0000000000000D+00  0.0000000000000D+00
165  1.6400000000000D+00  0.0000000000000D+00  0.0000000000000D+00
166  1.6500000000000D+00  0.0000000000000D+00  0.0000000000000D+00
167  1.6600000000000D+00  0.0000000000000D+00  0.0000000000000D+00
168  1.6700000000000D+00  0.0000000000000D+00  0.0000000000000D+00
169  1.6800000000000D+00  0.0000000000000D+00  0.0000000000000D+00
170  1.6900000000000D+00  0.0000000000000D+00  0.0000000000000D+00
171  1.7000000000000D+00  0.0000000000000D+00  0.0000000000000D+00
172  1.7100000000000D+00  0.0000000000000D+00  0.0000000000000D+00
173  1.7200000000000D+00  0.0000000000000D+00  0.0000000000000D+00
174  1.7300000000000D+00  0.0000000000000D+00  0.0000000000000D+00
175  1.7400000000000D+00  0.0000000000000D+00  0.0000000000000D+00
176  1.7500000000000D+00  0.0000000000000D+00  0.0000000000000D+00
177  1.7600000000000D+00  0.0000000000000D+00  0.0000000000000D+00
178  1.7700000000000D+00  0.0000000000000D+00  0.0000000000000D+00
179  1.7800000000000D+00  0.0000000000000D+00  0.0000000000000D+00
180  1.7900000000000D+00  0.0000000000000D+00  0.0000000000000D+00
181  1.8000000000000D+00  0.0000000000000D+00  0.0000000000000D+00
182  1.8100000000000D+00  0.0000000000000D+00  0.0000000000000D+00
183  1.8200000000000D+00  0.0000000000000D+00  0.0000000000000D+00
184  1.8300000000000D+00  0.0000000000000D+00  0.0000000000000D+00
185  1.8400000000000D+00  0.0000000000000D+00  0.0000000000000D+00
186  1.8500000000000D+00  0.0000000000000D+00  0.0000000000000D+00
187  1.8600000000000D+00  0.0000000000000D+00  0.0000000000000D+00
188  1.8700000000000D+00  0.0000000000000D+00  0.0000000000000D+00
189  1.8800000000000D+00  0.0000000000000D+00  0.0000000000000D+00
190  1.8900000000000D+00  0.0000000000000D+00  0.0000000000000D+00
191  1.9000000000000D+00  0.0000000000000D+00  0.0000000000000D+00
192  1.9100000000000D+00  0.0000000000000D+00  0.0000000000000D+00
193  1.9200000000000D+00  0.0000000000000D+00  0.0000000000000D+00
194  1.9300000000000D+00  0.0000000000000D+00  0.0000000000000D+00
195  1.9400000000000D+00  0.0000000000000D+00  0.0000000000000D+00
196  1.9500000000000D+00  0.0000000000000D+00  0.0000000000000D+00
197  1.9600000000000D+00  0.0000000000000D+00  0.0000000000000D+00
198  1.9700000000000D+00  0.0000000000000D+00  0.0000000000000D+00
199  1.9800000000000D+00  0.0000000000000D+00  0.0000000000000D+00
200  1.9900000000000D+00  0.0000000000000D+00  0.0000000000000D+00
201  2.0000000000000D+00  0.0000000000000D+00  0.0000000000000D+00
202  2.0100000000000D+00  0.0000000000000D+00  0.0000000000000D+00
203  2.0200000000000D+00  0.0000000000000D+00  0.0000000000000D+00
204  2.0300000000000D+00  0.0000000000000D+00  0.0000000000000D+00
205  2.0400000000000D+00  0.0000000000000D+00  0.0000000000000D+00
206  2.0500000000000D+00  0.0000000000000D+00  0.0000000000000D+00
207  2.0600000000000D+00  0.0000000000000D+00  0.0000000000000D+00
208  2.0700000000000D+00  0.0000000000000D+00  0.0000000000000D+00
209  2.0800000000000D+00  0.0000000000000D+00  0.0000000000000D+00
210  2.0900000000000D+00  0.0000000000000D+00  0.0000000000000D+00
211  2.1000000000000D+00  0.0000000000000D+00  0.0000000000000D+00
212  2.1100000000000D+00  0.0000000000000D+00  0.0000000000000D+00
213  2.1200000000000D+00  0.0000000000000D+00  0.0000000000000D+00
214  2.1300000000000D+00  0.0000000000000D+00  0.0000000000000D+00
215  2.1400000000000D+00  0.0000000000000D+00  0.0000000000000D+00
216  2.1500000000000D+00  0.0000000000000D+00  0.0000000000000D+00
217  2.1600000000000D+00  0.0000000000000D+00  0.0000000000000D+00
218  2.1700000000000D+00  0.0000000000000D+00  0.0000000000000D+00
219  2.1800000000000D+00  0.0000000000000D+00  0.0000000000000D+00
220  2.1900000000000D+00  0.0000000000000D+00  0.0000000000000D+00
221  2.2000000000000D+00  0.0000000000000D+00  0.0000000000000D+00
222  2.2100000000000D+00  0.0000000000000D+00  0.0000000000000D+00
223  2.2200000000000D+00  0.0000000000000D+00  0.0000000000000D+00
224  2.2300000000000D+00  0.0000000000000D+00  0.0000000000000D+00
225  2.2400000000000D+00  0.0000000000000D+00  0.0000000000000D+00
226  2.2500000000000D+00  0.0000000000000D+00  0.0000000000000D+00
227  2.2600000000000D+00  0.0000000000000D+00  0.0000000000000D+00
228  2.2700000000000D+00  0.0000000000000D+00  0.0000000000000D+00
229  2.2800000000000D+00  0.0000000000000D+00  0.0000000000000D+00
230  2.2900000000000D+00  0.0000000000000D+00  0.0000000000000D+00
231  2.3000000000000D+00  0.0000000000000D+00  0.0000000000000D+00
232  2.3100000000000D+00  0.0000000000000D+00  0.0000000000000D+00
233  2.3200000000000D+00  0.0000000000000D+00  0.0000000000000D+00
234  2.3300000000000D+00  0.0000000000000D+00  0.0000000000000D+00
235  2.3400000000000D+00  0.0000000000000D+00  0.0000000000000D+00
236  2.3500000000000D+00  0.0000000000000D+00  0.0000000000000D+00
237  2.3600000000000D+00  0.0000000000000D+00  0.0000000000000D+00
238  2.3700000000000D+00  0.0000000000000D+00  0.0000000000000D+00
239  2.3800000000000D+00  0.0000000000000D+00  0.0000000000000D+00
240  2.3900000000000D+00  0.0000000000000D+00  0.0000000000000D+00
241  2.4000000000000D+00  0.0000000000000D+00  0.0000000000000D+00
242  2.4100000000000D+00  0.0000000000000D+00  0.0000000000000D+00
243  2.4200000000000D+00  0.0000000000000D+00  0.0000000000000D+00
244  2.4300000000000D+00  0.0000000000000D+00  0.0000000000000D+00
245  2.4400000000000D+00  0.0000000000000D+00  0.0000000000000D+00
246  2.4500000000000D+00  0.0000000000000D+00  0.0000000000000D+00
247  2.4600000000000D+00  0.0000000000000D+00  0.0000000000000D+00
248  2.4700000000000D+00  0.0000000000000D+00  0.0000000000000D+00
249  2.4800000000000D+00  0.0000000000000D+00  0.0000000000000D+00
250  2.4900000000000D+00  0.0000000000000D+00  0.0000000000000D+00
251  2.5000000000000D+00  0.0000000000000D+00  0.0000000000000D+00
252  2.5100000000000D+00  0.0000000000000D+00  0.0000000000000D+00
253  2.5200000000000D+00  0.0000000000000D+00  0.0000000000000D+00
254  2.5300000000000D+00  0.0000000000000D+00  0.0000000000000D+00
255  2.5400000000000D+00  0.0000000000000D+00  0.0000000000000D+00
256  2.5500000000000D+00  0.0000000000000D+00  0.0000000000000D+00
257  2.5600000000000D+00  0.0000000000000D+00  0.0000000000000D+00
258  2.5700000000000D+00  0.0000000000000D+00  0.0000000000000D+00
259  2.5800000000000D+00  0.0000000000000D+00  0.0000000000000D+00
260  2.5900000000000D+00  0.0000000000000D+00  0.0000000000000D+00
261  2.6000000000000D+00  0.0000000000000D+00  0.0000000000000D+00
262  2.6100000000000D+00  0.0000000000000D+00  0.0000000000000D+00
263  2.6200000000000D+00  0.0000000000000D+00  0.0000000000000D+00
264  2.6300000000000D+00  0.0000000000000D+00  0.0000000000000D+00
265  2.6400000000000D+00  0.0000000000000D+00  0.0000000000000D+00
266  2.6500000000000D+00  0.0000000000000D+00  0.0000000000000D+00
267  2.6600000000000D+00  0.0000000000000D+00  0.0000000000000D+00
268  2.6700000000000D+00  0.0000000000000D+00  0.0000000000000D+00
269  2.6800000000000D+00  0.0000000000000D+00  0.0000000000000D+00
270  2.6900000000000D+00  0.0000000000000D+00  0.0000000000000D+00
271  2.7000000000000D+00  0.0000000000000D+00  0.0000000000000D+00
272  2.7100000000000D+00  0.0000000000000D+00  0.0000000000000D+00
273  2.7200000000000D+00  0.0000000000000D+00  0.0000000000000D+00
274  2.7300000000000D+00  0.0000000000000D+00  0.0000000000000D+00
275  2.7400000000000D+00  0.0000000000000D+00  0.0000000000000D+00
276  2.7500000000000D+00  0.0000000000000D+00  0.0000000000000D+00
277  2.7600000000000D+00  0.0000000000000D+00  0.0000000000000D+00
278  2.7700000000000D+00  0.0000000000000D+00  0.0000000000000D+00
279  2.7800000000000D+00  0.0000000000000D+00  0.0000000000000D+00
280  2.7900000000000D+00  0.0000000000000D+00  0.0000000000000D+00
281  2.8000000000000D+00  0.0000000000000D+00  0.0000000000000D+00
282  2.8100000000000D+00  0.0000000000000D+00  0.0000000000000D+00
283  2.8200000000000D+00  0.0000000000000D+00  0.0000000000000D+00
284  2.8300000000000D+00  0.0000000000000D+00  0.0000000000000D+00
285  2.8400000000000D+00  0.0000000000000D+00  0.0000000000000D+00
286  2.8500000000000D+00  0.0000000000000D+00  0.0000000000000D+00
287  2.8600000000000D+00  0.0000000000000D+00  0.0000000000000D+00
288  2.8700000000000D+00  0.0000000000000D+00  0.0000000000000D+00
289  2.8800000000000D+00  0.0000000000000D+00  0.0000000000000D+00
290  2.8900000000000D+00  0.0000000000000D+00  0.0000000000000D+00
291  2.9000000000000D+00  0.0000000000000D+00  0.0000000000000D+00
292  2.9100000000000D+00  0.0000000000000D+00  0.0000000000000D+00
293  2.9200000000000D+00  0.0000000000000D+00  0.0000000000000D+00
294  2.9300000000000D+00  0.0000000000000D+00  0.0000000000000D+00
295  2.9400000000000D+00  0.0000000000000D+00  0.0000000000000D+00
296  2.9500000000000D+00  0.0000000000000D+00  0.0000000000000D+00
297  2.9600000000000D+00  0.0000000000000D+00  0.0000000000000D+00
298  2.9700000000000D+00  0.0000000000000D+00  0.0000000000000D+00
299  2.9800000000000D+00  0.0000000000000D+00  0.0000000000000D+00
300  2.9900000000000D+00  0.0000000000000D+00  0.0000000000000D+00
301  3.0000000000000D+00  0.0000000000000D+00  0.0000000000000D+00
302  3.0100000000000D+00  0.0000000000000D+00  0.0000000000000D+00
303  3.0200000000000D+00  0.0000000000000D+00  0.0000000000000D+00
304  3.0300000000000D+00  0.0000000000000D+00  0.0000000000000D+00
305  3.0400000000000D+00  0.0000000000000D+00  0.0000000000000D+00
306  3.0500000000000D+00  0.0000000000000D+00  0.0000000000000D+00
307  3.0600000000000D+00  0.0000000000000D+00  0.0000000000000D+00
308  3.0700000000000D+00  0.0000000000000D+00  0.0000000000000D+00
309  3.0800000000000D+00  0.0000000000000D+00  0.0000000000000D+00
310  3.0900000000000D+00  0.0000000000000D+00  0.0000000000000D+00
311  3.1000000000000D+00  0.0000000000000D+00  0.0000000000000D+00
312  3.1100000000000D+00  0.0000000000000D+00  0.0000000000000D+00
313  3.1200000000000D+00  0.0000000000000D+00  0.0000000000000D+00
314  3.1300000000000D+00  0.0000000000000D+00  0.0000000000000D+00
315  3.1400000000000D+00  0.0000000000000D+00  0.0000000000000D+00
316  3.1500000000000D+00  0.0000000000000D+00  0.0000000000000D+00
317  3.1600000000000D+00  0.0000000000000D+00  0.0000000000000D+00
318  3.1700000000000D+00  0.0000000000000D+00  0.0000000000000D+00
319  3.1800000000000D+00  0.0000000000000D+00  0.0000000000000D+00
320  3.1900000000000D+00  0.0000000000000D+00  0.0000000000000D+00
321  3.2000000000000D+00  0.0000000000000D+00  0.0000000000000D+00
322  3.2100000000000D+00  0.0000000000000D+00  0.0000000000000D+00
323  3.2200000000000D+00  0.0000000000000D+00  0.0000000000000D+00
324  3.2300000000000D+00  0.0000000000000D+00  0.0000000000000D+00
325  3.2400000000000D+00  0.0000000000000D+00  0.0000000000000D+00
326  3.2500000000000D+00  0.0000000000000D+00  0.0000000000000D+00
327  3.2600000000000D+00  0.0000000000000D+00  0.0000000000000D+00
328  3.2700000000000D+00  0.0000000000000D+00  0.0000000000000D+00
329  3.2800000000000D+00  0.0000000000000D+00  0.0000000000000D+00
330  3.2900000000000D+00  0.0000000000000D+00  0.0000000000000D+00
331  3.3000000000000D+00  0.0000000000000D+00  0.0000000000000D+00
332  3.3100000000000D+00  0.0000000000000D+00  0.0000000000000D+00
333  3.3200000000000D+00  0.0000000000000D+00  0.0000000000000D+00
334  3.3300000000000D+00  0.0000000000000D+00  0.0000000000000D+00
335  3.3400000000000D+00  0.0000000000000D+00  0.0000000000000D+00
336  3.3500000000000D+00  0.0000000000000D+00  0.0000000000000D+00
337  3.3600000000000D+00  0.0000000000000D+00  0.0000000000000D+00
338  3.3700000000000D+00  0.0000000000000D+00  0.0000000000000D+00
339  3.3800000000000D+00  0.0000000000000D+00  0.0000000000000D+00
340  3.3900000000000D+00  0.0000000000000D+00  0.0000000000000D+00
341  3.4000000000000D+00  0.0000000000000D+00  0.0000000000000D+00
342  3.4100000000000D+00  0.0000000000000D+00  0.0000000000000D+00
343  3.4200000000000D+00  0.0000000000000D+00  0.0000000000000D+00
344  3.4300000000000D+00  0.0000000000000D+00  0.0000000000000D+00
345  3.4400000000000D+00  0.0000000000000D+00  0.0000000000000D+00
346  3.4500000000000D+00  0.0000000000000D+00  0.0000000000000D+00
347  3.4600000000000D+00  0.0000000000000D+00  0.0000000000000D+00
348  3.4700000000000D+00  0.0000000000000D+00  0.0000000000000D+00
349  3.4800000000000D+00  0.0000000000000D+00  0.0000000000000D+00
350  3.4900000000000D+00  0.0000000000000D+00  0.0000000000000D+00
351  3.5000000000000D+00  0.0000000000000D+00  0.0000000000000D+00
352  3.5100000000000D+00  0.0000000000000D+00  0.0000000000000D+00
353  3.5200000000000D+00  0.0000000000000D+00  0.0000000000000D+00
354  3.5300000000000D+00  0.0000000000000D+00  0.0000000000000D+00
355  3.5400000000000D+00  0.0000000000000D+00  0.0000000000000D+00
356  3.5500000000000D+00  0.0000000000000D+00  0.0000000000000D+00
357  3.5600000000000D+00  0.0000000000000D+00  0.0000000000000D+00
358  3.5700000000000D+00  0.0000000000000D+00  0.0000000000000D+00
359  3.5800000000000D+00  0.0000000000000D+00  0.0000000000000D+00
360  3.5900000000000D+00  0.0000000000000D+00  0.0000000000000D+00
361  3.6000000000000D+00  0.0000000000000D+00  0.0000000000000D+00
362  3.6100000000000D+00  0.0000000000000D+00  0.0000000000000D+00
363  3.6200000000000D+00  0.0000000000000D+00  0.0000000000000D+00
364  3.6300000000000D+00  0.0000000000000D+00  0.0000000000000D+00
365  3.6400000000000D+00  0.0000000000000D+00  0.0000000000000D+00
366  3.6500000000000D+00  0.0000000000000D+00  0.0000000000000D+00
367  3.6600000000000D+00  0.0000000000000D+00  0.0000000000000D+00
368  3.6700000000000D+00  0.0000000000000D+00  0.0000000000000D+00
369  3.6800000000000D+00  0.0000000000000D+00  0.0000000000000D+00
370  3.6900000000000D+00  0.0000000000000D+00  0.0000000000000D+00
371  3.7000000000000D+00  0.0000000000000D+00  0.0000000000000D+00
372  3.7100000000000D+00  0.0000000000000D+00  0.0000000000000D+00
373  3.7200000000000D+00  0.0000000000000D+00  0.0000000000000D+00
374  3.7300000000000D+00  0.0000000000000D+00  0.0000000000000D+00
375  3.7400000000000D+00  0.0000000000000D+00  0.0000000000000D+00
376  3.7500000000000D+00  0.0000000000000D+00  0.0000000000000D+00
377  3.7600000000000D+00  0.0000000000000D+00  0.0000000000000D+00
378  3.7700000000000D+00  0.0000000000000D+00  0.0000000000000D+00
379  3.7800000000000D+00  0.0000000000000D+00  0.0000000000000D+00
380  3.7900000000000D+00  0.0000000000000D+00  0.0000000000000D+00
381  3.8000000000000D+00  0.0000000000000D+00  0.0000000000000D+00
382  3.8100000000000D+00  0.0000000000000D+00  0.0000000000000D+00
383  3.8200000000000D+00  0.0000000000000D+00  0.0000000000000D+00
384  3.8300000000000D+00  0.0000000000000D+00  0.0000000000000D+00
385  3.8400000000000D+00  0.0000000000000D+00  0.0000000000000D+00
386  3.8500000000000D+00  0.0000000000000D+00  0.0000000000000D+00
387  3.8600000000000D+00  0.0000000000000D+00  0.0000000000000D+00
388  3.8700000000000D+00  0.0000000000000D+00  0.0000000000000D+00
389  3.8800000000000D+00  0.0000000000000D+00  0.0000000000000D+00
390  3.8900000000000D+00  0.0000000000000D+00  0.0000000000000D+00
391  3.9000000000000D+00  0.0000000000000D+00  0.0000000000000D+00
392  3.9100000000000D+00  0.0000000000000D+00  0.0000000000000D+00
393  3.9200000000000D+00  0.0000000000000D+00  0.0000000000000D+00
394  3.9300000000000D+00  0.0000000000000D+00  0.0000000000000D+00
395  3.9400000000000D+00  0.0000000000000D+00  0.0000000000000D+00
396  3.9500000000000D+00  0.0000000000000D+00  0.0000000000000D+00
397  3.9600000000000D+00  0.0000000000000D+00  0.0000000000000D+00
398  3.9700000000000D+00  0.0000000000000D+00  0.0000000000000D+00
399  3.9800000000000D+00  0.0000000000000D+00  0.0000000000000D+00
400  3.9900000000000D+00  0.0000000000000D+00  0.0000000000000D+00
1                        -1.5260615081215D+01 -1.5164681524192D+00
1  0.0000000000000D+00  1.2117164860381D-07 -2.5712911119746D-08
2  1.0000000000000D-02  1.0807294581414D-02 -4.4106239030124D-04
3  2.0000000000000D-02  4.3028623592203D-02 -1.7272477815038D-03
4  3.0000000000000D-02  9.6066043215886D-02 -3.7483438167295D-03
5  4.0000000000000D-02  1.6893531002098D-01 -6.3232914276625D-03
6  5.0000000000000D-02  2.6028412588584D-01 -9.2040746259147D-03
7  6.0000000000000D-02  3.6841718704844D-01 -1.2081062234105D-02
8  7.0000000000000D-02  4.9132755521697D-01 -1.4589699939981D-02
9  8.0000000000000D-02  6.2673374750527D-01 -1.6318425344006D-02
10  9.0000000000000D-02  7.7212183274615D-01 -1.6817655360918D-02
11  1.0000000000000D-01  9.2479172663900D-01 -1.5609674866831D-02
12  1.1000000000000D-01  1.0819067990789D+00 -1.2199238239836D-02
13  1.2000000000000D-01  1.2405458454394D+00 -6.0846817460904D-03
14  1.3000000000000D-01  1.3977564307372D+00  3.2306651704185D-03
15  1.4000000000000D-01  1.5506085923084D+00  1.6226987545259D-02
16  1.5000000000000D-01  1.6962478833002D+00  3.3356631168144D-02
17  1.6000000000000D-01  1.8319467559443D+00  5.5033104845047D-02
18  1.7000000000000D-01  1.9551533198522D+00  8.1620649650346D-02
19  1.8000000000000D-01  2.0635365656829D+00  1.1342457586270D-01
20  1.9000000000000D-01  2.1550272173203D+00  1.5068255423113D-01
21  2.0000000000000D-01  2.2278534646633D+00  1.9355703070372D-01
22  2.1000000000000D-01  2.2805709324391D+00  2.4212891311008D-01
23  2.2000000000000D-01  2.3120863559848D+00  2.9639265491430D-01
24  2.3000000000000D-01  2.3216745603472D+00  3.5625283549718D-01
25  2.4000000000000D-01  2.3089884717804D+00  4.2152230897208D-01
26  2.5000000000000D-01  2.2740620280695D+00  4.9192196481044D-01
27  2.6000000000000D-01  2.2173059933162D+00  5.6708211409505D-01
28  2.7000000000000D-01  2.1394968210707D+00  6.4654548558558D-01
29  2.8000000000000D-01  2.0417588442067D+00  7.2977178653018D-01
30  2.9000000000000D-01  1.9255401980295D+00  8.1614375483450D-01
31  3.0000000000000D-01  1.7925830022201D+00  9.0497460233179D-01
32  3.1000000000000D-01  1.6448884349969D+00  9.9551672398208D-01
33  3.2000000000000D-01  1.4846774272080D+00  1.0869715253188D+00
34  3.3000000000000D-01  1.3143477831109D+00  1.1785002007677D+00
35  3.4000000000000D-01  1.1364285968442D+00  1.2692352789343D+00
36  3.5000000000000D-01  9.5353287789349D-01  1.3582927378841D+00
37  3.6000000000000D-01  7.6830932440583D-01  1.4447844840420D+00
38  3.7000000000000D-01  5.8339418962523D-01  1.5278309827666D+00
39  3.8000000000000D-01  4.0136417400950D-01  1.6065738269815D+00
40  3.9000000000000D-01  2.2469124413649D-01  1.6801880324741D+00
41  4.0000000000000D-01  5.5700230110398D-02  1.7478938545222D+00
42  4.1000000000000D-01 -1.0347001302387D-01  1.8089679302397D+00
43  4.2000000000000D-01 -2.5090117584976D-01  1.8627535642170D+00