Sb    ONCVPSP  r_core=  2.51  2.15  2.60
51.0000      5.0000      150804    zatom,zion,pspd
8      11   2     4   600     0    pspcod,pspxc,lmax,lloc,mmax,r2well
5.99000000  7.00000000  0.00000000    rchrg fchrg qchrg
2     2     2     0     0    nproj
0                 extension_switch
0                         4.5464692320873D+00  4.9330525154009D-01
1  0.0000000000000D+00  1.0019485241486D-11 -4.4047447980700D-11
2  1.0000000000000D-02  2.0096566310999D-02 -1.3116308226238D-03
3  2.0000000000000D-02  4.0197271099770D-02 -2.6565883803477D-03
4  3.0000000000000D-02  6.0306186713658D-02 -4.0679437827334D-03
5  4.0000000000000D-02  8.0427253642413D-02 -5.5782585750465D-03
6  5.0000000000000D-02  1.0056421559502D-01 -7.2193341618437D-03
7  6.0000000000000D-02  1.2072055577615D-01 -9.0219662461537D-03
8  7.0000000000000D-02  1.4089943475032D-01 -1.1015705904149D-02
9  8.0000000000000D-02  1.6110363027177D-01 -1.3228628871160D-02
10  9.0000000000000D-02  1.8133547944574D-01 -1.5687114560288D-02
11  1.0000000000000D-01  2.0159682357203D-01 -1.8415636270255D-02
12  1.1000000000000D-01  2.2188895600483D-01 -2.1436563964729D-02
13  1.2000000000000D-01  2.4221257334385D-01 -2.4769980921885D-02
14  1.3000000000000D-01  2.6256773025075D-01 -2.8433515460749D-02
15  1.4000000000000D-01  2.8295379816199D-01 -3.2442188850704D-02
16  1.5000000000000D-01  3.0336942814472D-01 -3.6808280402963D-02
17  1.6000000000000D-01  3.2381251811645D-01 -4.1541210628664D-02
18  1.7000000000000D-01  3.4428018462147D-01 -4.6647443228064D-02
19  1.8000000000000D-01  3.6476873932878D-01 -5.2130406550257D-02
20  1.9000000000000D-01  3.8527367038646D-01 -5.7990435033308D-02
21  2.0000000000000D-01  4.0578962873704D-01 -6.4224731001884D-02
22  2.1000000000000D-01  4.2631041946750D-01 -7.0827347064213D-02
23  2.2000000000000D-01  4.4682899823609D-01 -7.7789189213141D-02
24  2.3000000000000D-01  4.6733747278645D-01 -8.5098040598423D-02
25  2.4000000000000D-01  4.8782710952808D-01 -9.2738605800088D-02
26  2.5000000000000D-01  5.0828834513058D-01 -1.0069257529627D-01
27  2.6000000000000D-01  5.2871080304834D-01 -1.0893870968481D-01
28  2.7000000000000D-01  5.4908331486176D-01 -1.1745294308650D-01
29  2.8000000000000D-01  5.6939394629162D-01 -1.2620850503064D-01
30  2.9000000000000D-01  5.8963002771475D-01 -1.3517606000060D-01
31  3.0000000000000D-01  6.0977818898156D-01 -1.4432386369998D-01
32  3.1000000000000D-01  6.2982439831015D-01 -1.5361793498887D-01
33  3.2000000000000D-01  6.4975400500734D-01 -1.6302224233628D-01
34  3.3000000000000D-01  6.6955178574383D-01 -1.7249890353801D-01
35  3.4000000000000D-01  6.8920199409035D-01 -1.8200839736229D-01
36  3.5000000000000D-01  7.0868841300207D-01 -1.9150978570618D-01
37  3.6000000000000D-01  7.2799440992225D-01 -2.0096094477721D-01
38  3.7000000000000D-01  7.4710299416117D-01 -2.1031880375504D-01
39  3.8000000000000D-01  7.6599687619410D-01 -2.1953958933990D-01
40  3.9000000000000D-01  7.8465852851231D-01 -2.2857907455610D-01
41  4.0000000000000D-01  8.0307024765336D-01 -2.3739283015244D-01
42  4.1000000000000D-01  8.2121421703209D-01 -2.4593647692582D-01
43  4.2000000000000D-01  8.3907257019125D-01 -2.5416593728974D-01
44  4.3000000000000D-01  8.5662745409081D-01 -2.6203768441708D-01
45  4.4000000000000D-01  8.7386109205734D-01 -2.6950898730476D-01
46  4.5000000000000D-01  8.9075584602038D-01 -2.7653815013783D-01
47  4.6000000000000D-01  9.0729427767002D-01 -2.8308474437161D-01
48  4.7000000000000D-01  9.2345920818003D-01 -2.8910983200200D-01
49  4.8000000000000D-01  9.3923377615320D-01 -2.9457617855664D-01
50  4.9000000000000D-01  9.5460149346041D-01 -2.9944845441163D-01
51  5.0000000000000D-01  9.6954629866136D-01 -3.0369342312063D-01
52  5.1000000000000D-01  9.8405260771428D-01 -3.0728011553428D-01
53  5.2000000000000D-01  9.9810536170223D-01 -3.1017998858718D-01
54  5.3000000000000D-01  1.0116900713265D+00 -3.1236706773710D-01
55  5.4000000000000D-01  1.0247928579416D+00 -3.1381807215543D-01
56  5.5000000000000D-01  1.0374004909324D+00 -3.1451252188862D-01
57  5.6000000000000D-01  1.0495004212597D+00 -3.1443282633664D-01
58  5.7000000000000D-01  1.0610808110311D+00 -3.1356435352531D-01
59  5.8000000000000D-01  1.0721305589789D+00 -3.1189547978403D-01
60  5.9000000000000D-01  1.0826393217610D+00 -3.0941761957792D-01
61  6.0000000000000D-01  1.0925975310271D+00 -3.0612523538310D-01
62  6.1000000000000D-01  1.1019964062256D+00 -3.0201582763349D-01
63  6.2000000000000D-01  1.1108279631546D+00 -2.9708990490916D-01
64  6.3000000000000D-01  1.1190850182930D+00 -2.9135093467419D-01
65  6.4000000000000D-01  1.1267611889766D+00 -2.8480527501079D-01
66  6.5000000000000D-01  1.1338508895136D+00 -2.7746208793026D-01
67  6.6000000000000D-01  1.1403493233619D+00 -2.6933323497236D-01
68  6.7000000000000D-01  1.1462524715203D+00 -2.6043315593065D-01
69  6.8000000000000D-01  1.1515570773099D+00 -2.5077873166204D-01
70  6.9000000000000D-01  1.1562606277486D+00 -2.4038913205196D-01
71  7.0000000000000D-01  1.1603613317448D+00 -2.2928565031383D-01
72  7.1000000000000D-01  1.1638580953584D+00 -2.1749152489979D-01
73  7.2000000000000D-01  1.1667504943967D+00 -2.0503175038910D-01
74  7.3000000000000D-01  1.1690387446328D+00 -1.9193287880130D-01
75  7.4000000000000D-01  1.1707236699470D+00 -1.7822281285093D-01
76  7.5000000000000D-01  1.1718066687077D+00 -1.6393059272086D-01
77  7.6000000000000D-01  1.1722896787195D+00 -1.4908617797918D-01
78  7.7000000000000D-01  1.1721751410733D+00 -1.3372022630235D-01
79  7.8000000000000D-01  1.1714659632413D+00 -1.1786387069222D-01
80  7.9000000000000D-01  1.1701654817634D+00 -1.0154849688856D-01
81  8.0000000000000D-01  1.1682774248707D+00 -8.4805522679362D-02
82  8.1000000000000D-01  1.1658058753941D+00 -6.7666180800955D-02
83  8.2000000000000D-01  1.1627552342973D+00 -5.0161307096561D-02
84  8.3000000000000D-01  1.1591301851701D+00 -3.2321135566865D-02
85  8.4000000000000D-01  1.1549356600089D+00 -1.4175101899326D-02
86  8.5000000000000D-01  1.1501768065953D+00  4.2483429958907D-03
87  8.6000000000000D-01  1.1448589577758D+00  2.2921907985395D-02
88  8.7000000000000D-01  1.1389876029229D+00  4.1819623869957D-02
89  8.8000000000000D-01  1.1325683618434D+00  6.0916991413745D-02
90  8.9000000000000D-01  1.1256069613772D+00  8.0191114060247D-02
91  9.0000000000000D-01  1.1181092149059D+00  9.9620814259232D-02
92  9.1000000000000D-01  1.1100810049685D+00  1.1918673244838D-01
93  9.2000000000000D-01  1.1015282691519D+00  1.3887140785839D-01
94  9.3000000000000D-01  1.0924569893993D+00  1.5865934044324D-01
95  9.4000000000000D-01  1.0828731848476D+00  1.7853703337690D-01
96  9.5000000000000D-01  1.0727829082773D+00  1.9849301570013D-01
97  9.6000000000000D-01  1.0621922462240D+00  2.1851784484981D-01
98  9.7000000000000D-01  1.0511073227739D+00  2.3860408895295D-01
99  9.8000000000000D-01  1.0395343070282D+00  2.5874628892060D-01
100  9.9000000000000D-01  1.0274794241921D+00  2.7894090053003D-01
101  1.0000000000000D+00  1.0149489702125D+00  2.9918621683688D-01
102  1.0100000000000D+00  1.0019493298532D+00  3.1948227141235D-01
103  1.0200000000000D+00  9.8848699806920D-01  3.3983072304469D-01
104  1.0300000000000D+00  9.7456860450679D-01  3.6023472269838D-01
105  1.0400000000000D+00  9.6020094093024D-01  3.8069876366024D-01
106  1.0500000000000D+00  9.4539099134432D-01  4.0122851593930D-01
107  1.0600000000000D+00  9.3014596455654D-01  4.2183064611914D-01
108  1.0700000000000D+00  9.1447332889709D-01  4.4251262397970D-01
109  1.0800000000000D+00  8.9838084879099D-01  4.6328251732043D-01
110  1.0900000000000D+00  8.8187662285461D-01  4.8414877652537D-01
111  1.1000000000000D+00  8.6496912317016D-01  5.0512001049949D-01
112  1.1100000000000D+00  8.4766723537383D-01  5.2620475569504D-01
113  1.1200000000000D+00  8.2998029918030D-01  5.4741124000905D-01
114  1.1300000000000D+00  8.1191814895218D-01  5.6874714340622D-01
115  1.1400000000000D+00  7.9349115391517D-01  5.9021935716031D-01
116  1.1500000000000D+00  7.7471025761314D-01  6.1183374364348D-01
117  1.1600000000000D+00  7.5558701619420D-01  6.3359489861257D-01
118  1.1700000000000D+00  7.3613363511711D-01  6.5550591795403D-01
119  1.1800000000000D+00  7.1636300387106D-01  6.7756817083846D-01
120  1.1900000000000D+00  6.9628872830912D-01  6.9978108120696D-01
121  1.2000000000000D+00  6.7592516019864D-01  7.2214191950191D-01
122  1.2100000000000D+00  6.5528742360940D-01  7.4464560648134D-01
123  1.2200000000000D+00  6.3439143777478D-01  7.6728453089423D-01
124  1.2300000000000D+00  6.1325393607242D-01  7.9004838274569D-01
125  1.2400000000000D+00  5.9189248079569D-01  8.1292400377424D-01
126  1.2500000000000D+00  5.7032547341447D-01  8.3589525664281D-01
127  1.2600000000000D+00  5.4857216004089D-01  8.5894291426941D-01
128  1.2700000000000D+00  5.2665263184243D-01  8.8204457060749D-01
129  1.2800000000000D+00  5.0458782019110D-01  9.0517457397640D-01
130  1.2900000000000D+00  4.8239948635181D-01  9.2830398398161D-01
131  1.3000000000000D+00  4.6011020554489D-01  9.5140055292011D-01
132  1.3100000000000D+00  4.3774334528313D-01  9.7442873227419D-01
133  1.3200000000000D+00  4.1532303788260D-01  9.9734970490172D-01
134  1.3300000000000D+00  3.9287414709852D-01  1.0201214432968D+00
135  1.3400000000000D+00  3.7042222890960D-01  1.0426987939709D+00
136  1.3500000000000D+00  3.4799348644566D-01  1.0650335881312D+00
137  1.3600000000000D+00  3.2561471915427D-01  1.0870747783810D+00
138  1.3700000000000D+00  3.0331326634213D-01  1.1087686009815D+00
139  1.3800000000000D+00  2.8111694518811D-01  1.1300587633928D+00
140  1.3900000000000D+00  2.5905398349083D-01  1.1508866560606D+00
141  1.4000000000000D+00  2.3715294734606D-01  1.1711915877165D+00
142  1.4100000000000D+00  2.1544266402032D-01  1.1909110431435D+00
143  1.4200000000000D+00  1.9395214038690D-01  1.2099809618967D+00
144  1.4300000000000D+00  1.7271047718576D-01  1.2283360369533D+00
145  1.4400000000000D+00  1.5174677957079D-01  1.2459100313368D+00
146  1.4500000000000D+00  1.3109006430712D-01  1.2626361112247D+00
147  1.4600000000000D+00  1.1076916406540D-01  1.2784471936644D+00
148  1.4700000000000D+00  9.0812629322224D-02  1.2932763067274D+00
149  1.4800000000000D+00  7.1248628292065D-02  1.3070569603290D+00
150  1.4900000000000D+00  5.2104845486478D-02  1.3197235251416D+00
151  1.5000000000000D+00  3.3408379367100D-02  1.3312116176352D+00
152  1.5100000000000D+00  1.5185639693135D-02  1.3414584886511D+00
153  1.5200000000000D+00 -2.5377549027525D-03  1.3504034132207D+00
154  1.5300000000000D+00 -1.9737078520611D-02  1.3579880790915D+00
155  1.5400000000000D+00 -3.6388598216914D-02  1.3641569715115D+00
156  1.5500000000000D+00 -5.2469672244482D-02  1.3688577516884D+00
157  1.5600000000000D+00 -6.7958845768588D-02  1.3720416265627D+00
158  1.5700000000000D+00 -8.2835943427578D-02  1.3736637071767D+00
159  1.5800000000000D+00 -9.7082158250068D-02  1.3736833535000D+00
160  1.5900000000000D+00 -1.1068013629395D-01  1.3720645029684D+00
161  1.6000000000000D+00 -1.2361405655582D-01  1.3687759807590D+00
162  1.6100000000000D+00 -1.3586970556250D-01  1.3637917892504D+00
163  1.6200000000000D+00 -1.4743454621023D-01  1.3570913747676D+00
164  1.6300000000000D+00 -1.5829778035434D-01  1.3486598694499D+00
165  1.6400000000000D+00 -1.6845040471772D-01  1.3384883063564D+00
166  1.6500000000000D+00 -1.7788525974745D-01  1.3265738061968D+00
167  1.6600000000000D+00 -1.8659707098567D-01  1.3129197337916D+00
168  1.6700000000000D+00 -1.9458248273242D-01  1.2975358232999D+00
169  1.6800000000000D+00 -2.0184008357168D-01  1.2804382703388D+00
170  1.6900000000000D+00 -2.0837042369107D-01  1.2616497907035D+00
171  1.7000000000000D+00 -2.1417602359435D-01  1.2411996439357D+00
172  1.7100000000000D+00 -2.1926137427405D-01  1.2191236220477D+00
173  1.7200000000000D+00 -2.2363292851094D-01  1.1954640019486D+00
174  1.7300000000000D+00 -2.2729908346709D-01  1.1702694623171D+00
175  1.7400000000000D+00 -2.3027015436324D-01  1.1435949640109D+00
176  1.7500000000000D+00 -2.3255833944881D-01  1.1155015949419D+00
177  1.7600000000000D+00 -2.3417767624945D-01  1.0860563793603D+00
178  1.7700000000000D+00 -2.3514398926821D-01  1.0553320523337D+00
179  1.7800000000000D+00 -2.3547482939648D-01  1.0234068005596D+00
180  1.7900000000000D+00 -2.3518940509882D-01  9.9036396980205D-01
181  1.8000000000000D+00 -2.3430850596914D-01  9.5629174159050D-01
182  1.8100000000000D+00 -2.3285441854189D-01  9.2128277868257D-01
183  1.8200000000000D+00 -2.3085083533985D-01  8.8543384360527D-01
184  1.8300000000000D+00 -2.2832275682852D-01  8.4884538885245D-01
185  1.8400000000000D+00 -2.2529638762451D-01  8.1162112463494D-01
186  1.8500000000000D+00 -2.2179902649355D-01  7.7386756219621D-01
187  1.8600000000000D+00 -2.1785895161390D-01  7.3569353912391D-01
188  1.8700000000000D+00 -2.1350530085868D-01  6.9720972564281D-01
189  1.8800000000000D+00 -2.0876794830218D-01  6.5852811711833D-01
190  1.8900000000000D+00 -2.0367737718558D-01  6.1976151386092D-01
191  1.9000000000000D+00 -1.9826455014748D-01  5.8102299172322D-01
192  1.9100000000000D+00 -1.9256077738989D-01  5.4242536643999D-01
193  1.9200000000000D+00 -1.8659758332344D-01  5.0408065411652D-01
194  1.9300000000000D+00 -1.8040657252984D-01  4.6609953144565D-01
195  1.9400000000000D+00 -1.7401929563224D-01  4.2859079837002D-01
196  1.9500000000000D+00 -1.6746711571735D-01  3.9166084579936D-01
197  1.9600000000000D+00 -1.6078107619935D-01  3.5541313247266D-01
198  1.9700000000000D+00 -1.5399177049507D-01  3.1994767235945D-01
199  1.9800000000000D+00 -1.4712921445826D-01  2.8536053684519D-01
200  1.9900000000000D+00 -1.4022272214471D-01  2.5174337413804D-01
201  2.0000000000000D+00 -1.3330078524052D-01  2.1918294719758D-01
202  2.0100000000000D+00 -1.2639095754919D-01  1.8776069647930D-01
203  2.0200000000000D+00 -1.1951974389666D-01  1.5755232429021D-01
204  2.0300000000000D+00 -1.1271249542687D-01  1.2862740967841D-01
205  2.0400000000000D+00 -1.0599331060293D-01  1.0104905049558D-01
206  2.0500000000000D+00 -9.9384942928792D-02  7.4873537104651D-02
207  2.0600000000000D+00 -9.2908716345728D-02  5.0150061921287D-02
208  2.0700000000000D+00 -8.6584446986413D-02  2.6920458577342D-02
209  2.0800000000000D+00 -8.0430373624603D-02  5.2189807697350D-03
210  2.0900000000000D+00 -7.4463097878380D-02 -1.4927872233877D-02
211  2.1000000000000D+00 -6.8697529922520D-02 -3.3501507123053D-02
212  2.1100000000000D+00 -6.3146834330843D-02 -5.0491392195072D-02
213  2.1200000000000D+00 -5.7822430415415D-02 -6.5894941812318D-02
214  2.1300000000000D+00 -5.2733933029215D-02 -7.9717700752099D-02
215  2.1400000000000D+00 -4.7889101331073D-02 -9.1973512607356D-02
216  2.1500000000000D+00 -4.3293861254118D-02 -1.0268430045656D-01
217  2.1600000000000D+00 -3.8952405961596D-02 -1.1187945359573D-01
218  2.1700000000000D+00 -3.4867255651593D-02 -1.1959539543897D-01
219  2.1800000000000D+00 -3.1039348246647D-02 -1.2587510723842D-01
220  2.1900000000000D+00 -2.7468163917317D-02 -1.3076744132089D-01
221  2.2000000000000D+00 -2.4151835064719D-02 -1.3432653309400D-01
222  2.2100000000000D+00 -2.1087161776819D-02 -1.3661171612684D-01
223  2.2200000000000D+00 -1.8269659197644D-02 -1.3768729781883D-01
224  2.2300000000000D+00 -1.5693651019029D-02 -1.3762207046682D-01
225  2.2400000000000D+00 -1.3352351700913D-02 -1.3648889425181D-01
226  2.2500000000000D+00 -1.1237943356337D-02 -1.3436431594563D-01
227  2.2600000000000D+00 -9.3416707960959D-03 -1.3132809407088D-01
228  2.2700000000000D+00 -7.6539341397003D-03 -1.2746274118778D-01
229  2.2800000000000D+00 -6.1643865061237D-03 -1.2285304301506D-01
230  2.2900000000000D+00 -4.8620351336059D-03 -1.1758556302716D-01
231  2.3000000000000D+00 -3.7353443040657D-03 -1.1174813982415D-01
232  2.3100000000000D+00 -2.7723404537756D-03 -1.0542937579635D-01
233  2.3200000000000D+00 -1.9607182724911D-03 -9.8718122474475D-02
234  2.3300000000000D+00 -1.2879472446052D-03 -9.1702964998612D-02
235  2.3400000000000D+00 -7.4137784568786D-04 -8.4471709622074D-02
236  2.3500000000000D+00 -3.0834696892242D-04 -7.7110875939123D-02
237  2.3600000000000D+00  2.3718027697193D-05 -6.9705196739950D-02
238  2.3700000000000D+00  2.6719816626013D-04 -6.2337132566512D-02
239  2.3800000000000D+00  4.3418373910562D-04 -5.5086396896921D-02
240  2.3900000000000D+00  5.3637893542664D-04 -4.8029499847685D-02
241  2.4000000000000D+00  5.8501133921247D-04 -4.1239315630831D-02
242  2.4100000000000D+00  5.9074456578574D-04 -3.4784665703981D-02
243  2.4200000000000D+00  5.6359721230843D-04 -2.8729932298474D-02
244  2.4300000000000D+00  5.1310474684807D-04 -2.3139707036318D-02
245  2.4400000000000D+00  4.4741860457599D-04 -1.8060902922906D-02
246  2.4500000000000D+00  3.7392999277688D-04 -1.3536958725290D-02
247  2.4600000000000D+00  2.9793592297826D-04 -9.5892056785263D-03
248  2.4700000000000D+00  2.2833640695479D-04 -6.3064574775042D-03
249  2.4800000000000D+00  1.7180444575477D-04 -3.7527986798313D-03
250  2.4900000000000D+00  1.3552903841074D-04 -1.9837018835231D-03
251  2.5000000000000D+00  1.1099331474710D-04 -8.7797900094984D-04
252  2.5100000000000D+00  8.9819567750359D-05 -2.8568751118265D-04
253  2.5200000000000D+00  5.9681714355460D-05 -2.2278093722835D-05
254  2.5300000000000D+00  2.8300668093231D-05  3.7204786394764D-05
255  2.5400000000000D+00  2.4069471607474D-06  5.5481997205643D-06
256  2.5500000000000D+00 -7.3182442197349D-06 -2.0642312599120D-05
257  2.5600000000000D+00 -6.6776370334769D-06 -2.2800874982577D-05
258  2.5700000000000D+00 -1.0519362538363D-06 -4.0661790031098D-06
259  2.5800000000000D+00  1.5523348689027D-06  2.4981753882657D-06
260  2.5900000000000D+00  1.7136802517178D-06  3.1362656707210D-06
261  2.6000000000000D+00  4.2405439326223D-07  8.5535116982855D-07
262  2.6100000000000D+00 -1.8389314899205D-07  5.1839481066701D-07
263  2.6200000000000D+00 -2.3929084618351D-07  6.7456092617680D-07
264  2.6300000000000D+00 -8.6351601649451D-08  2.4342517615920D-07
265  2.6400000000000D+00  0.0000000000000D+00  0.0000000000000D+00
266  2.6500000000000D+00  0.0000000000000D+00  0.0000000000000D+00
267  2.6600000000000D+00  0.0000000000000D+00  0.0000000000000D+00
268  2.6700000000000D+00  0.0000000000000D+00  0.0000000000000D+00
269  2.6800000000000D+00  0.0000000000000D+00  0.0000000000000D+00
270  2.6900000000000D+00  0.0000000000000D+00  0.0000000000000D+00
271  2.7000000000000D+00  0.0000000000000D+00  0.0000000000000D+00
272  2.7100000000000D+00  0.0000000000000D+00  0.0000000000000D+00
273  2.7200000000000D+00  0.0000000000000D+00  0.0000000000000D+00
274  2.7300000000000D+00  0.0000000000000D+00  0.0000000000000D+00
275  2.7400000000000D+00  0.0000000000000D+00  0.0000000000000D+00
276  2.7500000000000D+00  0.0000000000000D+00  0.0000000000000D+00
277  2.7600000000000D+00  0.0000000000000D+00  0.0000000000000D+00
278  2.7700000000000D+00  0.0000000000000D+00  0.0000000000000D+00
279  2.7800000000000D+00  0.0000000000000D+00  0.0000000000000D+00
280  2.7900000000000D+00  0.0000000000000D+00  0.0000000000000D+00
281  2.8000000000000D+00  0.0000000000000D+00  0.0000000000000D+00
282  2.8100000000000D+00  0.0000000000000D+00  0.0000000000000D+00
283  2.8200000000000D+00  0.0000000000000D+00  0.0000000000000D+00
284  2.8300000000000D+00  0.0000000000000D+00  0.0000000000000D+00
285  2.8400000000000D+00  0.0000000000000D+00  0.0000000000000D+00
286  2.8500000000000D+00  0.0000000000000D+00  0.0000000000000D+00
287  2.8600000000000D+00  0.0000000000000D+00  0.0000000000000D+00
288  2.8700000000000D+00  0.0000000000000D+00  0.0000000000000D+00
289  2.8800000000000D+00  0.0000000000000D+00  0.0000000000000D+00
290  2.8900000000000D+00  0.0000000000000D+00  0.0000000000000D+00
291  2.9000000000000D+00  0.0000000000000D+00  0.0000000000000D+00
292  2.9100000000000D+00  0.0000000000000D+00  0.0000000000000D+00
293  2.9200000000000D+00  0.0000000000000D+00  0.0000000000000D+00
294  2.9300000000000D+00  0.0000000000000D+00  0.0000000000000D+00
295  2.9400000000000D+00  0.0000000000000D+00  0.0000000000000D+00
296  2.9500000000000D+00  0.0000000000000D+00  0.0000000000000D+00
297  2.9600000000000D+00  0.0000000000000D+00  0.0000000000000D+00
298  2.9700000000000D+00  0.0000000000000D+00  0.0000000000000D+00
299  2.9800000000000D+00  0.0000000000000D+00  0.0000000000000D+00
300  2.9900000000000D+00  0.0000000000000D+00  0.0000000000000D+00
301  3.0000000000000D+00  0.0000000000000D+00  0.0000000000000D+00
302  3.0100000000000D+00  0.0000000000000D+00  0.0000000000000D+00
303  3.0200000000000D+00  0.0000000000000D+00  0.0000000000000D+00
304  3.0300000000000D+00  0.0000000000000D+00  0.0000000000000D+00
305  3.0400000000000D+00  0.0000000000000D+00  0.0000000000000D+00
306  3.0500000000000D+00  0.0000000000000D+00  0.0000000000000D+00
307  3.0600000000000D+00  0.0000000000000D+00  0.0000000000000D+00
308  3.0700000000000D+00  0.0000000000000D+00  0.0000000000000D+00
309  3.0800000000000D+00  0.0000000000000D+00  0.0000000000000D+00
310  3.0900000000000D+00  0.0000000000000D+00  0.0000000000000D+00
311  3.1000000000000D+00  0.0000000000000D+00  0.0000000000000D+00
312  3.1100000000000D+00  0.0000000000000D+00  0.0000000000000D+00
313  3.1200000000000D+00  0.0000000000000D+00  0.0000000000000D+00
314  3.1300000000000D+00  0.0000000000000D+00  0.0000000000000D+00
315  3.1400000000000D+00  0.0000000000000D+00  0.0000000000000D+00
316  3.1500000000000D+00  0.0000000000000D+00  0.0000000000000D+00
317  3.1600000000000D+00  0.0000000000000D+00  0.0000000000000D+00
318  3.1700000000000D+00  0.0000000000000D+00  0.0000000000000D+00
319  3.1800000000000D+00  0.0000000000000D+00  0.0000000000000D+00
320  3.1900000000000D+00  0.0000000000000D+00  0.0000000000000D+00
321  3.2000000000000D+00  0.0000000000000D+00  0.0000000000000D+00
322  3.2100000000000D+00  0.0000000000000D+00  0.0000000000000D+00
323  3.2200000000000D+00  0.0000000000000D+00  0.0000000000000D+00
324  3.2300000000000D+00  0.0000000000000D+00  0.0000000000000D+00
325  3.2400000000000D+00  0.0000000000000D+00  0.0000000000000D+00
326  3.2500000000000D+00  0.0000000000000D+00  0.0000000000000D+00
327  3.2600000000000D+00  0.0000000000000D+00  0.0000000000000D+00
328  3.2700000000000D+00  0.0000000000000D+00  0.0000000000000D+00
329  3.2800000000000D+00  0.0000000000000D+00  0.0000000000000D+00
330  3.2900000000000D+00  0.0000000000000D+00  0.0000000000000D+00
331  3.3000000000000D+00  0.0000000000000D+00  0.0000000000000D+00
332  3.3100000000000D+00  0.0000000000000D+00  0.0000000000000D+00
333  3.3200000000000D+00  0.0000000000000D+00  0.0000000000000D+00
334  3.3300000000000D+00  0.0000000000000D+00  0.0000000000000D+00
335  3.3400000000000D+00  0.0000000000000D+00  0.0000000000000D+00
336  3.3500000000000D+00  0.0000000000000D+00  0.0000000000000D+00
337  3.3600000000000D+00  0.0000000000000D+00  0.0000000000000D+00
338  3.3700000000000D+00  0.0000000000000D+00  0.0000000000000D+00
339  3.3800000000000D+00  0.0000000000000D+00  0.0000000000000D+00
340  3.3900000000000D+00  0.0000000000000D+00  0.0000000000000D+00
341  3.4000000000000D+00  0.0000000000000D+00  0.0000000000000D+00
342  3.4100000000000D+00  0.0000000000000D+00  0.0000000000000D+00
343  3.4200000000000D+00  0.0000000000000D+00  0.0000000000000D+00
344  3.4300000000000D+00  0.0000000000000D+00  0.0000000000000D+00
345  3.4400000000000D+00  0.0000000000000D+00  0.0000000000000D+00
346  3.4500000000000D+00  0.0000000000000D+00  0.0000000000000D+00
347  3.4600000000000D+00  0.0000000000000D+00  0.0000000000000D+00
348  3.4700000000000D+00  0.0000000000000D+00  0.0000000000000D+00
349  3.4800000000000D+00  0.0000000000000D+00  0.0000000000000D+00
350  3.4900000000000D+00  0.0000000000000D+00  0.0000000000000D+00
351  3.5000000000000D+00  0.0000000000000D+00  0.0000000000000D+00
352  3.5100000000000D+00  0.0000000000000D+00  0.0000000000000D+00
353  3.5200000000000D+00  0.0000000000000D+00  0.0000000000000D+00
354  3.5300000000000D+00  0.0000000000000D+00  0.0000000000000D+00
355  3.5400000000000D+00  0.0000000000000D+00  0.0000000000000D+00
356  3.5500000000000D+00  0.0000000000000D+00  0.0000000000000D+00
357  3.5600000000000D+00  0.0000000000000D+00  0.0000000000000D+00
358  3.5700000000000D+00  0.0000000000000D+00  0.0000000000000D+00
359  3.5800000000000D+00  0.0000000000000D+00  0.0000000000000D+00
360  3.5900000000000D+00  0.0000000000000D+00  0.0000000000000D+00
361  3.6000000000000D+00  0.0000000000000D+00  0.0000000000000D+00
362  3.6100000000000D+00  0.0000000000000D+00  0.0000000000000D+00
363  3.6200000000000D+00  0.0000000000000D+00  0.0000000000000D+00
364  3.6300000000000D+00  0.0000000000000D+00  0.0000000000000D+00
365  3.6400000000000D+00  0.0000000000000D+00  0.0000000000000D+00
366  3.6500000000000D+00  0.0000000000000D+00  0.0000000000000D+00
367  3.6600000000000D+00  0.0000000000000D+00  0.0000000000000D+00
368  3.6700000000000D+00  0.0000000000000D+00  0.0000000000000D+00
369  3.6800000000000D+00  0.0000000000000D+00  0.0000000000000D+00
370  3.6900000000000D+00  0.0000000000000D+00  0.0000000000000D+00
371  3.7000000000000D+00  0.0000000000000D+00  0.0000000000000D+00
372  3.7100000000000D+00  0.0000000000000D+00  0.0000000000000D+00
373  3.7200000000000D+00  0.0000000000000D+00  0.0000000000000D+00
374  3.7300000000000D+00  0.0000000000000D+00  0.0000000000000D+00
375  3.7400000000000D+00  0.0000000000000D+00  0.0000000000000D+00
376  3.7500000000000D+00  0.0000000000000D+00  0.0000000000000D+00
377  3.7600000000000D+00  0.0000000000000D+00  0.0000000000000D+00
378  3.7700000000000D+00  0.0000000000000D+00  0.0000000000000D+00
379  3.7800000000000D+00  0.0000000000000D+00  0.0000000000000D+00
380  3.7900000000000D+00  0.0000000000000D+00  0.0000000000000D+00
381  3.8000000000000D+00  0.0000000000000D+00  0.0000000000000D+00
382  3.8100000000000D+00  0.0000000000000D+00  0.0000000000000D+00
383  3.8200000000000D+00  0.0000000000000D+00  0.0000000000000D+00
384  3.8300000000000D+00  0.0000000000000D+00  0.0000000000000D+00
385  3.8400000000000D+00  0.0000000000000D+00  0.0000000000000D+00
386  3.8500000000000D+00  0.0000000000000D+00  0.0000000000000D+00
387  3.8600000000000D+00  0.0000000000000D+00  0.0000000000000D+00
388  3.8700000000000D+00  0.0000000000000D+00  0.0000000000000D+00
389  3.8800000000000D+00  0.0000000000000D+00  0.0000000000000D+00
390  3.8900000000000D+00  0.0000000000000D+00  0.0000000000000D+00
391  3.9000000000000D+00  0.0000000000000D+00  0.0000000000000D+00
392  3.9100000000000D+00  0.0000000000000D+00  0.0000000000000D+00
393  3.9200000000000D+00  0.0000000000000D+00  0.0000000000000D+00
394  3.9300000000000D+00  0.0000000000000D+00  0.0000000000000D+00
395  3.9400000000000D+00  0.0000000000000D+00  0.0000000000000D+00
396  3.9500000000000D+00  0.0000000000000D+00  0.0000000000000D+00
397  3.9600000000000D+00  0.0000000000000D+00  0.0000000000000D+00
398  3.9700000000000D+00  0.0000000000000D+00  0.0000000000000D+00
399  3.9800000000000D+00  0.0000000000000D+00  0.0000000000000D+00
400  3.9900000000000D+00  0.0000000000000D+00  0.0000000000000D+00
401  4.0000000000000D+00  0.0000000000000D+00  0.0000000000000D+00
402  4.0100000000000D+00  0.0000000000000D+00  0.0000000000000D+00
403  4.0200000000000D+00  0.0000000000000D+00  0.0000000000000D+00
404  4.0300000000000D+00  0.0000000000000D+00  0.0000000000000D+00
405  4.0400000000000D+00  0.0000000000000D+00  0.0000000000000D+00
406  4.0500000000000D+00  0.0000000000000D+00  0.0000000000000D+00
407  4.0600000000000D+00  0.0000000000000D+00  0.0000000000000D+00
408  4.0700000000000D+00  0.0000000000000D+00  0.0000000000000D+00
409  4.0800000000000D+00  0.0000000000000D+00  0.0000000000000D+00
410  4.0900000000000D+00  0.0000000000000D+00  0.0000000000000D+00
411  4.1000000000000D+00  0.0000000000000D+00  0.0000000000000D+00
412  4.1100000000000D+00  0.0000000000000D+00  0.0000000000000D+00
413  4.1200000000000D+00  0.0000000000000D+00  0.0000000000000D+00
414  4.1300000000000D+00  0.0000000000000D+00  0.0000000000000D+00
415  4.1400000000000D+00  0.0000000000000D+00  0.0000000000000D+00
416  4.1500000000000D+00  0.0000000000000D+00  0.0000000000000D+00
417  4.1600000000000D+00  0.0000000000000D+00  0.0000000000000D+00
418  4.1700000000000D+00  0.0000000000000D+00  0.0000000000000D+00
419  4.1800000000000D+00  0.0000000000000D+00  0.0000000000000D+00
420  4.1900000000000D+00  0.0000000000000D+00  0.0000000000000D+00
421  4.2000000000000D+00  0.0000000000000D+00  0.0000000000000D+00
422  4.2100000000000D+00  0.0000000000000D+00  0.0000000000000D+00
423  4.2200000000000D+00  0.0000000000000D+00  0.0000000000000D+00
424  4.2300000000000D+00  0.0000000000000D+00  0.0000000000000D+00
425  4.2400000000000D+00  0.0000000000000D+00  0.0000000000000D+00
426  4.2500000000000D+00  0.0000000000000D+00  0.0000000000000D+00
427  4.2600000000000D+00  0.0000000000000D+00  0.0000000000000D+00
428  4.2700000000000D+00  0.0000000000000D+00  0.0000000000000D+00
429  4.2800000000000D+00  0.0000000000000D+00  0.0000000000000D+00
430  4.2900000000000D+00  0.0000000000000D+00  0.0000000000000D+00
431  4.3000000000000D+00  0.0000000000000D+00  0.0000000000000D+00
432  4.3100000000000D+00  0.0000000000000D+00  0.0000000000000D+00
433  4.3200000000000D+00  0.0000000000000D+00  0.0000000000000D+00
434  4.3300000000000D+00  0.0000000000000D+00  0.0000000000000D+00
435  4.3400000000000D+00  0.0000000000000D+00  0.0000000000000D+00
436  4.3500000000000D+00  0.0000000000000D+00  0.0000000000000D+00
437  4.3600000000000D+00  0.0000000000000D+00  0.0000000000000D+00
438  4.3700000000000D+00  0.0000000000000D+00  0.0000000000000D+00
439  4.3800000000000D+00  0.0000000000000D+00  0.0000000000000D+00
440  4.3900000000000D+00  0.0000000000000D+00  0.0000000000000D+00
441  4.4000000000000D+00  0.0000000000000D+00  0.0000000000000D+00
442  4.4100000000000D+00  0.0000000000000D+00  0.0000000000000D+00
443  4.4200000000000D+00  0.0000000000000D+00  0.0000000000000D+00
444  4.4300000000000D+00  0.0000000000000D+00  0.0000000000000D+00