Ho    ONCVPSP  r_core=  1.80  1.51  1.66  1.72
67.0000     21.0000      160625    zatom,zion,pspd
8      11   3     4   600     0    pspcod,pspxc,lmax,lloc,mmax,r2well
5.99000000  0.25000000  0.00000000    rchrg fchrg qchrg
2     2     2     2     0    nproj
1                 extension_switch
0                         8.5218443714954D+00  5.9047600499870D-01
1  0.0000000000000D+00 -9.2658658523703D-11  5.7384608176392D-10
2  1.0000000000000D-02  5.1374932255843D-02 -2.6981029213869D-02
3  2.0000000000000D-02  1.0266778455169D-01 -5.3754185192114D-02
4  3.0000000000000D-02  1.5379679261473D-01 -8.0113362524340D-02
5  4.0000000000000D-02  2.0468082102641D-01 -1.0585597516203D-01
6  5.0000000000000D-02  2.5523967137329D-01 -1.3078467552455D-01
7  6.0000000000000D-02  3.0539438293222D-01 -1.5470902532422D-01
8  7.0000000000000D-02  3.5506752351111D-01 -1.7744710269482D-01
9  8.0000000000000D-02  4.0418346815880D-01 -1.9882703078191D-01
10  9.0000000000000D-02  4.5266866357221D-01 -2.1868841366123D-01
11  1.0000000000000D-01  5.0045187616340D-01 -2.3688366628899D-01
12  1.1000000000000D-01  5.4746442190395D-01 -2.5327922614517D-01
13  1.2000000000000D-01  5.9364037623597D-01 -2.6775663530351D-01
14  1.3000000000000D-01  6.3891676252819D-01 -2.8021348283733D-01
15  1.4000000000000D-01  6.8323371775910D-01 -2.9056419874072D-01
16  1.5000000000000D-01  7.2653463432562D-01 -2.9874069189892D-01
17  1.6000000000000D-01  7.6876627710363D-01 -3.0469282606721D-01
18  1.7000000000000D-01  8.0987887512283D-01 -3.0838872930333D-01
19  1.8000000000000D-01  8.4982618746202D-01 -3.0981493383112D-01
20  1.9000000000000D-01  8.8856554321835D-01 -3.0897634487867D-01
21  2.0000000000000D-01  9.2605785565424D-01 -3.0589603862042D-01
22  2.1000000000000D-01  9.6226761087509D-01 -3.0061489094375D-01
23  2.2000000000000D-01  9.9716283163849D-01 -2.9319104034426D-01
24  2.3000000000000D-01  1.0307150171375D+00 -2.8369918981409D-01
25  2.4000000000000D-01  1.0628990598359D+00 -2.7222975411161D-01
26  2.5000000000000D-01  1.0936931406580D+00 -2.5888786027407D-01
27  2.6000000000000D-01  1.1230786040498D+00 -2.4379221064290D-01
28  2.7000000000000D-01  1.1510398146274D+00 -2.2707381900301D-01
29  2.8000000000000D-01  1.1775639973114D+00 -2.0887463167754D-01
30  2.9000000000000D-01  1.2026410630119D+00 -1.8934604655796D-01
31  3.0000000000000D-01  1.2262634220728D+00 -1.6864734407362D-01
32  3.1000000000000D-01  1.2484257878098D+00 -1.4694404500523D-01
33  3.2000000000000D-01  1.2691249725751D+00 -1.2440621081353D-01
34  3.3000000000000D-01  1.2883596788587D+00 -1.0120670277893D-01
35  3.4000000000000D-01  1.3061302879884D+00 -7.7519416723390D-02
36  3.5000000000000D-01  1.3224386490134D+00 -5.3517510407007D-02
37  3.6000000000000D-01  1.3372878703563D+00 -2.9371640851811D-02
38  3.7000000000000D-01  1.3506821167877D+00 -5.2482288440486D-03
39  3.8000000000000D-01  1.3626264142211D+00  1.8692232300244D-02
40  3.9000000000000D-01  1.3731264647437D+00  4.2296806953158D-02
41  4.0000000000000D-01  1.3821884741879D+00  6.5421670117310D-02
42  4.1000000000000D-01  1.3898189944098D+00  8.7933567488933D-02
43  4.2000000000000D-01  1.3960247822856D+00  1.0971116784973D-01
44  4.3000000000000D-01  1.4008126772458D+00  1.3064629395635D-01
45  4.4000000000000D-01  1.4041894989648D+00  1.5064501920140D-01
46  4.5000000000000D-01  1.4061619665955D+00  1.6962861855705D-01
47  4.6000000000000D-01  1.4067366406909D+00  1.8753436367428D-01
48  4.7000000000000D-01  1.4059198886975D+00  2.0431615348264D-01
49  4.8000000000000D-01  1.4037178746252D+00  2.1994497320703D-01
50  4.9000000000000D-01  1.4001365732177D+00  2.3440917637246D-01
51  5.0000000000000D-01  1.3951818086497D+00  2.4771458609190D-01
52  5.1000000000000D-01  1.3888593174802D+00  2.5988441370825D-01
53  5.2000000000000D-01  1.3811748352893D+00  2.7095899467251D-01
54  5.3000000000000D-01  1.3721342061287D+00  2.8099534336930D-01
55  5.4000000000000D-01  1.3617435136171D+00  2.9006653042905D-01
56  5.5000000000000D-01  1.3500092322299D+00  2.9826088787346D-01
57  5.6000000000000D-01  1.3369383970527D+00  3.0568104921310D-01
58  5.7000000000000D-01  1.3225387900080D+00  3.1244283332659D-01
59  5.8000000000000D-01  1.3068191403242D+00  3.1867398259224D-01
60  5.9000000000000D-01  1.2897893367878D+00  3.2451276728339D-01
61  6.0000000000000D-01  1.2714606491259D+00  3.3010646967748D-01
62  6.1000000000000D-01  1.2518459556915D+00  3.3560976263029D-01
63  6.2000000000000D-01  1.2309599744799D+00  3.4118299853546D-01
64  6.3000000000000D-01  1.2088194943965D+00  3.4699042559234D-01
65  6.4000000000000D-01  1.1854436036129D+00  3.5319834914550D-01
66  6.5000000000000D-01  1.1608539118082D+00  3.5997325651369D-01
67  6.6000000000000D-01  1.1350747630849D+00  3.6747992419240D-01
68  6.7000000000000D-01  1.1081334363768D+00  3.7587952658323D-01
69  6.8000000000000D-01  1.0800603302377D+00  3.8532776546656D-01
70  6.9000000000000D-01  1.0508891290022D+00  3.9597303929417D-01
71  7.0000000000000D-01  1.0206569474565D+00  4.0795467102867D-01
72  7.1000000000000D-01  9.8940445133601D-01  4.2140121270178D-01
73  7.2000000000000D-01  9.5717595118222D-01  4.3642884410670D-01
74  7.3000000000000D-01  9.2401946734385D-01  4.5313988208431D-01
75  7.4000000000000D-01  8.8998676418599D-01  4.7162141572828D-01
76  7.5000000000000D-01  8.5513335188468D-01  4.9194408151046D-01
77  7.6000000000000D-01  8.1951845452088D-01  5.1416099085204D-01
78  7.7000000000000D-01  7.8320494354779D-01  5.3830682103814D-01
79  7.8000000000000D-01  7.4625923608545D-01  5.6439707861626D-01
80  7.9000000000000D-01  7.0875115789018D-01  5.9242754255252D-01
81  8.0000000000000D-01  6.7075377125136D-01  6.2237389246371D-01
82  8.1000000000000D-01  6.3234316847819D-01  6.5419152522273D-01
83  8.2000000000000D-01  5.9359823205020D-01  6.8781556117096D-01
84  8.3000000000000D-01  5.5460036291168D-01  7.2316103909589D-01
85  8.4000000000000D-01  5.1543317878718D-01  7.6012329706104D-01
86  8.5000000000000D-01  4.7618218477767D-01  7.9857853414471D-01
87  8.6000000000000D-01  4.3693441885823D-01  8.3838454617711D-01
88  8.7000000000000D-01  3.9777807523459D-01  8.7938162668694D-01
89  8.8000000000000D-01  3.5880210882230D-01  9.2139362250675D-01
90  8.9000000000000D-01  3.2009582438218D-01  9.6422913186499D-01
91  9.0000000000000D-01  2.8174845407707D-01  1.0076828313388D+00
92  9.1000000000000D-01  2.4384872740112D-01  1.0515369167714D+00
93  9.2000000000000D-01  2.0648443757236D-01  1.0955626421961D+00
94  9.3000000000000D-01  1.6974200856665D-01  1.1395219399729D+00
95  9.4000000000000D-01  1.3370606700518D-01  1.1831691047482D+00
96  9.5000000000000D-01  9.8459023085995D-02  1.2262525235047D+00
97  9.6000000000000D-01  6.4080664670508D-02  1.2685164338832D+00
98  9.7000000000000D-01  3.0647768498505D-02  1.3097026931497D+00
99  9.8000000000000D-01 -1.7662676901906D-03  1.3495525406276D+00
100  9.9000000000000D-01 -3.3091768600631D-02  1.3878083371358D+00
101  1.0000000000000D+00 -6.3263097186042D-02  1.4242152659885D+00
102  1.0100000000000D+00 -9.2218939939326D-02  1.4585229812615D+00
103  1.0200000000000D+00 -1.1990255924357D-01  1.4904871905987D+00
104  1.0300000000000D+00 -1.4626201079017D-01  1.5198711614544D+00
105  1.0400000000000D+00 -1.7125032457857D-01  1.5464471415661D+00
106  1.0500000000000D+00 -1.9482564854273D-01  1.5699976864958D+00
107  1.0600000000000D+00 -2.1695135443181D-01  1.5903168893427D+00
108  1.0700000000000D+00 -2.3759610609745D-01  1.6072115097867D+00
109  1.0800000000000D+00 -2.5673389101729D-01  1.6205020022944D+00
110  1.0900000000000D+00 -2.7434401642482D-01  1.6300234454555D+00
111  1.1000000000000D+00 -2.9041107204699D-01  1.6356263769107D+00
112  1.1100000000000D+00 -3.0492486201375D-01  1.6371775405337D+00
113  1.1200000000000D+00 -3.1788030904530D-01  1.6345605546527D+00
114  1.1300000000000D+00 -3.2927733460204D-01  1.6276765123037D+00
115  1.1400000000000D+00 -3.3912071910772D-01  1.6164445260974D+00
116  1.1500000000000D+00 -3.4741994678772D-01  1.6008022318013D+00
117  1.1600000000000D+00 -3.5418903999065D-01  1.5807062658853D+00
118  1.1700000000000D+00 -3.5944638819611D-01  1.5561327332378D+00
119  1.1800000000000D+00 -3.6321457701205D-01  1.5270776812942D+00
120  1.1900000000000D+00 -3.6552022254789D-01  1.4935575967262D+00
121  1.2000000000000D+00 -3.6639381657065D-01  1.4556099403914D+00
122  1.2100000000000D+00 -3.6586958762522D-01  1.4132937345675D+00
123  1.2200000000000D+00 -3.6398538285194D-01  1.3666902137792D+00
124  1.2300000000000D+00 -3.6078257517506D-01  1.3159035499488D+00
125  1.2400000000000D+00 -3.5630599952067D-01  1.2610616567786D+00
126  1.2500000000000D+00 -3.5060392081025D-01  1.2023170734264D+00
127  1.2600000000000D+00 -3.4372803626338D-01  1.1398479262380D+00
128  1.2700000000000D+00 -3.3573351263786D-01  1.0738589570839D+00
129  1.2800000000000D+00 -3.2667905736799D-01  1.0045825982389D+00
130  1.2900000000000D+00 -3.1662702244523D-01  9.3228007302360D-01
131  1.3000000000000D+00 -3.0564353675950D-01  8.5724248515234D-01
132  1.3100000000000D+00 -2.9379865982047D-01  7.7979184544493D-01
133  1.3200000000000D+00 -2.8116655074415D-01  7.0028198941515D-01
134  1.3300000000000D+00 -2.6782564029444D-01  6.1909930799340D-01
135  1.3400000000000D+00 -2.5385879110822D-01  5.3666320015513D-01
136  1.3500000000000D+00 -2.3935343315875D-01  4.5342616595289D-01
137  1.3600000000000D+00 -2.2440165017220D-01  3.6987340068701D-01
138  1.3700000000000D+00 -2.0910019460251D-01  2.8652176059542D-01
139  1.3800000000000D+00 -1.9355040609650D-01  2.0391795682126D-01
140  1.3900000000000D+00 -1.7785799444750D-01  1.2263576347715D-01
141  1.4000000000000D+00 -1.6213265793874D-01  4.3272076047598D-02
142  1.4100000000000D+00 -1.4648749009074D-01 -3.3558434675762D-02
143  1.4200000000000D+00 -1.3103812504684D-01 -1.0723034228506D-01
144  1.4300000000000D+00 -1.1590157836287D-01 -1.7711639366355D-01
145  1.4400000000000D+00 -1.0119470703905D-01 -2.4259875107223D-01
146  1.4500000000000D+00 -8.7032239378716D-02 -3.0308281459538D-01
147  1.4600000000000D+00 -7.3524257268176D-02 -3.5801429354349D-01
148  1.4700000000000D+00 -6.0773267844542D-02 -4.0689846767193D-01
149  1.4800000000000D+00 -4.8869877126981D-02 -4.4932820735195D-01
150  1.4900000000000D+00 -3.7890157112785D-02 -4.8499981164629D-01
151  1.5000000000000D+00 -2.7886733679264D-02 -5.1376994838152D-01
152  1.5100000000000D+00 -1.8883324260837D-02 -5.3568885610252D-01
153  1.5200000000000D+00 -1.0879478718958D-02 -5.5096066632932D-01
154  1.5300000000000D+00 -3.8554271408148D-03 -5.5990592285447D-01
155  1.5400000000000D+00  2.2164697803539D-03 -5.6288225550611D-01
156  1.5500000000000D+00  7.3688010613311D-03 -5.6026407138088D-01
157  1.5600000000000D+00  1.1641471150272D-02 -5.5246024803401D-01
158  1.5700000000000D+00  1.5080138982328D-02 -5.3990393318505D-01
159  1.5800000000000D+00  1.7735753607650D-02 -5.2305017717456D-01
160  1.5900000000000D+00  1.9663800746295D-02 -5.0237166742301D-01
161  1.6000000000000D+00  2.0923621688254D-02 -4.7835501860352D-01
162  1.6100000000000D+00  2.1577685756299D-02 -4.5149679593150D-01
163  1.6200000000000D+00  2.1690842418476D-02 -4.2229943793604D-01
164  1.6300000000000D+00  2.1329563298607D-02 -3.9126714050181D-01
165  1.6400000000000D+00  2.0561177614065D-02 -3.5890171542115D-01
166  1.6500000000000D+00  1.9453107044035D-02 -3.2569845464463D-01
167  1.6600000000000D+00  1.8072108635741D-02 -2.9214204766575D-01
168  1.6700000000000D+00  1.6483532083906D-02 -2.5870258475163D-01
169  1.6800000000000D+00  1.4750597187722D-02 -2.2583167596842D-01
170  1.6900000000000D+00  1.2933698462768D-02 -1.9395872273772D-01
171  1.7000000000000D+00  1.1089742229113D-02 -1.6348736986028D-01
172  1.7100000000000D+00  9.2715229931076D-03 -1.3479217368757D-01
173  1.7200000000000D+00  7.5271431391338D-03 -1.0821550751148D-01
174  1.7300000000000D+00  5.8994829535019D-03 -8.4064740974767D-02
175  1.7400000000000D+00  4.4261532392534D-03 -6.2615714514476D-02
176  1.7500000000000D+00  3.1381341156783D-03 -4.4097346728180D-02
177  1.7600000000000D+00  2.0558055227616D-03 -2.8641326585409D-02
178  1.7700000000000D+00  1.1971747219983D-03 -1.6398127900708D-02
179  1.7800000000000D+00  5.9423839391973D-04 -7.7399694833414D-03
180  1.7900000000000D+00  2.5232009195551D-04 -2.7261959969214D-03
181  1.8000000000000D+00  9.2943988479363D-05 -4.6047404839396D-04
182  1.8100000000000D+00  2.4303518827463D-05  1.6657681033419D-04
183  1.8200000000000D+00  1.9373073373586D-06  5.4146817958300D-05
184  1.8300000000000D+00 -1.0317019829948D-06 -7.6631149302620D-05
185  1.8400000000000D+00 -8.9475065280137D-08 -4.2636704820679D-05
186  1.8500000000000D+00  4.7271287952611D-07  1.0149251417934D-05
187  1.8600000000000D+00  3.5753133954258D-07  1.0005541193009D-05
188  1.8700000000000D+00 -1.3492825858218D-07  5.8656531435751D-07
189  1.8800000000000D+00 -2.2325933202302D-07  9.7056155357976D-07
190  1.8900000000000D+00  0.0000000000000D+00  0.0000000000000D+00
191  1.9000000000000D+00  0.0000000000000D+00  0.0000000000000D+00
192  1.9100000000000D+00  0.0000000000000D+00  0.0000000000000D+00
193  1.9200000000000D+00  0.0000000000000D+00  0.0000000000000D+00
194  1.9300000000000D+00  0.0000000000000D+00  0.0000000000000D+00
195  1.9400000000000D+00  0.0000000000000D+00  0.0000000000000D+00
196  1.9500000000000D+00  0.0000000000000D+00  0.0000000000000D+00
197  1.9600000000000D+00  0.0000000000000D+00  0.0000000000000D+00
198  1.9700000000000D+00  0.0000000000000D+00  0.0000000000000D+00
199  1.9800000000000D+00  0.0000000000000D+00  0.0000000000000D+00
200  1.9900000000000D+00  0.0000000000000D+00  0.0000000000000D+00
201  2.0000000000000D+00  0.0000000000000D+00  0.0000000000000D+00
202  2.0100000000000D+00  0.0000000000000D+00  0.0000000000000D+00
203  2.0200000000000D+00  0.0000000000000D+00  0.0000000000000D+00
204  2.0300000000000D+00  0.0000000000000D+00  0.0000000000000D+00
205  2.0400000000000D+00  0.0000000000000D+00  0.0000000000000D+00
206  2.0500000000000D+00  0.0000000000000D+00  0.0000000000000D+00
207  2.0600000000000D+00  0.0000000000000D+00  0.0000000000000D+00
208  2.0700000000000D+00  0.0000000000000D+00  0.0000000000000D+00
209  2.0800000000000D+00  0.0000000000000D+00  0.0000000000000D+00
210  2.0900000000000D+00  0.0000000000000D+00  0.0000000000000D+00
211  2.1000000000000D+00  0.0000000000000D+00  0.0000000000000D+00
212  2.1100000000000D+00  0.0000000000000D+00  0.0000000000000D+00
213  2.1200000000000D+00  0.0000000000000D+00  0.0000000000000D+00
214  2.1300000000000D+00  0.0000000000000D+00  0.0000000000000D+00
215  2.1400000000000D+00  0.0000000000000D+00  0.0000000000000D+00
216  2.1500000000000D+00  0.0000000000000D+00  0.0000000000000D+00
217  2.1600000000000D+00  0.0000000000000D+00  0.0000000000000D+00
218  2.1700000000000D+00  0.0000000000000D+00  0.0000000000000D+00
219  2.1800000000000D+00  0.0000000000000D+00  0.0000000000000D+00
220  2.1900000000000D+00  0.0000000000000D+00  0.0000000000000D+00
221  2.2000000000000D+00  0.0000000000000D+00  0.0000000000000D+00
222  2.2100000000000D+00  0.0000000000000D+00  0.0000000000000D+00
223  2.2200000000000D+00  0.0000000000000D+00  0.0000000000000D+00
224  2.2300000000000D+00  0.0000000000000D+00  0.0000000000000D+00
225  2.2400000000000D+00  0.0000000000000D+00  0.0000000000000D+00
226  2.2500000000000D+00  0.0000000000000D+00  0.0000000000000D+00
227  2.2600000000000D+00  0.0000000000000D+00  0.0000000000000D+00
228  2.2700000000000D+00  0.0000000000000D+00  0.0000000000000D+00
229  2.2800000000000D+00  0.0000000000000D+00  0.0000000000000D+00
230  2.2900000000000D+00  0.0000000000000D+00  0.0000000000000D+00
231  2.3000000000000D+00  0.0000000000000D+00  0.0000000000000D+00
232  2.3100000000000D+00  0.0000000000000D+00  0.0000000000000D+00
233  2.3200000000000D+00  0.0000000000000D+00  0.0000000000000D+00
234  2.3300000000000D+00  0.0000000000000D+00  0.0000000000000D+00
235  2.3400000000000D+00  0.0000000000000D+00  0.0000000000000D+00
236  2.3500000000000D+00  0.0000000000000D+00  0.0000000000000D+00
237  2.3600000000000D+00  0.0000000000000D+00  0.0000000000000D+00
238  2.3700000000000D+00  0.0000000000000D+00  0.0000000000000D+00
239  2.3800000000000D+00  0.0000000000000D+00  0.0000000000000D+00
240  2.3900000000000D+00  0.0000000000000D+00  0.0000000000000D+00
241  2.4000000000000D+00  0.0000000000000D+00  0.0000000000000D+00
242  2.4100000000000D+00  0.0000000000000D+00  0.0000000000000D+00
243  2.4200000000000D+00  0.0000000000000D+00  0.0000000000000D+00
244  2.4300000000000D+00  0.0000000000000D+00  0.0000000000000D+00
245  2.4400000000000D+00  0.0000000000000D+00  0.0000000000000D+00
246  2.4500000000000D+00  0.0000000000000D+00  0.0000000000000D+00
247  2.4600000000000D+00  0.0000000000000D+00  0.0000000000000D+00
248  2.4700000000000D+00  0.0000000000000D+00  0.0000000000000D+00
249  2.4800000000000D+00  0.0000000000000D+00  0.0000000000000D+00
250  2.4900000000000D+00  0.0000000000000D+00  0.0000000000000D+00
251  2.5000000000000D+00  0.0000000000000D+00  0.0000000000000D+00
252  2.5100000000000D+00  0.0000000000000D+00  0.0000000000000D+00
253  2.5200000000000D+00  0.0000000000000D+00  0.0000000000000D+00
254  2.5300000000000D+00  0.0000000000000D+00  0.0000000000000D+00
255  2.5400000000000D+00  0.0000000000000D+00  0.0000000000000D+00
256  2.5500000000000D+00  0.0000000000000D+00  0.0000000000000D+00
257  2.5600000000000D+00  0.0000000000000D+00  0.0000000000000D+00
258  2.5700000000000D+00  0.0000000000000D+00  0.0000000000000D+00
259  2.5800000000000D+00  0.0000000000000D+00  0.0000000000000D+00
260  2.5900000000000D+00  0.0000000000000D+00  0.0000000000000D+00
261  2.6000000000000D+00  0.0000000000000D+00  0.0000000000000D+00
262  2.6100000000000D+00  0.0000000000000D+00  0.0000000000000D+00
263  2.6200000000000D+00  0.0000000000000D+00  0.0000000000000D+00
264  2.6300000000000D+00  0.0000000000000D+00  0.0000000000000D+00
265  2.6400000000000D+00  0.0000000000000D+00  0.0000000000000D+00
266  2.6500000000000D+00  0.0000000000000D+00  0.0000000000000D+00
267  2.6600000000000D+00  0.0000000000000D+00  0.0000000000000D+00
268  2.6700000000000D+00  0.0000000000000D+00  0.0000000000000D+00
269  2.6800000000000D+00  0.0000000000000D+00  0.0000000000000D+00
270  2.6900000000000D+00  0.0000000000000D+00  0.0000000000000D+00
271  2.7000000000000D+00  0.0000000000000D+00  0.0000000000000D+00
272  2.7100000000000D+00  0.0000000000000D+00  0.0000000000000D+00
273  2.7200000000000D+00  0.0000000000000D+00  0.0000000000000D+00
274  2.7300000000000D+00  0.0000000000000D+00  0.0000000000000D+00
275  2.7400000000000D+00  0.0000000000000D+00  0.0000000000000D+00
276  2.7500000000000D+00  0.0000000000000D+00  0.0000000000000D+00
277  2.7600000000000D+00  0.0000000000000D+00  0.0000000000000D+00
278  2.7700000000000D+00  0.0000000000000D+00  0.0000000000000D+00
279  2.7800000000000D+00  0.0000000000000D+00  0.0000000000000D+00
280  2.7900000000000D+00  0.0000000000000D+00  0.0000000000000D+00
281  2.8000000000000D+00  0.0000000000000D+00  0.0000000000000D+00
282  2.8100000000000D+00  0.0000000000000D+00  0.0000000000000D+00
283  2.8200000000000D+00  0.0000000000000D+00  0.0000000000000D+00
284  2.8300000000000D+00  0.0000000000000D+00  0.0000000000000D+00
285  2.8400000000000D+00  0.0000000000000D+00  0.0000000000000D+00
286  2.8500000000000D+00  0.0000000000000D+00  0.0000000000000D+00
287  2.8600000000000D+00  0.0000000000000D+00  0.0000000000000D+00
288  2.8700000000000D+00  0.0000000000000D+00  0.0000000000000D+00
289  2.8800000000000D+00  0.0000000000000D+00  0.0000000000000D+00
290  2.8900000000000D+00  0.0000000000000D+00  0.0000000000000D+00
291  2.9000000000000D+00  0.0000000000000D+00  0.0000000000000D+00
292  2.9100000000000D+00  0.0000000000000D+00  0.0000000000000D+00
293  2.9200000000000D+00  0.0000000000000D+00  0.0000000000000D+00
294  2.9300000000000D+00  0.0000000000000D+00  0.0000000000000D+00
295  2.9400000000000D+00  0.0000000000000D+00  0.0000000000000D+00
296  2.9500000000000D+00  0.0000000000000D+00  0.0000000000000D+00
297  2.9600000000000D+00  0.0000000000000D+00  0.0000000000000D+00
298  2.9700000000000D+00  0.0000000000000D+00  0.0000000000000D+00
299  2.9800000000000D+00  0.0000000000000D+00  0.0000000000000D+00
300  2.9900000000000D+00  0.0000000000000D+00  0.0000000000000D+00
301  3.0000000000000D+00  0.0000000000000D+00  0.0000000000000D+00
302  3.0100000000000D+00  0.0000000000000D+00  0.0000000000000D+00
303  3.0200000000000D+00  0.0000000000000D+00  0.0000000000000D+00
304  3.0300000000000D+00  0.0000000000000D+00  0.0000000000000D+00
305  3.0400000000000D+00  0.0000000000000D+00  0.0000000000000D+00
306  3.0500000000000D+00  0.0000000000000D+00  0.0000000000000D+00
307  3.0600000000000D+00  0.0000000000000D+00  0.0000000000000D+00
308  3.0700000000000D+00  0.0000000000000D+00  0.0000000000000D+00
309  3.0800000000000D+00  0.0000000000000D+00  0.0000000000000D+00
310  3.0900000000000D+00  0.0000000000000D+00  0.0000000000000D+00
311  3.1000000000000D+00  0.0000000000000D+00  0.0000000000000D+00
312  3.1100000000000D+00  0.0000000000000D+00  0.0000000000000D+00
313  3.1200000000000D+00  0.0000000000000D+00  0.0000000000000D+00
314  3.1300000000000D+00  0.0000000000000D+00  0.0000000000000D+00
315  3.1400000000000D+00  0.0000000000000D+00  0.0000000000000D+00
316  3.1500000000000D+00  0.0000000000000D+00  0.0000000000000D+00
317  3.1600000000000D+00  0.0000000000000D+00  0.0000000000000D+00
318  3.1700000000000D+00  0.0000000000000D+00  0.0000000000000D+00
319  3.1800000000000D+00  0.0000000000000D+00  0.0000000000000D+00
320  3.1900000000000D+00  0.0000000000000D+00  0.0000000000000D+00
321  3.2000000000000D+00  0.0000000000000D+00  0.0000000000000D+00
322  3.2100000000000D+00  0.0000000000000D+00  0.0000000000000D+00
323  3.2200000000000D+00  0.0000000000000D+00  0.0000000000000D+00
324  3.2300000000000D+00  0.0000000000000D+00  0.0000000000000D+00
325  3.2400000000000D+00  0.0000000000000D+00  0.0000000000000D+00
326  3.2500000000000D+00  0.0000000000000D+00  0.0000000000000D+00
327  3.2600000000000D+00  0.0000000000000D+00  0.0000000000000D+00
328  3.2700000000000D+00  0.0000000000000D+00  0.0000000000000D+00
329  3.2800000000000D+00  0.0000000000000D+00  0.0000000000000D+00
330  3.2900000000000D+00  0.0000000000000D+00  0.0000000000000D+00
331  3.3000000000000D+00  0.0000000000000D+00  0.0000000000000D+00
332  3.3100000000000D+00  0.0000000000000D+00  0.0000000000000D+00
333  3.3200000000000D+00  0.0000000000000D+00  0.0000000000000D+00
334  3.3300000000000D+00  0.0000000000000D+00  0.0000000000000D+00
335  3.3400000000000D+00  0.0000000000000D+00  0.0000000000000D+00
336  3.3500000000000D+00  0.0000000000000D+00  0.0000000000000D+00
337  3.3600000000000D+00  0.0000000000000D+00  0.0000000000000D+00
338  3.3700000000000D+00  0.0000000000000D+00  0.0000000000000D+00
339  3.3800000000000D+00  0.0000000000000D+00  0.0000000000000D+00
340  3.3900000000000D+00  0.0000000000000D+00  0.0000000000000D+00
341  3.4000000000000D+00  0.0000000000000D+00  0.0000000000000D+00
342  3.4100000000000D+00  0.0000000000000D+00  0.0000000000000D+00
343  3.4200000000000D+00  0.0000000000000D+00  0.0000000000000D+00
344  3.4300000000000D+00  0.0000000000000D+00  0.0000000000000D+00
345  3.4400000000000D+00  0.0000000000000D+00  0.0000000000000D+00
346  3.4500000000000D+00  0.0000000000000D+00  0.0000000000000D+00
347  3.4600000000000D+00  0.0000000000000D+00  0.0000000000000D+00
348  3.4700000000000D+00  0.0000000000000D+00  0.0000000000000D+00
349  3.4800000000000D+00  0.0000000000000D+00  0.0000000000000D+00
350  3.4900000000000D+00  0.0000000000000D+00  0.0000000000000D+00
351  3.5000000000000D+00  0.0000000000000D+00  0.0000000000000D+00
352  3.5100000000000D+00  0.0000000000000D+00  0.0000000000000D+00
353  3.5200000000000D+00  0.0000000000000D+00  0.0000000000000D+00
354  3.5300000000000D+00  0.0000000000000D+00  0.0000000000000D+00
355  3.5400000000000D+00  0.0000000000000D+00  0.0000000000000D+00
356  3.5500000000000D+00  0.0000000000000D+00  0.0000000000000D+00
357  3.5600000000000D+00  0.0000000000000D+00  0.0000000000000D+00
358  3.5700000000000D+00  0.0000000000000D+00  0.0000000000000D+00
359  3.5800000000000D+00  0.0000000000000D+00  0.0000000000000D+00
360  3.5900000000000D+00  0.0000000000000D+00  0.0000000000000D+00
361  3.6000000000000D+00  0.0000000000000D+00  0.0000000000000D+00
362  3.6100000000000D+00  0.0000000000000D+00  0.0000000000000D+00
363  3.6200000000000D+00  0.0000000000000D+00  0.0000000000000D+00
364  3.6300000000000D+00  0.0000000000000D+00  0.0000000000000D+00
365  3.6400000000000D+00  0.0000000000000D+00  0.0000000000000D+00
366  3.6500000000000D+00  0.0000000000000D+00  0.0000000000000D+00
367  3.6600000000000D+00  0.0000000000000D+00  0.0000000000000D+00
368  3.6700000000000D+00  0.0000000000000D+00  0.0000000000000D+00
369  3.6800000000000D+00  0.0000000000000D+00  0.0000000000000D+00
370  3.6900000000000D+00  0.0000000000000D+00  0.0000000000000D+00
371  3.7000000000000D+00  0.0000000000000D+00  0.0000000000000D+00
372  3.7100000000000D+00  0.0000000000000D+00  0.0000000000000D+00
373  3.7200000000000D+00  0.0000000000000D+00  0.0000000000000D+00
374  3.7300000000000D+00  0.0000000000000D+00  0.0000000000000D+00
375  3.7400000000000D+00  0.0000000000000D+00  0.0000000000000D+00
376  3.7500000000000D+00  0.0000000000000D+00  0.0000000000000D+00
377  3.7600000000000D+00  0.0000000000000D+00  0.0000000000000D+00
378  3.7700000000000D+00  0.0000000000000D+00  0.0000000000000D+00
379  3.7800000000000D+00  0.0000000000000D+00  0.0000000000000D+00
380  3.7900000000000D+00  0.0000000000000D+00  0.0000000000000D+00
381  3.8000000000000D+00  0.0000000000000D+00  0.0000000000000D+00
382  3.8100000000000D+00  0.0000000000000D+00  0.0000000000000D+00
383  3.8200000000000D+00  0.0000000000000D+00  0.0000000000000D+00
384  3.8300000000000D+00  0.0000000000000D+00  0.0000000000000D+00
385  3.8400000000000D+00  0.0000000000000D+00  0.0000000000000D+00
386  3.8500000000000D+00  0.0000000000000D+00  0.0000000000000D+00
387  3.8600000000000D+00  0.0000000000000D+00  0.0000000000000D+00
388  3.8700000000000D+00  0.0000000000000D+00  0.0000000000000D+00
389  3.8800000000000D+00  0.0000000000000D+00  0.0000000000000D+00
390  3.8900000000000D+00  0.0000000000000D+00  0.0000000000000D+00
391  3.9000000000000D+00  0.0000000000000D+00  0.0000000000000D+00
392  3.9100000000000D+00  0.0000000000000D+00  0.0000000000000D+00
393  3.9200000000000D+00  0.0000000000000D+00  0.0000000000000D+00
394  3.9300000000000D+00  0.0000000000000D+00  0.0000000000000D+00
395  3.9400000000000D+00  0.0000000000000D+00  0.0000000000000D+00
396  3.9500000000000D+00  0.0000000000000D+00  0.0000000000000D+00
397  3.9600000000000D+00  0.0000000000000D+00  0.0000000000000D+00
398  3.9700000000000D+00  0.0000000000000D+00  0.0000000000000D+00
399  3.9800000000000D+00  0.0000000000000D+00  0.0000000000000D+00
400  3.9900000000000D+00  0.0000000000000D+00  0.0000000000000D+00
401  4.0000000000000D+00  0.0000000000000D+00  0.0000000000000D+00
402  4.0100000000000D+00  0.0000000000000D+00  0.0000000000000D+00
403  4.0200000000000D+00  0.0000000000000D+00  0.0000000000000D+00
404  4.0300000000000D+00  0.0000000000000D+00  0.0000000000000D+00
405  4.0400000000000D+00  0.0000000000000D+00  0.0000000000000D+00
406  4.0500000000000D+00  0.0000000000000D+00  0.0000000000000D+00
407  4.0600000000000D+00  0.0000000000000D+00  0.0000000000000D+00
408  4.0700000000000D+00  0.0000000000000D+00  0.0000000000000D+00
409  4.0800000000000D+00  0.0000000000000D+00  0.0000000000000D+00
410  4.0900000000000D+00  0.0000000000000D+00  0.0000000000000D+00
411  4.1000000000000D+00  0.0000000000000D+00  0.0000000000000D+00
412  4.1100000000000D+00  0.0000000000000D+00  0.0000000000000D+00
413  4.1200000000000D+00  0.0000000000000D+00  0.0000000000000D+00
414  4.1300000000000D+00  0.0000000000000D+00  0.0000000000000D+00
415  4.1400000000000D+00  0.0000000000000D+00  0.0000000000000D+00
416  4.1500000000000D+00  0.0000000000000D+00  0.0000000000000D+00
417  4.1600000000000D+00  0.0000000000000D+00  0.0000000000000D+00
418  4.1700000000000D+00  0.0000000000000D+00  0.0000000000000D+00
419  4.1800000000000D+00  0.0000000000000D+00  0.0000000000000D+00
420  4.1900000000000D+00  0.0000000000000D+00  0.0000000000000D+00
421  4.2000000000000D+00  0.0000000000000D+00  0.0000000000000D+00
422  4.2100000000000D+00  0.0000000000000D+00  0.0000000000000D+00
423  4.2200000000000D+00  0.0000000000000D+00  0.0000000000000D+00
424  4.2300000000000D+00  0.0000000000000D+00  0.0000000000000D+00
425  4.2400000000000D+00  0.0000000000000D+00  0.0000000000000D+00
426  4.2500000000000D+00  0.0000000000000D+00  0.0000000000000D+00
427  4.2600000000000D+00  0.0000000000000D+00  0.0000000000000D+00
428  4.2700000000000D+00  0.0000000000000D+00  0.0000000000000D+00
429  4.2800000000000D+00  0.0000000000000D+00  0.0000000000000D+00
430  4.2900000000000D+00  0.0000000000000D+00  0.0000000000000D+00
431  4.3000000000000D+00  0.0000000000000D+00  0.0000000000000D+00
432  4.3100000000000D+00  0.0000000000000D+00  0.0000000000000D+00
433  4.3200000000000D+00  0.0000000000000D+00  0.0000000000000D+00
434  4.3300000000000D+00  0.0000000000000D+00  0.0000000000000D+00
435  4.3400000000000D+00  0.0000000000000D+00  0.0000000000000D+00
436  4.3500000000000D+00  0.0000000000000D+00  0.0000000000000D+00
437  4.3600000000000D+00  0.0000000000000D+00  0.0000000000000D+00
438  4.3700000000000D+00  0.0000000000000D+00  0.0000000000000D+00
439  4.3800000000000D+00  0.0000000000000D+00  0.0000000000000D+00
440  4.3900000000000D+00  0.0000000000000D+00  0.0000000000000D+00
441  4.4000000000000D+00  0.0000000000000D+00  0.0000000000000D+00
442  4.4100000000000D+00  0.0000000000000D+00  0.0000000000000D+00
443  4.4200000000000D+00  0.0000000000000D+00  0.0000000000000D+00