Rh    ONCVPSP  r_core=  1.36  1.36  1.31
45.0000     17.0000      160330    zatom,zion,pspd
8      11   2     4   600     0    pspcod,pspxc,lmax,lloc,mmax,r2well
5.99000000  7.00000000  0.00000000    rchrg fchrg qchrg
2     3     4     0    nproj
3                 extension_switch
4     4     0    nprojso
0                         1.4011154903045D+00  1.9605776669065D+01
1  0.0000000000000D+00 -2.7958874104783D-10  1.2443812646978D-10
2  1.0000000000000D-02 -5.2430344212813D-02  8.8089539958483D-02
3  2.0000000000000D-02 -1.0455686042837D-01  1.7594674929530D-01
4  3.0000000000000D-02 -1.5607686751739D-01  2.6333994424873D-01
5  4.0000000000000D-02 -2.0668997788929D-01  3.5003873472949D-01
6  5.0000000000000D-02 -2.5609924369522D-01  4.3581467100596D-01
7  6.0000000000000D-02 -3.0401230214810D-01  5.2044189011781D-01
8  7.0000000000000D-02 -3.5014251933013D-01  6.0369776177869D-01
9  8.0000000000000D-02 -3.9421013157862D-01  6.8536353340414D-01
10  9.0000000000000D-02 -4.3594338320160D-01  7.6522497374928D-01
11  1.0000000000000D-01 -4.7507965888038D-01  8.4307301446469D-01
12  1.1000000000000D-01 -5.1136660867594D-01  9.1870438868116D-01
13  1.2000000000000D-01 -5.4456326307689D-01  9.9192226551798D-01
14  1.3000000000000D-01 -5.7444113501774D-01  1.0625368791790D+00
15  1.4000000000000D-01 -6.0078530526804D-01  1.1303661510598D+00
16  1.5000000000000D-01 -6.2339548705460D-01  1.1952363030430D+00
17  1.6000000000000D-01 -6.4208706524248D-01  1.2569824599079D+00
18  1.7000000000000D-01 -6.5669210487534D-01  1.3154492385395D+00
19  1.8000000000000D-01 -6.6706032337499D-01  1.3704913213778D+00
20  1.9000000000000D-01 -6.7306002023206D-01  1.4219740113291D+00
21  2.0000000000000D-01 -6.7457895759836D-01  1.4697737651468D+00
22  2.1000000000000D-01 -6.7152518482450D-01  1.5137787021065D+00
23  2.2000000000000D-01 -6.6382779968550D-01  1.5538890846355D+00
24  2.3000000000000D-01 -6.5143763881002D-01  1.5900177674268D+00
25  2.4000000000000D-01 -6.3432788968597D-01  1.6220906114699D+00
26  2.5000000000000D-01 -6.1249461656092D-01  1.6500468593689D+00
27  2.6000000000000D-01 -5.8595719260024D-01  1.6738394682979D+00
28  2.7000000000000D-01 -5.5475863080976D-01  1.6934353969645D+00
29  2.8000000000000D-01 -5.1896580648163D-01  1.7088158430196D+00
30  2.9000000000000D-01 -4.7866956427989D-01  1.7199764274618D+00
31  3.0000000000000D-01 -4.3398470355087D-01  1.7269273227454D+00
32  3.1000000000000D-01 -3.8504983601952D-01  1.7296933215044D+00
33  3.2000000000000D-01 -3.3202711071638D-01  1.7283138430616D+00
34  3.3000000000000D-01 -2.7510180176661D-01  1.7228428751869D+00
35  3.4000000000000D-01 -2.1448175555670D-01  1.7133488489165D+00
36  3.5000000000000D-01 -1.5039669477266D-01  1.6999144446266D+00
37  3.6000000000000D-01 -8.3097377863039D-02  1.6826363279838D+00
38  3.7000000000000D-01 -1.2854613617965D-02  1.6616248148572D+00
39  3.8000000000000D-01  6.0041868244859D-02  1.6370034647687D+00
40  3.9000000000000D-01  1.3528468834180D-01  1.6089086029845D+00
41  4.0000000000000D-01  2.1255022729187D-01  1.5774887718972D+00
42  4.1000000000000D-01  2.9150016902991D-01  1.5429041129118D+00
43  4.2000000000000D-01  3.7178317166663D-01  1.5053256806287D+00
44  4.3000000000000D-01  4.5303665846350D-01  1.4649346917012D+00
45  4.4000000000000D-01  5.3488872017437D-01  1.4219217113319D+00
46  4.5000000000000D-01  6.1696011871927D-01  1.3764857809526D+00
47  4.6000000000000D-01  6.9886638091943D-01  1.3288334912034D+00
48  4.7000000000000D-01  7.8021996984675D-01  1.2791780048749D+00
49  4.8000000000000D-01  8.6063252024405D-01  1.2277380350089D+00
50  4.9000000000000D-01  9.3971712346643D-01  1.1747367838448D+00
51  5.0000000000000D-01  1.0170906464961D+00  1.1204008487635D+00
52  5.1000000000000D-01  1.0923760688000D+00  1.0649591017940D+00
53  5.2000000000000D-01  1.1652048201523D+00  1.0086415496222D+00
54  5.3000000000000D-01  1.2352191020324D+00  9.5167818135361D-01
55  5.4000000000000D-01  1.3020741748523D+00  8.9429781154734D-01
56  5.5000000000000D-01  1.3654405930688D+00  8.3672692623232D-01
57  5.6000000000000D-01  1.4250063701983D+00  7.7918853975315D-01
58  5.7000000000000D-01  1.4804790558917D+00  7.2190107035852D-01
59  5.8000000000000D-01  1.5315877075294D+00  6.6507724244130D-01
60  5.9000000000000D-01  1.5780847392824D+00  6.0892302326424D-01
61  6.0000000000000D-01  1.6197476322372D+00  5.5363660185862D-01
62  6.1000000000000D-01  1.6563804900077D+00  4.9940741756336D-01
63  6.2000000000000D-01  1.6878154252461D+00  4.4641524538273D-01
64  6.3000000000000D-01  1.7139137636180D+00  3.9482934497907D-01
65  6.4000000000000D-01  1.7345670531035D+00  3.4480767969074D-01
66  6.5000000000000D-01  1.7496978679309D+00  2.9649621147253D-01
67  6.6000000000000D-01  1.7592603980222D+00  2.5002827710158D-01
68  6.7000000000000D-01  1.7632408165136D+00  2.0552405038513D-01
69  6.8000000000000D-01  1.7616574197082D+00  1.6309009444294D-01
70  6.9000000000000D-01  1.7545605356915D+00  1.2281900743239D-01
71  7.0000000000000D-01  1.7420321997882D+00  8.4789164336538D-02
72  7.1000000000000D-01  1.7241855970238D+00  4.9064556660989D-02
73  7.2000000000000D-01  1.7011642737940D+00  1.5694731076094D-02
74  7.3000000000000D-01  1.6731411229725D+00 -1.5285172777540D-02
75  7.4000000000000D-01  1.6403171487231D+00 -4.3854285935673D-02
76  7.5000000000000D-01  1.6029200192831D+00 -7.0005776659992D-02
77  7.6000000000000D-01  1.5612024179348D+00 -9.3746522168205D-02
78  7.7000000000000D-01  1.5154402042715D+00 -1.1509668863873D-01
79  7.8000000000000D-01  1.4659303996580D+00 -1.3408922337622D-01
80  7.9000000000000D-01  1.4129890124752D+00 -1.5076926378576D-01
81  8.0000000000000D-01  1.3569487203019D+00 -1.6519346852852D-01
82  8.1000000000000D-01  1.2981564276098D+00 -1.7742927691037D-01
83  8.2000000000000D-01  1.2369707188068D+00 -1.8755410318140D-01
84  8.3000000000000D-01  1.1737592275585D+00 -1.9565447299134D-01
85  8.4000000000000D-01  1.1088959442156D+00 -2.0182510974790D-01
86  8.5000000000000D-01  1.0427584838863D+00 -2.0616797905591D-01
87  8.6000000000000D-01  9.7572533818698D-01 -2.0879129977025D-01
88  8.7000000000000D-01  9.0817313399380D-01 -2.0980853047130D-01
89  8.8000000000000D-01  8.4047392257900D-01 -2.0933734036321D-01
90  8.9000000000000D-01  7.7299252235906D-01 -2.0749857370217D-01
91  9.0000000000000D-01  7.0608393809846D-01 -2.0441521687980D-01
92  9.1000000000000D-01  6.4009087880577D-01 -2.0021137721757D-01
93  9.2000000000000D-01  5.7534139573218D-01 -1.9501128236955D-01
94  9.3000000000000D-01  5.1214666084047D-01 -1.8893830898488D-01
95  9.4000000000000D-01  4.5079890486368D-01 -1.8211404895001D-01
96  9.5000000000000D-01  3.9156953262492D-01 -1.7465742111579D-01
97  9.6000000000000D-01  3.3470743166152D-01 -1.6668383592141D-01
98  9.7000000000000D-01  2.8043748836688D-01 -1.5830441974947D-01
99  9.8000000000000D-01  2.2895932395455D-01 -1.4962530522465D-01
100  9.9000000000000D-01  1.8044626038820D-01 -1.4074699294464D-01
101  1.0000000000000D+00  1.3504452422783D-01 -1.3176378938034D-01
102  1.0100000000000D+00  9.2872694013703D-02 -1.2276332486835D-01
103  1.0200000000000D+00  5.4021394402631D-02 -1.1382615476331D-01
104  1.0300000000000D+00  1.8553237813130D-02 -1.0502544592965D-01
105  1.0400000000000D+00 -1.3496988231110D-02 -9.6426749810504D-02
106  1.0500000000000D+00 -4.2121892186442D-02 -8.8087862452157D-02
107  1.0600000000000D+00 -6.7340814900070D-02 -8.0058770819930D-02
108  1.0700000000000D+00 -8.9198940511200D-02 -7.2381683875358D-02
109  1.0800000000000D+00 -1.0776619347397D-01 -6.5091145933644D-02
110  1.0900000000000D+00 -1.2313593577468D-01 -5.8214228863169D-02
111  1.1000000000000D+00 -1.3542348029587D-01 -5.1770798946703D-02
112  1.1100000000000D+00 -1.4476443884544D-01 -4.5773853192719D-02
113  1.1200000000000D+00 -1.5131292496535D-01 -4.0229919230375D-02
114  1.1300000000000D+00 -1.5523963364214D-01 -3.5139512086657D-02
115  1.1400000000000D+00 -1.5672982139210D-01 -3.0497640572573D-02
116  1.1500000000000D+00 -1.5598121188176D-01 -2.6294355273714D-02
117  1.1600000000000D+00 -1.5320185329376D-01 -2.2515329662416D-02
118  1.1700000000000D+00 -1.4860795464390D-01 -1.9142465369918D-02
119  1.1800000000000D+00 -1.4242172887837D-01 -1.6154512357096D-02
120  1.1900000000000D+00 -1.3486927131491D-01 -1.3527694309917D-02
121  1.2000000000000D+00 -1.2617850201642D-01 -1.1236329493288D-02
122  1.2100000000000D+00 -1.1657720066279D-01 -9.2534372030173D-03
123  1.2200000000000D+00 -1.0629116247629D-01 -7.5513198751347D-03
124  1.2300000000000D+00 -9.5542503001323D-02 -6.1021110605531D-03
125  1.2400000000000D+00 -8.4548138496067D-02 -4.8782797756516D-03
126  1.2500000000000D+00 -7.3518468680484D-02 -3.8530817021282D-03
127  1.2600000000000D+00 -6.2656286251237D-02 -3.0009484072940D-03
128  1.2700000000000D+00 -5.2155952702089D-02 -2.2978025774801D-03
129  1.2800000000000D+00 -4.2202753871402D-02 -1.7213151671436D-03
130  1.2900000000000D+00 -3.2972865752864D-02 -1.2510059346600D-03
131  1.3000000000000D+00 -2.4632293439753D-02 -8.6854991218475D-04
132  1.3100000000000D+00 -1.7340483500372D-02 -5.5701682639792D-04
133  1.3200000000000D+00 -1.1250489672597D-02 -3.0191627253254D-04
134  1.3300000000000D+00 -6.4479508202766D-03 -9.5733989150667D-05
135  1.3400000000000D+00 -3.0809786148570D-03  6.5267132275756D-05
136  1.3500000000000D+00 -1.3225952180589D-03  1.8358835108036D-04
137  1.3600000000000D+00 -5.7919095825356D-04  1.8793515195075D-04
138  1.3700000000000D+00 -1.2706938569218D-04  5.8083646382704D-05
139  1.3800000000000D+00  4.2004877740603D-05 -2.1964190417692D-05
140  1.3900000000000D+00  7.0416921860298D-06 -4.0793308891492D-06
141  1.4000000000000D+00 -1.0660137673646D-05  4.9948801169541D-06
142  1.4100000000000D+00  8.4762509432275D-07 -2.5138338321891D-07
143  1.4200000000000D+00  1.4212467022084D-06 -4.2150451512448D-07
144  1.4300000000000D+00  0.0000000000000D+00  0.0000000000000D+00
145  1.4400000000000D+00  0.0000000000000D+00  0.0000000000000D+00
146  1.4500000000000D+00  0.0000000000000D+00  0.0000000000000D+00
147  1.4600000000000D+00  0.0000000000000D+00  0.0000000000000D+00
148  1.4700000000000D+00  0.0000000000000D+00  0.0000000000000D+00
149  1.4800000000000D+00  0.0000000000000D+00  0.0000000000000D+00
150  1.4900000000000D+00  0.0000000000000D+00  0.0000000000000D+00
151  1.5000000000000D+00  0.0000000000000D+00  0.0000000000000D+00
152  1.5100000000000D+00  0.0000000000000D+00  0.0000000000000D+00
153  1.5200000000000D+00  0.0000000000000D+00  0.0000000000000D+00
154  1.5300000000000D+00  0.0000000000000D+00  0.0000000000000D+00
155  1.5400000000000D+00  0.0000000000000D+00  0.0000000000000D+00
156  1.5500000000000D+00  0.0000000000000D+00  0.0000000000000D+00
157  1.5600000000000D+00  0.0000000000000D+00  0.0000000000000D+00
158  1.5700000000000D+00  0.0000000000000D+00  0.0000000000000D+00
159  1.5800000000000D+00  0.0000000000000D+00  0.0000000000000D+00
160  1.5900000000000D+00  0.0000000000000D+00  0.0000000000000D+00
161  1.6000000000000D+00  0.0000000000000D+00  0.0000000000000D+00
162  1.6100000000000D+00  0.0000000000000D+00  0.0000000000000D+00
163  1.6200000000000D+00  0.0000000000000D+00  0.0000000000000D+00
164  1.6300000000000D+00  0.0000000000000D+00  0.0000000000000D+00
165  1.6400000000000D+00  0.0000000000000D+00  0.0000000000000D+00
166  1.6500000000000D+00  0.0000000000000D+00  0.0000000000000D+00
167  1.6600000000000D+00  0.0000000000000D+00  0.0000000000000D+00
168  1.6700000000000D+00  0.0000000000000D+00  0.0000000000000D+00
169  1.6800000000000D+00  0.0000000000000D+00  0.0000000000000D+00
170  1.6900000000000D+00  0.0000000000000D+00  0.0000000000000D+00
171  1.7000000000000D+00  0.0000000000000D+00  0.0000000000000D+00
172  1.7100000000000D+00  0.0000000000000D+00  0.0000000000000D+00
173  1.7200000000000D+00  0.0000000000000D+00  0.0000000000000D+00
174  1.7300000000000D+00  0.0000000000000D+00  0.0000000000000D+00
175  1.7400000000000D+00  0.0000000000000D+00  0.0000000000000D+00
176  1.7500000000000D+00  0.0000000000000D+00  0.0000000000000D+00
177  1.7600000000000D+00  0.0000000000000D+00  0.0000000000000D+00
178  1.7700000000000D+00  0.0000000000000D+00  0.0000000000000D+00
179  1.7800000000000D+00  0.0000000000000D+00  0.0000000000000D+00
180  1.7900000000000D+00  0.0000000000000D+00  0.0000000000000D+00
181  1.8000000000000D+00  0.0000000000000D+00  0.0000000000000D+00
182  1.8100000000000D+00  0.0000000000000D+00  0.0000000000000D+00
183  1.8200000000000D+00  0.0000000000000D+00  0.0000000000000D+00
184  1.8300000000000D+00  0.0000000000000D+00  0.0000000000000D+00
185  1.8400000000000D+00  0.0000000000000D+00  0.0000000000000D+00
186  1.8500000000000D+00  0.0000000000000D+00  0.0000000000000D+00
187  1.8600000000000D+00  0.0000000000000D+00  0.0000000000000D+00
188  1.8700000000000D+00  0.0000000000000D+00  0.0000000000000D+00
189  1.8800000000000D+00  0.0000000000000D+00  0.0000000000000D+00
190  1.8900000000000D+00  0.0000000000000D+00  0.0000000000000D+00
191  1.9000000000000D+00  0.0000000000000D+00  0.0000000000000D+00
192  1.9100000000000D+00  0.0000000000000D+00  0.0000000000000D+00
193  1.9200000000000D+00  0.0000000000000D+00  0.0000000000000D+00
194  1.9300000000000D+00  0.0000000000000D+00  0.0000000000000D+00
195  1.9400000000000D+00  0.0000000000000D+00  0.0000000000000D+00
196  1.9500000000000D+00  0.0000000000000D+00  0.0000000000000D+00
197  1.9600000000000D+00  0.0000000000000D+00  0.0000000000000D+00
198  1.9700000000000D+00  0.0000000000000D+00  0.0000000000000D+00
199  1.9800000000000D+00  0.0000000000000D+00  0.0000000000000D+00
200  1.9900000000000D+00  0.0000000000000D+00  0.0000000000000D+00
201  2.0000000000000D+00  0.0000000000000D+00  0.0000000000000D+00
202  2.0100000000000D+00  0.0000000000000D+00  0.0000000000000D+00
203  2.0200000000000D+00  0.0000000000000D+00  0.0000000000000D+00
204  2.0300000000000D+00  0.0000000000000D+00  0.0000000000000D+00
205  2.0400000000000D+00  0.0000000000000D+00  0.0000000000000D+00
206  2.0500000000000D+00  0.0000000000000D+00  0.0000000000000D+00
207  2.0600000000000D+00  0.0000000000000D+00  0.0000000000000D+00
208  2.0700000000000D+00  0.0000000000000D+00  0.0000000000000D+00
209  2.0800000000000D+00  0.0000000000000D+00  0.0000000000000D+00
210  2.0900000000000D+00  0.0000000000000D+00  0.0000000000000D+00
211  2.1000000000000D+00  0.0000000000000D+00  0.0000000000000D+00
212  2.1100000000000D+00  0.0000000000000D+00  0.0000000000000D+00
213  2.1200000000000D+00  0.0000000000000D+00  0.0000000000000D+00
214  2.1300000000000D+00  0.0000000000000D+00  0.0000000000000D+00
215  2.1400000000000D+00  0.0000000000000D+00  0.0000000000000D+00
216  2.1500000000000D+00  0.0000000000000D+00  0.0000000000000D+00
217  2.1600000000000D+00  0.0000000000000D+00  0.0000000000000D+00
218  2.1700000000000D+00  0.0000000000000D+00  0.0000000000000D+00
219  2.1800000000000D+00  0.0000000000000D+00  0.0000000000000D+00
220  2.1900000000000D+00  0.0000000000000D+00  0.0000000000000D+00
221  2.2000000000000D+00  0.0000000000000D+00  0.0000000000000D+00
222  2.2100000000000D+00  0.0000000000000D+00  0.0000000000000D+00
223  2.2200000000000D+00  0.0000000000000D+00  0.0000000000000D+00
224  2.2300000000000D+00  0.0000000000000D+00  0.0000000000000D+00
225  2.2400000000000D+00  0.0000000000000D+00  0.0000000000000D+00
226  2.2500000000000D+00  0.0000000000000D+00  0.0000000000000D+00
227  2.2600000000000D+00  0.0000000000000D+00  0.0000000000000D+00
228  2.2700000000000D+00  0.0000000000000D+00  0.0000000000000D+00
229  2.2800000000000D+00  0.0000000000000D+00  0.0000000000000D+00
230  2.2900000000000D+00  0.0000000000000D+00  0.0000000000000D+00
231  2.3000000000000D+00  0.0000000000000D+00  0.0000000000000D+00
232  2.3100000000000D+00  0.0000000000000D+00  0.0000000000000D+00
233  2.3200000000000D+00  0.0000000000000D+00  0.0000000000000D+00
234  2.3300000000000D+00  0.0000000000000D+00  0.0000000000000D+00
235  2.3400000000000D+00  0.0000000000000D+00  0.0000000000000D+00
236  2.3500000000000D+00  0.0000000000000D+00  0.0000000000000D+00
237  2.3600000000000D+00  0.0000000000000D+00  0.0000000000000D+00
238  2.3700000000000D+00  0.0000000000000D+00  0.0000000000000D+00
239  2.3800000000000D+00  0.0000000000000D+00  0.0000000000000D+00
240  2.3900000000000D+00  0.0000000000000D+00  0.0000000000000D+00
241  2.4000000000000D+00  0.0000000000000D+00  0.0000000000000D+00
242  2.4100000000000D+00  0.0000000000000D+00  0.0000000000000D+00
243  2.4200000000000D+00  0.0000000000000D+00  0.0000000000000D+00
244  2.4300000000000D+00  0.0000000000000D+00  0.0000000000000D+00
245  2.4400000000000D+00  0.0000000000000D+00  0.0000000000000D+00
246  2.4500000000000D+00  0.0000000000000D+00  0.0000000000000D+00
247  2.4600000000000D+00  0.0000000000000D+00  0.0000000000000D+00
248  2.4700000000000D+00  0.0000000000000D+00  0.0000000000000D+00
249  2.4800000000000D+00  0.0000000000000D+00  0.0000000000000D+00
250  2.4900000000000D+00  0.0000000000000D+00  0.0000000000000D+00
251  2.5000000000000D+00  0.0000000000000D+00  0.0000000000000D+00
252  2.5100000000000D+00  0.0000000000000D+00  0.0000000000000D+00
253  2.5200000000000D+00  0.0000000000000D+00  0.0000000000000D+00
254  2.5300000000000D+00  0.0000000000000D+00  0.0000000000000D+00
255  2.5400000000000D+00  0.0000000000000D+00  0.0000000000000D+00
256  2.5500000000000D+00  0.0000000000000D+00  0.0000000000000D+00
257  2.5600000000000D+00  0.0000000000000D+00  0.0000000000000D+00
258  2.5700000000000D+00  0.0000000000000D+00  0.0000000000000D+00
259  2.5800000000000D+00  0.0000000000000D+00  0.0000000000000D+00
260  2.5900000000000D+00  0.0000000000000D+00  0.0000000000000D+00
261  2.6000000000000D+00  0.0000000000000D+00  0.0000000000000D+00
262  2.6100000000000D+00  0.0000000000000D+00  0.0000000000000D+00
263  2.6200000000000D+00  0.0000000000000D+00  0.0000000000000D+00
264  2.6300000000000D+00  0.0000000000000D+00  0.0000000000000D+00
265  2.6400000000000D+00  0.0000000000000D+00  0.0000000000000D+00
266  2.6500000000000D+00  0.0000000000000D+00  0.0000000000000D+00
267  2.6600000000000D+00  0.0000000000000D+00  0.0000000000000D+00
268  2.6700000000000D+00  0.0000000000000D+00  0.0000000000000D+00
269  2.6800000000000D+00  0.0000000000000D+00  0.0000000000000D+00
270  2.6900000000000D+00  0.0000000000000D+00  0.0000000000000D+00
271  2.7000000000000D+00  0.0000000000000D+00  0.0000000000000D+00
272  2.7100000000000D+00  0.0000000000000D+00  0.0000000000000D+00
273  2.7200000000000D+00  0.0000000000000D+00  0.0000000000000D+00
274  2.7300000000000D+00  0.0000000000000D+00  0.0000000000000D+00
275  2.7400000000000D+00  0.0000000000000D+00  0.0000000000000D+00
276  2.7500000000000D+00  0.0000000000000D+00  0.0000000000000D+00
277  2.7600000000000D+00  0.0000000000000D+00  0.0000000000000D+00
278  2.7700000000000D+00  0.0000000000000D+00  0.0000000000000D+00
279  2.7800000000000D+00  0.0000000000000D+00  0.0000000000000D+00
280  2.7900000000000D+00  0.0000000000000D+00  0.0000000000000D+00
281  2.8000000000000D+00  0.0000000000000D+00  0.0000000000000D+00
282  2.8100000000000D+00  0.0000000000000D+00  0.0000000000000D+00
283  2.8200000000000D+00  0.0000000000000D+00  0.0000000000000D+00
284  2.8300000000000D+00  0.0000000000000D+00  0.0000000000000D+00
285  2.8400000000000D+00  0.0000000000000D+00  0.0000000000000D+00
286  2.8500000000000D+00  0.0000000000000D+00  0.0000000000000D+00
287  2.8600000000000D+00  0.0000000000000D+00  0.0000000000000D+00
288  2.8700000000000D+00  0.0000000000000D+00  0.0000000000000D+00
289  2.8800000000000D+00  0.0000000000000D+00  0.0000000000000D+00
290  2.8900000000000D+00  0.0000000000000D+00  0.0000000000000D+00
291  2.9000000000000D+00  0.0000000000000D+00  0.0000000000000D+00
292  2.9100000000000D+00  0.0000000000000D+00  0.0000000000000D+00
293  2.9200000000000D+00  0.0000000000000D+00  0.0000000000000D+00
294  2.9300000000000D+00  0.0000000000000D+00  0.0000000000000D+00
295  2.9400000000000D+00  0.0000000000000D+00  0.0000000000000D+00
296  2.9500000000000D+00  0.0000000000000D+00  0.0000000000000D+00
297  2.9600000000000D+00  0.0000000000000D+00  0.0000000000000D+00
298  2.9700000000000D+00  0.0000000000000D+00  0.0000000000000D+00
299  2.9800000000000D+00  0.0000000000000D+00  0.0000000000000D+00
300  2.9900000000000D+00  0.0000000000000D+00  0.0000000000000D+00
301  3.0000000000000D+00  0.0000000000000D+00  0.0000000000000D+00
302  3.0100000000000D+00  0.0000000000000D+00  0.0000000000000D+00
303  3.0200000000000D+00  0.0000000000000D+00  0.0000000000000D+00
304  3.0300000000000D+00  0.0000000000000D+00  0.0000000000000D+00
305  3.0400000000000D+00  0.0000000000000D+00  0.0000000000000D+00
306  3.0500000000000D+00  0.0000000000000D+00  0.0000000000000D+00
307  3.0600000000000D+00  0.0000000000000D+00  0.0000000000000D+00
308  3.0700000000000D+00  0.0000000000000D+00  0.0000000000000D+00
309  3.0800000000000D+00  0.0000000000000D+00  0.0000000000000D+00
310  3.0900000000000D+00  0.0000000000000D+00  0.0000000000000D+00
311  3.1000000000000D+00  0.0000000000000D+00  0.0000000000000D+00
312  3.1100000000000D+00  0.0000000000000D+00  0.0000000000000D+00
313  3.1200000000000D+00  0.0000000000000D+00  0.0000000000000D+00
314  3.1300000000000D+00  0.0000000000000D+00  0.0000000000000D+00
315  3.1400000000000D+00  0.0000000000000D+00  0.0000000000000D+00
316  3.1500000000000D+00  0.0000000000000D+00  0.0000000000000D+00
317  3.1600000000000D+00  0.0000000000000D+00  0.0000000000000D+00
318  3.1700000000000D+00  0.0000000000000D+00  0.0000000000000D+00
319  3.1800000000000D+00  0.0000000000000D+00  0.0000000000000D+00
320  3.1900000000000D+00  0.0000000000000D+00  0.0000000000000D+00
321  3.2000000000000D+00  0.0000000000000D+00  0.0000000000000D+00
322  3.2100000000000D+00  0.0000000000000D+00  0.0000000000000D+00
323  3.2200000000000D+00  0.0000000000000D+00  0.0000000000000D+00
324  3.2300000000000D+00  0.0000000000000D+00  0.0000000000000D+00
325  3.2400000000000D+00  0.0000000000000D+00  0.0000000000000D+00
326  3.2500000000000D+00  0.0000000000000D+00  0.0000000000000D+00
327  3.2600000000000D+00  0.0000000000000D+00  0.0000000000000D+00
328  3.2700000000000D+00  0.0000000000000D+00  0.0000000000000D+00
329  3.2800000000000D+00  0.0000000000000D+00  0.0000000000000D+00
330  3.2900000000000D+00  0.0000000000000D+00  0.0000000000000D+00
331  3.3000000000000D+00  0.0000000000000D+00  0.0000000000000D+00
332  3.3100000000000D+00  0.0000000000000D+00  0.0000000000000D+00
333  3.3200000000000D+00  0.0000000000000D+00  0.0000000000000D+00
334  3.3300000000000D+00  0.0000000000000D+00  0.0000000000000D+00
335  3.3400000000000D+00  0.0000000000000D+00  0.0000000000000D+00
336  3.3500000000000D+00  0.0000000000000D+00  0.0000000000000D+00
337  3.3600000000000D+00  0.0000000000000D+00  0.0000000000000D+00
338  3.3700000000000D+00  0.0000000000000D+00  0.0000000000000D+00
339  3.3800000000000D+00  0.0000000000000D+00  0.0000000000000D+00
340  3.3900000000000D+00  0.0000000000000D+00  0.0000000000000D+00
341  3.4000000000000D+00  0.0000000000000D+00  0.0000000000000D+00
342  3.4100000000000D+00  0.0000000000000D+00  0.0000000000000D+00
343  3.4200000000000D+00  0.0000000000000D+00  0.0000000000000D+00
344  3.4300000000000D+00  0.0000000000000D+00  0.0000000000000D+00
345  3.4400000000000D+00  0.0000000000000D+00  0.0000000000000D+00
346  3.4500000000000D+00  0.0000000000000D+00  0.0000000000000D+00
347  3.4600000000000D+00  0.0000000000000D+00  0.0000000000000D+00
348  3.4700000000000D+00  0.0000000000000D+00  0.0000000000000D+00
349  3.4800000000000D+00  0.0000000000000D+00  0.0000000000000D+00
350  3.4900000000000D+00  0.0000000000000D+00  0.0000000000000D+00
351  3.5000000000000D+00  0.0000000000000D+00  0.0000000000000D+00
352  3.5100000000000D+00  0.0000000000000D+00  0.0000000000000D+00
353  3.5200000000000D+00  0.0000000000000D+00  0.0000000000000D+00
354  3.5300000000000D+00  0.0000000000000D+00  0.0000000000000D+00
355  3.5400000000000D+00  0.0000000000000D+00  0.0000000000000D+00
356  3.5500000000000D+00  0.0000000000000D+00  0.0000000000000D+00
357  3.5600000000000D+00  0.0000000000000D+00  0.0000000000000D+00
358  3.5700000000000D+00  0.0000000000000D+00  0.0000000000000D+00
359  3.5800000000000D+00  0.0000000000000D+00  0.0000000000000D+00
360  3.5900000000000D+00  0.0000000000000D+00  0.0000000000000D+00
361  3.6000000000000D+00  0.0000000000000D+00  0.0000000000000D+00
362  3.6100000000000D+00  0.0000000000000D+00  0.0000000000000D+00
363  3.6200000000000D+00  0.0000000000000D+00  0.0000000000000D+00
364  3.6300000000000D+00  0.0000000000000D+00  0.0000000000000D+00
365  3.6400000000000D+00  0.0000000000000D+00  0.0000000000000D+00
366  3.6500000000000D+00  0.0000000000000D+00  0.0000000000000D+00
367  3.6600000000000D+00  0.0000000000000D+00  0.0000000000000D+00
368  3.6700000000000D+00  0.0000000000000D+00  0.0000000000000D+00
369  3.6800000000000D+00  0.0000000000000D+00  0.0000000000000D+00
370  3.6900000000000D+00  0.0000000000000D+00  0.0000000000000D+00
371  3.7000000000000D+00  0.0000000000000D+00  0.0000000000000D+00
372  3.7100000000000D+00  0.0000000000000D+00  0.0000000000000D+00
373  3.7200000000000D+00  0.0000000000000D+00  0.0000000000000D+00
374  3.7300000000000D+00  0.0000000000000D+00  0.0000000000000D+00
375  3.7400000000000D+00  0.0000000000000D+00  0.0000000000000D+00
376  3.7500000000000D+00  0.0000000000000D+00  0.0000000000000D+00
377  3.7600000000000D+00  0.0000000000000D+00  0.0000000000000D+00
378  3.7700000000000D+00  0.0000000000000D+00  0.0000000000000D+00
379  3.7800000000000D+00  0.0000000000000D+00  0.0000000000000D+00
380  3.7900000000000D+00  0.0000000000000D+00  0.0000000000000D+00
381  3.8000000000000D+00  0.0000000000000D+00  0.0000000000000D+00
382  3.8100000000000D+00  0.0000000000000D+00  0.0000000000000D+00
383  3.8200000000000D+00  0.0000000000000D+00  0.0000000000000D+00
384  3.8300000000000D+00  0.0000000000000D+00  0.0000000000000D+00
385  3.8400000000000D+00  0.0000000000000D+00  0.0000000000000D+00
386  3.8500000000000D+00  0.0000000000000D+00  0.0000000000000D+00
387  3.8600000000000D+00  0.0000000000000D+00  0.0000000000000D+00
388  3.8700000000000D+00  0.0000000000000D+00  0.0000000000000D+00
389  3.8800000000000D+00  0.0000000000000D+00  0.0000000000000D+00
390  3.8900000000000D+00  0.0000000000000D+00  0.0000000000000D+00
391  3.9000000000000D+00  0.0000000000000D+00  0.0000000000000D+00
392  3.9100000000000D+00  0.0000000000000D+00  0.0000000000000D+00
393  3.9200000000000D+00  0.0000000000000D+00  0.0000000000000D+00
394  3.9300000000000D+00  0.0000000000000D+00  0.0000000000000D+00
395  3.9400000000000D+00  0.0000000000000D+00  0.0000000000000D+00
396  3.9500000000000D+00  0.0000000000000D+00  0.0000000000000D+00
397  3.9600000000000D+00  0.0000000000000D+00  0.0000000000000D+00
398  3.9700000000000D+00  0.0000000000000D+00  0.0000000000000D+00
399  3.9800000000000D+00  0.0000000000000D+00  0.0000000000000D+00
400  3.9900000000000D+00  0.0000000000000D+00  0.0000000000000D+00
401  4.0000000000000D+00  0.0000000000000D+00  0.0000000000000D+00
402  4.0100000000000D+00  0.0000000000000D+00  0.0000000000000D+00
403  4.0200000000000D+00  0.0000000000000D+00  0.0000000000000D+00
404  4.0300000000000D+00  0.0000000000000D+00  0.0000000000000D+00
405  4.0400000000000D+00  0.0000000000000D+00  0.0000000000000D+00
406  4.0500000000000D+00  0.0000000000000D+00  0.0000000000000D+00
407  4.0600000000000D+00  0.0000000000000D+00  0.0000000000000D+00
408  4.0700000000000D+00  0.0000000000000D+00  0.0000000000000D+00
409  4.0800000000000D+00  0.0000000000000D+00  0.0000000000000D+00
410  4.0900000000000D+00  0.0000000000000D+00  0.0000000000000D+00
411  4.1000000000000D+00  0.0000000000000D+00  0.0000000000000D+00
412  4.1100000000000D+00  0.0000000000000D+00  0.0000000000000D+00
413  4.1200000000000D+00  0.0000000000000D+00  0.0000000000000D+00
414  4.1300000000000D+00  0.0000000000000D+00  0.0000000000000D+00
415  4.1400000000000D+00  0.0000000000000D+00  0.0000000000000D+00
416  4.1500000000000D+00  0.0000000000000D+00  0.0000000000000D+00
417  4.1600000000000D+00  0.0000000000000D+00  0.0000000000000D+00
418  4.1700000000000D+00  0.0000000000000D+00  0.0000000000000D+00
419  4.1800000000000D+00  0.0000000000000D+00  0.0000000000000D+00
420  4.1900000000000D+00  0.0000000000000D+00  0.0000000000000D+00
421  4.2000000000000D+00  0.0000000000000D+00  0.0000000000000D+00
422  4.2100000000000D+00  0.0000000000000D+00  0.0000000000000D+00
423  4.2200000000000D+00  0.0000000000000D+00  0.0000000000000D+00
424  4.2300000000000D+00  0.0000000000000D+00  0.0000000000000D+00
425  4.2400000000000D+00  0.0000000000000D+00  0.0000000000000D+00
426  4.2500000000000D+00  0.0000000000000D+00  0.0000000000000D+00
427  4.2600000000000D+00  0.0000000000000D+00  0.0000000000000D+00
428  4.2700000000000D+00  0.0000000000000D+00  0.0000000000000D+00
429  4.2800000000000D+00  0.0000000000000D+00  0.0000000000000D+00
430  4.2900000000000D+00  0.0000000000000D+00  0.0000000000000D+00
431  4.3000000000000D+00  0.0000000000000D+00  0.0000000000000D+00
432  4.3100000000000D+00  0.0000000000000D+00  0.0000000000000D+00
433  4.3200000000000D+00  0.0000000000000D+00  0.0000000000000D+00
434  4.3300000000000D+00  0.0000000000000D+00  0.0000000000000D+00
435  4.3400000000000D+00  0.0000000000000D+00  0.0000000000000D+00
436  4.3500000000000D+00  0.0000000000000D+00  0.0000000000000D+00
437  4.3600000000000D+00  0.0000000000000D+00  0.0000000000000D+00
438  4.3700000000000D+00  0.0000000000000D+00  0.0000000000000D+00
439  4.3800000000000D+00  0.0000000000000D+00  0.0000000000000D+00
440  4.3900000000000D+00  0.0000000000000D+00  0.0000000000000D+00
441  4.4000000000000D+00  0.0000000000000D+00  0.0000000000000D+00
442  4.4100000000000D+00  0.0000000000000D+00  0.0000000000000D+00
443  4.4200000000000D+00  0.0000000000000D+00  0.0000000000000D+00