Sn    ONCVPSP-3.2.3  r_core=   1.31325   1.31325   1.51535
50.0000     22.0000      161219    zatom,zion,pspd
8   -1012   2     4   600     0    pspcod,pspxc,lmax,lloc,mmax,r2well
5.99000000  3.50000000  0.00000000    rchrg fchrg qchrg
2     2     2     0     0    nproj
1     1           extension_switch
0                         9.7466452382688D+00 -5.8516172259257D-01
1  0.0000000000000D+00  6.2766458697183D-12 -1.0698085195493D-08
2  1.0000000000000D-02  8.4808054785769D-02  7.9850320933231D-02
3  2.0000000000000D-02  1.6939745935937D-01  1.5894472418461D-01
4  3.0000000000000D-02  2.5355021298924D-01  2.3653706196009D-01
5  4.0000000000000D-02  3.3704961234599D-01  3.1190056684992D-01
6  5.0000000000000D-02  4.1968089630446D-01  3.8433714633793D-01
7  6.0000000000000D-02  5.0123188606209D-01  4.5318621026943D-01
8  7.0000000000000D-02  5.8149361900472D-01  5.1783288841492D-01
9  8.0000000000000D-02  6.6026097474476D-01  5.7771550596516D-01
10  9.0000000000000D-02  7.3733329174904D-01  6.3233219781021D-01
11  1.0000000000000D-01  8.1251497296523D-01  6.8124655756435D-01
12  1.1000000000000D-01  8.8561607884712D-01  7.2409223423458D-01
13  1.2000000000000D-01  9.5645290616940D-01  7.6057640789606D-01
14  1.3000000000000D-01  1.0248485510139D+00  7.9048209540846D-01
15  1.4000000000000D-01  1.0906334543007D+00  8.1366925773745D-01
16  1.5000000000000D-01  1.1536459282307D+00  8.3007470147184D-01
17  1.6000000000000D-01  1.2137326620002D+00  8.3971078827854D-01
18  1.7000000000000D-01  1.2707492051453D+00  8.4266298693948D-01
19  1.8000000000000D-01  1.3245604268755D+00  8.3908632289442D-01
20  1.9000000000000D-01  1.3750409497550D+00  8.2920079950907D-01
21  2.0000000000000D-01  1.4220755561052D+00  8.1328588325475D-01
22  2.1000000000000D-01  1.4655595655083D+00  7.9167416129668D-01
23  2.2000000000000D-01  1.5053991818168D+00  7.6474429435078D-01
24  2.3000000000000D-01  1.5415118080968D+00  7.3291339981735D-01
25  2.4000000000000D-01  1.5738263279671D+00  6.9662900991041D-01
26  2.5000000000000D-01  1.6022833518404D+00  6.5636075659269D-01
27  2.6000000000000D-01  1.6268354266222D+00  6.1259193945650D-01
28  2.7000000000000D-01  1.6474472074842D+00  5.6581113417642D-01
29  2.8000000000000D-01  1.6640955904035D+00  5.1650399775700D-01
30  2.9000000000000D-01  1.6767698042409D+00  4.6514542252338D-01
31  3.0000000000000D-01  1.6854714612254D+00  4.1219218371644D-01
32  3.1000000000000D-01  1.6902145648236D+00  3.5807621577068D-01
33  3.2000000000000D-01  1.6910254740907D+00  3.0319864003908D-01
34  3.3000000000000D-01  1.6879428237346D+00  2.4792465208863D-01
35  3.4000000000000D-01  1.6810173992735D+00  1.9257935998316D-01
36  3.5000000000000D-01  1.6703119668262D+00  1.3744464648212D-01
37  3.6000000000000D-01  1.6559010572515D+00  8.2757108146476D-02
38  3.7000000000000D-01  1.6378707045381D+00  2.8707103309244D-02
39  3.8000000000000D-01  1.6163181385492D+00 -2.4561080883340D-02
40  3.9000000000000D-01  1.5913514324374D+00 -7.6947954227749D-02
41  4.0000000000000D-01  1.5630891052692D+00 -1.2839647587606D-01
42  4.1000000000000D-01  1.5316596806339D+00 -1.7888868876878D-01
43  4.2000000000000D-01  1.4972012022534D+00 -2.2844141206471D-01
44  4.3000000000000D-01  1.4598607078620D+00 -2.7710108687660D-01
45  4.4000000000000D-01  1.4197936628824D+00 -3.2493788830249D-01
46  4.5000000000000D-01  1.3771633556836D+00 -3.7203923242780D-01
47  4.6000000000000D-01  1.3321402564743D+00 -4.1850282034729D-01
48  4.7000000000000D-01  1.2849013421445D+00 -4.6442937204907D-01
49  4.8000000000000D-01  1.2356293896350D+00 -5.0991521098038D-01
50  4.9000000000000D-01  1.1845122406680D+00 -5.5504486509614D-01
51  5.0000000000000D-01  1.1317420409242D+00 -5.9988385204972D-01
52  5.1000000000000D-01  1.0775144569917D+00 -6.4447181484083D-01
53  5.2000000000000D-01  1.0220278746400D+00 -6.8881616967356D-01
54  5.3000000000000D-01  9.6548258218413D-01 -7.3288642004759D-01
55  5.4000000000000D-01  9.0807994289952D-01 -7.7660928029078D-01
56  5.5000000000000D-01  8.5002156062078D-01 -8.1986473800718D-01
57  5.6000000000000D-01  7.9150844280744D-01 -8.6248316850669D-01
58  5.7000000000000D-01  7.3274016548397D-01 -9.0424359536257D-01
59  5.8000000000000D-01  6.7391404455605D-01 -9.4487317031651D-01
60  5.9000000000000D-01  6.1522431806974D-01 -9.8404792289220D-01
61  6.0000000000000D-01  5.5686134401127D-01 -1.0213948060529D+00
62  6.1000000000000D-01  4.9901081824230D-01 -1.0564950390204D+00
63  6.2000000000000D-01  4.4185301712582D-01 -1.0888887229209D+00
64  6.3000000000000D-01  3.8556206932162D-01 -1.1180806791957D+00
65  6.4000000000000D-01  3.3030526111484D-01 -1.1435474355811D+00
66  6.5000000000000D-01  2.7624237948898D-01 -1.1647452602311D+00
67  6.6000000000000D-01  2.2352509696191D-01 -1.1811191215825D+00
68  6.7000000000000D-01  1.7229640197420D-01 -1.1921124305506D+00
69  6.8000000000000D-01  1.2269007835283D-01 -1.1971774028347D+00
70  6.9000000000000D-01  7.4830237069359D-02 -1.1957858628399D+00
71  7.0000000000000D-01  2.8830903175787D-02 -1.1874402975530D+00
72  7.1000000000000D-01 -1.5204339567647D-02 -1.1716849587261D+00
73  7.2000000000000D-01 -5.7182644255040D-02 -1.1481168052688D+00
74  7.3000000000000D-01 -9.7022134895407D-02 -1.1163960749752D+00
75  7.4000000000000D-01 -1.3465207772340D-01 -1.0762562757681D+00
76  7.5000000000000D-01 -1.7001298897745D-01 -1.0275133915343D+00
77  7.6000000000000D-01 -2.0305667884135D-01 -9.7007410637207D-01
78  7.7000000000000D-01 -2.3374623173389D-01 -9.0394286357217D-01
79  7.8000000000000D-01 -2.6205592362392D-01 -8.2922759169826D-01
80  7.9000000000000D-01 -2.8797107754295D-01 -7.4614394967078D-01
81  8.0000000000000D-01 -3.1148785895455D-01 -6.5501796524117D-01
82  8.1000000000000D-01 -3.3261301311790D-01 -5.5628696654818D-01
83  8.2000000000000D-01 -3.5136354704506D-01 -4.5049873405459D-01
84  8.3000000000000D-01 -3.6776635909271D-01 -3.3830882965269D-01
85  8.4000000000000D-01 -3.8185781964451D-01 -2.2047609060452D-01
86  8.5000000000000D-01 -3.9368330672497D-01 -9.7856307721315D-02
87  8.6000000000000D-01 -4.0329670073458D-01  2.8605860763010D-02
88  8.7000000000000D-01 -4.1075984280584D-01  1.5788665636910D-01
89  8.8000000000000D-01 -4.1614196154533D-01  2.8889455436435D-01
90  8.9000000000000D-01 -4.1951907314607D-01  4.2048302073370D-01
91  9.0000000000000D-01 -4.2097336002283D-01  5.5146452061950D-01
92  9.1000000000000D-01 -4.2059253323976D-01  6.8062558149378D-01
93  9.2000000000000D-01 -4.1846918406144D-01  8.0674269203092D-01
94  9.3000000000000D-01 -4.1470012996552D-01  9.2859879872416D-01
95  9.4000000000000D-01 -4.0938576040561D-01  1.0450001471211D+00
96  9.5000000000000D-01 -4.0262938750837D-01  1.1547932034601D+00
97  9.6000000000000D-01 -3.9453660672768D-01  1.2568813858120D+00
98  9.7000000000000D-01 -3.8521467226995D-01  1.3502413314996D+00
99  9.8000000000000D-01 -3.7477189183495D-01  1.4339384300784D+00
100  9.9000000000000D-01 -3.6331704490869D-01  1.5071413582207D+00
101  1.0000000000000D+00 -3.5095882848687D-01  1.5691353645351D+00
102  1.0100000000000D+00 -3.3780533371117D-01  1.6193340685152D+00
103  1.0200000000000D+00 -3.2396355647023D-01  1.6572895581171D+00
104  1.0300000000000D+00 -3.0953894453990D-01  1.6827005958339D+00
105  1.0400000000000D+00 -2.9463498338902D-01  1.6954187686605D+00
106  1.0500000000000D+00 -2.7935282222054D-01  1.6954524516490D+00
107  1.0600000000000D+00 -2.6379094133614D-01  1.6829684864349D+00
108  1.0700000000000D+00 -2.4804486137906D-01  1.6582915125735D+00
109  1.0800000000000D+00 -2.3220689446506D-01  1.6219009288634D+00
110  1.0900000000000D+00 -2.1636593675509D-01  1.5744254957050D+00
111  1.1000000000000D+00 -2.0060730145324D-01  1.5166356334972D+00
112  1.1100000000000D+00 -1.8501259077453D-01  1.4494335073921D+00
113  1.1200000000000D+00 -1.6965960495526D-01  1.3738410274844D+00
114  1.1300000000000D+00 -1.5462228597487D-01  1.2909859277581D+00
115  1.1400000000000D+00 -1.3997069327727D-01  1.2020861200169D+00
116  1.1500000000000D+00 -1.2577100840380D-01  1.1084325529162D+00
117  1.1600000000000D+00 -1.1208556519063D-01  1.0113708303897D+00
118  1.1700000000000D+00 -9.8972901949784D-02  9.1228186597827D-01
119  1.1800000000000D+00 -8.6487831839034D-02  8.1256187061341D-01
120  1.1900000000000D+00 -7.4681527493472D-02  7.1360198603722D-01
121  1.2000000000000D+00 -6.3601615955767D-02  6.1676788184778D-01
122  1.2100000000000D+00 -5.3292279884222D-02  5.2337964091838D-01
123  1.2200000000000D+00 -4.3794361066912D-02  4.3469225764357D-01
124  1.2300000000000D+00 -3.5145462418407D-02  3.5187706191417D-01
125  1.2400000000000D+00 -2.7380044729485D-02  2.7600437515996D-01
126  1.2500000000000D+00 -2.0529514637184D-02  2.0802768978546D-01
127  1.2600000000000D+00 -1.4622300657932D-02  1.4876963130007D-01
128  1.2700000000000D+00 -9.6853583825993D-03  9.8925134582908D-02
129  1.2800000000000D+00 -5.7384314188300D-03  5.8990856834313D-02
130  1.2900000000000D+00 -2.7846349185181D-03  2.9147605472254D-02
131  1.3000000000000D+00 -9.1259321634315D-04  1.0414466496146D-02
132  1.3100000000000D+00 -7.8047106365233D-05  2.1448714345412D-03
133  1.3200000000000D+00  7.8656610737601D-05 -2.7856056159333D-05
134  1.3300000000000D+00 -5.7850266545973D-06  1.8522670295888D-05
135  1.3400000000000D+00 -1.7089072800006D-05  7.1673256500729D-05
136  1.3500000000000D+00  3.7255239764283D-06 -9.6695377760927D-06
137  1.3600000000000D+00  8.3382997027005D-07 -2.5394225439696D-06
138  1.3700000000000D+00 -7.2335510414322D-08 -2.8194884995309D-06
139  1.3800000000000D+00  0.0000000000000D+00  0.0000000000000D+00
140  1.3900000000000D+00  0.0000000000000D+00  0.0000000000000D+00
141  1.4000000000000D+00  0.0000000000000D+00  0.0000000000000D+00
142  1.4100000000000D+00  0.0000000000000D+00  0.0000000000000D+00
143  1.4200000000000D+00  0.0000000000000D+00  0.0000000000000D+00
144  1.4300000000000D+00  0.0000000000000D+00  0.0000000000000D+00
145  1.4400000000000D+00  0.0000000000000D+00  0.0000000000000D+00
146  1.4500000000000D+00  0.0000000000000D+00  0.0000000000000D+00
147  1.4600000000000D+00  0.0000000000000D+00  0.0000000000000D+00
148  1.4700000000000D+00  0.0000000000000D+00  0.0000000000000D+00
149  1.4800000000000D+00  0.0000000000000D+00  0.0000000000000D+00
150  1.4900000000000D+00  0.0000000000000D+00  0.0000000000000D+00
151  1.5000000000000D+00  0.0000000000000D+00  0.0000000000000D+00
152  1.5100000000000D+00  0.0000000000000D+00  0.0000000000000D+00
153  1.5200000000000D+00  0.0000000000000D+00  0.0000000000000D+00
154  1.5300000000000D+00  0.0000000000000D+00  0.0000000000000D+00
155  1.5400000000000D+00  0.0000000000000D+00  0.0000000000000D+00
156  1.5500000000000D+00  0.0000000000000D+00  0.0000000000000D+00
157  1.5600000000000D+00  0.0000000000000D+00  0.0000000000000D+00
158  1.5700000000000D+00  0.0000000000000D+00  0.0000000000000D+00
159  1.5800000000000D+00  0.0000000000000D+00  0.0000000000000D+00
160  1.5900000000000D+00  0.0000000000000D+00  0.0000000000000D+00
161  1.6000000000000D+00  0.0000000000000D+00  0.0000000000000D+00
162  1.6100000000000D+00  0.0000000000000D+00  0.0000000000000D+00
163  1.6200000000000D+00  0.0000000000000D+00  0.0000000000000D+00
164  1.6300000000000D+00  0.0000000000000D+00  0.0000000000000D+00
165  1.6400000000000D+00  0.0000000000000D+00  0.0000000000000D+00
166  1.6500000000000D+00  0.0000000000000D+00  0.0000000000000D+00
167  1.6600000000000D+00  0.0000000000000D+00  0.0000000000000D+00
168  1.6700000000000D+00  0.0000000000000D+00  0.0000000000000D+00
169  1.6800000000000D+00  0.0000000000000D+00  0.0000000000000D+00
170  1.6900000000000D+00  0.0000000000000D+00  0.0000000000000D+00
171  1.7000000000000D+00  0.0000000000000D+00  0.0000000000000D+00
172  1.7100000000000D+00  0.0000000000000D+00  0.0000000000000D+00
173  1.7200000000000D+00  0.0000000000000D+00  0.0000000000000D+00
174  1.7300000000000D+00  0.0000000000000D+00  0.0000000000000D+00
175  1.7400000000000D+00  0.0000000000000D+00  0.0000000000000D+00
176  1.7500000000000D+00  0.0000000000000D+00  0.0000000000000D+00
177  1.7600000000000D+00  0.0000000000000D+00  0.0000000000000D+00
178  1.7700000000000D+00  0.0000000000000D+00  0.0000000000000D+00
179  1.7800000000000D+00  0.0000000000000D+00  0.0000000000000D+00
180  1.7900000000000D+00  0.0000000000000D+00  0.0000000000000D+00
181  1.8000000000000D+00  0.0000000000000D+00  0.0000000000000D+00
182  1.8100000000000D+00  0.0000000000000D+00  0.0000000000000D+00
183  1.8200000000000D+00  0.0000000000000D+00  0.0000000000000D+00
184  1.8300000000000D+00  0.0000000000000D+00  0.0000000000000D+00
185  1.8400000000000D+00  0.0000000000000D+00  0.0000000000000D+00
186  1.8500000000000D+00  0.0000000000000D+00  0.0000000000000D+00
187  1.8600000000000D+00  0.0000000000000D+00  0.0000000000000D+00
188  1.8700000000000D+00  0.0000000000000D+00  0.0000000000000D+00
189  1.8800000000000D+00  0.0000000000000D+00  0.0000000000000D+00
190  1.8900000000000D+00  0.0000000000000D+00  0.0000000000000D+00
191  1.9000000000000D+00  0.0000000000000D+00  0.0000000000000D+00
192  1.9100000000000D+00  0.0000000000000D+00  0.0000000000000D+00
193  1.9200000000000D+00  0.0000000000000D+00  0.0000000000000D+00
194  1.9300000000000D+00  0.0000000000000D+00  0.0000000000000D+00
195  1.9400000000000D+00  0.0000000000000D+00  0.0000000000000D+00
196  1.9500000000000D+00  0.0000000000000D+00  0.0000000000000D+00
197  1.9600000000000D+00  0.0000000000000D+00  0.0000000000000D+00
198  1.9700000000000D+00  0.0000000000000D+00  0.0000000000000D+00
199  1.9800000000000D+00  0.0000000000000D+00  0.0000000000000D+00
200  1.9900000000000D+00  0.0000000000000D+00  0.0000000000000D+00
201  2.0000000000000D+00  0.0000000000000D+00  0.0000000000000D+00
202  2.0100000000000D+00  0.0000000000000D+00  0.0000000000000D+00
203  2.0200000000000D+00  0.0000000000000D+00  0.0000000000000D+00
204  2.0300000000000D+00  0.0000000000000D+00  0.0000000000000D+00
205  2.0400000000000D+00  0.0000000000000D+00  0.0000000000000D+00
206  2.0500000000000D+00  0.0000000000000D+00  0.0000000000000D+00
207  2.0600000000000D+00  0.0000000000000D+00  0.0000000000000D+00
208  2.0700000000000D+00  0.0000000000000D+00  0.0000000000000D+00
209  2.0800000000000D+00  0.0000000000000D+00  0.0000000000000D+00
210  2.0900000000000D+00  0.0000000000000D+00  0.0000000000000D+00
211  2.1000000000000D+00  0.0000000000000D+00  0.0000000000000D+00
212  2.1100000000000D+00  0.0000000000000D+00  0.0000000000000D+00
213  2.1200000000000D+00  0.0000000000000D+00  0.0000000000000D+00
214  2.1300000000000D+00  0.0000000000000D+00  0.0000000000000D+00
215  2.1400000000000D+00  0.0000000000000D+00  0.0000000000000D+00
216  2.1500000000000D+00  0.0000000000000D+00  0.0000000000000D+00
217  2.1600000000000D+00  0.0000000000000D+00  0.0000000000000D+00
218  2.1700000000000D+00  0.0000000000000D+00  0.0000000000000D+00
219  2.1800000000000D+00  0.0000000000000D+00  0.0000000000000D+00
220  2.1900000000000D+00  0.0000000000000D+00  0.0000000000000D+00
221  2.2000000000000D+00  0.0000000000000D+00  0.0000000000000D+00
222  2.2100000000000D+00  0.0000000000000D+00  0.0000000000000D+00
223  2.2200000000000D+00  0.0000000000000D+00  0.0000000000000D+00
224  2.2300000000000D+00  0.0000000000000D+00  0.0000000000000D+00
225  2.2400000000000D+00  0.0000000000000D+00  0.0000000000000D+00
226  2.2500000000000D+00  0.0000000000000D+00  0.0000000000000D+00
227  2.2600000000000D+00  0.0000000000000D+00  0.0000000000000D+00
228  2.2700000000000D+00  0.0000000000000D+00  0.0000000000000D+00
229  2.2800000000000D+00  0.0000000000000D+00  0.0000000000000D+00
230  2.2900000000000D+00  0.0000000000000D+00  0.0000000000000D+00
231  2.3000000000000D+00  0.0000000000000D+00  0.0000000000000D+00
232  2.3100000000000D+00  0.0000000000000D+00  0.0000000000000D+00
233  2.3200000000000D+00  0.0000000000000D+00  0.0000000000000D+00
234  2.3300000000000D+00  0.0000000000000D+00  0.0000000000000D+00
235  2.3400000000000D+00  0.0000000000000D+00  0.0000000000000D+00
236  2.3500000000000D+00  0.0000000000000D+00  0.0000000000000D+00
237  2.3600000000000D+00  0.0000000000000D+00  0.0000000000000D+00
238  2.3700000000000D+00  0.0000000000000D+00  0.0000000000000D+00
239  2.3800000000000D+00  0.0000000000000D+00  0.0000000000000D+00
240  2.3900000000000D+00  0.0000000000000D+00  0.0000000000000D+00
241  2.4000000000000D+00  0.0000000000000D+00  0.0000000000000D+00
242  2.4100000000000D+00  0.0000000000000D+00  0.0000000000000D+00
243  2.4200000000000D+00  0.0000000000000D+00  0.0000000000000D+00
244  2.4300000000000D+00  0.0000000000000D+00  0.0000000000000D+00
245  2.4400000000000D+00  0.0000000000000D+00  0.0000000000000D+00
246  2.4500000000000D+00  0.0000000000000D+00  0.0000000000000D+00
247  2.4600000000000D+00  0.0000000000000D+00  0.0000000000000D+00
248  2.4700000000000D+00  0.0000000000000D+00  0.0000000000000D+00
249  2.4800000000000D+00  0.0000000000000D+00  0.0000000000000D+00
250  2.4900000000000D+00  0.0000000000000D+00  0.0000000000000D+00
251  2.5000000000000D+00  0.0000000000000D+00  0.0000000000000D+00
252  2.5100000000000D+00  0.0000000000000D+00  0.0000000000000D+00
253  2.5200000000000D+00  0.0000000000000D+00  0.0000000000000D+00
254  2.5300000000000D+00  0.0000000000000D+00  0.0000000000000D+00
255  2.5400000000000D+00  0.0000000000000D+00  0.0000000000000D+00
256  2.5500000000000D+00  0.0000000000000D+00  0.0000000000000D+00
257  2.5600000000000D+00  0.0000000000000D+00  0.0000000000000D+00
258  2.5700000000000D+00  0.0000000000000D+00  0.0000000000000D+00
259  2.5800000000000D+00  0.0000000000000D+00  0.0000000000000D+00
260  2.5900000000000D+00  0.0000000000000D+00  0.0000000000000D+00
261  2.6000000000000D+00  0.0000000000000D+00  0.0000000000000D+00
262  2.6100000000000D+00  0.0000000000000D+00  0.0000000000000D+00
263  2.6200000000000D+00  0.0000000000000D+00  0.0000000000000D+00
264  2.6300000000000D+00  0.0000000000000D+00  0.0000000000000D+00
265  2.6400000000000D+00  0.0000000000000D+00  0.0000000000000D+00
266  2.6500000000000D+00  0.0000000000000D+00  0.0000000000000D+00
267  2.6600000000000D+00  0.0000000000000D+00  0.0000000000000D+00
268  2.6700000000000D+00  0.0000000000000D+00  0.0000000000000D+00
269  2.6800000000000D+00  0.0000000000000D+00  0.0000000000000D+00
270  2.6900000000000D+00  0.0000000000000D+00  0.0000000000000D+00
271  2.7000000000000D+00  0.0000000000000D+00  0.0000000000000D+00
272  2.7100000000000D+00  0.0000000000000D+00  0.0000000000000D+00
273  2.7200000000000D+00  0.0000000000000D+00  0.0000000000000D+00
274  2.7300000000000D+00  0.0000000000000D+00  0.0000000000000D+00
275  2.7400000000000D+00  0.0000000000000D+00  0.0000000000000D+00
276  2.7500000000000D+00  0.0000000000000D+00  0.0000000000000D+00
277  2.7600000000000D+00  0.0000000000000D+00  0.0000000000000D+00
278  2.7700000000000D+00  0.0000000000000D+00  0.0000000000000D+00
279  2.7800000000000D+00  0.0000000000000D+00  0.0000000000000D+00
280  2.7900000000000D+00  0.0000000000000D+00  0.0000000000000D+00
281  2.8000000000000D+00  0.0000000000000D+00  0.0000000000000D+00
282  2.8100000000000D+00  0.0000000000000D+00  0.0000000000000D+00
283  2.8200000000000D+00  0.0000000000000D+00  0.0000000000000D+00
284  2.8300000000000D+00  0.0000000000000D+00  0.0000000000000D+00
285  2.8400000000000D+00  0.0000000000000D+00  0.0000000000000D+00
286  2.8500000000000D+00  0.0000000000000D+00  0.0000000000000D+00
287  2.8600000000000D+00  0.0000000000000D+00  0.0000000000000D+00
288  2.8700000000000D+00  0.0000000000000D+00  0.0000000000000D+00
289  2.8800000000000D+00  0.0000000000000D+00  0.0000000000000D+00
290  2.8900000000000D+00  0.0000000000000D+00  0.0000000000000D+00
291  2.9000000000000D+00  0.0000000000000D+00  0.0000000000000D+00
292  2.9100000000000D+00  0.0000000000000D+00  0.0000000000000D+00
293  2.9200000000000D+00  0.0000000000000D+00  0.0000000000000D+00
294  2.9300000000000D+00  0.0000000000000D+00  0.0000000000000D+00
295  2.9400000000000D+00  0.0000000000000D+00  0.0000000000000D+00
296  2.9500000000000D+00  0.0000000000000D+00  0.0000000000000D+00
297  2.9600000000000D+00  0.0000000000000D+00  0.0000000000000D+00
298  2.9700000000000D+00  0.0000000000000D+00  0.0000000000000D+00
299  2.9800000000000D+00  0.0000000000000D+00  0.0000000000000D+00
300  2.9900000000000D+00  0.0000000000000D+00  0.0000000000000D+00
301  3.0000000000000D+00  0.0000000000000D+00  0.0000000000000D+00
302  3.0100000000000D+00  0.0000000000000D+00  0.0000000000000D+00
303  3.0200000000000D+00  0.0000000000000D+00  0.0000000000000D+00
304  3.0300000000000D+00  0.0000000000000D+00  0.0000000000000D+00
305  3.0400000000000D+00  0.0000000000000D+00  0.0000000000000D+00
306  3.0500000000000D+00  0.0000000000000D+00  0.0000000000000D+00
307  3.0600000000000D+00  0.0000000000000D+00  0.0000000000000D+00
308  3.0700000000000D+00  0.0000000000000D+00  0.0000000000000D+00
309  3.0800000000000D+00  0.0000000000000D+00  0.0000000000000D+00
310  3.0900000000000D+00  0.0000000000000D+00  0.0000000000000D+00
311  3.1000000000000D+00  0.0000000000000D+00  0.0000000000000D+00
312  3.1100000000000D+00  0.0000000000000D+00  0.0000000000000D+00
313  3.1200000000000D+00  0.0000000000000D+00  0.0000000000000D+00
314  3.1300000000000D+00  0.0000000000000D+00  0.0000000000000D+00
315  3.1400000000000D+00  0.0000000000000D+00  0.0000000000000D+00
316  3.1500000000000D+00  0.0000000000000D+00  0.0000000000000D+00
317  3.1600000000000D+00  0.0000000000000D+00  0.0000000000000D+00
318  3.1700000000000D+00  0.0000000000000D+00  0.0000000000000D+00
319  3.1800000000000D+00  0.0000000000000D+00  0.0000000000000D+00
320  3.1900000000000D+00  0.0000000000000D+00  0.0000000000000D+00
321  3.2000000000000D+00  0.0000000000000D+00  0.0000000000000D+00
322  3.2100000000000D+00  0.0000000000000D+00  0.0000000000000D+00
323  3.2200000000000D+00  0.0000000000000D+00  0.0000000000000D+00
324  3.2300000000000D+00  0.0000000000000D+00  0.0000000000000D+00
325  3.2400000000000D+00  0.0000000000000D+00  0.0000000000000D+00
326  3.2500000000000D+00  0.0000000000000D+00  0.0000000000000D+00
327  3.2600000000000D+00  0.0000000000000D+00  0.0000000000000D+00
328  3.2700000000000D+00  0.0000000000000D+00  0.0000000000000D+00
329  3.2800000000000D+00  0.0000000000000D+00  0.0000000000000D+00
330  3.2900000000000D+00  0.0000000000000D+00  0.0000000000000D+00
331  3.3000000000000D+00  0.0000000000000D+00  0.0000000000000D+00
332  3.3100000000000D+00  0.0000000000000D+00  0.0000000000000D+00
333  3.3200000000000D+00  0.0000000000000D+00  0.0000000000000D+00
334  3.3300000000000D+00  0.0000000000000D+00  0.0000000000000D+00
335  3.3400000000000D+00  0.0000000000000D+00  0.0000000000000D+00
336  3.3500000000000D+00  0.0000000000000D+00  0.0000000000000D+00
337  3.3600000000000D+00  0.0000000000000D+00  0.0000000000000D+00
338  3.3700000000000D+00  0.0000000000000D+00  0.0000000000000D+00
339  3.3800000000000D+00  0.0000000000000D+00  0.0000000000000D+00
340  3.3900000000000D+00  0.0000000000000D+00  0.0000000000000D+00
341  3.4000000000000D+00  0.0000000000000D+00  0.0000000000000D+00
342  3.4100000000000D+00  0.0000000000000D+00  0.0000000000000D+00
343  3.4200000000000D+00  0.0000000000000D+00  0.0000000000000D+00
344  3.4300000000000D+00  0.0000000000000D+00  0.0000000000000D+00
345  3.4400000000000D+00  0.0000000000000D+00  0.0000000000000D+00
346  3.4500000000000D+00  0.0000000000000D+00  0.0000000000000D+00
347  3.4600000000000D+00  0.0000000000000D+00  0.0000000000000D+00
348  3.4700000000000D+00  0.0000000000000D+00  0.0000000000000D+00
349  3.4800000000000D+00  0.0000000000000D+00  0.0000000000000D+00
350  3.4900000000000D+00  0.0000000000000D+00  0.0000000000000D+00
351  3.5000000000000D+00  0.0000000000000D+00  0.0000000000000D+00
352  3.5100000000000D+00  0.0000000000000D+00  0.0000000000000D+00
353  3.5200000000000D+00  0.0000000000000D+00  0.0000000000000D+00
354  3.5300000000000D+00  0.0000000000000D+00  0.0000000000000D+00
355  3.5400000000000D+00  0.0000000000000D+00  0.0000000000000D+00
356  3.5500000000000D+00  0.0000000000000D+00  0.0000000000000D+00
357  3.5600000000000D+00  0.0000000000000D+00  0.0000000000000D+00
358  3.5700000000000D+00  0.0000000000000D+00  0.0000000000000D+00
359  3.5800000000000D+00  0.0000000000000D+00  0.0000000000000D+00
360  3.5900000000000D+00  0.0000000000000D+00  0.0000000000000D+00
361  3.6000000000000D+00  0.0000000000000D+00  0.0000000000000D+00
362  3.6100000000000D+00  0.0000000000000D+00  0.0000000000000D+00
363  3.6200000000000D+00  0.0000000000000D+00  0.0000000000000D+00
364  3.6300000000000D+00  0.0000000000000D+00  0.0000000000000D+00
365  3.6400000000000D+00  0.0000000000000D+00  0.0000000000000D+00
366  3.6500000000000D+00  0.0000000000000D+00  0.0000000000000D+00
367  3.6600000000000D+00  0.0000000000000D+00  0.0000000000000D+00
368  3.6700000000000D+00  0.0000000000000D+00  0.0000000000000D+00
369  3.6800000000000D+00  0.0000000000000D+00  0.0000000000000D+00
370  3.6900000000000D+00  0.0000000000000D+00  0.0000000000000D+00
371  3.7000000000000D+00  0.0000000000000D+00  0.0000000000000D+00
372  3.7100000000000D+00  0.0000000000000D+00  0.0000000000000D+00
373  3.7200000000000D+00  0.0000000000000D+00  0.0000000000000D+00
374  3.7300000000000D+00  0.0000000000000D+00  0.0000000000000D+00
375  3.7400000000000D+00  0.0000000000000D+00  0.0000000000000D+00
376  3.7500000000000D+00  0.0000000000000D+00  0.0000000000000D+00
377  3.7600000000000D+00  0.0000000000000D+00  0.0000000000000D+00
378  3.7700000000000D+00  0.0000000000000D+00  0.0000000000000D+00
379  3.7800000000000D+00  0.0000000000000D+00  0.0000000000000D+00
380  3.7900000000000D+00  0.0000000000000D+00  0.0000000000000D+00
381  3.8000000000000D+00  0.0000000000000D+00  0.0000000000000D+00
382  3.8100000000000D+00  0.0000000000000D+00  0.0000000000000D+00
383  3.8200000000000D+00  0.0000000000000D+00  0.0000000000000D+00
384  3.8300000000000D+00  0.0000000000000D+00  0.0000000000000D+00
385  3.8400000000000D+00  0.0000000000000D+00  0.0000000000000D+00
386  3.8500000000000D+00  0.0000000000000D+00  0.0000000000000D+00
387  3.8600000000000D+00  0.0000000000000D+00  0.0000000000000D+00
388  3.8700000000000D+00  0.0000000000000D+00  0.0000000000000D+00
389  3.8800000000000D+00  0.0000000000000D+00  0.0000000000000D+00
390  3.8900000000000D+00  0.0000000000000D+00  0.0000000000000D+00
391  3.9000000000000D+00  0.0000000000000D+00  0.0000000000000D+00
392  3.9100000000000D+00  0.0000000000000D+00  0.0000000000000D+00
393  3.9200000000000D+00  0.0000000000000D+00  0.0000000000000D+00
394  3.9300000000000D+00  0.0000000000000D+00  0.0000000000000D+00
395  3.9400000000000D+00  0.0000000000000D+00  0.0000000000000D+00
396  3.9500000000000D+00  0.0000000000000D+00  0.0000000000000D+00
397  3.9600000000000D+00  0.0000000000000D+00  0.0000000000000D+00
398  3.9700000000000D+00  0.0000000000000D+00  0.0000000000000D+00
399  3.9800000000000D+00  0.0000000000000D+00  0.0000000000000D+00
400  3.9900000000000D+00  0.0000000000000D+00  0.0000000000000D+00
401  4.0000000000000D+00  0.0000000000000D+00  0.0000000000000D+00
402  4.0100000000000D+00  0.0000000000000D+00  0.0000000000000D+00
403  4.0200000000000D+00  0.0000000000000D+00  0.0000000000000D+00
404  4.0300000000000D+00  0.0000000000000D+00  0.0000000000000D+00
405  4.0400000000000D+00  0.0000000000000D+00  0.0000000000000D+00
406  4.0500000000000D+00  0.0000000000000D+00  0.0000000000000D+00
407  4.0600000000000D+00  0.0000000000000D+00  0.0000000000000D+00
408  4.0700000000000D+00  0.0000000000000D+00  0.0000000000000D+00
409  4.0800000000000D+00  0.0000000000000D+00  0.0000000000000D+00
410  4.0900000000000D+00  0.0000000000000D+00  0.0000000000000D+00
411  4.1000000000000D+00  0.0000000000000D+00  0.0000000000000D+00
412  4.1100000000000D+00  0.0000000000000D+00  0.0000000000000D+00
413  4.1200000000000D+00  0.0000000000000D+00  0.0000000000000D+00
414  4.1300000000000D+00  0.0000000000000D+00  0.0000000000000D+00
415  4.1400000000000D+00  0.0000000000000D+00  0.0000000000000D+00
416  4.1500000000000D+00  0.0000000000000D+00  0.0000000000000D+00
417  4.1600000000000D+00  0.0000000000000D+00  0.0000000000000D+00
418  4.1700000000000D+00  0.0000000000000D+00  0.0000000000000D+00
419  4.1800000000000D+00  0.0000000000000D+00  0.0000000000000D+00
420  4.1900000000000D+00  0.0000000000000D+00  0.0000000000000D+00
421  4.2000000000000D+00  0.0000000000000D+00  0.0000000000000D+00
422  4.2100000000000D+00  0.0000000000000D+00  0.0000000000000D+00
423  4.2200000000000D+00  0.0000000000000D+00  0.0000000000000D+00
424  4.2300000000000D+00  0.0000000000000D+00  0.0000000000000D+00
425  4.2400000000000D+00  0.0000000000000D+00  0.0000000000000D+00
426  4.2500000000000D+00  0.0000000000000D+00  0.0000000000000D+00
427  4.2600000000000D+00  0.0000000000000D+00  0.0000000000000D+00
428  4.2700000000000D+00  0.0000000000000D+00  0.0000000000000D+00
429  4.2800000000000D+00  0.0000000000000D+00  0.0000000000000D+00
430  4.2900000000000D+00  0.0000000000000D+00  0.0000000000000D+00
431  4.3000000000000D+00  0.0000000000000D+00  0.0000000000000D+00
432  4.3100000000000D+00  0.0000000000000D+00  0.0000000000000D+00
433  4.3200000000000D+00  0.0000000000000D+00  0.0000000000000D+00
434  4.3300000000000D+00  0.0000000000000D+00  0.0000000000000D+00
435  4.3400000000000D+00  0.0000000000000D+00  0.0000000000000D+00
436  4.3500000000000D+00  0.0000000000000D+00  0.0000000000000D+00
437  4.3600000000000D+00  0.0000000000000D+00  0.0000000000000D+00
438  4.3700000000000D+00  0.0000000000000D+00  0.0000000000000D+00
439  4.3800000000000D+00  0.0000000000000D+00  0.0000000000000D+00
440  4.3900000000000D+00  0.0000000000000D+00  0.0000000000000D+00
441  4.4000000000000D+00  0.0000000000000D+00  0.0000000000000D+00
442  4.4100000000000D+00  0.0000000000000D+00  0.0000000000000D+00
443  4.4200000000000D+00  0.0000000000000D+00  0.0000000000000D+00