Sn    ONCVPSP-3.2.3  r_core=   2.27326   2.62311   3.13707
50.0000      4.0000      161006    zatom,zion,pspd
8   -1012   2     4   600     0    pspcod,pspxc,lmax,lloc,mmax,r2well
5.99000000  7.00000000  0.00000000    rchrg fchrg qchrg
2     2     2     0     0    nproj
1     1           extension_switch
0                         4.4936773151001D+00  4.9837374415094D-01
1  0.0000000000000D+00 -2.8912983118801D-13 -9.3450316929200D-12
2  1.0000000000000D-02  1.9698663938027D-02  2.4011551265635D-03
3  2.0000000000000D-02  3.9394688630498D-02  4.7612751459711D-03
4  3.0000000000000D-02  5.9085426902469D-02  7.0395096546684D-03
5  4.0000000000000D-02  7.8768215724267D-02  9.1953769798721D-03
6  5.0000000000000D-02  9.8440368294318D-02  1.1188946856232D-02
7  6.0000000000000D-02  1.1809916613442D-01  1.2981021082601D-02
8  7.0000000000000D-02  1.3774185120199D-01  1.4533311496569D-02
9  8.0000000000000D-02  1.5736561802397D-01  1.5808614613750D-02
10  9.0000000000000D-02  1.7696760585780D-01  1.6770982290403D-02
11  1.0000000000000D-01  1.9654489088480D-01  1.7385887781845D-02
12  1.1000000000000D-01  2.1609447844229D-01  1.7620386585136D-02
13  1.2000000000000D-01  2.3561329530100D-01  1.7443271472638D-02
14  1.3000000000000D-01  2.5509818199525D-01  1.6825221143397D-02
15  1.4000000000000D-01  2.7454588521376D-01  1.5738941941421D-02
16  1.5000000000000D-01  2.9395305025995D-01  1.4159302114189D-02
17  1.6000000000000D-01  3.1331621359129D-01  1.2063458110702D-02
18  1.7000000000000D-01  3.3263179544794D-01  9.4309724461920D-03
19  1.8000000000000D-01  3.5189609258217D-01  6.2439226900392D-03
20  1.9000000000000D-01  3.7110527110050D-01  2.4870011644339D-03
21  2.0000000000000D-01  3.9025535943177D-01 -1.8523950261358D-03
22  2.1000000000000D-01  4.0934224143511D-01 -6.7840839807938D-03
23  2.2000000000000D-01  4.2836164966290D-01 -1.2315029314648D-02
24  2.3000000000000D-01  4.4730915879459D-01 -1.8449281072520D-02
25  2.4000000000000D-01  4.6618017925838D-01 -2.5187927481932D-02
26  2.5000000000000D-01  4.8496995105871D-01 -3.2529057745000D-02
27  2.6000000000000D-01  5.0367353782838D-01 -4.0467736030290D-02
28  2.7000000000000D-01  5.2228582112503D-01 -4.8995986786322D-02
29  2.8000000000000D-01  5.4080149499293D-01 -5.8102791458508D-02
30  2.9000000000000D-01  5.5921506081134D-01 -6.7774096651237D-02
31  3.0000000000000D-01  5.7752082245210D-01 -7.7992833736482D-02
32  3.1000000000000D-01  5.9571288176954D-01 -8.8738949869837D-02
33  3.2000000000000D-01  6.1378513444658D-01 -9.9989450334674D-02
34  3.3000000000000D-01  6.3173126622167D-01 -1.1171845209498D-01
35  3.4000000000000D-01  6.4954474952171D-01 -1.2389724839774D-01
36  3.5000000000000D-01  6.6721884052653D-01 -1.3649438422659D-01
37  3.6000000000000D-01  6.8474657669113D-01 -1.4947574236959D-01
38  3.7000000000000D-01  7.0212077475205D-01 -1.6280463982689D-01
39  3.8000000000000D-01  7.1933402924447D-01 -1.7644193424604D-01
40  3.9000000000000D-01  7.3637871155695D-01 -1.9034614003818D-01
41  4.0000000000000D-01  7.5324696955046D-01 -2.0447355379241D-01
42  4.1000000000000D-01  7.6993072776855D-01 -2.1877838857324D-01
43  4.2000000000000D-01  7.8642168826494D-01 -2.3321291665323D-01
44  4.3000000000000D-01  8.0271133207497D-01 -2.4772762020307D-01
45  4.4000000000000D-01  8.1879092135628D-01 -2.6227134943206D-01
46  4.5000000000000D-01  8.3465150222387D-01 -2.7679148764493D-01
47  4.6000000000000D-01  8.5028390830404D-01 -2.9123412265582D-01
48  4.7000000000000D-01  8.6567876503029D-01 -3.0554422397657D-01
49  4.8000000000000D-01  8.8082649470385D-01 -3.1966582517517D-01
50  4.9000000000000D-01  8.9571732233992D-01 -3.3354221078106D-01
51  5.0000000000000D-01  9.1034128231965D-01 -3.4711610709655D-01
52  5.1000000000000D-01  9.2468822586601D-01 -3.6032987625889D-01
53  5.2000000000000D-01  9.3874782936080D-01 -3.7312571288473D-01
54  5.3000000000000D-01  9.5250960351738D-01 -3.8544584261839D-01
55  5.4000000000000D-01  9.6596290342267D-01 -3.9723272189733D-01
56  5.5000000000000D-01  9.7909693945927D-01 -4.0842923824272D-01
57  5.6000000000000D-01  9.9190078911668D-01 -4.1897891037953D-01
58  5.7000000000000D-01  1.0043634096984D+00 -4.2882608749040D-01
59  5.8000000000000D-01  1.0164736519284D+00 -4.3791614690826D-01
60  5.9000000000000D-01  1.0282202744597D+00 -4.4619568955792D-01
61  6.0000000000000D-01  1.0395919592825D+00 -4.5361273246255D-01
62  6.1000000000000D-01  1.0505773280288D+00 -4.6011689764024D-01
63  6.2000000000000D-01  1.0611649591662D+00 -4.6565959672733D-01
64  6.3000000000000D-01  1.0713434060711D+00 -4.7019421067849D-01
65  6.4000000000000D-01  1.0811012159682D+00 -4.7367626391000D-01
66  6.5000000000000D-01  1.0904269497194D+00 -4.7606359227045D-01
67  6.6000000000000D-01  1.0993092024434D+00 -4.7731650424391D-01
68  6.7000000000000D-01  1.1077366249422D+00 -4.7739793481307D-01
69  6.8000000000000D-01  1.1156979459088D+00 -4.7627359143408D-01
70  6.9000000000000D-01  1.1231819948855D+00 -4.7391209160214D-01
71  7.0000000000000D-01  1.1301777259396D+00 -4.7028509151466D-01
72  7.1000000000000D-01  1.1366742420207D+00 -4.6536740536929D-01
73  7.2000000000000D-01  1.1426608199570D+00 -4.5913711486611D-01
74  7.3000000000000D-01  1.1481269360485D+00 -4.5157566851646D-01
75  7.4000000000000D-01  1.1530622922097D+00 -4.4266797039606D-01
76  7.5000000000000D-01  1.1574568426091D+00 -4.3240245801597D-01
77  7.6000000000000D-01  1.1613008207529D+00 -4.2077116902293D-01
78  7.7000000000000D-01  1.1645847669550D+00 -4.0776979647801D-01
79  7.8000000000000D-01  1.1672995561312D+00 -3.9339773250334D-01
80  7.9000000000000D-01  1.1694364258550D+00 -3.7765810012551D-01
81  8.0000000000000D-01  1.1709870046062D+00 -3.6055777318601D-01
82  8.1000000000000D-01  1.1719433401433D+00 -3.4210738422994D-01
83  8.2000000000000D-01  1.1722979279262D+00 -3.2232132032596D-01
84  8.3000000000000D-01  1.1720437395131D+00 -3.0121770681256D-01
85  8.4000000000000D-01  1.1711742508541D+00 -2.7881837900725D-01
86  8.5000000000000D-01  1.1696834704006D+00 -2.5514884195761D-01
87  8.6000000000000D-01  1.1675659669471D+00 -2.3023821835410D-01
88  8.7000000000000D-01  1.1648168971218D+00 -2.0411918476645D-01
89  8.8000000000000D-01  1.1614320324397D+00 -1.7682789640524D-01
90  8.9000000000000D-01  1.1574077858291D+00 -1.4840390065104D-01
91  9.0000000000000D-01  1.1527412375439D+00 -1.1889003963185D-01
92  9.1000000000000D-01  1.1474301603704D+00 -8.8332342167943D-02
93  9.2000000000000D-01  1.1414730440390D+00 -5.6779905440508D-02
94  9.3000000000000D-01  1.1348691187495D+00 -2.4284766775505D-02
95  9.4000000000000D-01  1.1276183777172D+00  9.0982340311659D-03
96  9.5000000000000D-01  1.1197215986517D+00  4.3311601388014D-02
97  9.6000000000000D-01  1.1111803640743D+00  7.8295339092265D-02
98  9.7000000000000D-01  1.1019970803871D+00  1.1398711350482D-01
99  9.8000000000000D-01  1.0921749956035D+00  1.5032242416864D-01
100  9.9000000000000D-01  1.0817182156534D+00  1.8723478129866D-01
101  1.0000000000000D+00  1.0706317191774D+00  2.2465588954727D-01
102  1.0100000000000D+00  1.0589213707269D+00  2.6251583742819D-01
103  1.0200000000000D+00  1.0465939322888D+00  3.0074329176284D-01
104  1.0300000000000D+00  1.0336570730572D+00  3.3926569649586D-01
105  1.0400000000000D+00  1.0201193773763D+00  3.7800947521319D-01
106  1.0500000000000D+00  1.0059903507835D+00  4.1690023668285D-01
107  1.0600000000000D+00  9.9128042408459D-01  4.5586298272993D-01
108  1.0700000000000D+00  9.7600095539720D-01  4.9482231774995D-01
109  1.0800000000000D+00  9.6016423010357D-01  5.3370265916079D-01
110  1.0900000000000D+00  9.4378345865728D-01  5.7242844809077D-01
111  1.1000000000000D+00  9.2687277219493D-01  6.1092435960159D-01
112  1.1100000000000D+00  9.0944721590809D-01  6.4911551174796D-01
113  1.1200000000000D+00  8.9152274013708D-01  6.8692767278154D-01
114  1.1300000000000D+00  8.7311618915354D-01  7.2428746581567D-01
115  1.1400000000000D+00  8.5424528760472D-01  7.6112257027601D-01
116  1.1500000000000D+00  8.3492862459942D-01  7.9736191947810D-01
117  1.1600000000000D+00  8.1518563542184D-01  8.3293589368800D-01
118  1.1700000000000D+00  7.9503658086586D-01  8.6777650803860D-01
119  1.1800000000000D+00  7.7450252418935D-01  9.0181759469421D-01
120  1.1900000000000D+00  7.5360530569590D-01  9.3499497868080D-01
121  1.2000000000000D+00  7.3236751495891D-01  9.6724664682620D-01
122  1.2100000000000D+00  7.1081246070745D-01  9.9851290926908D-01
123  1.2200000000000D+00  6.8896413840468D-01  1.0287365530384D+00
124  1.2300000000000D+00  6.6684719555562D-01  1.0578629872315D+00
125  1.2400000000000D+00  6.4448689478732D-01  1.0858403793428D+00
126  1.2500000000000D+00  6.2190907475309D-01  1.1126197823349D+00
127  1.2600000000000D+00  5.9914010892208D-01  1.1381552520853D+00
128  1.2700000000000D+00  5.7620686231981D-01  1.1624039548667D+00
129  1.2800000000000D+00  5.5313664629313D-01  1.1853262645543D+00
130  1.2900000000000D+00  5.2995717138465D-01  1.2068858493127D+00
131  1.3000000000000D+00  5.0669649840399D-01  1.2270497475323D+00
132  1.3100000000000D+00  4.8338298779112D-01  1.2457884328226D+00
133  1.3200000000000D+00  4.6004524737966D-01  1.2630758679451D+00
134  1.3300000000000D+00  4.3671207866649D-01  1.2788895475630D+00
135  1.3400000000000D+00  4.1341242170542D-01  1.2932105297463D+00
136  1.3500000000000D+00  3.9017529875276D-01  1.3060234562461D+00
137  1.3600000000000D+00  3.6702975678725D-01  1.3173165615104D+00
138  1.3700000000000D+00  3.4400480904542D-01  1.3270816705403D+00
139  1.3800000000000D+00  3.2112937571306D-01  1.3353141856960D+00
140  1.3900000000000D+00  2.9843222391366D-01  1.3420130625462D+00
141  1.4000000000000D+00  2.7594190715253D-01  1.3471807750124D+00
142  1.4100000000000D+00  2.5368670436526D-01  1.3508232699733D+00
143  1.4200000000000D+00  2.3169455873266D-01  1.3529499116026D+00
144  1.4300000000000D+00  2.0999301642665D-01  1.3535734157695D+00
145  1.4400000000000D+00  1.8860916544756D-01  1.3527097747527D+00
146  1.4500000000000D+00  1.6756957472796D-01  1.3503781727219D+00
147  1.4600000000000D+00  1.4690023366789D-01  1.3466008923035D+00
148  1.4700000000000D+00  1.2662649227739D-01  1.3414032126935D+00
149  1.4800000000000D+00  1.0677300209706D-01  1.3348132997733D+00
150  1.4900000000000D+00  8.7363658072753D-02  1.3268620886594D+00
151  1.5000000000000D+00  6.8421541554733D-02  1.3175831592662D+00
152  1.5100000000000D+00  4.9968864599232D-02  1.3070126053116D+00
153  1.5200000000000D+00  3.2026915739051D-02  1.2951888973981D+00
154  1.5300000000000D+00  1.4616007398116D-02  1.2821527406604D+00
155  1.5400000000000D+00 -2.2445748837954D-03  1.2679469275988D+00
156  1.5500000000000D+00 -1.8536621253437D-02  1.2526161866652D+00
157  1.5600000000000D+00 -3.4243044202683D-02  1.2362070272057D+00
158  1.5700000000000D+00 -4.9347922942562D-02  1.2187675813684D+00
159  1.5800000000000D+00 -6.3836545312013D-02  1.2003474435852D+00
160  1.5900000000000D+00 -7.7695447111461D-02  1.1809975082364D+00
161  1.6000000000000D+00 -9.0912448668382D-02  1.1607698061310D+00
162  1.6100000000000D+00 -1.0347668855781D-01  1.1397173403773D+00
163  1.6200000000000D+00 -1.1537865428126D-01  1.1178939223070D+00
164  1.6300000000000D+00 -1.2661020985066D-01  1.0953540079776D+00
165  1.6400000000000D+00 -1.3716462009174D-01  1.0721525359314D+00
166  1.6500000000000D+00 -1.4703657162900D-01  1.0483447666870D+00
167  1.6600000000000D+00 -1.5622219038473D-01  1.0239861246375D+00
168  1.6700000000000D+00 -1.6471905557021D-01  9.9913204277872D-01
169  1.6800000000000D+00 -1.7252621002032D-01  9.7383781092718D-01
170  1.6900000000000D+00 -1.7964416686988D-01  9.4815842778623D-01
171  1.7000000000000D+00 -1.8607491243863D-01  9.2214845750501D-01
172  1.7100000000000D+00 -1.9182190535091D-01  8.9586189100417D-01
173  1.7200000000000D+00 -1.9689007176610D-01  8.6935201270743D-01
174  1.7300000000000D+00 -2.0128579678419D-01  8.4267127283575D-01
175  1.7400000000000D+00 -2.0501691190129D-01  8.1587116592523D-01
176  1.7500000000000D+00 -2.0809267863148D-01  7.8900211556059D-01
177  1.7600000000000D+00 -2.1052376815510D-01  7.6211336604952D-01
178  1.7700000000000D+00 -2.1232223717774D-01  7.3525288080618D-01
179  1.7800000000000D+00 -2.1350149982946D-01  7.0846724828737D-01
180  1.7900000000000D+00 -2.1407629587178D-01  6.8180159496449D-01
181  1.8000000000000D+00 -2.1406265500459D-01  6.5529950632334D-01
182  1.8100000000000D+00 -2.1347785761031D-01  6.2900295511899D-01
183  1.8200000000000D+00 -2.1234039173065D-01  6.0295223789943D-01
184  1.8300000000000D+00 -2.1066990662021D-01  5.7718591897116D-01
185  1.8400000000000D+00 -2.0848716274490D-01  5.5174078260451D-01
186  1.8500000000000D+00 -2.0581397851201D-01  5.2665179282318D-01
187  1.8600000000000D+00 -2.0267317372200D-01  5.0195206117100D-01
188  1.8700000000000D+00 -1.9908850993195D-01  4.7767282212905D-01
189  1.8800000000000D+00 -1.9508462787259D-01  4.5384341603893D-01
190  1.8900000000000D+00 -1.9068698198638D-01  4.3049127965137D-01
191  1.9000000000000D+00 -1.8592177239309D-01  4.0764194354006D-01
192  1.9100000000000D+00 -1.8081587423177D-01  3.8531903696201D-01
193  1.9200000000000D+00 -1.7539676480818D-01  3.6354429891269D-01
194  1.9300000000000D+00 -1.6969244846439D-01  3.4233759611273D-01
195  1.9400000000000D+00 -1.6373137958427D-01  3.2171694670199D-01
196  1.9500000000000D+00 -1.5754238377466D-01  3.0169854991932D-01
197  1.9600000000000D+00 -1.5115457748975D-01  2.8229682111017D-01
198  1.9700000000000D+00 -1.4459728632049D-01  2.6352443160104D-01
199  1.9800000000000D+00 -1.3789996207390D-01  2.4539235339479D-01
200  1.9900000000000D+00 -1.3109209899035D-01  2.2790990764032D-01
201  2.0000000000000D+00 -1.2420314917093D-01  2.1108481712747D-01
202  2.0100000000000D+00 -1.1726243755620D-01  1.9492326172103D-01
203  2.0200000000000D+00 -1.1029907661435D-01  1.7942993662996D-01
204  2.0300000000000D+00 -1.0334188098042D-01  1.6460811290059D-01
205  2.0400000000000D+00 -9.6419282279257D-02  1.5045969957398D-01
206  2.0500000000000D+00 -8.9559244364678D-02  1.3698530711512D-01
207  2.0600000000000D+00 -8.2789179158148D-02  1.2418431155935D-01
208  2.0700000000000D+00 -7.6135863393017D-02  1.1205491879219D-01
209  2.0800000000000D+00 -6.9625356402247D-02  1.0059422860166D-01
210  2.0900000000000D+00 -6.3282919203999D-02  8.9798297932229D-02
211  2.1000000000000D+00 -5.7132935175076D-02  7.9662202668868D-02
212  2.1100000000000D+00 -5.1198832320409D-02  7.0180098006317D-02
213  2.1200000000000D+00 -4.5503007648008D-02  6.1345276106427D-02
214  2.1300000000000D+00 -4.0066753572494D-02  5.3150221380938D-02
215  2.1400000000000D+00 -3.4910186664275D-02  4.5586662615970D-02
216  2.1500000000000D+00 -3.0052179070072D-02  3.8645621113035D-02
217  2.1600000000000D+00 -2.5510292401464D-02  3.2317455626122D-02
218  2.1700000000000D+00 -2.1300714786632D-02  2.6591902121277D-02
219  2.1800000000000D+00 -1.7438200842791D-02  2.1458109284243D-02
220  2.1900000000000D+00 -1.3936014793800D-02  1.6904669253182D-02
221  2.2000000000000D+00 -1.0807875340486D-02  1.2921635983357D-02
222  2.2100000000000D+00 -8.0607680095302D-03  9.4934229619358D-03
223  2.2200000000000D+00 -5.7000236645900D-03  6.6039490497844D-03
224  2.2300000000000D+00 -3.7246423615855D-03  4.2324072997148D-03
225  2.2400000000000D+00 -2.1691292055529D-03  2.3932413440173D-03
226  2.2500000000000D+00 -1.0503826075878D-03  1.0841699838078D-03
227  2.2600000000000D+00 -3.4910558632869D-04  2.7063538496754D-04
228  2.2700000000000D+00  1.1765227232961D-05 -1.3348878391142D-04
229  2.2800000000000D+00  1.2125118303033D-04 -2.2513184165162D-04
230  2.2900000000000D+00  8.5389570534753D-05 -1.3849493817612D-04
231  2.3000000000000D+00  4.1261874468407D-06 -6.3870734042791D-06
232  2.3100000000000D+00 -2.9033640506603D-05  4.4435797837678D-05
233  2.3200000000000D+00 -2.2050328604091D-05  3.3158405190394D-05
234  2.3300000000000D+00  1.4571442051107D-06 -2.3674958345544D-06
235  2.3400000000000D+00  5.8315989409448D-06 -9.3686346438286D-06
236  2.3500000000000D+00  3.4926206975159D-06 -5.5625887567045D-06
237  2.3600000000000D+00 -9.6006543538027D-08  2.6288740963571D-07
238  2.3700000000000D+00 -2.0024261711864D-07  5.4830911491095D-07
239  2.3800000000000D+00 -8.8190530999908D-08  2.4148541749949D-07
240  2.3900000000000D+00  0.0000000000000D+00  0.0000000000000D+00
241  2.4000000000000D+00  0.0000000000000D+00  0.0000000000000D+00
242  2.4100000000000D+00  0.0000000000000D+00  0.0000000000000D+00
243  2.4200000000000D+00  0.0000000000000D+00  0.0000000000000D+00
244  2.4300000000000D+00  0.0000000000000D+00  0.0000000000000D+00
245  2.4400000000000D+00  0.0000000000000D+00  0.0000000000000D+00
246  2.4500000000000D+00  0.0000000000000D+00  0.0000000000000D+00
247  2.4600000000000D+00  0.0000000000000D+00  0.0000000000000D+00
248  2.4700000000000D+00  0.0000000000000D+00  0.0000000000000D+00
249  2.4800000000000D+00  0.0000000000000D+00  0.0000000000000D+00
250  2.4900000000000D+00  0.0000000000000D+00  0.0000000000000D+00
251  2.5000000000000D+00  0.0000000000000D+00  0.0000000000000D+00
252  2.5100000000000D+00  0.0000000000000D+00  0.0000000000000D+00
253  2.5200000000000D+00  0.0000000000000D+00  0.0000000000000D+00
254  2.5300000000000D+00  0.0000000000000D+00  0.0000000000000D+00
255  2.5400000000000D+00  0.0000000000000D+00  0.0000000000000D+00
256  2.5500000000000D+00  0.0000000000000D+00  0.0000000000000D+00
257  2.5600000000000D+00  0.0000000000000D+00  0.0000000000000D+00
258  2.5700000000000D+00  0.0000000000000D+00  0.0000000000000D+00
259  2.5800000000000D+00  0.0000000000000D+00  0.0000000000000D+00
260  2.5900000000000D+00  0.0000000000000D+00  0.0000000000000D+00
261  2.6000000000000D+00  0.0000000000000D+00  0.0000000000000D+00
262  2.6100000000000D+00  0.0000000000000D+00  0.0000000000000D+00
263  2.6200000000000D+00  0.0000000000000D+00  0.0000000000000D+00
264  2.6300000000000D+00  0.0000000000000D+00  0.0000000000000D+00
265  2.6400000000000D+00  0.0000000000000D+00  0.0000000000000D+00
266  2.6500000000000D+00  0.0000000000000D+00  0.0000000000000D+00
267  2.6600000000000D+00  0.0000000000000D+00  0.0000000000000D+00
268  2.6700000000000D+00  0.0000000000000D+00  0.0000000000000D+00
269  2.6800000000000D+00  0.0000000000000D+00  0.0000000000000D+00
270  2.6900000000000D+00  0.0000000000000D+00  0.0000000000000D+00
271  2.7000000000000D+00  0.0000000000000D+00  0.0000000000000D+00
272  2.7100000000000D+00  0.0000000000000D+00  0.0000000000000D+00
273  2.7200000000000D+00  0.0000000000000D+00  0.0000000000000D+00
274  2.7300000000000D+00  0.0000000000000D+00  0.0000000000000D+00
275  2.7400000000000D+00  0.0000000000000D+00  0.0000000000000D+00
276  2.7500000000000D+00  0.0000000000000D+00  0.0000000000000D+00
277  2.7600000000000D+00  0.0000000000000D+00  0.0000000000000D+00
278  2.7700000000000D+00  0.0000000000000D+00  0.0000000000000D+00
279  2.7800000000000D+00  0.0000000000000D+00  0.0000000000000D+00
280  2.7900000000000D+00  0.0000000000000D+00  0.0000000000000D+00
281  2.8000000000000D+00  0.0000000000000D+00  0.0000000000000D+00
282  2.8100000000000D+00  0.0000000000000D+00  0.0000000000000D+00
283  2.8200000000000D+00  0.0000000000000D+00  0.0000000000000D+00
284  2.8300000000000D+00  0.0000000000000D+00  0.0000000000000D+00
285  2.8400000000000D+00  0.0000000000000D+00  0.0000000000000D+00
286  2.8500000000000D+00  0.0000000000000D+00  0.0000000000000D+00
287  2.8600000000000D+00  0.0000000000000D+00  0.0000000000000D+00
288  2.8700000000000D+00  0.0000000000000D+00  0.0000000000000D+00
289  2.8800000000000D+00  0.0000000000000D+00  0.0000000000000D+00
290  2.8900000000000D+00  0.0000000000000D+00  0.0000000000000D+00
291  2.9000000000000D+00  0.0000000000000D+00  0.0000000000000D+00
292  2.9100000000000D+00  0.0000000000000D+00  0.0000000000000D+00
293  2.9200000000000D+00  0.0000000000000D+00  0.0000000000000D+00
294  2.9300000000000D+00  0.0000000000000D+00  0.0000000000000D+00
295  2.9400000000000D+00  0.0000000000000D+00  0.0000000000000D+00
296  2.9500000000000D+00  0.0000000000000D+00  0.0000000000000D+00
297  2.9600000000000D+00  0.0000000000000D+00  0.0000000000000D+00
298  2.9700000000000D+00  0.0000000000000D+00  0.0000000000000D+00
299  2.9800000000000D+00  0.0000000000000D+00  0.0000000000000D+00
300  2.9900000000000D+00  0.0000000000000D+00  0.0000000000000D+00
301  3.0000000000000D+00  0.0000000000000D+00  0.0000000000000D+00
302  3.0100000000000D+00  0.0000000000000D+00  0.0000000000000D+00
303  3.0200000000000D+00  0.0000000000000D+00  0.0000000000000D+00
304  3.0300000000000D+00  0.0000000000000D+00  0.0000000000000D+00
305  3.0400000000000D+00  0.0000000000000D+00  0.0000000000000D+00
306  3.0500000000000D+00  0.0000000000000D+00  0.0000000000000D+00
307  3.0600000000000D+00  0.0000000000000D+00  0.0000000000000D+00
308  3.0700000000000D+00  0.0000000000000D+00  0.0000000000000D+00
309  3.0800000000000D+00  0.0000000000000D+00  0.0000000000000D+00
310  3.0900000000000D+00  0.0000000000000D+00  0.0000000000000D+00
311  3.1000000000000D+00  0.0000000000000D+00  0.0000000000000D+00
312  3.1100000000000D+00  0.0000000000000D+00  0.0000000000000D+00
313  3.1200000000000D+00  0.0000000000000D+00  0.0000000000000D+00
314  3.1300000000000D+00  0.0000000000000D+00  0.0000000000000D+00
315  3.1400000000000D+00  0.0000000000000D+00  0.0000000000000D+00
316  3.1500000000000D+00  0.0000000000000D+00  0.0000000000000D+00
317  3.1600000000000D+00  0.0000000000000D+00  0.0000000000000D+00
318  3.1700000000000D+00  0.0000000000000D+00  0.0000000000000D+00
319  3.1800000000000D+00  0.0000000000000D+00  0.0000000000000D+00
320  3.1900000000000D+00  0.0000000000000D+00  0.0000000000000D+00
321  3.2000000000000D+00  0.0000000000000D+00  0.0000000000000D+00
322  3.2100000000000D+00  0.0000000000000D+00  0.0000000000000D+00
323  3.2200000000000D+00  0.0000000000000D+00  0.0000000000000D+00
324  3.2300000000000D+00  0.0000000000000D+00  0.0000000000000D+00
325  3.2400000000000D+00  0.0000000000000D+00  0.0000000000000D+00
326  3.2500000000000D+00  0.0000000000000D+00  0.0000000000000D+00
327  3.2600000000000D+00  0.0000000000000D+00  0.0000000000000D+00
328  3.2700000000000D+00  0.0000000000000D+00  0.0000000000000D+00
329  3.2800000000000D+00  0.0000000000000D+00  0.0000000000000D+00
330  3.2900000000000D+00  0.0000000000000D+00  0.0000000000000D+00
331  3.3000000000000D+00  0.0000000000000D+00  0.0000000000000D+00
332  3.3100000000000D+00  0.0000000000000D+00  0.0000000000000D+00
333  3.3200000000000D+00  0.0000000000000D+00  0.0000000000000D+00
334  3.3300000000000D+00  0.0000000000000D+00  0.0000000000000D+00
335  3.3400000000000D+00  0.0000000000000D+00  0.0000000000000D+00
336  3.3500000000000D+00  0.0000000000000D+00  0.0000000000000D+00
337  3.3600000000000D+00  0.0000000000000D+00  0.0000000000000D+00
338  3.3700000000000D+00  0.0000000000000D+00  0.0000000000000D+00
339  3.3800000000000D+00  0.0000000000000D+00  0.0000000000000D+00
340  3.3900000000000D+00  0.0000000000000D+00  0.0000000000000D+00
341  3.4000000000000D+00  0.0000000000000D+00  0.0000000000000D+00
342  3.4100000000000D+00  0.0000000000000D+00  0.0000000000000D+00
343  3.4200000000000D+00  0.0000000000000D+00  0.0000000000000D+00
344  3.4300000000000D+00  0.0000000000000D+00  0.0000000000000D+00
345  3.4400000000000D+00  0.0000000000000D+00  0.0000000000000D+00
346  3.4500000000000D+00  0.0000000000000D+00  0.0000000000000D+00
347  3.4600000000000D+00  0.0000000000000D+00  0.0000000000000D+00
348  3.4700000000000D+00  0.0000000000000D+00  0.0000000000000D+00
349  3.4800000000000D+00  0.0000000000000D+00  0.0000000000000D+00
350  3.4900000000000D+00  0.0000000000000D+00  0.0000000000000D+00
351  3.5000000000000D+00  0.0000000000000D+00  0.0000000000000D+00
352  3.5100000000000D+00  0.0000000000000D+00  0.0000000000000D+00
353  3.5200000000000D+00  0.0000000000000D+00  0.0000000000000D+00
354  3.5300000000000D+00  0.0000000000000D+00  0.0000000000000D+00
355  3.5400000000000D+00  0.0000000000000D+00  0.0000000000000D+00
356  3.5500000000000D+00  0.0000000000000D+00  0.0000000000000D+00
357  3.5600000000000D+00  0.0000000000000D+00  0.0000000000000D+00
358  3.5700000000000D+00  0.0000000000000D+00  0.0000000000000D+00
359  3.5800000000000D+00  0.0000000000000D+00  0.0000000000000D+00
360  3.5900000000000D+00  0.0000000000000D+00  0.0000000000000D+00
361  3.6000000000000D+00  0.0000000000000D+00  0.0000000000000D+00
362  3.6100000000000D+00  0.0000000000000D+00  0.0000000000000D+00
363  3.6200000000000D+00  0.0000000000000D+00  0.0000000000000D+00
364  3.6300000000000D+00  0.0000000000000D+00  0.0000000000000D+00
365  3.6400000000000D+00  0.0000000000000D+00  0.0000000000000D+00
366  3.6500000000000D+00  0.0000000000000D+00  0.0000000000000D+00
367  3.6600000000000D+00  0.0000000000000D+00  0.0000000000000D+00
368  3.6700000000000D+00  0.0000000000000D+00  0.0000000000000D+00
369  3.6800000000000D+00  0.0000000000000D+00  0.0000000000000D+00
370  3.6900000000000D+00  0.0000000000000D+00  0.0000000000000D+00
371  3.7000000000000D+00  0.0000000000000D+00  0.0000000000000D+00
372  3.7100000000000D+00  0.0000000000000D+00  0.0000000000000D+00
373  3.7200000000000D+00  0.0000000000000D+00  0.0000000000000D+00
374  3.7300000000000D+00  0.0000000000000D+00  0.0000000000000D+00
375  3.7400000000000D+00  0.0000000000000D+00  0.0000000000000D+00
376  3.7500000000000D+00  0.0000000000000D+00  0.0000000000000D+00
377  3.7600000000000D+00  0.0000000000000D+00  0.0000000000000D+00
378  3.7700000000000D+00  0.0000000000000D+00  0.0000000000000D+00
379  3.7800000000000D+00  0.0000000000000D+00  0.0000000000000D+00
380  3.7900000000000D+00  0.0000000000000D+00  0.0000000000000D+00
381  3.8000000000000D+00  0.0000000000000D+00  0.0000000000000D+00
382  3.8100000000000D+00  0.0000000000000D+00  0.0000000000000D+00
383  3.8200000000000D+00  0.0000000000000D+00  0.0000000000000D+00
384  3.8300000000000D+00  0.0000000000000D+00  0.0000000000000D+00
385  3.8400000000000D+00  0.0000000000000D+00  0.0000000000000D+00
386  3.8500000000000D+00  0.0000000000000D+00  0.0000000000000D+00
387  3.8600000000000D+00  0.0000000000000D+00  0.0000000000000D+00
388  3.8700000000000D+00  0.0000000000000D+00  0.0000000000000D+00
389  3.8800000000000D+00  0.0000000000000D+00  0.0000000000000D+00
390  3.8900000000000D+00  0.0000000000000D+00  0.0000000000000D+00
391  3.9000000000000D+00  0.0000000000000D+00  0.0000000000000D+00
392  3.9100000000000D+00  0.0000000000000D+00  0.0000000000000D+00
393  3.9200000000000D+00  0.0000000000000D+00  0.0000000000000D+00
394  3.9300000000000D+00  0.0000000000000D+00  0.0000000000000D+00
395  3.9400000000000D+00  0.0000000000000D+00  0.0000000000000D+00
396  3.9500000000000D+00  0.0000000000000D+00  0.0000000000000D+00
397  3.9600000000000D+00  0.0000000000000D+00  0.0000000000000D+00
398  3.9700000000000D+00  0.0000000000000D+00  0.0000000000000D+00
399  3.9800000000000D+00  0.0000000000000D+00  0.0000000000000D+00
400  3.9900000000000D+00  0.0000000000000D+00  0.0000000000000D+00
401  4.0000000000000D+00  0.0000000000000D+00  0.0000000000000D+00
402  4.0100000000000D+00  0.0000000000000D+00  0.0000000000000D+00
403  4.0200000000000D+00  0.0000000000000D+00  0.0000000000000D+00
404  4.0300000000000D+00  0.0000000000000D+00  0.0000000000000D+00
405  4.0400000000000D+00  0.0000000000000D+00  0.0000000000000D+00
406  4.0500000000000D+00  0.0000000000000D+00  0.0000000000000D+00
407  4.0600000000000D+00  0.0000000000000D+00  0.0000000000000D+00
408  4.0700000000000D+00  0.0000000000000D+00  0.0000000000000D+00
409  4.0800000000000D+00  0.0000000000000D+00  0.0000000000000D+00
410  4.0900000000000D+00  0.0000000000000D+00  0.0000000000000D+00
411  4.1000000000000D+00  0.0000000000000D+00  0.0000000000000D+00
412  4.1100000000000D+00  0.0000000000000D+00  0.0000000000000D+00
413  4.1200000000000D+00  0.0000000000000D+00  0.0000000000000D+00
414  4.1300000000000D+00  0.0000000000000D+00  0.0000000000000D+00
415  4.1400000000000D+00  0.0000000000000D+00  0.0000000000000D+00
416  4.1500000000000D+00  0.0000000000000D+00  0.0000000000000D+00
417  4.1600000000000D+00  0.0000000000000D+00  0.0000000000000D+00
418  4.1700000000000D+00  0.0000000000000D+00  0.0000000000000D+00
419  4.1800000000000D+00  0.0000000000000D+00  0.0000000000000D+00
420  4.1900000000000D+00  0.0000000000000D+00  0.0000000000000D+00
421  4.2000000000000D+00  0.0000000000000D+00  0.0000000000000D+00
422  4.2100000000000D+00  0.0000000000000D+00  0.0000000000000D+00
423  4.2200000000000D+00  0.0000000000000D+00  0.0000000000000D+00
424  4.2300000000000D+00  0.0000000000000D+00  0.0000000000000D+00
425  4.2400000000000D+00  0.0000000000000D+00  0.0000000000000D+00
426  4.2500000000000D+00  0.0000000000000D+00  0.0000000000000D+00
427  4.2600000000000D+00  0.0000000000000D+00  0.0000000000000D+00
428  4.2700000000000D+00  0.0000000000000D+00  0.0000000000000D+00
429  4.2800000000000D+00  0.0000000000000D+00  0.0000000000000D+00
430  4.2900000000000D+00  0.0000000000000D+00  0.0000000000000D+00
431  4.3000000000000D+00  0.0000000000000D+00  0.0000000000000D+00
432  4.3100000000000D+00  0.0000000000000D+00  0.0000000000000D+00
433  4.3200000000000D+00  0.0000000000000D+00  0.0000000000000D+00
434  4.3300000000000D+00  0.0000000000000D+00  0.0000000000000D+00
435  4.3400000000000D+00  0.0000000000000D+00  0.0000000000000D+00
436  4.3500000000000D+00  0.0000000000000D+00  0.0000000000000D+00
437  4.3600000000000D+00  0.0000000000000D+00  0.0000000000000D+00
438  4.3700000000000D+00  0.0000000000000D+00  0.0000000000000D+00
439  4.3800000000000D+00  0.0000000000000D+00  0.0000000000000D+00
440  4.3900000000000D+00  0.0000000000000D+00  0.0000000000000D+00
441  4.4000000000000D+00  0.0000000000000D+00  0.0000000000000D+00
442  4.4100000000000D+00  0.0000000000000D+00  0.0000000000000D+00
443  4.4200000000000D+00  0.0000000000000D+00  0.0000000000000D+00