Ta    ONCVPSP  r_core=  2.31  1.86  2.07  1.61
73.0000     27.0000      161004    zatom,zion,pspd
8 -116133   3     4   600     0    pspcod,pspxc,lmax,lloc,mmax,r2well
5.99000000  5.00000000  0.00000000    rchrg fchrg qchrg
2     2     2     2     0    nproj
1                 extension_switch
0                         4.4582979103767D+00  8.8195229302712D-01
1  0.0000000000000D+00 -2.5451862839532D-13 -1.7121408457665D-12
2  1.0000000000000D-02  4.4531586526545D-02  6.6897050144717D-04
3  2.0000000000000D-02  8.9015198914167D-02  1.3404824036100D-03
4  3.0000000000000D-02  1.3340291352981D-01  2.0171225108467D-03
5  4.0000000000000D-02  1.7764690771967D-01  2.7015682121319D-03
6  5.0000000000000D-02  2.2169951021773D-01  3.3966322171034D-03
7  6.0000000000000D-02  2.6551325145706D-01  4.1053066257643D-03
8  7.0000000000000D-02  3.0904091375198D-01  4.8308061116521D-03
9  8.0000000000000D-02  3.5223558131918D-01  5.5766099999969D-03
10  9.0000000000000D-02  3.9505069010629D-01  6.3465030244944D-03
11  1.0000000000000D-01  4.3744007739693D-01  7.1446145489143D-03
12  1.1000000000000D-01  4.7935803116132D-01  7.9754560427947D-03
13  1.2000000000000D-01  5.2075933912242D-01  8.8439566040615D-03
14  1.3000000000000D-01  5.6159933750752D-01  9.7554963254100D-03
15  1.4000000000000D-01  6.0183395945608D-01  1.0715937305908D-02
16  1.5000000000000D-01  6.4141978305483D-01  1.1731652114430D-02
17  1.6000000000000D-01  6.8031407897156D-01  1.2809549517190D-02
18  1.7000000000000D-01  7.1847485765957D-01  1.3957097288036D-02
19  1.8000000000000D-01  7.5586091610487D-01  1.5182341927069D-02
20  1.9000000000000D-01  7.9243188408866D-01  1.6493925120711D-02
21  2.0000000000000D-01  8.2814826993771D-01  1.7901096784704D-02
22  2.1000000000000D-01  8.6297150573531D-01  1.9413724540334D-02
23  2.2000000000000D-01  8.9686399196560D-01  2.1042299483960D-02
24  2.3000000000000D-01  9.2978914156371D-01  2.2797938120217D-02
25  2.4000000000000D-01  9.6171142334398D-01  2.4692380340400D-02
26  2.5000000000000D-01  9.9259640477819D-01  2.6737983339457D-02
27  2.6000000000000D-01  1.0224107940948D+00  2.8947711377505D-02
28  2.7000000000000D-01  1.0511224816700D+00  3.1335121305294D-02
29  2.8000000000000D-01  1.0787005806794D+00  3.3914343787056D-02
30  2.9000000000000D-01  1.1051154669799D+00  3.6700060169071D-02
31  3.0000000000000D-01  1.1303388181874D+00  3.9707474957889D-02
32  3.1000000000000D-01  1.1543436519167D+00  4.2952283888445D-02
33  3.2000000000000D-01  1.1771043631479D+00  4.6450637579236D-02
34  3.3000000000000D-01  1.1985967606799D+00  5.0219100789427D-02
35  3.4000000000000D-01  1.2187981026324D+00  5.4274607311018D-02
36  3.5000000000000D-01  1.2376871309526D+00  5.8634410548019D-02
37  3.6000000000000D-01  1.2552441048836D+00  6.3316029853859D-02
38  3.7000000000000D-01  1.2714508333448D+00  6.8337192718244D-02
39  3.8000000000000D-01  1.2862907061772D+00  7.3715772914771D-02
40  3.9000000000000D-01  1.2997487241977D+00  7.9469724741200D-02
41  4.0000000000000D-01  1.3118115280091D+00  8.5617013505180D-02
42  4.1000000000000D-01  1.3224674255046D+00  9.2175542429054D-02
43  4.2000000000000D-01  1.3317064180076D+00  9.9163076168671D-02
44  4.3000000000000D-01  1.3395202249787D+00  1.0659716116201D-01
45  4.4000000000000D-01  1.3459023072238D+00  1.1449504304453D-01
46  4.5000000000000D-01  1.3508478885312D+00  1.2287358138885D-01
47  4.6000000000000D-01  1.3543539756632D+00  1.3174916204684D-01
48  4.7000000000000D-01  1.3564193766248D+00  1.4113760739221D-01
49  4.8000000000000D-01  1.3570447171291D+00  1.5105408478119D-01
50  4.9000000000000D-01  1.3562324551773D+00  1.6151301356757D-01
51  5.0000000000000D-01  1.3539868936658D+00  1.7252797102673D-01
52  5.1000000000000D-01  1.3503141909353D+00  1.8411159755989D-01
53  5.2000000000000D-01  1.3452223691695D+00  1.9627550156649D-01
54  5.3000000000000D-01  1.3387213205539D+00  2.0903016438708D-01
55  5.4000000000000D-01  1.3308228111001D+00  2.2238484573311D-01
56  5.5000000000000D-01  1.3215404820436D+00  2.3634749003214D-01
57  5.6000000000000D-01  1.3108898487187D+00  2.5092463412787D-01
58  5.7000000000000D-01  1.2988882968180D+00  2.6612131678349D-01
59  5.8000000000000D-01  1.2855550759407D+00  2.8194099044442D-01
60  5.9000000000000D-01  1.2709112903372D+00  2.9838543572205D-01
61  6.0000000000000D-01  1.2549798867590D+00  3.1545467906385D-01
62  6.1000000000000D-01  1.2377856393223D+00  3.3314691407692D-01
63  6.2000000000000D-01  1.2193551313008D+00  3.5145842697149D-01
64  6.3000000000000D-01  1.1997167337618D+00  3.7038352658871D-01
65  6.4000000000000D-01  1.1789005809672D+00  3.8991447947167D-01
66  6.5000000000000D-01  1.1569385424638D+00  4.1004145043208D-01
67  6.6000000000000D-01  1.1338641917939D+00  4.3075244905511D-01
68  6.7000000000000D-01  1.1097127717604D+00  4.5203328257347D-01
69  6.8000000000000D-01  1.0845211561927D+00  4.7386751552719D-01
70  6.9000000000000D-01  1.0583278081607D+00  4.9623643660946D-01
71  7.0000000000000D-01  1.0311727345976D+00  5.1911903307933D-01
72  7.1000000000000D-01  1.0030974372974D+00  5.4249197310108D-01
73  7.2000000000000D-01  9.7414486026576D-01  5.6632959634616D-01
74  7.3000000000000D-01  9.4435933340958D-01  5.9060391316739D-01
75  7.4000000000000D-01  9.1378651256464D-01  6.1528461262725D-01
76  7.5000000000000D-01  8.8247331587002D-01  6.4033907963083D-01
77  7.6000000000000D-01  8.5046785651112D-01  6.6573242138226D-01
78  7.7000000000000D-01  8.1781937186524D-01  6.9142750334802D-01
79  7.8000000000000D-01  7.8457814909708D-01  7.1738499487470D-01
80  7.9000000000000D-01  7.5079544726481D-01  7.4356342456985D-01
81  8.0000000000000D-01  7.1652341601180D-01  7.6991924551541D-01
82  8.1000000000000D-01  6.8181501093288D-01  7.9640691034097D-01
83  8.2000000000000D-01  6.4672390571933D-01  8.2297895614213D-01
84  8.3000000000000D-01  6.1130440120125D-01  8.4958609918500D-01
85  8.4000000000000D-01  5.7561133142123D-01  8.7617733929309D-01
86  8.5000000000000D-01  5.3969996688854D-01  9.0270007376746D-01
87  8.6000000000000D-01  5.0362591517819D-01  9.2910022064472D-01
88  8.7000000000000D-01  4.6744501905441D-01  9.5532235105088D-01
89  8.8000000000000D-01  4.3121325231341D-01  9.8130983036285D-01
90  8.9000000000000D-01  3.9498661355491D-01  1.0070049678424D+00
91  9.0000000000000D-01  3.5882101810673D-01  1.0323491743613D+00
92  9.1000000000000D-01  3.2277218834102D-01  1.0572831277913D+00
93  9.2000000000000D-01  2.8689554263449D-01  1.0817469455871D+00
94  9.3000000000000D-01  2.5124608323827D-01  1.1056803640459D+00
95  9.4000000000000D-01  2.1587828333586D-01  1.1290229236880D+00
96  9.5000000000000D-01  1.8084597357955D-01  1.1517141601564D+00
97  9.6000000000000D-01  1.4620222840699D-01  1.1736937999999D+00
98  9.7000000000000D-01  1.1199925245002D-01  1.1949019606621D+00
99  9.8000000000000D-01  7.8288267357254D-02  1.2152793539670D+00
100  9.9000000000000D-01  4.5119399360443D-02  1.2347674923569D+00
101  1.0000000000000D+00  1.2541567922187D-02  1.2533088971099D+00
102  1.0100000000000D+00 -1.9397624191425D-02  1.2708473077357D+00
103  1.0200000000000D+00 -5.0651999064427D-02  1.2873278917255D+00
104  1.0300000000000D+00 -8.1176909658180D-02  1.3026974538095D+00
105  1.0400000000000D+00 -1.1092934335710D-01  1.3169046438587D+00
106  1.0500000000000D+00 -1.3986802267662D-01  1.3299001625532D+00
107  1.0600000000000D+00 -1.6795350277749D-01  1.3416369639287D+00
108  1.0700000000000D+00 -1.9514826543211D-01  1.3520704539069D+00
109  1.0800000000000D+00 -2.2141680909169D-01  1.3611586839104D+00
110  1.0900000000000D+00 -2.4672573470786D-01  1.3688625386676D+00
111  1.1000000000000D+00 -2.7104382696838D-01  1.3751459173135D+00
112  1.1100000000000D+00 -2.9434213061462D-01  1.3799759069060D+00
113  1.1200000000000D+00 -3.1659402151725D-01  1.3833229474879D+00
114  1.1300000000000D+00 -3.3777527219697D-01  1.3851609878416D+00
115  1.1400000000000D+00 -3.5786411149031D-01  1.3854676311074D+00
116  1.1500000000000D+00 -3.7684127807419D-01  1.3842242694610D+00
117  1.1600000000000D+00 -3.9469006757660D-01  1.3814162070737D+00
118  1.1700000000000D+00 -4.1139637301789D-01  1.3770327706125D+00
119  1.1800000000000D+00 -4.2694871834584D-01  1.3710674065751D+00
120  1.1900000000000D+00 -4.4133828484880D-01  1.3635177648033D+00
121  1.2000000000000D+00 -4.5455893024351D-01  1.3543857675408D+00
122  1.2100000000000D+00 -4.6660720026532D-01  1.3436776634743D+00
123  1.2200000000000D+00 -4.7748233260799D-01  1.3314040662363D+00
124  1.2300000000000D+00 -4.8718625308137D-01  1.3175799769021D+00
125  1.2400000000000D+00 -4.9572356387885D-01  1.3022247900609D+00
126  1.2500000000000D+00 -5.0310152388036D-01  1.2853622831252D+00
127  1.2600000000000D+00 -5.0933002093654D-01  1.2670205885889D+00
128  1.2700000000000D+00 -5.1442153609787D-01  1.2472321489842D+00
129  1.2800000000000D+00 -5.1839109980060D-01  1.2260336544062D+00
130  1.2900000000000D+00 -5.2125624003540D-01  1.2034659625084D+00
131  1.3000000000000D+00 -5.2303692254136D-01  1.1795740009085D+00
132  1.3100000000000D+00 -5.2375548312718D-01  1.1544066520950D+00
133  1.3200000000000D+00 -5.2343655222317D-01  1.1280166209255D+00
134  1.3300000000000D+00 -5.2210697179320D-01  1.1004602848717D+00
135  1.3400000000000D+00 -5.1979570479669D-01  1.0717975273201D+00
136  1.3500000000000D+00 -5.1653373737486D-01  1.0420915541958D+00
137  1.3600000000000D+00 -5.1235397398486D-01  1.0114086943027D+00
138  1.3700000000000D+00 -5.0729112575123D-01  9.7981818388953D-01
139  1.3800000000000D+00 -5.0138159226952D-01  9.4739193586421D-01
140  1.3900000000000D+00 -4.9466333719329D-01  9.1420429432442D-01
141  1.4000000000000D+00 -4.8717575791467D-01  8.8033177502255D-01
142  1.4100000000000D+00 -4.7895954966446D-01  8.4585279241945D-01
143  1.4200000000000D+00 -4.7005656443341D-01  8.1084737418532D-01
144  1.4300000000000D+00 -4.6050966505749D-01  7.7539686384777D-01
145  1.4400000000000D+00 -4.5036257490093D-01  7.3958361253059D-01
146  1.4500000000000D+00 -4.3965972354685D-01  7.0349066066652D-01
147  1.4600000000000D+00 -4.2844608891780D-01  6.6720141059462D-01
148  1.4700000000000D+00 -4.1676703630497D-01  6.3079929111938D-01
149  1.4800000000000D+00 -4.0466815472811D-01  5.9436741494101D-01
150  1.4900000000000D+00 -3.9219509113262D-01  5.5798823011500D-01
151  1.5000000000000D+00 -3.7939338287570D-01  5.2174316654079D-01
152  1.5100000000000D+00 -3.6630828900214D-01  4.8571227862028D-01
153  1.5200000000000D+00 -3.5298462078854D-01  4.4997388517984D-01
154  1.5300000000000D+00 -3.3946657205629D-01  4.1460420778794D-01
155  1.5400000000000D+00 -3.2579754972884D-01  3.7967700858400D-01
156  1.5500000000000D+00 -3.1202000514663D-01  3.4526322877625D-01
157  1.5600000000000D+00 -2.9817526602126D-01  3.1143062676901D-01
158  1.5700000000000D+00 -2.8430337240614D-01  2.7824342772212D-01
159  1.5800000000000D+00 -2.7044290755596D-01  2.4576195092336D-01
160  1.5900000000000D+00 -2.5663085260272D-01  2.1404231677601D-01
161  1.6000000000000D+00 -2.4290244080831D-01  1.8313615377754D-01
162  1.6100000000000D+00 -2.2929087778837D-01  1.5308979790309D-01
163  1.6200000000000D+00 -2.1582735430947D-01  1.2394456710415D-01
164  1.6300000000000D+00 -2.0254125642355D-01  9.5737787836749D-02
165  1.6400000000000D+00 -1.8946033094542D-01  6.8503537144007D-02
166  1.6500000000000D+00 -1.7661099414929D-01  4.2273850033453D-02
167  1.6600000000000D+00 -1.6401833074394D-01  1.7078761998570D-02
168  1.6700000000000D+00 -1.5170594972943D-01 -7.0542258678804D-03
169  1.6800000000000D+00 -1.3969597773658D-01 -3.0100148996338D-02
170  1.6900000000000D+00 -1.2800902655499D-01 -5.2036685268143D-02
171  1.7000000000000D+00 -1.1666416161293D-01 -7.2844265990314D-02
172  1.7100000000000D+00 -1.0567887847037D-01 -9.2506161093509D-02
173  1.7200000000000D+00 -9.5069081958108D-02 -1.1100856032367D-01
174  1.7300000000000D+00 -8.4849070532504D-02 -1.2834064040097D-01
175  1.7400000000000D+00 -7.5031525573028D-02 -1.4449461951673D-01
176  1.7500000000000D+00 -6.5627505465118D-02 -1.5946579959600D-01
177  1.7600000000000D+00 -5.6646444653947D-02 -1.7325259584157D-01
178  1.7700000000000D+00 -4.8096157557087D-02 -1.8585655381681D-01
179  1.7800000000000D+00 -3.9982847439039D-02 -1.9728235378693D-01
180  1.7900000000000D+00 -3.2311120158072D-02 -2.0753780252883D-01
181  1.8000000000000D+00 -2.5084002762258D-02 -2.1663381264997D-01
182  1.8100000000000D+00 -1.8302966915949D-02 -2.2458436944532D-01
183  1.8200000000000D+00 -1.1967956971789D-02 -2.3140648574402D-01
184  1.8300000000000D+00 -6.0774227742681D-03 -2.3712014450869D-01
185  1.8400000000000D+00 -6.2835682089655D-04 -2.4174823011962D-01
186  1.8500000000000D+00  4.3836640061122D-03 -2.4531644778389D-01
187  1.8600000000000D+00  8.9644327020831D-03 -2.4785323248713D-01
188  1.8700000000000D+00  1.3121062093915D-02 -2.4938964669898D-01
189  1.8800000000000D+00  1.6861931113701D-02 -2.4995926841387D-01
190  1.8900000000000D+00  2.0196627204241D-02 -2.4959806902712D-01
191  1.9000000000000D+00  2.3135885332122D-02 -2.4834428224257D-01
192  1.9100000000000D+00  2.5691523671035D-02 -2.4623826414931D-01
193  1.9200000000000D+00  2.7876376218596D-02 -2.4332234512125D-01
194  1.9300000000000D+00  2.9704222662517D-02 -2.3964067432775D-01
195  1.9400000000000D+00  3.1189715567493D-02 -2.3523905701113D-01
196  1.9500000000000D+00  3.2348305392241D-02 -2.3016478582790D-01
197  1.9600000000000D+00  3.3196163316636D-02 -2.2446646616118D-01
198  1.9700000000000D+00  3.3750102403517D-02 -2.1819383675259D-01
199  1.9800000000000D+00  3.4027497201393D-02 -2.1139758588326D-01
200  1.9900000000000D+00  3.4046202144005D-02 -2.0412916401234D-01
201  2.0000000000000D+00  3.3824469033331D-02 -1.9644059358735D-01
202  2.0100000000000D+00  3.3380863852688D-02 -1.8838427662460D-01
203  2.0200000000000D+00  3.2734183240136D-02 -1.8001280092670D-01
204  2.0300000000000D+00  3.1903370903847D-02 -1.7137874559101D-01
205  2.0400000000000D+00  3.0907434238806D-02 -1.6253448651318D-01
206  2.0500000000000D+00  2.9765361483681D-02 -1.5353200270331D-01
207  2.0600000000000D+00  2.8496039685522D-02 -1.4442268409832D-01
208  2.0700000000000D+00  2.7118173688495D-02 -1.3525714143781D-01
209  2.0800000000000D+00  2.5650206613247D-02 -1.2608501933698D-01
210  2.0900000000000D+00  2.4110241827518D-02 -1.1695481261547D-01
211  2.1000000000000D+00  2.2515966957812D-02 -1.0791368722789D-01
212  2.1100000000000D+00  2.0884580048237D-02 -9.9007306089905D-02
213  2.1200000000000D+00  1.9232718041220D-02 -9.0279660254375D-02
214  2.1300000000000D+00  1.7576388190305D-02 -8.1772906951661D-02
215  2.1400000000000D+00  1.5930902096326D-02 -7.3527213762705D-02
216  2.1500000000000D+00  1.4310813132014D-02 -6.5580610831147D-02
217  2.1600000000000D+00  1.2729857214859D-02 -5.7968851034710D-02
218  2.1700000000000D+00  1.1200896910310D-02 -5.0725278085819D-02
219  2.1800000000000D+00  9.7358697754233D-03 -4.3880704849253D-02
220  2.1900000000000D+00  8.3457402102182D-03 -3.7463300054748D-02
221  2.2000000000000D+00  7.0404556762998D-03 -3.1498485574321D-02
222  2.2100000000000D+00  5.8289073673546D-03 -2.6008844489651D-02
223  2.2200000000000D+00  4.7188947406014D-03 -2.1014038465536D-02
224  2.2300000000000D+00  3.7173935665097D-03 -1.6532102371613D-02
225  2.2400000000000D+00  2.8299573752020D-03 -1.2576765353989D-02
226  2.2500000000000D+00  2.0595365274860D-03 -9.1520975924102D-03
227  2.2600000000000D+00  1.4068216397318D-03 -6.2543701411848D-03
228  2.2700000000000D+00  8.7901603993440D-04 -3.9113537222492D-03
229  2.2800000000000D+00  4.8292002866365D-04 -2.1512885522896D-03
230  2.2900000000000D+00  2.2172604184184D-04 -9.8773251360303D-04
231  2.3000000000000D+00  7.1322994902029D-05 -3.1549878006435D-04
232  2.3100000000000D+00  2.8950238973060D-06 -8.8408846573375D-06
233  2.3200000000000D+00 -1.5124664262723D-05  7.0607058893620D-05
234  2.3300000000000D+00 -7.6132593461170D-06  3.5144070003996D-05
235  2.3400000000000D+00  3.0713449094979D-06 -1.4020909366138D-05
236  2.3500000000000D+00  5.6289829376930D-06 -2.5641915360513D-05
237  2.3600000000000D+00  2.1097058181083D-06 -9.5994185949518D-06
238  2.3700000000000D+00 -6.8484666478420D-07  3.1279555551081D-06
239  2.3800000000000D+00 -9.5743296701124D-07  4.3670063027788D-06
240  2.3900000000000D+00 -2.2858775630378D-07  1.0415760095516D-06
241  2.4000000000000D+00 -2.5994480867647D-08  1.0659179854595D-07
242  2.4100000000000D+00 -2.8949197500795D-08  1.1870777661546D-07
243  2.4200000000000D+00 -2.9583021560101D-09  1.2130680703223D-08
244  2.4300000000000D+00  0.0000000000000D+00  0.0000000000000D+00
245  2.4400000000000D+00  0.0000000000000D+00  0.0000000000000D+00
246  2.4500000000000D+00  0.0000000000000D+00  0.0000000000000D+00
247  2.4600000000000D+00  0.0000000000000D+00  0.0000000000000D+00
248  2.4700000000000D+00  0.0000000000000D+00  0.0000000000000D+00
249  2.4800000000000D+00  0.0000000000000D+00  0.0000000000000D+00
250  2.4900000000000D+00  0.0000000000000D+00  0.0000000000000D+00
251  2.5000000000000D+00  0.0000000000000D+00  0.0000000000000D+00
252  2.5100000000000D+00  0.0000000000000D+00  0.0000000000000D+00
253  2.5200000000000D+00  0.0000000000000D+00  0.0000000000000D+00
254  2.5300000000000D+00  0.0000000000000D+00  0.0000000000000D+00
255  2.5400000000000D+00  0.0000000000000D+00  0.0000000000000D+00
256  2.5500000000000D+00  0.0000000000000D+00  0.0000000000000D+00
257  2.5600000000000D+00  0.0000000000000D+00  0.0000000000000D+00
258  2.5700000000000D+00  0.0000000000000D+00  0.0000000000000D+00
259  2.5800000000000D+00  0.0000000000000D+00  0.0000000000000D+00
260  2.5900000000000D+00  0.0000000000000D+00  0.0000000000000D+00
261  2.6000000000000D+00  0.0000000000000D+00  0.0000000000000D+00
262  2.6100000000000D+00  0.0000000000000D+00  0.0000000000000D+00
263  2.6200000000000D+00  0.0000000000000D+00  0.0000000000000D+00
264  2.6300000000000D+00  0.0000000000000D+00  0.0000000000000D+00
265  2.6400000000000D+00  0.0000000000000D+00  0.0000000000000D+00
266  2.6500000000000D+00  0.0000000000000D+00  0.0000000000000D+00
267  2.6600000000000D+00  0.0000000000000D+00  0.0000000000000D+00
268  2.6700000000000D+00  0.0000000000000D+00  0.0000000000000D+00
269  2.6800000000000D+00  0.0000000000000D+00  0.0000000000000D+00
270  2.6900000000000D+00  0.0000000000000D+00  0.0000000000000D+00
271  2.7000000000000D+00  0.0000000000000D+00  0.0000000000000D+00
272  2.7100000000000D+00  0.0000000000000D+00  0.0000000000000D+00
273  2.7200000000000D+00  0.0000000000000D+00  0.0000000000000D+00
274  2.7300000000000D+00  0.0000000000000D+00  0.0000000000000D+00
275  2.7400000000000D+00  0.0000000000000D+00  0.0000000000000D+00
276  2.7500000000000D+00  0.0000000000000D+00  0.0000000000000D+00
277  2.7600000000000D+00  0.0000000000000D+00  0.0000000000000D+00
278  2.7700000000000D+00  0.0000000000000D+00  0.0000000000000D+00
279  2.7800000000000D+00  0.0000000000000D+00  0.0000000000000D+00
280  2.7900000000000D+00  0.0000000000000D+00  0.0000000000000D+00
281  2.8000000000000D+00  0.0000000000000D+00  0.0000000000000D+00
282  2.8100000000000D+00  0.0000000000000D+00  0.0000000000000D+00
283  2.8200000000000D+00  0.0000000000000D+00  0.0000000000000D+00
284  2.8300000000000D+00  0.0000000000000D+00  0.0000000000000D+00
285  2.8400000000000D+00  0.0000000000000D+00  0.0000000000000D+00
286  2.8500000000000D+00  0.0000000000000D+00  0.0000000000000D+00
287  2.8600000000000D+00  0.0000000000000D+00  0.0000000000000D+00
288  2.8700000000000D+00  0.0000000000000D+00  0.0000000000000D+00
289  2.8800000000000D+00  0.0000000000000D+00  0.0000000000000D+00
290  2.8900000000000D+00  0.0000000000000D+00  0.0000000000000D+00
291  2.9000000000000D+00  0.0000000000000D+00  0.0000000000000D+00
292  2.9100000000000D+00  0.0000000000000D+00  0.0000000000000D+00
293  2.9200000000000D+00  0.0000000000000D+00  0.0000000000000D+00
294  2.9300000000000D+00  0.0000000000000D+00  0.0000000000000D+00
295  2.9400000000000D+00  0.0000000000000D+00  0.0000000000000D+00
296  2.9500000000000D+00  0.0000000000000D+00  0.0000000000000D+00
297  2.9600000000000D+00  0.0000000000000D+00  0.0000000000000D+00
298  2.9700000000000D+00  0.0000000000000D+00  0.0000000000000D+00
299  2.9800000000000D+00  0.0000000000000D+00  0.0000000000000D+00
300  2.9900000000000D+00  0.0000000000000D+00  0.0000000000000D+00
301  3.0000000000000D+00  0.0000000000000D+00  0.0000000000000D+00
302  3.0100000000000D+00  0.0000000000000D+00  0.0000000000000D+00
303  3.0200000000000D+00  0.0000000000000D+00  0.0000000000000D+00
304  3.0300000000000D+00  0.0000000000000D+00  0.0000000000000D+00
305  3.0400000000000D+00  0.0000000000000D+00  0.0000000000000D+00
306  3.0500000000000D+00  0.0000000000000D+00  0.0000000000000D+00
307  3.0600000000000D+00  0.0000000000000D+00  0.0000000000000D+00
308  3.0700000000000D+00  0.0000000000000D+00  0.0000000000000D+00
309  3.0800000000000D+00  0.0000000000000D+00  0.0000000000000D+00
310  3.0900000000000D+00  0.0000000000000D+00  0.0000000000000D+00
311  3.1000000000000D+00  0.0000000000000D+00  0.0000000000000D+00
312  3.1100000000000D+00  0.0000000000000D+00  0.0000000000000D+00
313  3.1200000000000D+00  0.0000000000000D+00  0.0000000000000D+00
314  3.1300000000000D+00  0.0000000000000D+00  0.0000000000000D+00
315  3.1400000000000D+00  0.0000000000000D+00  0.0000000000000D+00
316  3.1500000000000D+00  0.0000000000000D+00  0.0000000000000D+00
317  3.1600000000000D+00  0.0000000000000D+00  0.0000000000000D+00
318  3.1700000000000D+00  0.0000000000000D+00  0.0000000000000D+00
319  3.1800000000000D+00  0.0000000000000D+00  0.0000000000000D+00
320  3.1900000000000D+00  0.0000000000000D+00  0.0000000000000D+00
321  3.2000000000000D+00  0.0000000000000D+00  0.0000000000000D+00
322  3.2100000000000D+00  0.0000000000000D+00  0.0000000000000D+00
323  3.2200000000000D+00  0.0000000000000D+00  0.0000000000000D+00
324  3.2300000000000D+00  0.0000000000000D+00  0.0000000000000D+00
325  3.2400000000000D+00  0.0000000000000D+00  0.0000000000000D+00
326  3.2500000000000D+00  0.0000000000000D+00  0.0000000000000D+00
327  3.2600000000000D+00  0.0000000000000D+00  0.0000000000000D+00
328  3.2700000000000D+00  0.0000000000000D+00  0.0000000000000D+00
329  3.2800000000000D+00  0.0000000000000D+00  0.0000000000000D+00
330  3.2900000000000D+00  0.0000000000000D+00  0.0000000000000D+00
331  3.3000000000000D+00  0.0000000000000D+00  0.0000000000000D+00
332  3.3100000000000D+00  0.0000000000000D+00  0.0000000000000D+00
333  3.3200000000000D+00  0.0000000000000D+00  0.0000000000000D+00
334  3.3300000000000D+00  0.0000000000000D+00  0.0000000000000D+00
335  3.3400000000000D+00  0.0000000000000D+00  0.0000000000000D+00
336  3.3500000000000D+00  0.0000000000000D+00  0.0000000000000D+00
337  3.3600000000000D+00  0.0000000000000D+00  0.0000000000000D+00
338  3.3700000000000D+00  0.0000000000000D+00  0.0000000000000D+00
339  3.3800000000000D+00  0.0000000000000D+00  0.0000000000000D+00
340  3.3900000000000D+00  0.0000000000000D+00  0.0000000000000D+00
341  3.4000000000000D+00  0.0000000000000D+00  0.0000000000000D+00
342  3.4100000000000D+00  0.0000000000000D+00  0.0000000000000D+00
343  3.4200000000000D+00  0.0000000000000D+00  0.0000000000000D+00
344  3.4300000000000D+00  0.0000000000000D+00  0.0000000000000D+00
345  3.4400000000000D+00  0.0000000000000D+00  0.0000000000000D+00
346  3.4500000000000D+00  0.0000000000000D+00  0.0000000000000D+00
347  3.4600000000000D+00  0.0000000000000D+00  0.0000000000000D+00
348  3.4700000000000D+00  0.0000000000000D+00  0.0000000000000D+00
349  3.4800000000000D+00  0.0000000000000D+00  0.0000000000000D+00
350  3.4900000000000D+00  0.0000000000000D+00  0.0000000000000D+00
351  3.5000000000000D+00  0.0000000000000D+00  0.0000000000000D+00
352  3.5100000000000D+00  0.0000000000000D+00  0.0000000000000D+00
353  3.5200000000000D+00  0.0000000000000D+00  0.0000000000000D+00
354  3.5300000000000D+00  0.0000000000000D+00  0.0000000000000D+00
355  3.5400000000000D+00  0.0000000000000D+00  0.0000000000000D+00
356  3.5500000000000D+00  0.0000000000000D+00  0.0000000000000D+00
357  3.5600000000000D+00  0.0000000000000D+00  0.0000000000000D+00
358  3.5700000000000D+00  0.0000000000000D+00  0.0000000000000D+00
359  3.5800000000000D+00  0.0000000000000D+00  0.0000000000000D+00
360  3.5900000000000D+00  0.0000000000000D+00  0.0000000000000D+00
361  3.6000000000000D+00  0.0000000000000D+00  0.0000000000000D+00
362  3.6100000000000D+00  0.0000000000000D+00  0.0000000000000D+00
363  3.6200000000000D+00  0.0000000000000D+00  0.0000000000000D+00
364  3.6300000000000D+00  0.0000000000000D+00  0.0000000000000D+00
365  3.6400000000000D+00  0.0000000000000D+00  0.0000000000000D+00
366  3.6500000000000D+00  0.0000000000000D+00  0.0000000000000D+00
367  3.6600000000000D+00  0.0000000000000D+00  0.0000000000000D+00
368  3.6700000000000D+00  0.0000000000000D+00  0.0000000000000D+00
369  3.6800000000000D+00  0.0000000000000D+00  0.0000000000000D+00
370  3.6900000000000D+00  0.0000000000000D+00  0.0000000000000D+00
371  3.7000000000000D+00  0.0000000000000D+00  0.0000000000000D+00
372  3.7100000000000D+00  0.0000000000000D+00  0.0000000000000D+00
373  3.7200000000000D+00  0.0000000000000D+00  0.0000000000000D+00
374  3.7300000000000D+00  0.0000000000000D+00  0.0000000000000D+00
375  3.7400000000000D+00  0.0000000000000D+00  0.0000000000000D+00
376  3.7500000000000D+00  0.0000000000000D+00  0.0000000000000D+00
377  3.7600000000000D+00  0.0000000000000D+00  0.0000000000000D+00
378  3.7700000000000D+00  0.0000000000000D+00  0.0000000000000D+00
379  3.7800000000000D+00  0.0000000000000D+00  0.0000000000000D+00
380  3.7900000000000D+00  0.0000000000000D+00  0.0000000000000D+00
381  3.8000000000000D+00  0.0000000000000D+00  0.0000000000000D+00
382  3.8100000000000D+00  0.0000000000000D+00  0.0000000000000D+00
383  3.8200000000000D+00  0.0000000000000D+00  0.0000000000000D+00
384  3.8300000000000D+00  0.0000000000000D+00  0.0000000000000D+00
385  3.8400000000000D+00  0.0000000000000D+00  0.0000000000000D+00
386  3.8500000000000D+00  0.0000000000000D+00  0.0000000000000D+00
387  3.8600000000000D+00  0.0000000000000D+00  0.0000000000000D+00
388  3.8700000000000D+00  0.0000000000000D+00  0.0000000000000D+00
389  3.8800000000000D+00  0.0000000000000D+00  0.0000000000000D+00
390  3.8900000000000D+00  0.0000000000000D+00  0.0000000000000D+00
391  3.9000000000000D+00  0.0000000000000D+00  0.0000000000000D+00
392  3.9100000000000D+00  0.0000000000000D+00  0.0000000000000D+00
393  3.9200000000000D+00  0.0000000000000D+00  0.0000000000000D+00
394  3.9300000000000D+00  0.0000000000000D+00  0.0000000000000D+00
395  3.9400000000000D+00  0.0000000000000D+00  0.0000000000000D+00
396  3.9500000000000D+00  0.0000000000000D+00  0.0000000000000D+00
397  3.9600000000000D+00  0.0000000000000D+00  0.0000000000000D+00
398  3.9700000000000D+00  0.0000000000000D+00  0.0000000000000D+00
399  3.9800000000000D+00  0.0000000000000D+00  0.0000000000000D+00
400  3.9900000000000D+00  0.0000000000000D+00  0.0000000000000D+00
401  4.0000000000000D+00  0.0000000000000D+00  0.0000000000000D+00
402  4.0100000000000D+00  0.0000000000000D+00  0.0000000000000D+00
403  4.0200000000000D+00  0.0000000000000D+00  0.0000000000000D+00
404  4.0300000000000D+00  0.0000000000000D+00  0.0000000000000D+00
405  4.0400000000000D+00  0.0000000000000D+00  0.0000000000000D+00
406  4.0500000000000D+00  0.0000000000000D+00  0.0000000000000D+00
407  4.0600000000000D+00  0.0000000000000D+00  0.0000000000000D+00
408  4.0700000000000D+00  0.0000000000000D+00  0.0000000000000D+00
409  4.0800000000000D+00  0.0000000000000D+00  0.0000000000000D+00
410  4.0900000000000D+00  0.0000000000000D+00  0.0000000000000D+00
411  4.1000000000000D+00  0.0000000000000D+00  0.0000000000000D+00
412  4.1100000000000D+00  0.0000000000000D+00  0.0000000000000D+00
413  4.1200000000000D+00  0.0000000000000D+00  0.0000000000000D+00
414  4.1300000000000D+00  0.0000000000000D+00  0.0000000000000D+00
415  4.1400000000000D+00  0.0000000000000D+00  0.0000000000000D+00
416  4.1500000000000D+00  0.0000000000000D+00  0.0000000000000D+00
417  4.1600000000000D+00  0.0000000000000D+00  0.0000000000000D+00
418  4.1700000000000D+00  0.0000000000000D+00  0.0000000000000D+00
419  4.1800000000000D+00  0.0000000000000D+00  0.0000000000000D+00
420  4.1900000000000D+00  0.0000000000000D+00  0.0000000000000D+00
421  4.2000000000000D+00  0.0000000000000D+00  0.0000000000000D+00
422  4.2100000000000D+00  0.0000000000000D+00  0.0000000000000D+00
423  4.2200000000000D+00  0.0000000000000D+00  0.0000000000000D+00
424  4.2300000000000D+00  0.0000000000000D+00  0.0000000000000D+00
425  4.2400000000000D+00  0.0000000000000D+00  0.0000000000000D+00
426  4.2500000000000D+00  0.0000000000000D+00  0.0000000000000D+00
427  4.2600000000000D+00  0.0000000000000D+00  0.0000000000000D+00
428  4.2700000000000D+00  0.0000000000000D+00  0.0000000000000D+00
429  4.2800000000000D+00  0.0000000000000D+00  0.0000000000000D+00
430  4.2900000000000D+00  0.0000000000000D+00  0.0000000000000D+00
431  4.3000000000000D+00  0.0000000000000D+00  0.0000000000000D+00
432  4.3100000000000D+00  0.0000000000000D+00  0.0000000000000D+00
433  4.3200000000000D+00  0.0000000000000D+00  0.0000000000000D+00
434  4.3300000000000D+00  0.0000000000000D+00  0.0000000000000D+00
435  4.3400000000000D+00  0.0000000000000D+00  0.0000000000000D+00
436  4.3500000000000D+00  0.0000000000000D+00  0.0000000000000D+00
437  4.3600000000000D+00  0.0000000000000D+00  0.0000000000000D+00
438  4.3700000000000D+00  0.0000000000000D+00  0.0000000000000D+00
439  4.3800000000000D+00  0.0000000000000D+00  0.0000000000000D+00
440  4.3900000000000D+00  0.0000000000000D+00  0.0000000000000D+00
441  4.4000000000000D+00  0.0000000000000D+00  0.0000000000000D+00
442  4.4100000000000D+00  0.0000000000000D+00  0.0000000000000D+00
443  4.4200000000000D+00  0.0000000000000D+00  0.0000000000000D+00