Ta    ONCVPSP  r_core=  1.71  1.71  1.71  2.25
73.0000     13.0000      161004    zatom,zion,pspd
8 -116133   3     4   600     0    pspcod,pspxc,lmax,lloc,mmax,r2well
5.99000000  5.00000000  0.00000000    rchrg fchrg qchrg
2     2     2     2     0    nproj
1                 extension_switch
0                         1.0404968001654D+01  1.3093708604261D+00
1  0.0000000000000D+00 -3.4229685752507D-10  8.8270618592290D-10
2  1.0000000000000D-02  6.3802524542894D-02 -2.3104308338024D-02
3  2.0000000000000D-02  1.2744705581270D-01 -4.5981163631957D-02
4  3.0000000000000D-02  1.9077651087833D-01 -6.8405213849503D-02
5  4.0000000000000D-02  2.5363561897232D-01 -9.0155287211880D-02
6  5.0000000000000D-02  3.1587180635962D-01 -1.1101642812165D-01
7  6.0000000000000D-02  3.7733605599553D-01 -1.3078186868324D-01
8  7.0000000000000D-02  4.3788373397462D-01 -1.4925491539247D-01
9  8.0000000000000D-02  4.9737537511474D-01 -1.6625073145404D-01
10  9.0000000000000D-02  5.5567742044153D-01 -1.8159799627248D-01
11  1.0000000000000D-01  6.1266289983474D-01 -1.9514042494143D-01
12  1.1000000000000D-01  6.6821205366370D-01 -2.0673813201561D-01
13  1.2000000000000D-01  7.2221288786910D-01 -2.1626882547482D-01
14  1.3000000000000D-01  7.7456165763556D-01 -2.2362881856318D-01
15  1.4000000000000D-01  8.2516327553783D-01 -2.2873384909134D-01
16  1.5000000000000D-01  8.7393164082466D-01 -2.3151969780638D-01
17  1.6000000000000D-01  9.2078988732089D-01 -2.3194259954145D-01
18  1.7000000000000D-01  9.6567054827152D-01 -2.2997944303508D-01
19  1.8000000000000D-01  1.0085156373131D+00 -2.2562775753498D-01
20  1.9000000000000D-01  1.0492766456289D+00 -2.1890548655130D-01
21  2.0000000000000D-01  1.0879144562144D+00 -2.0985055137576D-01
22  2.1000000000000D-01  1.1243991770446D+00 -1.9852020921347D-01
23  2.2000000000000D-01  1.1587098957758D+00 -1.8499021295966D-01
24  2.3000000000000D-01  1.1908343594378D+00 -1.6935378177229D-01
25  2.4000000000000D-01  1.2207685833514D+00 -1.5172039362025D-01
26  2.5000000000000D-01  1.2485163942494D+00 -1.3221441290550D-01
27  2.6000000000000D-01  1.2740889132677D+00 -1.1097356804476D-01
28  2.7000000000000D-01  1.2975039851022D+00 -8.8147295534111D-02
29  2.8000000000000D-01  1.3187855601954D+00 -6.3894968489045D-02
30  2.9000000000000D-01  1.3379630373074D+00 -3.8384028939362D-02
31  3.0000000000000D-01  1.3550705742449D+00 -1.1788044245772D-02
32  3.1000000000000D-01  1.3701463748551D+00  1.5715291116540D-02
33  3.2000000000000D-01  1.3832319606426D+00  4.3946186504896D-02
34  3.3000000000000D-01  1.3943714355266D+00  7.2724796455211D-02
35  3.4000000000000D-01  1.4036107523256D+00  1.0187324990106D-01
36  3.5000000000000D-01  1.4109969895352D+00  1.3121764478285D-01
37  3.6000000000000D-01  1.4165776468483D+00  1.6058998584614D-01
38  3.7000000000000D-01  1.4203999676626D+00  1.8983004394694D-01
39  3.8000000000000D-01  1.4225102965190D+00  2.1878711593523D-01
40  3.9000000000000D-01  1.4229534790359D+00  2.4732166516678D-01
41  4.0000000000000D-01  1.4217723114296D+00  2.7530682389261D-01
42  4.1000000000000D-01  1.4190070461652D+00  3.0262974018060D-01
43  4.2000000000000D-01  1.4146949596591D+00  3.2919275362406D-01
44  4.3000000000000D-01  1.4088699872607D+00  3.5491438587141D-01
45  4.4000000000000D-01  1.4015624299875D+00  3.7973013395203D-01
46  4.5000000000000D-01  1.3927987366798D+00  4.0359305645667D-01
47  4.6000000000000D-01  1.3826013643871D+00  4.2647414483659D-01
48  4.7000000000000D-01  1.3709887189050D+00  4.4836247439104D-01
49  4.8000000000000D-01  1.3579751764633D+00  4.6926513189428D-01
50  4.9000000000000D-01  1.3435711866251D+00  4.8920691924719D-01
51  5.0000000000000D-01  1.3277834555102D+00  5.0822983499944D-01
52  5.1000000000000D-01  1.3106152075091D+00  5.2639233805023D-01
53  5.2000000000000D-01  1.2920665227171D+00  5.4376840027260D-01
54  5.3000000000000D-01  1.2721347464065D+00  5.6044635719315D-01
55  5.4000000000000D-01  1.2508149659686D+00  5.7652756817118D-01
56  5.5000000000000D-01  1.2281005499180D+00  5.9212489972751D-01
57  5.6000000000000D-01  1.2039837427589D+00  6.0736104776116D-01
58  5.7000000000000D-01  1.1784563087818D+00  6.2236671632406D-01
59  5.8000000000000D-01  1.1515102171945D+00  6.3727867239075D-01
60  5.9000000000000D-01  1.1231383604026D+00  6.5223769763268D-01
61  6.0000000000000D-01  1.0933352967515D+00  6.6738645957196D-01
62  6.1000000000000D-01  1.0620980086228D+00  6.8286732562659D-01
63  6.2000000000000D-01  1.0294266664599D+00  6.9882014445877D-01
64  6.3000000000000D-01  9.9532538907224D-01  7.1538001968164D-01
65  6.4000000000000D-01  9.5980299045264D-01  7.3267510136525D-01
66  6.5000000000000D-01  9.2287370332433D-01  7.5082442089584D-01
67  6.6000000000000D-01  8.8455786973025D-01  7.6993579458682D-01
68  6.7000000000000D-01  8.4488258917644D-01  7.9010382100545D-01
69  6.8000000000000D-01  8.0388231514838D-01  8.1140799627535D-01
70  6.9000000000000D-01  7.6159939122876D-01  8.3391097064527D-01
71  7.0000000000000D-01  7.1808451855972D-01  8.5765696837584D-01
72  7.1000000000000D-01  6.7339714700037D-01  8.8267039151653D-01
73  7.2000000000000D-01  6.2760578303401D-01  9.0895462641711D-01
74  7.3000000000000D-01  5.8078820826266D-01  9.3649106988456D-01
75  7.4000000000000D-01  5.3303160319722D-01  9.6523838973439D-01
76  7.5000000000000D-01  4.8443257198407D-01  9.9513203216197D-01
77  7.6000000000000D-01  4.3509706470710D-01  1.0260839858625D+00
78  7.7000000000000D-01  3.8514019495285D-01  1.0579828101982D+00
79  7.8000000000000D-01  3.3468595141557D-01  1.0906939319704D+00
80  7.9000000000000D-01  2.8386680344017D-01  1.1240602125269D+00
81  8.0000000000000D-01  2.3282320153637D-01  1.1579027840651D+00
82  8.1000000000000D-01  1.8170297504529D-01  1.1920221510788D+00
83  8.2000000000000D-01  1.3066063027823D-01  1.2261995500073D+00
84  8.3000000000000D-01  7.9856553569709D-02  1.2601985572827D+00
85  8.4000000000000D-01  2.9456124779929D-02  1.2937669331823D+00
86  8.5000000000000D-01 -2.0371252166513D-02  1.3266386861952D+00
87  8.6000000000000D-01 -6.9453194120222D-02  1.3585363400483D+00
88  8.7000000000000D-01 -1.1761545040507D-01  1.3891733831240D+00
89  8.8000000000000D-01 -1.6468307199543D-01  1.4182568777750D+00
90  8.9000000000000D-01 -2.1048162801865D-01  1.4454902050209D+00
91  9.0000000000000D-01 -2.5483845874819D-01  1.4705759183264D+00
92  9.1000000000000D-01 -2.9758395367552D-01  1.4932186786265D+00
93  9.2000000000000D-01 -3.3855284277985D-01  1.5131282415047D+00
94  9.3000000000000D-01 -3.7758548876458D-01  1.5300224664607D+00
95  9.4000000000000D-01 -4.1452916779801D-01  1.5436303175376D+00
96  9.5000000000000D-01 -4.4923932619065D-01  1.5536948242200D+00
97  9.6000000000000D-01 -4.8158080046587D-01  1.5599759714883D+00
98  9.7000000000000D-01 -5.1142898843244D-01  1.5622534882012D+00
99  9.8000000000000D-01 -5.3867095915002D-01  1.5603295035975D+00
100  9.9000000000000D-01 -5.6320649008873D-01  1.5540310426481D+00
101  1.0000000000000D+00 -5.8494902031667D-01  1.5432123322361D+00
102  1.0100000000000D+00 -6.0382650922437D-01  1.5277568917505D+00
103  1.0200000000000D+00 -6.1978219103088D-01  1.5075793834430D+00
104  1.0300000000000D+00 -6.3277521623477D-01  1.4826272001179D+00
105  1.0400000000000D+00 -6.4278117214388D-01  1.4528817700848D+00
106  1.0500000000000D+00 -6.4979247568939D-01  1.4183595619174D+00
107  1.0600000000000D+00 -6.5381863289219D-01  1.3791127744079D+00
108  1.0700000000000D+00 -6.5488636062062D-01  1.3352297002283D+00
109  1.0800000000000D+00 -6.5303956743361D-01  1.2868347546517D+00
110  1.0900000000000D+00 -6.4833919182806D-01  1.2340881644457D+00
111  1.1000000000000D+00 -6.4086289742913D-01  1.1771853150677D+00
112  1.1100000000000D+00 -6.3070462616317D-01  1.1163557580047D+00
113  1.1200000000000D+00 -6.1797401172322D-01  1.0518618832489D+00
114  1.1300000000000D+00 -6.0279565709358D-01  9.8399726551838D-01
115  1.1400000000000D+00 -5.8530828129536D-01  9.1308469629686D-01
116  1.1500000000000D+00 -5.6566374182057D-01  8.3947391702144D-01
117  1.1600000000000D+00 -5.4402594039790D-01  7.6353907167443D-01
118  1.1700000000000D+00 -5.2056962101810D-01  6.8567590024168D-01
119  1.1800000000000D+00 -4.9547907033101D-01  6.0629869745927D-01
120  1.1900000000000D+00 -4.6894673154534D-01  5.2583706382466D-01
121  1.2000000000000D+00 -4.4117174365021D-01  4.4473247756949D-01
122  1.2100000000000D+00 -4.1235841900474D-01  3.6343471937455D-01
123  1.2200000000000D+00 -3.8271467279922D-01  2.8239818276461D-01
124  1.2300000000000D+00 -3.5245041841754D-01  2.0207810445097D-01
125  1.2400000000000D+00 -3.2177594330092D-01  1.2292675033221D-01
126  1.2500000000000D+00 -2.9090028018419D-01  4.5389593572080D-02
127  1.2600000000000D+00 -2.6002958854704D-01 -3.0098478879064D-02
128  1.2700000000000D+00 -2.2936556139197D-01 -1.0311689426486D-01
129  1.2800000000000D+00 -1.9910387207698D-01 -1.7326302036140D-01
130  1.2900000000000D+00 -1.6943267553117D-01 -2.4015565501378D-01
131  1.3000000000000D+00 -1.4053117828697D-01 -3.0343834343148D-01
132  1.3100000000000D+00 -1.1256829032994D-01 -3.6278249132170D-01
133  1.3200000000000D+00 -8.5701371473461D-02 -4.1789024267168D-01
134  1.3300000000000D+00 -6.0075084630654D-02 -4.6849709180172D-01
135  1.3400000000000D+00 -3.5820365815967D-02 -5.1437420559363D-01
136  1.3500000000000D+00 -1.3053521300074D-02 -5.5533043033894D-01
137  1.3600000000000D+00  8.1245394573555D-03 -5.9121396209490D-01
138  1.3700000000000D+00  2.7628929379703D-02 -6.2191366665363D-01
139  1.3800000000000D+00  4.5391259856793D-02 -6.4736002957803D-01
140  1.3900000000000D+00  6.1359964933171D-02 -6.6752573061895D-01
141  1.4000000000000D+00  7.5500470485786D-02 -6.8242583507700D-01
142  1.4100000000000D+00  8.7795205557974D-02 -6.9211759536383D-01
143  1.4200000000000D+00  9.8243459195904D-02 -6.9669987137485D-01
144  1.4300000000000D+00  1.0686108135457D-01 -6.9631216640864D-01
145  1.4400000000000D+00  1.1368003371251D-01 -6.9113329344026D-01
146  1.4500000000000D+00  1.1874779494332D-01 -6.8137968334891D-01
147  1.4600000000000D+00  1.2212662510524D-01 -6.6730334698157D-01
148  1.4700000000000D+00  1.2389270075412D-01 -6.4918952019406D-01
149  1.4800000000000D+00  1.2413512531941D-01 -6.2735400345097D-01
150  1.4900000000000D+00  1.2295482972844D-01 -6.0214023352647D-01
151  1.5000000000000D+00  1.2046337174589D-01 -5.7391610864533D-01
152  1.5100000000000D+00  1.1678164828876D-01 -5.4307060280755D-01
153  1.5200000000000D+00  1.1203853431645D-01 -5.1001020337394D-01
154  1.5300000000000D+00  1.0636946160655D-01 -4.7515520531005D-01
155  1.5400000000000D+00  9.9914954272596D-02 -4.3893590421477D-01
156  1.5500000000000D+00  9.2819134606444D-02 -4.0178872223023D-01
157  1.5600000000000D+00  8.5228218786215D-02 -3.6415231609235D-01
158  1.5700000000000D+00  7.7289007375558D-02 -3.2646367731792D-01
159  1.5800000000000D+00  6.9147420319936D-02 -2.8915435599392D-01
160  1.5900000000000D+00  6.0946995106289D-02 -2.5264658551641D-01
161  1.6000000000000D+00  5.2827443430806D-02 -2.1734955695333D-01
162  1.6100000000000D+00  4.4923763082498D-02 -1.8365720869816D-01
163  1.6200000000000D+00  3.7364412905617D-02 -1.5194344091485D-01
164  1.6300000000000D+00  3.0268879404680D-02 -1.2255562680833D-01
165  1.6400000000000D+00  2.3745604338856D-02 -9.5809181858149D-02
166  1.6500000000000D+00  1.7889579478934D-02 -7.1981246751874D-02
167  1.6600000000000D+00  1.2784815448283D-02 -5.1322301558195D-02
168  1.6700000000000D+00  8.4876714830712D-03 -3.3990148290168D-02
169  1.6800000000000D+00  5.0294353898397D-03 -2.0063693054804D-02
170  1.6900000000000D+00  2.5017642385167D-03 -9.8765157201412D-03
171  1.7000000000000D+00  9.6727994010549D-04 -3.6612858453589D-03
172  1.7100000000000D+00  2.4045976521282D-04 -7.2176481081574D-04
173  1.7200000000000D+00  8.5574289351804D-07  1.6084901387025D-04
174  1.7300000000000D+00 -1.2950177888298D-05  8.9131261439782D-05
175  1.7400000000000D+00  1.2633966039907D-05 -7.5245382492528D-05
176  1.7500000000000D+00  8.3423362449943D-06 -4.6592707579801D-05
177  1.7600000000000D+00 -1.5622695969580D-06  1.1068784166505D-05
178  1.7700000000000D+00 -1.4521996182236D-06  9.6446498100014D-06
179  1.7800000000000D+00 -2.6810375534170D-07  6.1308404764737D-07
180  1.7900000000000D+00 -3.0738485115765D-07  7.0290976899235D-07
181  1.8000000000000D+00  0.0000000000000D+00  0.0000000000000D+00
182  1.8100000000000D+00  0.0000000000000D+00  0.0000000000000D+00
183  1.8200000000000D+00  0.0000000000000D+00  0.0000000000000D+00
184  1.8300000000000D+00  0.0000000000000D+00  0.0000000000000D+00
185  1.8400000000000D+00  0.0000000000000D+00  0.0000000000000D+00
186  1.8500000000000D+00  0.0000000000000D+00  0.0000000000000D+00
187  1.8600000000000D+00  0.0000000000000D+00  0.0000000000000D+00
188  1.8700000000000D+00  0.0000000000000D+00  0.0000000000000D+00
189  1.8800000000000D+00  0.0000000000000D+00  0.0000000000000D+00
190  1.8900000000000D+00  0.0000000000000D+00  0.0000000000000D+00
191  1.9000000000000D+00  0.0000000000000D+00  0.0000000000000D+00
192  1.9100000000000D+00  0.0000000000000D+00  0.0000000000000D+00
193  1.9200000000000D+00  0.0000000000000D+00  0.0000000000000D+00
194  1.9300000000000D+00  0.0000000000000D+00  0.0000000000000D+00
195  1.9400000000000D+00  0.0000000000000D+00  0.0000000000000D+00
196  1.9500000000000D+00  0.0000000000000D+00  0.0000000000000D+00
197  1.9600000000000D+00  0.0000000000000D+00  0.0000000000000D+00
198  1.9700000000000D+00  0.0000000000000D+00  0.0000000000000D+00
199  1.9800000000000D+00  0.0000000000000D+00  0.0000000000000D+00
200  1.9900000000000D+00  0.0000000000000D+00  0.0000000000000D+00
201  2.0000000000000D+00  0.0000000000000D+00  0.0000000000000D+00
202  2.0100000000000D+00  0.0000000000000D+00  0.0000000000000D+00
203  2.0200000000000D+00  0.0000000000000D+00  0.0000000000000D+00
204  2.0300000000000D+00  0.0000000000000D+00  0.0000000000000D+00
205  2.0400000000000D+00  0.0000000000000D+00  0.0000000000000D+00
206  2.0500000000000D+00  0.0000000000000D+00  0.0000000000000D+00
207  2.0600000000000D+00  0.0000000000000D+00  0.0000000000000D+00
208  2.0700000000000D+00  0.0000000000000D+00  0.0000000000000D+00
209  2.0800000000000D+00  0.0000000000000D+00  0.0000000000000D+00
210  2.0900000000000D+00  0.0000000000000D+00  0.0000000000000D+00
211  2.1000000000000D+00  0.0000000000000D+00  0.0000000000000D+00
212  2.1100000000000D+00  0.0000000000000D+00  0.0000000000000D+00
213  2.1200000000000D+00  0.0000000000000D+00  0.0000000000000D+00
214  2.1300000000000D+00  0.0000000000000D+00  0.0000000000000D+00
215  2.1400000000000D+00  0.0000000000000D+00  0.0000000000000D+00
216  2.1500000000000D+00  0.0000000000000D+00  0.0000000000000D+00
217  2.1600000000000D+00  0.0000000000000D+00  0.0000000000000D+00
218  2.1700000000000D+00  0.0000000000000D+00  0.0000000000000D+00
219  2.1800000000000D+00  0.0000000000000D+00  0.0000000000000D+00
220  2.1900000000000D+00  0.0000000000000D+00  0.0000000000000D+00
221  2.2000000000000D+00  0.0000000000000D+00  0.0000000000000D+00
222  2.2100000000000D+00  0.0000000000000D+00  0.0000000000000D+00
223  2.2200000000000D+00  0.0000000000000D+00  0.0000000000000D+00
224  2.2300000000000D+00  0.0000000000000D+00  0.0000000000000D+00
225  2.2400000000000D+00  0.0000000000000D+00  0.0000000000000D+00
226  2.2500000000000D+00  0.0000000000000D+00  0.0000000000000D+00
227  2.2600000000000D+00  0.0000000000000D+00  0.0000000000000D+00
228  2.2700000000000D+00  0.0000000000000D+00  0.0000000000000D+00
229  2.2800000000000D+00  0.0000000000000D+00  0.0000000000000D+00
230  2.2900000000000D+00  0.0000000000000D+00  0.0000000000000D+00
231  2.3000000000000D+00  0.0000000000000D+00  0.0000000000000D+00
232  2.3100000000000D+00  0.0000000000000D+00  0.0000000000000D+00
233  2.3200000000000D+00  0.0000000000000D+00  0.0000000000000D+00
234  2.3300000000000D+00  0.0000000000000D+00  0.0000000000000D+00
235  2.3400000000000D+00  0.0000000000000D+00  0.0000000000000D+00
236  2.3500000000000D+00  0.0000000000000D+00  0.0000000000000D+00
237  2.3600000000000D+00  0.0000000000000D+00  0.0000000000000D+00
238  2.3700000000000D+00  0.0000000000000D+00  0.0000000000000D+00
239  2.3800000000000D+00  0.0000000000000D+00  0.0000000000000D+00
240  2.3900000000000D+00  0.0000000000000D+00  0.0000000000000D+00
241  2.4000000000000D+00  0.0000000000000D+00  0.0000000000000D+00
242  2.4100000000000D+00  0.0000000000000D+00  0.0000000000000D+00
243  2.4200000000000D+00  0.0000000000000D+00  0.0000000000000D+00
244  2.4300000000000D+00  0.0000000000000D+00  0.0000000000000D+00
245  2.4400000000000D+00  0.0000000000000D+00  0.0000000000000D+00
246  2.4500000000000D+00  0.0000000000000D+00  0.0000000000000D+00
247  2.4600000000000D+00  0.0000000000000D+00  0.0000000000000D+00
248  2.4700000000000D+00  0.0000000000000D+00  0.0000000000000D+00
249  2.4800000000000D+00  0.0000000000000D+00  0.0000000000000D+00
250  2.4900000000000D+00  0.0000000000000D+00  0.0000000000000D+00
251  2.5000000000000D+00  0.0000000000000D+00  0.0000000000000D+00
252  2.5100000000000D+00  0.0000000000000D+00  0.0000000000000D+00
253  2.5200000000000D+00  0.0000000000000D+00  0.0000000000000D+00
254  2.5300000000000D+00  0.0000000000000D+00  0.0000000000000D+00
255  2.5400000000000D+00  0.0000000000000D+00  0.0000000000000D+00
256  2.5500000000000D+00  0.0000000000000D+00  0.0000000000000D+00
257  2.5600000000000D+00  0.0000000000000D+00  0.0000000000000D+00
258  2.5700000000000D+00  0.0000000000000D+00  0.0000000000000D+00
259  2.5800000000000D+00  0.0000000000000D+00  0.0000000000000D+00
260  2.5900000000000D+00  0.0000000000000D+00  0.0000000000000D+00
261  2.6000000000000D+00  0.0000000000000D+00  0.0000000000000D+00
262  2.6100000000000D+00  0.0000000000000D+00  0.0000000000000D+00
263  2.6200000000000D+00  0.0000000000000D+00  0.0000000000000D+00
264  2.6300000000000D+00  0.0000000000000D+00  0.0000000000000D+00
265  2.6400000000000D+00  0.0000000000000D+00  0.0000000000000D+00
266  2.6500000000000D+00  0.0000000000000D+00  0.0000000000000D+00
267  2.6600000000000D+00  0.0000000000000D+00  0.0000000000000D+00
268  2.6700000000000D+00  0.0000000000000D+00  0.0000000000000D+00
269  2.6800000000000D+00  0.0000000000000D+00  0.0000000000000D+00
270  2.6900000000000D+00  0.0000000000000D+00  0.0000000000000D+00
271  2.7000000000000D+00  0.0000000000000D+00  0.0000000000000D+00
272  2.7100000000000D+00  0.0000000000000D+00  0.0000000000000D+00
273  2.7200000000000D+00  0.0000000000000D+00  0.0000000000000D+00
274  2.7300000000000D+00  0.0000000000000D+00  0.0000000000000D+00
275  2.7400000000000D+00  0.0000000000000D+00  0.0000000000000D+00
276  2.7500000000000D+00  0.0000000000000D+00  0.0000000000000D+00
277  2.7600000000000D+00  0.0000000000000D+00  0.0000000000000D+00
278  2.7700000000000D+00  0.0000000000000D+00  0.0000000000000D+00
279  2.7800000000000D+00  0.0000000000000D+00  0.0000000000000D+00
280  2.7900000000000D+00  0.0000000000000D+00  0.0000000000000D+00
281  2.8000000000000D+00  0.0000000000000D+00  0.0000000000000D+00
282  2.8100000000000D+00  0.0000000000000D+00  0.0000000000000D+00
283  2.8200000000000D+00  0.0000000000000D+00  0.0000000000000D+00
284  2.8300000000000D+00  0.0000000000000D+00  0.0000000000000D+00
285  2.8400000000000D+00  0.0000000000000D+00  0.0000000000000D+00
286  2.8500000000000D+00  0.0000000000000D+00  0.0000000000000D+00
287  2.8600000000000D+00  0.0000000000000D+00  0.0000000000000D+00
288  2.8700000000000D+00  0.0000000000000D+00  0.0000000000000D+00
289  2.8800000000000D+00  0.0000000000000D+00  0.0000000000000D+00
290  2.8900000000000D+00  0.0000000000000D+00  0.0000000000000D+00
291  2.9000000000000D+00  0.0000000000000D+00  0.0000000000000D+00
292  2.9100000000000D+00  0.0000000000000D+00  0.0000000000000D+00
293  2.9200000000000D+00  0.0000000000000D+00  0.0000000000000D+00
294  2.9300000000000D+00  0.0000000000000D+00  0.0000000000000D+00
295  2.9400000000000D+00  0.0000000000000D+00  0.0000000000000D+00
296  2.9500000000000D+00  0.0000000000000D+00  0.0000000000000D+00
297  2.9600000000000D+00  0.0000000000000D+00  0.0000000000000D+00
298  2.9700000000000D+00  0.0000000000000D+00  0.0000000000000D+00
299  2.9800000000000D+00  0.0000000000000D+00  0.0000000000000D+00
300  2.9900000000000D+00  0.0000000000000D+00  0.0000000000000D+00
301  3.0000000000000D+00  0.0000000000000D+00  0.0000000000000D+00
302  3.0100000000000D+00  0.0000000000000D+00  0.0000000000000D+00
303  3.0200000000000D+00  0.0000000000000D+00  0.0000000000000D+00
304  3.0300000000000D+00  0.0000000000000D+00  0.0000000000000D+00
305  3.0400000000000D+00  0.0000000000000D+00  0.0000000000000D+00
306  3.0500000000000D+00  0.0000000000000D+00  0.0000000000000D+00
307  3.0600000000000D+00  0.0000000000000D+00  0.0000000000000D+00
308  3.0700000000000D+00  0.0000000000000D+00  0.0000000000000D+00
309  3.0800000000000D+00  0.0000000000000D+00  0.0000000000000D+00
310  3.0900000000000D+00  0.0000000000000D+00  0.0000000000000D+00
311  3.1000000000000D+00  0.0000000000000D+00  0.0000000000000D+00
312  3.1100000000000D+00  0.0000000000000D+00  0.0000000000000D+00
313  3.1200000000000D+00  0.0000000000000D+00  0.0000000000000D+00
314  3.1300000000000D+00  0.0000000000000D+00  0.0000000000000D+00
315  3.1400000000000D+00  0.0000000000000D+00  0.0000000000000D+00
316  3.1500000000000D+00  0.0000000000000D+00  0.0000000000000D+00
317  3.1600000000000D+00  0.0000000000000D+00  0.0000000000000D+00
318  3.1700000000000D+00  0.0000000000000D+00  0.0000000000000D+00
319  3.1800000000000D+00  0.0000000000000D+00  0.0000000000000D+00
320  3.1900000000000D+00  0.0000000000000D+00  0.0000000000000D+00
321  3.2000000000000D+00  0.0000000000000D+00  0.0000000000000D+00
322  3.2100000000000D+00  0.0000000000000D+00  0.0000000000000D+00
323  3.2200000000000D+00  0.0000000000000D+00  0.0000000000000D+00
324  3.2300000000000D+00  0.0000000000000D+00  0.0000000000000D+00
325  3.2400000000000D+00  0.0000000000000D+00  0.0000000000000D+00
326  3.2500000000000D+00  0.0000000000000D+00  0.0000000000000D+00
327  3.2600000000000D+00  0.0000000000000D+00  0.0000000000000D+00
328  3.2700000000000D+00  0.0000000000000D+00  0.0000000000000D+00
329  3.2800000000000D+00  0.0000000000000D+00  0.0000000000000D+00
330  3.2900000000000D+00  0.0000000000000D+00  0.0000000000000D+00
331  3.3000000000000D+00  0.0000000000000D+00  0.0000000000000D+00
332  3.3100000000000D+00  0.0000000000000D+00  0.0000000000000D+00
333  3.3200000000000D+00  0.0000000000000D+00  0.0000000000000D+00
334  3.3300000000000D+00  0.0000000000000D+00  0.0000000000000D+00
335  3.3400000000000D+00  0.0000000000000D+00  0.0000000000000D+00
336  3.3500000000000D+00  0.0000000000000D+00  0.0000000000000D+00
337  3.3600000000000D+00  0.0000000000000D+00  0.0000000000000D+00
338  3.3700000000000D+00  0.0000000000000D+00  0.0000000000000D+00
339  3.3800000000000D+00  0.0000000000000D+00  0.0000000000000D+00
340  3.3900000000000D+00  0.0000000000000D+00  0.0000000000000D+00
341  3.4000000000000D+00  0.0000000000000D+00  0.0000000000000D+00
342  3.4100000000000D+00  0.0000000000000D+00  0.0000000000000D+00
343  3.4200000000000D+00  0.0000000000000D+00  0.0000000000000D+00
344  3.4300000000000D+00  0.0000000000000D+00  0.0000000000000D+00
345  3.4400000000000D+00  0.0000000000000D+00  0.0000000000000D+00
346  3.4500000000000D+00  0.0000000000000D+00  0.0000000000000D+00
347  3.4600000000000D+00  0.0000000000000D+00  0.0000000000000D+00
348  3.4700000000000D+00  0.0000000000000D+00  0.0000000000000D+00
349  3.4800000000000D+00  0.0000000000000D+00  0.0000000000000D+00
350  3.4900000000000D+00  0.0000000000000D+00  0.0000000000000D+00
351  3.5000000000000D+00  0.0000000000000D+00  0.0000000000000D+00
352  3.5100000000000D+00  0.0000000000000D+00  0.0000000000000D+00
353  3.5200000000000D+00  0.0000000000000D+00  0.0000000000000D+00
354  3.5300000000000D+00  0.0000000000000D+00  0.0000000000000D+00
355  3.5400000000000D+00  0.0000000000000D+00  0.0000000000000D+00
356  3.5500000000000D+00  0.0000000000000D+00  0.0000000000000D+00
357  3.5600000000000D+00  0.0000000000000D+00  0.0000000000000D+00
358  3.5700000000000D+00  0.0000000000000D+00  0.0000000000000D+00
359  3.5800000000000D+00  0.0000000000000D+00  0.0000000000000D+00
360  3.5900000000000D+00  0.0000000000000D+00  0.0000000000000D+00
361  3.6000000000000D+00  0.0000000000000D+00  0.0000000000000D+00
362  3.6100000000000D+00  0.0000000000000D+00  0.0000000000000D+00
363  3.6200000000000D+00  0.0000000000000D+00  0.0000000000000D+00
364  3.6300000000000D+00  0.0000000000000D+00  0.0000000000000D+00
365  3.6400000000000D+00  0.0000000000000D+00  0.0000000000000D+00
366  3.6500000000000D+00  0.0000000000000D+00  0.0000000000000D+00
367  3.6600000000000D+00  0.0000000000000D+00  0.0000000000000D+00
368  3.6700000000000D+00  0.0000000000000D+00  0.0000000000000D+00
369  3.6800000000000D+00  0.0000000000000D+00  0.0000000000000D+00
370  3.6900000000000D+00  0.0000000000000D+00  0.0000000000000D+00
371  3.7000000000000D+00  0.0000000000000D+00  0.0000000000000D+00
372  3.7100000000000D+00  0.0000000000000D+00  0.0000000000000D+00
373  3.7200000000000D+00  0.0000000000000D+00  0.0000000000000D+00
374  3.7300000000000D+00  0.0000000000000D+00  0.0000000000000D+00
375  3.7400000000000D+00  0.0000000000000D+00  0.0000000000000D+00
376  3.7500000000000D+00  0.0000000000000D+00  0.0000000000000D+00
377  3.7600000000000D+00  0.0000000000000D+00  0.0000000000000D+00
378  3.7700000000000D+00  0.0000000000000D+00  0.0000000000000D+00
379  3.7800000000000D+00  0.0000000000000D+00  0.0000000000000D+00
380  3.7900000000000D+00  0.0000000000000D+00  0.0000000000000D+00
381  3.8000000000000D+00  0.0000000000000D+00  0.0000000000000D+00
382  3.8100000000000D+00  0.0000000000000D+00  0.0000000000000D+00
383  3.8200000000000D+00  0.0000000000000D+00  0.0000000000000D+00
384  3.8300000000000D+00  0.0000000000000D+00  0.0000000000000D+00
385  3.8400000000000D+00  0.0000000000000D+00  0.0000000000000D+00
386  3.8500000000000D+00  0.0000000000000D+00  0.0000000000000D+00
387  3.8600000000000D+00  0.0000000000000D+00  0.0000000000000D+00
388  3.8700000000000D+00  0.0000000000000D+00  0.0000000000000D+00
389  3.8800000000000D+00  0.0000000000000D+00  0.0000000000000D+00
390  3.8900000000000D+00  0.0000000000000D+00  0.0000000000000D+00
391  3.9000000000000D+00  0.0000000000000D+00  0.0000000000000D+00
392  3.9100000000000D+00  0.0000000000000D+00  0.0000000000000D+00
393  3.9200000000000D+00  0.0000000000000D+00  0.0000000000000D+00
394  3.9300000000000D+00  0.0000000000000D+00  0.0000000000000D+00
395  3.9400000000000D+00  0.0000000000000D+00  0.0000000000000D+00
396  3.9500000000000D+00  0.0000000000000D+00  0.0000000000000D+00
397  3.9600000000000D+00  0.0000000000000D+00  0.0000000000000D+00
398  3.9700000000000D+00  0.0000000000000D+00  0.0000000000000D+00
399  3.9800000000000D+00  0.0000000000000D+00  0.0000000000000D+00
400  3.9900000000000D+00  0.0000000000000D+00  0.0000000000000D+00
401  4.0000000000000D+00  0.0000000000000D+00  0.0000000000000D+00
402  4.0100000000000D+00  0.0000000000000D+00  0.0000000000000D+00
403  4.0200000000000D+00  0.0000000000000D+00  0.0000000000000D+00
404  4.0300000000000D+00  0.0000000000000D+00  0.0000000000000D+00
405  4.0400000000000D+00  0.0000000000000D+00  0.0000000000000D+00
406  4.0500000000000D+00  0.0000000000000D+00  0.0000000000000D+00
407  4.0600000000000D+00  0.0000000000000D+00  0.0000000000000D+00
408  4.0700000000000D+00  0.0000000000000D+00  0.0000000000000D+00
409  4.0800000000000D+00  0.0000000000000D+00  0.0000000000000D+00
410  4.0900000000000D+00  0.0000000000000D+00  0.0000000000000D+00
411  4.1000000000000D+00  0.0000000000000D+00  0.0000000000000D+00
412  4.1100000000000D+00  0.0000000000000D+00  0.0000000000000D+00
413  4.1200000000000D+00  0.0000000000000D+00  0.0000000000000D+00
414  4.1300000000000D+00  0.0000000000000D+00  0.0000000000000D+00
415  4.1400000000000D+00  0.0000000000000D+00  0.0000000000000D+00
416  4.1500000000000D+00  0.0000000000000D+00  0.0000000000000D+00
417  4.1600000000000D+00  0.0000000000000D+00  0.0000000000000D+00
418  4.1700000000000D+00  0.0000000000000D+00  0.0000000000000D+00
419  4.1800000000000D+00  0.0000000000000D+00  0.0000000000000D+00
420  4.1900000000000D+00  0.0000000000000D+00  0.0000000000000D+00
421  4.2000000000000D+00  0.0000000000000D+00  0.0000000000000D+00
422  4.2100000000000D+00  0.0000000000000D+00  0.0000000000000D+00
423  4.2200000000000D+00  0.0000000000000D+00  0.0000000000000D+00
424  4.2300000000000D+00  0.0000000000000D+00  0.0000000000000D+00
425  4.2400000000000D+00  0.0000000000000D+00  0.0000000000000D+00
426  4.2500000000000D+00  0.0000000000000D+00  0.0000000000000D+00
427  4.2600000000000D+00  0.0000000000000D+00  0.0000000000000D+00
428  4.2700000000000D+00  0.0000000000000D+00  0.0000000000000D+00
429  4.2800000000000D+00  0.0000000000000D+00  0.0000000000000D+00
430  4.2900000000000D+00  0.0000000000000D+00  0.0000000000000D+00
431  4.3000000000000D+00  0.0000000000000D+00  0.0000000000000D+00
432  4.3100000000000D+00  0.0000000000000D+00  0.0000000000000D+00
433  4.3200000000000D+00  0.0000000000000D+00  0.0000000000000D+00
434  4.3300000000000D+00  0.0000000000000D+00  0.0000000000000D+00
435  4.3400000000000D+00  0.0000000000000D+00  0.0000000000000D+00
436  4.3500000000000D+00  0.0000000000000D+00  0.0000000000000D+00
437  4.3600000000000D+00  0.0000000000000D+00  0.0000000000000D+00
438  4.3700000000000D+00  0.0000000000000D+00  0.0000000000000D+00
439  4.3800000000000D+00  0.0000000000000D+00  0.0000000000000D+00
440  4.3900000000000D+00  0.0000000000000D+00  0.0000000000000D+00
441  4.4000000000000D+00  0.0000000000000D+00  0.0000000000000D+00
442  4.4100000000000D+00  0.0000000000000D+00  0.0000000000000D+00
443  4.4200000000000D+00  0.0000000000000D+00  0.0000000000000D+00