Pt    ONCVPSP-3.3.0  r_core=   1.40600   1.45722   1.40600   1.20403
78.0000     32.0000      171114    zatom,zion,pspd
8   -1012   3     4   500     0    pspcod,pspxc,lmax,lloc,mmax,r2well
4.99000000  5.00000000  0.00000000    rchrg fchrg qchrg
2     2     2     1     0    nproj
1     1           extension_switch
0                         1.5851944702017D+01  1.7574603962272D+00
1  0.0000000000000D+00 -4.8535775398761D-10  1.7007442676409D-10
2  1.0000000000000D-02  7.1418832582171D-02 -1.9317192465694D-02
3  2.0000000000000D-02  1.4270389474177D-01 -3.8586210500651D-02
4  3.0000000000000D-02  2.1372169167053D-01 -5.7758495456520D-02
5  4.0000000000000D-02  2.8433927477446D-01 -7.6784710585834D-02
6  5.0000000000000D-02  3.5442450422765D-01 -9.5614340755557D-02
7  6.0000000000000D-02  4.2384630127196D-01 -1.1419529216734D-01
8  7.0000000000000D-02  4.9247488853502D-01 -1.3247349876346D-01
9  8.0000000000000D-02  5.6018201712440D-01 -1.5039254216746D-01
10  9.0000000000000D-02  6.2684117974349D-01 -1.6789329212379D-01
11  1.0000000000000D-01  6.9232780955546D-01 -1.8491357445245D-01
12  1.1000000000000D-01  7.5651946498787D-01 -2.0138787351601D-01
13  1.2000000000000D-01  8.1929600111253D-01 -2.1724707610090D-01
14  1.3000000000000D-01  8.8053972864719D-01 -2.3241826343832D-01
15  1.4000000000000D-01  9.4013556199960D-01 -2.4682455782857D-01
16  1.5000000000000D-01  9.9797115810517D-01 -2.6038502998429D-01
17  1.6000000000000D-01  1.0539370480911D+00 -2.7301467277212D-01
18  1.7000000000000D-01  1.1079267640279D+00 -2.8462444650944D-01
19  1.8000000000000D-01  1.1598369632024D+00 -2.9512140036400D-01
20  1.9000000000000D-01  1.2095675524547D+00 -3.0440887371410D-01
21  2.0000000000000D-01  1.2570218151779D+00 -3.1238678055782D-01
22  2.1000000000000D-01  1.3021065435618D+00 -3.1895197921895D-01
23  2.2000000000000D-01  1.3447321785935D+00 -3.2399872868978D-01
24  2.3000000000000D-01  1.3848129601889D+00 -3.2741923198520D-01
25  2.4000000000000D-01  1.4222670896391D+00 -3.2910426586701D-01
26  2.5000000000000D-01  1.4570169062997D+00 -3.2894389524126D-01
27  2.6000000000000D-01  1.4889890801539D+00 -3.2682826944510D-01
28  2.7000000000000D-01  1.5181148215200D+00 -3.2264849653430D-01
29  2.8000000000000D-01  1.5443301087832D+00 -3.1629759056960D-01
30  2.9000000000000D-01  1.5675759345944D+00 -3.0767148579171D-01
31  3.0000000000000D-01  1.5877985705109D+00 -2.9667011048346D-01
32  3.1000000000000D-01  1.6049498495644D+00 -2.8319851225702D-01
33  3.2000000000000D-01  1.6189874657318D+00 -2.6716802548555D-01
34  3.3000000000000D-01  1.6298752887619D+00 -2.4849747063764D-01
35  3.4000000000000D-01  1.6375836922946D+00 -2.2711437438067D-01
36  3.5000000000000D-01  1.6420898926879D+00 -2.0295619850931D-01
37  3.6000000000000D-01  1.6433782954699D+00 -1.7597156504023D-01
38  3.7000000000000D-01  1.6414408458537D+00 -1.4612146420631D-01
39  3.8000000000000D-01  1.6362773793013D+00 -1.1338043159344D-01
40  3.9000000000000D-01  1.6278959677158D+00 -7.7737680301710D-02
41  4.0000000000000D-01  1.6163132564745D+00 -3.9198173790493D-02
42  4.1000000000000D-01  1.6015547872040D+00  2.2163750091525D-03
43  4.2000000000000D-01  1.5836553009463D+00  4.6466592652730D-02
44  4.3000000000000D-01  1.5626590161784D+00  9.3494636310431D-02
45  4.4000000000000D-01  1.5386198760313D+00  1.4322350076145D-01
46  4.5000000000000D-01  1.5116017590137D+00  1.9555645438029D-01
47  4.6000000000000D-01  1.4816786475821D+00  2.5037661650253D-01
48  4.7000000000000D-01  1.4489347490196D+00  3.0754668765200D-01
49  4.8000000000000D-01  1.4134645632836D+00  3.6690884304126D-01
50  4.9000000000000D-01  1.3753728927708D+00  4.2828479852801D-01
51  5.0000000000000D-01  1.3347747893119D+00  4.9147605682861D-01
52  5.1000000000000D-01  1.2917954341558D+00  5.5626434026464D-01
53  5.2000000000000D-01  1.2465699472308D+00  6.2241221466135D-01
54  5.3000000000000D-01  1.1992431225661D+00  6.8966390723973D-01
55  5.4000000000000D-01  1.1499690874259D+00  7.5774631946566D-01
56  5.5000000000000D-01  1.0989108834388D+00  8.2637023384942D-01
57  5.6000000000000D-01  1.0462399687877D+00  8.9523171165629D-01
58  5.7000000000000D-01  9.9213564135872D-01  9.6401367640464D-01
59  5.8000000000000D-01  9.3678438361678D-01  1.0323876759182D+00
60  5.9000000000000D-01  8.8037913087003D-01  1.1000158135900D+00
61  6.0000000000000D-01  8.2311846550244D-01  1.1665528374216D+00
62  6.1000000000000D-01  7.6520574067136D-01  1.2316483733589D+00
63  6.2000000000000D-01  7.0684813788157D-01  1.2949492874733D+00
64  6.3000000000000D-01  6.4825566374643D-01  1.3561021596548D+00
65  6.4000000000000D-01  5.8964009211023D-01  1.4147558497358D+00
66  6.5000000000000D-01  5.3121385853659D-01  1.4705641353497D+00
67  6.6000000000000D-01  4.7318891493909D-01  1.5231883993888D+00
68  6.7000000000000D-01  4.1577555283816D-01  1.5723003436849D+00
69  6.8000000000000D-01  3.5918120436560D-01  1.6175847044950D+00
70  6.9000000000000D-01  3.0360923068464D-01  1.6587419445776D+00
71  7.0000000000000D-01  2.4925770794853D-01  1.6954908960934D+00
72  7.1000000000000D-01  1.9631822127282D-01  1.7275713282709D+00
73  7.2000000000000D-01  1.4497467743901D-01  1.7547464137678D+00
74  7.3000000000000D-01  9.5402147173431D-02  1.7768050679253D+00
75  7.4000000000000D-01  4.7765747852402D-02  1.7935641356673D+00
76  7.5000000000000D-01  2.2195773686572D-03  1.8048704016477D+00
77  7.6000000000000D-01 -4.1094290345062D-02  1.8106024003715D+00
78  7.7000000000000D-01 -8.2046738004487D-02  1.8106720044398D+00
79  7.8000000000000D-01 -1.2052245622819D-01  1.8050257707455D+00
80  7.9000000000000D-01 -1.5642070431558D-01  1.7936460263914D+00
81  8.0000000000000D-01 -1.8965597222304D-01  1.7765516782838D+00
82  8.1000000000000D-01 -2.2015853623461D-01  1.7537987327543D+00
83  8.2000000000000D-01 -2.4787490174372D-01  1.7254805141582D+00
84  8.3000000000000D-01 -2.7276812756886D-01  1.6917275741598D+00
85  8.4000000000000D-01 -2.9481802730879D-01  1.6527072863096D+00
86  8.5000000000000D-01 -3.1402124438836D-01  1.6086231235212D+00
87  8.6000000000000D-01 -3.3039119864059D-01  1.5597136191176D+00
88  8.7000000000000D-01 -3.4395790349985D-01  1.5062510152154D+00
89  8.8000000000000D-01 -3.5476765412854D-01  1.4485396052980D+00
90  8.9000000000000D-01 -3.6288258805054D-01  1.3869137808648D+00
91  9.0000000000000D-01 -3.6838012110133D-01  1.3217357949914D+00
92  9.1000000000000D-01 -3.7135226271149D-01  1.2533932584492D+00
93  9.2000000000000D-01 -3.7190481570033D-01  1.1822963866849D+00
94  9.3000000000000D-01 -3.7015646685374D-01  1.1088750183974D+00
95  9.4000000000000D-01 -3.6623777557984D-01  1.0335754286557D+00
96  9.5000000000000D-01 -3.6029006886277D-01  9.5685696141985D-01
97  9.6000000000000D-01 -3.5246425155542D-01  8.7918850795306D-01
98  9.7000000000000D-01 -3.4291954175408D-01  8.0104485889498D-01
99  9.8000000000000D-01 -3.3182214157379D-01  7.2290295870224D-01
100  9.9000000000000D-01 -3.1934385406878D-01  6.4523809171524D-01
101  1.0000000000000D+00 -3.0566065734669D-01  5.6852002929780D-01
102  1.0100000000000D+00 -2.9095124705230D-01  4.9320916725922D-01
103  1.0200000000000D+00 -2.7539555838602D-01  4.1975268215600D-01
104  1.0300000000000D+00 -2.5917327865422D-01  3.4858073406158D-01
105  1.0400000000000D+00 -2.4246236101396D-01  2.8010274195351D-01
106  1.0500000000000D+00 -2.2543754961095D-01  2.1470375613320D-01
107  1.0600000000000D+00 -2.0826892570345D-01  1.5274094999045D-01
108  1.0700000000000D+00 -1.9112048357349D-01  9.4540250858849D-02
109  1.0800000000000D+00 -1.7414874418136D-01  4.0393127065615D-02
110  1.0900000000000D+00 -1.5750141346960D-01 -9.4464549006659D-03
111  1.1000000000000D+00 -1.4131609118738D-01 -5.4764892240891D-02
112  1.1100000000000D+00 -1.2571903490630D-01 -9.5391619339992D-02
113  1.1200000000000D+00 -1.1082398258060D-01 -1.3120158927162D-01
114  1.1300000000000D+00 -9.6731035752132D-02 -1.6211756318458D-01
115  1.1400000000000D+00 -8.3525604106860D-02 -1.8811221128239D-01
116  1.1500000000000D+00 -7.1277410918622D-02 -2.0921003231403D-01
117  1.1600000000000D+00 -6.0039557262866D-02 -2.2548910292627D-01
118  1.1700000000000D+00 -4.9847636309353D-02 -2.3708269134363D-01
119  1.1800000000000D+00 -4.0718900641801D-02 -2.4418072174371D-01
120  1.1900000000000D+00 -3.2651584600602D-02 -2.4703073649474D-01
121  1.2000000000000D+00 -2.5624000728645D-02 -2.4593968964598D-01
122  1.2100000000000D+00 -1.9593435136764D-02 -2.4127661312157D-01
123  1.2200000000000D+00 -1.4500891929727D-02 -2.3345355233616D-01
124  1.2300000000000D+00 -1.0276885911377D-02 -2.2290386493419D-01
125  1.2400000000000D+00 -6.8471771223277D-03 -2.1006177953582D-01
126  1.2500000000000D+00 -4.1333992816939D-03 -1.9536137020249D-01
127  1.2600000000000D+00 -2.0545904165315D-03 -1.7923219895354D-01
128  1.2700000000000D+00 -5.2868586614887D-04 -1.6209509137820D-01
129  1.2800000000000D+00  5.2603536714644D-04 -1.4435811733468D-01
130  1.2900000000000D+00  1.1895594241150D-03 -1.2641276818805D-01
131  1.3000000000000D+00  1.5387919416184D-03 -1.0863027899222D-01
132  1.3100000000000D+00  1.6462780717780D-03 -9.1358153927622D-02
133  1.3200000000000D+00  1.5790009064658D-03 -7.4916926285529D-02
134  1.3300000000000D+00  1.3972694594685D-03 -5.9597180294892D-02
135  1.3400000000000D+00  1.1537080148841D-03 -4.5656863727419D-02
136  1.3500000000000D+00  8.9235619946417D-04 -3.3318914017658D-02
137  1.3600000000000D+00  6.4807507776685D-04 -2.2773235175045D-02
138  1.3700000000000D+00  4.4515230165454D-04 -1.4159095196030D-02
139  1.3800000000000D+00  2.9446886449373D-04 -7.5389395317177D-03
140  1.3900000000000D+00  2.1089481360734D-04 -3.1354351351590D-03
141  1.4000000000000D+00  1.8827633948745D-04 -9.6967466653815D-04
142  1.4100000000000D+00  1.2969727796146D-04 -1.9602717352923D-04
143  1.4200000000000D+00  2.4379179640517D-05 -8.5988734413849D-06
144  1.4300000000000D+00 -1.7046567275499D-05 -1.8567365823238D-06
145  1.4400000000000D+00  5.3577728862411D-08 -2.8527108192790D-08
146  1.4500000000000D+00  3.5700747703818D-06 -1.2521392723715D-06
147  1.4600000000000D+00 -2.5353768206154D-07  6.2648078498921D-07
148  1.4700000000000D+00 -3.3571826231208D-07  8.2954548924777D-07
149  1.4800000000000D+00  0.0000000000000D+00  0.0000000000000D+00
150  1.4900000000000D+00  0.0000000000000D+00  0.0000000000000D+00
151  1.5000000000000D+00  0.0000000000000D+00  0.0000000000000D+00
152  1.5100000000000D+00  0.0000000000000D+00  0.0000000000000D+00
153  1.5200000000000D+00  0.0000000000000D+00  0.0000000000000D+00
154  1.5300000000000D+00  0.0000000000000D+00  0.0000000000000D+00
155  1.5400000000000D+00  0.0000000000000D+00  0.0000000000000D+00
156  1.5500000000000D+00  0.0000000000000D+00  0.0000000000000D+00
157  1.5600000000000D+00  0.0000000000000D+00  0.0000000000000D+00
158  1.5700000000000D+00  0.0000000000000D+00  0.0000000000000D+00
159  1.5800000000000D+00  0.0000000000000D+00  0.0000000000000D+00
160  1.5900000000000D+00  0.0000000000000D+00  0.0000000000000D+00
161  1.6000000000000D+00  0.0000000000000D+00  0.0000000000000D+00
162  1.6100000000000D+00  0.0000000000000D+00  0.0000000000000D+00
163  1.6200000000000D+00  0.0000000000000D+00  0.0000000000000D+00
164  1.6300000000000D+00  0.0000000000000D+00  0.0000000000000D+00
165  1.6400000000000D+00  0.0000000000000D+00  0.0000000000000D+00
166  1.6500000000000D+00  0.0000000000000D+00  0.0000000000000D+00
167  1.6600000000000D+00  0.0000000000000D+00  0.0000000000000D+00
168  1.6700000000000D+00  0.0000000000000D+00  0.0000000000000D+00
169  1.6800000000000D+00  0.0000000000000D+00  0.0000000000000D+00
170  1.6900000000000D+00  0.0000000000000D+00  0.0000000000000D+00
171  1.7000000000000D+00  0.0000000000000D+00  0.0000000000000D+00
172  1.7100000000000D+00  0.0000000000000D+00  0.0000000000000D+00
173  1.7200000000000D+00  0.0000000000000D+00  0.0000000000000D+00
174  1.7300000000000D+00  0.0000000000000D+00  0.0000000000000D+00
175  1.7400000000000D+00  0.0000000000000D+00  0.0000000000000D+00
176  1.7500000000000D+00  0.0000000000000D+00  0.0000000000000D+00
177  1.7600000000000D+00  0.0000000000000D+00  0.0000000000000D+00
178  1.7700000000000D+00  0.0000000000000D+00  0.0000000000000D+00
179  1.7800000000000D+00  0.0000000000000D+00  0.0000000000000D+00
180  1.7900000000000D+00  0.0000000000000D+00  0.0000000000000D+00
181  1.8000000000000D+00  0.0000000000000D+00  0.0000000000000D+00
182  1.8100000000000D+00  0.0000000000000D+00  0.0000000000000D+00
183  1.8200000000000D+00  0.0000000000000D+00  0.0000000000000D+00
184  1.8300000000000D+00  0.0000000000000D+00  0.0000000000000D+00
185  1.8400000000000D+00  0.0000000000000D+00  0.0000000000000D+00
186  1.8500000000000D+00  0.0000000000000D+00  0.0000000000000D+00
187  1.8600000000000D+00  0.0000000000000D+00  0.0000000000000D+00
188  1.8700000000000D+00  0.0000000000000D+00  0.0000000000000D+00
189  1.8800000000000D+00  0.0000000000000D+00  0.0000000000000D+00
190  1.8900000000000D+00  0.0000000000000D+00  0.0000000000000D+00
191  1.9000000000000D+00  0.0000000000000D+00  0.0000000000000D+00
192  1.9100000000000D+00  0.0000000000000D+00  0.0000000000000D+00
193  1.9200000000000D+00  0.0000000000000D+00  0.0000000000000D+00
194  1.9300000000000D+00  0.0000000000000D+00  0.0000000000000D+00
195  1.9400000000000D+00  0.0000000000000D+00  0.0000000000000D+00
196  1.9500000000000D+00  0.0000000000000D+00  0.0000000000000D+00
197  1.9600000000000D+00  0.0000000000000D+00  0.0000000000000D+00
198  1.9700000000000D+00  0.0000000000000D+00  0.0000000000000D+00
199  1.9800000000000D+00  0.0000000000000D+00  0.0000000000000D+00
200  1.9900000000000D+00  0.0000000000000D+00  0.0000000000000D+00
201  2.0000000000000D+00  0.0000000000000D+00  0.0000000000000D+00
202  2.0100000000000D+00  0.0000000000000D+00  0.0000000000000D+00
203  2.0200000000000D+00  0.0000000000000D+00  0.0000000000000D+00
204  2.0300000000000D+00  0.0000000000000D+00  0.0000000000000D+00
205  2.0400000000000D+00  0.0000000000000D+00  0.0000000000000D+00
206  2.0500000000000D+00  0.0000000000000D+00  0.0000000000000D+00
207  2.0600000000000D+00  0.0000000000000D+00  0.0000000000000D+00
208  2.0700000000000D+00  0.0000000000000D+00  0.0000000000000D+00
209  2.0800000000000D+00  0.0000000000000D+00  0.0000000000000D+00
210  2.0900000000000D+00  0.0000000000000D+00  0.0000000000000D+00
211  2.1000000000000D+00  0.0000000000000D+00  0.0000000000000D+00
212  2.1100000000000D+00  0.0000000000000D+00  0.0000000000000D+00
213  2.1200000000000D+00  0.0000000000000D+00  0.0000000000000D+00
214  2.1300000000000D+00  0.0000000000000D+00  0.0000000000000D+00
215  2.1400000000000D+00  0.0000000000000D+00  0.0000000000000D+00
216  2.1500000000000D+00  0.0000000000000D+00  0.0000000000000D+00
217  2.1600000000000D+00  0.0000000000000D+00  0.0000000000000D+00
218  2.1700000000000D+00  0.0000000000000D+00  0.0000000000000D+00
219  2.1800000000000D+00  0.0000000000000D+00  0.0000000000000D+00
220  2.1900000000000D+00  0.0000000000000D+00  0.0000000000000D+00
221  2.2000000000000D+00  0.0000000000000D+00  0.0000000000000D+00
222  2.2100000000000D+00  0.0000000000000D+00  0.0000000000000D+00
223  2.2200000000000D+00  0.0000000000000D+00  0.0000000000000D+00
224  2.2300000000000D+00  0.0000000000000D+00  0.0000000000000D+00
225  2.2400000000000D+00  0.0000000000000D+00  0.0000000000000D+00
226  2.2500000000000D+00  0.0000000000000D+00  0.0000000000000D+00
227  2.2600000000000D+00  0.0000000000000D+00  0.0000000000000D+00
228  2.2700000000000D+00  0.0000000000000D+00  0.0000000000000D+00
229  2.2800000000000D+00  0.0000000000000D+00  0.0000000000000D+00
230  2.2900000000000D+00  0.0000000000000D+00  0.0000000000000D+00
231  2.3000000000000D+00  0.0000000000000D+00  0.0000000000000D+00
232  2.3100000000000D+00  0.0000000000000D+00  0.0000000000000D+00
233  2.3200000000000D+00  0.0000000000000D+00  0.0000000000000D+00
234  2.3300000000000D+00  0.0000000000000D+00  0.0000000000000D+00
235  2.3400000000000D+00  0.0000000000000D+00  0.0000000000000D+00
236  2.3500000000000D+00  0.0000000000000D+00  0.0000000000000D+00
237  2.3600000000000D+00  0.0000000000000D+00  0.0000000000000D+00
238  2.3700000000000D+00  0.0000000000000D+00  0.0000000000000D+00
239  2.3800000000000D+00  0.0000000000000D+00  0.0000000000000D+00
240  2.3900000000000D+00  0.0000000000000D+00  0.0000000000000D+00
241  2.4000000000000D+00  0.0000000000000D+00  0.0000000000000D+00
242  2.4100000000000D+00  0.0000000000000D+00  0.0000000000000D+00
243  2.4200000000000D+00  0.0000000000000D+00  0.0000000000000D+00
244  2.4300000000000D+00  0.0000000000000D+00  0.0000000000000D+00
245  2.4400000000000D+00  0.0000000000000D+00  0.0000000000000D+00
246  2.4500000000000D+00  0.0000000000000D+00  0.0000000000000D+00
247  2.4600000000000D+00  0.0000000000000D+00  0.0000000000000D+00
248  2.4700000000000D+00  0.0000000000000D+00  0.0000000000000D+00
249  2.4800000000000D+00  0.0000000000000D+00  0.0000000000000D+00
250  2.4900000000000D+00  0.0000000000000D+00  0.0000000000000D+00
251  2.5000000000000D+00  0.0000000000000D+00  0.0000000000000D+00
252  2.5100000000000D+00  0.0000000000000D+00  0.0000000000000D+00
253  2.5200000000000D+00  0.0000000000000D+00  0.0000000000000D+00
254  2.5300000000000D+00  0.0000000000000D+00  0.0000000000000D+00
255  2.5400000000000D+00  0.0000000000000D+00  0.0000000000000D+00
256  2.5500000000000D+00  0.0000000000000D+00  0.0000000000000D+00
257  2.5600000000000D+00  0.0000000000000D+00  0.0000000000000D+00
258  2.5700000000000D+00  0.0000000000000D+00  0.0000000000000D+00
259  2.5800000000000D+00  0.0000000000000D+00  0.0000000000000D+00
260  2.5900000000000D+00  0.0000000000000D+00  0.0000000000000D+00
261  2.6000000000000D+00  0.0000000000000D+00  0.0000000000000D+00
262  2.6100000000000D+00  0.0000000000000D+00  0.0000000000000D+00
263  2.6200000000000D+00  0.0000000000000D+00  0.0000000000000D+00
264  2.6300000000000D+00  0.0000000000000D+00  0.0000000000000D+00
265  2.6400000000000D+00  0.0000000000000D+00  0.0000000000000D+00
266  2.6500000000000D+00  0.0000000000000D+00  0.0000000000000D+00
267  2.6600000000000D+00  0.0000000000000D+00  0.0000000000000D+00
268  2.6700000000000D+00  0.0000000000000D+00  0.0000000000000D+00
269  2.6800000000000D+00  0.0000000000000D+00  0.0000000000000D+00
270  2.6900000000000D+00  0.0000000000000D+00  0.0000000000000D+00
271  2.7000000000000D+00  0.0000000000000D+00  0.0000000000000D+00
272  2.7100000000000D+00  0.0000000000000D+00  0.0000000000000D+00
273  2.7200000000000D+00  0.0000000000000D+00  0.0000000000000D+00
274  2.7300000000000D+00  0.0000000000000D+00  0.0000000000000D+00
275  2.7400000000000D+00  0.0000000000000D+00  0.0000000000000D+00
276  2.7500000000000D+00  0.0000000000000D+00  0.0000000000000D+00
277  2.7600000000000D+00  0.0000000000000D+00  0.0000000000000D+00
278  2.7700000000000D+00  0.0000000000000D+00  0.0000000000000D+00
279  2.7800000000000D+00  0.0000000000000D+00  0.0000000000000D+00
280  2.7900000000000D+00  0.0000000000000D+00  0.0000000000000D+00
281  2.8000000000000D+00  0.0000000000000D+00  0.0000000000000D+00
282  2.8100000000000D+00  0.0000000000000D+00  0.0000000000000D+00
283  2.8200000000000D+00  0.0000000000000D+00  0.0000000000000D+00
284  2.8300000000000D+00  0.0000000000000D+00  0.0000000000000D+00
285  2.8400000000000D+00  0.0000000000000D+00  0.0000000000000D+00
286  2.8500000000000D+00  0.0000000000000D+00  0.0000000000000D+00
287  2.8600000000000D+00  0.0000000000000D+00  0.0000000000000D+00
288  2.8700000000000D+00  0.0000000000000D+00  0.0000000000000D+00
289  2.8800000000000D+00  0.0000000000000D+00  0.0000000000000D+00
290  2.8900000000000D+00  0.0000000000000D+00  0.0000000000000D+00
291  2.9000000000000D+00  0.0000000000000D+00  0.0000000000000D+00
292  2.9100000000000D+00  0.0000000000000D+00  0.0000000000000D+00
293  2.9200000000000D+00  0.0000000000000D+00  0.0000000000000D+00
294  2.9300000000000D+00  0.0000000000000D+00  0.0000000000000D+00
295  2.9400000000000D+00  0.0000000000000D+00  0.0000000000000D+00
296  2.9500000000000D+00  0.0000000000000D+00  0.0000000000000D+00
297  2.9600000000000D+00  0.0000000000000D+00  0.0000000000000D+00
298  2.9700000000000D+00  0.0000000000000D+00  0.0000000000000D+00
299  2.9800000000000D+00  0.0000000000000D+00  0.0000000000000D+00
300  2.9900000000000D+00  0.0000000000000D+00  0.0000000000000D+00
301  3.0000000000000D+00  0.0000000000000D+00  0.0000000000000D+00
302  3.0100000000000D+00  0.0000000000000D+00  0.0000000000000D+00
303  3.0200000000000D+00  0.0000000000000D+00  0.0000000000000D+00
304  3.0300000000000D+00  0.0000000000000D+00  0.0000000000000D+00
305  3.0400000000000D+00  0.0000000000000D+00  0.0000000000000D+00
306  3.0500000000000D+00  0.0000000000000D+00  0.0000000000000D+00
307  3.0600000000000D+00  0.0000000000000D+00  0.0000000000000D+00
308  3.0700000000000D+00  0.0000000000000D+00  0.0000000000000D+00
309  3.0800000000000D+00  0.0000000000000D+00  0.0000000000000D+00
310  3.0900000000000D+00  0.0000000000000D+00  0.0000000000000D+00
311  3.1000000000000D+00  0.0000000000000D+00  0.0000000000000D+00
312  3.1100000000000D+00  0.0000000000000D+00  0.0000000000000D+00
313  3.1200000000000D+00  0.0000000000000D+00  0.0000000000000D+00
314  3.1300000000000D+00  0.0000000000000D+00  0.0000000000000D+00
315  3.1400000000000D+00  0.0000000000000D+00  0.0000000000000D+00
316  3.1500000000000D+00  0.0000000000000D+00  0.0000000000000D+00
317  3.1600000000000D+00  0.0000000000000D+00  0.0000000000000D+00
318  3.1700000000000D+00  0.0000000000000D+00  0.0000000000000D+00
319  3.1800000000000D+00  0.0000000000000D+00  0.0000000000000D+00
320  3.1900000000000D+00  0.0000000000000D+00  0.0000000000000D+00
321  3.2000000000000D+00  0.0000000000000D+00  0.0000000000000D+00
322  3.2100000000000D+00  0.0000000000000D+00  0.0000000000000D+00
323  3.2200000000000D+00  0.0000000000000D+00  0.0000000000000D+00
324  3.2300000000000D+00  0.0000000000000D+00  0.0000000000000D+00
325  3.2400000000000D+00  0.0000000000000D+00  0.0000000000000D+00
326  3.2500000000000D+00  0.0000000000000D+00  0.0000000000000D+00
327  3.2600000000000D+00  0.0000000000000D+00  0.0000000000000D+00
328  3.2700000000000D+00  0.0000000000000D+00  0.0000000000000D+00
329  3.2800000000000D+00  0.0000000000000D+00  0.0000000000000D+00
330  3.2900000000000D+00  0.0000000000000D+00  0.0000000000000D+00
331  3.3000000000000D+00  0.0000000000000D+00  0.0000000000000D+00
332  3.3100000000000D+00  0.0000000000000D+00  0.0000000000000D+00
333  3.3200000000000D+00  0.0000000000000D+00  0.0000000000000D+00
334  3.3300000000000D+00  0.0000000000000D+00  0.0000000000000D+00
335  3.3400000000000D+00  0.0000000000000D+00  0.0000000000000D+00
336  3.3500000000000D+00  0.0000000000000D+00  0.0000000000000D+00
337  3.3600000000000D+00  0.0000000000000D+00  0.0000000000000D+00
338  3.3700000000000D+00  0.0000000000000D+00  0.0000000000000D+00
339  3.3800000000000D+00  0.0000000000000D+00  0.0000000000000D+00
340  3.3900000000000D+00  0.0000000000000D+00  0.0000000000000D+00
341  3.4000000000000D+00  0.0000000000000D+00  0.0000000000000D+00
342  3.4100000000000D+00  0.0000000000000D+00  0.0000000000000D+00
343  3.4200000000000D+00  0.0000000000000D+00  0.0000000000000D+00
344  3.4300000000000D+00  0.0000000000000D+00  0.0000000000000D+00
345  3.4400000000000D+00  0.0000000000000D+00  0.0000000000000D+00
346  3.4500000000000D+00  0.0000000000000D+00  0.0000000000000D+00
347  3.4600000000000D+00  0.0000000000000D+00  0.0000000000000D+00
348  3.4700000000000D+00  0.0000000000000D+00  0.0000000000000D+00
349  3.4800000000000D+00  0.0000000000000D+00  0.0000000000000D+00
350  3.4900000000000D+00  0.0000000000000D+00  0.0000000000000D+00
351  3.5000000000000D+00  0.0000000000000D+00  0.0000000000000D+00
352  3.5100000000000D+00  0.0000000000000D+00  0.0000000000000D+00
353  3.5200000000000D+00  0.0000000000000D+00  0.0000000000000D+00
354  3.5300000000000D+00  0.0000000000000D+00  0.0000000000000D+00
355  3.5400000000000D+00  0.0000000000000D+00  0.0000000000000D+00
356  3.5500000000000D+00  0.0000000000000D+00  0.0000000000000D+00
357  3.5600000000000D+00  0.0000000000000D+00  0.0000000000000D+00
358  3.5700000000000D+00  0.0000000000000D+00  0.0000000000000D+00
359  3.5800000000000D+00  0.0000000000000D+00  0.0000000000000D+00
360  3.5900000000000D+00  0.0000000000000D+00  0.0000000000000D+00
361  3.6000000000000D+00  0.0000000000000D+00  0.0000000000000D+00
362  3.6100000000000D+00  0.0000000000000D+00  0.0000000000000D+00
363  3.6200000000000D+00  0.0000000000000D+00  0.0000000000000D+00
364  3.6300000000000D+00  0.0000000000000D+00  0.0000000000000D+00
365  3.6400000000000D+00  0.0000000000000D+00  0.0000000000000D+00
366  3.6500000000000D+00  0.0000000000000D+00  0.0000000000000D+00
367  3.6600000000000D+00  0.0000000000000D+00  0.0000000000000D+00
368  3.6700000000000D+00  0.0000000000000D+00  0.0000000000000D+00
369  3.6800000000000D+00  0.0000000000000D+00  0.0000000000000D+00
370  3.6900000000000D+00  0.0000000000000D+00  0.0000000000000D+00
371  3.7000000000000D+00  0.0000000000000D+00  0.0000000000000D+00
372  3.7100000000000D+00  0.0000000000000D+00  0.0000000000000D+00
373  3.7200000000000D+00  0.0000000000000D+00  0.0000000000000D+00
374  3.7300000000000D+00  0.0000000000000D+00  0.0000000000000D+00
375  3.7400000000000D+00  0.0000000000000D+00  0.0000000000000D+00
376  3.7500000000000D+00  0.0000000000000D+00  0.0000000000000D+00
377  3.7600000000000D+00  0.0000000000000D+00  0.0000000000000D+00
378  3.7700000000000D+00  0.0000000000000D+00  0.0000000000000D+00
379  3.7800000000000D+00  0.0000000000000D+00  0.0000000000000D+00
380  3.7900000000000D+00  0.0000000000000D+00  0.0000000000000D+00
381  3.8000000000000D+00  0.0000000000000D+00  0.0000000000000D+00
382  3.8100000000000D+00  0.0000000000000D+00  0.0000000000000D+00
383  3.8200000000000D+00  0.0000000000000D+00  0.0000000000000D+00
384  3.8300000000000D+00  0.0000000000000D+00  0.0000000000000D+00
385  3.8400000000000D+00  0.0000000000000D+00  0.0000000000000D+00
386  3.8500000000000D+00  0.0000000000000D+00  0.0000000000000D+00
387  3.8600000000000D+00  0.0000000000000D+00  0.0000000000000D+00
388  3.8700000000000D+00  0.0000000000000D+00  0.0000000000000D+00
389  3.8800000000000D+00  0.0000000000000D+00  0.0000000000000D+00
390  3.8900000000000D+00  0.0000000000000D+00  0.0000000000000D+00
391  3.9000000000000D+00  0.0000000000000D+00  0.0000000000000D+00
392  3.9100000000000D+00  0.0000000000000D+00  0.0000000000000D+00
393  3.9200000000000D+00  0.0000000000000D+00  0.0000000000000D+00
394  3.9300000000000D+00  0.0000000000000D+00  0.0000000000000D+00
395  3.9400000000000D+00  0.0000000000000D+00  0.0000000000000D+00
396  3.9500000000000D+00  0.0000000000000D+00  0.0000000000000D+00
397  3.9600000000000D+00  0.0000000000000D+00  0.0000000000000D+00
398  3.9700000000000D+00  0.0000000000000D+00  0.0000000000000D+00
399  3.9800000000000D+00  0.0000000000000D+00  0.0000000000000D+00
400  3.9900000000000D+00  0.0000000000000D+00  0.0000000000000D+00
401  4.0000000000000D+00  0.0000000000000D+00  0.0000000000000D+00
402  4.0100000000000D+00  0.0000000000000D+00  0.0000000000000D+00
403  4.0200000000000D+00  0.0000000000000D+00  0.0000000000000D+00
404  4.0300000000000D+00  0.0000000000000D+00  0.0000000000000D+00
405  4.0400000000000D+00  0.0000000000000D+00  0.0000000000000D+00
406  4.0500000000000D+00  0.0000000000000D+00  0.0000000000000D+00
407  4.0600000000000D+00  0.0000000000000D+00  0.0000000000000D+00
408  4.0700000000000D+00  0.0000000000000D+00  0.0000000000000D+00
409  4.0800000000000D+00  0.0000000000000D+00  0.0000000000000D+00
410  4.0900000000000D+00  0.0000000000000D+00  0.0000000000000D+00
411  4.1000000000000D+00  0.0000000000000D+00  0.0000000000000D+00
412  4.1100000000000D+00  0.0000000000000D+00  0.0000000000000D+00
413  4.1200000000000D+00  0.0000000000000D+00  0.0000000000000D+00
414  4.1300000000000D+00  0.0000000000000D+00  0.0000000000000D+00
415  4.1400000000000D+00  0.0000000000000D+00  0.0000000000000D+00
416  4.1500000000000D+00  0.0000000000000D+00  0.0000000000000D+00
417  4.1600000000000D+00  0.0000000000000D+00  0.0000000000000D+00
418  4.1700000000000D+00  0.0000000000000D+00  0.0000000000000D+00
419  4.1800000000000D+00  0.0000000000000D+00  0.0000000000000D+00
420  4.1900000000000D+00  0.0000000000000D+00  0.0000000000000D+00
421  4.2000000000000D+00  0.0000000000000D+00  0.0000000000000D+00
422  4.2100000000000D+00  0.0000000000000D+00  0.0000000000000D+00
423  4.2200000000000D+00  0.0000000000000D+00  0.0000000000000D+00
424  4.2300000000000D+00  0.0000000000000D+00  0.0000000000000D+00
425  4.2400000000000D+00  0.0000000000000D+00  0.0000000000000D+00
426  4.2500000000000D+00  0.0000000000000D+00  0.0000000000000D+00
427  4.2600000000000D+00  0.0000000000000D+00  0.0000000000000D+00
428  4.2700000000000D+00  0.0000000000000D+00  0.0000000000000D+00
429  4.2800000000000D+00  0.0000000000000D+00  0.0000000000000D+00
430  4.2900000000000D+00  0.0000000000000D+00  0.0000000000000D+00
431  4.3000000000000D+00  0.0000000000000D+00  0.0000000000000D+00
432  4.3100000000000D+00  0.0000000000000D+00  0.0000000000000D+00
433  4.3200000000000D+00  0.0000000000000D+00  0.0000000000000D+00
434  4.3300000000000D+00  0.0000000000000D+00  0.0000000000000D+00
435  4.3400000000000D+00  0.0000000000000D+00  0.0000000000000D+00
436  4.3500000000000D+00  0.0000000000000D+00  0.0000000000000D+00
437  4.3600000000000D+00  0.0000000000000D+00  0.0000000000000D+00
438  4.3700000000000D+00  0.0000000000000D+00  0.0000000000000D+00
439  4.3800000000000D+00  0.0000000000000D+00  0.0000000000000D+00
440  4.3900000000000D+00  0.0000000000000D+00  0.0000000000000D+00
441  4.4000000000000D+00  0.0000000000000D+00  0.0000000000000D+00
442  4.4100000000000D+00  0.0000000000000D+00  0.0000000000000D+00
443  4.4200000000000D+00  0.0000000000000D+00  0.0000000000000D+00