Pt    ONCVPSP-3.3.0  r_core=   1.45722   1.45722   1.45722   1.91724
78.0000     18.0000      171114    zatom,zion,pspd
8   -1012   3     4   500     0    pspcod,pspxc,lmax,lloc,mmax,r2well
4.99000000  5.00000000  0.00000000    rchrg fchrg qchrg
2     2     2     2     0    nproj
1     1           extension_switch
0                         1.8400652080532D+01  1.7702477695145D+00
1  0.0000000000000D+00 -3.6609415499100D-10  1.8735205054021D-10
2  1.0000000000000D-02  8.1907612409540D-02 -1.8776944888635D-02
3  2.0000000000000D-02  1.6361329526032D-01 -3.7444550993568D-02
4  3.0000000000000D-02  2.4491576600719D-01 -5.5893727971045D-02
5  4.0000000000000D-02  3.2561502878041D-01 -7.4015867042868D-02
6  5.0000000000000D-02  4.0551300230297D-01 -9.1703057266341D-02
7  6.0000000000000D-02  4.8441413260416D-01 -1.0884828670429D-01
8  7.0000000000000D-02  5.6212598742300D-01 -1.2534563049505D-01
9  8.0000000000000D-02  6.3845982956149D-01 -1.4109042800963D-01
10  9.0000000000000D-02  7.1323116683065D-01 -1.5597945146149D-01
11  1.0000000000000D-01  7.8626027662568D-01 -1.6991106849607D-01
12  1.1000000000000D-01  8.5737270356343D-01 -1.8278540142472D-01
13  1.2000000000000D-01  9.2639972900819D-01 -1.9450448587563D-01
14  1.3000000000000D-01  9.9317881169579D-01 -2.0497243170560D-01
15  1.4000000000000D-01  1.0575539990340D+00 -2.1409558904725D-01
16  1.5000000000000D-01  1.1193763090043D+00 -2.2178272235156D-01
17  1.6000000000000D-01  1.1785040829118D+00 -2.2794519522210D-01
18  1.7000000000000D-01  1.2348033095211D+00 -2.3249716872323D-01
19  1.8000000000000D-01  1.2881479213737D+00 -2.3535581567707D-01
20  1.9000000000000D-01  1.3384200643020D+00 -2.3644155324384D-01
21  2.0000000000000D-01  1.3855103413372D+00 -2.3567829580675D-01
22  2.1000000000000D-01  1.4293180323459D+00 -2.3299372985698D-01
23  2.2000000000000D-01  1.4697512908304D+00 -2.2831961219997D-01
24  2.3000000000000D-01  1.5067273193785D+00 -2.2159209238201D-01
25  2.4000000000000D-01  1.5401725252623D+00 -2.1275205977211D-01
26  2.5000000000000D-01  1.5700226576551D+00 -2.0174551523146D-01
27  2.6000000000000D-01  1.5962229278640D+00 -1.8852396676771D-01
28  2.7000000000000D-01  1.6187281138695D+00 -1.7304484800945D-01
29  2.8000000000000D-01  1.6375026503156D+00 -1.5527195775475D-01
30  2.9000000000000D-01  1.6525207049222D+00 -1.3517591825376D-01
31  3.0000000000000D-01  1.6637662420842D+00 -1.1273464928618D-01
32  3.1000000000000D-01  1.6712330741939D+00 -8.7933854499689D-02
33  3.2000000000000D-01  1.6749249009747D+00 -6.0767515891330D-02
34  3.3000000000000D-01  1.6748553368522D+00 -3.1238391751043D-02
35  3.4000000000000D-01  1.6710479261145D+00  6.4148714726957D-04
36  3.5000000000000D-01  1.6635361453375D+00  3.4850328818121D-02
37  3.6000000000000D-01  1.6523633922761D+00  7.1356104960833D-02
38  3.7000000000000D-01  1.6375829601518D+00  1.1011609603591D-01
39  3.8000000000000D-01  1.6192579960119D+00  1.5107646340990D-01
40  3.9000000000000D-01  1.5974614415952D+00  1.9417185572000D-01
41  4.0000000000000D-01  1.5722759549254D+00  2.3932505679584D-01
42  4.1000000000000D-01  1.5437938106603D+00  2.8644668257810D-01
43  4.2000000000000D-01  1.5121167770744D+00  3.3543493448899D-01
44  4.3000000000000D-01  1.4773559674287D+00  3.8617541662999D-01
45  4.4000000000000D-01  1.4396316634037D+00  4.3854102400809D-01
46  4.5000000000000D-01  1.3990731082382D+00  4.9239190871673D-01
47  4.6000000000000D-01  1.3558182672233D+00  5.4757553062314D-01
48  4.7000000000000D-01  1.3100135532652D+00  6.0392679863843D-01
49  4.8000000000000D-01  1.2618135153361D+00  6.6126830807066D-01
50  4.9000000000000D-01  1.2113804877936D+00  7.1941067888858D-01
51  5.0000000000000D-01  1.1588841987613D+00  7.7815299895596D-01
52  5.1000000000000D-01  1.1045013360214D+00  8.3728337544052D-01
53  5.2000000000000D-01  1.0484150691804D+00  8.9657959666047D-01
54  5.3000000000000D-01  9.9081452722469D-01  9.5580990561633D-01
55  5.4000000000000D-01  9.3189423098076D-01  1.0147338853725D+00
56  5.5000000000000D-01  8.7185348043385D-01  1.0731034553109D+00
57  5.6000000000000D-01  8.1089569733168D-01  1.1306639760908D+00
58  5.7000000000000D-01  7.4922772400480D-01  1.1871554599271D+00
59  5.8000000000000D-01  6.8705907986352D-01  1.2423138815497D+00
60  5.9000000000000D-01  6.2460117757852D-01  1.2958725839548D+00
61  6.0000000000000D-01  5.6206650151214D-01  1.3475637718073D+00
62  6.1000000000000D-01  4.9966775153142D-01  1.3971200841214D+00
63  6.2000000000000D-01  4.3761695589537D-01  1.4442762366533D+00
64  6.3000000000000D-01  3.7612455746314D-01  1.4887707232901D+00
65  6.4000000000000D-01  3.1539847800061D-01  1.5303475646412D+00
66  6.5000000000000D-01  2.5564316587577D-01  1.5687580910322D+00
67  6.6000000000000D-01  1.9705863290718D-01  1.6037627461966D+00
68  6.7000000000000D-01  1.3983948656454D-01  1.6351328971622D+00
69  6.8000000000000D-01  8.4173964110082D-02  1.6626526351467D+00
70  6.9000000000000D-01  3.0242975600254D-02  1.6861205517389D+00
71  7.0000000000000D-01 -2.1780837060493D-02  1.7053514742373D+00
72  7.1000000000000D-01 -7.1734017617852D-02  1.7201781437783D+00
73  7.2000000000000D-01 -1.1946318198933D-01  1.7304528198015D+00
74  7.3000000000000D-01 -1.6482586622561D-01  1.7360487944892D+00
75  7.4000000000000D-01 -2.0769132835285D-01  1.7368618010817D+00
76  7.5000000000000D-01 -2.4794129664455D-01  1.7328113004091D+00
77  7.6000000000000D-01 -2.8547065706373D-01  1.7238416305989D+00
78  7.7000000000000D-01 -3.2018807289466D-01  1.7099230057192D+00
79  7.8000000000000D-01 -3.5201652994554D-01  1.6910523500834D+00
80  7.9000000000000D-01 -3.8089380115014D-01  1.6672539560869D+00
81  8.0000000000000D-01 -4.0677282492333D-01  1.6385799547425D+00
82  8.1000000000000D-01 -4.2962199223023D-01  1.6051105895367D+00
83  8.2000000000000D-01 -4.4942533800564D-01  1.5669542858162D+00
84  8.3000000000000D-01 -4.6618263330410D-01  1.5242475096336D+00
85  8.4000000000000D-01 -4.7990937536445D-01  1.4771544118029D+00
86  8.5000000000000D-01 -4.9063667362848D-01  1.4258662548325D+00
87  8.6000000000000D-01 -4.9841103065206D-01  1.3706006223911D+00
88  8.7000000000000D-01 -5.0329401777987D-01  1.3116004129991D+00
89  8.8000000000000D-01 -5.0536184641142D-01  1.2491326217057D+00
90  8.9000000000000D-01 -5.0470483665514D-01  1.1834869155816D+00
91  9.0000000000000D-01 -5.0142678613835D-01  1.1149740109124D+00
92  9.1000000000000D-01 -4.9564424270184D-01  1.0439238619852D+00
93  9.2000000000000D-01 -4.8748568564691D-01  9.7068367330266D-01
94  9.3000000000000D-01 -4.7709062110859D-01  8.9561574890846D-01
95  9.4000000000000D-01 -4.6460859798882D-01  8.1909519423857D-01
96  9.5000000000000D-01 -4.5019815168742D-01  7.4150748750595D-01
97  9.6000000000000D-01 -4.3402568360417D-01  6.6324593905480D-01
98  9.7000000000000D-01 -4.1626428504251D-01  5.8470905836540D-01
99  9.8000000000000D-01 -3.9709251471929D-01  5.0629784944002D-01
100  9.9000000000000D-01 -3.7669313954494D-01  4.2841305610315D-01
101  1.0000000000000D+00 -3.5525184872387D-01  3.5145237936544D-01
102  1.0100000000000D+00 -3.3295595146775D-01  2.7580768931716D-01
103  1.0200000000000D+00 -3.0999306875770D-01  2.0186225410600D-01
104  1.0300000000000D+00 -2.8654982960989D-01  1.2998800837260D-01
105  1.0400000000000D+00 -2.6281058218500D-01  6.0542883045416D-02
106  1.0500000000000D+00 -2.3895612985418D-01 -6.1317823116959D-03
107  1.0600000000000D+00 -2.1516250198766D-01 -6.9713724373858D-02
108  1.0700000000000D+00 -1.9159976872528D-01 -1.2990211923966D-01
109  1.0800000000000D+00 -1.6843090841231D-01 -1.8641980645628D-01
110  1.0900000000000D+00 -1.4581073562759D-01 -2.3901535825516D-01
111  1.1000000000000D+00 -1.2388489695334D-01 -2.8746498022450D-01
112  1.1100000000000D+00 -1.0278894070596D-01 -3.3157423183475D-01
113  1.1200000000000D+00 -8.2647465775298D-02 -3.7117955771595D-01
114  1.1300000000000D+00 -6.3573353665457D-02 -4.0614962300264D-01
115  1.1400000000000D+00 -4.5667086611662D-02 -4.3638644882976D-01
116  1.1500000000000D+00 -2.9016153609400D-02 -4.6182634641134D-01
117  1.1600000000000D+00 -1.3694544642068D-02 -4.8244065159964D-01
118  1.1700000000000D+00  2.3766774221623D-04 -4.9823626433720D-01
119  1.1800000000000D+00  1.2734661616946D-02 -5.0925600020312D-01
120  1.1900000000000D+00  2.3765117020699D-02 -5.1557876407319D-01
121  1.2000000000000D+00  3.3312390308763D-02 -5.1731955908078D-01
122  1.2100000000000D+00  4.1374617590717D-02 -5.1462934669949D-01
123  1.2200000000000D+00  4.7964754025595D-02 -5.0769477527823D-01
124  1.2300000000000D+00  5.3110557625091D-02 -4.9673779835922D-01
125  1.2400000000000D+00  5.6854526845640D-02 -4.8201520539885D-01
126  1.2500000000000D+00  5.9253801993379D-02 -4.6381808907881D-01
127  1.2600000000000D+00  6.0380041713659D-02 -4.4247127597433D-01
128  1.2700000000000D+00  6.0319296571834D-02 -4.1833277682234D-01
129  1.2800000000000D+00  5.9171847247275D-02 -3.9179315887603D-01
130  1.2900000000000D+00  5.7052094733524D-02 -3.6327508445628D-01
131  1.3000000000000D+00  5.4088106888727D-02 -3.3323189337295D-01
132  1.3100000000000D+00  5.0423305095408D-02 -3.0215216867859D-01
133  1.3200000000000D+00  4.6211912283167D-02 -2.7054685400825D-01
134  1.3300000000000D+00  4.1611544517002D-02 -2.3892850651608D-01
135  1.3400000000000D+00  3.6774782214779D-02 -2.0778844520477D-01
136  1.3500000000000D+00  3.1844768796508D-02 -1.7758528082891D-01
137  1.3600000000000D+00  2.6955371546998D-02 -1.4874639167354D-01
138  1.3700000000000D+00  2.2229146398075D-02 -1.2166308226949D-01
139  1.3800000000000D+00  1.7776161682907D-02 -9.6688133569890D-02
140  1.3900000000000D+00  1.3692757378231D-02 -7.4133099406897D-02
141  1.4000000000000D+00  1.0060508125448D-02 -5.4266102786279D-02
142  1.4100000000000D+00  6.9467353632241D-03 -3.7317216717427D-02
143  1.4200000000000D+00  4.3979913048916D-03 -2.3447168442245D-02
144  1.4300000000000D+00  2.4325501396746D-03 -1.2715874388150D-02
145  1.4400000000000D+00  1.1122284983374D-03 -5.4264523516029D-03
146  1.4500000000000D+00  4.5147676060983D-04 -1.6733356543525D-03
147  1.4600000000000D+00  1.7359037537651D-04 -2.8773385310063D-04
148  1.4700000000000D+00  3.4304110406411D-05  7.9467074768872D-06
149  1.4800000000000D+00 -1.0999860796381D-05 -1.6138648654074D-05
150  1.4900000000000D+00 -3.3815085690097D-06 -9.1268037851384D-06
151  1.5000000000000D+00  3.1112347503191D-06  1.2666504720591D-06
152  1.5100000000000D+00  1.4464369057072D-07  1.0602857974474D-07
153  1.5200000000000D+00 -6.5362423668871D-07  1.4683728383487D-06
154  1.5300000000000D+00  0.0000000000000D+00  0.0000000000000D+00
155  1.5400000000000D+00  0.0000000000000D+00  0.0000000000000D+00
156  1.5500000000000D+00  0.0000000000000D+00  0.0000000000000D+00
157  1.5600000000000D+00  0.0000000000000D+00  0.0000000000000D+00
158  1.5700000000000D+00  0.0000000000000D+00  0.0000000000000D+00
159  1.5800000000000D+00  0.0000000000000D+00  0.0000000000000D+00
160  1.5900000000000D+00  0.0000000000000D+00  0.0000000000000D+00
161  1.6000000000000D+00  0.0000000000000D+00  0.0000000000000D+00
162  1.6100000000000D+00  0.0000000000000D+00  0.0000000000000D+00
163  1.6200000000000D+00  0.0000000000000D+00  0.0000000000000D+00
164  1.6300000000000D+00  0.0000000000000D+00  0.0000000000000D+00
165  1.6400000000000D+00  0.0000000000000D+00  0.0000000000000D+00
166  1.6500000000000D+00  0.0000000000000D+00  0.0000000000000D+00
167  1.6600000000000D+00  0.0000000000000D+00  0.0000000000000D+00
168  1.6700000000000D+00  0.0000000000000D+00  0.0000000000000D+00
169  1.6800000000000D+00  0.0000000000000D+00  0.0000000000000D+00
170  1.6900000000000D+00  0.0000000000000D+00  0.0000000000000D+00
171  1.7000000000000D+00  0.0000000000000D+00  0.0000000000000D+00
172  1.7100000000000D+00  0.0000000000000D+00  0.0000000000000D+00
173  1.7200000000000D+00  0.0000000000000D+00  0.0000000000000D+00
174  1.7300000000000D+00  0.0000000000000D+00  0.0000000000000D+00
175  1.7400000000000D+00  0.0000000000000D+00  0.0000000000000D+00
176  1.7500000000000D+00  0.0000000000000D+00  0.0000000000000D+00
177  1.7600000000000D+00  0.0000000000000D+00  0.0000000000000D+00
178  1.7700000000000D+00  0.0000000000000D+00  0.0000000000000D+00
179  1.7800000000000D+00  0.0000000000000D+00  0.0000000000000D+00
180  1.7900000000000D+00  0.0000000000000D+00  0.0000000000000D+00
181  1.8000000000000D+00  0.0000000000000D+00  0.0000000000000D+00
182  1.8100000000000D+00  0.0000000000000D+00  0.0000000000000D+00
183  1.8200000000000D+00  0.0000000000000D+00  0.0000000000000D+00
184  1.8300000000000D+00  0.0000000000000D+00  0.0000000000000D+00
185  1.8400000000000D+00  0.0000000000000D+00  0.0000000000000D+00
186  1.8500000000000D+00  0.0000000000000D+00  0.0000000000000D+00
187  1.8600000000000D+00  0.0000000000000D+00  0.0000000000000D+00
188  1.8700000000000D+00  0.0000000000000D+00  0.0000000000000D+00
189  1.8800000000000D+00  0.0000000000000D+00  0.0000000000000D+00
190  1.8900000000000D+00  0.0000000000000D+00  0.0000000000000D+00
191  1.9000000000000D+00  0.0000000000000D+00  0.0000000000000D+00
192  1.9100000000000D+00  0.0000000000000D+00  0.0000000000000D+00
193  1.9200000000000D+00  0.0000000000000D+00  0.0000000000000D+00
194  1.9300000000000D+00  0.0000000000000D+00  0.0000000000000D+00
195  1.9400000000000D+00  0.0000000000000D+00  0.0000000000000D+00
196  1.9500000000000D+00  0.0000000000000D+00  0.0000000000000D+00
197  1.9600000000000D+00  0.0000000000000D+00  0.0000000000000D+00
198  1.9700000000000D+00  0.0000000000000D+00  0.0000000000000D+00
199  1.9800000000000D+00  0.0000000000000D+00  0.0000000000000D+00
200  1.9900000000000D+00  0.0000000000000D+00  0.0000000000000D+00
201  2.0000000000000D+00  0.0000000000000D+00  0.0000000000000D+00
202  2.0100000000000D+00  0.0000000000000D+00  0.0000000000000D+00
203  2.0200000000000D+00  0.0000000000000D+00  0.0000000000000D+00
204  2.0300000000000D+00  0.0000000000000D+00  0.0000000000000D+00
205  2.0400000000000D+00  0.0000000000000D+00  0.0000000000000D+00
206  2.0500000000000D+00  0.0000000000000D+00  0.0000000000000D+00
207  2.0600000000000D+00  0.0000000000000D+00  0.0000000000000D+00
208  2.0700000000000D+00  0.0000000000000D+00  0.0000000000000D+00
209  2.0800000000000D+00  0.0000000000000D+00  0.0000000000000D+00
210  2.0900000000000D+00  0.0000000000000D+00  0.0000000000000D+00
211  2.1000000000000D+00  0.0000000000000D+00  0.0000000000000D+00
212  2.1100000000000D+00  0.0000000000000D+00  0.0000000000000D+00
213  2.1200000000000D+00  0.0000000000000D+00  0.0000000000000D+00
214  2.1300000000000D+00  0.0000000000000D+00  0.0000000000000D+00
215  2.1400000000000D+00  0.0000000000000D+00  0.0000000000000D+00
216  2.1500000000000D+00  0.0000000000000D+00  0.0000000000000D+00
217  2.1600000000000D+00  0.0000000000000D+00  0.0000000000000D+00
218  2.1700000000000D+00  0.0000000000000D+00  0.0000000000000D+00
219  2.1800000000000D+00  0.0000000000000D+00  0.0000000000000D+00
220  2.1900000000000D+00  0.0000000000000D+00  0.0000000000000D+00
221  2.2000000000000D+00  0.0000000000000D+00  0.0000000000000D+00
222  2.2100000000000D+00  0.0000000000000D+00  0.0000000000000D+00
223  2.2200000000000D+00  0.0000000000000D+00  0.0000000000000D+00
224  2.2300000000000D+00  0.0000000000000D+00  0.0000000000000D+00
225  2.2400000000000D+00  0.0000000000000D+00  0.0000000000000D+00
226  2.2500000000000D+00  0.0000000000000D+00  0.0000000000000D+00
227  2.2600000000000D+00  0.0000000000000D+00  0.0000000000000D+00
228  2.2700000000000D+00  0.0000000000000D+00  0.0000000000000D+00
229  2.2800000000000D+00  0.0000000000000D+00  0.0000000000000D+00
230  2.2900000000000D+00  0.0000000000000D+00  0.0000000000000D+00
231  2.3000000000000D+00  0.0000000000000D+00  0.0000000000000D+00
232  2.3100000000000D+00  0.0000000000000D+00  0.0000000000000D+00
233  2.3200000000000D+00  0.0000000000000D+00  0.0000000000000D+00
234  2.3300000000000D+00  0.0000000000000D+00  0.0000000000000D+00
235  2.3400000000000D+00  0.0000000000000D+00  0.0000000000000D+00
236  2.3500000000000D+00  0.0000000000000D+00  0.0000000000000D+00
237  2.3600000000000D+00  0.0000000000000D+00  0.0000000000000D+00
238  2.3700000000000D+00  0.0000000000000D+00  0.0000000000000D+00
239  2.3800000000000D+00  0.0000000000000D+00  0.0000000000000D+00
240  2.3900000000000D+00  0.0000000000000D+00  0.0000000000000D+00
241  2.4000000000000D+00  0.0000000000000D+00  0.0000000000000D+00
242  2.4100000000000D+00  0.0000000000000D+00  0.0000000000000D+00
243  2.4200000000000D+00  0.0000000000000D+00  0.0000000000000D+00
244  2.4300000000000D+00  0.0000000000000D+00  0.0000000000000D+00
245  2.4400000000000D+00  0.0000000000000D+00  0.0000000000000D+00
246  2.4500000000000D+00  0.0000000000000D+00  0.0000000000000D+00
247  2.4600000000000D+00  0.0000000000000D+00  0.0000000000000D+00
248  2.4700000000000D+00  0.0000000000000D+00  0.0000000000000D+00
249  2.4800000000000D+00  0.0000000000000D+00  0.0000000000000D+00
250  2.4900000000000D+00  0.0000000000000D+00  0.0000000000000D+00
251  2.5000000000000D+00  0.0000000000000D+00  0.0000000000000D+00
252  2.5100000000000D+00  0.0000000000000D+00  0.0000000000000D+00
253  2.5200000000000D+00  0.0000000000000D+00  0.0000000000000D+00
254  2.5300000000000D+00  0.0000000000000D+00  0.0000000000000D+00
255  2.5400000000000D+00  0.0000000000000D+00  0.0000000000000D+00
256  2.5500000000000D+00  0.0000000000000D+00  0.0000000000000D+00
257  2.5600000000000D+00  0.0000000000000D+00  0.0000000000000D+00
258  2.5700000000000D+00  0.0000000000000D+00  0.0000000000000D+00
259  2.5800000000000D+00  0.0000000000000D+00  0.0000000000000D+00
260  2.5900000000000D+00  0.0000000000000D+00  0.0000000000000D+00
261  2.6000000000000D+00  0.0000000000000D+00  0.0000000000000D+00
262  2.6100000000000D+00  0.0000000000000D+00  0.0000000000000D+00
263  2.6200000000000D+00  0.0000000000000D+00  0.0000000000000D+00
264  2.6300000000000D+00  0.0000000000000D+00  0.0000000000000D+00
265  2.6400000000000D+00  0.0000000000000D+00  0.0000000000000D+00
266  2.6500000000000D+00  0.0000000000000D+00  0.0000000000000D+00
267  2.6600000000000D+00  0.0000000000000D+00  0.0000000000000D+00
268  2.6700000000000D+00  0.0000000000000D+00  0.0000000000000D+00
269  2.6800000000000D+00  0.0000000000000D+00  0.0000000000000D+00
270  2.6900000000000D+00  0.0000000000000D+00  0.0000000000000D+00
271  2.7000000000000D+00  0.0000000000000D+00  0.0000000000000D+00
272  2.7100000000000D+00  0.0000000000000D+00  0.0000000000000D+00
273  2.7200000000000D+00  0.0000000000000D+00  0.0000000000000D+00
274  2.7300000000000D+00  0.0000000000000D+00  0.0000000000000D+00
275  2.7400000000000D+00  0.0000000000000D+00  0.0000000000000D+00
276  2.7500000000000D+00  0.0000000000000D+00  0.0000000000000D+00
277  2.7600000000000D+00  0.0000000000000D+00  0.0000000000000D+00
278  2.7700000000000D+00  0.0000000000000D+00  0.0000000000000D+00
279  2.7800000000000D+00  0.0000000000000D+00  0.0000000000000D+00
280  2.7900000000000D+00  0.0000000000000D+00  0.0000000000000D+00
281  2.8000000000000D+00  0.0000000000000D+00  0.0000000000000D+00
282  2.8100000000000D+00  0.0000000000000D+00  0.0000000000000D+00
283  2.8200000000000D+00  0.0000000000000D+00  0.0000000000000D+00
284  2.8300000000000D+00  0.0000000000000D+00  0.0000000000000D+00
285  2.8400000000000D+00  0.0000000000000D+00  0.0000000000000D+00
286  2.8500000000000D+00  0.0000000000000D+00  0.0000000000000D+00
287  2.8600000000000D+00  0.0000000000000D+00  0.0000000000000D+00
288  2.8700000000000D+00  0.0000000000000D+00  0.0000000000000D+00
289  2.8800000000000D+00  0.0000000000000D+00  0.0000000000000D+00
290  2.8900000000000D+00  0.0000000000000D+00  0.0000000000000D+00
291  2.9000000000000D+00  0.0000000000000D+00  0.0000000000000D+00
292  2.9100000000000D+00  0.0000000000000D+00  0.0000000000000D+00
293  2.9200000000000D+00  0.0000000000000D+00  0.0000000000000D+00
294  2.9300000000000D+00  0.0000000000000D+00  0.0000000000000D+00
295  2.9400000000000D+00  0.0000000000000D+00  0.0000000000000D+00
296  2.9500000000000D+00  0.0000000000000D+00  0.0000000000000D+00
297  2.9600000000000D+00  0.0000000000000D+00  0.0000000000000D+00
298  2.9700000000000D+00  0.0000000000000D+00  0.0000000000000D+00
299  2.9800000000000D+00  0.0000000000000D+00  0.0000000000000D+00
300  2.9900000000000D+00  0.0000000000000D+00  0.0000000000000D+00
301  3.0000000000000D+00  0.0000000000000D+00  0.0000000000000D+00
302  3.0100000000000D+00  0.0000000000000D+00  0.0000000000000D+00
303  3.0200000000000D+00  0.0000000000000D+00  0.0000000000000D+00
304  3.0300000000000D+00  0.0000000000000D+00  0.0000000000000D+00
305  3.0400000000000D+00  0.0000000000000D+00  0.0000000000000D+00
306  3.0500000000000D+00  0.0000000000000D+00  0.0000000000000D+00
307  3.0600000000000D+00  0.0000000000000D+00  0.0000000000000D+00
308  3.0700000000000D+00  0.0000000000000D+00  0.0000000000000D+00
309  3.0800000000000D+00  0.0000000000000D+00  0.0000000000000D+00
310  3.0900000000000D+00  0.0000000000000D+00  0.0000000000000D+00
311  3.1000000000000D+00  0.0000000000000D+00  0.0000000000000D+00
312  3.1100000000000D+00  0.0000000000000D+00  0.0000000000000D+00
313  3.1200000000000D+00  0.0000000000000D+00  0.0000000000000D+00
314  3.1300000000000D+00  0.0000000000000D+00  0.0000000000000D+00
315  3.1400000000000D+00  0.0000000000000D+00  0.0000000000000D+00
316  3.1500000000000D+00  0.0000000000000D+00  0.0000000000000D+00
317  3.1600000000000D+00  0.0000000000000D+00  0.0000000000000D+00
318  3.1700000000000D+00  0.0000000000000D+00  0.0000000000000D+00
319  3.1800000000000D+00  0.0000000000000D+00  0.0000000000000D+00
320  3.1900000000000D+00  0.0000000000000D+00  0.0000000000000D+00
321  3.2000000000000D+00  0.0000000000000D+00  0.0000000000000D+00
322  3.2100000000000D+00  0.0000000000000D+00  0.0000000000000D+00
323  3.2200000000000D+00  0.0000000000000D+00  0.0000000000000D+00
324  3.2300000000000D+00  0.0000000000000D+00  0.0000000000000D+00
325  3.2400000000000D+00  0.0000000000000D+00  0.0000000000000D+00
326  3.2500000000000D+00  0.0000000000000D+00  0.0000000000000D+00
327  3.2600000000000D+00  0.0000000000000D+00  0.0000000000000D+00
328  3.2700000000000D+00  0.0000000000000D+00  0.0000000000000D+00
329  3.2800000000000D+00  0.0000000000000D+00  0.0000000000000D+00
330  3.2900000000000D+00  0.0000000000000D+00  0.0000000000000D+00
331  3.3000000000000D+00  0.0000000000000D+00  0.0000000000000D+00
332  3.3100000000000D+00  0.0000000000000D+00  0.0000000000000D+00
333  3.3200000000000D+00  0.0000000000000D+00  0.0000000000000D+00
334  3.3300000000000D+00  0.0000000000000D+00  0.0000000000000D+00
335  3.3400000000000D+00  0.0000000000000D+00  0.0000000000000D+00
336  3.3500000000000D+00  0.0000000000000D+00  0.0000000000000D+00
337  3.3600000000000D+00  0.0000000000000D+00  0.0000000000000D+00
338  3.3700000000000D+00  0.0000000000000D+00  0.0000000000000D+00
339  3.3800000000000D+00  0.0000000000000D+00  0.0000000000000D+00
340  3.3900000000000D+00  0.0000000000000D+00  0.0000000000000D+00
341  3.4000000000000D+00  0.0000000000000D+00  0.0000000000000D+00
342  3.4100000000000D+00  0.0000000000000D+00  0.0000000000000D+00
343  3.4200000000000D+00  0.0000000000000D+00  0.0000000000000D+00
344  3.4300000000000D+00  0.0000000000000D+00  0.0000000000000D+00
345  3.4400000000000D+00  0.0000000000000D+00  0.0000000000000D+00
346  3.4500000000000D+00  0.0000000000000D+00  0.0000000000000D+00
347  3.4600000000000D+00  0.0000000000000D+00  0.0000000000000D+00
348  3.4700000000000D+00  0.0000000000000D+00  0.0000000000000D+00
349  3.4800000000000D+00  0.0000000000000D+00  0.0000000000000D+00
350  3.4900000000000D+00  0.0000000000000D+00  0.0000000000000D+00
351  3.5000000000000D+00  0.0000000000000D+00  0.0000000000000D+00
352  3.5100000000000D+00  0.0000000000000D+00  0.0000000000000D+00
353  3.5200000000000D+00  0.0000000000000D+00  0.0000000000000D+00
354  3.5300000000000D+00  0.0000000000000D+00  0.0000000000000D+00
355  3.5400000000000D+00  0.0000000000000D+00  0.0000000000000D+00
356  3.5500000000000D+00  0.0000000000000D+00  0.0000000000000D+00
357  3.5600000000000D+00  0.0000000000000D+00  0.0000000000000D+00
358  3.5700000000000D+00  0.0000000000000D+00  0.0000000000000D+00
359  3.5800000000000D+00  0.0000000000000D+00  0.0000000000000D+00
360  3.5900000000000D+00  0.0000000000000D+00  0.0000000000000D+00
361  3.6000000000000D+00  0.0000000000000D+00  0.0000000000000D+00
362  3.6100000000000D+00  0.0000000000000D+00  0.0000000000000D+00
363  3.6200000000000D+00  0.0000000000000D+00  0.0000000000000D+00
364  3.6300000000000D+00  0.0000000000000D+00  0.0000000000000D+00
365  3.6400000000000D+00  0.0000000000000D+00  0.0000000000000D+00
366  3.6500000000000D+00  0.0000000000000D+00  0.0000000000000D+00
367  3.6600000000000D+00  0.0000000000000D+00  0.0000000000000D+00
368  3.6700000000000D+00  0.0000000000000D+00  0.0000000000000D+00
369  3.6800000000000D+00  0.0000000000000D+00  0.0000000000000D+00
370  3.6900000000000D+00  0.0000000000000D+00  0.0000000000000D+00
371  3.7000000000000D+00  0.0000000000000D+00  0.0000000000000D+00
372  3.7100000000000D+00  0.0000000000000D+00  0.0000000000000D+00
373  3.7200000000000D+00  0.0000000000000D+00  0.0000000000000D+00
374  3.7300000000000D+00  0.0000000000000D+00  0.0000000000000D+00
375  3.7400000000000D+00  0.0000000000000D+00  0.0000000000000D+00
376  3.7500000000000D+00  0.0000000000000D+00  0.0000000000000D+00
377  3.7600000000000D+00  0.0000000000000D+00  0.0000000000000D+00
378  3.7700000000000D+00  0.0000000000000D+00  0.0000000000000D+00
379  3.7800000000000D+00  0.0000000000000D+00  0.0000000000000D+00
380  3.7900000000000D+00  0.0000000000000D+00  0.0000000000000D+00
381  3.8000000000000D+00  0.0000000000000D+00  0.0000000000000D+00
382  3.8100000000000D+00  0.0000000000000D+00  0.0000000000000D+00
383  3.8200000000000D+00  0.0000000000000D+00  0.0000000000000D+00
384  3.8300000000000D+00  0.0000000000000D+00  0.0000000000000D+00
385  3.8400000000000D+00  0.0000000000000D+00  0.0000000000000D+00
386  3.8500000000000D+00  0.0000000000000D+00  0.0000000000000D+00
387  3.8600000000000D+00  0.0000000000000D+00  0.0000000000000D+00
388  3.8700000000000D+00  0.0000000000000D+00  0.0000000000000D+00
389  3.8800000000000D+00  0.0000000000000D+00  0.0000000000000D+00
390  3.8900000000000D+00  0.0000000000000D+00  0.0000000000000D+00
391  3.9000000000000D+00  0.0000000000000D+00  0.0000000000000D+00
392  3.9100000000000D+00  0.0000000000000D+00  0.0000000000000D+00
393  3.9200000000000D+00  0.0000000000000D+00  0.0000000000000D+00
394  3.9300000000000D+00  0.0000000000000D+00  0.0000000000000D+00
395  3.9400000000000D+00  0.0000000000000D+00  0.0000000000000D+00
396  3.9500000000000D+00  0.0000000000000D+00  0.0000000000000D+00
397  3.9600000000000D+00  0.0000000000000D+00  0.0000000000000D+00
398  3.9700000000000D+00  0.0000000000000D+00  0.0000000000000D+00
399  3.9800000000000D+00  0.0000000000000D+00  0.0000000000000D+00
400  3.9900000000000D+00  0.0000000000000D+00  0.0000000000000D+00
401  4.0000000000000D+00  0.0000000000000D+00  0.0000000000000D+00
402  4.0100000000000D+00  0.0000000000000D+00  0.0000000000000D+00
403  4.0200000000000D+00  0.0000000000000D+00  0.0000000000000D+00
404  4.0300000000000D+00  0.0000000000000D+00  0.0000000000000D+00
405  4.0400000000000D+00  0.0000000000000D+00  0.0000000000000D+00
406  4.0500000000000D+00  0.0000000000000D+00  0.0000000000000D+00
407  4.0600000000000D+00  0.0000000000000D+00  0.0000000000000D+00
408  4.0700000000000D+00  0.0000000000000D+00  0.0000000000000D+00
409  4.0800000000000D+00  0.0000000000000D+00  0.0000000000000D+00
410  4.0900000000000D+00  0.0000000000000D+00  0.0000000000000D+00
411  4.1000000000000D+00  0.0000000000000D+00  0.0000000000000D+00
412  4.1100000000000D+00  0.0000000000000D+00  0.0000000000000D+00
413  4.1200000000000D+00  0.0000000000000D+00  0.0000000000000D+00
414  4.1300000000000D+00  0.0000000000000D+00  0.0000000000000D+00
415  4.1400000000000D+00  0.0000000000000D+00  0.0000000000000D+00
416  4.1500000000000D+00  0.0000000000000D+00  0.0000000000000D+00
417  4.1600000000000D+00  0.0000000000000D+00  0.0000000000000D+00
418  4.1700000000000D+00  0.0000000000000D+00  0.0000000000000D+00
419  4.1800000000000D+00  0.0000000000000D+00  0.0000000000000D+00
420  4.1900000000000D+00  0.0000000000000D+00  0.0000000000000D+00
421  4.2000000000000D+00  0.0000000000000D+00  0.0000000000000D+00
422  4.2100000000000D+00  0.0000000000000D+00  0.0000000000000D+00
423  4.2200000000000D+00  0.0000000000000D+00  0.0000000000000D+00
424  4.2300000000000D+00  0.0000000000000D+00  0.0000000000000D+00
425  4.2400000000000D+00  0.0000000000000D+00  0.0000000000000D+00
426  4.2500000000000D+00  0.0000000000000D+00  0.0000000000000D+00
427  4.2600000000000D+00  0.0000000000000D+00  0.0000000000000D+00
428  4.2700000000000D+00  0.0000000000000D+00  0.0000000000000D+00
429  4.2800000000000D+00  0.0000000000000D+00  0.0000000000000D+00
430  4.2900000000000D+00  0.0000000000000D+00  0.0000000000000D+00
431  4.3000000000000D+00  0.0000000000000D+00  0.0000000000000D+00
432  4.3100000000000D+00  0.0000000000000D+00  0.0000000000000D+00
433  4.3200000000000D+00  0.0000000000000D+00  0.0000000000000D+00
434  4.3300000000000D+00  0.0000000000000D+00  0.0000000000000D+00
435  4.3400000000000D+00  0.0000000000000D+00  0.0000000000000D+00
436  4.3500000000000D+00  0.0000000000000D+00  0.0000000000000D+00
437  4.3600000000000D+00  0.0000000000000D+00  0.0000000000000D+00
438  4.3700000000000D+00  0.0000000000000D+00  0.0000000000000D+00
439  4.3800000000000D+00  0.0000000000000D+00  0.0000000000000D+00
440  4.3900000000000D+00  0.0000000000000D+00  0.0000000000000D+00
441  4.4000000000000D+00  0.0000000000000D+00  0.0000000000000D+00
442  4.4100000000000D+00  0.0000000000000D+00  0.0000000000000D+00
443  4.4200000000000D+00  0.0000000000000D+00  0.0000000000000D+00