As    ONCVPSP  r_core=  1.85  1.70  2.16
33.0000      5.0000      161004    zatom,zion,pspd
8 -116133   2     4   600     0    pspcod,pspxc,lmax,lloc,mmax,r2well
5.99000000  8.00000000  0.00000000    rchrg fchrg qchrg
2     2     2     0     0    nproj
1                 extension_switch
0                         7.7618026348867D+00  8.0199155459740D-01
1  0.0000000000000D+00  2.6302171551862D-10 -9.8453460661840D-10
2  1.0000000000000D-02  3.2061785331478D-02 -7.6743811485524D-03
3  2.0000000000000D-02  6.4143032141941D-02 -1.5458914955518D-02
4  3.0000000000000D-02  9.6262702142729D-02 -2.3462028182505D-02
5  4.0000000000000D-02  1.2843876337576D-01 -3.1788716970855D-02
6  5.0000000000000D-02  1.6068770797577D-01 -4.0538884211269D-02
7  6.0000000000000D-02  1.9302408726017D-01 -4.9805739422025D-02
8  7.0000000000000D-02  2.2546006960995D-01 -5.9674280802508D-02
9  8.0000000000000D-02  2.5800502634230D-01 -7.0219878144216D-02
10  9.0000000000000D-02  2.9066515045250D-01 -8.1506974072953D-02
11  1.0000000000000D-01  3.2344311272322D-01 -9.3587919677763D-02
12  1.1000000000000D-01  3.5633775926874D-01 -1.0650195897134D-01
13  1.2000000000000D-01  3.8934385410332D-01 -1.2027437484224D-01
14  1.3000000000000D-01  4.2245186980404D-01 -1.3491580722250D-01
15  1.4000000000000D-01  4.5564782878397D-01 -1.5042175212829D-01
16  1.5000000000000D-01  4.8891319710834D-01 -1.6677224806073D-01
17  1.6000000000000D-01  5.2222483218127D-01 -1.8393175400454D-01
18  1.7000000000000D-01  5.5555498501017D-01 -2.0184922096116D-01
19  1.8000000000000D-01  5.8887135712734D-01 -2.2045835662715D-01
20  1.9000000000000D-01  6.2213721161954D-01 -2.3967808050658D-01
21  2.0000000000000D-01  6.5531153709461D-01 -2.5941316445480D-01
22  2.1000000000000D-01  6.8834926280699D-01 -2.7955505141844D-01
23  2.2000000000000D-01  7.2120152257725D-01 -2.9998284298929D-01
24  2.3000000000000D-01  7.5381596458208D-01 -3.2056444435320D-01
25  2.4000000000000D-01  7.8613710356764D-01 -3.4115785331471D-01
26  2.5000000000000D-01  8.1810671155493D-01 -3.6161257833560D-01
27  2.6000000000000D-01  8.4966424266898D-01 -3.8177116896267D-01
28  2.7000000000000D-01  8.8074728733714D-01 -4.0147084065544D-01
29  2.8000000000000D-01  9.1129205077154D-01 -4.2054517487466D-01
30  2.9000000000000D-01  9.4123385037966D-01 -4.3882587437156D-01
31  3.0000000000000D-01  9.7050762653915D-01 -4.5614455293702D-01
32  3.1000000000000D-01  9.9904846102948D-01 -4.7233453843746D-01
33  3.2000000000000D-01  1.0267920973372D+00 -4.8723266778620D-01
34  3.3000000000000D-01  1.0536754570425D+00 -5.0068105257715D-01
35  3.4000000000000D-01  1.0796371465541D+00 -5.1252879444195D-01
36  3.5000000000000D-01  1.1046179485849D+00 -5.2263362977783D-01
37  3.6000000000000D-01  1.1285612929535D+00 -5.3086348432520D-01
38  3.7000000000000D-01  1.1514137015491D+00 -5.3709791914156D-01
39  3.8000000000000D-01  1.1731252026149D+00 -5.4122945080878D-01
40  3.9000000000000D-01  1.1936497098732D+00 -5.4316473020994D-01
41  4.0000000000000D-01  1.2129453624410D+00 -5.4282556590049D-01
42  4.1000000000000D-01  1.2309748219533D+00 -5.4014977995808D-01
43  4.2000000000000D-01  1.2477055238240D+00 -5.3509188620246D-01
44  4.3000000000000D-01  1.2631098801202D+00 -5.2762358280835D-01
45  4.4000000000000D-01  1.2771654321010D+00 -5.1773405356395D-01
46  4.5000000000000D-01  1.2898549510717D+00 -5.0543007432964D-01
47  4.6000000000000D-01  1.3011664868134D+00 -4.9073592359686D-01
48  4.7000000000000D-01  1.3110933634711D+00 -4.7369309840918D-01
49  4.8000000000000D-01  1.3196341234013D+00 -4.5435983925594D-01
50  4.9000000000000D-01  1.3267924200952D+00 -4.3281046985709D-01
51  5.0000000000000D-01  1.3325768618908D+00 -4.0913455999540D-01
52  5.1000000000000D-01  1.3370008087639D+00 -3.8343592169503D-01
53  5.2000000000000D-01  1.3400821250383D+00 -3.5583145106437D-01
54  5.3000000000000D-01  1.3418428913658D+00 -3.2644982999278D-01
55  5.4000000000000D-01  1.3423090798011D+00 -2.9543010359210D-01
56  5.5000000000000D-01  1.3415101962217D+00 -2.6292015078482D-01
57  5.6000000000000D-01  1.3394788947125D+00 -2.2907506673866D-01
58  5.7000000000000D-01  1.3362505688570D+00 -1.9405547692227D-01
59  5.8000000000000D-01  1.3318629251277D+00 -1.5802580338831D-01
60  5.9000000000000D-01  1.3263555437644D+00 -1.2115250447324D-01
61  6.0000000000000D-01  1.3197694326547D+00 -8.3602309426455D-02
62  6.1000000000000D-01  1.3121465797914D+00 -4.5540469541474D-02
63  6.2000000000000D-01  1.3035295098710D+00 -7.1290471594444D-03
64  6.3000000000000D-01  1.2939608505236D+00  3.1474736554236D-02
65  6.4000000000000D-01  1.2834829135191D+00  7.0120074880373D-02
66  6.5000000000000D-01  1.2721372960856D+00  1.0866405065947D-01
67  6.6000000000000D-01  1.2599645072034D+00  1.4697299525800D-01
68  6.7000000000000D-01  1.2470036234084D+00  1.8492371482863D-01
69  6.8000000000000D-01  1.2332919782478D+00  2.2240456895296D-01
70  6.9000000000000D-01  1.2188648890947D+00  2.5931638858511D-01
71  7.0000000000000D-01  1.2037554245430D+00  2.9557322221381D-01
72  7.1000000000000D-01  1.1879942150807D+00  3.3110290128927D-01
73  7.2000000000000D-01  1.1716093091801D+00  3.6584741822911D-01
74  7.3000000000000D-01  1.1546260763602D+00  3.9976311265038D-01
75  7.4000000000000D-01  1.1370671581717D+00  4.3282066388092D-01
76  7.5000000000000D-01  1.1189524674392D+00  4.6500489023832D-01
77  7.6000000000000D-01  1.1002992354717D+00  4.9631435799434D-01
78  7.7000000000000D-01  1.0811221063377D+00  5.2676080535180D-01
79  7.8000000000000D-01  1.0614332766883D+00  5.5636838910779D-01
80  7.9000000000000D-01  1.0412426790253D+00  5.8517276393231D-01
81  8.0000000000000D-01  1.0205582057447D+00  6.1322000633593D-01
82  8.1000000000000D-01  9.9938597075243D-01  6.4056539739852D-01
83  8.2000000000000D-01  9.7773060495681D-01  6.6727208016260D-01
84  8.3000000000000D-01  9.5559558149062D-01  6.9340960923427D-01
85  8.4000000000000D-01  9.3298356611972D-01  7.1905241156216D-01
86  8.5000000000000D-01  9.0989678795008D-01  7.4427817856128D-01
87  8.6000000000000D-01  8.8633742526303D-01  7.6916621069813D-01
88  8.7000000000000D-01  8.6230800108895D-01  7.9379573634440D-01
89  8.8000000000000D-01  8.3781178297672D-01  8.1824422712776D-01
90  8.9000000000000D-01  8.1285318133189D-01  8.4258573215453D-01
91  9.0000000000000D-01  7.8743814068205D-01  8.6688925334691D-01
92  9.1000000000000D-01  7.6157451828354D-01  8.9121718372750D-01
93  9.2000000000000D-01  7.3527244460917D-01  9.1562382979962D-01
94  9.3000000000000D-01  7.0854466045030D-01  9.4015403822111D-01
95  9.4000000000000D-01  6.8140682562707D-01  9.6484194576199D-01
96  9.5000000000000D-01  6.5387779462362D-01  9.8970987008628D-01
97  9.6000000000000D-01  6.2597985484742D-01  1.0147673572278D+00
98  9.7000000000000D-01  5.9773892365581D-01  1.0400103997204D+00
99  9.8000000000000D-01  5.6918470076726D-01  1.0654208373365D+00
100  9.9000000000000D-01  5.4035077322152D-01  1.0909659500990D+00
101  1.0000000000000D+00  5.1127467061479D-01  1.1165982509057D+00
102  1.0100000000000D+00  4.8199786893779D-01  1.1422554826418D+00
103  1.0200000000000D+00  4.5256574196877D-01  1.1678608221150D+00
104  1.0300000000000D+00  4.2302745981261D-01  1.1933232905748D+00
105  1.0400000000000D+00  3.9343583484225D-01  1.2185383679227D+00
106  1.0500000000000D+00  3.6384711589872D-01  1.2433888053366D+00
107  1.0600000000000D+00  3.3432073231572D-01  1.2677456282469D+00
108  1.0700000000000D+00  3.0491898991033D-01  1.2914693193655D+00
109  1.0800000000000D+00  2.7570672170064D-01  1.3144111690769D+00
110  1.0900000000000D+00  2.4675089670842D-01  1.3364147782349D+00
111  1.1000000000000D+00  2.1812019066238D-01  1.3573176966816D+00
112  1.1100000000000D+00  1.8988452301762D-01  1.3769531785852D+00
113  1.1200000000000D+00  1.6211456506493D-01  1.3951520344067D+00
114  1.1300000000000D+00  1.3488122433495D-01  1.4117445577835D+00
115  1.1400000000000D+00  1.0825511077813D-01  1.4265625046808D+00
116  1.1500000000000D+00  8.2305990520713D-02  1.4394411011253D+00
117  1.1600000000000D+00  5.7102233157559D-02  1.4502210554076D+00
118  1.1700000000000D+00  3.2710258653700D-02  1.4587505504476D+00
119  1.1800000000000D+00  9.1939899964804D-03  1.4648871919089D+00
120  1.1900000000000D+00 -1.3385682274814D-02  1.4684998880406D+00
121  1.2000000000000D+00 -3.4971417663763D-02  1.4694706379450D+00
122  1.2100000000000D+00 -5.5509919608746D-02  1.4676962059062D+00
123  1.2200000000000D+00 -7.4952399986366D-02  1.4630896601859D+00
124  1.2300000000000D+00 -9.3255008968092D-02  1.4555817567314D+00
125  1.2400000000000D+00 -1.1037922539304D-01  1.4451221501278D+00
126  1.2500000000000D+00 -1.2629220289931D-01  1.4316804145557D+00
127  1.2600000000000D+00 -1.4096706796812D-01  1.4152468615719D+00
128  1.2700000000000D+00 -1.5438316648628D-01  1.3958331434296D+00
129  1.2800000000000D+00 -1.6652625554554D-01  1.3734726312107D+00
130  1.2900000000000D+00 -1.7738863841682D-01  1.3482205622606D+00
131  1.3000000000000D+00 -1.8696924118033D-01  1.3201539536336D+00
132  1.3100000000000D+00 -1.9527362943198D-01  1.2893712780728D+00
133  1.3200000000000D+00 -2.0231396518809D-01  1.2559919061211D+00
134  1.3300000000000D+00 -2.0810890432402D-01  1.2201553187376D+00
135  1.3400000000000D+00 -2.1268343494347D-01  1.1820200951534D+00
136  1.3500000000000D+00 -2.1606865903308D-01  1.1417626885664D+00
137  1.3600000000000D+00 -2.1830151928927D-01  1.0995760003197D+00
138  1.3700000000000D+00 -2.1942447381123D-01  1.0556677665530D+00
139  1.3800000000000D+00 -2.1948512274044D-01  1.0102587765618D+00
140  1.3900000000000D+00 -2.1853579007155D-01  9.6358093886000D-01
141  1.4000000000000D+00 -2.1663306562239D-01  9.1587521770235D-01
142  1.4100000000000D+00 -2.1383731200317D-01  8.6738946196031D-01
143  1.4200000000000D+00 -2.1021214147529D-01  8.1837614880823D-01
144  1.4300000000000D+00 -2.0582386886317D-01  7.6909006869978D-01
145  1.4400000000000D+00 -2.0074094577923D-01  7.1978597521028D-01
146  1.4500000000000D+00 -1.9503338257772D-01  6.7071622706675D-01
147  1.4600000000000D+00 -1.8877216380425D-01  6.2212844680701D-01
148  1.4700000000000D+00 -1.8202866359763D-01  5.7426322385367D-01
149  1.4800000000000D+00 -1.7487406665846D-01  5.2735188440502D-01
150  1.4900000000000D+00 -1.6737880133037D-01  4.8161435623910D-01
151  1.5000000000000D+00 -1.5961198999239D-01  4.3725714843933D-01
152  1.5100000000000D+00 -1.5164092260925D-01  3.9447147018632D-01
153  1.5200000000000D+00 -1.4353055878486D-01  3.5343150945557D-01
154  1.5300000000000D+00 -1.3534306231065D-01  3.1429288649893D-01
155  1.5400000000000D+00 -1.2713737428441D-01  2.7719130640385D-01
156  1.5500000000000D+00 -1.1896882591784D-01  2.4224141194731D-01
157  1.5600000000000D+00 -1.1088879813109D-01  2.0953586585820D-01
158  1.5700000000000D+00 -1.0294442694017D-01  1.7914465532378D-01
159  1.5800000000000D+00 -9.5178360314083D-02  1.5111463697822D-01
160  1.5900000000000D+00 -8.7628586026213D-02  1.2546944100228D-01
161  1.6000000000000D+00 -8.0328220239979D-02  1.0220907740638D-01
162  1.6100000000000D+00 -7.3305468338717D-02  8.1310473451573D-02
163  1.6200000000000D+00 -6.6583821874224D-02  6.2729368650476D-02
164  1.6300000000000D+00 -6.0182258509286D-02  4.6402049456748D-02
165  1.6400000000000D+00 -5.4115565551340D-02  3.2247631477570D-02
166  1.6500000000000D+00 -4.8394572950523D-02  2.0169737552350D-02
167  1.6600000000000D+00 -4.3026286392762D-02  1.0057470919833D-02
168  1.6700000000000D+00 -3.8014134976515D-02  1.7870250092369D-03
169  1.6800000000000D+00 -3.3358250705925D-02 -4.7765645606979D-03
170  1.6900000000000D+00 -2.9055765469152D-02 -9.7776285825306D-03
171  1.7000000000000D+00 -2.5101137996929D-02 -1.3367940001362D-02
172  1.7100000000000D+00 -2.1486498619469D-02 -1.5704729344392D-02
173  1.7200000000000D+00 -1.8202009206906D-02 -1.6948647917697D-02
174  1.7300000000000D+00 -1.5236232380034D-02 -1.7261708573708D-02
175  1.7400000000000D+00 -1.2576505190872D-02 -1.6805226482904D-02
176  1.7500000000000D+00 -1.0209311018697D-02 -1.5737789858551D-02
177  1.7600000000000D+00 -8.1206454163135D-03 -1.4213280688124D-02
178  1.7700000000000D+00 -6.2963696609328D-03 -1.2378974709528D-02
179  1.7800000000000D+00 -4.7225476665114D-03 -1.0373741235552D-02
180  1.7900000000000D+00 -3.3858713655512D-03 -8.3278681544446D-03
181  1.8000000000000D+00 -2.2736955441510D-03 -6.3580598953258D-03
182  1.8100000000000D+00 -1.3739457667401D-03 -4.5558119207167D-03
183  1.8200000000000D+00 -6.7707796078499D-04 -3.0062611257261D-03
184  1.8300000000000D+00 -1.7404747692827D-04 -1.8547912772400D-03
185  1.8400000000000D+00  1.4975202490699D-04 -1.1954598883474D-03
186  1.8500000000000D+00  2.7960946816318D-04 -8.1108292659853D-04
187  1.8600000000000D+00  2.1362947438928D-04 -4.4397965358474D-04
188  1.8700000000000D+00  6.2000472074547D-05 -1.1147285313966D-04
189  1.8800000000000D+00 -3.0370608525648D-05  5.1507785828802D-05
190  1.8900000000000D+00 -2.7047845171135D-05  4.3432477797498D-05
191  1.9000000000000D+00  3.7714663461713D-06 -6.9755235796283D-06
192  1.9100000000000D+00  7.5959307202741D-06 -1.3735208485508D-05
193  1.9200000000000D+00 -2.3683034360098D-08  6.1732230129633D-08
194  1.9300000000000D+00 -7.9840161435828D-07  2.0811147526128D-06
195  1.9400000000000D+00 -2.8727862122752D-07  7.4882085155523D-07
196  1.9500000000000D+00  0.0000000000000D+00  0.0000000000000D+00
197  1.9600000000000D+00  0.0000000000000D+00  0.0000000000000D+00
198  1.9700000000000D+00  0.0000000000000D+00  0.0000000000000D+00
199  1.9800000000000D+00  0.0000000000000D+00  0.0000000000000D+00
200  1.9900000000000D+00  0.0000000000000D+00  0.0000000000000D+00
201  2.0000000000000D+00  0.0000000000000D+00  0.0000000000000D+00
202  2.0100000000000D+00  0.0000000000000D+00  0.0000000000000D+00
203  2.0200000000000D+00  0.0000000000000D+00  0.0000000000000D+00
204  2.0300000000000D+00  0.0000000000000D+00  0.0000000000000D+00
205  2.0400000000000D+00  0.0000000000000D+00  0.0000000000000D+00
206  2.0500000000000D+00  0.0000000000000D+00  0.0000000000000D+00
207  2.0600000000000D+00  0.0000000000000D+00  0.0000000000000D+00
208  2.0700000000000D+00  0.0000000000000D+00  0.0000000000000D+00
209  2.0800000000000D+00  0.0000000000000D+00  0.0000000000000D+00
210  2.0900000000000D+00  0.0000000000000D+00  0.0000000000000D+00
211  2.1000000000000D+00  0.0000000000000D+00  0.0000000000000D+00
212  2.1100000000000D+00  0.0000000000000D+00  0.0000000000000D+00
213  2.1200000000000D+00  0.0000000000000D+00  0.0000000000000D+00
214  2.1300000000000D+00  0.0000000000000D+00  0.0000000000000D+00
215  2.1400000000000D+00  0.0000000000000D+00  0.0000000000000D+00
216  2.1500000000000D+00  0.0000000000000D+00  0.0000000000000D+00
217  2.1600000000000D+00  0.0000000000000D+00  0.0000000000000D+00
218  2.1700000000000D+00  0.0000000000000D+00  0.0000000000000D+00
219  2.1800000000000D+00  0.0000000000000D+00  0.0000000000000D+00
220  2.1900000000000D+00  0.0000000000000D+00  0.0000000000000D+00
221  2.2000000000000D+00  0.0000000000000D+00  0.0000000000000D+00
222  2.2100000000000D+00  0.0000000000000D+00  0.0000000000000D+00
223  2.2200000000000D+00  0.0000000000000D+00  0.0000000000000D+00
224  2.2300000000000D+00  0.0000000000000D+00  0.0000000000000D+00
225  2.2400000000000D+00  0.0000000000000D+00  0.0000000000000D+00
226  2.2500000000000D+00  0.0000000000000D+00  0.0000000000000D+00
227  2.2600000000000D+00  0.0000000000000D+00  0.0000000000000D+00
228  2.2700000000000D+00  0.0000000000000D+00  0.0000000000000D+00
229  2.2800000000000D+00  0.0000000000000D+00  0.0000000000000D+00
230  2.2900000000000D+00  0.0000000000000D+00  0.0000000000000D+00
231  2.3000000000000D+00  0.0000000000000D+00  0.0000000000000D+00
232  2.3100000000000D+00  0.0000000000000D+00  0.0000000000000D+00
233  2.3200000000000D+00  0.0000000000000D+00  0.0000000000000D+00
234  2.3300000000000D+00  0.0000000000000D+00  0.0000000000000D+00
235  2.3400000000000D+00  0.0000000000000D+00  0.0000000000000D+00
236  2.3500000000000D+00  0.0000000000000D+00  0.0000000000000D+00
237  2.3600000000000D+00  0.0000000000000D+00  0.0000000000000D+00
238  2.3700000000000D+00  0.0000000000000D+00  0.0000000000000D+00
239  2.3800000000000D+00  0.0000000000000D+00  0.0000000000000D+00
240  2.3900000000000D+00  0.0000000000000D+00  0.0000000000000D+00
241  2.4000000000000D+00  0.0000000000000D+00  0.0000000000000D+00
242  2.4100000000000D+00  0.0000000000000D+00  0.0000000000000D+00
243  2.4200000000000D+00  0.0000000000000D+00  0.0000000000000D+00
244  2.4300000000000D+00  0.0000000000000D+00  0.0000000000000D+00
245  2.4400000000000D+00  0.0000000000000D+00  0.0000000000000D+00
246  2.4500000000000D+00  0.0000000000000D+00  0.0000000000000D+00
247  2.4600000000000D+00  0.0000000000000D+00  0.0000000000000D+00
248  2.4700000000000D+00  0.0000000000000D+00  0.0000000000000D+00
249  2.4800000000000D+00  0.0000000000000D+00  0.0000000000000D+00
250  2.4900000000000D+00  0.0000000000000D+00  0.0000000000000D+00
251  2.5000000000000D+00  0.0000000000000D+00  0.0000000000000D+00
252  2.5100000000000D+00  0.0000000000000D+00  0.0000000000000D+00
253  2.5200000000000D+00  0.0000000000000D+00  0.0000000000000D+00
254  2.5300000000000D+00  0.0000000000000D+00  0.0000000000000D+00
255  2.5400000000000D+00  0.0000000000000D+00  0.0000000000000D+00
256  2.5500000000000D+00  0.0000000000000D+00  0.0000000000000D+00
257  2.5600000000000D+00  0.0000000000000D+00  0.0000000000000D+00
258  2.5700000000000D+00  0.0000000000000D+00  0.0000000000000D+00
259  2.5800000000000D+00  0.0000000000000D+00  0.0000000000000D+00
260  2.5900000000000D+00  0.0000000000000D+00  0.0000000000000D+00
261  2.6000000000000D+00  0.0000000000000D+00  0.0000000000000D+00
262  2.6100000000000D+00  0.0000000000000D+00  0.0000000000000D+00
263  2.6200000000000D+00  0.0000000000000D+00  0.0000000000000D+00
264  2.6300000000000D+00  0.0000000000000D+00  0.0000000000000D+00
265  2.6400000000000D+00  0.0000000000000D+00  0.0000000000000D+00
266  2.6500000000000D+00  0.0000000000000D+00  0.0000000000000D+00
267  2.6600000000000D+00  0.0000000000000D+00  0.0000000000000D+00
268  2.6700000000000D+00  0.0000000000000D+00  0.0000000000000D+00
269  2.6800000000000D+00  0.0000000000000D+00  0.0000000000000D+00
270  2.6900000000000D+00  0.0000000000000D+00  0.0000000000000D+00
271  2.7000000000000D+00  0.0000000000000D+00  0.0000000000000D+00
272  2.7100000000000D+00  0.0000000000000D+00  0.0000000000000D+00
273  2.7200000000000D+00  0.0000000000000D+00  0.0000000000000D+00
274  2.7300000000000D+00  0.0000000000000D+00  0.0000000000000D+00
275  2.7400000000000D+00  0.0000000000000D+00  0.0000000000000D+00
276  2.7500000000000D+00  0.0000000000000D+00  0.0000000000000D+00
277  2.7600000000000D+00  0.0000000000000D+00  0.0000000000000D+00
278  2.7700000000000D+00  0.0000000000000D+00  0.0000000000000D+00
279  2.7800000000000D+00  0.0000000000000D+00  0.0000000000000D+00
280  2.7900000000000D+00  0.0000000000000D+00  0.0000000000000D+00
281  2.8000000000000D+00  0.0000000000000D+00  0.0000000000000D+00
282  2.8100000000000D+00  0.0000000000000D+00  0.0000000000000D+00
283  2.8200000000000D+00  0.0000000000000D+00  0.0000000000000D+00
284  2.8300000000000D+00  0.0000000000000D+00  0.0000000000000D+00
285  2.8400000000000D+00  0.0000000000000D+00  0.0000000000000D+00
286  2.8500000000000D+00  0.0000000000000D+00  0.0000000000000D+00
287  2.8600000000000D+00  0.0000000000000D+00  0.0000000000000D+00
288  2.8700000000000D+00  0.0000000000000D+00  0.0000000000000D+00
289  2.8800000000000D+00  0.0000000000000D+00  0.0000000000000D+00
290  2.8900000000000D+00  0.0000000000000D+00  0.0000000000000D+00
291  2.9000000000000D+00  0.0000000000000D+00  0.0000000000000D+00
292  2.9100000000000D+00  0.0000000000000D+00  0.0000000000000D+00
293  2.9200000000000D+00  0.0000000000000D+00  0.0000000000000D+00
294  2.9300000000000D+00  0.0000000000000D+00  0.0000000000000D+00
295  2.9400000000000D+00  0.0000000000000D+00  0.0000000000000D+00
296  2.9500000000000D+00  0.0000000000000D+00  0.0000000000000D+00
297  2.9600000000000D+00  0.0000000000000D+00  0.0000000000000D+00
298  2.9700000000000D+00  0.0000000000000D+00  0.0000000000000D+00
299  2.9800000000000D+00  0.0000000000000D+00  0.0000000000000D+00
300  2.9900000000000D+00  0.0000000000000D+00  0.0000000000000D+00
301  3.0000000000000D+00  0.0000000000000D+00  0.0000000000000D+00
302  3.0100000000000D+00  0.0000000000000D+00  0.0000000000000D+00
303  3.0200000000000D+00  0.0000000000000D+00  0.0000000000000D+00
304  3.0300000000000D+00  0.0000000000000D+00  0.0000000000000D+00
305  3.0400000000000D+00  0.0000000000000D+00  0.0000000000000D+00
306  3.0500000000000D+00  0.0000000000000D+00  0.0000000000000D+00
307  3.0600000000000D+00  0.0000000000000D+00  0.0000000000000D+00
308  3.0700000000000D+00  0.0000000000000D+00  0.0000000000000D+00
309  3.0800000000000D+00  0.0000000000000D+00  0.0000000000000D+00
310  3.0900000000000D+00  0.0000000000000D+00  0.0000000000000D+00
311  3.1000000000000D+00  0.0000000000000D+00  0.0000000000000D+00
312  3.1100000000000D+00  0.0000000000000D+00  0.0000000000000D+00
313  3.1200000000000D+00  0.0000000000000D+00  0.0000000000000D+00
314  3.1300000000000D+00  0.0000000000000D+00  0.0000000000000D+00
315  3.1400000000000D+00  0.0000000000000D+00  0.0000000000000D+00
316  3.1500000000000D+00  0.0000000000000D+00  0.0000000000000D+00
317  3.1600000000000D+00  0.0000000000000D+00  0.0000000000000D+00
318  3.1700000000000D+00  0.0000000000000D+00  0.0000000000000D+00
319  3.1800000000000D+00  0.0000000000000D+00  0.0000000000000D+00
320  3.1900000000000D+00  0.0000000000000D+00  0.0000000000000D+00
321  3.2000000000000D+00  0.0000000000000D+00  0.0000000000000D+00
322  3.2100000000000D+00  0.0000000000000D+00  0.0000000000000D+00
323  3.2200000000000D+00  0.0000000000000D+00  0.0000000000000D+00
324  3.2300000000000D+00  0.0000000000000D+00  0.0000000000000D+00
325  3.2400000000000D+00  0.0000000000000D+00  0.0000000000000D+00
326  3.2500000000000D+00  0.0000000000000D+00  0.0000000000000D+00
327  3.2600000000000D+00  0.0000000000000D+00  0.0000000000000D+00
328  3.2700000000000D+00  0.0000000000000D+00  0.0000000000000D+00
329  3.2800000000000D+00  0.0000000000000D+00  0.0000000000000D+00
330  3.2900000000000D+00  0.0000000000000D+00  0.0000000000000D+00
331  3.3000000000000D+00  0.0000000000000D+00  0.0000000000000D+00
332  3.3100000000000D+00  0.0000000000000D+00  0.0000000000000D+00
333  3.3200000000000D+00  0.0000000000000D+00  0.0000000000000D+00
334  3.3300000000000D+00  0.0000000000000D+00  0.0000000000000D+00
335  3.3400000000000D+00  0.0000000000000D+00  0.0000000000000D+00
336  3.3500000000000D+00  0.0000000000000D+00  0.0000000000000D+00
337  3.3600000000000D+00  0.0000000000000D+00  0.0000000000000D+00
338  3.3700000000000D+00  0.0000000000000D+00  0.0000000000000D+00
339  3.3800000000000D+00  0.0000000000000D+00  0.0000000000000D+00
340  3.3900000000000D+00  0.0000000000000D+00  0.0000000000000D+00
341  3.4000000000000D+00  0.0000000000000D+00  0.0000000000000D+00
342  3.4100000000000D+00  0.0000000000000D+00  0.0000000000000D+00
343  3.4200000000000D+00  0.0000000000000D+00  0.0000000000000D+00
344  3.4300000000000D+00  0.0000000000000D+00  0.0000000000000D+00
345  3.4400000000000D+00  0.0000000000000D+00  0.0000000000000D+00
346  3.4500000000000D+00  0.0000000000000D+00  0.0000000000000D+00
347  3.4600000000000D+00  0.0000000000000D+00  0.0000000000000D+00
348  3.4700000000000D+00  0.0000000000000D+00  0.0000000000000D+00
349  3.4800000000000D+00  0.0000000000000D+00  0.0000000000000D+00
350  3.4900000000000D+00  0.0000000000000D+00  0.0000000000000D+00
351  3.5000000000000D+00  0.0000000000000D+00  0.0000000000000D+00
352  3.5100000000000D+00  0.0000000000000D+00  0.0000000000000D+00
353  3.5200000000000D+00  0.0000000000000D+00  0.0000000000000D+00
354  3.5300000000000D+00  0.0000000000000D+00  0.0000000000000D+00
355  3.5400000000000D+00  0.0000000000000D+00  0.0000000000000D+00
356  3.5500000000000D+00  0.0000000000000D+00  0.0000000000000D+00
357  3.5600000000000D+00  0.0000000000000D+00  0.0000000000000D+00
358  3.5700000000000D+00  0.0000000000000D+00  0.0000000000000D+00
359  3.5800000000000D+00  0.0000000000000D+00  0.0000000000000D+00
360  3.5900000000000D+00  0.0000000000000D+00  0.0000000000000D+00
361  3.6000000000000D+00  0.0000000000000D+00  0.0000000000000D+00
362  3.6100000000000D+00  0.0000000000000D+00  0.0000000000000D+00
363  3.6200000000000D+00  0.0000000000000D+00  0.0000000000000D+00
364  3.6300000000000D+00  0.0000000000000D+00  0.0000000000000D+00
365  3.6400000000000D+00  0.0000000000000D+00  0.0000000000000D+00
366  3.6500000000000D+00  0.0000000000000D+00  0.0000000000000D+00
367  3.6600000000000D+00  0.0000000000000D+00  0.0000000000000D+00
368  3.6700000000000D+00  0.0000000000000D+00  0.0000000000000D+00
369  3.6800000000000D+00  0.0000000000000D+00  0.0000000000000D+00
370  3.6900000000000D+00  0.0000000000000D+00  0.0000000000000D+00
371  3.7000000000000D+00  0.0000000000000D+00  0.0000000000000D+00
372  3.7100000000000D+00  0.0000000000000D+00  0.0000000000000D+00
373  3.7200000000000D+00  0.0000000000000D+00  0.0000000000000D+00
374  3.7300000000000D+00  0.0000000000000D+00  0.0000000000000D+00
375  3.7400000000000D+00  0.0000000000000D+00  0.0000000000000D+00
376  3.7500000000000D+00  0.0000000000000D+00  0.0000000000000D+00
377  3.7600000000000D+00  0.0000000000000D+00  0.0000000000000D+00
378  3.7700000000000D+00  0.0000000000000D+00  0.0000000000000D+00
379  3.7800000000000D+00  0.0000000000000D+00  0.0000000000000D+00
380  3.7900000000000D+00  0.0000000000000D+00  0.0000000000000D+00
381  3.8000000000000D+00  0.0000000000000D+00  0.0000000000000D+00
382  3.8100000000000D+00  0.0000000000000D+00  0.0000000000000D+00
383  3.8200000000000D+00  0.0000000000000D+00  0.0000000000000D+00
384  3.8300000000000D+00  0.0000000000000D+00  0.0000000000000D+00
385  3.8400000000000D+00  0.0000000000000D+00  0.0000000000000D+00
386  3.8500000000000D+00  0.0000000000000D+00  0.0000000000000D+00
387  3.8600000000000D+00  0.0000000000000D+00  0.0000000000000D+00
388  3.8700000000000D+00  0.0000000000000D+00  0.0000000000000D+00
389  3.8800000000000D+00  0.0000000000000D+00  0.0000000000000D+00
390  3.8900000000000D+00  0.0000000000000D+00  0.0000000000000D+00
391  3.9000000000000D+00  0.0000000000000D+00  0.0000000000000D+00
392  3.9100000000000D+00  0.0000000000000D+00  0.0000000000000D+00
393  3.9200000000000D+00  0.0000000000000D+00  0.0000000000000D+00
394  3.9300000000000D+00  0.0000000000000D+00  0.0000000000000D+00
395  3.9400000000000D+00  0.0000000000000D+00  0.0000000000000D+00
396  3.9500000000000D+00  0.0000000000000D+00  0.0000000000000D+00
397  3.9600000000000D+00  0.0000000000000D+00  0.0000000000000D+00
398  3.9700000000000D+00  0.0000000000000D+00  0.0000000000000D+00
399  3.9800000000000D+00  0.0000000000000D+00  0.0000000000000D+00
400  3.9900000000000D+00  0.0000000000000D+00  0.0000000000000D+00
401  4.0000000000000D+00  0.0000000000000D+00  0.0000000000000D+00
402  4.0100000000000D+00  0.0000000000000D+00  0.0000000000000D+00
403  4.0200000000000D+00  0.0000000000000D+00  0.0000000000000D+00
404  4.0300000000000D+00  0.0000000000000D+00  0.0000000000000D+00
405  4.0400000000000D+00  0.0000000000000D+00  0.0000000000000D+00
406  4.0500000000000D+00  0.0000000000000D+00  0.0000000000000D+00
407  4.0600000000000D+00  0.0000000000000D+00  0.0000000000000D+00
408  4.0700000000000D+00  0.0000000000000D+00  0.0000000000000D+00
409  4.0800000000000D+00  0.0000000000000D+00  0.0000000000000D+00
410  4.0900000000000D+00  0.0000000000000D+00  0.0000000000000D+00
411  4.1000000000000D+00  0.0000000000000D+00  0.0000000000000D+00
412  4.1100000000000D+00  0.0000000000000D+00  0.0000000000000D+00
413  4.1200000000000D+00  0.0000000000000D+00  0.0000000000000D+00
414  4.1300000000000D+00  0.0000000000000D+00  0.0000000000000D+00
415  4.1400000000000D+00  0.0000000000000D+00  0.0000000000000D+00
416  4.1500000000000D+00  0.0000000000000D+00  0.0000000000000D+00
417  4.1600000000000D+00  0.0000000000000D+00  0.0000000000000D+00
418  4.1700000000000D+00  0.0000000000000D+00  0.0000000000000D+00
419  4.1800000000000D+00  0.0000000000000D+00  0.0000000000000D+00
420  4.1900000000000D+00  0.0000000000000D+00  0.0000000000000D+00
421  4.2000000000000D+00  0.0000000000000D+00  0.0000000000000D+00
422  4.2100000000000D+00  0.0000000000000D+00  0.0000000000000D+00
423  4.2200000000000D+00  0.0000000000000D+00  0.0000000000000D+00
424  4.2300000000000D+00  0.0000000000000D+00  0.0000000000000D+00
425  4.2400000000000D+00  0.0000000000000D+00  0.0000000000000D+00
426  4.2500000000000D+00  0.0000000000000D+00  0.0000000000000D+00
427  4.2600000000000D+00  0.0000000000000D+00  0.0000000000000D+00
428  4.2700000000000D+00  0.0000000000000D+00  0.0000000000000D+00
429  4.2800000000000D+00  0.0000000000000D+00  0.0000000000000D+00
430  4.2900000000000D+00  0.0000000000000D+00  0.0000000000000D+00
431  4.3000000000000D+00  0.0000000000000D+00  0.0000000000000D+00
432  4.3100000000000D+00  0.0000000000000D+00  0.0000000000000D+00
433  4.3200000000000D+00  0.0000000000000D+00  0.0000000000000D+00
434  4.3300000000000D+00  0.0000000000000D+00  0.0000000000000D+00
435  4.3400000000000D+00  0.0000000000000D+00  0.0000000000000D+00
436  4.3500000000000D+00  0.0000000000000D+00  0.0000000000000D+00
437  4.3600000000000D+00  0.0000000000000D+00  0.0000000000000D+00
438  4.3700000000000D+00  0.0000000000000D+00  0.0000000000000D+00
439  4.3800000000000D+00  0.0000000000000D+00  0.0000000000000D+00
440  4.3900000000000D+00  0.0000000000000D+00  0.0000000000000D+00
441  4.4000000000000D+00  0.0000000000000D+00  0.0000000000000D+00
442  4.4100000000000D+00  0.0000000000000D+00  0.0000000000000D+00
443  4.4200000000000D+00  0.0000000000000D+00  0.0000000000000D+00
444  4.4300000000000D+00  0.0000000000000D+00  0.0000000000000D+00