Ge    ONCVPSP  r_core=  1.82  1.72  2.20
32.0000      4.0000      161020    zatom,zion,pspd
8      11   2     4   600     0    pspcod,pspxc,lmax,lloc,mmax,r2well
5.99000000  9.50000000  0.00000000    rchrg fchrg qchrg
2     2     2     0     0    nproj
1                 extension_switch
0                         6.3239873131216D+00  5.9802066008749D-01
1  0.0000000000000D+00 -3.5717817592484D-12  2.6562585464518D-11
2  1.0000000000000D-02  2.8848748422085D-02 -1.7035296854956D-02
3  2.0000000000000D-02  5.7685059468066D-02 -3.4032555307035D-02
4  3.0000000000000D-02  8.6496496545944D-02 -5.0953889303647D-02
5  4.0000000000000D-02  1.1527062455650D-01 -6.7761716468059D-02
6  5.0000000000000D-02  1.4399501045199D-01 -8.4418907382246D-02
7  6.0000000000000D-02  1.7265722357227D-01 -1.0088893182252D-01
8  7.0000000000000D-02  2.0124483568818D-01 -1.1713600096353D-01
9  8.0000000000000D-02  2.2974542068603D-01 -1.3312520459280D-01
10  9.0000000000000D-02  2.5814655383104D-01 -1.4882264241099D-01
11  1.0000000000000D-01  2.8643581055327D-01 -1.6419554853228D-01
12  1.1000000000000D-01  3.1460076470523D-01 -1.7921240834431D-01
13  1.2000000000000D-01  3.4262898624750D-01 -1.9384306693805D-01
14  1.3000000000000D-01  3.7050803832598D-01 -2.0805882837414D-01
15  1.4000000000000D-01  3.9822547371257D-01 -2.2183254511362D-01
16  1.5000000000000D-01  4.2576883058982D-01 -2.3513869700699D-01
17  1.6000000000000D-01  4.5312562766941D-01 -2.4795345930611D-01
18  1.7000000000000D-01  4.8028335864378D-01 -2.6025475923757D-01
19  1.8000000000000D-01  5.0722948598058D-01 -2.7202232075421D-01
20  1.9000000000000D-01  5.3395143407991D-01 -2.8323769716234D-01
21  2.0000000000000D-01  5.6043658182483D-01 -2.9388429140563D-01
22  2.1000000000000D-01  5.8667225456664D-01 -3.0394736387231D-01
23  2.2000000000000D-01  6.1264571559696D-01 -3.1341402767907D-01
24  2.3000000000000D-01  6.3834415716982D-01 -3.2227323147366D-01
25  2.4000000000000D-01  6.6375469114739D-01 -3.3051572988629D-01
26  2.5000000000000D-01  6.8886433935370D-01 -3.3813404184869D-01
27  2.6000000000000D-01  7.1366002373088D-01 -3.4512239708736D-01
28  2.7000000000000D-01  7.3812855640228D-01 -3.5147667118455D-01
29  2.8000000000000D-01  7.6225662975638D-01 -3.5719430968486D-01
30  2.9000000000000D-01  7.8603080667420D-01 -3.6227424180861D-01
31  3.0000000000000D-01  8.0943751103098D-01 -3.6671678441227D-01
32  3.1000000000000D-01  8.3246301861094D-01 -3.7052353691314D-01
33  3.2000000000000D-01  8.5509344857990D-01 -3.7369726796737D-01
34  3.3000000000000D-01  8.7731475566722D-01 -3.7624179475897D-01
35  3.4000000000000D-01  8.9911272321262D-01 -3.7816185581994D-01
36  3.5000000000000D-01  9.2047295723807D-01 -3.7946297835979D-01
37  3.6000000000000D-01  9.4138088170712D-01 -3.8015134113437D-01
38  3.7000000000000D-01  9.6182173513602D-01 -3.8023363392943D-01
39  3.8000000000000D-01  9.8178056872143D-01 -3.7971691477329D-01
40  3.9000000000000D-01  1.0012422461486D+00 -3.7860846602520D-01
41  4.0000000000000D-01  1.0201914452419D+00 -3.7691565051000D-01
42  4.1000000000000D-01  1.0386126616162D+00 -3.7464576888742D-01
43  4.2000000000000D-01  1.0564902144829D+00 -3.7180591945310D-01
44  4.3000000000000D-01  1.0738082547578D+00 -3.6840286156971D-01
45  4.4000000000000D-01  1.0905507756121D+00 -3.6444288391968D-01
46  4.5000000000000D-01  1.1067016255962D+00 -3.5993167875588D-01
47  4.6000000000000D-01  1.1222445244593D+00 -3.5487422330293D-01
48  4.7000000000000D-01  1.1371630817727D+00 -3.4927466943019D-01
49  4.8000000000000D-01  1.1514408184549D+00 -3.4313624267740D-01
50  4.9000000000000D-01  1.1650611912803D+00 -3.3646115166551D-01
51  5.0000000000000D-01  1.1780076204393D+00 -3.2925050886974D-01
52  5.1000000000000D-01  1.1902635202001D+00 -3.2150426366736D-01
53  5.2000000000000D-01  1.2018123327057D+00 -3.1322114850130D-01
54  5.3000000000000D-01  1.2126375649208D+00 -3.0439863892314D-01
55  5.4000000000000D-01  1.2227228287232D+00 -2.9503292819195D-01
56  5.5000000000000D-01  1.2320518841133D+00 -2.8511891701520D-01
57  5.6000000000000D-01  1.2406086854976D+00 -2.7465021891971D-01
58  5.7000000000000D-01  1.2483774309741D+00 -2.6361918163737D-01
59  5.8000000000000D-01  1.2553426145325D+00 -2.5201692478267D-01
60  5.9000000000000D-01  1.2614890810517D+00 -2.3983339398712D-01
61  6.0000000000000D-01  1.2668020839623D+00 -2.2705743153967D-01
62  6.1000000000000D-01  1.2712673454100D+00 -2.1367686346352D-01
63  6.2000000000000D-01  1.2748711187416D+00 -1.9967860283951D-01
64  6.3000000000000D-01  1.2776002531037D+00 -1.8504876906319D-01
65  6.4000000000000D-01  1.2794422599300D+00 -1.6977282260065D-01
66  6.5000000000000D-01  1.2803853810636D+00 -1.5383571468442D-01
67  6.6000000000000D-01  1.2804186582447D+00 -1.3722205126995D-01
68  6.7000000000000D-01  1.2795320036712D+00 -1.1991627045205D-01
69  6.8000000000000D-01  1.2777162713183D+00 -1.0190283242364D-01
70  6.9000000000000D-01  1.2749633286902D+00 -8.3166420945118D-02
71  7.0000000000000D-01  1.2712661286521D+00 -6.3692155182059D-02
72  7.1000000000000D-01  1.2666187809819D+00 -4.3465810664597D-02
73  7.2000000000000D-01  1.2610166232619D+00 -2.2474048022729D-02
74  7.3000000000000D-01  1.2544562907208D+00 -7.0464805866980D-04
75  7.4000000000000D-01  1.2469357846247D+00  2.1853248366934D-02
76  7.5000000000000D-01  1.2384545388063D+00  4.5208897235656D-02
77  7.6000000000000D-01  1.2290134839167D+00  6.9369706727764D-02
78  7.7000000000000D-01  1.2186151089787D+00  9.4340992762319D-02
79  7.8000000000000D-01  1.2072635198175D+00  1.2012573649712D-01
80  7.9000000000000D-01  1.1949644939465D+00  1.4672434560395D-01
81  8.0000000000000D-01  1.1817255314881D+00  1.7413442116058D-01
82  8.1000000000000D-01  1.1675559017150D+00  2.0235053201775D-01
83  8.2000000000000D-01  1.1524666848037D+00  2.3136399850270D-01
84  8.3000000000000D-01  1.1364708084054D+00  2.6116268731251D-01
85  8.4000000000000D-01  1.1195830786493D+00  2.9173081943026D-01
86  8.5000000000000D-01  1.1018202052125D+00  3.2304879286344D-01
87  8.6000000000000D-01  1.0832008201057D+00  3.5509302195856D-01
88  8.7000000000000D-01  1.0637454898478D+00  3.8783579498721D-01
89  8.8000000000000D-01  1.0434767207240D+00  4.2124515162887D-01
90  8.9000000000000D-01  1.0224189568494D+00  4.5528478189068D-01
91  9.0000000000000D-01  1.0005985707879D+00  4.8991394791197D-01
92  9.1000000000000D-01  9.7804384650755D-01  5.2508742999130D-01
93  9.2000000000000D-01  9.5478495448473D-01  5.6075549805799D-01
94  9.3000000000000D-01  9.3085391880806D-01  5.9686390967918D-01
95  9.4000000000000D-01  9.0628457616561D-01  6.3335393555556D-01
96  9.5000000000000D-01  8.8111252664130D-01  6.7016241330858D-01
97  9.6000000000000D-01  8.5537507628441D-01  7.0722183020539D-01
98  9.7000000000000D-01  8.2911117145895D-01  7.4446043530127D-01
99  9.8000000000000D-01  8.0236132502179D-01  7.8180238130665D-01
100  9.9000000000000D-01  7.7516753442270D-01  8.1916789630681D-01
101  1.0000000000000D+00  7.4757319186413D-01  8.5647348527590D-01
102  1.0100000000000D+00  7.1962298670261D-01  8.9363216114294D-01
103  1.0200000000000D+00  6.9136280031992D-01  9.3055370497171D-01
104  1.0300000000000D+00  6.6283959373727D-01  9.6714495462345D-01
105  1.0400000000000D+00  6.3410128829025D-01  1.0033101210783D+00
106  1.0500000000000D+00  6.0519663972695D-01  1.0389511313978D+00
107  1.0600000000000D+00  5.7617510613670D-01  1.0739679971111D+00
108  1.0700000000000D+00  5.4708671015547D-01  1.1082592066363D+00
109  1.0800000000000D+00  5.1798189594019D-01  1.1417221401409D+00
110  1.0900000000000D+00  4.8891138144066D-01  1.1742535050794D+00
111  1.1000000000000D+00  4.5992600653626D-01  1.2057497904689D+00
112  1.1100000000000D+00  4.3107657764193D-01  1.2361077377918D+00
113  1.1200000000000D+00  4.0241370941583D-01  1.2652248262791D+00
114  1.1300000000000D+00  3.7398766423965D-01  1.2929997701506D+00
115  1.1400000000000D+00  3.4584819016390D-01  1.3193330252748D+00
116  1.1500000000000D+00  3.1804435803934D-01  1.3441273025748D+00
117  1.1600000000000D+00  2.9062439857199D-01  1.3672880854198D+00
118  1.1700000000000D+00  2.6363554006445D-01  1.3887241481100D+00
119  1.1800000000000D+00  2.3712384761529D-01  1.4083480725063D+00
120  1.1900000000000D+00  2.1113406455982D-01  1.4260767597897D+00
121  1.2000000000000D+00  1.8570945694378D-01  1.4418319342785D+00
122  1.2100000000000D+00  1.6089166182453D-01  1.4555406361958D+00
123  1.2200000000000D+00  1.3672054018856D-01  1.4671357002827D+00
124  1.2300000000000D+00  1.1323403527613D-01  1.4765562171350D+00
125  1.2400000000000D+00  9.0468037089177D-02  1.4837479741673D+00
126  1.2500000000000D+00  6.8456253840916D-02  1.4886638731730D+00
127  1.2600000000000D+00  4.7230091098568D-02  1.4912643214608D+00
128  1.2700000000000D+00  2.6818539342232D-02  1.4915175936462D+00
129  1.2800000000000D+00  7.2480706254555D-03  1.4894001613114D+00
130  1.2900000000000D+00 -1.1457454983704D-02  1.4848969877743D+00
131  1.3000000000000D+00 -2.9276872549363D-02  1.4780017853752D+00
132  1.3100000000000D+00 -4.6191784430341D-02  1.4687172329260D+00
133  1.3200000000000D+00 -6.2186620876989D-02  1.4570551509292D+00
134  1.3300000000000D+00 -7.7248688566475D-02  1.4430366325003D+00
135  1.3400000000000D+00 -9.1368206651678D-02  1.4266921282214D+00
136  1.3500000000000D+00 -1.0453832985054D-01  1.4080614829500D+00
137  1.3600000000000D+00 -1.1675515828425D-01  1.3871939233398D+00
138  1.3700000000000D+00 -1.2801773376185D-01  1.3641479947875D+00
139  1.3800000000000D+00 -1.3832802221982D-01  1.3389914465616D+00
140  1.3900000000000D+00 -1.4769088223645D-01  1.3118010647304D+00
141  1.4000000000000D+00 -1.5611401942450D-01  1.2826624520304D+00
142  1.4100000000000D+00 -1.6360792668428D-01  1.2516697545496D+00
143  1.4200000000000D+00 -1.7018581039205D-01  1.2189253354791D+00
144  1.4300000000000D+00 -1.7586350247196D-01  1.1845393956662D+00
145  1.4400000000000D+00 -1.8065935867002D-01  1.1486295422290D+00
146  1.4500000000000D+00 -1.8459414310458D-01  1.1113203054825D+00
147  1.4600000000000D+00 -1.8769089944317D-01  1.0727426055679D+00
148  1.4700000000000D+00 -1.8997480908372D-01  1.0330331702876D+00
149  1.4800000000000D+00 -1.9147303661891D-01  9.9233390524365D-01
150  1.4900000000000D+00 -1.9221456326794D-01  9.5079121904581D-01
151  1.5000000000000D+00 -1.9223000856141D-01  9.0855530471629D-01
152  1.5100000000000D+00 -1.9155144110207D-01  8.6577938062644D-01
153  1.5200000000000D+00 -1.9021217888354D-01  8.2261889289840D-01
154  1.5300000000000D+00 -1.8824657995012D-01  7.7923068244589D-01
155  1.5400000000000D+00 -1.8568982415444D-01  7.3577211970425D-01
156  1.5500000000000D+00 -1.8257768672919D-01  6.9240020995747D-01
157  1.5600000000000D+00 -1.7894630462174D-01  6.4927067289107D-01
158  1.5700000000000D+00 -1.7483193585315D-01  6.0653699569895D-01
159  1.5800000000000D+00 -1.7027071584547D-01  5.6434948833655D-01
160  1.5900000000000D+00 -1.6529840243199D-01  5.2285426661670D-01
161  1.6000000000000D+00 -1.5995014794663D-01  4.8219246903073D-01
162  1.6100000000000D+00 -1.5426018292160D-01  4.4249879314381D-01
163  1.6200000000000D+00 -1.4826157912750D-01  4.0390063704095D-01
164  1.6300000000000D+00 -1.4198618969255D-01  3.6651878977003D-01
165  1.6400000000000D+00 -1.3546456990737D-01  3.3046778019900D-01
166  1.6500000000000D+00 -1.2872600718968D-01  2.9585682413112D-01
167  1.6600000000000D+00 -1.2179847338743D-01  2.6279011588493D-01
168  1.6700000000000D+00 -1.1470842688226D-01  2.3136574430832D-01
169  1.6800000000000D+00 -1.0748068349378D-01  2.0167516268813D-01
170  1.6900000000000D+00 -1.0013830392779D-01  1.7380281246701D-01
171  1.7000000000000D+00 -9.2702468378724D-02  1.4782558020338D-01
172  1.7100000000000D+00 -8.5192364527363D-02  1.2381234486778D-01
173  1.7200000000000D+00 -7.7625078995049D-02  1.0182352129628D-01
174  1.7300000000000D+00 -7.0015495805560D-02  8.1910630616425D-02
175  1.7400000000000D+00 -6.2376201811223D-02  6.4115895859777D-02
176  1.7500000000000D+00 -5.4717399469187D-02  4.8471865173040D-02
177  1.7600000000000D+00 -4.7033286144231D-02  3.5005892270590D-02
178  1.7700000000000D+00 -3.9334411133509D-02  2.3728262357225D-02
179  1.7800000000000D+00 -3.1753217352629D-02  1.4598700538709D-02
180  1.7900000000000D+00 -2.4302045890150D-02  7.6095019936364D-03
181  1.8000000000000D+00 -1.6258222133659D-02  2.9456864009593D-03
182  1.8100000000000D+00 -7.3438717261545D-03  6.0681332908062D-04
183  1.8200000000000D+00 -5.1882006208880D-04 -1.6172752498502D-04
184  1.8300000000000D+00  1.4621769774207D-03 -2.1846986298068D-04
185  1.8400000000000D+00  4.8371127170369D-04 -4.8532363476118D-05
186  1.8500000000000D+00 -3.2269735175326D-04  5.6448458759150D-05
187  1.8600000000000D+00 -2.1905744797026D-04  3.5770551801762D-05
188  1.8700000000000D+00  3.3390931192113D-05 -9.5228463219500D-06
189  1.8800000000000D+00  4.0832620698099D-05 -1.1438679620250D-05
190  1.8900000000000D+00 -6.2156460823056D-08  2.0183678879674D-07
191  1.9000000000000D+00 -1.5850723126469D-07  5.1471062116296D-07
192  1.9100000000000D+00 -4.6732882724272D-09  1.5175276802090D-08
193  1.9200000000000D+00  0.0000000000000D+00  0.0000000000000D+00
194  1.9300000000000D+00  0.0000000000000D+00  0.0000000000000D+00
195  1.9400000000000D+00  0.0000000000000D+00  0.0000000000000D+00
196  1.9500000000000D+00  0.0000000000000D+00  0.0000000000000D+00
197  1.9600000000000D+00  0.0000000000000D+00  0.0000000000000D+00
198  1.9700000000000D+00  0.0000000000000D+00  0.0000000000000D+00
199  1.9800000000000D+00  0.0000000000000D+00  0.0000000000000D+00
200  1.9900000000000D+00  0.0000000000000D+00  0.0000000000000D+00
201  2.0000000000000D+00  0.0000000000000D+00  0.0000000000000D+00
202  2.0100000000000D+00  0.0000000000000D+00  0.0000000000000D+00
203  2.0200000000000D+00  0.0000000000000D+00  0.0000000000000D+00
204  2.0300000000000D+00  0.0000000000000D+00  0.0000000000000D+00
205  2.0400000000000D+00  0.0000000000000D+00  0.0000000000000D+00
206  2.0500000000000D+00  0.0000000000000D+00  0.0000000000000D+00
207  2.0600000000000D+00  0.0000000000000D+00  0.0000000000000D+00
208  2.0700000000000D+00  0.0000000000000D+00  0.0000000000000D+00
209  2.0800000000000D+00  0.0000000000000D+00  0.0000000000000D+00
210  2.0900000000000D+00  0.0000000000000D+00  0.0000000000000D+00
211  2.1000000000000D+00  0.0000000000000D+00  0.0000000000000D+00
212  2.1100000000000D+00  0.0000000000000D+00  0.0000000000000D+00
213  2.1200000000000D+00  0.0000000000000D+00  0.0000000000000D+00
214  2.1300000000000D+00  0.0000000000000D+00  0.0000000000000D+00
215  2.1400000000000D+00  0.0000000000000D+00  0.0000000000000D+00
216  2.1500000000000D+00  0.0000000000000D+00  0.0000000000000D+00
217  2.1600000000000D+00  0.0000000000000D+00  0.0000000000000D+00
218  2.1700000000000D+00  0.0000000000000D+00  0.0000000000000D+00
219  2.1800000000000D+00  0.0000000000000D+00  0.0000000000000D+00
220  2.1900000000000D+00  0.0000000000000D+00  0.0000000000000D+00
221  2.2000000000000D+00  0.0000000000000D+00  0.0000000000000D+00
222  2.2100000000000D+00  0.0000000000000D+00  0.0000000000000D+00
223  2.2200000000000D+00  0.0000000000000D+00  0.0000000000000D+00
224  2.2300000000000D+00  0.0000000000000D+00  0.0000000000000D+00
225  2.2400000000000D+00  0.0000000000000D+00  0.0000000000000D+00
226  2.2500000000000D+00  0.0000000000000D+00  0.0000000000000D+00
227  2.2600000000000D+00  0.0000000000000D+00  0.0000000000000D+00
228  2.2700000000000D+00  0.0000000000000D+00  0.0000000000000D+00
229  2.2800000000000D+00  0.0000000000000D+00  0.0000000000000D+00
230  2.2900000000000D+00  0.0000000000000D+00  0.0000000000000D+00
231  2.3000000000000D+00  0.0000000000000D+00  0.0000000000000D+00
232  2.3100000000000D+00  0.0000000000000D+00  0.0000000000000D+00
233  2.3200000000000D+00  0.0000000000000D+00  0.0000000000000D+00
234  2.3300000000000D+00  0.0000000000000D+00  0.0000000000000D+00
235  2.3400000000000D+00  0.0000000000000D+00  0.0000000000000D+00
236  2.3500000000000D+00  0.0000000000000D+00  0.0000000000000D+00
237  2.3600000000000D+00  0.0000000000000D+00  0.0000000000000D+00
238  2.3700000000000D+00  0.0000000000000D+00  0.0000000000000D+00
239  2.3800000000000D+00  0.0000000000000D+00  0.0000000000000D+00
240  2.3900000000000D+00  0.0000000000000D+00  0.0000000000000D+00
241  2.4000000000000D+00  0.0000000000000D+00  0.0000000000000D+00
242  2.4100000000000D+00  0.0000000000000D+00  0.0000000000000D+00
243  2.4200000000000D+00  0.0000000000000D+00  0.0000000000000D+00
244  2.4300000000000D+00  0.0000000000000D+00  0.0000000000000D+00
245  2.4400000000000D+00  0.0000000000000D+00  0.0000000000000D+00
246  2.4500000000000D+00  0.0000000000000D+00  0.0000000000000D+00
247  2.4600000000000D+00  0.0000000000000D+00  0.0000000000000D+00
248  2.4700000000000D+00  0.0000000000000D+00  0.0000000000000D+00
249  2.4800000000000D+00  0.0000000000000D+00  0.0000000000000D+00
250  2.4900000000000D+00  0.0000000000000D+00  0.0000000000000D+00
251  2.5000000000000D+00  0.0000000000000D+00  0.0000000000000D+00
252  2.5100000000000D+00  0.0000000000000D+00  0.0000000000000D+00
253  2.5200000000000D+00  0.0000000000000D+00  0.0000000000000D+00
254  2.5300000000000D+00  0.0000000000000D+00  0.0000000000000D+00
255  2.5400000000000D+00  0.0000000000000D+00  0.0000000000000D+00
256  2.5500000000000D+00  0.0000000000000D+00  0.0000000000000D+00
257  2.5600000000000D+00  0.0000000000000D+00  0.0000000000000D+00
258  2.5700000000000D+00  0.0000000000000D+00  0.0000000000000D+00
259  2.5800000000000D+00  0.0000000000000D+00  0.0000000000000D+00
260  2.5900000000000D+00  0.0000000000000D+00  0.0000000000000D+00
261  2.6000000000000D+00  0.0000000000000D+00  0.0000000000000D+00
262  2.6100000000000D+00  0.0000000000000D+00  0.0000000000000D+00
263  2.6200000000000D+00  0.0000000000000D+00  0.0000000000000D+00
264  2.6300000000000D+00  0.0000000000000D+00  0.0000000000000D+00
265  2.6400000000000D+00  0.0000000000000D+00  0.0000000000000D+00
266  2.6500000000000D+00  0.0000000000000D+00  0.0000000000000D+00
267  2.6600000000000D+00  0.0000000000000D+00  0.0000000000000D+00
268  2.6700000000000D+00  0.0000000000000D+00  0.0000000000000D+00
269  2.6800000000000D+00  0.0000000000000D+00  0.0000000000000D+00
270  2.6900000000000D+00  0.0000000000000D+00  0.0000000000000D+00
271  2.7000000000000D+00  0.0000000000000D+00  0.0000000000000D+00
272  2.7100000000000D+00  0.0000000000000D+00  0.0000000000000D+00
273  2.7200000000000D+00  0.0000000000000D+00  0.0000000000000D+00
274  2.7300000000000D+00  0.0000000000000D+00  0.0000000000000D+00
275  2.7400000000000D+00  0.0000000000000D+00  0.0000000000000D+00
276  2.7500000000000D+00  0.0000000000000D+00  0.0000000000000D+00
277  2.7600000000000D+00  0.0000000000000D+00  0.0000000000000D+00
278  2.7700000000000D+00  0.0000000000000D+00  0.0000000000000D+00
279  2.7800000000000D+00  0.0000000000000D+00  0.0000000000000D+00
280  2.7900000000000D+00  0.0000000000000D+00  0.0000000000000D+00
281  2.8000000000000D+00  0.0000000000000D+00  0.0000000000000D+00
282  2.8100000000000D+00  0.0000000000000D+00  0.0000000000000D+00
283  2.8200000000000D+00  0.0000000000000D+00  0.0000000000000D+00
284  2.8300000000000D+00  0.0000000000000D+00  0.0000000000000D+00
285  2.8400000000000D+00  0.0000000000000D+00  0.0000000000000D+00
286  2.8500000000000D+00  0.0000000000000D+00  0.0000000000000D+00
287  2.8600000000000D+00  0.0000000000000D+00  0.0000000000000D+00
288  2.8700000000000D+00  0.0000000000000D+00  0.0000000000000D+00
289  2.8800000000000D+00  0.0000000000000D+00  0.0000000000000D+00
290  2.8900000000000D+00  0.0000000000000D+00  0.0000000000000D+00
291  2.9000000000000D+00  0.0000000000000D+00  0.0000000000000D+00
292  2.9100000000000D+00  0.0000000000000D+00  0.0000000000000D+00
293  2.9200000000000D+00  0.0000000000000D+00  0.0000000000000D+00
294  2.9300000000000D+00  0.0000000000000D+00  0.0000000000000D+00
295  2.9400000000000D+00  0.0000000000000D+00  0.0000000000000D+00
296  2.9500000000000D+00  0.0000000000000D+00  0.0000000000000D+00
297  2.9600000000000D+00  0.0000000000000D+00  0.0000000000000D+00
298  2.9700000000000D+00  0.0000000000000D+00  0.0000000000000D+00
299  2.9800000000000D+00  0.0000000000000D+00  0.0000000000000D+00
300  2.9900000000000D+00  0.0000000000000D+00  0.0000000000000D+00
301  3.0000000000000D+00  0.0000000000000D+00  0.0000000000000D+00
302  3.0100000000000D+00  0.0000000000000D+00  0.0000000000000D+00
303  3.0200000000000D+00  0.0000000000000D+00  0.0000000000000D+00
304  3.0300000000000D+00  0.0000000000000D+00  0.0000000000000D+00
305  3.0400000000000D+00  0.0000000000000D+00  0.0000000000000D+00
306  3.0500000000000D+00  0.0000000000000D+00  0.0000000000000D+00
307  3.0600000000000D+00  0.0000000000000D+00  0.0000000000000D+00
308  3.0700000000000D+00  0.0000000000000D+00  0.0000000000000D+00
309  3.0800000000000D+00  0.0000000000000D+00  0.0000000000000D+00
310  3.0900000000000D+00  0.0000000000000D+00  0.0000000000000D+00
311  3.1000000000000D+00  0.0000000000000D+00  0.0000000000000D+00
312  3.1100000000000D+00  0.0000000000000D+00  0.0000000000000D+00
313  3.1200000000000D+00  0.0000000000000D+00  0.0000000000000D+00
314  3.1300000000000D+00  0.0000000000000D+00  0.0000000000000D+00
315  3.1400000000000D+00  0.0000000000000D+00  0.0000000000000D+00
316  3.1500000000000D+00  0.0000000000000D+00  0.0000000000000D+00
317  3.1600000000000D+00  0.0000000000000D+00  0.0000000000000D+00
318  3.1700000000000D+00  0.0000000000000D+00  0.0000000000000D+00
319  3.1800000000000D+00  0.0000000000000D+00  0.0000000000000D+00
320  3.1900000000000D+00  0.0000000000000D+00  0.0000000000000D+00
321  3.2000000000000D+00  0.0000000000000D+00  0.0000000000000D+00
322  3.2100000000000D+00  0.0000000000000D+00  0.0000000000000D+00
323  3.2200000000000D+00  0.0000000000000D+00  0.0000000000000D+00
324  3.2300000000000D+00  0.0000000000000D+00  0.0000000000000D+00
325  3.2400000000000D+00  0.0000000000000D+00  0.0000000000000D+00
326  3.2500000000000D+00  0.0000000000000D+00  0.0000000000000D+00
327  3.2600000000000D+00  0.0000000000000D+00  0.0000000000000D+00
328  3.2700000000000D+00  0.0000000000000D+00  0.0000000000000D+00
329  3.2800000000000D+00  0.0000000000000D+00  0.0000000000000D+00
330  3.2900000000000D+00  0.0000000000000D+00  0.0000000000000D+00
331  3.3000000000000D+00  0.0000000000000D+00  0.0000000000000D+00
332  3.3100000000000D+00  0.0000000000000D+00  0.0000000000000D+00
333  3.3200000000000D+00  0.0000000000000D+00  0.0000000000000D+00
334  3.3300000000000D+00  0.0000000000000D+00  0.0000000000000D+00
335  3.3400000000000D+00  0.0000000000000D+00  0.0000000000000D+00
336  3.3500000000000D+00  0.0000000000000D+00  0.0000000000000D+00
337  3.3600000000000D+00  0.0000000000000D+00  0.0000000000000D+00
338  3.3700000000000D+00  0.0000000000000D+00  0.0000000000000D+00
339  3.3800000000000D+00  0.0000000000000D+00  0.0000000000000D+00
340  3.3900000000000D+00  0.0000000000000D+00  0.0000000000000D+00
341  3.4000000000000D+00  0.0000000000000D+00  0.0000000000000D+00
342  3.4100000000000D+00  0.0000000000000D+00  0.0000000000000D+00
343  3.4200000000000D+00  0.0000000000000D+00  0.0000000000000D+00
344  3.4300000000000D+00  0.0000000000000D+00  0.0000000000000D+00
345  3.4400000000000D+00  0.0000000000000D+00  0.0000000000000D+00
346  3.4500000000000D+00  0.0000000000000D+00  0.0000000000000D+00
347  3.4600000000000D+00  0.0000000000000D+00  0.0000000000000D+00
348  3.4700000000000D+00  0.0000000000000D+00  0.0000000000000D+00
349  3.4800000000000D+00  0.0000000000000D+00  0.0000000000000D+00
350  3.4900000000000D+00  0.0000000000000D+00  0.0000000000000D+00
351  3.5000000000000D+00  0.0000000000000D+00  0.0000000000000D+00
352  3.5100000000000D+00  0.0000000000000D+00  0.0000000000000D+00
353  3.5200000000000D+00  0.0000000000000D+00  0.0000000000000D+00
354  3.5300000000000D+00  0.0000000000000D+00  0.0000000000000D+00
355  3.5400000000000D+00  0.0000000000000D+00  0.0000000000000D+00
356  3.5500000000000D+00  0.0000000000000D+00  0.0000000000000D+00
357  3.5600000000000D+00  0.0000000000000D+00  0.0000000000000D+00
358  3.5700000000000D+00  0.0000000000000D+00  0.0000000000000D+00
359  3.5800000000000D+00  0.0000000000000D+00  0.0000000000000D+00
360  3.5900000000000D+00  0.0000000000000D+00  0.0000000000000D+00
361  3.6000000000000D+00  0.0000000000000D+00  0.0000000000000D+00
362  3.6100000000000D+00  0.0000000000000D+00  0.0000000000000D+00
363  3.6200000000000D+00  0.0000000000000D+00  0.0000000000000D+00
364  3.6300000000000D+00  0.0000000000000D+00  0.0000000000000D+00
365  3.6400000000000D+00  0.0000000000000D+00  0.0000000000000D+00
366  3.6500000000000D+00  0.0000000000000D+00  0.0000000000000D+00
367  3.6600000000000D+00  0.0000000000000D+00  0.0000000000000D+00
368  3.6700000000000D+00  0.0000000000000D+00  0.0000000000000D+00
369  3.6800000000000D+00  0.0000000000000D+00  0.0000000000000D+00
370  3.6900000000000D+00  0.0000000000000D+00  0.0000000000000D+00
371  3.7000000000000D+00  0.0000000000000D+00  0.0000000000000D+00
372  3.7100000000000D+00  0.0000000000000D+00  0.0000000000000D+00
373  3.7200000000000D+00  0.0000000000000D+00  0.0000000000000D+00
374  3.7300000000000D+00  0.0000000000000D+00  0.0000000000000D+00
375  3.7400000000000D+00  0.0000000000000D+00  0.0000000000000D+00
376  3.7500000000000D+00  0.0000000000000D+00  0.0000000000000D+00
377  3.7600000000000D+00  0.0000000000000D+00  0.0000000000000D+00
378  3.7700000000000D+00  0.0000000000000D+00  0.0000000000000D+00
379  3.7800000000000D+00  0.0000000000000D+00  0.0000000000000D+00
380  3.7900000000000D+00  0.0000000000000D+00  0.0000000000000D+00
381  3.8000000000000D+00  0.0000000000000D+00  0.0000000000000D+00
382  3.8100000000000D+00  0.0000000000000D+00  0.0000000000000D+00
383  3.8200000000000D+00  0.0000000000000D+00  0.0000000000000D+00
384  3.8300000000000D+00  0.0000000000000D+00  0.0000000000000D+00
385  3.8400000000000D+00  0.0000000000000D+00  0.0000000000000D+00
386  3.8500000000000D+00  0.0000000000000D+00  0.0000000000000D+00
387  3.8600000000000D+00  0.0000000000000D+00  0.0000000000000D+00
388  3.8700000000000D+00  0.0000000000000D+00  0.0000000000000D+00
389  3.8800000000000D+00  0.0000000000000D+00  0.0000000000000D+00
390  3.8900000000000D+00  0.0000000000000D+00  0.0000000000000D+00
391  3.9000000000000D+00  0.0000000000000D+00  0.0000000000000D+00
392  3.9100000000000D+00  0.0000000000000D+00  0.0000000000000D+00
393  3.9200000000000D+00  0.0000000000000D+00  0.0000000000000D+00
394  3.9300000000000D+00  0.0000000000000D+00  0.0000000000000D+00
395  3.9400000000000D+00  0.0000000000000D+00  0.0000000000000D+00
396  3.9500000000000D+00  0.0000000000000D+00  0.0000000000000D+00
397  3.9600000000000D+00  0.0000000000000D+00  0.0000000000000D+00
398  3.9700000000000D+00  0.0000000000000D+00  0.0000000000000D+00
399  3.9800000000000D+00  0.0000000000000D+00  0.0000000000000D+00
400  3.9900000000000D+00  0.0000000000000D+00  0.0000000000000D+00
401  4.0000000000000D+00  0.0000000000000D+00  0.0000000000000D+00
402  4.0100000000000D+00  0.0000000000000D+00  0.0000000000000D+00
403  4.0200000000000D+00  0.0000000000000D+00  0.0000000000000D+00
404  4.0300000000000D+00  0.0000000000000D+00  0.0000000000000D+00
405  4.0400000000000D+00  0.0000000000000D+00  0.0000000000000D+00
406  4.0500000000000D+00  0.0000000000000D+00  0.0000000000000D+00
407  4.0600000000000D+00  0.0000000000000D+00  0.0000000000000D+00
408  4.0700000000000D+00  0.0000000000000D+00  0.0000000000000D+00
409  4.0800000000000D+00  0.0000000000000D+00  0.0000000000000D+00
410  4.0900000000000D+00  0.0000000000000D+00  0.0000000000000D+00
411  4.1000000000000D+00  0.0000000000000D+00  0.0000000000000D+00
412  4.1100000000000D+00  0.0000000000000D+00  0.0000000000000D+00
413  4.1200000000000D+00  0.0000000000000D+00  0.0000000000000D+00
414  4.1300000000000D+00  0.0000000000000D+00  0.0000000000000D+00
415  4.1400000000000D+00  0.0000000000000D+00  0.0000000000000D+00
416  4.1500000000000D+00  0.0000000000000D+00  0.0000000000000D+00
417  4.1600000000000D+00  0.0000000000000D+00  0.0000000000000D+00
418  4.1700000000000D+00  0.0000000000000D+00  0.0000000000000D+00
419  4.1800000000000D+00  0.0000000000000D+00  0.0000000000000D+00
420  4.1900000000000D+00  0.0000000000000D+00  0.0000000000000D+00
421  4.2000000000000D+00  0.0000000000000D+00  0.0000000000000D+00
422  4.2100000000000D+00  0.0000000000000D+00  0.0000000000000D+00
423  4.2200000000000D+00  0.0000000000000D+00  0.0000000000000D+00
424  4.2300000000000D+00  0.0000000000000D+00  0.0000000000000D+00
425  4.2400000000000D+00  0.0000000000000D+00  0.0000000000000D+00
426  4.2500000000000D+00  0.0000000000000D+00  0.0000000000000D+00
427  4.2600000000000D+00  0.0000000000000D+00  0.0000000000000D+00
428  4.2700000000000D+00  0.0000000000000D+00  0.0000000000000D+00
429  4.2800000000000D+00  0.0000000000000D+00  0.0000000000000D+00
430  4.2900000000000D+00  0.0000000000000D+00  0.0000000000000D+00
431  4.3000000000000D+00  0.0000000000000D+00  0.0000000000000D+00
432  4.3100000000000D+00  0.0000000000000D+00  0.0000000000000D+00
433  4.3200000000000D+00  0.0000000000000D+00  0.0000000000000D+00
434  4.3300000000000D+00  0.0000000000000D+00  0.0000000000000D+00
435  4.3400000000000D+00  0.0000000000000D+00  0.0000000000000D+00
436  4.3500000000000D+00  0.0000000000000D+00  0.0000000000000D+00
437  4.3600000000000D+00  0.0000000000000D+00  0.0000000000000D+00
438  4.3700000000000D+00  0.0000000000000D+00  0.0000000000000D+00
439  4.3800000000000D+00  0.0000000000000D+00  0.0000000000000D+00
440  4.3900000000000D+00  0.0000000000000D+00  0.0000000000000D+00
441  4.4000000000000D+00  0.0000000000000D+00  0.0000000000000D+00
442  4.4100000000000D+00  0.0000000000000D+00  0.0000000000000D+00
443  4.4200000000000D+00  0.0000000000000D+00  0.0000000000000D+00
444  4.4300000000000D+00  0.0000000000000D+00  0.0000000000000D+00