Pt    ONCVPSP-3.2.3  r_core=   1.40600   1.45722   1.40600   1.20403
78.0000     32.0000      161007    zatom,zion,pspd
8   -1012   3     4   500     0    pspcod,pspxc,lmax,lloc,mmax,r2well
4.99000000  5.00000000  0.00000000    rchrg fchrg qchrg
2     2     2     1     0    nproj
1     1           extension_switch
0                         1.5996313719118D+01  1.7737452495064D+00
1  0.0000000000000D+00 -5.1929160971298D-10  2.6046745316144D-10
2  1.0000000000000D-02  7.2288262631770D-02 -2.1224187160815D-02
3  2.0000000000000D-02  1.4443605712138D-01 -4.2382879102858D-02
4  3.0000000000000D-02  2.1630324860367D-01 -6.3410357684877D-02
5  4.0000000000000D-02  2.8775036299107D-01 -8.4240447286290D-02
6  5.0000000000000D-02  3.5863890506541D-01 -1.0480627019518D-01
7  6.0000000000000D-02  4.2883166440892D-01 -1.2503999678934D-01
8  7.0000000000000D-02  4.9819300693178D-01 -1.4487259570166D-01
9  8.0000000000000D-02  5.6658915027311D-01 -1.6423358942173D-01
10  9.0000000000000D-02  6.3388842187823D-01 -1.8305082100487D-01
11  1.0000000000000D-01  6.9996149907958D-01 -2.0125023772862D-01
12  1.1000000000000D-01  7.6468163102046D-01 -2.1875569764515D-01
13  1.2000000000000D-01  8.2792484275271D-01 -2.3548880501961D-01
14  1.3000000000000D-01  8.8957012230279D-01 -2.5136878061058D-01
15  1.4000000000000D-01  9.4949959192765D-01 -2.6631237263677D-01
16  1.5000000000000D-01  1.0075986651664D+00 -2.8023381407724D-01
17  1.6000000000000D-01  1.0637561916293D+00 -2.9304483167046D-01
18  1.7000000000000D-01  1.1178645917475D+00 -3.0465471160741D-01
19  1.8000000000000D-01  1.1698199839317D+00 -3.1497042645694D-01
20  1.9000000000000D-01  1.2195223067486D+00 -3.2389682731835D-01
21  2.0000000000000D-01  1.2668754388263D+00 -3.3133690457025D-01
22  2.1000000000000D-01  1.3117873192310D+00 -3.3719211987877D-01
23  2.2000000000000D-01  1.3541700710294D+00 -3.4136281134982D-01
24  2.3000000000000D-01  1.3939401306532D+00 -3.4374867286277D-01
25  2.4000000000000D-01  1.4310183855252D+00 -3.4424930771702D-01
26  2.5000000000000D-01  1.4653303221865D+00 -3.4276485576561D-01
27  2.6000000000000D-01  1.4968061868873D+00 -3.3919669221078D-01
28  2.7000000000000D-01  1.5253811602747D+00 -3.3344819520717D-01
29  2.8000000000000D-01  1.5509955474321D+00 -3.2542557836871D-01
30  2.9000000000000D-01  1.5735949841045D+00 -3.1503878321849D-01
31  3.0000000000000D-01  1.5931306594870D+00 -3.0220242556898D-01
32  3.1000000000000D-01  1.6095595554667D+00 -2.8683678878640D-01
33  3.2000000000000D-01  1.6228447017031D+00 -2.6886885589015D-01
34  3.3000000000000D-01  1.6329554454059D+00 -2.4823337148100D-01
35  3.4000000000000D-01  1.6398677341442D+00 -2.2487392359225D-01
36  3.5000000000000D-01  1.6435644094955D+00 -1.9874403473098D-01
37  3.6000000000000D-01  1.6440355088262D+00 -1.6980825063368D-01
38  3.7000000000000D-01  1.6412785720042D+00 -1.3804321461631D-01
39  3.8000000000000D-01  1.6352989493724D+00 -1.0343871486309D-01
40  3.9000000000000D-01  1.6261101068863D+00 -6.5998691585023D-02
41  4.0000000000000D-01  1.6137339239266D+00 -2.5742190696069D-02
42  4.1000000000000D-01  1.5982009789653D+00  1.7295749486796D-02
43  4.2000000000000D-01  1.5795508179849D+00  6.3063292006452D-02
44  4.3000000000000D-01  1.5578322003369D+00  1.1149108881577D-01
45  4.4000000000000D-01  1.5331033165825D+00  1.6249167511694D-01
46  4.5000000000000D-01  1.5054319727896D+00  2.1595898300484D-01
47  4.6000000000000D-01  1.4748957357695D+00  2.7176798627709D-01
48  4.7000000000000D-01  1.4415820338274D+00  3.2977448745643D-01
49  4.8000000000000D-01  1.4055882077735D+00  3.8981505709014D-01
50  4.9000000000000D-01  1.3670215071993D+00  4.5170713425290D-01
51  5.0000000000000D-01  1.3259990273624D+00  5.1524929588789D-01
52  5.1000000000000D-01  1.2826475824449D+00  5.8022170118669D-01
53  5.2000000000000D-01  1.2371035114503D+00  6.4638671564093D-01
54  5.3000000000000D-01  1.1895124135778D+00  7.1348971770965D-01
55  5.4000000000000D-01  1.1400288105561D+00  7.8126008925517D-01
56  5.5000000000000D-01  1.0888157341280D+00  8.4941238901494D-01
57  5.6000000000000D-01  1.0360442376388D+00  9.1764770642612D-01
58  5.7000000000000D-01  9.8189283149328D-01  9.8565519111526D-01
59  5.8000000000000D-01  9.2654684309651D-01  1.0531137513320D+00
60  5.9000000000000D-01  8.7019770277347D-01  1.1196939125680D+00
61  6.0000000000000D-01  8.1304215805926D-01  1.1850598255795D+00
62  6.1000000000000D-01  7.5528141965810D-01  1.2488714110506D+00
63  6.2000000000000D-01  6.9712024326855D-01  1.3107866262226D+00
64  6.3000000000000D-01  6.3876595236085D-01  1.3704638369883D+00
65  6.4000000000000D-01  5.8042740784474D-01  1.4275642772483D+00
66  6.5000000000000D-01  5.2231393138847D-01  1.4817545757532D+00
67  6.6000000000000D-01  4.6463418991400D-01  1.5327093292576D+00
68  6.7000000000000D-01  4.0759504949534D-01  1.5801136995919D+00
69  6.8000000000000D-01  3.5140040752095D-01  1.6236660112458D+00
70  6.9000000000000D-01  2.9625001252525D-01  1.6630803252703D+00
71  7.0000000000000D-01  2.4233828154951D-01  1.6980889647610D+00
72  7.1000000000000D-01  1.8985312524555D-01  1.7284449668922D+00
73  7.2000000000000D-01  1.3897479118235D-01  1.7539244364482D+00
74  7.3000000000000D-01  8.9874735946636D-02  1.7743287760463D+00
75  7.4000000000000D-01  4.2714536643484D-02  1.7894867687775D+00
76  7.5000000000000D-01 -2.3551477042313D-03  1.7992564897963D+00
77  7.6000000000000D-01 -4.5195554586133D-02  1.8035270244781D+00
78  7.7000000000000D-01 -8.5680726345243D-02  1.8022199721263D+00
79  7.8000000000000D-01 -1.2369833897960D-01  1.7952907158268D+00
80  7.9000000000000D-01 -1.5915044254181D-01  1.7827294409236D+00
81  8.0000000000000D-01 -1.9195410497147D-01  1.7645618866879D+00
82  8.1000000000000D-01 -2.2204195199732D-01  1.7408498180712D+00
83  8.2000000000000D-01 -2.4936259664331D-01  1.7116912069323D+00
84  8.3000000000000D-01 -2.7388095285638D-01  1.6772201147932D+00
85  8.4000000000000D-01 -2.9557842883106D-01  1.6376062719693D+00
86  8.5000000000000D-01 -3.1445299672631D-01  1.5930543508145D+00
87  8.6000000000000D-01 -3.3051913663723D-01  1.5438029337730D+00
88  8.7000000000000D-01 -3.4380765388657D-01  1.4901231799139D+00
89  8.8000000000000D-01 -3.5436536992098D-01  1.4323171965964D+00
90  8.9000000000000D-01 -3.6225468831969D-01  1.3707161258332D+00
91  9.0000000000000D-01 -3.6755303863290D-01  1.3056779577578D+00
92  9.1000000000000D-01 -3.7035220194666D-01  1.2375850863064D+00
93  9.2000000000000D-01 -3.7075752320515D-01  1.1668416247708D+00
94  9.3000000000000D-01 -3.6888701639369D-01  1.0938705012227D+00
95  9.4000000000000D-01 -3.6487036968158D-01  1.0191103559176D+00
96  9.5000000000000D-01 -3.5884785852928D-01  9.4301226462930D-01
97  9.6000000000000D-01 -3.5096917556500D-01  8.6603631341205D-01
98  9.7000000000000D-01 -3.4139218672093D-01  7.8864805151261D-01
99  9.8000000000000D-01 -3.3028162368036D-01  7.1131485003433D-01
100  9.9000000000000D-01 -3.1780772310095D-01  6.3450219447352D-01
101  1.0000000000000D+00 -3.0414482337497D-01  5.5866993940774D-01
102  1.0100000000000D+00 -2.8946992980884D-01  4.8426855336884D-01
103  1.0200000000000D+00 -2.7396125909185D-01  4.1173538132267D-01
104  1.0300000000000D+00 -2.5779677375712D-01  3.4149095118577D-01
105  1.0400000000000D+00 -2.4115271700829D-01  2.7393534940290D-01
106  1.0500000000000D+00 -2.2420215783000D-01  2.0944468891873D-01
107  1.0600000000000D+00 -2.0711355570558D-01  1.4836769083364D-01
108  1.0700000000000D+00 -1.9004935348988D-01  9.1022398542372D-02
109  1.0800000000000D+00 -1.7316460615743D-01  3.7693040594067D-02
110  1.0900000000000D+00 -1.5660565211865D-01 -1.1372944566143D-02
111  1.1000000000000D+00 -1.4050883278433D-01 -5.5967711773239D-02
112  1.1100000000000D+00 -1.2499926488547D-01 -9.5925633406290D-02
113  1.1200000000000D+00 -1.1018966876753D-01 -1.3112574152184D-01
114  1.1300000000000D+00 -9.6179254654735D-02 -1.6149398801923D-01
115  1.1400000000000D+00 -8.3052667519677D-02 -1.8700532670078D-01
116  1.1500000000000D+00 -7.0878990050494D-02 -2.0768562417846D-01
117  1.1600000000000D+00 -5.9710801595403D-02 -2.2361341084358D-01
118  1.1700000000000D+00 -4.9583284375634D-02 -2.3492150604857D-01
119  1.1800000000000D+00 -4.0513380041123D-02 -2.4179850358716D-01
120  1.1900000000000D+00 -3.2499099485517D-02 -2.4448976534219D-01
121  1.2000000000000D+00 -2.5518602219527D-02 -2.4329925160222D-01
122  1.2100000000000D+00 -1.9529070270636D-02 -2.3859222872521D-01
123  1.2200000000000D+00 -1.4471476807566D-02 -2.3077632304496D-01
124  1.2300000000000D+00 -1.0276407163414D-02 -2.2027995252531D-01
125  1.2400000000000D+00 -6.8698174663811D-03 -2.0753201948951D-01
126  1.2500000000000D+00 -4.1736430919075D-03 -1.9296096040522D-01
127  1.2600000000000D+00 -2.1073156332465D-03 -1.7699047732711D-01
128  1.2700000000000D+00 -5.8924126880078D-04 -1.6003540381954D-01
129  1.2800000000000D+00  4.6176830995472D-04 -1.4249777608962D-01
130  1.2900000000000D+00  1.1251205522914D-03 -1.2476309973727D-01
131  1.3000000000000D+00  1.4771122275258D-03 -1.0719675967415D-01
132  1.3100000000000D+00  1.5896650436299D-03 -9.0140630311312D-02
133  1.3200000000000D+00  1.5291391901005D-03 -7.3909916216865D-02
134  1.3300000000000D+00  1.3552357305540D-03 -5.8790249574606D-02
135  1.3400000000000D+00  1.1199994138753D-03 -4.5035072358834D-02
136  1.3500000000000D+00  8.6693106034558D-04 -3.2863325123463D-02
137  1.3600000000000D+00  6.3040241880189D-04 -2.2461427309253D-02
138  1.3700000000000D+00  4.3427962075263D-04 -1.3965925886477D-02
139  1.3800000000000D+00  2.8910439560738D-04 -7.4376427368776D-03
140  1.3900000000000D+00  2.0940600205719D-04 -3.0958256182046D-03
141  1.4000000000000D+00  1.8884534431617D-04 -9.6085918824390D-04
142  1.4100000000000D+00  1.3057287272844D-04 -1.9677091480798D-04
143  1.4200000000000D+00  2.4572493816699D-05 -9.1452636327735D-06
144  1.4300000000000D+00 -1.7190458921268D-05 -1.3582952322303D-06
145  1.4400000000000D+00  5.3994154376776D-08 -2.9597608223986D-08
146  1.4500000000000D+00  3.5984941230120D-06 -1.3328757370330D-06
147  1.4600000000000D+00 -2.5499957310988D-07  6.2442094608798D-07
148  1.4700000000000D+00 -3.3765400424381D-07  8.2681798329701D-07
149  1.4800000000000D+00  0.0000000000000D+00  0.0000000000000D+00
150  1.4900000000000D+00  0.0000000000000D+00  0.0000000000000D+00
151  1.5000000000000D+00  0.0000000000000D+00  0.0000000000000D+00
152  1.5100000000000D+00  0.0000000000000D+00  0.0000000000000D+00
153  1.5200000000000D+00  0.0000000000000D+00  0.0000000000000D+00
154  1.5300000000000D+00  0.0000000000000D+00  0.0000000000000D+00
155  1.5400000000000D+00  0.0000000000000D+00  0.0000000000000D+00
156  1.5500000000000D+00  0.0000000000000D+00  0.0000000000000D+00
157  1.5600000000000D+00  0.0000000000000D+00  0.0000000000000D+00
158  1.5700000000000D+00  0.0000000000000D+00  0.0000000000000D+00
159  1.5800000000000D+00  0.0000000000000D+00  0.0000000000000D+00
160  1.5900000000000D+00  0.0000000000000D+00  0.0000000000000D+00
161  1.6000000000000D+00  0.0000000000000D+00  0.0000000000000D+00
162  1.6100000000000D+00  0.0000000000000D+00  0.0000000000000D+00
163  1.6200000000000D+00  0.0000000000000D+00  0.0000000000000D+00
164  1.6300000000000D+00  0.0000000000000D+00  0.0000000000000D+00
165  1.6400000000000D+00  0.0000000000000D+00  0.0000000000000D+00
166  1.6500000000000D+00  0.0000000000000D+00  0.0000000000000D+00
167  1.6600000000000D+00  0.0000000000000D+00  0.0000000000000D+00
168  1.6700000000000D+00  0.0000000000000D+00  0.0000000000000D+00
169  1.6800000000000D+00  0.0000000000000D+00  0.0000000000000D+00
170  1.6900000000000D+00  0.0000000000000D+00  0.0000000000000D+00
171  1.7000000000000D+00  0.0000000000000D+00  0.0000000000000D+00
172  1.7100000000000D+00  0.0000000000000D+00  0.0000000000000D+00
173  1.7200000000000D+00  0.0000000000000D+00  0.0000000000000D+00
174  1.7300000000000D+00  0.0000000000000D+00  0.0000000000000D+00
175  1.7400000000000D+00  0.0000000000000D+00  0.0000000000000D+00
176  1.7500000000000D+00  0.0000000000000D+00  0.0000000000000D+00
177  1.7600000000000D+00  0.0000000000000D+00  0.0000000000000D+00
178  1.7700000000000D+00  0.0000000000000D+00  0.0000000000000D+00
179  1.7800000000000D+00  0.0000000000000D+00  0.0000000000000D+00
180  1.7900000000000D+00  0.0000000000000D+00  0.0000000000000D+00
181  1.8000000000000D+00  0.0000000000000D+00  0.0000000000000D+00
182  1.8100000000000D+00  0.0000000000000D+00  0.0000000000000D+00
183  1.8200000000000D+00  0.0000000000000D+00  0.0000000000000D+00
184  1.8300000000000D+00  0.0000000000000D+00  0.0000000000000D+00
185  1.8400000000000D+00  0.0000000000000D+00  0.0000000000000D+00
186  1.8500000000000D+00  0.0000000000000D+00  0.0000000000000D+00
187  1.8600000000000D+00  0.0000000000000D+00  0.0000000000000D+00
188  1.8700000000000D+00  0.0000000000000D+00  0.0000000000000D+00
189  1.8800000000000D+00  0.0000000000000D+00  0.0000000000000D+00
190  1.8900000000000D+00  0.0000000000000D+00  0.0000000000000D+00
191  1.9000000000000D+00  0.0000000000000D+00  0.0000000000000D+00
192  1.9100000000000D+00  0.0000000000000D+00  0.0000000000000D+00
193  1.9200000000000D+00  0.0000000000000D+00  0.0000000000000D+00
194  1.9300000000000D+00  0.0000000000000D+00  0.0000000000000D+00
195  1.9400000000000D+00  0.0000000000000D+00  0.0000000000000D+00
196  1.9500000000000D+00  0.0000000000000D+00  0.0000000000000D+00
197  1.9600000000000D+00  0.0000000000000D+00  0.0000000000000D+00
198  1.9700000000000D+00  0.0000000000000D+00  0.0000000000000D+00
199  1.9800000000000D+00  0.0000000000000D+00  0.0000000000000D+00
200  1.9900000000000D+00  0.0000000000000D+00  0.0000000000000D+00
201  2.0000000000000D+00  0.0000000000000D+00  0.0000000000000D+00
202  2.0100000000000D+00  0.0000000000000D+00  0.0000000000000D+00
203  2.0200000000000D+00  0.0000000000000D+00  0.0000000000000D+00
204  2.0300000000000D+00  0.0000000000000D+00  0.0000000000000D+00
205  2.0400000000000D+00  0.0000000000000D+00  0.0000000000000D+00
206  2.0500000000000D+00  0.0000000000000D+00  0.0000000000000D+00
207  2.0600000000000D+00  0.0000000000000D+00  0.0000000000000D+00
208  2.0700000000000D+00  0.0000000000000D+00  0.0000000000000D+00
209  2.0800000000000D+00  0.0000000000000D+00  0.0000000000000D+00
210  2.0900000000000D+00  0.0000000000000D+00  0.0000000000000D+00
211  2.1000000000000D+00  0.0000000000000D+00  0.0000000000000D+00
212  2.1100000000000D+00  0.0000000000000D+00  0.0000000000000D+00
213  2.1200000000000D+00  0.0000000000000D+00  0.0000000000000D+00
214  2.1300000000000D+00  0.0000000000000D+00  0.0000000000000D+00
215  2.1400000000000D+00  0.0000000000000D+00  0.0000000000000D+00
216  2.1500000000000D+00  0.0000000000000D+00  0.0000000000000D+00
217  2.1600000000000D+00  0.0000000000000D+00  0.0000000000000D+00
218  2.1700000000000D+00  0.0000000000000D+00  0.0000000000000D+00
219  2.1800000000000D+00  0.0000000000000D+00  0.0000000000000D+00
220  2.1900000000000D+00  0.0000000000000D+00  0.0000000000000D+00
221  2.2000000000000D+00  0.0000000000000D+00  0.0000000000000D+00
222  2.2100000000000D+00  0.0000000000000D+00  0.0000000000000D+00
223  2.2200000000000D+00  0.0000000000000D+00  0.0000000000000D+00
224  2.2300000000000D+00  0.0000000000000D+00  0.0000000000000D+00
225  2.2400000000000D+00  0.0000000000000D+00  0.0000000000000D+00
226  2.2500000000000D+00  0.0000000000000D+00  0.0000000000000D+00
227  2.2600000000000D+00  0.0000000000000D+00  0.0000000000000D+00
228  2.2700000000000D+00  0.0000000000000D+00  0.0000000000000D+00
229  2.2800000000000D+00  0.0000000000000D+00  0.0000000000000D+00
230  2.2900000000000D+00  0.0000000000000D+00  0.0000000000000D+00
231  2.3000000000000D+00  0.0000000000000D+00  0.0000000000000D+00
232  2.3100000000000D+00  0.0000000000000D+00  0.0000000000000D+00
233  2.3200000000000D+00  0.0000000000000D+00  0.0000000000000D+00
234  2.3300000000000D+00  0.0000000000000D+00  0.0000000000000D+00
235  2.3400000000000D+00  0.0000000000000D+00  0.0000000000000D+00
236  2.3500000000000D+00  0.0000000000000D+00  0.0000000000000D+00
237  2.3600000000000D+00  0.0000000000000D+00  0.0000000000000D+00
238  2.3700000000000D+00  0.0000000000000D+00  0.0000000000000D+00
239  2.3800000000000D+00  0.0000000000000D+00  0.0000000000000D+00
240  2.3900000000000D+00  0.0000000000000D+00  0.0000000000000D+00
241  2.4000000000000D+00  0.0000000000000D+00  0.0000000000000D+00
242  2.4100000000000D+00  0.0000000000000D+00  0.0000000000000D+00
243  2.4200000000000D+00  0.0000000000000D+00  0.0000000000000D+00
244  2.4300000000000D+00  0.0000000000000D+00  0.0000000000000D+00
245  2.4400000000000D+00  0.0000000000000D+00  0.0000000000000D+00
246  2.4500000000000D+00  0.0000000000000D+00  0.0000000000000D+00
247  2.4600000000000D+00  0.0000000000000D+00  0.0000000000000D+00
248  2.4700000000000D+00  0.0000000000000D+00  0.0000000000000D+00
249  2.4800000000000D+00  0.0000000000000D+00  0.0000000000000D+00
250  2.4900000000000D+00  0.0000000000000D+00  0.0000000000000D+00
251  2.5000000000000D+00  0.0000000000000D+00  0.0000000000000D+00
252  2.5100000000000D+00  0.0000000000000D+00  0.0000000000000D+00
253  2.5200000000000D+00  0.0000000000000D+00  0.0000000000000D+00
254  2.5300000000000D+00  0.0000000000000D+00  0.0000000000000D+00
255  2.5400000000000D+00  0.0000000000000D+00  0.0000000000000D+00
256  2.5500000000000D+00  0.0000000000000D+00  0.0000000000000D+00
257  2.5600000000000D+00  0.0000000000000D+00  0.0000000000000D+00
258  2.5700000000000D+00  0.0000000000000D+00  0.0000000000000D+00
259  2.5800000000000D+00  0.0000000000000D+00  0.0000000000000D+00
260  2.5900000000000D+00  0.0000000000000D+00  0.0000000000000D+00
261  2.6000000000000D+00  0.0000000000000D+00  0.0000000000000D+00
262  2.6100000000000D+00  0.0000000000000D+00  0.0000000000000D+00
263  2.6200000000000D+00  0.0000000000000D+00  0.0000000000000D+00
264  2.6300000000000D+00  0.0000000000000D+00  0.0000000000000D+00
265  2.6400000000000D+00  0.0000000000000D+00  0.0000000000000D+00
266  2.6500000000000D+00  0.0000000000000D+00  0.0000000000000D+00
267  2.6600000000000D+00  0.0000000000000D+00  0.0000000000000D+00
268  2.6700000000000D+00  0.0000000000000D+00  0.0000000000000D+00
269  2.6800000000000D+00  0.0000000000000D+00  0.0000000000000D+00
270  2.6900000000000D+00  0.0000000000000D+00  0.0000000000000D+00
271  2.7000000000000D+00  0.0000000000000D+00  0.0000000000000D+00
272  2.7100000000000D+00  0.0000000000000D+00  0.0000000000000D+00
273  2.7200000000000D+00  0.0000000000000D+00  0.0000000000000D+00
274  2.7300000000000D+00  0.0000000000000D+00  0.0000000000000D+00
275  2.7400000000000D+00  0.0000000000000D+00  0.0000000000000D+00
276  2.7500000000000D+00  0.0000000000000D+00  0.0000000000000D+00
277  2.7600000000000D+00  0.0000000000000D+00  0.0000000000000D+00
278  2.7700000000000D+00  0.0000000000000D+00  0.0000000000000D+00
279  2.7800000000000D+00  0.0000000000000D+00  0.0000000000000D+00
280  2.7900000000000D+00  0.0000000000000D+00  0.0000000000000D+00
281  2.8000000000000D+00  0.0000000000000D+00  0.0000000000000D+00
282  2.8100000000000D+00  0.0000000000000D+00  0.0000000000000D+00
283  2.8200000000000D+00  0.0000000000000D+00  0.0000000000000D+00
284  2.8300000000000D+00  0.0000000000000D+00  0.0000000000000D+00
285  2.8400000000000D+00  0.0000000000000D+00  0.0000000000000D+00
286  2.8500000000000D+00  0.0000000000000D+00  0.0000000000000D+00
287  2.8600000000000D+00  0.0000000000000D+00  0.0000000000000D+00
288  2.8700000000000D+00  0.0000000000000D+00  0.0000000000000D+00
289  2.8800000000000D+00  0.0000000000000D+00  0.0000000000000D+00
290  2.8900000000000D+00  0.0000000000000D+00  0.0000000000000D+00
291  2.9000000000000D+00  0.0000000000000D+00  0.0000000000000D+00
292  2.9100000000000D+00  0.0000000000000D+00  0.0000000000000D+00
293  2.9200000000000D+00  0.0000000000000D+00  0.0000000000000D+00
294  2.9300000000000D+00  0.0000000000000D+00  0.0000000000000D+00
295  2.9400000000000D+00  0.0000000000000D+00  0.0000000000000D+00
296  2.9500000000000D+00  0.0000000000000D+00  0.0000000000000D+00
297  2.9600000000000D+00  0.0000000000000D+00  0.0000000000000D+00
298  2.9700000000000D+00  0.0000000000000D+00  0.0000000000000D+00
299  2.9800000000000D+00  0.0000000000000D+00  0.0000000000000D+00
300  2.9900000000000D+00  0.0000000000000D+00  0.0000000000000D+00
301  3.0000000000000D+00  0.0000000000000D+00  0.0000000000000D+00
302  3.0100000000000D+00  0.0000000000000D+00  0.0000000000000D+00
303  3.0200000000000D+00  0.0000000000000D+00  0.0000000000000D+00
304  3.0300000000000D+00  0.0000000000000D+00  0.0000000000000D+00
305  3.0400000000000D+00  0.0000000000000D+00  0.0000000000000D+00
306  3.0500000000000D+00  0.0000000000000D+00  0.0000000000000D+00
307  3.0600000000000D+00  0.0000000000000D+00  0.0000000000000D+00
308  3.0700000000000D+00  0.0000000000000D+00  0.0000000000000D+00
309  3.0800000000000D+00  0.0000000000000D+00  0.0000000000000D+00
310  3.0900000000000D+00  0.0000000000000D+00  0.0000000000000D+00
311  3.1000000000000D+00  0.0000000000000D+00  0.0000000000000D+00
312  3.1100000000000D+00  0.0000000000000D+00  0.0000000000000D+00
313  3.1200000000000D+00  0.0000000000000D+00  0.0000000000000D+00
314  3.1300000000000D+00  0.0000000000000D+00  0.0000000000000D+00
315  3.1400000000000D+00  0.0000000000000D+00  0.0000000000000D+00
316  3.1500000000000D+00  0.0000000000000D+00  0.0000000000000D+00
317  3.1600000000000D+00  0.0000000000000D+00  0.0000000000000D+00
318  3.1700000000000D+00  0.0000000000000D+00  0.0000000000000D+00
319  3.1800000000000D+00  0.0000000000000D+00  0.0000000000000D+00
320  3.1900000000000D+00  0.0000000000000D+00  0.0000000000000D+00
321  3.2000000000000D+00  0.0000000000000D+00  0.0000000000000D+00
322  3.2100000000000D+00  0.0000000000000D+00  0.0000000000000D+00
323  3.2200000000000D+00  0.0000000000000D+00  0.0000000000000D+00
324  3.2300000000000D+00  0.0000000000000D+00  0.0000000000000D+00
325  3.2400000000000D+00  0.0000000000000D+00  0.0000000000000D+00
326  3.2500000000000D+00  0.0000000000000D+00  0.0000000000000D+00
327  3.2600000000000D+00  0.0000000000000D+00  0.0000000000000D+00
328  3.2700000000000D+00  0.0000000000000D+00  0.0000000000000D+00
329  3.2800000000000D+00  0.0000000000000D+00  0.0000000000000D+00
330  3.2900000000000D+00  0.0000000000000D+00  0.0000000000000D+00
331  3.3000000000000D+00  0.0000000000000D+00  0.0000000000000D+00
332  3.3100000000000D+00  0.0000000000000D+00  0.0000000000000D+00
333  3.3200000000000D+00  0.0000000000000D+00  0.0000000000000D+00
334  3.3300000000000D+00  0.0000000000000D+00  0.0000000000000D+00
335  3.3400000000000D+00  0.0000000000000D+00  0.0000000000000D+00
336  3.3500000000000D+00  0.0000000000000D+00  0.0000000000000D+00
337  3.3600000000000D+00  0.0000000000000D+00  0.0000000000000D+00
338  3.3700000000000D+00  0.0000000000000D+00  0.0000000000000D+00
339  3.3800000000000D+00  0.0000000000000D+00  0.0000000000000D+00
340  3.3900000000000D+00  0.0000000000000D+00  0.0000000000000D+00
341  3.4000000000000D+00  0.0000000000000D+00  0.0000000000000D+00
342  3.4100000000000D+00  0.0000000000000D+00  0.0000000000000D+00
343  3.4200000000000D+00  0.0000000000000D+00  0.0000000000000D+00
344  3.4300000000000D+00  0.0000000000000D+00  0.0000000000000D+00
345  3.4400000000000D+00  0.0000000000000D+00  0.0000000000000D+00
346  3.4500000000000D+00  0.0000000000000D+00  0.0000000000000D+00
347  3.4600000000000D+00  0.0000000000000D+00  0.0000000000000D+00
348  3.4700000000000D+00  0.0000000000000D+00  0.0000000000000D+00
349  3.4800000000000D+00  0.0000000000000D+00  0.0000000000000D+00
350  3.4900000000000D+00  0.0000000000000D+00  0.0000000000000D+00
351  3.5000000000000D+00  0.0000000000000D+00  0.0000000000000D+00
352  3.5100000000000D+00  0.0000000000000D+00  0.0000000000000D+00
353  3.5200000000000D+00  0.0000000000000D+00  0.0000000000000D+00
354  3.5300000000000D+00  0.0000000000000D+00  0.0000000000000D+00
355  3.5400000000000D+00  0.0000000000000D+00  0.0000000000000D+00
356  3.5500000000000D+00  0.0000000000000D+00  0.0000000000000D+00
357  3.5600000000000D+00  0.0000000000000D+00  0.0000000000000D+00
358  3.5700000000000D+00  0.0000000000000D+00  0.0000000000000D+00
359  3.5800000000000D+00  0.0000000000000D+00  0.0000000000000D+00
360  3.5900000000000D+00  0.0000000000000D+00  0.0000000000000D+00
361  3.6000000000000D+00  0.0000000000000D+00  0.0000000000000D+00
362  3.6100000000000D+00  0.0000000000000D+00  0.0000000000000D+00
363  3.6200000000000D+00  0.0000000000000D+00  0.0000000000000D+00
364  3.6300000000000D+00  0.0000000000000D+00  0.0000000000000D+00
365  3.6400000000000D+00  0.0000000000000D+00  0.0000000000000D+00
366  3.6500000000000D+00  0.0000000000000D+00  0.0000000000000D+00
367  3.6600000000000D+00  0.0000000000000D+00  0.0000000000000D+00
368  3.6700000000000D+00  0.0000000000000D+00  0.0000000000000D+00
369  3.6800000000000D+00  0.0000000000000D+00  0.0000000000000D+00
370  3.6900000000000D+00  0.0000000000000D+00  0.0000000000000D+00
371  3.7000000000000D+00  0.0000000000000D+00  0.0000000000000D+00
372  3.7100000000000D+00  0.0000000000000D+00  0.0000000000000D+00
373  3.7200000000000D+00  0.0000000000000D+00  0.0000000000000D+00
374  3.7300000000000D+00  0.0000000000000D+00  0.0000000000000D+00
375  3.7400000000000D+00  0.0000000000000D+00  0.0000000000000D+00
376  3.7500000000000D+00  0.0000000000000D+00  0.0000000000000D+00
377  3.7600000000000D+00  0.0000000000000D+00  0.0000000000000D+00
378  3.7700000000000D+00  0.0000000000000D+00  0.0000000000000D+00
379  3.7800000000000D+00  0.0000000000000D+00  0.0000000000000D+00
380  3.7900000000000D+00  0.0000000000000D+00  0.0000000000000D+00
381  3.8000000000000D+00  0.0000000000000D+00  0.0000000000000D+00
382  3.8100000000000D+00  0.0000000000000D+00  0.0000000000000D+00
383  3.8200000000000D+00  0.0000000000000D+00  0.0000000000000D+00
384  3.8300000000000D+00  0.0000000000000D+00  0.0000000000000D+00
385  3.8400000000000D+00  0.0000000000000D+00  0.0000000000000D+00
386  3.8500000000000D+00  0.0000000000000D+00  0.0000000000000D+00
387  3.8600000000000D+00  0.0000000000000D+00  0.0000000000000D+00
388  3.8700000000000D+00  0.0000000000000D+00  0.0000000000000D+00
389  3.8800000000000D+00  0.0000000000000D+00  0.0000000000000D+00
390  3.8900000000000D+00  0.0000000000000D+00  0.0000000000000D+00
391  3.9000000000000D+00  0.0000000000000D+00  0.0000000000000D+00
392  3.9100000000000D+00  0.0000000000000D+00  0.0000000000000D+00
393  3.9200000000000D+00  0.0000000000000D+00  0.0000000000000D+00
394  3.9300000000000D+00  0.0000000000000D+00  0.0000000000000D+00
395  3.9400000000000D+00  0.0000000000000D+00  0.0000000000000D+00
396  3.9500000000000D+00  0.0000000000000D+00  0.0000000000000D+00
397  3.9600000000000D+00  0.0000000000000D+00  0.0000000000000D+00
398  3.9700000000000D+00  0.0000000000000D+00  0.0000000000000D+00
399  3.9800000000000D+00  0.0000000000000D+00  0.0000000000000D+00
400  3.9900000000000D+00  0.0000000000000D+00  0.0000000000000D+00
401  4.0000000000000D+00  0.0000000000000D+00  0.0000000000000D+00
402  4.0100000000000D+00  0.0000000000000D+00  0.0000000000000D+00
403  4.0200000000000D+00  0.0000000000000D+00  0.0000000000000D+00
404  4.0300000000000D+00  0.0000000000000D+00  0.0000000000000D+00
405  4.0400000000000D+00  0.0000000000000D+00  0.0000000000000D+00
406  4.0500000000000D+00  0.0000000000000D+00  0.0000000000000D+00
407  4.0600000000000D+00  0.0000000000000D+00  0.0000000000000D+00
408  4.0700000000000D+00  0.0000000000000D+00  0.0000000000000D+00
409  4.0800000000000D+00  0.0000000000000D+00  0.0000000000000D+00
410  4.0900000000000D+00  0.0000000000000D+00  0.0000000000000D+00
411  4.1000000000000D+00  0.0000000000000D+00  0.0000000000000D+00
412  4.1100000000000D+00  0.0000000000000D+00  0.0000000000000D+00
413  4.1200000000000D+00  0.0000000000000D+00  0.0000000000000D+00
414  4.1300000000000D+00  0.0000000000000D+00  0.0000000000000D+00
415  4.1400000000000D+00  0.0000000000000D+00  0.0000000000000D+00
416  4.1500000000000D+00  0.0000000000000D+00  0.0000000000000D+00
417  4.1600000000000D+00  0.0000000000000D+00  0.0000000000000D+00
418  4.1700000000000D+00  0.0000000000000D+00  0.0000000000000D+00
419  4.1800000000000D+00  0.0000000000000D+00  0.0000000000000D+00
420  4.1900000000000D+00  0.0000000000000D+00  0.0000000000000D+00
421  4.2000000000000D+00  0.0000000000000D+00  0.0000000000000D+00
422  4.2100000000000D+00  0.0000000000000D+00  0.0000000000000D+00
423  4.2200000000000D+00  0.0000000000000D+00  0.0000000000000D+00
424  4.2300000000000D+00  0.0000000000000D+00  0.0000000000000D+00
425  4.2400000000000D+00  0.0000000000000D+00  0.0000000000000D+00
426  4.2500000000000D+00  0.0000000000000D+00  0.0000000000000D+00
427  4.2600000000000D+00  0.0000000000000D+00  0.0000000000000D+00
428  4.2700000000000D+00  0.0000000000000D+00  0.0000000000000D+00
429  4.2800000000000D+00  0.0000000000000D+00  0.0000000000000D+00
430  4.2900000000000D+00  0.0000000000000D+00  0.0000000000000D+00
431  4.3000000000000D+00  0.0000000000000D+00  0.0000000000000D+00
432  4.3100000000000D+00  0.0000000000000D+00  0.0000000000000D+00
433  4.3200000000000D+00  0.0000000000000D+00  0.0000000000000D+00
434  4.3300000000000D+00  0.0000000000000D+00  0.0000000000000D+00
435  4.3400000000000D+00  0.0000000000000D+00  0.0000000000000D+00
436  4.3500000000000D+00  0.0000000000000D+00  0.0000000000000D+00
437  4.3600000000000D+00  0.0000000000000D+00  0.0000000000000D+00
438  4.3700000000000D+00  0.0000000000000D+00  0.0000000000000D+00
439  4.3800000000000D+00  0.0000000000000D+00  0.0000000000000D+00
440  4.3900000000000D+00  0.0000000000000D+00  0.0000000000000D+00
441  4.4000000000000D+00  0.0000000000000D+00  0.0000000000000D+00
442  4.4100000000000D+00  0.0000000000000D+00  0.0000000000000D+00
443  4.4200000000000D+00  0.0000000000000D+00  0.0000000000000D+00