Mg    ONCVPSP-3.2.3  r_core=   1.16056   1.56380
12.0000     10.0000      170211    zatom,zion,pspd
8      11   1     4   400     0    pspcod,pspxc,lmax,lloc,mmax,r2well
3.99000000  0.00000000  0.00000000    rchrg fchrg qchrg
2     2     0     0    nproj
3     1           extension_switch
3     0     0    nprojso
0                        -8.0566601372454D-01  2.5680344138551D+00
1  0.0000000000000D+00  1.8984504801534D-09  8.8940584785924D-08
2  1.0000000000000D-02  2.8323733043402D-02 -1.1805500384315D-01
3  2.0000000000000D-02  5.6719393084976D-02 -2.3411198539097D-01
4  3.0000000000000D-02  8.5257506750315D-02 -3.4621851536545D-01
5  4.0000000000000D-02  1.1400582502023D-01 -4.5251230432552D-01
6  5.0000000000000D-02  1.4302799765892D-01 -5.5126368061111D-01
7  6.0000000000000D-02  1.7238232095217D-01 -6.4091502325261D-01
8  7.0000000000000D-02  2.0212058090561D-01 -7.2011624217492D-01
9  8.0000000000000D-02  2.3228701215481D-01 -7.8775548696575D-01
10  9.0000000000000D-02  2.6291739054086D-01 -8.4298437290062D-01
11  1.0000000000000D-01  2.9403827465658D-01 -8.8523713644113D-01
12  1.1000000000000D-01  3.2566640872272D-01 -9.1424326930956D-01
13  1.2000000000000D-01  3.5780829597363D-01 -9.3003332745406D-01
14  1.3000000000000D-01  3.9045994838283D-01 -9.3293776548472D-01
15  1.4000000000000D-01  4.2360681511055D-01 -9.2357880505396D-01
16  1.5000000000000D-01  4.5722388857960D-01 -9.0285550365807D-01
17  1.6000000000000D-01  4.9127598365377D-01 -8.7192234493098D-01
18  1.7000000000000D-01  5.2571818207650D-01 -8.3216181923369D-01
19  1.8000000000000D-01  5.6049643119391D-01 -7.8515160090677D-01
20  1.9000000000000D-01  5.9554828310057D-01 -7.3262705286444D-01
21  2.0000000000000D-01  6.3080375776682D-01 -6.7643989746588D-01
22  2.1000000000000D-01  6.6618631148587D-01 -6.1851398235521D-01
23  2.2000000000000D-01  7.0161389016141D-01 -5.6079913916989D-01
24  2.3000000000000D-01  7.3700004557834D-01 -5.0522418008519D-01
25  2.4000000000000D-01  7.7225509188615D-01 -4.5365010098084D-01
26  2.5000000000000D-01  8.0728727909428D-01 -4.0782455999020D-01
27  2.6000000000000D-01  8.4200396043635D-01 -3.6933867625294D-01
28  2.7000000000000D-01  8.7631273100188D-01 -3.3958714629931D-01
29  2.8000000000000D-01  9.1012251604581D-01 -3.1973260562932D-01
30  2.9000000000000D-01  9.4334458884231D-01 -3.1067507219347D-01
31  3.0000000000000D-01  9.7589349981745D-01 -3.1302719858572D-01
32  3.1000000000000D-01  1.0076879009312D+00 -3.2709593320049D-01
33  3.2000000000000D-01  1.0386512518340D+00 -3.5287105013886D-01
34  3.3000000000000D-01  1.0687123971378D+00 -3.9002085634639D-01
35  3.4000000000000D-01  1.0978060071570D+00 -4.3789522564426D-01
36  3.5000000000000D-01  1.1258728776197D+00 -4.9553594648370D-01
37  3.6000000000000D-01  1.1528600870582D+00 -5.6169420699109D-01
38  3.7000000000000D-01  1.1787210137928D+00 -6.3485488082779D-01
39  3.8000000000000D-01  1.2034152175422D+00 -7.1326712408905D-01
40  3.9000000000000D-01  1.2269081936789D+00 -7.9498065037328D-01
41  4.0000000000000D-01  1.2491710109139D+00 -8.7788692144485D-01
42  4.1000000000000D-01  1.2701798456976D+00 -9.5976437753500D-01
43  4.2000000000000D-01  1.2899154288014D+00 -1.0383267368442D+00
44  4.3000000000000D-01  1.3083624213528D+00 -1.1112733203892D+00
45  4.4000000000000D-01  1.3255087389987D+00 -1.1763403076850D+00
46  4.5000000000000D-01  1.3413448438363D+00 -1.2313518020761D+00
47  4.6000000000000D-01  1.3558630242625D+00 -1.2742695825076D+00
48  4.7000000000000D-01  1.3690566829384D+00 -1.3032404412991D+00
49  4.8000000000000D-01  1.3809196526449D+00 -1.3166400546320D+00
50  4.9000000000000D-01  1.3914455589431D+00 -1.3131124030331D+00
51  5.0000000000000D-01  1.4006272472467D+00 -1.2916038516809D+00
52  5.1000000000000D-01  1.4084562902230D+00 -1.2513911128162D+00
53  5.2000000000000D-01  1.4149225893762D+00 -1.1921024426475D+00
54  5.3000000000000D-01  1.4200140823031D+00 -1.1137315699671D+00
55  5.4000000000000D-01  1.4237165644840D+00 -1.0166440099851D+00
56  5.5000000000000D-01  1.4260136316526D+00 -9.0157558159451D-01
57  5.6000000000000D-01  1.4268867458330D+00 -7.6962311534999D-01
58  5.7000000000000D-01  1.4263154251210D+00 -6.2222750929419D-01
59  5.8000000000000D-01  1.4242775542657D+00 -4.6114945706765D-01
60  5.9000000000000D-01  1.4207498101776D+00 -2.8843833273802D-01
61  6.0000000000000D-01  1.4157081936810D+00 -1.0639486743099D-01
62  6.1000000000000D-01  1.4091286562377D+00  8.2471610908773D-02
63  6.2000000000000D-01  1.4009878080310D+00  2.7549048298872D-01
64  6.3000000000000D-01  1.3912636917788D+00  4.6988069657366D-01
65  6.4000000000000D-01  1.3799366049873D+00  6.6280410649876D-01
66  6.5000000000000D-01  1.3669899520902D+00  8.5142016898877D-01
67  6.6000000000000D-01  1.3524111070850D+00  1.0329408321056D+00
68  6.7000000000000D-01  1.3361922668837D+00  1.2046844583105D+00
69  6.8000000000000D-01  1.3183312756559D+00  1.3641276351105D+00
70  6.9000000000000D-01  1.2988324009565D+00  1.5089537749673D+00
71  7.0000000000000D-01  1.2777070433738D+00  1.6370974746440D+00
72  7.1000000000000D-01  1.2549743628072D+00  1.7467836965390D+00
73  7.2000000000000D-01  1.2306618062325D+00  1.8365609471695D+00
74  7.3000000000000D-01  1.2048055239075D+00  1.9053277588688D+00
75  7.4000000000000D-01  1.1774506633697D+00  1.9523519273892D+00
76  7.5000000000000D-01  1.1486515331987D+00  1.9772821157273D+00
77  7.6000000000000D-01  1.1184716313467D+00  1.9801516023263D+00
78  7.7000000000000D-01  1.0869835357594D+00  1.9613741230030D+00
79  7.8000000000000D-01  1.0542686579969D+00  1.9217319288701D+00
80  7.9000000000000D-01  1.0204168635209D+00  1.8623563524404D+00
81  8.0000000000000D-01  9.8552596519084D-01  1.7847013373409D+00
82  8.1000000000000D-01  9.4970109923251D-01  1.6905105399890D+00
83  8.2000000000000D-01  9.1305399545008D-01  1.5817787507587D+00
84  8.3000000000000D-01  8.7570215568524D-01  1.4607085044620D+00
85  8.4000000000000D-01  8.3776795644058D-01  1.3296628526503D+00
86  8.5000000000000D-01  7.9937769312871D-01  1.1911153509863D+00
87  8.6000000000000D-01  7.6066058455274D-01  1.0475983719514D+00
88  8.7000000000000D-01  7.2174775694071D-01  9.0165088515041D-01
89  8.8000000000000D-01  6.8277122713109D-01  7.5576685374516D-01
90  8.9000000000000D-01  6.4386290433206D-01  6.1234537597626D-01
91  9.0000000000000D-01  6.0515362926010D-01  4.7364365575850D-01
92  9.1000000000000D-01  5.6677226841778D-01  3.4173381701511D-01
93  9.2000000000000D-01  5.2884487982090D-01  2.1846448432783D-01
94  9.3000000000000D-01  4.9149396466755D-01  1.0542793973873D-01
95  9.4000000000000D-01  4.5483781729665D-01  3.9335347235842D-03
96  9.5000000000000D-01  4.1898998336327D-01 -8.5012109541080D-02
97  9.6000000000000D-01  3.8405883351838D-01 -1.6071773813733D-01
98  9.7000000000000D-01  3.5014725708560D-01 -2.2281272476056D-01
99  9.8000000000000D-01  3.1735247733059D-01 -2.7124492121160D-01
100  9.9000000000000D-01  2.8576598699975D-01 -3.0627122559540D-01
101  1.0000000000000D+00  2.5547359998767D-01 -3.2844116482097D-01
102  1.0100000000000D+00  2.2655561213369D-01 -3.3857395248927D-01
103  1.0200000000000D+00  1.9908706164140D-01 -3.3772962748089D-01
104  1.0300000000000D+00  1.7313807722648D-01 -3.2717501512694D-01
105  1.0400000000000D+00  1.4877430003967D-01 -3.0834536965921D-01
106  1.0500000000000D+00  1.2605736365965D-01 -2.8280265477146D-01
107  1.0600000000000D+00  1.0504541517424D-01 -2.5219148982376D-01
108  1.0700000000000D+00  8.5793659725517D-02 -2.1819384913524D-01
109  1.0800000000000D+00  6.8354907044844D-02 -1.8248360749583D-01
110  1.0900000000000D+00  5.2780113626341D-02 -1.4668209256140D-01
111  1.1000000000000D+00  3.9118837759685D-02 -1.1231544101048D-01
112  1.1100000000000D+00  2.7419878123253D-02 -8.0776009610058D-02
113  1.1200000000000D+00  1.7731054801759D-02 -5.3284406251761D-02
114  1.1300000000000D+00  1.0100496104154D-02 -3.0860074789524D-02
115  1.1400000000000D+00  4.5344308737850D-03 -1.4157136525776D-02
116  1.1500000000000D+00  1.2113098511336D-03 -4.1508255187593D-03
117  1.1600000000000D+00 -3.4710749489413D-05 -3.8080927374819D-04
118  1.1700000000000D+00 -8.9244463516183D-05  1.2117948268964D-04
119  1.1800000000000D+00  3.8187566062999D-05 -6.4731022485353D-05
120  1.1900000000000D+00 -2.6268355122325D-06  3.6383164651334D-06
121  1.2000000000000D+00 -4.0277166286554D-06  6.0570579575663D-06
122  1.2100000000000D+00  1.6875300980867D-07  8.3932561932551D-07
123  1.2200000000000D+00  0.0000000000000D+00  0.0000000000000D+00
124  1.2300000000000D+00  0.0000000000000D+00  0.0000000000000D+00
125  1.2400000000000D+00  0.0000000000000D+00  0.0000000000000D+00
126  1.2500000000000D+00  0.0000000000000D+00  0.0000000000000D+00
127  1.2600000000000D+00  0.0000000000000D+00  0.0000000000000D+00
128  1.2700000000000D+00  0.0000000000000D+00  0.0000000000000D+00
129  1.2800000000000D+00  0.0000000000000D+00  0.0000000000000D+00
130  1.2900000000000D+00  0.0000000000000D+00  0.0000000000000D+00
131  1.3000000000000D+00  0.0000000000000D+00  0.0000000000000D+00
132  1.3100000000000D+00  0.0000000000000D+00  0.0000000000000D+00
133  1.3200000000000D+00  0.0000000000000D+00  0.0000000000000D+00
134  1.3300000000000D+00  0.0000000000000D+00  0.0000000000000D+00
135  1.3400000000000D+00  0.0000000000000D+00  0.0000000000000D+00
136  1.3500000000000D+00  0.0000000000000D+00  0.0000000000000D+00
137  1.3600000000000D+00  0.0000000000000D+00  0.0000000000000D+00
138  1.3700000000000D+00  0.0000000000000D+00  0.0000000000000D+00
139  1.3800000000000D+00  0.0000000000000D+00  0.0000000000000D+00
140  1.3900000000000D+00  0.0000000000000D+00  0.0000000000000D+00
141  1.4000000000000D+00  0.0000000000000D+00  0.0000000000000D+00
142  1.4100000000000D+00  0.0000000000000D+00  0.0000000000000D+00
143  1.4200000000000D+00  0.0000000000000D+00  0.0000000000000D+00
144  1.4300000000000D+00  0.0000000000000D+00  0.0000000000000D+00
145  1.4400000000000D+00  0.0000000000000D+00  0.0000000000000D+00
146  1.4500000000000D+00  0.0000000000000D+00  0.0000000000000D+00
147  1.4600000000000D+00  0.0000000000000D+00  0.0000000000000D+00
148  1.4700000000000D+00  0.0000000000000D+00  0.0000000000000D+00
149  1.4800000000000D+00  0.0000000000000D+00  0.0000000000000D+00
150  1.4900000000000D+00  0.0000000000000D+00  0.0000000000000D+00
151  1.5000000000000D+00  0.0000000000000D+00  0.0000000000000D+00
152  1.5100000000000D+00  0.0000000000000D+00  0.0000000000000D+00
153  1.5200000000000D+00  0.0000000000000D+00  0.0000000000000D+00
154  1.5300000000000D+00  0.0000000000000D+00  0.0000000000000D+00
155  1.5400000000000D+00  0.0000000000000D+00  0.0000000000000D+00
156  1.5500000000000D+00  0.0000000000000D+00  0.0000000000000D+00
157  1.5600000000000D+00  0.0000000000000D+00  0.0000000000000D+00
158  1.5700000000000D+00  0.0000000000000D+00  0.0000000000000D+00
159  1.5800000000000D+00  0.0000000000000D+00  0.0000000000000D+00
160  1.5900000000000D+00  0.0000000000000D+00  0.0000000000000D+00
161  1.6000000000000D+00  0.0000000000000D+00  0.0000000000000D+00
162  1.6100000000000D+00  0.0000000000000D+00  0.0000000000000D+00
163  1.6200000000000D+00  0.0000000000000D+00  0.0000000000000D+00
164  1.6300000000000D+00  0.0000000000000D+00  0.0000000000000D+00
165  1.6400000000000D+00  0.0000000000000D+00  0.0000000000000D+00
166  1.6500000000000D+00  0.0000000000000D+00  0.0000000000000D+00
167  1.6600000000000D+00  0.0000000000000D+00  0.0000000000000D+00
168  1.6700000000000D+00  0.0000000000000D+00  0.0000000000000D+00
169  1.6800000000000D+00  0.0000000000000D+00  0.0000000000000D+00
170  1.6900000000000D+00  0.0000000000000D+00  0.0000000000000D+00
171  1.7000000000000D+00  0.0000000000000D+00  0.0000000000000D+00
172  1.7100000000000D+00  0.0000000000000D+00  0.0000000000000D+00
173  1.7200000000000D+00  0.0000000000000D+00  0.0000000000000D+00
174  1.7300000000000D+00  0.0000000000000D+00  0.0000000000000D+00
175  1.7400000000000D+00  0.0000000000000D+00  0.0000000000000D+00
176  1.7500000000000D+00  0.0000000000000D+00  0.0000000000000D+00
177  1.7600000000000D+00  0.0000000000000D+00  0.0000000000000D+00
178  1.7700000000000D+00  0.0000000000000D+00  0.0000000000000D+00
179  1.7800000000000D+00  0.0000000000000D+00  0.0000000000000D+00
180  1.7900000000000D+00  0.0000000000000D+00  0.0000000000000D+00
181  1.8000000000000D+00  0.0000000000000D+00  0.0000000000000D+00
182  1.8100000000000D+00  0.0000000000000D+00  0.0000000000000D+00
183  1.8200000000000D+00  0.0000000000000D+00  0.0000000000000D+00
184  1.8300000000000D+00  0.0000000000000D+00  0.0000000000000D+00
185  1.8400000000000D+00  0.0000000000000D+00  0.0000000000000D+00
186  1.8500000000000D+00  0.0000000000000D+00  0.0000000000000D+00
187  1.8600000000000D+00  0.0000000000000D+00  0.0000000000000D+00
188  1.8700000000000D+00  0.0000000000000D+00  0.0000000000000D+00
189  1.8800000000000D+00  0.0000000000000D+00  0.0000000000000D+00
190  1.8900000000000D+00  0.0000000000000D+00  0.0000000000000D+00
191  1.9000000000000D+00  0.0000000000000D+00  0.0000000000000D+00
192  1.9100000000000D+00  0.0000000000000D+00  0.0000000000000D+00
193  1.9200000000000D+00  0.0000000000000D+00  0.0000000000000D+00
194  1.9300000000000D+00  0.0000000000000D+00  0.0000000000000D+00
195  1.9400000000000D+00  0.0000000000000D+00  0.0000000000000D+00
196  1.9500000000000D+00  0.0000000000000D+00  0.0000000000000D+00
197  1.9600000000000D+00  0.0000000000000D+00  0.0000000000000D+00
198  1.9700000000000D+00  0.0000000000000D+00  0.0000000000000D+00
199  1.9800000000000D+00  0.0000000000000D+00  0.0000000000000D+00
200  1.9900000000000D+00  0.0000000000000D+00  0.0000000000000D+00
201  2.0000000000000D+00  0.0000000000000D+00  0.0000000000000D+00
202  2.0100000000000D+00  0.0000000000000D+00  0.0000000000000D+00
203  2.0200000000000D+00  0.0000000000000D+00  0.0000000000000D+00
204  2.0300000000000D+00  0.0000000000000D+00  0.0000000000000D+00
205  2.0400000000000D+00  0.0000000000000D+00  0.0000000000000D+00
206  2.0500000000000D+00  0.0000000000000D+00  0.0000000000000D+00
207  2.0600000000000D+00  0.0000000000000D+00  0.0000000000000D+00
208  2.0700000000000D+00  0.0000000000000D+00  0.0000000000000D+00
209  2.0800000000000D+00  0.0000000000000D+00  0.0000000000000D+00
210  2.0900000000000D+00  0.0000000000000D+00  0.0000000000000D+00
211  2.1000000000000D+00  0.0000000000000D+00  0.0000000000000D+00
212  2.1100000000000D+00  0.0000000000000D+00  0.0000000000000D+00
213  2.1200000000000D+00  0.0000000000000D+00  0.0000000000000D+00
214  2.1300000000000D+00  0.0000000000000D+00  0.0000000000000D+00
215  2.1400000000000D+00  0.0000000000000D+00  0.0000000000000D+00
216  2.1500000000000D+00  0.0000000000000D+00  0.0000000000000D+00
217  2.1600000000000D+00  0.0000000000000D+00  0.0000000000000D+00
218  2.1700000000000D+00  0.0000000000000D+00  0.0000000000000D+00
219  2.1800000000000D+00  0.0000000000000D+00  0.0000000000000D+00
220  2.1900000000000D+00  0.0000000000000D+00  0.0000000000000D+00
221  2.2000000000000D+00  0.0000000000000D+00  0.0000000000000D+00
222  2.2100000000000D+00  0.0000000000000D+00  0.0000000000000D+00
223  2.2200000000000D+00  0.0000000000000D+00  0.0000000000000D+00
224  2.2300000000000D+00  0.0000000000000D+00  0.0000000000000D+00
225  2.2400000000000D+00  0.0000000000000D+00  0.0000000000000D+00
226  2.2500000000000D+00  0.0000000000000D+00  0.0000000000000D+00
227  2.2600000000000D+00  0.0000000000000D+00  0.0000000000000D+00
228  2.2700000000000D+00  0.0000000000000D+00  0.0000000000000D+00
229  2.2800000000000D+00  0.0000000000000D+00  0.0000000000000D+00
230  2.2900000000000D+00  0.0000000000000D+00  0.0000000000000D+00
231  2.3000000000000D+00  0.0000000000000D+00  0.0000000000000D+00
232  2.3100000000000D+00  0.0000000000000D+00  0.0000000000000D+00
233  2.3200000000000D+00  0.0000000000000D+00  0.0000000000000D+00
234  2.3300000000000D+00  0.0000000000000D+00  0.0000000000000D+00
235  2.3400000000000D+00  0.0000000000000D+00  0.0000000000000D+00
236  2.3500000000000D+00  0.0000000000000D+00  0.0000000000000D+00
237  2.3600000000000D+00  0.0000000000000D+00  0.0000000000000D+00
238  2.3700000000000D+00  0.0000000000000D+00  0.0000000000000D+00
239  2.3800000000000D+00  0.0000000000000D+00  0.0000000000000D+00
240  2.3900000000000D+00  0.0000000000000D+00  0.0000000000000D+00
241  2.4000000000000D+00  0.0000000000000D+00  0.0000000000000D+00
242  2.4100000000000D+00  0.0000000000000D+00  0.0000000000000D+00
243  2.4200000000000D+00  0.0000000000000D+00  0.0000000000000D+00
244  2.4300000000000D+00  0.0000000000000D+00  0.0000000000000D+00
245  2.4400000000000D+00  0.0000000000000D+00  0.0000000000000D+00
246  2.4500000000000D+00  0.0000000000000D+00  0.0000000000000D+00
247  2.4600000000000D+00  0.0000000000000D+00  0.0000000000000D+00
248  2.4700000000000D+00  0.0000000000000D+00  0.0000000000000D+00
249  2.4800000000000D+00  0.0000000000000D+00  0.0000000000000D+00
250  2.4900000000000D+00  0.0000000000000D+00  0.0000000000000D+00
251  2.5000000000000D+00  0.0000000000000D+00  0.0000000000000D+00
252  2.5100000000000D+00  0.0000000000000D+00  0.0000000000000D+00
253  2.5200000000000D+00  0.0000000000000D+00  0.0000000000000D+00
254  2.5300000000000D+00  0.0000000000000D+00  0.0000000000000D+00
255  2.5400000000000D+00  0.0000000000000D+00  0.0000000000000D+00
256  2.5500000000000D+00  0.0000000000000D+00  0.0000000000000D+00
257  2.5600000000000D+00  0.0000000000000D+00  0.0000000000000D+00
258  2.5700000000000D+00  0.0000000000000D+00  0.0000000000000D+00
259  2.5800000000000D+00  0.0000000000000D+00  0.0000000000000D+00
260  2.5900000000000D+00  0.0000000000000D+00  0.0000000000000D+00
261  2.6000000000000D+00  0.0000000000000D+00  0.0000000000000D+00
262  2.6100000000000D+00  0.0000000000000D+00  0.0000000000000D+00
263  2.6200000000000D+00  0.0000000000000D+00  0.0000000000000D+00
264  2.6300000000000D+00  0.0000000000000D+00  0.0000000000000D+00
265  2.6400000000000D+00  0.0000000000000D+00  0.0000000000000D+00
266  2.6500000000000D+00  0.0000000000000D+00  0.0000000000000D+00
267  2.6600000000000D+00  0.0000000000000D+00  0.0000000000000D+00
268  2.6700000000000D+00  0.0000000000000D+00  0.0000000000000D+00
269  2.6800000000000D+00  0.0000000000000D+00  0.0000000000000D+00
270  2.6900000000000D+00  0.0000000000000D+00  0.0000000000000D+00
271  2.7000000000000D+00  0.0000000000000D+00  0.0000000000000D+00
272  2.7100000000000D+00  0.0000000000000D+00  0.0000000000000D+00
273  2.7200000000000D+00  0.0000000000000D+00  0.0000000000000D+00
274  2.7300000000000D+00  0.0000000000000D+00  0.0000000000000D+00
275  2.7400000000000D+00  0.0000000000000D+00  0.0000000000000D+00
276  2.7500000000000D+00  0.0000000000000D+00  0.0000000000000D+00
277  2.7600000000000D+00  0.0000000000000D+00  0.0000000000000D+00
278  2.7700000000000D+00  0.0000000000000D+00  0.0000000000000D+00
279  2.7800000000000D+00  0.0000000000000D+00  0.0000000000000D+00
280  2.7900000000000D+00  0.0000000000000D+00  0.0000000000000D+00
281  2.8000000000000D+00  0.0000000000000D+00  0.0000000000000D+00
282  2.8100000000000D+00  0.0000000000000D+00  0.0000000000000D+00
283  2.8200000000000D+00  0.0000000000000D+00  0.0000000000000D+00
284  2.8300000000000D+00  0.0000000000000D+00  0.0000000000000D+00
285  2.8400000000000D+00  0.0000000000000D+00  0.0000000000000D+00
286  2.8500000000000D+00  0.0000000000000D+00  0.0000000000000D+00
287  2.8600000000000D+00  0.0000000000000D+00  0.0000000000000D+00
288  2.8700000000000D+00  0.0000000000000D+00  0.0000000000000D+00
289  2.8800000000000D+00  0.0000000000000D+00  0.0000000000000D+00
290  2.8900000000000D+00  0.0000000000000D+00  0.0000000000000D+00
291  2.9000000000000D+00  0.0000000000000D+00  0.0000000000000D+00
292  2.9100000000000D+00  0.0000000000000D+00  0.0000000000000D+00
293  2.9200000000000D+00  0.0000000000000D+00  0.0000000000000D+00
294  2.9300000000000D+00  0.0000000000000D+00  0.0000000000000D+00
295  2.9400000000000D+00  0.0000000000000D+00  0.0000000000000D+00
296  2.9500000000000D+00  0.0000000000000D+00  0.0000000000000D+00
297  2.9600000000000D+00  0.0000000000000D+00  0.0000000000000D+00
298  2.9700000000000D+00  0.0000000000000D+00  0.0000000000000D+00
299  2.9800000000000D+00  0.0000000000000D+00  0.0000000000000D+00
300  2.9900000000000D+00  0.0000000000000D+00  0.0000000000000D+00
301  3.0000000000000D+00  0.0000000000000D+00  0.0000000000000D+00
302  3.0100000000000D+00  0.0000000000000D+00  0.0000000000000D+00
303  3.0200000000000D+00  0.0000000000000D+00  0.0000000000000D+00
304  3.0300000000000D+00  0.0000000000000D+00  0.0000000000000D+00
305  3.0400000000000D+00  0.0000000000000D+00  0.0000000000000D+00
306  3.0500000000000D+00  0.0000000000000D+00  0.0000000000000D+00
307  3.0600000000000D+00  0.0000000000000D+00  0.0000000000000D+00
308  3.0700000000000D+00  0.0000000000000D+00  0.0000000000000D+00
309  3.0800000000000D+00  0.0000000000000D+00  0.0000000000000D+00
310  3.0900000000000D+00  0.0000000000000D+00  0.0000000000000D+00
311  3.1000000000000D+00  0.0000000000000D+00  0.0000000000000D+00
312  3.1100000000000D+00  0.0000000000000D+00  0.0000000000000D+00
313  3.1200000000000D+00  0.0000000000000D+00  0.0000000000000D+00
314  3.1300000000000D+00  0.0000000000000D+00  0.0000000000000D+00
315  3.1400000000000D+00  0.0000000000000D+00  0.0000000000000D+00
316  3.1500000000000D+00  0.0000000000000D+00  0.0000000000000D+00
317  3.1600000000000D+00  0.0000000000000D+00  0.0000000000000D+00
318  3.1700000000000D+00  0.0000000000000D+00  0.0000000000000D+00
319  3.1800000000000D+00  0.0000000000000D+00  0.0000000000000D+00
320  3.1900000000000D+00  0.0000000000000D+00  0.0000000000000D+00
321  3.2000000000000D+00  0.0000000000000D+00  0.0000000000000D+00
322  3.2100000000000D+00  0.0000000000000D+00  0.0000000000000D+00
323  3.2200000000000D+00  0.0000000000000D+00  0.0000000000000D+00
324  3.2300000000000D+00  0.0000000000000D+00  0.0000000000000D+00
325  3.2400000000000D+00  0.0000000000000D+00  0.0000000000000D+00
326  3.2500000000000D+00  0.0000000000000D+00  0.0000000000000D+00
327  3.2600000000000D+00  0.0000000000000D+00  0.0000000000000D+00
328  3.2700000000000D+00  0.0000000000000D+00  0.0000000000000D+00
329  3.2800000000000D+00  0.0000000000000D+00  0.0000000000000D+00
330  3.2900000000000D+00  0.0000000000000D+00  0.0000000000000D+00
331  3.3000000000000D+00  0.0000000000000D+00  0.0000000000000D+00
332  3.3100000000000D+00  0.0000000000000D+00  0.0000000000000D+00
333  3.3200000000000D+00  0.0000000000000D+00  0.0000000000000D+00
334  3.3300000000000D+00  0.0000000000000D+00  0.0000000000000D+00
335  3.3400000000000D+00  0.0000000000000D+00  0.0000000000000D+00
336  3.3500000000000D+00  0.0000000000000D+00  0.0000000000000D+00
337  3.3600000000000D+00  0.0000000000000D+00  0.0000000000000D+00
338  3.3700000000000D+00  0.0000000000000D+00  0.0000000000000D+00
339  3.3800000000000D+00  0.0000000000000D+00  0.0000000000000D+00
340  3.3900000000000D+00  0.0000000000000D+00  0.0000000000000D+00
341  3.4000000000000D+00  0.0000000000000D+00  0.0000000000000D+00
342  3.4100000000000D+00  0.0000000000000D+00  0.0000000000000D+00
343  3.4200000000000D+00  0.0000000000000D+00  0.0000000000000D+00
344  3.4300000000000D+00  0.0000000000000D+00  0.0000000000000D+00
345  3.4400000000000D+00  0.0000000000000D+00  0.0000000000000D+00
346  3.4500000000000D+00  0.0000000000000D+00  0.0000000000000D+00
347  3.4600000000000D+00  0.0000000000000D+00  0.0000000000000D+00
348  3.4700000000000D+00  0.0000000000000D+00  0.0000000000000D+00
349  3.4800000000000D+00  0.0000000000000D+00  0.0000000000000D+00
350  3.4900000000000D+00  0.0000000000000D+00  0.0000000000000D+00
351  3.5000000000000D+00  0.0000000000000D+00  0.0000000000000D+00
352  3.5100000000000D+00  0.0000000000000D+00  0.0000000000000D+00
353  3.5200000000000D+00  0.0000000000000D+00  0.0000000000000D+00
354  3.5300000000000D+00  0.0000000000000D+00  0.0000000000000D+00
355  3.5400000000000D+00  0.0000000000000D+00  0.0000000000000D+00
356  3.5500000000000D+00  0.0000000000000D+00  0.0000000000000D+00
357  3.5600000000000D+00  0.0000000000000D+00  0.0000000000000D+00
358  3.5700000000000D+00  0.0000000000000D+00  0.0000000000000D+00
359  3.5800000000000D+00  0.0000000000000D+00  0.0000000000000D+00
360  3.5900000000000D+00  0.0000000000000D+00  0.0000000000000D+00
361  3.6000000000000D+00  0.0000000000000D+00  0.0000000000000D+00
362  3.6100000000000D+00  0.0000000000000D+00  0.0000000000000D+00
363  3.6200000000000D+00  0.0000000000000D+00  0.0000000000000D+00
364  3.6300000000000D+00  0.0000000000000D+00  0.0000000000000D+00
365  3.6400000000000D+00  0.0000000000000D+00  0.0000000000000D+00
366  3.6500000000000D+00  0.0000000000000D+00  0.0000000000000D+00
367  3.6600000000000D+00  0.0000000000000D+00  0.0000000000000D+00
368  3.6700000000000D+00  0.0000000000000D+00  0.0000000000000D+00
369  3.6800000000000D+00  0.0000000000000D+00  0.0000000000000D+00
370  3.6900000000000D+00  0.0000000000000D+00  0.0000000000000D+00
371  3.7000000000000D+00  0.0000000000000D+00  0.0000000000000D+00
372  3.7100000000000D+00  0.0000000000000D+00  0.0000000000000D+00
373  3.7200000000000D+00  0.0000000000000D+00  0.0000000000000D+00
374  3.7300000000000D+00  0.0000000000000D+00  0.0000000000000D+00
375  3.7400000000000D+00  0.0000000000000D+00  0.0000000000000D+00
376  3.7500000000000D+00  0.0000000000000D+00  0.0000000000000D+00
377  3.7600000000000D+00  0.0000000000000D+00  0.0000000000000D+00
378  3.7700000000000D+00  0.0000000000000D+00  0.0000000000000D+00
379  3.7800000000000D+00  0.0000000000000D+00  0.0000000000000D+00
380  3.7900000000000D+00  0.0000000000000D+00  0.0000000000000D+00
381  3.8000000000000D+00  0.0000000000000D+00  0.0000000000000D+00
382  3.8100000000000D+00  0.0000000000000D+00  0.0000000000000D+00
383  3.8200000000000D+00  0.0000000000000D+00  0.0000000000000D+00
384  3.8300000000000D+00  0.0000000000000D+00  0.0000000000000D+00
385  3.8400000000000D+00  0.0000000000000D+00  0.0000000000000D+00
386  3.8500000000000D+00  0.0000000000000D+00  0.0000000000000D+00
387  3.8600000000000D+00  0.0000000000000D+00  0.0000000000000D+00
388  3.8700000000000D+00  0.0000000000000D+00  0.0000000000000D+00
389  3.8800000000000D+00  0.0000000000000D+00  0.0000000000000D+00
390  3.8900000000000D+00  0.0000000000000D+00  0.0000000000000D+00
391  3.9000000000000D+00  0.0000000000000D+00  0.0000000000000D+00
392  3.9100000000000D+00  0.0000000000000D+00  0.0000000000000D+00
393  3.9200000000000D+00  0.0000000000000D+00  0.0000000000000D+00
394  3.9300000000000D+00  0.0000000000000D+00  0.0000000000000D+00
395  3.9400000000000D+00  0.0000000000000D+00  0.0000000000000D+00
396  3.9500000000000D+00  0.0000000000000D+00  0.0000000000000D+00
397  3.9600000000000D+00  0.0000000000000D+00  0.0000000000000D+00
398  3.9700000000000D+00  0.0000000000000D+00  0.0000000000000D+00
399  3.9800000000000D+00  0.0000000000000D+00  0.0000000000000D+00
400  3.9900000000000D+00  0.0000000000000D+00  0.0000000000000D+00
1                        -6.6055626953601D+00 -2.6638806359488D+00
1  0.0000000000000D+00 -1.5328759095379D-10  1.4971948680831D-10
2  1.0000000000000D-02  1.9788554395348D-03 -7.3721817787750D-04
3  2.0000000000000D-02  7.9069261984648D-03 -2.9427497581006D-03
4  3.0000000000000D-02  1.7758749872424D-02 -6.5982487572110D-03
5  4.0000000000000D-02  3.1491970139466D-02 -1.1673214896771D-02
6  5.0000000000000D-02  4.9047458645708D-02 -1.8125108507299D-02
7  6.0000000000000D-02  7.0349486348422D-02 -2.5899512105982D-02
8  7.0000000000000D-02  9.5305944991703D-02 -3.4930339328601D-02
9  8.0000000000000D-02  1.2380861954313D-01 -4.5140092045829D-02
10  9.0000000000000D-02  1.5573351254433D-01 -5.6440166611130D-02
11  1.0000000000000D-01  1.9094122141844D-01 -6.8731210265982D-02
12  1.1000000000000D-01  2.2927736982839D-01 -8.1903528762438D-02
13  1.2000000000000D-01  2.7057309418715D-01 -9.5837546248436D-02
14  1.3000000000000D-01  3.1464558638131D-01 -1.1040431839389D-01
15  1.4000000000000D-01  3.6129869367929D-01 -1.2546609961237D-01
16  1.5000000000000D-01  4.1032357665345D-01 -1.4087696505210D-01
17  1.6000000000000D-01  4.6149942574999D-01 -1.5648348778982D-01
18  1.7000000000000D-01  5.1459423689163D-01 -1.7212547136235D-01
19  1.8000000000000D-01  5.6936564619576D-01 -1.8763673741351D-01
20  1.9000000000000D-01  6.2556182353770D-01 -2.0284596782185D-01
21  2.0000000000000D-01  6.8292242428551D-01 -2.1757760020916D-01
22  2.1000000000000D-01  7.4117959808496D-01 -2.3165277521666D-01
23  2.2000000000000D-01  8.0005905308285D-01 -2.4489033337898D-01
24  2.3000000000000D-01  8.5928117345038D-01 -2.5710785883307D-01
25  2.4000000000000D-01  9.1856218751088D-01 -2.6812276647551D-01
26  2.5000000000000D-01  9.7761538319401D-01 -2.7775342853691D-01
27  2.6000000000000D-01  1.0361523669396D+00 -2.8582033588314D-01
28  2.7000000000000D-01  1.0938843615651D+00 -2.9214728869017D-01
29  2.8000000000000D-01  1.1505235379995D+00 -2.9656261048157D-01
30  2.9000000000000D-01  1.2057843751841D+00 -2.9890037887509D-01
31  3.0000000000000D-01  1.2593850418497D+00 -2.9900166576734D-01
32  3.1000000000000D-01  1.3110487933171D+00 -2.9671577910413D-01
33  3.2000000000000D-01  1.3605053759354D+00 -2.9190149784770D-01
34  3.3000000000000D-01  1.4074924312820D+00 -2.8442829127210D-01
35  3.4000000000000D-01  1.4517568918093D+00 -2.7417751330250D-01
36  3.5000000000000D-01  1.4930563592392D+00 -2.6104356227380D-01
37  3.6000000000000D-01  1.5311604566907D+00 -2.4493499622561D-01
38  3.7000000000000D-01  1.5658521452822D+00 -2.2577559368321D-01
39  3.8000000000000D-01  1.5969289957827D+00 -2.0350534980393D-01
40  3.9000000000000D-01  1.6242044058091D+00 -1.7808139780060D-01
41  4.0000000000000D-01  1.6475087530701D+00 -1.4947884569434D-01
42  4.1000000000000D-01  1.6666904752629D+00 -1.1769151869967D-01
43  4.2000000000000D-01  1.6816170674224D+00 -8.2732597909606D-02