Kr    ONCVPSP-3.2.3.1  r_core=   1.75984   1.50704   1.80233
36.0000      8.0000      170504    zatom,zion,pspd
8      11   2     4   600     0    pspcod,pspxc,lmax,lloc,mmax,r2well
5.99000000  7.00000000  0.00000000    rchrg fchrg qchrg
2     2     2     0     0    nproj
1     1           extension_switch
0                         8.3612944215345D+00  8.2127787727363D-01
1  0.0000000000000D+00 -9.5124574883698D-11  4.0476910712073D-10
2  1.0000000000000D-02  3.9502445139011D-02 -1.7017965498355D-02
3  2.0000000000000D-02  7.8963149961535D-02 -3.3942982146318D-02
4  3.0000000000000D-02  1.1834056499134D-01 -5.0682994819328D-02
5  4.0000000000000D-02  1.5759352022409D-01 -6.7147725878453D-02
6  5.0000000000000D-02  1.9668140936634D-01 -8.3249539101796D-02
7  6.0000000000000D-02  2.3556436754594D-01 -9.8904274131521D-02
8  7.0000000000000D-02  2.7420344043075D-01 -1.1403204208761D-01
9  8.0000000000000D-02  3.1256074278699D-01 -1.2855797340417D-01
10  9.0000000000000D-02  3.5059960462624D-01 -1.4241290944279D-01
11  1.0000000000000D-01  3.8828470322778D-01 -1.5553403002498D-01
12  1.1000000000000D-01  4.2558217948039D-01 -1.6786540969653D-01
13  1.2000000000000D-01  4.6245973716320D-01 -1.7935849628437D-01
14  1.3000000000000D-01  4.9888672397642D-01 -1.8997250612350D-01
15  1.4000000000000D-01  5.3483419333851D-01 -1.9967473121032D-01
16  1.5000000000000D-01  5.7027494618405D-01 -2.0844075447022D-01
17  1.6000000000000D-01  6.0518355222440D-01 -2.1625457030262D-01
18  1.7000000000000D-01  6.3953635036838D-01 -2.2310860857658D-01
19  1.8000000000000D-01  6.7331142824088D-01 -2.2900366128343D-01
20  1.9000000000000D-01  7.0648858098045D-01 -2.3394871210154D-01
21  2.0000000000000D-01  7.3904924974070D-01 -2.3796067017920D-01
22  2.1000000000000D-01  7.7097644056141D-01 -2.4106401048664D-01
23  2.2000000000000D-01  8.0225462451170D-01 -2.4329032411522D-01
24  2.3000000000000D-01  8.3286962023705D-01 -2.4467778290146D-01
25  2.4000000000000D-01  8.6280846026111D-01 -2.4527052371467D-01
26  2.5000000000000D-01  8.9205924260082D-01 -2.4511795866108D-01
27  2.6000000000000D-01  9.2061096944624D-01 -2.4427401831295D-01
28  2.7000000000000D-01  9.4845337483318D-01 -2.4279633586169D-01
29  2.8000000000000D-01  9.7557674339452D-01 -2.4074538080875D-01
30  2.9000000000000D-01  1.0019717224141D+00 -2.3818355144095D-01
31  3.0000000000000D-01  1.0276291295224D+00 -2.3517423588008D-01
32  3.1000000000000D-01  1.0525397584664D+00 -2.3178085194407D-01
33  3.2000000000000D-01  1.0766941854526D+00 -2.2806587640372D-01
34  3.3000000000000D-01  1.1000825786042D+00 -2.2408987445968D-01
35  3.4000000000000D-01  1.1226945130916D+00 -2.1991054039757D-01
36  3.5000000000000D-01  1.1445187944792D+00 -2.1558176039926D-01
37  3.6000000000000D-01  1.1655432927985D+00 -2.1115270839825D-01
38  3.7000000000000D-01  1.1857547897875D+00 -2.0666698566237D-01
39  3.8000000000000D-01  1.2051388416458D+00 -2.0216181447187D-01
40  3.9000000000000D-01  1.2236796595371D+00 -1.9766729583516D-01
41  4.0000000000000D-01  1.2413600099234D+00 -1.9320574065233D-01
42  4.1000000000000D-01  1.2581611366493D+00 -1.8879108310156D-01
43  4.2000000000000D-01  1.2740627065017D+00 -1.8442838429097D-01
44  4.3000000000000D-01  1.2890427797568D+00 -1.8011343339477D-01
45  4.4000000000000D-01  1.3030778069937D+00 -1.7583245258435D-01
46  4.5000000000000D-01  1.3161426532023D+00 -1.7156191108078D-01
47  4.6000000000000D-01  1.3282106499491D+00 -1.6726845260368D-01
48  4.7000000000000D-01  1.3392536760815D+00 -1.6290893938148D-01
49  4.8000000000000D-01  1.3492422671657D+00 -1.5843061473204D-01
50  4.9000000000000D-01  1.3581457535531D+00 -1.5377138502839D-01
51  5.0000000000000D-01  1.3659324266672D+00 -1.4886022064563D-01
52  5.1000000000000D-01  1.3725697328021D+00 -1.4361767425306D-01
53  5.2000000000000D-01  1.3780244934150D+00 -1.3795651358116D-01
54  5.3000000000000D-01  1.3822631506002D+00 -1.3178246456981D-01
55  5.4000000000000D-01  1.3852520361360D+00 -1.2499505960336D-01
56  5.5000000000000D-01  1.3869576622159D+00 -1.1748858437288D-01
57  5.6000000000000D-01  1.3873470317024D+00 -1.0915311578577D-01
58  5.7000000000000D-01  1.3863879654920D+00 -9.9875642284395D-02
59  5.8000000000000D-01  1.3840494443397D+00 -8.9541256941677D-02
60  5.9000000000000D-01  1.3803019622805D+00 -7.8034412794538D-02
61  6.0000000000000D-01  1.3751178885919D+00 -6.5240229052063D-02
62  6.1000000000000D-01  1.3684718350778D+00 -5.1045836097993D-02
63  6.2000000000000D-01  1.3603410253168D+00 -3.5341746591950D-02
64  6.3000000000000D-01  1.3507056624074D+00 -1.8023239478092D-02
65  6.4000000000000D-01  1.3395492916712D+00  1.0082566658688D-03
66  6.5000000000000D-01  1.3268591547250D+00  2.1843794754679D-02
67  6.6000000000000D-01  1.3126265313276D+00  4.4565568727788D-02
68  6.7000000000000D-01  1.2968470654249D+00  6.9245615402444D-02
69  6.8000000000000D-01  1.2795210718792D+00  9.5944572407318D-02
70  6.9000000000000D-01  1.2606538204583D+00  1.2471050566650D-01
71  7.0000000000000D-01  1.2402557937845D+00  1.5557781947947D-01
72  7.1000000000000D-01  1.2183429161077D+00  1.8856626168154D-01
73  7.2000000000000D-01  1.1949367499541D+00  2.2368003568289D-01
74  7.3000000000000D-01  1.1700646579278D+00  2.6090703037004D-01
75  7.4000000000000D-01  1.1437599271938D+00  3.0021817792314D-01
76  7.5000000000000D-01  1.1160618544532D+00  3.4156694856102D-01
77  7.6000000000000D-01  1.0870157895234D+00  3.8488899007796D-01
78  7.7000000000000D-01  1.0566731359687D+00  4.3010191880189D-01
79  7.8000000000000D-01  1.0250913075725D+00  4.7710526728262D-01
80  7.9000000000000D-01  9.9233363980880D-01  5.2578059262926D-01
81  8.0000000000000D-01  9.5846925585102D-01  5.7599174796825D-01
82  8.1000000000000D-01  9.2357288704564D-01  6.2758531800134D-01
83  8.2000000000000D-01  8.8772464817600D-01  6.8039121811924D-01
84  8.3000000000000D-01  8.5100976824268D-01  7.3422345498748D-01
85  8.4000000000000D-01  8.1351827788705D-01  7.8888104497897D-01
86  8.5000000000000D-01  7.7534465498175D-01  8.4414908529926D-01
87  8.6000000000000D-01  7.3658743030050D-01  8.9979997114895D-01
88  8.7000000000000D-01  6.9734875555721D-01  9.5559475080950D-01
89  8.8000000000000D-01  6.5773393646684D-01  1.0112846091365D+00
90  8.9000000000000D-01  6.1785093382378D-01  1.0666124686145D+00
91  9.0000000000000D-01  5.7780983591536D-01  1.1213146958805D+00
92  9.1000000000000D-01  5.3772230588383D-01  1.1751229004765D+00
93  9.2000000000000D-01  4.9770100791797D-01  1.2277658115516D+00
94  9.3000000000000D-01  4.5785901639185D-01  1.2789712173180D+00
95  9.4000000000000D-01  4.1830921227030D-01  1.3284679512764D+00
96  9.5000000000000D-01  3.7916367126751D-01  1.3759879085851D+00
97  9.6000000000000D-01  3.4053304837310D-01  1.4212680754414D+00
98  9.7000000000000D-01  3.0252596344877D-01  1.4640525540067D+00
99  9.8000000000000D-01  2.6524839264644D-01  1.5040945652167D+00
100  9.9000000000000D-01  2.2880307040401D-01  1.5411584117993D+00
101  1.0000000000000D+00  1.9328890673924D-01  1.5750213839628D+00
102  1.0100000000000D+00  1.5880042448481D-01  1.6054755905198D+00
103  1.0200000000000D+00  1.2542722098443D-01  1.6323296986883D+00
104  1.0300000000000D+00  9.3253458610179D-02  1.6554105664407D+00
105  1.0400000000000D+00  6.2357388259892D-02  1.6745647520480D+00
106  1.0500000000000D+00  3.2810909746777D-02  1.6896598864334D+00
107  1.0600000000000D+00  4.6791727251639D-03  1.7005858949897D+00
108  1.0700000000000D+00 -2.1979778514545D-02  1.7072560567259D+00
109  1.0800000000000D+00 -4.7115313405386D-02  1.7096078899958D+00
110  1.0900000000000D+00 -7.0684473995403D-02  1.7076038554374D+00
111  1.1000000000000D+00 -9.2652182176379D-02  1.7012318684107D+00
112  1.1100000000000D+00 -1.1299139342270D-01  1.6905056146528D+00
113  1.1200000000000D+00 -1.3168319569912D-01  1.6754646647496D+00
114  1.1300000000000D+00 -1.4871685262975D-01  1.6561743847069D+00
115  1.1400000000000D+00 -1.6408979050142D-01  1.6327256417619D+00
116  1.1500000000000D+00 -1.7780752909823D-01  1.6052343062149D+00
117  1.1600000000000D+00 -1.8988355686194D-01  1.5738405519836D+00
118  1.1700000000000D+00 -2.0033915135737D-01  1.5387079604481D+00
119  1.1800000000000D+00 -2.0920314649429D-01  1.5000224339711D+00
120  1.1900000000000D+00 -2.1651164828786D-01  1.4579909267454D+00
121  1.2000000000000D+00 -2.2230770152857D-01  1.4128400028794D+00
122  1.2100000000000D+00 -2.2664091007848D-01  1.3648142329420D+00
123  1.2200000000000D+00 -2.2956701388302D-01  1.3141744416066D+00
124  1.2300000000000D+00 -2.3114742611966D-01  1.2611958202926D+00
125  1.2400000000000D+00 -2.3144873435743D-01  1.2061659204023D+00
126  1.2500000000000D+00 -2.3054216980481D-01  1.1493825434956D+00
127  1.2600000000000D+00 -2.2850304891242D-01  1.0911515454619D+00
128  1.2700000000000D+00 -2.2541019201600D-01  1.0317845732695D+00
129  1.2800000000000D+00 -2.2134532371895D-01  9.7159675287742D-01
130  1.2900000000000D+00 -2.1639245985861D-01  9.1090434744808D-01
131  1.3000000000000D+00 -2.1063728611338D-01  8.5002240567151D-01
132  1.3100000000000D+00 -2.0416653317671D-01  7.8926241945623D-01
133  1.3200000000000D+00 -1.9706735358835D-01  7.2893001087938D-01
134  1.3300000000000D+00 -1.8942670515241D-01  6.6932266744440D-01
135  1.3400000000000D+00 -1.8133074575356D-01  6.1072754424083D-01
136  1.3500000000000D+00 -1.7286424448056D-01  5.5341935192948D-01
137  1.3600000000000D+00 -1.6411001336025D-01  4.9765834687515D-01
138  1.3700000000000D+00 -1.5514836420010D-01  4.4368844059918D-01
139  1.3800000000000D+00 -1.4605659467320D-01  3.9173544412285D-01
140  1.3900000000000D+00 -1.3690850695911D-01  3.4200545939374D-01
141  1.4000000000000D+00 -1.2777396310089D-01  2.9468343347531D-01
142  1.4100000000000D+00 -1.1871847942438D-01  2.4993188365800D-01
143  1.4200000000000D+00 -1.0980286300751D-01  2.0788980433861D-01
144  1.4300000000000D+00 -1.0108289274230D-01  1.6867176462814D-01
145  1.4400000000000D+00 -9.2609045868234D-02  1.3236719889324D-01
146  1.4500000000000D+00 -8.4426272717722D-02  9.9039899998591D-02
147  1.4600000000000D+00 -7.6573818496735D-02  6.8727707704114D-02
148  1.4700000000000D+00 -6.9085098153592D-02  4.1442424606487D-02
149  1.4800000000000D+00 -6.1987605256890D-02  1.7169845918327D-02
150  1.4900000000000D+00 -5.5302917107841D-02 -4.1297354909130D-03
151  1.5000000000000D+00 -4.9046659816782D-02 -2.2521330270151D-02
152  1.5100000000000D+00 -4.3228527051570D-02 -3.8094861086821D-02
153  1.5200000000000D+00 -3.7852714224836D-02 -5.0962313076784D-02
154  1.5300000000000D+00 -3.2918350894238D-02 -6.1255084218990D-02
155  1.5400000000000D+00 -2.8420097593530D-02 -6.9120642658915D-02
156  1.5500000000000D+00 -2.4348615537456D-02 -7.4720035364445D-02
157  1.5600000000000D+00 -2.0690844880863D-02 -7.8226695322953D-02
158  1.5700000000000D+00 -1.7430419376138D-02 -7.9824460833649D-02
159  1.5800000000000D+00 -1.4548090922875D-02 -7.9705583759086D-02
160  1.5900000000000D+00 -1.2022166307125D-02 -7.8068718570898D-02
161  1.6000000000000D+00 -9.8289587859330D-03 -7.5116856588321D-02
162  1.6100000000000D+00 -7.9432474964005D-03 -7.1055241804674D-02
163  1.6200000000000D+00 -6.3387409011934D-03 -6.6089281091672D-02
164  1.6300000000000D+00 -4.9885391080309D-03 -6.0422470625782D-02
165  1.6400000000000D+00 -3.8655908280873D-03 -5.4254355764682D-02
166  1.6500000000000D+00 -2.9431394436782D-03 -4.7778547034194D-02
167  1.6600000000000D+00 -2.1951548916475D-03 -4.1180805601446D-02
168  1.6700000000000D+00 -1.5967453823045D-03 -3.4637222710037D-02
169  1.6800000000000D+00 -1.1245467288997D-03 -2.8312502088698D-02
170  1.6900000000000D+00 -7.5708302320779D-04 -2.2358370946277D-02
171  1.7000000000000D+00 -4.7505178911495D-04 -1.6913714169543D-02
172  1.7100000000000D+00 -2.6168834657164D-04 -1.2100873033485D-02
173  1.7200000000000D+00 -1.0384091912750D-04 -8.0044457840708D-03
174  1.7300000000000D+00  9.1764642723614D-06 -4.7123609651232D-03
175  1.7400000000000D+00  9.1488478955867D-05 -2.3946218904000D-03
176  1.7500000000000D+00  1.4904590714762D-04 -1.0918231078266D-03
177  1.7600000000000D+00  1.5340250807584D-04 -4.7036101832510D-04
178  1.7700000000000D+00  8.4689051433267D-05 -1.4931520293143D-04
179  1.7800000000000D+00  5.9821640794175D-06 -7.4997608289332D-06
180  1.7900000000000D+00 -1.7485086614975D-05  1.7801944845367D-05
181  1.8000000000000D+00 -4.6954401445426D-06  3.8559348964064D-06
182  1.8100000000000D+00  3.6819952725076D-06 -5.2698252876933D-06
183  1.8200000000000D+00  1.9192659302420D-06 -2.5720690575224D-06
184  1.8300000000000D+00 -3.5679497115136D-07  1.1062105241422D-06
185  1.8400000000000D+00 -3.0948921620902D-07  9.5954331131454D-07
186  1.8500000000000D+00  0.0000000000000D+00  0.0000000000000D+00
187  1.8600000000000D+00  0.0000000000000D+00  0.0000000000000D+00
188  1.8700000000000D+00  0.0000000000000D+00  0.0000000000000D+00
189  1.8800000000000D+00  0.0000000000000D+00  0.0000000000000D+00
190  1.8900000000000D+00  0.0000000000000D+00  0.0000000000000D+00
191  1.9000000000000D+00  0.0000000000000D+00  0.0000000000000D+00
192  1.9100000000000D+00  0.0000000000000D+00  0.0000000000000D+00
193  1.9200000000000D+00  0.0000000000000D+00  0.0000000000000D+00
194  1.9300000000000D+00  0.0000000000000D+00  0.0000000000000D+00
195  1.9400000000000D+00  0.0000000000000D+00  0.0000000000000D+00
196  1.9500000000000D+00  0.0000000000000D+00  0.0000000000000D+00
197  1.9600000000000D+00  0.0000000000000D+00  0.0000000000000D+00
198  1.9700000000000D+00  0.0000000000000D+00  0.0000000000000D+00
199  1.9800000000000D+00  0.0000000000000D+00  0.0000000000000D+00
200  1.9900000000000D+00  0.0000000000000D+00  0.0000000000000D+00
201  2.0000000000000D+00  0.0000000000000D+00  0.0000000000000D+00
202  2.0100000000000D+00  0.0000000000000D+00  0.0000000000000D+00
203  2.0200000000000D+00  0.0000000000000D+00  0.0000000000000D+00
204  2.0300000000000D+00  0.0000000000000D+00  0.0000000000000D+00
205  2.0400000000000D+00  0.0000000000000D+00  0.0000000000000D+00
206  2.0500000000000D+00  0.0000000000000D+00  0.0000000000000D+00
207  2.0600000000000D+00  0.0000000000000D+00  0.0000000000000D+00
208  2.0700000000000D+00  0.0000000000000D+00  0.0000000000000D+00
209  2.0800000000000D+00  0.0000000000000D+00  0.0000000000000D+00
210  2.0900000000000D+00  0.0000000000000D+00  0.0000000000000D+00
211  2.1000000000000D+00  0.0000000000000D+00  0.0000000000000D+00
212  2.1100000000000D+00  0.0000000000000D+00  0.0000000000000D+00
213  2.1200000000000D+00  0.0000000000000D+00  0.0000000000000D+00
214  2.1300000000000D+00  0.0000000000000D+00  0.0000000000000D+00
215  2.1400000000000D+00  0.0000000000000D+00  0.0000000000000D+00
216  2.1500000000000D+00  0.0000000000000D+00  0.0000000000000D+00
217  2.1600000000000D+00  0.0000000000000D+00  0.0000000000000D+00
218  2.1700000000000D+00  0.0000000000000D+00  0.0000000000000D+00
219  2.1800000000000D+00  0.0000000000000D+00  0.0000000000000D+00
220  2.1900000000000D+00  0.0000000000000D+00  0.0000000000000D+00
221  2.2000000000000D+00  0.0000000000000D+00  0.0000000000000D+00
222  2.2100000000000D+00  0.0000000000000D+00  0.0000000000000D+00
223  2.2200000000000D+00  0.0000000000000D+00  0.0000000000000D+00
224  2.2300000000000D+00  0.0000000000000D+00  0.0000000000000D+00
225  2.2400000000000D+00  0.0000000000000D+00  0.0000000000000D+00
226  2.2500000000000D+00  0.0000000000000D+00  0.0000000000000D+00
227  2.2600000000000D+00  0.0000000000000D+00  0.0000000000000D+00
228  2.2700000000000D+00  0.0000000000000D+00  0.0000000000000D+00
229  2.2800000000000D+00  0.0000000000000D+00  0.0000000000000D+00
230  2.2900000000000D+00  0.0000000000000D+00  0.0000000000000D+00
231  2.3000000000000D+00  0.0000000000000D+00  0.0000000000000D+00
232  2.3100000000000D+00  0.0000000000000D+00  0.0000000000000D+00
233  2.3200000000000D+00  0.0000000000000D+00  0.0000000000000D+00
234  2.3300000000000D+00  0.0000000000000D+00  0.0000000000000D+00
235  2.3400000000000D+00  0.0000000000000D+00  0.0000000000000D+00
236  2.3500000000000D+00  0.0000000000000D+00  0.0000000000000D+00
237  2.3600000000000D+00  0.0000000000000D+00  0.0000000000000D+00
238  2.3700000000000D+00  0.0000000000000D+00  0.0000000000000D+00
239  2.3800000000000D+00  0.0000000000000D+00  0.0000000000000D+00
240  2.3900000000000D+00  0.0000000000000D+00  0.0000000000000D+00
241  2.4000000000000D+00  0.0000000000000D+00  0.0000000000000D+00
242  2.4100000000000D+00  0.0000000000000D+00  0.0000000000000D+00
243  2.4200000000000D+00  0.0000000000000D+00  0.0000000000000D+00
244  2.4300000000000D+00  0.0000000000000D+00  0.0000000000000D+00
245  2.4400000000000D+00  0.0000000000000D+00  0.0000000000000D+00
246  2.4500000000000D+00  0.0000000000000D+00  0.0000000000000D+00
247  2.4600000000000D+00  0.0000000000000D+00  0.0000000000000D+00
248  2.4700000000000D+00  0.0000000000000D+00  0.0000000000000D+00
249  2.4800000000000D+00  0.0000000000000D+00  0.0000000000000D+00
250  2.4900000000000D+00  0.0000000000000D+00  0.0000000000000D+00
251  2.5000000000000D+00  0.0000000000000D+00  0.0000000000000D+00
252  2.5100000000000D+00  0.0000000000000D+00  0.0000000000000D+00
253  2.5200000000000D+00  0.0000000000000D+00  0.0000000000000D+00
254  2.5300000000000D+00  0.0000000000000D+00  0.0000000000000D+00
255  2.5400000000000D+00  0.0000000000000D+00  0.0000000000000D+00
256  2.5500000000000D+00  0.0000000000000D+00  0.0000000000000D+00
257  2.5600000000000D+00  0.0000000000000D+00  0.0000000000000D+00
258  2.5700000000000D+00  0.0000000000000D+00  0.0000000000000D+00
259  2.5800000000000D+00  0.0000000000000D+00  0.0000000000000D+00
260  2.5900000000000D+00  0.0000000000000D+00  0.0000000000000D+00
261  2.6000000000000D+00  0.0000000000000D+00  0.0000000000000D+00
262  2.6100000000000D+00  0.0000000000000D+00  0.0000000000000D+00
263  2.6200000000000D+00  0.0000000000000D+00  0.0000000000000D+00
264  2.6300000000000D+00  0.0000000000000D+00  0.0000000000000D+00
265  2.6400000000000D+00  0.0000000000000D+00  0.0000000000000D+00
266  2.6500000000000D+00  0.0000000000000D+00  0.0000000000000D+00
267  2.6600000000000D+00  0.0000000000000D+00  0.0000000000000D+00
268  2.6700000000000D+00  0.0000000000000D+00  0.0000000000000D+00
269  2.6800000000000D+00  0.0000000000000D+00  0.0000000000000D+00
270  2.6900000000000D+00  0.0000000000000D+00  0.0000000000000D+00
271  2.7000000000000D+00  0.0000000000000D+00  0.0000000000000D+00
272  2.7100000000000D+00  0.0000000000000D+00  0.0000000000000D+00
273  2.7200000000000D+00  0.0000000000000D+00  0.0000000000000D+00
274  2.7300000000000D+00  0.0000000000000D+00  0.0000000000000D+00
275  2.7400000000000D+00  0.0000000000000D+00  0.0000000000000D+00
276  2.7500000000000D+00  0.0000000000000D+00  0.0000000000000D+00
277  2.7600000000000D+00  0.0000000000000D+00  0.0000000000000D+00
278  2.7700000000000D+00  0.0000000000000D+00  0.0000000000000D+00
279  2.7800000000000D+00  0.0000000000000D+00  0.0000000000000D+00
280  2.7900000000000D+00  0.0000000000000D+00  0.0000000000000D+00
281  2.8000000000000D+00  0.0000000000000D+00  0.0000000000000D+00
282  2.8100000000000D+00  0.0000000000000D+00  0.0000000000000D+00
283  2.8200000000000D+00  0.0000000000000D+00  0.0000000000000D+00
284  2.8300000000000D+00  0.0000000000000D+00  0.0000000000000D+00
285  2.8400000000000D+00  0.0000000000000D+00  0.0000000000000D+00
286  2.8500000000000D+00  0.0000000000000D+00  0.0000000000000D+00
287  2.8600000000000D+00  0.0000000000000D+00  0.0000000000000D+00
288  2.8700000000000D+00  0.0000000000000D+00  0.0000000000000D+00
289  2.8800000000000D+00  0.0000000000000D+00  0.0000000000000D+00
290  2.8900000000000D+00  0.0000000000000D+00  0.0000000000000D+00
291  2.9000000000000D+00  0.0000000000000D+00  0.0000000000000D+00
292  2.9100000000000D+00  0.0000000000000D+00  0.0000000000000D+00
293  2.9200000000000D+00  0.0000000000000D+00  0.0000000000000D+00
294  2.9300000000000D+00  0.0000000000000D+00  0.0000000000000D+00
295  2.9400000000000D+00  0.0000000000000D+00  0.0000000000000D+00
296  2.9500000000000D+00  0.0000000000000D+00  0.0000000000000D+00
297  2.9600000000000D+00  0.0000000000000D+00  0.0000000000000D+00
298  2.9700000000000D+00  0.0000000000000D+00  0.0000000000000D+00
299  2.9800000000000D+00  0.0000000000000D+00  0.0000000000000D+00
300  2.9900000000000D+00  0.0000000000000D+00  0.0000000000000D+00
301  3.0000000000000D+00  0.0000000000000D+00  0.0000000000000D+00
302  3.0100000000000D+00  0.0000000000000D+00  0.0000000000000D+00
303  3.0200000000000D+00  0.0000000000000D+00  0.0000000000000D+00
304  3.0300000000000D+00  0.0000000000000D+00  0.0000000000000D+00
305  3.0400000000000D+00  0.0000000000000D+00  0.0000000000000D+00
306  3.0500000000000D+00  0.0000000000000D+00  0.0000000000000D+00
307  3.0600000000000D+00  0.0000000000000D+00  0.0000000000000D+00
308  3.0700000000000D+00  0.0000000000000D+00  0.0000000000000D+00
309  3.0800000000000D+00  0.0000000000000D+00  0.0000000000000D+00
310  3.0900000000000D+00  0.0000000000000D+00  0.0000000000000D+00
311  3.1000000000000D+00  0.0000000000000D+00  0.0000000000000D+00
312  3.1100000000000D+00  0.0000000000000D+00  0.0000000000000D+00
313  3.1200000000000D+00  0.0000000000000D+00  0.0000000000000D+00
314  3.1300000000000D+00  0.0000000000000D+00  0.0000000000000D+00
315  3.1400000000000D+00  0.0000000000000D+00  0.0000000000000D+00
316  3.1500000000000D+00  0.0000000000000D+00  0.0000000000000D+00
317  3.1600000000000D+00  0.0000000000000D+00  0.0000000000000D+00
318  3.1700000000000D+00  0.0000000000000D+00  0.0000000000000D+00
319  3.1800000000000D+00  0.0000000000000D+00  0.0000000000000D+00
320  3.1900000000000D+00  0.0000000000000D+00  0.0000000000000D+00
321  3.2000000000000D+00  0.0000000000000D+00  0.0000000000000D+00
322  3.2100000000000D+00  0.0000000000000D+00  0.0000000000000D+00
323  3.2200000000000D+00  0.0000000000000D+00  0.0000000000000D+00
324  3.2300000000000D+00  0.0000000000000D+00  0.0000000000000D+00
325  3.2400000000000D+00  0.0000000000000D+00  0.0000000000000D+00
326  3.2500000000000D+00  0.0000000000000D+00  0.0000000000000D+00
327  3.2600000000000D+00  0.0000000000000D+00  0.0000000000000D+00
328  3.2700000000000D+00  0.0000000000000D+00  0.0000000000000D+00
329  3.2800000000000D+00  0.0000000000000D+00  0.0000000000000D+00
330  3.2900000000000D+00  0.0000000000000D+00  0.0000000000000D+00
331  3.3000000000000D+00  0.0000000000000D+00  0.0000000000000D+00
332  3.3100000000000D+00  0.0000000000000D+00  0.0000000000000D+00
333  3.3200000000000D+00  0.0000000000000D+00  0.0000000000000D+00
334  3.3300000000000D+00  0.0000000000000D+00  0.0000000000000D+00
335  3.3400000000000D+00  0.0000000000000D+00  0.0000000000000D+00
336  3.3500000000000D+00  0.0000000000000D+00  0.0000000000000D+00
337  3.3600000000000D+00  0.0000000000000D+00  0.0000000000000D+00
338  3.3700000000000D+00  0.0000000000000D+00  0.0000000000000D+00
339  3.3800000000000D+00  0.0000000000000D+00  0.0000000000000D+00
340  3.3900000000000D+00  0.0000000000000D+00  0.0000000000000D+00
341  3.4000000000000D+00  0.0000000000000D+00  0.0000000000000D+00
342  3.4100000000000D+00  0.0000000000000D+00  0.0000000000000D+00
343  3.4200000000000D+00  0.0000000000000D+00  0.0000000000000D+00
344  3.4300000000000D+00  0.0000000000000D+00  0.0000000000000D+00
345  3.4400000000000D+00  0.0000000000000D+00  0.0000000000000D+00
346  3.4500000000000D+00  0.0000000000000D+00  0.0000000000000D+00
347  3.4600000000000D+00  0.0000000000000D+00  0.0000000000000D+00
348  3.4700000000000D+00  0.0000000000000D+00  0.0000000000000D+00
349  3.4800000000000D+00  0.0000000000000D+00  0.0000000000000D+00
350  3.4900000000000D+00  0.0000000000000D+00  0.0000000000000D+00
351  3.5000000000000D+00  0.0000000000000D+00  0.0000000000000D+00
352  3.5100000000000D+00  0.0000000000000D+00  0.0000000000000D+00
353  3.5200000000000D+00  0.0000000000000D+00  0.0000000000000D+00
354  3.5300000000000D+00  0.0000000000000D+00  0.0000000000000D+00
355  3.5400000000000D+00  0.0000000000000D+00  0.0000000000000D+00
356  3.5500000000000D+00  0.0000000000000D+00  0.0000000000000D+00
357  3.5600000000000D+00  0.0000000000000D+00  0.0000000000000D+00
358  3.5700000000000D+00  0.0000000000000D+00  0.0000000000000D+00
359  3.5800000000000D+00  0.0000000000000D+00  0.0000000000000D+00
360  3.5900000000000D+00  0.0000000000000D+00  0.0000000000000D+00
361  3.6000000000000D+00  0.0000000000000D+00  0.0000000000000D+00
362  3.6100000000000D+00  0.0000000000000D+00  0.0000000000000D+00
363  3.6200000000000D+00  0.0000000000000D+00  0.0000000000000D+00
364  3.6300000000000D+00  0.0000000000000D+00  0.0000000000000D+00
365  3.6400000000000D+00  0.0000000000000D+00  0.0000000000000D+00
366  3.6500000000000D+00  0.0000000000000D+00  0.0000000000000D+00
367  3.6600000000000D+00  0.0000000000000D+00  0.0000000000000D+00
368  3.6700000000000D+00  0.0000000000000D+00  0.0000000000000D+00
369  3.6800000000000D+00  0.0000000000000D+00  0.0000000000000D+00
370  3.6900000000000D+00  0.0000000000000D+00  0.0000000000000D+00
371  3.7000000000000D+00  0.0000000000000D+00  0.0000000000000D+00
372  3.7100000000000D+00  0.0000000000000D+00  0.0000000000000D+00
373  3.7200000000000D+00  0.0000000000000D+00  0.0000000000000D+00
374  3.7300000000000D+00  0.0000000000000D+00  0.0000000000000D+00
375  3.7400000000000D+00  0.0000000000000D+00  0.0000000000000D+00
376  3.7500000000000D+00  0.0000000000000D+00  0.0000000000000D+00
377  3.7600000000000D+00  0.0000000000000D+00  0.0000000000000D+00
378  3.7700000000000D+00  0.0000000000000D+00  0.0000000000000D+00
379  3.7800000000000D+00  0.0000000000000D+00  0.0000000000000D+00
380  3.7900000000000D+00  0.0000000000000D+00  0.0000000000000D+00
381  3.8000000000000D+00  0.0000000000000D+00  0.0000000000000D+00
382  3.8100000000000D+00  0.0000000000000D+00  0.0000000000000D+00
383  3.8200000000000D+00  0.0000000000000D+00  0.0000000000000D+00
384  3.8300000000000D+00  0.0000000000000D+00  0.0000000000000D+00
385  3.8400000000000D+00  0.0000000000000D+00  0.0000000000000D+00
386  3.8500000000000D+00  0.0000000000000D+00  0.0000000000000D+00
387  3.8600000000000D+00  0.0000000000000D+00  0.0000000000000D+00
388  3.8700000000000D+00  0.0000000000000D+00  0.0000000000000D+00
389  3.8800000000000D+00  0.0000000000000D+00  0.0000000000000D+00
390  3.8900000000000D+00  0.0000000000000D+00  0.0000000000000D+00
391  3.9000000000000D+00  0.0000000000000D+00  0.0000000000000D+00
392  3.9100000000000D+00  0.0000000000000D+00  0.0000000000000D+00
393  3.9200000000000D+00  0.0000000000000D+00  0.0000000000000D+00
394  3.9300000000000D+00  0.0000000000000D+00  0.0000000000000D+00
395  3.9400000000000D+00  0.0000000000000D+00  0.0000000000000D+00
396  3.9500000000000D+00  0.0000000000000D+00  0.0000000000000D+00
397  3.9600000000000D+00  0.0000000000000D+00  0.0000000000000D+00
398  3.9700000000000D+00  0.0000000000000D+00  0.0000000000000D+00
399  3.9800000000000D+00  0.0000000000000D+00  0.0000000000000D+00
400  3.9900000000000D+00  0.0000000000000D+00  0.0000000000000D+00
401  4.0000000000000D+00  0.0000000000000D+00  0.0000000000000D+00
402  4.0100000000000D+00  0.0000000000000D+00  0.0000000000000D+00
403  4.0200000000000D+00  0.0000000000000D+00  0.0000000000000D+00
404  4.0300000000000D+00  0.0000000000000D+00  0.0000000000000D+00
405  4.0400000000000D+00  0.0000000000000D+00  0.0000000000000D+00
406  4.0500000000000D+00  0.0000000000000D+00  0.0000000000000D+00
407  4.0600000000000D+00  0.0000000000000D+00  0.0000000000000D+00
408  4.0700000000000D+00  0.0000000000000D+00  0.0000000000000D+00
409  4.0800000000000D+00  0.0000000000000D+00  0.0000000000000D+00
410  4.0900000000000D+00  0.0000000000000D+00  0.0000000000000D+00
411  4.1000000000000D+00  0.0000000000000D+00  0.0000000000000D+00
412  4.1100000000000D+00  0.0000000000000D+00  0.0000000000000D+00
413  4.1200000000000D+00  0.0000000000000D+00  0.0000000000000D+00
414  4.1300000000000D+00  0.0000000000000D+00  0.0000000000000D+00
415  4.1400000000000D+00  0.0000000000000D+00  0.0000000000000D+00
416  4.1500000000000D+00  0.0000000000000D+00  0.0000000000000D+00
417  4.1600000000000D+00  0.0000000000000D+00  0.0000000000000D+00
418  4.1700000000000D+00  0.0000000000000D+00  0.0000000000000D+00
419  4.1800000000000D+00  0.0000000000000D+00  0.0000000000000D+00
420  4.1900000000000D+00  0.0000000000000D+00  0.0000000000000D+00
421  4.2000000000000D+00  0.0000000000000D+00  0.0000000000000D+00
422  4.2100000000000D+00  0.0000000000000D+00  0.0000000000000D+00
423  4.2200000000000D+00  0.0000000000000D+00  0.0000000000000D+00
424  4.2300000000000D+00  0.0000000000000D+00  0.0000000000000D+00
425  4.2400000000000D+00  0.0000000000000D+00  0.0000000000000D+00
426  4.2500000000000D+00  0.0000000000000D+00  0.0000000000000D+00
427  4.2600000000000D+00  0.0000000000000D+00  0.0000000000000D+00
428  4.2700000000000D+00  0.0000000000000D+00  0.0000000000000D+00
429  4.2800000000000D+00  0.0000000000000D+00  0.0000000000000D+00
430  4.2900000000000D+00  0.0000000000000D+00  0.0000000000000D+00
431  4.3000000000000D+00  0.0000000000000D+00  0.0000000000000D+00
432  4.3100000000000D+00  0.0000000000000D+00  0.0000000000000D+00
433  4.3200000000000D+00  0.0000000000000D+00  0.0000000000000D+00
434  4.3300000000000D+00  0.0000000000000D+00  0.0000000000000D+00
435  4.3400000000000D+00  0.0000000000000D+00  0.0000000000000D+00
436  4.3500000000000D+00  0.0000000000000D+00  0.0000000000000D+00
437  4.3600000000000D+00  0.0000000000000D+00  0.0000000000000D+00
438  4.3700000000000D+00  0.0000000000000D+00  0.0000000000000D+00
439  4.3800000000000D+00  0.0000000000000D+00  0.0000000000000D+00
440  4.3900000000000D+00  0.0000000000000D+00  0.0000000000000D+00
441  4.4000000000000D+00  0.0000000000000D+00  0.0000000000000D+00
442  4.4100000000000D+00  0.0000000000000D+00  0.0000000000000D+00
443  4.4200000000000D+00  0.0000000000000D+00  0.0000000000000D+00