N     ONCVPSP  r_core=  1.26  1.46  1.26
7.0000      5.0000      150124    zatom,zion,pspd
8      11   2     4   600     0    pspcod,pspxc,lmax,lloc,mmax,r2well
5.99000000  0.10000000  0.00000000    rchrg fchrg qchrg
2     2     1     0     0    nproj
0                 extension_switch
0                         6.3214974997889D+00  7.2220958871919D-01
1  0.0000000000000D+00  0.0000000000000D+00 -0.0000000000000D+00
2  1.0000000000000D-02  9.3418034030589D-02 -6.2259434326412D-02
3  2.0000000000000D-02  1.8629788047017D-01 -1.2308758283237D-01
4  3.0000000000000D-02  2.7810907463470D-01 -1.8108163522501D-01
5  4.0000000000000D-02  3.6833645691001D-01 -2.3489518043860D-01
6  5.0000000000000D-02  4.5648747605947D-01 -2.8326503714354D-01
7  6.0000000000000D-02  5.4209908077303D-01 -3.2503647040457D-01
8  7.0000000000000D-02  6.2474407427776D-01 -3.5918630451797D-01
9  8.0000000000000D-02  7.0403681682679D-01 -3.8484348180142D-01
10  9.0000000000000D-02  7.7963817314267D-01 -4.0130666580303D-01
11  1.0000000000000D-01  8.5125961597661D-01 -4.0805854336686D-01
12  1.1000000000000D-01  9.1866641271911D-01 -4.0477654266447D-01
13  1.2000000000000D-01  9.8167983926724D-01 -3.9133975282485D-01
14  1.3000000000000D-01  1.0401783834539D+00 -3.6783190267967D-01
15  1.4000000000000D-01  1.0940979192370D+00 -3.3454033123600D-01
16  1.5000000000000D-01  1.1434308524329D+00 -2.9195095971857D-01
17  1.6000000000000D-01  1.1882242576092D+00 -2.4073935055087D-01
18  1.7000000000000D-01  1.2285770450460D+00 -1.8175801379293D-01
19  1.8000000000000D-01  1.2646362151265D+00 -1.1602019619549D-01
20  1.9000000000000D-01  1.2965922721907D+00 -4.4680443653973D-02
21  2.0000000000000D-01  1.3246738945880D+00  3.0987669873450D-02
22  2.1000000000000D-01  1.3491419503844D+00  1.0961629203458D-01
23  2.2000000000000D-01  1.3702829954742D+00  1.8976996495206D-01
24  2.3000000000000D-01  1.3884023601820D+00  2.6997380241918D-01
25  2.4000000000000D-01  1.4038169800081D+00  3.4874254438426D-01
26  2.5000000000000D-01  1.4168480685873D+00  4.2461010291480D-01
27  2.6000000000000D-01  1.4278138518447D+00  4.9615871682613D-01
28  2.7000000000000D-01  1.4370223880828D+00  5.6204763031587D-01
29  2.8000000000000D-01  1.4447647484759D+00  6.2104018927029D-01
30  2.9000000000000D-01  1.4513085775880D+00  6.7202929015205D-01
31  3.0000000000000D-01  1.4568922152063D+00  7.1406045639690D-01
32  3.1000000000000D-01  1.4617194839897D+00  7.4635213089966D-01
33  3.2000000000000D-01  1.4659552709630D+00  7.6831268009655D-01
34  3.3000000000000D-01  1.4697218985943D+00  7.7955413051961D-01
35  3.4000000000000D-01  1.4730964654965D+00  7.7990192442691D-01
36  3.5000000000000D-01  1.4761092388003D+00  7.6940038694477D-01
37  3.6000000000000D-01  1.4787428729364D+00  7.4831478013489D-01
38  3.7000000000000D-01  1.4809328677185D+00  7.1712834503319D-01
39  3.8000000000000D-01  1.4825689779528D+00  6.7653547147707D-01
40  3.9000000000000D-01  1.4834975308737D+00  6.2743113476944D-01
41  4.0000000000000D-01  1.4835248838026D+00  5.7089577283000D-01
42  4.1000000000000D-01  1.4824216732082D+00  5.0817692434548D-01
43  4.2000000000000D-01  1.4799279142451D+00  4.4066743291968D-01
44  4.3000000000000D-01  1.4757588352723D+00  3.6988068358735D-01
45  4.4000000000000D-01  1.4696113357453D+00  2.9742332468579D-01
46  4.5000000000000D-01  1.4611709461358D+00  2.2496596733201D-01
47  4.6000000000000D-01  1.4501191576253D+00  1.5421239825137D-01
48  4.7000000000000D-01  1.4361409787362D+00  8.6867884114565D-02
49  4.8000000000000D-01  1.4189324233565D+00  2.4607798004736D-02
50  4.9000000000000D-01  1.3982084417516D+00 -3.0955669540273D-02
51  5.0000000000000D-01  1.3737101022222D+00 -7.8303613927375D-02
52  5.1000000000000D-01  1.3452114306780D+00 -1.1603915965053D-01
53  5.2000000000000D-01  1.3125260303248D+00 -1.4291537529918D-01
54  5.3000000000000D-01  1.2755136126998D+00 -1.5786294612813D-01
55  5.4000000000000D-01  1.2340838302536D+00 -1.6000651384800D-01
56  5.5000000000000D-01  1.1882022183926D+00 -1.4869021611629D-01
57  5.6000000000000D-01  1.1378922161572D+00 -1.2348671883350D-01
58  5.7000000000000D-01  1.0832384944326D+00 -8.4212077801457D-02
59  5.8000000000000D-01  1.0243876264506D+00 -3.0929510721807D-02
60  5.9000000000000D-01  9.6154902683680D-01  3.6045369538517D-02
61  6.0000000000000D-01  8.9499294414813D-01  1.1615175686734D-01
62  6.1000000000000D-01  8.2505006778814D-01  2.0858334453122D-01
63  6.2000000000000D-01  7.5210660369450D-01  3.1230768223541D-01
64  6.3000000000000D-01  6.7660163270055D-01  4.2607475038162D-01
65  6.4000000000000D-01  5.9902121982289D-01  5.4843972230310D-01
66  6.5000000000000D-01  5.1989243955348D-01  6.7778600688794D-01
67  6.6000000000000D-01  4.3977682270784D-01  8.1234958989007D-01
68  6.7000000000000D-01  3.5926254121206D-01  9.5024955623169D-01
69  6.8000000000000D-01  2.7895650088501D-01  1.0895186364387D+00
70  6.9000000000000D-01  1.9947643056976D-01  1.2281338847666D+00
71  7.0000000000000D-01  1.2144059446570D-01  1.3640557974840D+00
72  7.1000000000000D-01  4.5460178627400D-02  1.4952584974203D+00
73  7.2000000000000D-01 -2.7869866528071D-02  1.6197649609923D+00
74  7.3000000000000D-01 -9.7979496062537D-02  1.7356805571124D+00
75  7.4000000000000D-01 -1.6433137118584D-01  1.8412232757132D+00
76  7.5000000000000D-01 -2.2643005767037D-01  1.9347590008149D+00
77  7.6000000000000D-01 -2.8382862478382D-01  2.0148270287376D+00
78  7.7000000000000D-01 -3.3613468952100D-01  2.0801632764230D+00
79  7.8000000000000D-01 -3.8301632611176D-01  2.1297227764325D+00
80  7.9000000000000D-01 -4.2420673604058D-01  2.1626973323372D+00
81  8.0000000000000D-01 -4.5950787647947D-01  2.1785290475466D+00
82  8.1000000000000D-01 -4.8879298371372D-01  2.1769194816494D+00
83  8.2000000000000D-01 -5.1200794837704D-01  2.1578342698856D+00
84  8.3000000000000D-01 -5.2917152018262D-01  2.1215031253548D+00
85  8.4000000000000D-01 -5.4037434094064D-01  2.0684152283984D+00
86  8.5000000000000D-01 -5.4577682562252D-01  1.9993100917782D+00
87  8.6000000000000D-01 -5.4560593173645D-01  1.9151640724834D+00
88  8.7000000000000D-01 -5.4015087702345D-01  1.8171727800464D+00
89  8.8000000000000D-01 -5.2975788420757D-01  1.7067297060741D+00
90  8.9000000000000D-01 -5.1482404899409D-01  1.5854014693217D+00
91  9.0000000000000D-01 -4.9579044346378D-01  1.4549001340695D+00
92  9.1000000000000D-01 -4.7313458119843D-01  1.3170531157296D+00
93  9.2000000000000D-01 -4.4736238258720D-01  1.1737712352840D+00
94  9.3000000000000D-01 -4.1899978844540D-01  1.0270155218537D+00
95  9.4000000000000D-01 -3.8858417689729D-01  8.7876338868852D-01
96  9.5000000000000D-01 -3.5665574195178D-01  7.3097482019890D-01
97  9.6000000000000D-01 -3.2375011016698D-01  5.8556384190928D-01
98  9.7000000000000D-01 -2.9038764959995D-01  4.4435622596803D-01
99  9.8000000000000D-01 -2.5706656143669D-01  3.0906348774803D-01
100  9.9000000000000D-01 -2.2425607892571D-01  1.8125703025844D-01
101  1.0000000000000D+00 -1.9238953638866D-01  6.2341870264161D-02
102  1.0100000000000D+00 -1.6185856595567D-01 -4.6464899433619D-02
103  1.0200000000000D+00 -1.3300838053612D-01 -1.4415117232388D-01
104  1.0300000000000D+00 -1.0613714516035D-01 -2.2991080661800D-01
105  1.0400000000000D+00 -8.1481221197181D-02 -3.0319955506637D-01
106  1.0500000000000D+00 -5.9224705208048D-02 -3.6369523923049D-01
107  1.0600000000000D+00 -3.9495333688380D-02 -4.1131168858927D-01
108  1.0700000000000D+00 -2.2364847929926D-02 -4.4619488368612D-01
109  1.0800000000000D+00 -7.8543664321035D-03 -4.6870068343502D-01
110  1.0900000000000D+00  4.0777582764623D-03 -4.7943612048574D-01
111  1.1000000000000D+00  1.3517541174078D-02 -4.7918691958973D-01
112  1.1100000000000D+00  2.0595478039453D-02 -4.6891445812900D-01
113  1.1200000000000D+00  2.5480389209133D-02 -4.4973078853541D-01
114  1.1300000000000D+00  2.8380166404064D-02 -4.2289363050879D-01
115  1.1400000000000D+00  2.9529153917241D-02 -3.8975522167234D-01
116  1.1500000000000D+00  2.9181399407259D-02 -3.5173475258966D-01
117  1.1600000000000D+00  2.7607141324269D-02 -3.1030529805830D-01
118  1.1700000000000D+00  2.5083656508513D-02 -2.6694261377549D-01
119  1.1800000000000D+00  2.1885911661047D-02 -2.2309417821018D-01
120  1.1900000000000D+00  1.8283910333641D-02 -1.8016853909019D-01
121  1.2000000000000D+00  1.4537111613052D-02 -1.3950888196978D-01
122  1.2100000000000D+00  1.0875919206559D-02 -1.0230646926945D-01
123  1.2200000000000D+00  7.5084869719925D-03 -6.9640467871142D-02
124  1.2300000000000D+00  4.6239048259775D-03 -4.2493170663169D-02
125  1.2400000000000D+00  2.3552019387796D-03 -2.1573489270054D-02
126  1.2500000000000D+00  8.1103846023912D-04 -7.4972581312717D-03
127  1.2600000000000D+00  1.0088376814532D-04 -1.0151451800005D-03
128  1.2700000000000D+00 -7.9459542346563D-05  6.6651107701862D-04
129  1.2800000000000D+00  2.6939333323345D-07 -1.6606042844062D-06
130  1.2900000000000D+00  1.5543171269796D-06 -9.5811787523027D-06
131  1.3000000000000D+00  0.0000000000000D+00  0.0000000000000D+00
132  1.3100000000000D+00  0.0000000000000D+00  0.0000000000000D+00
133  1.3200000000000D+00  0.0000000000000D+00  0.0000000000000D+00
134  1.3300000000000D+00  0.0000000000000D+00  0.0000000000000D+00
135  1.3400000000000D+00  0.0000000000000D+00  0.0000000000000D+00
136  1.3500000000000D+00  0.0000000000000D+00  0.0000000000000D+00
137  1.3600000000000D+00  0.0000000000000D+00  0.0000000000000D+00
138  1.3700000000000D+00  0.0000000000000D+00  0.0000000000000D+00
139  1.3800000000000D+00  0.0000000000000D+00  0.0000000000000D+00
140  1.3900000000000D+00  0.0000000000000D+00  0.0000000000000D+00
141  1.4000000000000D+00  0.0000000000000D+00  0.0000000000000D+00
142  1.4100000000000D+00  0.0000000000000D+00  0.0000000000000D+00
143  1.4200000000000D+00  0.0000000000000D+00  0.0000000000000D+00
144  1.4300000000000D+00  0.0000000000000D+00  0.0000000000000D+00
145  1.4400000000000D+00  0.0000000000000D+00  0.0000000000000D+00
146  1.4500000000000D+00  0.0000000000000D+00  0.0000000000000D+00
147  1.4600000000000D+00  0.0000000000000D+00  0.0000000000000D+00
148  1.4700000000000D+00  0.0000000000000D+00  0.0000000000000D+00
149  1.4800000000000D+00  0.0000000000000D+00  0.0000000000000D+00
150  1.4900000000000D+00  0.0000000000000D+00  0.0000000000000D+00
151  1.5000000000000D+00  0.0000000000000D+00  0.0000000000000D+00
152  1.5100000000000D+00  0.0000000000000D+00  0.0000000000000D+00
153  1.5200000000000D+00  0.0000000000000D+00  0.0000000000000D+00
154  1.5300000000000D+00  0.0000000000000D+00  0.0000000000000D+00
155  1.5400000000000D+00  0.0000000000000D+00  0.0000000000000D+00
156  1.5500000000000D+00  0.0000000000000D+00  0.0000000000000D+00
157  1.5600000000000D+00  0.0000000000000D+00  0.0000000000000D+00
158  1.5700000000000D+00  0.0000000000000D+00  0.0000000000000D+00
159  1.5800000000000D+00  0.0000000000000D+00  0.0000000000000D+00
160  1.5900000000000D+00  0.0000000000000D+00  0.0000000000000D+00
161  1.6000000000000D+00  0.0000000000000D+00  0.0000000000000D+00
162  1.6100000000000D+00  0.0000000000000D+00  0.0000000000000D+00
163  1.6200000000000D+00  0.0000000000000D+00  0.0000000000000D+00
164  1.6300000000000D+00  0.0000000000000D+00  0.0000000000000D+00
165  1.6400000000000D+00  0.0000000000000D+00  0.0000000000000D+00
166  1.6500000000000D+00  0.0000000000000D+00  0.0000000000000D+00
167  1.6600000000000D+00  0.0000000000000D+00  0.0000000000000D+00
168  1.6700000000000D+00  0.0000000000000D+00  0.0000000000000D+00
169  1.6800000000000D+00  0.0000000000000D+00  0.0000000000000D+00
170  1.6900000000000D+00  0.0000000000000D+00  0.0000000000000D+00
171  1.7000000000000D+00  0.0000000000000D+00  0.0000000000000D+00
172  1.7100000000000D+00  0.0000000000000D+00  0.0000000000000D+00
173  1.7200000000000D+00  0.0000000000000D+00  0.0000000000000D+00
174  1.7300000000000D+00  0.0000000000000D+00  0.0000000000000D+00
175  1.7400000000000D+00  0.0000000000000D+00  0.0000000000000D+00
176  1.7500000000000D+00  0.0000000000000D+00  0.0000000000000D+00
177  1.7600000000000D+00  0.0000000000000D+00  0.0000000000000D+00
178  1.7700000000000D+00  0.0000000000000D+00  0.0000000000000D+00
179  1.7800000000000D+00  0.0000000000000D+00  0.0000000000000D+00
180  1.7900000000000D+00  0.0000000000000D+00  0.0000000000000D+00
181  1.8000000000000D+00  0.0000000000000D+00  0.0000000000000D+00
182  1.8100000000000D+00  0.0000000000000D+00  0.0000000000000D+00
183  1.8200000000000D+00  0.0000000000000D+00  0.0000000000000D+00
184  1.8300000000000D+00  0.0000000000000D+00  0.0000000000000D+00
185  1.8400000000000D+00  0.0000000000000D+00  0.0000000000000D+00
186  1.8500000000000D+00  0.0000000000000D+00  0.0000000000000D+00
187  1.8600000000000D+00  0.0000000000000D+00  0.0000000000000D+00
188  1.8700000000000D+00  0.0000000000000D+00  0.0000000000000D+00
189  1.8800000000000D+00  0.0000000000000D+00  0.0000000000000D+00
190  1.8900000000000D+00  0.0000000000000D+00  0.0000000000000D+00
191  1.9000000000000D+00  0.0000000000000D+00  0.0000000000000D+00
192  1.9100000000000D+00  0.0000000000000D+00  0.0000000000000D+00
193  1.9200000000000D+00  0.0000000000000D+00  0.0000000000000D+00
194  1.9300000000000D+00  0.0000000000000D+00  0.0000000000000D+00
195  1.9400000000000D+00  0.0000000000000D+00  0.0000000000000D+00
196  1.9500000000000D+00  0.0000000000000D+00  0.0000000000000D+00
197  1.9600000000000D+00  0.0000000000000D+00  0.0000000000000D+00
198  1.9700000000000D+00  0.0000000000000D+00  0.0000000000000D+00
199  1.9800000000000D+00  0.0000000000000D+00  0.0000000000000D+00
200  1.9900000000000D+00  0.0000000000000D+00  0.0000000000000D+00
201  2.0000000000000D+00  0.0000000000000D+00  0.0000000000000D+00
202  2.0100000000000D+00  0.0000000000000D+00  0.0000000000000D+00
203  2.0200000000000D+00  0.0000000000000D+00  0.0000000000000D+00
204  2.0300000000000D+00  0.0000000000000D+00  0.0000000000000D+00
205  2.0400000000000D+00  0.0000000000000D+00  0.0000000000000D+00
206  2.0500000000000D+00  0.0000000000000D+00  0.0000000000000D+00
207  2.0600000000000D+00  0.0000000000000D+00  0.0000000000000D+00
208  2.0700000000000D+00  0.0000000000000D+00  0.0000000000000D+00
209  2.0800000000000D+00  0.0000000000000D+00  0.0000000000000D+00
210  2.0900000000000D+00  0.0000000000000D+00  0.0000000000000D+00
211  2.1000000000000D+00  0.0000000000000D+00  0.0000000000000D+00
212  2.1100000000000D+00  0.0000000000000D+00  0.0000000000000D+00
213  2.1200000000000D+00  0.0000000000000D+00  0.0000000000000D+00
214  2.1300000000000D+00  0.0000000000000D+00  0.0000000000000D+00
215  2.1400000000000D+00  0.0000000000000D+00  0.0000000000000D+00
216  2.1500000000000D+00  0.0000000000000D+00  0.0000000000000D+00
217  2.1600000000000D+00  0.0000000000000D+00  0.0000000000000D+00
218  2.1700000000000D+00  0.0000000000000D+00  0.0000000000000D+00
219  2.1800000000000D+00  0.0000000000000D+00  0.0000000000000D+00
220  2.1900000000000D+00  0.0000000000000D+00  0.0000000000000D+00
221  2.2000000000000D+00  0.0000000000000D+00  0.0000000000000D+00
222  2.2100000000000D+00  0.0000000000000D+00  0.0000000000000D+00
223  2.2200000000000D+00  0.0000000000000D+00  0.0000000000000D+00
224  2.2300000000000D+00  0.0000000000000D+00  0.0000000000000D+00
225  2.2400000000000D+00  0.0000000000000D+00  0.0000000000000D+00
226  2.2500000000000D+00  0.0000000000000D+00  0.0000000000000D+00
227  2.2600000000000D+00  0.0000000000000D+00  0.0000000000000D+00
228  2.2700000000000D+00  0.0000000000000D+00  0.0000000000000D+00
229  2.2800000000000D+00  0.0000000000000D+00  0.0000000000000D+00
230  2.2900000000000D+00  0.0000000000000D+00  0.0000000000000D+00
231  2.3000000000000D+00  0.0000000000000D+00  0.0000000000000D+00
232  2.3100000000000D+00  0.0000000000000D+00  0.0000000000000D+00
233  2.3200000000000D+00  0.0000000000000D+00  0.0000000000000D+00
234  2.3300000000000D+00  0.0000000000000D+00  0.0000000000000D+00
235  2.3400000000000D+00  0.0000000000000D+00  0.0000000000000D+00
236  2.3500000000000D+00  0.0000000000000D+00  0.0000000000000D+00
237  2.3600000000000D+00  0.0000000000000D+00  0.0000000000000D+00
238  2.3700000000000D+00  0.0000000000000D+00  0.0000000000000D+00
239  2.3800000000000D+00  0.0000000000000D+00  0.0000000000000D+00
240  2.3900000000000D+00  0.0000000000000D+00  0.0000000000000D+00
241  2.4000000000000D+00  0.0000000000000D+00  0.0000000000000D+00
242  2.4100000000000D+00  0.0000000000000D+00  0.0000000000000D+00
243  2.4200000000000D+00  0.0000000000000D+00  0.0000000000000D+00
244  2.4300000000000D+00  0.0000000000000D+00  0.0000000000000D+00
245  2.4400000000000D+00  0.0000000000000D+00  0.0000000000000D+00
246  2.4500000000000D+00  0.0000000000000D+00  0.0000000000000D+00
247  2.4600000000000D+00  0.0000000000000D+00  0.0000000000000D+00
248  2.4700000000000D+00  0.0000000000000D+00  0.0000000000000D+00
249  2.4800000000000D+00  0.0000000000000D+00  0.0000000000000D+00
250  2.4900000000000D+00  0.0000000000000D+00  0.0000000000000D+00
251  2.5000000000000D+00  0.0000000000000D+00  0.0000000000000D+00
252  2.5100000000000D+00  0.0000000000000D+00  0.0000000000000D+00
253  2.5200000000000D+00  0.0000000000000D+00  0.0000000000000D+00
254  2.5300000000000D+00  0.0000000000000D+00  0.0000000000000D+00
255  2.5400000000000D+00  0.0000000000000D+00  0.0000000000000D+00
256  2.5500000000000D+00  0.0000000000000D+00  0.0000000000000D+00
257  2.5600000000000D+00  0.0000000000000D+00  0.0000000000000D+00
258  2.5700000000000D+00  0.0000000000000D+00  0.0000000000000D+00
259  2.5800000000000D+00  0.0000000000000D+00  0.0000000000000D+00
260  2.5900000000000D+00  0.0000000000000D+00  0.0000000000000D+00
261  2.6000000000000D+00  0.0000000000000D+00  0.0000000000000D+00
262  2.6100000000000D+00  0.0000000000000D+00  0.0000000000000D+00
263  2.6200000000000D+00  0.0000000000000D+00  0.0000000000000D+00
264  2.6300000000000D+00  0.0000000000000D+00  0.0000000000000D+00
265  2.6400000000000D+00  0.0000000000000D+00  0.0000000000000D+00
266  2.6500000000000D+00  0.0000000000000D+00  0.0000000000000D+00
267  2.6600000000000D+00  0.0000000000000D+00  0.0000000000000D+00
268  2.6700000000000D+00  0.0000000000000D+00  0.0000000000000D+00
269  2.6800000000000D+00  0.0000000000000D+00  0.0000000000000D+00
270  2.6900000000000D+00  0.0000000000000D+00  0.0000000000000D+00
271  2.7000000000000D+00  0.0000000000000D+00  0.0000000000000D+00
272  2.7100000000000D+00  0.0000000000000D+00  0.0000000000000D+00
273  2.7200000000000D+00  0.0000000000000D+00  0.0000000000000D+00
274  2.7300000000000D+00  0.0000000000000D+00  0.0000000000000D+00
275  2.7400000000000D+00  0.0000000000000D+00  0.0000000000000D+00
276  2.7500000000000D+00  0.0000000000000D+00  0.0000000000000D+00
277  2.7600000000000D+00  0.0000000000000D+00  0.0000000000000D+00
278  2.7700000000000D+00  0.0000000000000D+00  0.0000000000000D+00
279  2.7800000000000D+00  0.0000000000000D+00  0.0000000000000D+00
280  2.7900000000000D+00  0.0000000000000D+00  0.0000000000000D+00
281  2.8000000000000D+00  0.0000000000000D+00  0.0000000000000D+00
282  2.8100000000000D+00  0.0000000000000D+00  0.0000000000000D+00
283  2.8200000000000D+00  0.0000000000000D+00  0.0000000000000D+00
284  2.8300000000000D+00  0.0000000000000D+00  0.0000000000000D+00
285  2.8400000000000D+00  0.0000000000000D+00  0.0000000000000D+00
286  2.8500000000000D+00  0.0000000000000D+00  0.0000000000000D+00
287  2.8600000000000D+00  0.0000000000000D+00  0.0000000000000D+00
288  2.8700000000000D+00  0.0000000000000D+00  0.0000000000000D+00
289  2.8800000000000D+00  0.0000000000000D+00  0.0000000000000D+00
290  2.8900000000000D+00  0.0000000000000D+00  0.0000000000000D+00
291  2.9000000000000D+00  0.0000000000000D+00  0.0000000000000D+00
292  2.9100000000000D+00  0.0000000000000D+00  0.0000000000000D+00
293  2.9200000000000D+00  0.0000000000000D+00  0.0000000000000D+00
294  2.9300000000000D+00  0.0000000000000D+00  0.0000000000000D+00
295  2.9400000000000D+00  0.0000000000000D+00  0.0000000000000D+00
296  2.9500000000000D+00  0.0000000000000D+00  0.0000000000000D+00
297  2.9600000000000D+00  0.0000000000000D+00  0.0000000000000D+00
298  2.9700000000000D+00  0.0000000000000D+00  0.0000000000000D+00
299  2.9800000000000D+00  0.0000000000000D+00  0.0000000000000D+00
300  2.9900000000000D+00  0.0000000000000D+00  0.0000000000000D+00
301  3.0000000000000D+00  0.0000000000000D+00  0.0000000000000D+00
302  3.0100000000000D+00  0.0000000000000D+00  0.0000000000000D+00
303  3.0200000000000D+00  0.0000000000000D+00  0.0000000000000D+00
304  3.0300000000000D+00  0.0000000000000D+00  0.0000000000000D+00
305  3.0400000000000D+00  0.0000000000000D+00  0.0000000000000D+00
306  3.0500000000000D+00  0.0000000000000D+00  0.0000000000000D+00
307  3.0600000000000D+00  0.0000000000000D+00  0.0000000000000D+00
308  3.0700000000000D+00  0.0000000000000D+00  0.0000000000000D+00
309  3.0800000000000D+00  0.0000000000000D+00  0.0000000000000D+00
310  3.0900000000000D+00  0.0000000000000D+00  0.0000000000000D+00
311  3.1000000000000D+00  0.0000000000000D+00  0.0000000000000D+00
312  3.1100000000000D+00  0.0000000000000D+00  0.0000000000000D+00
313  3.1200000000000D+00  0.0000000000000D+00  0.0000000000000D+00
314  3.1300000000000D+00  0.0000000000000D+00  0.0000000000000D+00
315  3.1400000000000D+00  0.0000000000000D+00  0.0000000000000D+00
316  3.1500000000000D+00  0.0000000000000D+00  0.0000000000000D+00
317  3.1600000000000D+00  0.0000000000000D+00  0.0000000000000D+00
318  3.1700000000000D+00  0.0000000000000D+00  0.0000000000000D+00
319  3.1800000000000D+00  0.0000000000000D+00  0.0000000000000D+00
320  3.1900000000000D+00  0.0000000000000D+00  0.0000000000000D+00
321  3.2000000000000D+00  0.0000000000000D+00  0.0000000000000D+00
322  3.2100000000000D+00  0.0000000000000D+00  0.0000000000000D+00
323  3.2200000000000D+00  0.0000000000000D+00  0.0000000000000D+00
324  3.2300000000000D+00  0.0000000000000D+00  0.0000000000000D+00
325  3.2400000000000D+00  0.0000000000000D+00  0.0000000000000D+00
326  3.2500000000000D+00  0.0000000000000D+00  0.0000000000000D+00
327  3.2600000000000D+00  0.0000000000000D+00  0.0000000000000D+00
328  3.2700000000000D+00  0.0000000000000D+00  0.0000000000000D+00
329  3.2800000000000D+00  0.0000000000000D+00  0.0000000000000D+00
330  3.2900000000000D+00  0.0000000000000D+00  0.0000000000000D+00
331  3.3000000000000D+00  0.0000000000000D+00  0.0000000000000D+00
332  3.3100000000000D+00  0.0000000000000D+00  0.0000000000000D+00
333  3.3200000000000D+00  0.0000000000000D+00  0.0000000000000D+00
334  3.3300000000000D+00  0.0000000000000D+00  0.0000000000000D+00
335  3.3400000000000D+00  0.0000000000000D+00  0.0000000000000D+00
336  3.3500000000000D+00  0.0000000000000D+00  0.0000000000000D+00
337  3.3600000000000D+00  0.0000000000000D+00  0.0000000000000D+00
338  3.3700000000000D+00  0.0000000000000D+00  0.0000000000000D+00
339  3.3800000000000D+00  0.0000000000000D+00  0.0000000000000D+00
340  3.3900000000000D+00  0.0000000000000D+00  0.0000000000000D+00
341  3.4000000000000D+00  0.0000000000000D+00  0.0000000000000D+00
342  3.4100000000000D+00  0.0000000000000D+00  0.0000000000000D+00
343  3.4200000000000D+00  0.0000000000000D+00  0.0000000000000D+00
344  3.4300000000000D+00  0.0000000000000D+00  0.0000000000000D+00
345  3.4400000000000D+00  0.0000000000000D+00  0.0000000000000D+00
346  3.4500000000000D+00  0.0000000000000D+00  0.0000000000000D+00
347  3.4600000000000D+00  0.0000000000000D+00  0.0000000000000D+00
348  3.4700000000000D+00  0.0000000000000D+00  0.0000000000000D+00
349  3.4800000000000D+00  0.0000000000000D+00  0.0000000000000D+00
350  3.4900000000000D+00  0.0000000000000D+00  0.0000000000000D+00
351  3.5000000000000D+00  0.0000000000000D+00  0.0000000000000D+00
352  3.5100000000000D+00  0.0000000000000D+00  0.0000000000000D+00
353  3.5200000000000D+00  0.0000000000000D+00  0.0000000000000D+00
354  3.5300000000000D+00  0.0000000000000D+00  0.0000000000000D+00
355  3.5400000000000D+00  0.0000000000000D+00  0.0000000000000D+00
356  3.5500000000000D+00  0.0000000000000D+00  0.0000000000000D+00
357  3.5600000000000D+00  0.0000000000000D+00  0.0000000000000D+00
358  3.5700000000000D+00  0.0000000000000D+00  0.0000000000000D+00
359  3.5800000000000D+00  0.0000000000000D+00  0.0000000000000D+00
360  3.5900000000000D+00  0.0000000000000D+00  0.0000000000000D+00
361  3.6000000000000D+00  0.0000000000000D+00  0.0000000000000D+00
362  3.6100000000000D+00  0.0000000000000D+00  0.0000000000000D+00
363  3.6200000000000D+00  0.0000000000000D+00  0.0000000000000D+00
364  3.6300000000000D+00  0.0000000000000D+00  0.0000000000000D+00
365  3.6400000000000D+00  0.0000000000000D+00  0.0000000000000D+00
366  3.6500000000000D+00  0.0000000000000D+00  0.0000000000000D+00
367  3.6600000000000D+00  0.0000000000000D+00  0.0000000000000D+00
368  3.6700000000000D+00  0.0000000000000D+00  0.0000000000000D+00
369  3.6800000000000D+00  0.0000000000000D+00  0.0000000000000D+00
370  3.6900000000000D+00  0.0000000000000D+00  0.0000000000000D+00
371  3.7000000000000D+00  0.0000000000000D+00  0.0000000000000D+00
372  3.7100000000000D+00  0.0000000000000D+00  0.0000000000000D+00
373  3.7200000000000D+00  0.0000000000000D+00  0.0000000000000D+00
374  3.7300000000000D+00  0.0000000000000D+00  0.0000000000000D+00
375  3.7400000000000D+00  0.0000000000000D+00  0.0000000000000D+00
376  3.7500000000000D+00  0.0000000000000D+00  0.0000000000000D+00
377  3.7600000000000D+00  0.0000000000000D+00  0.0000000000000D+00
378  3.7700000000000D+00  0.0000000000000D+00  0.0000000000000D+00
379  3.7800000000000D+00  0.0000000000000D+00  0.0000000000000D+00
380  3.7900000000000D+00  0.0000000000000D+00  0.0000000000000D+00
381  3.8000000000000D+00  0.0000000000000D+00  0.0000000000000D+00
382  3.8100000000000D+00  0.0000000000000D+00  0.0000000000000D+00
383  3.8200000000000D+00  0.0000000000000D+00  0.0000000000000D+00
384  3.8300000000000D+00  0.0000000000000D+00  0.0000000000000D+00
385  3.8400000000000D+00  0.0000000000000D+00  0.0000000000000D+00
386  3.8500000000000D+00  0.0000000000000D+00  0.0000000000000D+00
387  3.8600000000000D+00  0.0000000000000D+00  0.0000000000000D+00
388  3.8700000000000D+00  0.0000000000000D+00  0.0000000000000D+00
389  3.8800000000000D+00  0.0000000000000D+00  0.0000000000000D+00
390  3.8900000000000D+00  0.0000000000000D+00  0.0000000000000D+00
391  3.9000000000000D+00  0.0000000000000D+00  0.0000000000000D+00
392  3.9100000000000D+00  0.0000000000000D+00  0.0000000000000D+00
393  3.9200000000000D+00  0.0000000000000D+00  0.0000000000000D+00
394  3.9300000000000D+00  0.0000000000000D+00  0.0000000000000D+00
395  3.9400000000000D+00  0.0000000000000D+00  0.0000000000000D+00
396  3.9500000000000D+00  0.0000000000000D+00  0.0000000000000D+00
397  3.9600000000000D+00  0.0000000000000D+00  0.0000000000000D+00
398  3.9700000000000D+00  0.0000000000000D+00  0.0000000000000D+00
399  3.9800000000000D+00  0.0000000000000D+00  0.0000000000000D+00
400  3.9900000000000D+00  0.0000000000000D+00  0.0000000000000D+00
401  4.0000000000000D+00  0.0000000000000D+00  0.0000000000000D+00
402  4.0100000000000D+00  0.0000000000000D+00  0.0000000000000D+00
403  4.0200000000000D+00  0.0000000000000D+00  0.0000000000000D+00
404  4.0300000000000D+00  0.0000000000000D+00  0.0000000000000D+00
405  4.0400000000000D+00  0.0000000000000D+00  0.0000000000000D+00
406  4.0500000000000D+00  0.0000000000000D+00  0.0000000000000D+00
407  4.0600000000000D+00  0.0000000000000D+00  0.0000000000000D+00
408  4.0700000000000D+00  0.0000000000000D+00  0.0000000000000D+00
409  4.0800000000000D+00  0.0000000000000D+00  0.0000000000000D+00
410  4.0900000000000D+00  0.0000000000000D+00  0.0000000000000D+00
411  4.1000000000000D+00  0.0000000000000D+00  0.0000000000000D+00
412  4.1100000000000D+00  0.0000000000000D+00  0.0000000000000D+00
413  4.1200000000000D+00  0.0000000000000D+00  0.0000000000000D+00
414  4.1300000000000D+00  0.0000000000000D+00  0.0000000000000D+00
415  4.1400000000000D+00  0.0000000000000D+00  0.0000000000000D+00
416  4.1500000000000D+00  0.0000000000000D+00  0.0000000000000D+00
417  4.1600000000000D+00  0.0000000000000D+00  0.0000000000000D+00
418  4.1700000000000D+00  0.0000000000000D+00  0.0000000000000D+00
419  4.1800000000000D+00  0.0000000000000D+00  0.0000000000000D+00
420  4.1900000000000D+00  0.0000000000000D+00  0.0000000000000D+00
421  4.2000000000000D+00  0.0000000000000D+00  0.0000000000000D+00
422  4.2100000000000D+00  0.0000000000000D+00  0.0000000000000D+00
423  4.2200000000000D+00  0.0000000000000D+00  0.0000000000000D+00
424  4.2300000000000D+00  0.0000000000000D+00  0.0000000000000D+00
425  4.2400000000000D+00  0.0000000000000D+00  0.0000000000000D+00
426  4.2500000000000D+00  0.0000000000000D+00  0.0000000000000D+00
427  4.2600000000000D+00  0.0000000000000D+00  0.0000000000000D+00
428  4.2700000000000D+00  0.0000000000000D+00  0.0000000000000D+00
429  4.2800000000000D+00  0.0000000000000D+00  0.0000000000000D+00
430  4.2900000000000D+00  0.0000000000000D+00  0.0000000000000D+00
431  4.3000000000000D+00  0.0000000000000D+00  0.0000000000000D+00
432  4.3100000000000D+00  0.0000000000000D+00  0.0000000000000D+00
433  4.3200000000000D+00  0.0000000000000D+00  0.0000000000000D+00
434  4.3300000000000D+00  0.0000000000000D+00  0.0000000000000D+00
435  4.3400000000000D+00  0.0000000000000D+00  0.0000000000000D+00
436  4.3500000000000D+00  0.0000000000000D+00  0.0000000000000D+00
437  4.3600000000000D+00  0.0000000000000D+00  0.0000000000000D+00
438  4.3700000000000D+00  0.0000000000000D+00  0.0000000000000D+00
439  4.3800000000000D+00  0.0000000000000D+00  0.0000000000000D+00
440  4.3900000000000D+00  0.0000000000000D+00  0.0000000000000D+00
441  4.4000000000000D+00  0.0000000000000D+00  0.0000000000000D+00
442  4.4100000000000D+00  0.0000000000000D+00  0.0000000000000D+00
443  4.4200000000000D+00  0.0000000000000D+00  0.0000000000000D+00
444  4.4300000000000D+00  0.0000000000000D+00  0.0000000000000D+00