N     ONCVPSP  r_core=  1.31  1.46
7.0000      5.0000      140908    zatom,zion,pspd
8    11     1     4   601     0    pspcod,pspxc,lmax,lloc,mmax,r2well
6.00000000  0.05000000  0.00000000    rchrg fchrg qchrg
2     2     0     0     0    nproj
0                 extension_switch
0                         6.0534841626204D+00  6.4221620950222D-01
1  0.0000000000000D+00 -0.0000000000000D+00  0.0000000000000D+00
2  1.0000000000000D-02 -9.2694906225914D-02  6.1184859288567D-02
3  2.0000000000000D-02 -1.8491487944723D-01  1.2116732300204D-01
4  3.0000000000000D-02 -2.7619093213883D-01  1.7876675226489D-01
5  4.0000000000000D-02 -3.6606586849571D-01  2.3284562944121D-01
6  5.0000000000000D-02 -4.5409993392599D-01  2.8233014530919D-01
7  6.0000000000000D-02 -5.3987617371145D-01  3.2622963742465D-01
8  7.0000000000000D-02 -6.2300541183704D-01  3.6365452866060D-01
9  8.0000000000000D-02 -7.0313076757491D-01  3.9383244137994D-01
10  9.0000000000000D-02 -7.7993163551235D-01  4.1612219523550D-01
11  1.0000000000000D-01 -8.5312706403321D-01  4.3002543404120D-01
12  1.1000000000000D-01 -9.2247847773124D-01  4.3519566921697D-01
13  1.2000000000000D-01 -9.8779170075717D-01  4.3144457352441D-01
14  1.3000000000000D-01 -1.0489182502003D+00  4.1874540740396D-01
15  1.4000000000000D-01 -1.1057558812751D+00  3.9723351118584D-01
16  1.5000000000000D-01 -1.1582483794515D+00  3.6720384960980D-01
17  1.6000000000000D-01 -1.2063846072621D+00  3.2910564644593D-01
18  1.7000000000000D-01 -1.2501968270858D+00  2.8353420009114D-01
19  1.8000000000000D-01 -1.2897583336224D+00  2.3122002229273D-01
20  1.9000000000000D-01 -1.3251804405857D+00  1.7301548304206D-01
21  2.0000000000000D-01 -1.3566088827283D+00  1.0987921560782D-01
22  2.1000000000000D-01 -1.3842196912179D+00  4.2858514095162D-02
23  2.2000000000000D-01 -1.4082146316968D+00 -2.6929905380178D-02
24  2.3000000000000D-01 -1.4288162760629D+00 -9.8320497066095D-02
25  2.4000000000000D-01 -1.4462628129237D+00 -1.7012040064499D-01
26  2.5000000000000D-01 -1.4608026631066D+00 -2.4113161600209D-01
27  2.6000000000000D-01 -1.4726890528329D+00 -3.1017321005942D-01
28  2.7000000000000D-01 -1.4821745608311D+00 -3.7610350430713D-01
29  2.8000000000000D-01 -1.4895058355391D+00 -4.3784143611911D-01
30  2.9000000000000D-01 -1.4949184972769D+00 -4.9438704690074D-01
31  3.0000000000000D-01 -1.4986323581610D+00 -5.4484055640635D-01
32  3.1000000000000D-01 -1.5008470393784D+00 -5.8841970530121D-01
33  3.2000000000000D-01 -1.5017380865546D+00 -6.2447496263374D-01
34  3.3000000000000D-01 -1.5014535817445D+00 -6.5250260780667D-01
35  3.4000000000000D-01 -1.5001113961366D+00 -6.7215510556657D-01
36  3.5000000000000D-01 -1.4977971660728D+00 -6.8324845598869D-01
37  3.6000000000000D-01 -1.4945628040076D+00 -6.8576726271265D-01
38  3.7000000000000D-01 -1.4904259106929D+00 -6.7986607409584D-01
39  3.8000000000000D-01 -1.4853698680540D+00 -6.6586788467078D-01
40  3.9000000000000D-01 -1.4793445604214D+00 -6.4425997516173D-01
41  4.0000000000000D-01 -1.4722679992176D+00 -6.1568606449664D-01
42  4.1000000000000D-01 -1.4640285355001D+00 -5.8093598868100D-01
43  4.2000000000000D-01 -1.4544877537385D+00 -5.4093256254359D-01
44  4.3000000000000D-01 -1.4434839765091D+00 -4.9671591319045D-01
45  4.4000000000000D-01 -1.4308363146595D+00 -4.4942555617038D-01
46  4.5000000000000D-01 -1.4163491900187D+00 -4.0028051621692D-01
47  4.6000000000000D-01 -1.3998172485039D+00 -3.5055783200524D-01
48  4.7000000000000D-01 -1.3810305720965D+00 -3.0156982293176D-01
49  4.8000000000000D-01 -1.3597799995256D+00 -2.5464093970171D-01
50  4.9000000000000D-01 -1.3358628562790D+00 -2.1108278306822D-01
51  5.0000000000000D-01 -1.3090883790002D+00 -1.7217052987037D-01
52  5.1000000000000D-01 -1.2792830163383D+00 -1.3911983453355D-01
53  5.2000000000000D-01 -1.2462956968967D+00 -1.1306379087114D-01
54  5.3000000000000D-01 -1.2100031981429D+00 -9.5029339131375D-02
55  5.4000000000000D-01 -1.1703137328403D+00 -8.5921474294776D-02
56  5.5000000000000D-01 -1.1271721426803D+00 -8.6500093172832D-02
57  5.6000000000000D-01 -1.0805623990227D+00 -9.7368652619575D-02
58  5.7000000000000D-01 -1.0305111427737D+00 -1.1895794998874D-01
59  5.8000000000000D-01 -9.7708935991033D-01 -1.5151797132309D-01
60  5.9000000000000D-01 -9.2041437029993D-01 -1.9510803829923D-01
61  6.0000000000000D-01 -8.6064954174432D-01 -2.4959692621052D-01
62  6.1000000000000D-01 -7.9800555339283D-01 -3.1465550804708D-01
63  6.2000000000000D-01 -7.3273775420002D-01 -3.8976702066624D-01
64  6.3000000000000D-01 -6.6514584833380D-01 -4.7422601589589D-01
65  6.4000000000000D-01 -5.9557062457012D-01 -5.6715070101463D-01
66  6.5000000000000D-01 -5.2439050743294D-01 -6.6749596830697D-01
67  6.6000000000000D-01 -4.5201814944828D-01 -7.7406512919910D-01
68  6.7000000000000D-01 -3.7889532767485D-01 -8.8552987027683D-01
69  6.8000000000000D-01 -3.0548779234040D-01 -1.0004500485562D+00
70  6.9000000000000D-01 -2.3227988202077D-01 -1.1172946027746D+00
71  7.0000000000000D-01 -1.5976776793481D-01 -1.2344669002154D+00
72  7.1000000000000D-01 -8.8453467546659D-02 -1.3503289732063D+00
73  7.2000000000000D-01 -1.8838140966016D-02 -1.4632274503051D+00
74  7.3000000000000D-01  4.8584632897331D-02 -1.5715199158185D+00
75  7.4000000000000D-01  1.1333521274560D-01 -1.6735999976538D+00
76  7.5000000000000D-01  1.7495535579907D-01 -1.7679264319222D+00
77  7.6000000000000D-01  2.3301421748241D-01 -1.8530469155181D+00
78  7.7000000000000D-01  2.8711406381359D-01 -1.9276207282789D+00
79  7.8000000000000D-01  3.3689603959613D-01 -1.9904414505907D+00
80  7.9000000000000D-01  3.8204522476268D-01 -2.0404569505779D+00
81  8.0000000000000D-01  4.2229507353218D-01 -2.0767869391431D+00
82  8.1000000000000D-01  4.5743116055700D-01 -2.0987377868686D+00
83  8.2000000000000D-01  4.8729416989038D-01 -2.1058143440185D+00
84  8.3000000000000D-01  5.1178207529481D-01 -2.0977285562948D+00
85  8.4000000000000D-01  5.3085147389512D-01 -2.0744047236287D+00
86  8.5000000000000D-01  5.4451804922430D-01 -2.0359813061721D+00
87  8.6000000000000D-01  5.5285615409803D-01 -1.9828092399193D+00
88  8.7000000000000D-01  5.5599751829220D-01 -1.9154467832371D+00
89  8.8000000000000D-01  5.5412910050817D-01 -1.8346509742913D+00
90  8.9000000000000D-01  5.4749011843188D-01 -1.7413658372625D+00
91  9.0000000000000D-01  5.3636830466473D-01 -1.6367075316888D+00
92  9.1000000000000D-01  5.2109544975291D-01 -1.5219466935433D+00
93  9.2000000000000D-01  5.0204230626301D-01 -1.3984882679112D+00
94  9.3000000000000D-01  4.7961293958842D-01 -1.2678491803217D+00
95  9.4000000000000D-01  4.5423862160095D-01 -1.1316342356020D+00
96  9.5000000000000D-01  4.2637137198315D-01 -9.9151066790499D-01
97  9.6000000000000D-01  3.9647780560501D-01 -8.4918406229857D-01
98  9.7000000000000D-01  3.6503133430803D-01 -7.0636740943440D-01
99  9.8000000000000D-01  3.3250533965924D-01 -5.6475461567712D-01
100  9.9000000000000D-01  2.9936671845388D-01 -4.2599535464344D-01
101  1.0000000000000D+00  2.6606917113985D-01 -2.9166893940338D-01
102  1.0100000000000D+00  2.3304694950814D-01 -1.6326014774352D-01
103  1.0200000000000D+00  2.0070918758326D-01 -4.2137453312366D-02
104  1.0300000000000D+00  1.6943741541926D-01  7.0456140133064D-02
105  1.0400000000000D+00  1.3957139396608D-01  1.7345817446666D-01
106  1.0500000000000D+00  1.1141362848618D-01  2.6596778631183D-01
107  1.0600000000000D+00  8.5223629571906D-02  3.4726735583646D-01
108  1.0700000000000D+00  6.1215452346657D-02  4.1683103407856D-01
109  1.0800000000000D+00  3.9560627645407D-02  4.7431256070783D-01
110  1.0900000000000D+00  2.0371805308312D-02  5.1960667360136D-01
111  1.1000000000000D+00  3.7175521272003D-03  5.5279035634481D-01
112  1.1100000000000D+00 -1.0380867358971D-02  5.7413366631295D-01
113  1.1200000000000D+00 -2.1945035428661D-02  5.8408161054796D-01
114  1.1300000000000D+00 -3.1046848917411D-02  5.8327929186096D-01
115  1.1400000000000D+00 -3.7798510745982D-02  5.7253115707145D-01
116  1.1500000000000D+00 -4.2346958090855D-02  5.5277814266306D-01
117  1.1600000000000D+00 -4.4870027269277D-02  5.2508282091218D-01
118  1.1700000000000D+00 -4.5579210772747D-02  4.9063122799270D-01
119  1.1800000000000D+00 -4.4705271206792D-02  4.5067874351504D-01
120  1.1900000000000D+00 -4.2495216866293D-02  4.0653777163972D-01
121  1.2000000000000D+00 -3.9209771768025D-02  3.5956483703250D-01
122  1.2100000000000D+00 -3.5112153152981D-02  3.1110680699709D-01
123  1.2200000000000D+00 -3.0464025579068D-02  2.6249249748310D-01
124  1.2300000000000D+00 -2.5527715078588D-02  2.1504334716102D-01
125  1.2400000000000D+00 -2.0542389266039D-02  1.6995755179472D-01
126  1.2500000000000D+00 -1.5732504912701D-02  1.2836055002005D-01
127  1.2600000000000D+00 -1.1310764075137D-02  9.1317582773248D-02
128  1.2700000000000D+00 -7.4467472458114D-03  5.9686780778500D-02
129  1.2800000000000D+00 -4.2838787750488D-03  3.4203392653296D-02
130  1.2900000000000D+00 -1.9470869717025D-03  1.5514781754192D-02
131  1.3000000000000D+00 -5.5324972689982D-04  4.4083434075584D-03
132  1.3100000000000D+00  4.0669597701051D-06 -4.4728132758584D-05
133  1.3200000000000D+00  7.2060422651059D-05 -5.8052279808370D-04
134  1.3300000000000D+00 -9.1064476338252D-07  7.9495442251118D-06
135  1.3400000000000D+00 -3.7911921652349D-07  3.3095506607303D-06
136  1.3500000000000D+00  0.0000000000000D+00  0.0000000000000D+00
137  1.3600000000000D+00  0.0000000000000D+00  0.0000000000000D+00
138  1.3700000000000D+00  0.0000000000000D+00  0.0000000000000D+00
139  1.3800000000000D+00  0.0000000000000D+00  0.0000000000000D+00
140  1.3900000000000D+00  0.0000000000000D+00  0.0000000000000D+00
141  1.4000000000000D+00  0.0000000000000D+00  0.0000000000000D+00
142  1.4100000000000D+00  0.0000000000000D+00  0.0000000000000D+00
143  1.4200000000000D+00  0.0000000000000D+00  0.0000000000000D+00
144  1.4300000000000D+00  0.0000000000000D+00  0.0000000000000D+00
145  1.4400000000000D+00  0.0000000000000D+00  0.0000000000000D+00
146  1.4500000000000D+00  0.0000000000000D+00  0.0000000000000D+00
147  1.4600000000000D+00  0.0000000000000D+00  0.0000000000000D+00
148  1.4700000000000D+00  0.0000000000000D+00  0.0000000000000D+00
149  1.4800000000000D+00  0.0000000000000D+00  0.0000000000000D+00
150  1.4900000000000D+00  0.0000000000000D+00  0.0000000000000D+00
151  1.5000000000000D+00  0.0000000000000D+00  0.0000000000000D+00
152  1.5100000000000D+00  0.0000000000000D+00  0.0000000000000D+00
153  1.5200000000000D+00  0.0000000000000D+00  0.0000000000000D+00
154  1.5300000000000D+00  0.0000000000000D+00  0.0000000000000D+00
155  1.5400000000000D+00  0.0000000000000D+00  0.0000000000000D+00
156  1.5500000000000D+00  0.0000000000000D+00  0.0000000000000D+00
157  1.5600000000000D+00  0.0000000000000D+00  0.0000000000000D+00
158  1.5700000000000D+00  0.0000000000000D+00  0.0000000000000D+00
159  1.5800000000000D+00  0.0000000000000D+00  0.0000000000000D+00
160  1.5900000000000D+00  0.0000000000000D+00  0.0000000000000D+00
161  1.6000000000000D+00  0.0000000000000D+00  0.0000000000000D+00
162  1.6100000000000D+00  0.0000000000000D+00  0.0000000000000D+00
163  1.6200000000000D+00  0.0000000000000D+00  0.0000000000000D+00
164  1.6300000000000D+00  0.0000000000000D+00  0.0000000000000D+00
165  1.6400000000000D+00  0.0000000000000D+00  0.0000000000000D+00
166  1.6500000000000D+00  0.0000000000000D+00  0.0000000000000D+00
167  1.6600000000000D+00  0.0000000000000D+00  0.0000000000000D+00
168  1.6700000000000D+00  0.0000000000000D+00  0.0000000000000D+00
169  1.6800000000000D+00  0.0000000000000D+00  0.0000000000000D+00
170  1.6900000000000D+00  0.0000000000000D+00  0.0000000000000D+00
171  1.7000000000000D+00  0.0000000000000D+00  0.0000000000000D+00
172  1.7100000000000D+00  0.0000000000000D+00  0.0000000000000D+00
173  1.7200000000000D+00  0.0000000000000D+00  0.0000000000000D+00
174  1.7300000000000D+00  0.0000000000000D+00  0.0000000000000D+00
175  1.7400000000000D+00  0.0000000000000D+00  0.0000000000000D+00
176  1.7500000000000D+00  0.0000000000000D+00  0.0000000000000D+00
177  1.7600000000000D+00  0.0000000000000D+00  0.0000000000000D+00
178  1.7700000000000D+00  0.0000000000000D+00  0.0000000000000D+00
179  1.7800000000000D+00  0.0000000000000D+00  0.0000000000000D+00
180  1.7900000000000D+00  0.0000000000000D+00  0.0000000000000D+00
181  1.8000000000000D+00  0.0000000000000D+00  0.0000000000000D+00
182  1.8100000000000D+00  0.0000000000000D+00  0.0000000000000D+00
183  1.8200000000000D+00  0.0000000000000D+00  0.0000000000000D+00
184  1.8300000000000D+00  0.0000000000000D+00  0.0000000000000D+00
185  1.8400000000000D+00  0.0000000000000D+00  0.0000000000000D+00
186  1.8500000000000D+00  0.0000000000000D+00  0.0000000000000D+00
187  1.8600000000000D+00  0.0000000000000D+00  0.0000000000000D+00
188  1.8700000000000D+00  0.0000000000000D+00  0.0000000000000D+00
189  1.8800000000000D+00  0.0000000000000D+00  0.0000000000000D+00
190  1.8900000000000D+00  0.0000000000000D+00  0.0000000000000D+00
191  1.9000000000000D+00  0.0000000000000D+00  0.0000000000000D+00
192  1.9100000000000D+00  0.0000000000000D+00  0.0000000000000D+00
193  1.9200000000000D+00  0.0000000000000D+00  0.0000000000000D+00
194  1.9300000000000D+00  0.0000000000000D+00  0.0000000000000D+00
195  1.9400000000000D+00  0.0000000000000D+00  0.0000000000000D+00
196  1.9500000000000D+00  0.0000000000000D+00  0.0000000000000D+00
197  1.9600000000000D+00  0.0000000000000D+00  0.0000000000000D+00
198  1.9700000000000D+00  0.0000000000000D+00  0.0000000000000D+00
199  1.9800000000000D+00  0.0000000000000D+00  0.0000000000000D+00
200  1.9900000000000D+00  0.0000000000000D+00  0.0000000000000D+00
201  2.0000000000000D+00  0.0000000000000D+00  0.0000000000000D+00
202  2.0100000000000D+00  0.0000000000000D+00  0.0000000000000D+00
203  2.0200000000000D+00  0.0000000000000D+00  0.0000000000000D+00
204  2.0300000000000D+00  0.0000000000000D+00  0.0000000000000D+00
205  2.0400000000000D+00  0.0000000000000D+00  0.0000000000000D+00
206  2.0500000000000D+00  0.0000000000000D+00  0.0000000000000D+00
207  2.0600000000000D+00  0.0000000000000D+00  0.0000000000000D+00
208  2.0700000000000D+00  0.0000000000000D+00  0.0000000000000D+00
209  2.0800000000000D+00  0.0000000000000D+00  0.0000000000000D+00
210  2.0900000000000D+00  0.0000000000000D+00  0.0000000000000D+00
211  2.1000000000000D+00  0.0000000000000D+00  0.0000000000000D+00
212  2.1100000000000D+00  0.0000000000000D+00  0.0000000000000D+00
213  2.1200000000000D+00  0.0000000000000D+00  0.0000000000000D+00
214  2.1300000000000D+00  0.0000000000000D+00  0.0000000000000D+00
215  2.1400000000000D+00  0.0000000000000D+00  0.0000000000000D+00
216  2.1500000000000D+00  0.0000000000000D+00  0.0000000000000D+00
217  2.1600000000000D+00  0.0000000000000D+00  0.0000000000000D+00
218  2.1700000000000D+00  0.0000000000000D+00  0.0000000000000D+00
219  2.1800000000000D+00  0.0000000000000D+00  0.0000000000000D+00
220  2.1900000000000D+00  0.0000000000000D+00  0.0000000000000D+00
221  2.2000000000000D+00  0.0000000000000D+00  0.0000000000000D+00
222  2.2100000000000D+00  0.0000000000000D+00  0.0000000000000D+00
223  2.2200000000000D+00  0.0000000000000D+00  0.0000000000000D+00
224  2.2300000000000D+00  0.0000000000000D+00  0.0000000000000D+00
225  2.2400000000000D+00  0.0000000000000D+00  0.0000000000000D+00
226  2.2500000000000D+00  0.0000000000000D+00  0.0000000000000D+00
227  2.2600000000000D+00  0.0000000000000D+00  0.0000000000000D+00
228  2.2700000000000D+00  0.0000000000000D+00  0.0000000000000D+00
229  2.2800000000000D+00  0.0000000000000D+00  0.0000000000000D+00
230  2.2900000000000D+00  0.0000000000000D+00  0.0000000000000D+00
231  2.3000000000000D+00  0.0000000000000D+00  0.0000000000000D+00
232  2.3100000000000D+00  0.0000000000000D+00  0.0000000000000D+00
233  2.3200000000000D+00  0.0000000000000D+00  0.0000000000000D+00
234  2.3300000000000D+00  0.0000000000000D+00  0.0000000000000D+00
235  2.3400000000000D+00  0.0000000000000D+00  0.0000000000000D+00
236  2.3500000000000D+00  0.0000000000000D+00  0.0000000000000D+00
237  2.3600000000000D+00  0.0000000000000D+00  0.0000000000000D+00
238  2.3700000000000D+00  0.0000000000000D+00  0.0000000000000D+00
239  2.3800000000000D+00  0.0000000000000D+00  0.0000000000000D+00
240  2.3900000000000D+00  0.0000000000000D+00  0.0000000000000D+00
241  2.4000000000000D+00  0.0000000000000D+00  0.0000000000000D+00
242  2.4100000000000D+00  0.0000000000000D+00  0.0000000000000D+00
243  2.4200000000000D+00  0.0000000000000D+00  0.0000000000000D+00
244  2.4300000000000D+00  0.0000000000000D+00  0.0000000000000D+00
245  2.4400000000000D+00  0.0000000000000D+00  0.0000000000000D+00
246  2.4500000000000D+00  0.0000000000000D+00  0.0000000000000D+00
247  2.4600000000000D+00  0.0000000000000D+00  0.0000000000000D+00
248  2.4700000000000D+00  0.0000000000000D+00  0.0000000000000D+00
249  2.4800000000000D+00  0.0000000000000D+00  0.0000000000000D+00
250  2.4900000000000D+00  0.0000000000000D+00  0.0000000000000D+00
251  2.5000000000000D+00  0.0000000000000D+00  0.0000000000000D+00
252  2.5100000000000D+00  0.0000000000000D+00  0.0000000000000D+00
253  2.5200000000000D+00  0.0000000000000D+00  0.0000000000000D+00
254  2.5300000000000D+00  0.0000000000000D+00  0.0000000000000D+00
255  2.5400000000000D+00  0.0000000000000D+00  0.0000000000000D+00
256  2.5500000000000D+00  0.0000000000000D+00  0.0000000000000D+00
257  2.5600000000000D+00  0.0000000000000D+00  0.0000000000000D+00
258  2.5700000000000D+00  0.0000000000000D+00  0.0000000000000D+00
259  2.5800000000000D+00  0.0000000000000D+00  0.0000000000000D+00
260  2.5900000000000D+00  0.0000000000000D+00  0.0000000000000D+00
261  2.6000000000000D+00  0.0000000000000D+00  0.0000000000000D+00
262  2.6100000000000D+00  0.0000000000000D+00  0.0000000000000D+00
263  2.6200000000000D+00  0.0000000000000D+00  0.0000000000000D+00
264  2.6300000000000D+00  0.0000000000000D+00  0.0000000000000D+00
265  2.6400000000000D+00  0.0000000000000D+00  0.0000000000000D+00
266  2.6500000000000D+00  0.0000000000000D+00  0.0000000000000D+00
267  2.6600000000000D+00  0.0000000000000D+00  0.0000000000000D+00
268  2.6700000000000D+00  0.0000000000000D+00  0.0000000000000D+00
269  2.6800000000000D+00  0.0000000000000D+00  0.0000000000000D+00
270  2.6900000000000D+00  0.0000000000000D+00  0.0000000000000D+00
271  2.7000000000000D+00  0.0000000000000D+00  0.0000000000000D+00
272  2.7100000000000D+00  0.0000000000000D+00  0.0000000000000D+00
273  2.7200000000000D+00  0.0000000000000D+00  0.0000000000000D+00
274  2.7300000000000D+00  0.0000000000000D+00  0.0000000000000D+00
275  2.7400000000000D+00  0.0000000000000D+00  0.0000000000000D+00
276  2.7500000000000D+00  0.0000000000000D+00  0.0000000000000D+00
277  2.7600000000000D+00  0.0000000000000D+00  0.0000000000000D+00
278  2.7700000000000D+00  0.0000000000000D+00  0.0000000000000D+00
279  2.7800000000000D+00  0.0000000000000D+00  0.0000000000000D+00
280  2.7900000000000D+00  0.0000000000000D+00  0.0000000000000D+00
281  2.8000000000000D+00  0.0000000000000D+00  0.0000000000000D+00
282  2.8100000000000D+00  0.0000000000000D+00  0.0000000000000D+00
283  2.8200000000000D+00  0.0000000000000D+00  0.0000000000000D+00
284  2.8300000000000D+00  0.0000000000000D+00  0.0000000000000D+00
285  2.8400000000000D+00  0.0000000000000D+00  0.0000000000000D+00
286  2.8500000000000D+00  0.0000000000000D+00  0.0000000000000D+00
287  2.8600000000000D+00  0.0000000000000D+00  0.0000000000000D+00
288  2.8700000000000D+00  0.0000000000000D+00  0.0000000000000D+00
289  2.8800000000000D+00  0.0000000000000D+00  0.0000000000000D+00
290  2.8900000000000D+00  0.0000000000000D+00  0.0000000000000D+00
291  2.9000000000000D+00  0.0000000000000D+00  0.0000000000000D+00
292  2.9100000000000D+00  0.0000000000000D+00  0.0000000000000D+00
293  2.9200000000000D+00  0.0000000000000D+00  0.0000000000000D+00
294  2.9300000000000D+00  0.0000000000000D+00  0.0000000000000D+00
295  2.9400000000000D+00  0.0000000000000D+00  0.0000000000000D+00
296  2.9500000000000D+00  0.0000000000000D+00  0.0000000000000D+00
297  2.9600000000000D+00  0.0000000000000D+00  0.0000000000000D+00
298  2.9700000000000D+00  0.0000000000000D+00  0.0000000000000D+00
299  2.9800000000000D+00  0.0000000000000D+00  0.0000000000000D+00
300  2.9900000000000D+00  0.0000000000000D+00  0.0000000000000D+00
301  3.0000000000000D+00  0.0000000000000D+00  0.0000000000000D+00
302  3.0100000000000D+00  0.0000000000000D+00  0.0000000000000D+00
303  3.0200000000000D+00  0.0000000000000D+00  0.0000000000000D+00
304  3.0300000000000D+00  0.0000000000000D+00  0.0000000000000D+00
305  3.0400000000000D+00  0.0000000000000D+00  0.0000000000000D+00
306  3.0500000000000D+00  0.0000000000000D+00  0.0000000000000D+00
307  3.0600000000000D+00  0.0000000000000D+00  0.0000000000000D+00
308  3.0700000000000D+00  0.0000000000000D+00  0.0000000000000D+00
309  3.0800000000000D+00  0.0000000000000D+00  0.0000000000000D+00
310  3.0900000000000D+00  0.0000000000000D+00  0.0000000000000D+00
311  3.1000000000000D+00  0.0000000000000D+00  0.0000000000000D+00
312  3.1100000000000D+00  0.0000000000000D+00  0.0000000000000D+00
313  3.1200000000000D+00  0.0000000000000D+00  0.0000000000000D+00
314  3.1300000000000D+00  0.0000000000000D+00  0.0000000000000D+00
315  3.1400000000000D+00  0.0000000000000D+00  0.0000000000000D+00
316  3.1500000000000D+00  0.0000000000000D+00  0.0000000000000D+00
317  3.1600000000000D+00  0.0000000000000D+00  0.0000000000000D+00
318  3.1700000000000D+00  0.0000000000000D+00  0.0000000000000D+00
319  3.1800000000000D+00  0.0000000000000D+00  0.0000000000000D+00
320  3.1900000000000D+00  0.0000000000000D+00  0.0000000000000D+00
321  3.2000000000000D+00  0.0000000000000D+00  0.0000000000000D+00
322  3.2100000000000D+00  0.0000000000000D+00  0.0000000000000D+00
323  3.2200000000000D+00  0.0000000000000D+00  0.0000000000000D+00
324  3.2300000000000D+00  0.0000000000000D+00  0.0000000000000D+00
325  3.2400000000000D+00  0.0000000000000D+00  0.0000000000000D+00
326  3.2500000000000D+00  0.0000000000000D+00  0.0000000000000D+00
327  3.2600000000000D+00  0.0000000000000D+00  0.0000000000000D+00
328  3.2700000000000D+00  0.0000000000000D+00  0.0000000000000D+00
329  3.2800000000000D+00  0.0000000000000D+00  0.0000000000000D+00
330  3.2900000000000D+00  0.0000000000000D+00  0.0000000000000D+00
331  3.3000000000000D+00  0.0000000000000D+00  0.0000000000000D+00
332  3.3100000000000D+00  0.0000000000000D+00  0.0000000000000D+00
333  3.3200000000000D+00  0.0000000000000D+00  0.0000000000000D+00
334  3.3300000000000D+00  0.0000000000000D+00  0.0000000000000D+00
335  3.3400000000000D+00  0.0000000000000D+00  0.0000000000000D+00
336  3.3500000000000D+00  0.0000000000000D+00  0.0000000000000D+00
337  3.3600000000000D+00  0.0000000000000D+00  0.0000000000000D+00
338  3.3700000000000D+00  0.0000000000000D+00  0.0000000000000D+00
339  3.3800000000000D+00  0.0000000000000D+00  0.0000000000000D+00
340  3.3900000000000D+00  0.0000000000000D+00  0.0000000000000D+00
341  3.4000000000000D+00  0.0000000000000D+00  0.0000000000000D+00
342  3.4100000000000D+00  0.0000000000000D+00  0.0000000000000D+00
343  3.4200000000000D+00  0.0000000000000D+00  0.0000000000000D+00
344  3.4300000000000D+00  0.0000000000000D+00  0.0000000000000D+00
345  3.4400000000000D+00  0.0000000000000D+00  0.0000000000000D+00
346  3.4500000000000D+00  0.0000000000000D+00  0.0000000000000D+00
347  3.4600000000000D+00  0.0000000000000D+00  0.0000000000000D+00
348  3.4700000000000D+00  0.0000000000000D+00  0.0000000000000D+00
349  3.4800000000000D+00  0.0000000000000D+00  0.0000000000000D+00
350  3.4900000000000D+00  0.0000000000000D+00  0.0000000000000D+00
351  3.5000000000000D+00  0.0000000000000D+00  0.0000000000000D+00
352  3.5100000000000D+00  0.0000000000000D+00  0.0000000000000D+00
353  3.5200000000000D+00  0.0000000000000D+00  0.0000000000000D+00
354  3.5300000000000D+00  0.0000000000000D+00  0.0000000000000D+00
355  3.5400000000000D+00  0.0000000000000D+00  0.0000000000000D+00
356  3.5500000000000D+00  0.0000000000000D+00  0.0000000000000D+00
357  3.5600000000000D+00  0.0000000000000D+00  0.0000000000000D+00
358  3.5700000000000D+00  0.0000000000000D+00  0.0000000000000D+00
359  3.5800000000000D+00  0.0000000000000D+00  0.0000000000000D+00
360  3.5900000000000D+00  0.0000000000000D+00  0.0000000000000D+00
361  3.6000000000000D+00  0.0000000000000D+00  0.0000000000000D+00
362  3.6100000000000D+00  0.0000000000000D+00  0.0000000000000D+00
363  3.6200000000000D+00  0.0000000000000D+00  0.0000000000000D+00
364  3.6300000000000D+00  0.0000000000000D+00  0.0000000000000D+00
365  3.6400000000000D+00  0.0000000000000D+00  0.0000000000000D+00
366  3.6500000000000D+00  0.0000000000000D+00  0.0000000000000D+00
367  3.6600000000000D+00  0.0000000000000D+00  0.0000000000000D+00
368  3.6700000000000D+00  0.0000000000000D+00  0.0000000000000D+00
369  3.6800000000000D+00  0.0000000000000D+00  0.0000000000000D+00
370  3.6900000000000D+00  0.0000000000000D+00  0.0000000000000D+00
371  3.7000000000000D+00  0.0000000000000D+00  0.0000000000000D+00
372  3.7100000000000D+00  0.0000000000000D+00  0.0000000000000D+00
373  3.7200000000000D+00  0.0000000000000D+00  0.0000000000000D+00
374  3.7300000000000D+00  0.0000000000000D+00  0.0000000000000D+00
375  3.7400000000000D+00  0.0000000000000D+00  0.0000000000000D+00
376  3.7500000000000D+00  0.0000000000000D+00  0.0000000000000D+00
377  3.7600000000000D+00  0.0000000000000D+00  0.0000000000000D+00
378  3.7700000000000D+00  0.0000000000000D+00  0.0000000000000D+00
379  3.7800000000000D+00  0.0000000000000D+00  0.0000000000000D+00
380  3.7900000000000D+00  0.0000000000000D+00  0.0000000000000D+00
381  3.8000000000000D+00  0.0000000000000D+00  0.0000000000000D+00
382  3.8100000000000D+00  0.0000000000000D+00  0.0000000000000D+00
383  3.8200000000000D+00  0.0000000000000D+00  0.0000000000000D+00
384  3.8300000000000D+00  0.0000000000000D+00  0.0000000000000D+00
385  3.8400000000000D+00  0.0000000000000D+00  0.0000000000000D+00
386  3.8500000000000D+00  0.0000000000000D+00  0.0000000000000D+00
387  3.8600000000000D+00  0.0000000000000D+00  0.0000000000000D+00
388  3.8700000000000D+00  0.0000000000000D+00  0.0000000000000D+00
389  3.8800000000000D+00  0.0000000000000D+00  0.0000000000000D+00
390  3.8900000000000D+00  0.0000000000000D+00  0.0000000000000D+00
391  3.9000000000000D+00  0.0000000000000D+00  0.0000000000000D+00
392  3.9100000000000D+00  0.0000000000000D+00  0.0000000000000D+00
393  3.9200000000000D+00  0.0000000000000D+00  0.0000000000000D+00
394  3.9300000000000D+00  0.0000000000000D+00  0.0000000000000D+00
395  3.9400000000000D+00  0.0000000000000D+00  0.0000000000000D+00
396  3.9500000000000D+00  0.0000000000000D+00  0.0000000000000D+00
397  3.9600000000000D+00  0.0000000000000D+00  0.0000000000000D+00
398  3.9700000000000D+00  0.0000000000000D+00  0.0000000000000D+00
399  3.9800000000000D+00  0.0000000000000D+00  0.0000000000000D+00
400  3.9900000000000D+00  0.0000000000000D+00  0.0000000000000D+00
401  4.0000000000000D+00  0.0000000000000D+00  0.0000000000000D+00
402  4.0100000000000D+00  0.0000000000000D+00  0.0000000000000D+00
403  4.0200000000000D+00  0.0000000000000D+00  0.0000000000000D+00
404  4.0300000000000D+00  0.0000000000000D+00  0.0000000000000D+00
405  4.0400000000000D+00  0.0000000000000D+00  0.0000000000000D+00
406  4.0500000000000D+00  0.0000000000000D+00  0.0000000000000D+00
407  4.0600000000000D+00  0.0000000000000D+00  0.0000000000000D+00
408  4.0700000000000D+00  0.0000000000000D+00  0.0000000000000D+00
409  4.0800000000000D+00  0.0000000000000D+00  0.0000000000000D+00
410  4.0900000000000D+00  0.0000000000000D+00  0.0000000000000D+00
411  4.1000000000000D+00  0.0000000000000D+00  0.0000000000000D+00
412  4.1100000000000D+00  0.0000000000000D+00  0.0000000000000D+00
413  4.1200000000000D+00  0.0000000000000D+00  0.0000000000000D+00
414  4.1300000000000D+00  0.0000000000000D+00  0.0000000000000D+00
415  4.1400000000000D+00  0.0000000000000D+00  0.0000000000000D+00
416  4.1500000000000D+00  0.0000000000000D+00  0.0000000000000D+00
417  4.1600000000000D+00  0.0000000000000D+00  0.0000000000000D+00
418  4.1700000000000D+00  0.0000000000000D+00  0.0000000000000D+00
419  4.1800000000000D+00  0.0000000000000D+00  0.0000000000000D+00
420  4.1900000000000D+00  0.0000000000000D+00  0.0000000000000D+00
421  4.2000000000000D+00  0.0000000000000D+00  0.0000000000000D+00
422  4.2100000000000D+00  0.0000000000000D+00  0.0000000000000D+00
423  4.2200000000000D+00  0.0000000000000D+00  0.0000000000000D+00
424  4.2300000000000D+00  0.0000000000000D+00  0.0000000000000D+00
425  4.2400000000000D+00  0.0000000000000D+00  0.0000000000000D+00
426  4.2500000000000D+00  0.0000000000000D+00  0.0000000000000D+00
427  4.2600000000000D+00  0.0000000000000D+00  0.0000000000000D+00
428  4.2700000000000D+00  0.0000000000000D+00  0.0000000000000D+00
429  4.2800000000000D+00  0.0000000000000D+00  0.0000000000000D+00
430  4.2900000000000D+00  0.0000000000000D+00  0.0000000000000D+00
431  4.3000000000000D+00  0.0000000000000D+00  0.0000000000000D+00
432  4.3100000000000D+00  0.0000000000000D+00  0.0000000000000D+00
433  4.3200000000000D+00  0.0000000000000D+00  0.0000000000000D+00
434  4.3300000000000D+00  0.0000000000000D+00  0.0000000000000D+00
435  4.3400000000000D+00  0.0000000000000D+00  0.0000000000000D+00
436  4.3500000000000D+00  0.0000000000000D+00  0.0000000000000D+00
437  4.3600000000000D+00  0.0000000000000D+00  0.0000000000000D+00
438  4.3700000000000D+00  0.0000000000000D+00  0.0000000000000D+00
439  4.3800000000000D+00  0.0000000000000D+00  0.0000000000000D+00
440  4.3900000000000D+00  0.0000000000000D+00  0.0000000000000D+00
441  4.4000000000000D+00  0.0000000000000D+00  0.0000000000000D+00
442  4.4100000000000D+00  0.0000000000000D+00  0.0000000000000D+00
443  4.4200000000000D+00  0.0000000000000D+00  0.0000000000000D+00
444  4.4300000000000D+00  0.0000000000000D+00  0.0000000000000D+00