Be    ONCVPSP-3.2.3  r_core=   1.20427   1.05618
4.0000      4.0000      161006    zatom,zion,pspd
8   -1012   1     4   400     0    pspcod,pspxc,lmax,lloc,mmax,r2well
3.99000000  0.00000000  0.00000000    rchrg fchrg qchrg
2     2     0     0     0    nproj
1     1           extension_switch
0                        -8.1092181768752D+00 -2.8278198578697D+00
1  0.0000000000000D+00 -4.9091286591363D-11 -2.0546186974002D-10
2  1.0000000000000D-02  1.2119142707627D-01 -4.7461990766520D-02
3  2.0000000000000D-02  2.4187762481669D-01 -9.4454448798112D-02
4  3.0000000000000D-02  3.6155585978861D-01 -1.4051074198922D-01
5  4.0000000000000D-02  4.7972837914420D-01 -1.8517002776698D-01
6  5.0000000000000D-02  5.9590487286918D-01 -2.2798011848491D-01
7  6.0000000000000D-02  7.0960490240829D-01 -2.6850031141075D-01
8  7.0000000000000D-02  8.2036028451134D-01 -3.0630417124960D-01
9  8.0000000000000D-02  9.2771741919234D-01 -3.4098225293801D-01
10  9.0000000000000D-02  1.0312395507623D+00 -3.7214475220598D-01
11  1.0000000000000D-01  1.1305089509859D+00 -3.9942407114360D-01
12  1.1000000000000D-01  1.2251290135288D+00 -4.2247728574026D-01
13  1.2000000000000D-01  1.3147262490124D+00 -4.4098850210307D-01
14  1.3000000000000D-01  1.3989521701773D+00 -4.5467108782168D-01
15  1.4000000000000D-01  1.4774850568870D+00 -4.6326976474892D-01
16  1.5000000000000D-01  1.5500315909804D+00 -4.6656254932572D-01
17  1.6000000000000D-01  1.6163283513140D+00 -4.6436252651490D-01
18  1.7000000000000D-01  1.6761431597259D+00 -4.5651944343837D-01
19  1.8000000000000D-01  1.7292762691125D+00 -4.4292110895416D-01
20  1.9000000000000D-01  1.7755613853318D+00 -4.2349458567967D-01
21  2.0000000000000D-01  1.8148665152528D+00 -3.9820716138175D-01
22  2.1000000000000D-01  1.8470946339428D+00 -3.6706708722575D-01
23  2.2000000000000D-01  1.8721841647472D+00 -3.3012407111662D-01
24  2.3000000000000D-01  1.8901092668501D+00 -2.8746951528528D-01
25  2.4000000000000D-01  1.9008799258272D+00 -2.3923648837974D-01
26  2.5000000000000D-01  1.9045418437012D+00 -1.8559942361661D-01
27  2.6000000000000D-01  1.9011761260901D+00 -1.2677353603665D-01
28  2.7000000000000D-01  1.8908987651898D+00 -6.3013953584861D-02
29  2.8000000000000D-01  1.8738599185586D+00  5.3854414033922D-03
30  2.9000000000000D-01  1.8502429849569D+00  7.8093461692699D-02
31  3.0000000000000D-01  1.8202634798363D+00  1.5474335479848D-01
32  3.1000000000000D-01  1.7841677144651D+00  2.3493482963690D-01
33  3.2000000000000D-01  1.7422312841007D+00  3.1823636453908D-01
34  3.3000000000000D-01  1.6947573720697D+00  4.0418778841628D-01
35  3.4000000000000D-01  1.6420748780793D+00  4.9230312420359D-01
36  3.5000000000000D-01  1.5845363805454D+00  5.8207368099886D-01
37  3.6000000000000D-01  1.5225159441626D+00  6.7297137858111D-01
38  3.7000000000000D-01  1.4564067853588D+00  7.6445228527120D-01
39  3.8000000000000D-01  1.3866188096346D+00  8.5596034742147D-01
40  3.9000000000000D-01  1.3135760360929D+00  9.4693128622627D-01
41  4.0000000000000D-01  1.2377139256805D+00  1.0367966350677D+00
42  4.1000000000000D-01  1.1594766307845D+00  1.1249878882876D+00
43  4.2000000000000D-01  1.0793141848393D+00  1.2109407301434D+00
44  4.3000000000000D-01  9.9767965147697D-01  1.2940993108005D+00
45  4.4000000000000D-01  9.1502625349393D-01  1.3739205345664D+00
46  4.5000000000000D-01  8.3180450248658D-01  1.4498783242189D+00
47  4.6000000000000D-01  7.4845935042154D-01  1.5214678242543D+00
48  4.7000000000000D-01  6.6542738463669D-01  1.5882095051974D+00
49  4.8000000000000D-01  5.8313408781211D-01  1.6496531308166D+00
50  4.9000000000000D-01  5.0199118429496D-01  1.7053815501701D+00
51  5.0000000000000D-01  4.2239409380549D-01  1.7550142769137D+00
52  5.1000000000000D-01  3.4471951298836D-01  1.7982108192166D+00
53  5.2000000000000D-01  2.6932314450418D-01  1.8346737249783D+00
54  5.3000000000000D-01  1.9653759238136D-01  1.8641513088126D+00
55  5.4000000000000D-01  1.2667044117326D-01  1.8864400294570D+00
56  5.5000000000000D-01  6.0002535093420D-02  1.9013864888754D+00
57  5.6000000000000D-01 -3.2135282537778D-03  1.9088890273180D+00
58  5.7000000000000D-01 -6.2754676661883D-02  1.9088988919808D+00
59  5.8000000000000D-01 -1.1842840363826D-01  1.9014209606264D+00
60  5.9000000000000D-01 -1.7007356129044D-01  1.8865140055604D+00
61  6.0000000000000D-01 -2.1756089899197D-01  1.8642904876698D+00
62  6.1000000000000D-01 -2.6079334330573D-01  1.8349158747755D+00
63  6.2000000000000D-01 -2.9970601699486D-01  1.7986074832718D+00
64  6.3000000000000D-01 -3.3426599737305D-01  1.7556328469137D+00
65  6.4000000000000D-01 -3.6447181668418D-01  1.7063076215341D+00
66  6.5000000000000D-01 -3.9035270967271D-01  1.6509930394776D+00
67  6.6000000000000D-01 -4.1196761594427D-01  1.5900929324737D+00
68  6.7000000000000D-01 -4.2940394710623D-01  1.5240503465124D+00
69  6.8000000000000D-01 -4.4277613101632D-01  1.4533437770191D+00
70  6.9000000000000D-01 -4.5222394768561D-01  1.3784830570991D+00
71  7.0000000000000D-01 -4.5791067348536D-01  1.3000049358574D+00
72  7.1000000000000D-01 -4.6002105225618D-01  1.2184683876975D+00
73  7.2000000000000D-01 -4.5875911369751D-01  1.1344496970387D+00
74  7.3000000000000D-01 -4.5434586098799D-01  1.0485373659761D+00
75  7.4000000000000D-01 -4.4701685094870D-01  9.6132689503710D-01
76  7.5000000000000D-01 -4.3701969118287D-01  8.7341548929582D-01
77  7.6000000000000D-01 -4.2461147949441D-01  7.8539674365979D-01
78  7.7000000000000D-01 -4.1005621149363D-01  6.9785536212957D-01
79  7.8000000000000D-01 -3.9362218262440D-01  6.1136196620070D-01
80  7.9000000000000D-01 -3.7557941089336D-01  5.2646804734013D-01
81  8.0000000000000D-01 -3.5619710634049D-01  4.4370111760163D-01
82  8.1000000000000D-01 -3.3574121276335D-01  3.6356011095311D-01
83  8.2000000000000D-01 -3.1447204639633D-01  2.8651108577912D-01
84  8.3000000000000D-01 -2.9264205515989D-01  2.1298327630958D-01
85  8.4000000000000D-01 -2.7049372074139D-01  1.4336553743555D-01
86  8.5000000000000D-01 -2.4825762416421D-01  7.8003223533793D-02
87  8.6000000000000D-01 -2.2615069366080D-01  1.7195537574334D-02
88  8.7000000000000D-01 -2.0437465160873D-01 -3.8806618026501D-02
89  8.8000000000000D-01 -1.8311467503995D-01 -8.9802262569026D-02
90  8.9000000000000D-01 -1.6253828181626D-01 -1.3564140958823D-01
91  9.0000000000000D-01 -1.4279445200805D-01 -1.7622557593504D-01
92  9.1000000000000D-01 -1.2401299134672D-01 -2.1150771872138D-01
93  9.2000000000000D-01 -1.0630414087576D-01 -2.4149159767447D-01
94  9.3000000000000D-01 -8.9758434339969D-02 -2.6623056609111D-01
95  9.4000000000000D-01 -7.4446801465581D-02 -2.8582580189744D-01
96  9.5000000000000D-01 -6.0420907335262D-02 -3.0042401299663D-01
97  9.6000000000000D-01 -4.7713752753642D-02 -3.1021453593708D-01
98  9.7000000000000D-01 -3.6340383861876D-02 -3.1542632203462D-01
99  9.8000000000000D-01 -2.6298165023629D-02 -3.1632658046486D-01
100  9.9000000000000D-01 -1.7567160798502D-02 -3.1321918316851D-01
101  1.0000000000000D+00 -1.0111254594041D-02 -3.0644081630814D-01
102  1.0100000000000D+00 -3.8795597883821D-03 -2.9635637744303D-01
103  1.0200000000000D+00  1.1920591154393D-03 -2.8335421519956D-01
104  1.0300000000000D+00  5.1793388809426D-03 -2.6784113475488D-01
105  1.0400000000000D+00  8.1678725780333D-03 -2.5023724638235D-01
106  1.0500000000000D+00  1.0251291808337D-02 -2.3097071694303D-01
107  1.0600000000000D+00  1.1529400285312D-02 -2.1047248210971D-01
108  1.0700000000000D+00  1.2106283519358D-02 -1.8917097845743D-01
109  1.0800000000000D+00  1.2088419388363D-02 -1.6748695434857D-01
110  1.0900000000000D+00  1.1582814080582D-02 -1.4582841757636D-01
111  1.1000000000000D+00  1.0695187403296D-02 -1.2458577635065D-01
112  1.1100000000000D+00  9.5282306293910D-03 -1.0412722804764D-01
113  1.1200000000000D+00  8.1799589155563D-03 -8.4794447277890D-02
114  1.1300000000000D+00  6.7421789906102D-03 -6.6898621517869D-02
115  1.1400000000000D+00  5.2990911961096D-03 -5.0716878595867D-02
116  1.1500000000000D+00  3.9260433928715D-03 -3.6489146505438D-02
117  1.1600000000000D+00  2.6884518512715D-03 -2.4415480248131D-02
118  1.1700000000000D+00  1.6414896696023D-03 -1.4659104515696D-02
119  1.1800000000000D+00  8.2382167825019D-04 -7.2951361413460D-03
120  1.1900000000000D+00  2.7608445941382D-04 -2.4794456868893D-03
121  1.2000000000000D+00  2.0765045863820D-05 -2.7251172235670D-04
122  1.2100000000000D+00 -2.5822777038070D-05  1.6792823284021D-04
123  1.2200000000000D+00  2.3147663367992D-06 -1.6334393193087D-05
124  1.2300000000000D+00  3.7627420461643D-06 -2.7232960038260D-05
125  1.2400000000000D+00 -1.2553186651794D-06  8.7901080938713D-06
126  1.2500000000000D+00  2.1797782472140D-08 -8.1592130741584D-08
127  1.2600000000000D+00  2.9023482635145D-08 -1.0863893117428D-07
128  1.2700000000000D+00  0.0000000000000D+00  0.0000000000000D+00
129  1.2800000000000D+00  0.0000000000000D+00  0.0000000000000D+00
130  1.2900000000000D+00  0.0000000000000D+00  0.0000000000000D+00
131  1.3000000000000D+00  0.0000000000000D+00  0.0000000000000D+00
132  1.3100000000000D+00  0.0000000000000D+00  0.0000000000000D+00
133  1.3200000000000D+00  0.0000000000000D+00  0.0000000000000D+00
134  1.3300000000000D+00  0.0000000000000D+00  0.0000000000000D+00
135  1.3400000000000D+00  0.0000000000000D+00  0.0000000000000D+00
136  1.3500000000000D+00  0.0000000000000D+00  0.0000000000000D+00
137  1.3600000000000D+00  0.0000000000000D+00  0.0000000000000D+00
138  1.3700000000000D+00  0.0000000000000D+00  0.0000000000000D+00
139  1.3800000000000D+00  0.0000000000000D+00  0.0000000000000D+00
140  1.3900000000000D+00  0.0000000000000D+00  0.0000000000000D+00
141  1.4000000000000D+00  0.0000000000000D+00  0.0000000000000D+00
142  1.4100000000000D+00  0.0000000000000D+00  0.0000000000000D+00
143  1.4200000000000D+00  0.0000000000000D+00  0.0000000000000D+00
144  1.4300000000000D+00  0.0000000000000D+00  0.0000000000000D+00
145  1.4400000000000D+00  0.0000000000000D+00  0.0000000000000D+00
146  1.4500000000000D+00  0.0000000000000D+00  0.0000000000000D+00
147  1.4600000000000D+00  0.0000000000000D+00  0.0000000000000D+00
148  1.4700000000000D+00  0.0000000000000D+00  0.0000000000000D+00
149  1.4800000000000D+00  0.0000000000000D+00  0.0000000000000D+00
150  1.4900000000000D+00  0.0000000000000D+00  0.0000000000000D+00
151  1.5000000000000D+00  0.0000000000000D+00  0.0000000000000D+00
152  1.5100000000000D+00  0.0000000000000D+00  0.0000000000000D+00
153  1.5200000000000D+00  0.0000000000000D+00  0.0000000000000D+00
154  1.5300000000000D+00  0.0000000000000D+00  0.0000000000000D+00
155  1.5400000000000D+00  0.0000000000000D+00  0.0000000000000D+00
156  1.5500000000000D+00  0.0000000000000D+00  0.0000000000000D+00
157  1.5600000000000D+00  0.0000000000000D+00  0.0000000000000D+00
158  1.5700000000000D+00  0.0000000000000D+00  0.0000000000000D+00
159  1.5800000000000D+00  0.0000000000000D+00  0.0000000000000D+00
160  1.5900000000000D+00  0.0000000000000D+00  0.0000000000000D+00
161  1.6000000000000D+00  0.0000000000000D+00  0.0000000000000D+00
162  1.6100000000000D+00  0.0000000000000D+00  0.0000000000000D+00
163  1.6200000000000D+00  0.0000000000000D+00  0.0000000000000D+00
164  1.6300000000000D+00  0.0000000000000D+00  0.0000000000000D+00
165  1.6400000000000D+00  0.0000000000000D+00  0.0000000000000D+00
166  1.6500000000000D+00  0.0000000000000D+00  0.0000000000000D+00
167  1.6600000000000D+00  0.0000000000000D+00  0.0000000000000D+00
168  1.6700000000000D+00  0.0000000000000D+00  0.0000000000000D+00
169  1.6800000000000D+00  0.0000000000000D+00  0.0000000000000D+00
170  1.6900000000000D+00  0.0000000000000D+00  0.0000000000000D+00
171  1.7000000000000D+00  0.0000000000000D+00  0.0000000000000D+00
172  1.7100000000000D+00  0.0000000000000D+00  0.0000000000000D+00
173  1.7200000000000D+00  0.0000000000000D+00  0.0000000000000D+00
174  1.7300000000000D+00  0.0000000000000D+00  0.0000000000000D+00
175  1.7400000000000D+00  0.0000000000000D+00  0.0000000000000D+00
176  1.7500000000000D+00  0.0000000000000D+00  0.0000000000000D+00
177  1.7600000000000D+00  0.0000000000000D+00  0.0000000000000D+00
178  1.7700000000000D+00  0.0000000000000D+00  0.0000000000000D+00
179  1.7800000000000D+00  0.0000000000000D+00  0.0000000000000D+00
180  1.7900000000000D+00  0.0000000000000D+00  0.0000000000000D+00
181  1.8000000000000D+00  0.0000000000000D+00  0.0000000000000D+00
182  1.8100000000000D+00  0.0000000000000D+00  0.0000000000000D+00
183  1.8200000000000D+00  0.0000000000000D+00  0.0000000000000D+00
184  1.8300000000000D+00  0.0000000000000D+00  0.0000000000000D+00
185  1.8400000000000D+00  0.0000000000000D+00  0.0000000000000D+00
186  1.8500000000000D+00  0.0000000000000D+00  0.0000000000000D+00
187  1.8600000000000D+00  0.0000000000000D+00  0.0000000000000D+00
188  1.8700000000000D+00  0.0000000000000D+00  0.0000000000000D+00
189  1.8800000000000D+00  0.0000000000000D+00  0.0000000000000D+00
190  1.8900000000000D+00  0.0000000000000D+00  0.0000000000000D+00
191  1.9000000000000D+00  0.0000000000000D+00  0.0000000000000D+00
192  1.9100000000000D+00  0.0000000000000D+00  0.0000000000000D+00
193  1.9200000000000D+00  0.0000000000000D+00  0.0000000000000D+00
194  1.9300000000000D+00  0.0000000000000D+00  0.0000000000000D+00
195  1.9400000000000D+00  0.0000000000000D+00  0.0000000000000D+00
196  1.9500000000000D+00  0.0000000000000D+00  0.0000000000000D+00
197  1.9600000000000D+00  0.0000000000000D+00  0.0000000000000D+00
198  1.9700000000000D+00  0.0000000000000D+00  0.0000000000000D+00
199  1.9800000000000D+00  0.0000000000000D+00  0.0000000000000D+00
200  1.9900000000000D+00  0.0000000000000D+00  0.0000000000000D+00
201  2.0000000000000D+00  0.0000000000000D+00  0.0000000000000D+00
202  2.0100000000000D+00  0.0000000000000D+00  0.0000000000000D+00
203  2.0200000000000D+00  0.0000000000000D+00  0.0000000000000D+00
204  2.0300000000000D+00  0.0000000000000D+00  0.0000000000000D+00
205  2.0400000000000D+00  0.0000000000000D+00  0.0000000000000D+00
206  2.0500000000000D+00  0.0000000000000D+00  0.0000000000000D+00
207  2.0600000000000D+00  0.0000000000000D+00  0.0000000000000D+00
208  2.0700000000000D+00  0.0000000000000D+00  0.0000000000000D+00
209  2.0800000000000D+00  0.0000000000000D+00  0.0000000000000D+00
210  2.0900000000000D+00  0.0000000000000D+00  0.0000000000000D+00
211  2.1000000000000D+00  0.0000000000000D+00  0.0000000000000D+00
212  2.1100000000000D+00  0.0000000000000D+00  0.0000000000000D+00
213  2.1200000000000D+00  0.0000000000000D+00  0.0000000000000D+00
214  2.1300000000000D+00  0.0000000000000D+00  0.0000000000000D+00
215  2.1400000000000D+00  0.0000000000000D+00  0.0000000000000D+00
216  2.1500000000000D+00  0.0000000000000D+00  0.0000000000000D+00
217  2.1600000000000D+00  0.0000000000000D+00  0.0000000000000D+00
218  2.1700000000000D+00  0.0000000000000D+00  0.0000000000000D+00
219  2.1800000000000D+00  0.0000000000000D+00  0.0000000000000D+00
220  2.1900000000000D+00  0.0000000000000D+00  0.0000000000000D+00
221  2.2000000000000D+00  0.0000000000000D+00  0.0000000000000D+00
222  2.2100000000000D+00  0.0000000000000D+00  0.0000000000000D+00
223  2.2200000000000D+00  0.0000000000000D+00  0.0000000000000D+00
224  2.2300000000000D+00  0.0000000000000D+00  0.0000000000000D+00
225  2.2400000000000D+00  0.0000000000000D+00  0.0000000000000D+00
226  2.2500000000000D+00  0.0000000000000D+00  0.0000000000000D+00
227  2.2600000000000D+00  0.0000000000000D+00  0.0000000000000D+00
228  2.2700000000000D+00  0.0000000000000D+00  0.0000000000000D+00
229  2.2800000000000D+00  0.0000000000000D+00  0.0000000000000D+00
230  2.2900000000000D+00  0.0000000000000D+00  0.0000000000000D+00
231  2.3000000000000D+00  0.0000000000000D+00  0.0000000000000D+00
232  2.3100000000000D+00  0.0000000000000D+00  0.0000000000000D+00
233  2.3200000000000D+00  0.0000000000000D+00  0.0000000000000D+00
234  2.3300000000000D+00  0.0000000000000D+00  0.0000000000000D+00
235  2.3400000000000D+00  0.0000000000000D+00  0.0000000000000D+00
236  2.3500000000000D+00  0.0000000000000D+00  0.0000000000000D+00
237  2.3600000000000D+00  0.0000000000000D+00  0.0000000000000D+00
238  2.3700000000000D+00  0.0000000000000D+00  0.0000000000000D+00
239  2.3800000000000D+00  0.0000000000000D+00  0.0000000000000D+00
240  2.3900000000000D+00  0.0000000000000D+00  0.0000000000000D+00
241  2.4000000000000D+00  0.0000000000000D+00  0.0000000000000D+00
242  2.4100000000000D+00  0.0000000000000D+00  0.0000000000000D+00
243  2.4200000000000D+00  0.0000000000000D+00  0.0000000000000D+00
244  2.4300000000000D+00  0.0000000000000D+00  0.0000000000000D+00
245  2.4400000000000D+00  0.0000000000000D+00  0.0000000000000D+00
246  2.4500000000000D+00  0.0000000000000D+00  0.0000000000000D+00
247  2.4600000000000D+00  0.0000000000000D+00  0.0000000000000D+00
248  2.4700000000000D+00  0.0000000000000D+00  0.0000000000000D+00
249  2.4800000000000D+00  0.0000000000000D+00  0.0000000000000D+00
250  2.4900000000000D+00  0.0000000000000D+00  0.0000000000000D+00
251  2.5000000000000D+00  0.0000000000000D+00  0.0000000000000D+00
252  2.5100000000000D+00  0.0000000000000D+00  0.0000000000000D+00
253  2.5200000000000D+00  0.0000000000000D+00  0.0000000000000D+00
254  2.5300000000000D+00  0.0000000000000D+00  0.0000000000000D+00
255  2.5400000000000D+00  0.0000000000000D+00  0.0000000000000D+00
256  2.5500000000000D+00  0.0000000000000D+00  0.0000000000000D+00
257  2.5600000000000D+00  0.0000000000000D+00  0.0000000000000D+00
258  2.5700000000000D+00  0.0000000000000D+00  0.0000000000000D+00
259  2.5800000000000D+00  0.0000000000000D+00  0.0000000000000D+00
260  2.5900000000000D+00  0.0000000000000D+00  0.0000000000000D+00
261  2.6000000000000D+00  0.0000000000000D+00  0.0000000000000D+00
262  2.6100000000000D+00  0.0000000000000D+00  0.0000000000000D+00
263  2.6200000000000D+00  0.0000000000000D+00  0.0000000000000D+00
264  2.6300000000000D+00  0.0000000000000D+00  0.0000000000000D+00
265  2.6400000000000D+00  0.0000000000000D+00  0.0000000000000D+00
266  2.6500000000000D+00  0.0000000000000D+00  0.0000000000000D+00
267  2.6600000000000D+00  0.0000000000000D+00  0.0000000000000D+00
268  2.6700000000000D+00  0.0000000000000D+00  0.0000000000000D+00
269  2.6800000000000D+00  0.0000000000000D+00  0.0000000000000D+00
270  2.6900000000000D+00  0.0000000000000D+00  0.0000000000000D+00
271  2.7000000000000D+00  0.0000000000000D+00  0.0000000000000D+00
272  2.7100000000000D+00  0.0000000000000D+00  0.0000000000000D+00
273  2.7200000000000D+00  0.0000000000000D+00  0.0000000000000D+00
274  2.7300000000000D+00  0.0000000000000D+00  0.0000000000000D+00
275  2.7400000000000D+00  0.0000000000000D+00  0.0000000000000D+00
276  2.7500000000000D+00  0.0000000000000D+00  0.0000000000000D+00
277  2.7600000000000D+00  0.0000000000000D+00  0.0000000000000D+00
278  2.7700000000000D+00  0.0000000000000D+00  0.0000000000000D+00
279  2.7800000000000D+00  0.0000000000000D+00  0.0000000000000D+00
280  2.7900000000000D+00  0.0000000000000D+00  0.0000000000000D+00
281  2.8000000000000D+00  0.0000000000000D+00  0.0000000000000D+00
282  2.8100000000000D+00  0.0000000000000D+00  0.0000000000000D+00
283  2.8200000000000D+00  0.0000000000000D+00  0.0000000000000D+00
284  2.8300000000000D+00  0.0000000000000D+00  0.0000000000000D+00
285  2.8400000000000D+00  0.0000000000000D+00  0.0000000000000D+00
286  2.8500000000000D+00  0.0000000000000D+00  0.0000000000000D+00
287  2.8600000000000D+00  0.0000000000000D+00  0.0000000000000D+00
288  2.8700000000000D+00  0.0000000000000D+00  0.0000000000000D+00
289  2.8800000000000D+00  0.0000000000000D+00  0.0000000000000D+00
290  2.8900000000000D+00  0.0000000000000D+00  0.0000000000000D+00
291  2.9000000000000D+00  0.0000000000000D+00  0.0000000000000D+00
292  2.9100000000000D+00  0.0000000000000D+00  0.0000000000000D+00
293  2.9200000000000D+00  0.0000000000000D+00  0.0000000000000D+00
294  2.9300000000000D+00  0.0000000000000D+00  0.0000000000000D+00
295  2.9400000000000D+00  0.0000000000000D+00  0.0000000000000D+00
296  2.9500000000000D+00  0.0000000000000D+00  0.0000000000000D+00
297  2.9600000000000D+00  0.0000000000000D+00  0.0000000000000D+00
298  2.9700000000000D+00  0.0000000000000D+00  0.0000000000000D+00
299  2.9800000000000D+00  0.0000000000000D+00  0.0000000000000D+00
300  2.9900000000000D+00  0.0000000000000D+00  0.0000000000000D+00
301  3.0000000000000D+00  0.0000000000000D+00  0.0000000000000D+00
302  3.0100000000000D+00  0.0000000000000D+00  0.0000000000000D+00
303  3.0200000000000D+00  0.0000000000000D+00  0.0000000000000D+00
304  3.0300000000000D+00  0.0000000000000D+00  0.0000000000000D+00
305  3.0400000000000D+00  0.0000000000000D+00  0.0000000000000D+00
306  3.0500000000000D+00  0.0000000000000D+00  0.0000000000000D+00
307  3.0600000000000D+00  0.0000000000000D+00  0.0000000000000D+00
308  3.0700000000000D+00  0.0000000000000D+00  0.0000000000000D+00
309  3.0800000000000D+00  0.0000000000000D+00  0.0000000000000D+00
310  3.0900000000000D+00  0.0000000000000D+00  0.0000000000000D+00
311  3.1000000000000D+00  0.0000000000000D+00  0.0000000000000D+00
312  3.1100000000000D+00  0.0000000000000D+00  0.0000000000000D+00
313  3.1200000000000D+00  0.0000000000000D+00  0.0000000000000D+00
314  3.1300000000000D+00  0.0000000000000D+00  0.0000000000000D+00
315  3.1400000000000D+00  0.0000000000000D+00  0.0000000000000D+00
316  3.1500000000000D+00  0.0000000000000D+00  0.0000000000000D+00
317  3.1600000000000D+00  0.0000000000000D+00  0.0000000000000D+00
318  3.1700000000000D+00  0.0000000000000D+00  0.0000000000000D+00
319  3.1800000000000D+00  0.0000000000000D+00  0.0000000000000D+00
320  3.1900000000000D+00  0.0000000000000D+00  0.0000000000000D+00
321  3.2000000000000D+00  0.0000000000000D+00  0.0000000000000D+00
322  3.2100000000000D+00  0.0000000000000D+00  0.0000000000000D+00
323  3.2200000000000D+00  0.0000000000000D+00  0.0000000000000D+00
324  3.2300000000000D+00  0.0000000000000D+00  0.0000000000000D+00
325  3.2400000000000D+00  0.0000000000000D+00  0.0000000000000D+00
326  3.2500000000000D+00  0.0000000000000D+00  0.0000000000000D+00
327  3.2600000000000D+00  0.0000000000000D+00  0.0000000000000D+00
328  3.2700000000000D+00  0.0000000000000D+00  0.0000000000000D+00
329  3.2800000000000D+00  0.0000000000000D+00  0.0000000000000D+00
330  3.2900000000000D+00  0.0000000000000D+00  0.0000000000000D+00
331  3.3000000000000D+00  0.0000000000000D+00  0.0000000000000D+00
332  3.3100000000000D+00  0.0000000000000D+00  0.0000000000000D+00
333  3.3200000000000D+00  0.0000000000000D+00  0.0000000000000D+00
334  3.3300000000000D+00  0.0000000000000D+00  0.0000000000000D+00
335  3.3400000000000D+00  0.0000000000000D+00  0.0000000000000D+00
336  3.3500000000000D+00  0.0000000000000D+00  0.0000000000000D+00
337  3.3600000000000D+00  0.0000000000000D+00  0.0000000000000D+00
338  3.3700000000000D+00  0.0000000000000D+00  0.0000000000000D+00
339  3.3800000000000D+00  0.0000000000000D+00  0.0000000000000D+00
340  3.3900000000000D+00  0.0000000000000D+00  0.0000000000000D+00
341  3.4000000000000D+00  0.0000000000000D+00  0.0000000000000D+00
342  3.4100000000000D+00  0.0000000000000D+00  0.0000000000000D+00
343  3.4200000000000D+00  0.0000000000000D+00  0.0000000000000D+00
344  3.4300000000000D+00  0.0000000000000D+00  0.0000000000000D+00
345  3.4400000000000D+00  0.0000000000000D+00  0.0000000000000D+00
346  3.4500000000000D+00  0.0000000000000D+00  0.0000000000000D+00
347  3.4600000000000D+00  0.0000000000000D+00  0.0000000000000D+00
348  3.4700000000000D+00  0.0000000000000D+00  0.0000000000000D+00
349  3.4800000000000D+00  0.0000000000000D+00  0.0000000000000D+00
350  3.4900000000000D+00  0.0000000000000D+00  0.0000000000000D+00
351  3.5000000000000D+00  0.0000000000000D+00  0.0000000000000D+00
352  3.5100000000000D+00  0.0000000000000D+00  0.0000000000000D+00
353  3.5200000000000D+00  0.0000000000000D+00  0.0000000000000D+00
354  3.5300000000000D+00  0.0000000000000D+00  0.0000000000000D+00
355  3.5400000000000D+00  0.0000000000000D+00  0.0000000000000D+00
356  3.5500000000000D+00  0.0000000000000D+00  0.0000000000000D+00
357  3.5600000000000D+00  0.0000000000000D+00  0.0000000000000D+00
358  3.5700000000000D+00  0.0000000000000D+00  0.0000000000000D+00
359  3.5800000000000D+00  0.0000000000000D+00  0.0000000000000D+00
360  3.5900000000000D+00  0.0000000000000D+00  0.0000000000000D+00
361  3.6000000000000D+00  0.0000000000000D+00  0.0000000000000D+00
362  3.6100000000000D+00  0.0000000000000D+00  0.0000000000000D+00
363  3.6200000000000D+00  0.0000000000000D+00  0.0000000000000D+00
364  3.6300000000000D+00  0.0000000000000D+00  0.0000000000000D+00
365  3.6400000000000D+00  0.0000000000000D+00  0.0000000000000D+00
366  3.6500000000000D+00  0.0000000000000D+00  0.0000000000000D+00
367  3.6600000000000D+00  0.0000000000000D+00  0.0000000000000D+00
368  3.6700000000000D+00  0.0000000000000D+00  0.0000000000000D+00
369  3.6800000000000D+00  0.0000000000000D+00  0.0000000000000D+00
370  3.6900000000000D+00  0.0000000000000D+00  0.0000000000000D+00
371  3.7000000000000D+00  0.0000000000000D+00  0.0000000000000D+00
372  3.7100000000000D+00  0.0000000000000D+00  0.0000000000000D+00
373  3.7200000000000D+00  0.0000000000000D+00  0.0000000000000D+00
374  3.7300000000000D+00  0.0000000000000D+00  0.0000000000000D+00
375  3.7400000000000D+00  0.0000000000000D+00  0.0000000000000D+00
376  3.7500000000000D+00  0.0000000000000D+00  0.0000000000000D+00
377  3.7600000000000D+00  0.0000000000000D+00  0.0000000000000D+00
378  3.7700000000000D+00  0.0000000000000D+00  0.0000000000000D+00
379  3.7800000000000D+00  0.0000000000000D+00  0.0000000000000D+00
380  3.7900000000000D+00  0.0000000000000D+00  0.0000000000000D+00
381  3.8000000000000D+00  0.0000000000000D+00  0.0000000000000D+00
382  3.8100000000000D+00  0.0000000000000D+00  0.0000000000000D+00
383  3.8200000000000D+00  0.0000000000000D+00  0.0000000000000D+00
384  3.8300000000000D+00  0.0000000000000D+00  0.0000000000000D+00
385  3.8400000000000D+00  0.0000000000000D+00  0.0000000000000D+00
386  3.8500000000000D+00  0.0000000000000D+00  0.0000000000000D+00
387  3.8600000000000D+00  0.0000000000000D+00  0.0000000000000D+00
388  3.8700000000000D+00  0.0000000000000D+00  0.0000000000000D+00
389  3.8800000000000D+00  0.0000000000000D+00  0.0000000000000D+00
390  3.8900000000000D+00  0.0000000000000D+00  0.0000000000000D+00
391  3.9000000000000D+00  0.0000000000000D+00  0.0000000000000D+00
392  3.9100000000000D+00  0.0000000000000D+00  0.0000000000000D+00
393  3.9200000000000D+00  0.0000000000000D+00  0.0000000000000D+00
394  3.9300000000000D+00  0.0000000000000D+00  0.0000000000000D+00
395  3.9400000000000D+00  0.0000000000000D+00  0.0000000000000D+00
396  3.9500000000000D+00  0.0000000000000D+00  0.0000000000000D+00
397  3.9600000000000D+00  0.0000000000000D+00  0.0000000000000D+00
398  3.9700000000000D+00  0.0000000000000D+00  0.0000000000000D+00
399  3.9800000000000D+00  0.0000000000000D+00  0.0000000000000D+00
400  3.9900000000000D+00  0.0000000000000D+00  0.0000000000000D+00
1                        -1.8370883694451D+01 -1.5222258326419D+00
1  0.0000000000000D+00  1.2636669977084D-07 -3.1724330533216D-08
2  1.0000000000000D-02  1.0935316066830D-02 -2.6153417951198D-04
3  2.0000000000000D-02  4.3534927130022D-02 -1.0065110009462D-03
4  3.0000000000000D-02  9.7183682979964D-02 -2.1169795952486D-03
5  4.0000000000000D-02  1.7086912912032D-01 -3.3994240084357D-03
6  5.0000000000000D-02  2.6320044016158D-01 -4.5893010868466D-03
7  6.0000000000000D-02  3.7243441114375D-01 -5.3572641430356D-03
8  7.0000000000000D-02  4.9650800371288D-01 -5.3169461253061D-03
9  8.0000000000000D-02  6.3307681770991D-01 -4.0341442895525D-03
10  9.0000000000000D-02  7.7955874489963D-01 -1.0372197924012D-03
11  1.0000000000000D-01  9.3318196253618D-01  4.1714992410111D-03
12  1.1000000000000D-01  1.0910363421823D+00  1.2103543280112D-02
13  1.2000000000000D-01  1.2501272852947D+00  2.3271603729503D-02
14  1.3000000000000D-01  1.4074309527994D+00  3.8176571301479D-02
15  1.4000000000000D-01  1.5599498320578D+00  5.7294575629055D-02
16  1.5000000000000D-01  1.7047675817044D+00  8.1064292014006D-02
17  1.6000000000000D-01  1.8391021128225D+00  1.0987477661162D-01
18  1.7000000000000D-01  1.9603559034119D+00  1.4405408157663D-01
19  1.8000000000000D-01  2.0661626012665D+00  1.8385888693199D-01
20  1.9000000000000D-01  2.1544290469866D+00  2.2946536647121D-01
21  2.0000000000000D-01  2.2233719423290D+00  2.8096148125591D-01
22  2.1000000000000D-01  2.2715484974934D+00  3.3834086669999D-01
23  2.2000000000000D-01  2.2978805120486D+00  4.0149844839045D-01
24  2.3000000000000D-01  2.3016714755191D+00  4.7022788829949D-01
25  2.4000000000000D-01  2.2826164125143D+00  5.4422092755926D-01
26  2.5000000000000D-01  2.2408043408527D+00  6.2306865520680D-01
27  2.6000000000000D-01  2.1767133565028D+00  7.0626469499092D-01
28  2.7000000000000D-01  2.0911985033908D+00  7.9321026520527D-01
29  2.8000000000000D-01  1.9854727262989D+00  8.8322103030606D-01
30  2.9000000000000D-01  1.8610813383937D+00  9.7553562850155D-01
31  3.0000000000000D-01  1.7198705587037D+00  1.0693257272428D+00
32  3.1000000000000D-01  1.5639507866635D+00  1.1637074292316D+00
33  3.2000000000000D-01  1.3956553784473D+00  1.2577538257586D+00
34  3.3000000000000D-01  1.2174957713307D+00  1.3505084723962D+00
35  3.4000000000000D-01  1.0321138661762D+00  1.4409995447001D+00
36  3.5000000000000D-01  8.4223262315540D-01  1.5282544189595D+00
37  3.6000000000000D-01  6.5060585118277D-01  1.6113144153915D+00
38  3.7000000000000D-01  4.5996817687343D-01  1.6892494386431D+00
39  3.8000000000000D-01  2.7298616416366D-01  1.7611722530521D+00
40  3.9000000000000D-01  9.2211521498159D-02  1.8262521377640D+00
41  4.0000000000000D-01 -7.9962719459230D-02  1.8837276793081D+00
42  4.1000000000000D-01 -2.4134224007191D-01  1.9329184763447D+00
43  4.2000000000000D-01 -3.8996695873937D-01  1.9732355526179D+00