S     ONCVPSP  r_core=  1.62  1.51  1.96
     16.0000      6.0000      141008    zatom,zion,pspd
     8    11     2     4   601     0    pspcod,pspxc,lmax,lloc,mmax,r2well
  6.00000000  0.20000000  0.00000000    rchrg fchrg qchrg
     2     2     2     0     0    nproj
     0                 extension_switch
   0                         9.4203876495827D+00  1.0311457578852D+00
     1  0.0000000000000D+00  0.0000000000000D+00  0.0000000000000D+00
     2  1.0000000000000D-02 -5.7120916257446D-02 -3.3896003398398D-02
     3  2.0000000000000D-02 -1.1413255811839D-01 -6.7652413724642D-02
     4  3.0000000000000D-02 -1.7092634063151D-01 -1.0113061629849D-01
     5  4.0000000000000D-02 -2.2739504754771D-01 -1.3419393918141D-01
     6  5.0000000000000D-02 -2.8343349037262D-01 -1.6670858967796D-01
     7  6.0000000000000D-02 -3.3893913753982D-01 -1.9854454965094D-01
     8  7.0000000000000D-02 -3.9381270453201D-01 -2.2957641700188D-01
     9  8.0000000000000D-02 -4.4795869644197D-01 -2.5968418158031D-01
    10  9.0000000000000D-02 -5.0128589525655D-01 -2.8875392487079D-01
    11  1.0000000000000D-01 -5.5370778510414D-01 -3.1667843412191D-01
    12  1.1000000000000D-01 -6.0514290972357D-01 -3.4335772297585D-01
    13  1.2000000000000D-01 -6.5551515758714D-01 -3.6869945227119D-01
    14  1.3000000000000D-01 -7.0475397130476D-01 -3.9261924632759D-01
    15  1.4000000000000D-01 -7.5279447930627D-01 -4.1504090191237D-01
    16  1.5000000000000D-01 -7.9957754892274D-01 -4.3589648860556D-01
    17  1.6000000000000D-01 -8.4504976161443D-01 -4.5512634155762D-01
    18  1.7000000000000D-01 -8.8916331211193D-01 -4.7267894896356D-01
    19  1.8000000000000D-01 -9.3187583478960D-01 -4.8851073880981D-01
    20  1.9000000000000D-01 -9.7315016167351D-01 -5.0258577080904D-01
    21  2.0000000000000D-01 -1.0129540176123D+00 -5.1487534111628D-01
    22  2.1000000000000D-01 -1.0512596596385D+00 -5.2535750934683D-01
    23  2.2000000000000D-01 -1.0880434678316D+00 -5.3401655793302D-01
    24  2.3000000000000D-01 -1.1232854962018D+00 -5.4084239542818D-01
    25  2.4000000000000D-01 -1.1569689928733D+00 -5.4582991642401D-01
    26  2.5000000000000D-01 -1.1890799010430D+00 -5.4897833369932D-01
    27  2.6000000000000D-01 -1.2196063446826D+00 -5.5029048828491D-01
    28  2.7000000000000D-01 -1.2485381196857D+00 -5.4977216526611D-01
    29  2.8000000000000D-01 -1.2758661909327D+00 -5.4743141641276D-01
    30  2.9000000000000D-01 -1.3015822103479D+00 -5.4327790999125D-01
    31  3.0000000000000D-01 -1.3256780649821D+00 -5.3732232013205D-01
    32  3.1000000000000D-01 -1.3481454642798D+00 -5.2957576824963D-01
    33  3.2000000000000D-01 -1.3689755754734D+00 -5.2004932869248D-01
    34  3.3000000000000D-01 -1.3881587184220D+00 -5.0875361398047D-01
    35  3.4000000000000D-01 -1.4056841123373D+00 -4.9569842953237D-01
    36  3.5000000000000D-01 -1.4215397069276D+00 -4.8089254171319D-01
    37  3.6000000000000D-01 -1.4357120704297D+00 -4.6434352212659D-01
    38  3.7000000000000D-01 -1.4481863727826D+00 -4.4605771971395D-01
    39  3.8000000000000D-01 -1.4589464236991D+00 -4.2604030613560D-01
    40  3.9000000000000D-01 -1.4679748132776D+00 -4.0429545879223D-01
    41  4.0000000000000D-01 -1.4752531174309D+00 -3.8082663023144D-01
    42  4.1000000000000D-01 -1.4807621822055D+00 -3.5563692275902D-01
    43  4.2000000000000D-01 -1.4844824807557D+00 -3.2872955956232D-01
    44  4.3000000000000D-01 -1.4863945375937D+00 -3.0010844476751D-01
    45  4.4000000000000D-01 -1.4864794137084D+00 -2.6977880342516D-01
    46  4.5000000000000D-01 -1.4847192450620D+00 -2.3774789091197D-01
    47  4.6000000000000D-01 -1.4810978258879D+00 -2.0402575973818D-01
    48  4.7000000000000D-01 -1.4756012270714D+00 -1.6862607018102D-01
    49  4.8000000000000D-01 -1.4682184386588D+00 -1.3156692949058D-01
    50  4.9000000000000D-01 -1.4589420125990D+00 -9.2871727578721D-02
    51  5.0000000000000D-01 -1.4477687424774D+00 -5.2570015970659D-02
    52  5.1000000000000D-01 -1.4347003144878D+00 -1.0698343022660D-02
    53  5.2000000000000D-01 -1.4197438904606D+00  3.2699005788865D-02
    54  5.3000000000000D-01 -1.4029127416291D+00  7.7569210172148D-02
    55  5.4000000000000D-01 -1.3842268148574D+00  1.2385021564992D-01
    56  5.5000000000000D-01 -1.3637131040011D+00  1.7147029259022D-01
    57  5.6000000000000D-01 -1.3414062875595D+00  2.2034727202114D-01
    58  5.7000000000000D-01 -1.3173488012831D+00  2.7038850815332D-01
    59  5.8000000000000D-01 -1.2915914004910D+00  3.2149024614498D-01
    60  5.9000000000000D-01 -1.2641930184717D+00  3.7353787853159D-01
    61  6.0000000000000D-01 -1.2352211390836D+00  4.2640559794165D-01
    62  6.1000000000000D-01 -1.2047515195958D+00  4.7995685290876D-01
    63  6.2000000000000D-01 -1.1728681882524D+00  5.3404450568557D-01
    64  6.3000000000000D-01 -1.1396631872705D+00  5.8851132228472D-01
    65  6.4000000000000D-01 -1.1052361385855D+00  6.4319067228847D-01
    66  6.5000000000000D-01 -1.0696938872201D+00  6.9790721326772D-01
    67  6.6000000000000D-01 -1.0331498777040D+00  7.5247787606524D-01
    68  6.7000000000000D-01 -9.9572350058339D-01  8.0671290247005D-01
    69  6.8000000000000D-01 -9.5753937074804D-01  8.6041700334410D-01
    70  6.9000000000000D-01 -9.1872644337908D-01  9.1339078135976D-01
    71  7.0000000000000D-01 -8.7941713945006D-01  9.6543204539404D-01
    72  7.1000000000000D-01 -8.3974637441313D-01  1.0163373318796D+00
    73  7.2000000000000D-01 -7.9985058188642D-01  1.0659034024459D+00
    74  7.3000000000000D-01 -7.5986656621959D-01  1.1139290275742D+00
    75  7.4000000000000D-01 -7.1993041582857D-01  1.1602166430461D+00
    76  7.5000000000000D-01 -6.8017647989588D-01  1.2045739019063D+00
    77  7.6000000000000D-01 -6.4073624654775D-01  1.2468153945758D+00
    78  7.7000000000000D-01 -6.0173726775899D-01  1.2867642891477D+00
    79  7.8000000000000D-01 -5.6330211624643D-01  1.3242539223885D+00
    80  7.9000000000000D-01 -5.2554738864327D-01  1.3591293204412D+00
    81  8.0000000000000D-01 -4.8858276866527D-01  1.3912486289938D+00
    82  8.1000000000000D-01 -4.5251016318297D-01  1.4204844337419D+00
    83  8.2000000000000D-01 -4.1742292312110D-01  1.4467249533255D+00
    84  8.3000000000000D-01 -3.8340518175759D-01  1.4698750538963D+00
    85  8.4000000000000D-01 -3.5053119635817D-01  1.4898572669061D+00
    86  8.5000000000000D-01 -3.1886497124762D-01  1.5066123689403D+00
    87  8.6000000000000D-01 -2.8845990343213D-01  1.5200999348196D+00
    88  8.7000000000000D-01 -2.5935854253087D-01  1.5302987174485D+00
    89  8.8000000000000D-01 -2.3159245595062D-01  1.5372068685300D+00
    90  8.9000000000000D-01 -2.0518231648133D-01  1.5408418132858D+00
    91  9.0000000000000D-01 -1.8013804856193D-01  1.5412400376251D+00
    92  9.1000000000000D-01 -1.5645911705629D-01  1.5384566532951D+00
    93  9.2000000000000D-01 -1.3413493791330D-01  1.5325647719365D+00
    94  9.3000000000000D-01 -1.1314540468528D-01  1.5236546955731D+00
    95  9.4000000000000D-01 -9.3461523014148D-02  1.5118329338096D+00
    96  9.5000000000000D-01 -7.5046143376568D-02  1.4972210607359D+00
    97  9.6000000000000D-01 -5.7854780657809D-02  1.4799544271555D+00
    98  9.7000000000000D-01 -4.1836507567446D-02  1.4601807461968D+00
    99  9.8000000000000D-01 -2.6934891239697D-02  1.4380585976229D+00
   100  9.9000000000000D-01 -1.3088938702276D-02  1.4137559107674D+00
   101  1.0000000000000D+00 -2.3428347563599D-04  1.3874480387364D+00
   102  1.0100000000000D+00  1.1695805813293D-02  1.3593160931333D+00
   103  1.0200000000000D+00  2.2769377239110D-02  1.3295452007153D+00
   104  1.0300000000000D+00  3.3054759824179D-02  1.2983227543791D+00
   105  1.0400000000000D+00  4.2619750636164D-02  1.2658370135459D+00
   106  1.0500000000000D+00  5.1530446677216D-02  1.2322750922454D+00
   107  1.0600000000000D+00  5.9849812991743D-02  1.1978204295256D+00
   108  1.0700000000000D+00  6.7637538836385D-02  1.1626524109493D+00
   109  1.0800000000000D+00  7.4949083617366D-02  1.1269445964419D+00
   110  1.0900000000000D+00  8.1835571933879D-02  1.0908644127901D+00
   111  1.1000000000000D+00  8.8341884727176D-02  1.0545695967401D+00
   112  1.1100000000000D+00  9.4506620321944D-02  1.0182077971854D+00
   113  1.1200000000000D+00  1.0036242288684D-01  9.8191690136188D-01
   114  1.1300000000000D+00  1.0593597953559D-01  9.4582482150842D-01
   115  1.1400000000000D+00  1.1124676844847D-01  9.1004681699293D-01
   116  1.1500000000000D+00  1.1630683541729D-01  8.7468440437832D-01
   117  1.1600000000000D+00  1.2112240033297D-01  8.3982806082402D-01
   118  1.1700000000000D+00  1.2569420299295D-01  8.0555775212927D-01
   119  1.1800000000000D+00  1.3001556640763D-01  7.7193797541285D-01
   120  1.1900000000000D+00  1.3407468711769D-01  7.3902166353131D-01
   121  1.2000000000000D+00  1.3785550913098D-01  7.0685178628499D-01
   122  1.2100000000000D+00  1.4133750893053D-01  6.7546035494659D-01
   123  1.2200000000000D+00  1.4449592639816D-01  6.4486641793996D-01
   124  1.2300000000000D+00  1.4730405342554D-01  6.1508171327169D-01
   125  1.2400000000000D+00  1.4973300924715D-01  5.8611056520053D-01
   126  1.2500000000000D+00  1.5175270940704D-01  5.5794651615705D-01
   127  1.2600000000000D+00  1.5333343252852D-01  5.3057886968600D-01
   128  1.2700000000000D+00  1.5444513328466D-01  5.0399192270866D-01
   129  1.2800000000000D+00  1.5506072241429D-01  4.7816416912827D-01
   130  1.2900000000000D+00  1.5515534534460D-01  4.5307247681788D-01
   131  1.3000000000000D+00  1.5470564177577D-01  4.2869092210602D-01
   132  1.3100000000000D+00  1.5369533875077D-01  4.0499347028222D-01
   133  1.3200000000000D+00  1.5211115661891D-01  3.8195422346358D-01
   134  1.3300000000000D+00  1.4994413957893D-01  3.5954735235805D-01
   135  1.3400000000000D+00  1.4719453334497D-01  3.3775143831069D-01
   136  1.3500000000000D+00  1.4386547044898D-01  3.1654562858120D-01
   137  1.3600000000000D+00  1.3996846601688D-01  2.9591366970366D-01
   138  1.3700000000000D+00  1.3552306279186D-01  2.7584479234116D-01
   139  1.3800000000000D+00  1.3055150490796D-01  2.5632870273759D-01
   140  1.3900000000000D+00  1.2508847407906D-01  2.3736521640698D-01
   141  1.4000000000000D+00  1.1917157735672D-01  2.1895556394716D-01
   142  1.4100000000000D+00  1.1284567853122D-01  2.0110647182956D-01
   143  1.4200000000000D+00  1.0616345995554D-01  1.8383185172833D-01
   144  1.4300000000000D+00  9.9179837169297D-02  1.6714595644924D-01
   145  1.4400000000000D+00  9.1958501435024D-02  1.5107224246617D-01
   146  1.4500000000000D+00  8.4564593055032D-02  1.3563423422703D-01
   147  1.4600000000000D+00  7.7068309893827D-02  1.2086042854044D-01
   148  1.4700000000000D+00  6.9541493898747D-02  1.0678126734056D-01
   149  1.4800000000000D+00  6.2058988722674D-02  9.3428827727757D-02
   150  1.4900000000000D+00  5.4694375727257D-02  8.0835976847066D-02
   151  1.5000000000000D+00  4.7523968160517D-02  6.9036147253961D-02
   152  1.5100000000000D+00  4.0619386423289D-02  5.8060446451355D-02
   153  1.5200000000000D+00  3.4053110841098D-02  4.7940075279769D-02
   154  1.5300000000000D+00  2.7893197792292D-02  3.8704377668862D-02
   155  1.5400000000000D+00  2.2203732324018D-02  3.0381255785458D-02
   156  1.5500000000000D+00  1.7047167126564D-02  2.2998382484171D-02
   157  1.5600000000000D+00  1.2475075291950D-02  1.6577875661787D-02
   158  1.5700000000000D+00  8.5416137322672D-03  1.1143085954027D-02
   159  1.5800000000000D+00  5.2823292094310D-03  6.7067645812821D-03
   160  1.5900000000000D+00  2.7404866898119D-03  3.2856454024209D-03
   161  1.6000000000000D+00  9.3977625282732D-04  8.8643247486482D-04
   162  1.6100000000000D+00 -4.5345706797305D-05 -4.4038707880883D-04
   163  1.6200000000000D+00 -4.0377879211834D-04 -8.6552147282020D-04
   164  1.6300000000000D+00 -2.4525386568544D-04 -4.6810648290997D-04
   165  1.6400000000000D+00  1.2206175497651D-05  2.7072578964422D-05
   166  1.6500000000000D+00  2.2710765664701D-05  5.0371141797725D-05
   167  1.6600000000000D+00  0.0000000000000D+00  0.0000000000000D+00
   168  1.6700000000000D+00  0.0000000000000D+00  0.0000000000000D+00
   169  1.6800000000000D+00  0.0000000000000D+00  0.0000000000000D+00
   170  1.6900000000000D+00  0.0000000000000D+00  0.0000000000000D+00
   171  1.7000000000000D+00  0.0000000000000D+00  0.0000000000000D+00
   172  1.7100000000000D+00  0.0000000000000D+00  0.0000000000000D+00
   173  1.7200000000000D+00  0.0000000000000D+00  0.0000000000000D+00
   174  1.7300000000000D+00  0.0000000000000D+00  0.0000000000000D+00
   175  1.7400000000000D+00  0.0000000000000D+00  0.0000000000000D+00
   176  1.7500000000000D+00  0.0000000000000D+00  0.0000000000000D+00
   177  1.7600000000000D+00  0.0000000000000D+00  0.0000000000000D+00
   178  1.7700000000000D+00  0.0000000000000D+00  0.0000000000000D+00
   179  1.7800000000000D+00  0.0000000000000D+00  0.0000000000000D+00
   180  1.7900000000000D+00  0.0000000000000D+00  0.0000000000000D+00
   181  1.8000000000000D+00  0.0000000000000D+00  0.0000000000000D+00
   182  1.8100000000000D+00  0.0000000000000D+00  0.0000000000000D+00
   183  1.8200000000000D+00  0.0000000000000D+00  0.0000000000000D+00
   184  1.8300000000000D+00  0.0000000000000D+00  0.0000000000000D+00
   185  1.8400000000000D+00  0.0000000000000D+00  0.0000000000000D+00
   186  1.8500000000000D+00  0.0000000000000D+00  0.0000000000000D+00
   187  1.8600000000000D+00  0.0000000000000D+00  0.0000000000000D+00
   188  1.8700000000000D+00  0.0000000000000D+00  0.0000000000000D+00
   189  1.8800000000000D+00  0.0000000000000D+00  0.0000000000000D+00
   190  1.8900000000000D+00  0.0000000000000D+00  0.0000000000000D+00
   191  1.9000000000000D+00  0.0000000000000D+00  0.0000000000000D+00
   192  1.9100000000000D+00  0.0000000000000D+00  0.0000000000000D+00
   193  1.9200000000000D+00  0.0000000000000D+00  0.0000000000000D+00
   194  1.9300000000000D+00  0.0000000000000D+00  0.0000000000000D+00
   195  1.9400000000000D+00  0.0000000000000D+00  0.0000000000000D+00
   196  1.9500000000000D+00  0.0000000000000D+00  0.0000000000000D+00
   197  1.9600000000000D+00  0.0000000000000D+00  0.0000000000000D+00
   198  1.9700000000000D+00  0.0000000000000D+00  0.0000000000000D+00
   199  1.9800000000000D+00  0.0000000000000D+00  0.0000000000000D+00
   200  1.9900000000000D+00  0.0000000000000D+00  0.0000000000000D+00
   201  2.0000000000000D+00  0.0000000000000D+00  0.0000000000000D+00
   202  2.0100000000000D+00  0.0000000000000D+00  0.0000000000000D+00
   203  2.0200000000000D+00  0.0000000000000D+00  0.0000000000000D+00
   204  2.0300000000000D+00  0.0000000000000D+00  0.0000000000000D+00
   205  2.0400000000000D+00  0.0000000000000D+00  0.0000000000000D+00
   206  2.0500000000000D+00  0.0000000000000D+00  0.0000000000000D+00
   207  2.0600000000000D+00  0.0000000000000D+00  0.0000000000000D+00
   208  2.0700000000000D+00  0.0000000000000D+00  0.0000000000000D+00
   209  2.0800000000000D+00  0.0000000000000D+00  0.0000000000000D+00
   210  2.0900000000000D+00  0.0000000000000D+00  0.0000000000000D+00
   211  2.1000000000000D+00  0.0000000000000D+00  0.0000000000000D+00
   212  2.1100000000000D+00  0.0000000000000D+00  0.0000000000000D+00
   213  2.1200000000000D+00  0.0000000000000D+00  0.0000000000000D+00
   214  2.1300000000000D+00  0.0000000000000D+00  0.0000000000000D+00
   215  2.1400000000000D+00  0.0000000000000D+00  0.0000000000000D+00
   216  2.1500000000000D+00  0.0000000000000D+00  0.0000000000000D+00
   217  2.1600000000000D+00  0.0000000000000D+00  0.0000000000000D+00
   218  2.1700000000000D+00  0.0000000000000D+00  0.0000000000000D+00
   219  2.1800000000000D+00  0.0000000000000D+00  0.0000000000000D+00
   220  2.1900000000000D+00  0.0000000000000D+00  0.0000000000000D+00
   221  2.2000000000000D+00  0.0000000000000D+00  0.0000000000000D+00
   222  2.2100000000000D+00  0.0000000000000D+00  0.0000000000000D+00
   223  2.2200000000000D+00  0.0000000000000D+00  0.0000000000000D+00
   224  2.2300000000000D+00  0.0000000000000D+00  0.0000000000000D+00
   225  2.2400000000000D+00  0.0000000000000D+00  0.0000000000000D+00
   226  2.2500000000000D+00  0.0000000000000D+00  0.0000000000000D+00
   227  2.2600000000000D+00  0.0000000000000D+00  0.0000000000000D+00
   228  2.2700000000000D+00  0.0000000000000D+00  0.0000000000000D+00
   229  2.2800000000000D+00  0.0000000000000D+00  0.0000000000000D+00
   230  2.2900000000000D+00  0.0000000000000D+00  0.0000000000000D+00
   231  2.3000000000000D+00  0.0000000000000D+00  0.0000000000000D+00
   232  2.3100000000000D+00  0.0000000000000D+00  0.0000000000000D+00
   233  2.3200000000000D+00  0.0000000000000D+00  0.0000000000000D+00
   234  2.3300000000000D+00  0.0000000000000D+00  0.0000000000000D+00
   235  2.3400000000000D+00  0.0000000000000D+00  0.0000000000000D+00
   236  2.3500000000000D+00  0.0000000000000D+00  0.0000000000000D+00
   237  2.3600000000000D+00  0.0000000000000D+00  0.0000000000000D+00
   238  2.3700000000000D+00  0.0000000000000D+00  0.0000000000000D+00
   239  2.3800000000000D+00  0.0000000000000D+00  0.0000000000000D+00
   240  2.3900000000000D+00  0.0000000000000D+00  0.0000000000000D+00
   241  2.4000000000000D+00  0.0000000000000D+00  0.0000000000000D+00
   242  2.4100000000000D+00  0.0000000000000D+00  0.0000000000000D+00
   243  2.4200000000000D+00  0.0000000000000D+00  0.0000000000000D+00
   244  2.4300000000000D+00  0.0000000000000D+00  0.0000000000000D+00
   245  2.4400000000000D+00  0.0000000000000D+00  0.0000000000000D+00
   246  2.4500000000000D+00  0.0000000000000D+00  0.0000000000000D+00
   247  2.4600000000000D+00  0.0000000000000D+00  0.0000000000000D+00
   248  2.4700000000000D+00  0.0000000000000D+00  0.0000000000000D+00
   249  2.4800000000000D+00  0.0000000000000D+00  0.0000000000000D+00
   250  2.4900000000000D+00  0.0000000000000D+00  0.0000000000000D+00
   251  2.5000000000000D+00  0.0000000000000D+00  0.0000000000000D+00
   252  2.5100000000000D+00  0.0000000000000D+00  0.0000000000000D+00
   253  2.5200000000000D+00  0.0000000000000D+00  0.0000000000000D+00
   254  2.5300000000000D+00  0.0000000000000D+00  0.0000000000000D+00
   255  2.5400000000000D+00  0.0000000000000D+00  0.0000000000000D+00
   256  2.5500000000000D+00  0.0000000000000D+00  0.0000000000000D+00
   257  2.5600000000000D+00  0.0000000000000D+00  0.0000000000000D+00
   258  2.5700000000000D+00  0.0000000000000D+00  0.0000000000000D+00
   259  2.5800000000000D+00  0.0000000000000D+00  0.0000000000000D+00
   260  2.5900000000000D+00  0.0000000000000D+00  0.0000000000000D+00
   261  2.6000000000000D+00  0.0000000000000D+00  0.0000000000000D+00
   262  2.6100000000000D+00  0.0000000000000D+00  0.0000000000000D+00
   263  2.6200000000000D+00  0.0000000000000D+00  0.0000000000000D+00
   264  2.6300000000000D+00  0.0000000000000D+00  0.0000000000000D+00
   265  2.6400000000000D+00  0.0000000000000D+00  0.0000000000000D+00
   266  2.6500000000000D+00  0.0000000000000D+00  0.0000000000000D+00
   267  2.6600000000000D+00  0.0000000000000D+00  0.0000000000000D+00
   268  2.6700000000000D+00  0.0000000000000D+00  0.0000000000000D+00
   269  2.6800000000000D+00  0.0000000000000D+00  0.0000000000000D+00
   270  2.6900000000000D+00  0.0000000000000D+00  0.0000000000000D+00
   271  2.7000000000000D+00  0.0000000000000D+00  0.0000000000000D+00
   272  2.7100000000000D+00  0.0000000000000D+00  0.0000000000000D+00
   273  2.7200000000000D+00  0.0000000000000D+00  0.0000000000000D+00
   274  2.7300000000000D+00  0.0000000000000D+00  0.0000000000000D+00
   275  2.7400000000000D+00  0.0000000000000D+00  0.0000000000000D+00
   276  2.7500000000000D+00  0.0000000000000D+00  0.0000000000000D+00
   277  2.7600000000000D+00  0.0000000000000D+00  0.0000000000000D+00
   278  2.7700000000000D+00  0.0000000000000D+00  0.0000000000000D+00
   279  2.7800000000000D+00  0.0000000000000D+00  0.0000000000000D+00
   280  2.7900000000000D+00  0.0000000000000D+00  0.0000000000000D+00
   281  2.8000000000000D+00  0.0000000000000D+00  0.0000000000000D+00
   282  2.8100000000000D+00  0.0000000000000D+00  0.0000000000000D+00
   283  2.8200000000000D+00  0.0000000000000D+00  0.0000000000000D+00
   284  2.8300000000000D+00  0.0000000000000D+00  0.0000000000000D+00
   285  2.8400000000000D+00  0.0000000000000D+00  0.0000000000000D+00
   286  2.8500000000000D+00  0.0000000000000D+00  0.0000000000000D+00
   287  2.8600000000000D+00  0.0000000000000D+00  0.0000000000000D+00
   288  2.8700000000000D+00  0.0000000000000D+00  0.0000000000000D+00
   289  2.8800000000000D+00  0.0000000000000D+00  0.0000000000000D+00
   290  2.8900000000000D+00  0.0000000000000D+00  0.0000000000000D+00
   291  2.9000000000000D+00  0.0000000000000D+00  0.0000000000000D+00
   292  2.9100000000000D+00  0.0000000000000D+00  0.0000000000000D+00
   293  2.9200000000000D+00  0.0000000000000D+00  0.0000000000000D+00
   294  2.9300000000000D+00  0.0000000000000D+00  0.0000000000000D+00
   295  2.9400000000000D+00  0.0000000000000D+00  0.0000000000000D+00
   296  2.9500000000000D+00  0.0000000000000D+00  0.0000000000000D+00
   297  2.9600000000000D+00  0.0000000000000D+00  0.0000000000000D+00
   298  2.9700000000000D+00  0.0000000000000D+00  0.0000000000000D+00
   299  2.9800000000000D+00  0.0000000000000D+00  0.0000000000000D+00
   300  2.9900000000000D+00  0.0000000000000D+00  0.0000000000000D+00
   301  3.0000000000000D+00  0.0000000000000D+00  0.0000000000000D+00
   302  3.0100000000000D+00  0.0000000000000D+00  0.0000000000000D+00
   303  3.0200000000000D+00  0.0000000000000D+00  0.0000000000000D+00
   304  3.0300000000000D+00  0.0000000000000D+00  0.0000000000000D+00
   305  3.0400000000000D+00  0.0000000000000D+00  0.0000000000000D+00
   306  3.0500000000000D+00  0.0000000000000D+00  0.0000000000000D+00
   307  3.0600000000000D+00  0.0000000000000D+00  0.0000000000000D+00
   308  3.0700000000000D+00  0.0000000000000D+00  0.0000000000000D+00
   309  3.0800000000000D+00  0.0000000000000D+00  0.0000000000000D+00
   310  3.0900000000000D+00  0.0000000000000D+00  0.0000000000000D+00
   311  3.1000000000000D+00  0.0000000000000D+00  0.0000000000000D+00
   312  3.1100000000000D+00  0.0000000000000D+00  0.0000000000000D+00
   313  3.1200000000000D+00  0.0000000000000D+00  0.0000000000000D+00
   314  3.1300000000000D+00  0.0000000000000D+00  0.0000000000000D+00
   315  3.1400000000000D+00  0.0000000000000D+00  0.0000000000000D+00
   316  3.1500000000000D+00  0.0000000000000D+00  0.0000000000000D+00
   317  3.1600000000000D+00  0.0000000000000D+00  0.0000000000000D+00
   318  3.1700000000000D+00  0.0000000000000D+00  0.0000000000000D+00
   319  3.1800000000000D+00  0.0000000000000D+00  0.0000000000000D+00
   320  3.1900000000000D+00  0.0000000000000D+00  0.0000000000000D+00
   321  3.2000000000000D+00  0.0000000000000D+00  0.0000000000000D+00
   322  3.2100000000000D+00  0.0000000000000D+00  0.0000000000000D+00
   323  3.2200000000000D+00  0.0000000000000D+00  0.0000000000000D+00
   324  3.2300000000000D+00  0.0000000000000D+00  0.0000000000000D+00
   325  3.2400000000000D+00  0.0000000000000D+00  0.0000000000000D+00
   326  3.2500000000000D+00  0.0000000000000D+00  0.0000000000000D+00
   327  3.2600000000000D+00  0.0000000000000D+00  0.0000000000000D+00
   328  3.2700000000000D+00  0.0000000000000D+00  0.0000000000000D+00
   329  3.2800000000000D+00  0.0000000000000D+00  0.0000000000000D+00
   330  3.2900000000000D+00  0.0000000000000D+00  0.0000000000000D+00
   331  3.3000000000000D+00  0.0000000000000D+00  0.0000000000000D+00
   332  3.3100000000000D+00  0.0000000000000D+00  0.0000000000000D+00
   333  3.3200000000000D+00  0.0000000000000D+00  0.0000000000000D+00
   334  3.3300000000000D+00  0.0000000000000D+00  0.0000000000000D+00
   335  3.3400000000000D+00  0.0000000000000D+00  0.0000000000000D+00
   336  3.3500000000000D+00  0.0000000000000D+00  0.0000000000000D+00
   337  3.3600000000000D+00  0.0000000000000D+00  0.0000000000000D+00
   338  3.3700000000000D+00  0.0000000000000D+00  0.0000000000000D+00
   339  3.3800000000000D+00  0.0000000000000D+00  0.0000000000000D+00
   340  3.3900000000000D+00  0.0000000000000D+00  0.0000000000000D+00
   341  3.4000000000000D+00  0.0000000000000D+00  0.0000000000000D+00
   342  3.4100000000000D+00  0.0000000000000D+00  0.0000000000000D+00
   343  3.4200000000000D+00  0.0000000000000D+00  0.0000000000000D+00
   344  3.4300000000000D+00  0.0000000000000D+00  0.0000000000000D+00
   345  3.4400000000000D+00  0.0000000000000D+00  0.0000000000000D+00
   346  3.4500000000000D+00  0.0000000000000D+00  0.0000000000000D+00
   347  3.4600000000000D+00  0.0000000000000D+00  0.0000000000000D+00
   348  3.4700000000000D+00  0.0000000000000D+00  0.0000000000000D+00
   349  3.4800000000000D+00  0.0000000000000D+00  0.0000000000000D+00
   350  3.4900000000000D+00  0.0000000000000D+00  0.0000000000000D+00
   351  3.5000000000000D+00  0.0000000000000D+00  0.0000000000000D+00
   352  3.5100000000000D+00  0.0000000000000D+00  0.0000000000000D+00
   353  3.5200000000000D+00  0.0000000000000D+00  0.0000000000000D+00
   354  3.5300000000000D+00  0.0000000000000D+00  0.0000000000000D+00
   355  3.5400000000000D+00  0.0000000000000D+00  0.0000000000000D+00
   356  3.5500000000000D+00  0.0000000000000D+00  0.0000000000000D+00
   357  3.5600000000000D+00  0.0000000000000D+00  0.0000000000000D+00
   358  3.5700000000000D+00  0.0000000000000D+00  0.0000000000000D+00
   359  3.5800000000000D+00  0.0000000000000D+00  0.0000000000000D+00
   360  3.5900000000000D+00  0.0000000000000D+00  0.0000000000000D+00
   361  3.6000000000000D+00  0.0000000000000D+00  0.0000000000000D+00
   362  3.6100000000000D+00  0.0000000000000D+00  0.0000000000000D+00
   363  3.6200000000000D+00  0.0000000000000D+00  0.0000000000000D+00
   364  3.6300000000000D+00  0.0000000000000D+00  0.0000000000000D+00
   365  3.6400000000000D+00  0.0000000000000D+00  0.0000000000000D+00
   366  3.6500000000000D+00  0.0000000000000D+00  0.0000000000000D+00
   367  3.6600000000000D+00  0.0000000000000D+00  0.0000000000000D+00
   368  3.6700000000000D+00  0.0000000000000D+00  0.0000000000000D+00
   369  3.6800000000000D+00  0.0000000000000D+00  0.0000000000000D+00
   370  3.6900000000000D+00  0.0000000000000D+00  0.0000000000000D+00
   371  3.7000000000000D+00  0.0000000000000D+00  0.0000000000000D+00
   372  3.7100000000000D+00  0.0000000000000D+00  0.0000000000000D+00
   373  3.7200000000000D+00  0.0000000000000D+00  0.0000000000000D+00
   374  3.7300000000000D+00  0.0000000000000D+00  0.0000000000000D+00
   375  3.7400000000000D+00  0.0000000000000D+00  0.0000000000000D+00
   376  3.7500000000000D+00  0.0000000000000D+00  0.0000000000000D+00
   377  3.7600000000000D+00  0.0000000000000D+00  0.0000000000000D+00
   378  3.7700000000000D+00  0.0000000000000D+00  0.0000000000000D+00
   379  3.7800000000000D+00  0.0000000000000D+00  0.0000000000000D+00
   380  3.7900000000000D+00  0.0000000000000D+00  0.0000000000000D+00
   381  3.8000000000000D+00  0.0000000000000D+00  0.0000000000000D+00
   382  3.8100000000000D+00  0.0000000000000D+00  0.0000000000000D+00
   383  3.8200000000000D+00  0.0000000000000D+00  0.0000000000000D+00
   384  3.8300000000000D+00  0.0000000000000D+00  0.0000000000000D+00
   385  3.8400000000000D+00  0.0000000000000D+00  0.0000000000000D+00
   386  3.8500000000000D+00  0.0000000000000D+00  0.0000000000000D+00
   387  3.8600000000000D+00  0.0000000000000D+00  0.0000000000000D+00
   388  3.8700000000000D+00  0.0000000000000D+00  0.0000000000000D+00
   389  3.8800000000000D+00  0.0000000000000D+00  0.0000000000000D+00
   390  3.8900000000000D+00  0.0000000000000D+00  0.0000000000000D+00
   391  3.9000000000000D+00  0.0000000000000D+00  0.0000000000000D+00
   392  3.9100000000000D+00  0.0000000000000D+00  0.0000000000000D+00
   393  3.9200000000000D+00  0.0000000000000D+00  0.0000000000000D+00
   394  3.9300000000000D+00  0.0000000000000D+00  0.0000000000000D+00
   395  3.9400000000000D+00  0.0000000000000D+00  0.0000000000000D+00
   396  3.9500000000000D+00  0.0000000000000D+00  0.0000000000000D+00
   397  3.9600000000000D+00  0.0000000000000D+00  0.0000000000000D+00
   398  3.9700000000000D+00  0.0000000000000D+00  0.0000000000000D+00
   399  3.9800000000000D+00  0.0000000000000D+00  0.0000000000000D+00
   400  3.9900000000000D+00  0.0000000000000D+00  0.0000000000000D+00
   401  4.0000000000000D+00  0.0000000000000D+00  0.0000000000000D+00
   402  4.0100000000000D+00  0.0000000000000D+00  0.0000000000000D+00
   403  4.0200000000000D+00  0.0000000000000D+00  0.0000000000000D+00
   404  4.0300000000000D+00  0.0000000000000D+00  0.0000000000000D+00
   405  4.0400000000000D+00  0.0000000000000D+00  0.0000000000000D+00
   406  4.0500000000000D+00  0.0000000000000D+00  0.0000000000000D+00
   407  4.0600000000000D+00  0.0000000000000D+00  0.0000000000000D+00
   408  4.0700000000000D+00  0.0000000000000D+00  0.0000000000000D+00
   409  4.0800000000000D+00  0.0000000000000D+00  0.0000000000000D+00
   410  4.0900000000000D+00  0.0000000000000D+00  0.0000000000000D+00
   411  4.1000000000000D+00  0.0000000000000D+00  0.0000000000000D+00
   412  4.1100000000000D+00  0.0000000000000D+00  0.0000000000000D+00
   413  4.1200000000000D+00  0.0000000000000D+00  0.0000000000000D+00
   414  4.1300000000000D+00  0.0000000000000D+00  0.0000000000000D+00
   415  4.1400000000000D+00  0.0000000000000D+00  0.0000000000000D+00
   416  4.1500000000000D+00  0.0000000000000D+00  0.0000000000000D+00
   417  4.1600000000000D+00  0.0000000000000D+00  0.0000000000000D+00
   418  4.1700000000000D+00  0.0000000000000D+00  0.0000000000000D+00
   419  4.1800000000000D+00  0.0000000000000D+00  0.0000000000000D+00
   420  4.1900000000000D+00  0.0000000000000D+00  0.0000000000000D+00
   421  4.2000000000000D+00  0.0000000000000D+00  0.0000000000000D+00
   422  4.2100000000000D+00  0.0000000000000D+00  0.0000000000000D+00
   423  4.2200000000000D+00  0.0000000000000D+00  0.0000000000000D+00