Si    ONCVPSP-3.2.3  r_core=   1.60303   1.72197   1.91712
14.0000      4.0000      161006    zatom,zion,pspd
8   -1012   2     4   600     0    pspcod,pspxc,lmax,lloc,mmax,r2well
5.99000000  4.00000000  0.00000000    rchrg fchrg qchrg
2     2     2     0     0    nproj
1     1           extension_switch
0                         5.4799467400135D+00  8.6629784264461D-01
1  0.0000000000000D+00 -6.1855523481036D-09  1.4708171125477D-08
2  1.0000000000000D-02  4.1687063525950D-02 -2.9382504222354D-02
3  2.0000000000000D-02  8.3057966148332D-02 -5.8046066043038D-02
4  3.0000000000000D-02  1.2380202290785D-01 -8.5284750937009D-02
5  4.0000000000000D-02  1.6361940571775D-01 -1.1041841430399D-01
6  5.0000000000000D-02  2.0222633587311D-01 -1.3280503569521D-01
7  6.0000000000000D-02  2.3935999793726D-01 -1.5185239083308D-01
8  7.0000000000000D-02  2.7478308953347D-01 -1.6702885828978D-01
9  8.0000000000000D-02  3.0828792775520D-01 -1.7787317239883D-01
10  9.0000000000000D-02  3.3970004044454D-01 -1.8400295189265D-01
11  1.0000000000000D-01  3.6888117934875D-01 -1.8512185458894D-01
12  1.1000000000000D-01  3.9573170200308D-01 -1.8102523184138D-01
13  1.2000000000000D-01  4.2019227994059D-01 -1.7160418203379D-01
14  1.3000000000000D-01  4.4224490231478D-01 -1.5684792970380D-01
15  1.4000000000000D-01  4.6191315604808D-01 -1.3684448547423D-01
16  1.5000000000000D-01  4.7926177598565D-01 -1.1177957136802D-01
17  1.6000000000000D-01  4.9439547103217D-01 -8.1933825792503D-02
18  1.7000000000000D-01  5.0745704467028D-01 -4.7678332000364D-02
19  1.8000000000000D-01  5.1862484039248D-01 -9.4685426719275D-03
20  1.9000000000000D-01  5.2810955422019D-01  3.2163299071783D-02
21  2.0000000000000D-01  5.3615046743716D-01  7.6617115890137D-02
22  2.1000000000000D-01  5.4301116274368D-01  1.2323517939857D-01
23  2.2000000000000D-01  5.4897479607182D-01  1.7131334856363D-01
24  2.3000000000000D-01  5.5433900413625D-01  2.2011317298185D-01
25  2.4000000000000D-01  5.5941053429409D-01  2.6887465528242D-01
26  2.5000000000000D-01  5.6449968834025D-01  3.1682945491208D-01
27  2.6000000000000D-01  5.6991467538009D-01  3.6321430723378D-01
28  2.7000000000000D-01  5.7595597083824D-01  4.0728442734850D-01
29  2.8000000000000D-01  5.8291077894212D-01  4.4832666741967D-01
30  2.9000000000000D-01  5.9104769465202D-01  4.8567219956482D-01
31  3.0000000000000D-01  6.0061165801436D-01  5.1870850353698D-01
32  3.1000000000000D-01  6.1181928933529D-01  5.4689044934142D-01
33  3.2000000000000D-01  6.2485468747907D-01  5.6975027945195D-01
34  3.3000000000000D-01  6.3986576608809D-01  5.8690631317368D-01
35  3.4000000000000D-01  6.5696119371678D-01  5.9807021665897D-01
36  3.5000000000000D-01  6.7620799391571D-01  6.0305270577967D-01
37  3.6000000000000D-01  6.9762985035450D-01  6.0176757510640D-01
38  3.7000000000000D-01  7.2120615031441D-01  5.9423397421454D-01
39  3.8000000000000D-01  7.4687178750486D-01  5.8057688197028D-01
40  3.9000000000000D-01  7.7451773236924D-01  5.6102575985695D-01
41  4.0000000000000D-01  8.0399236505583D-01  5.3591139627927D-01
42  4.1000000000000D-01  8.3510355325439D-01  5.0566098461709D-01
43  4.2000000000000D-01  8.6762144435742D-01  4.7079150807067D-01
44  4.3000000000000D-01  9.0128192911018D-01  4.3190153354095D-01
45  4.4000000000000D-01  9.3579072227192D-01  3.8966154442435D-01
46  4.5000000000000D-01  9.7082799502262D-01  3.4480296780368D-01
47  4.6000000000000D-01  1.0060534840963D+00  2.9810607464604D-01
48  4.7000000000000D-01  1.0411119940746D+00  2.5038695187520D-01
49  4.8000000000000D-01  1.0756392020792D+00  2.0248376221761D-01
50  4.9000000000000D-01  1.1092676683891D+00  1.5524252122511D-01
51  5.0000000000000D-01  1.1416329523757D+00  1.0950263060807D-01
52  5.1000000000000D-01  1.1723797306855D+00  6.6082412789403D-02
53  5.2000000000000D-01  1.2011678138370D+00  2.5764893291970D-02
54  5.3000000000000D-01  1.2276779583832D+00 -1.0715924858881D-02
55  5.4000000000000D-01  1.2516173744909D+00 -4.2688057060123D-02
56  5.5000000000000D-01  1.2727248331910D+00 -6.9553576303075D-02
57  5.6000000000000D-01  1.2907752835841D+00 -9.0799482938044D-02
58  5.7000000000000D-01  1.3055838978495D+00 -1.0600721047254D-01
59  5.8000000000000D-01  1.3170094709106D+00 -1.1486059433834D-01
60  5.9000000000000D-01  1.3249571118706D+00 -1.1715215505187D-01
61  6.0000000000000D-01  1.3293801757492D+00 -1.1278757441317D-01
62  6.1000000000000D-01  1.3302813963749D+00 -1.0178827276559D-01
63  6.2000000000000D-01  1.3277131943629D+00 -8.4292026481404D-02
64  6.3000000000000D-01  1.3217771477528D+00 -6.0551597329785D-02
65  6.4000000000000D-01  1.3126226267281D+00 -3.0931378339666D-02
66  6.5000000000000D-01  1.3004446079093D+00  4.0979057523781D-03
67  6.6000000000000D-01  1.2854806975265D+00  4.3966372541387D-02
68  6.7000000000000D-01  1.2680074062096D+00  8.8013927615769D-02
69  6.8000000000000D-01  1.2483357310609D+00  1.3550084828468D-01
70  6.9000000000000D-01  1.2268061126668D+00  1.8561984333909D-01
71  7.0000000000000D-01  1.2037828457256D+00  2.3750940068345D-01
72  7.1000000000000D-01  1.1796480317708D+00  2.9026821144940D-01
73  7.2000000000000D-01  1.1547951708921D+00  3.4297043927203D-01
74  7.3000000000000D-01  1.1296224962254D+00  3.9468158720095D-01
75  7.4000000000000D-01  1.1045261602116D+00  4.4447470240377D-01
76  7.5000000000000D-01  1.0798933850970D+00  4.9144665072432D-01
77  7.6000000000000D-01  1.0560956917943D+00  5.3473418938463D-01
78  7.7000000000000D-01  1.0334823210045D+00  5.7352956681844D-01
79  7.8000000000000D-01  1.0123739584057D+00  6.0709538377747D-01
80  7.9000000000000D-01  9.9305687176806D-01  6.3477845942008D-01
81  8.0000000000000D-01  9.7577756210177D-01  6.5602245995793D-01
82  8.1000000000000D-01  9.6073802346937D-01  6.7037906540088D-01
83  8.2000000000000D-01  9.4809169700469D-01  6.7751747174442D-01
84  8.3000000000000D-01  9.3794019411119D-01  6.7723205125934D-01
85  8.4000000000000D-01  9.3033085192770D-01  6.6944802198557D-01
86  8.5000000000000D-01  9.2525517112941D-01  6.5422500866247D-01
87  8.6000000000000D-01  9.2264817218253D-01  6.3175841065881D-01
88  8.7000000000000D-01  9.2238869150990D-01  6.0237852747392D-01
89  8.8000000000000D-01  9.2430062388592D-01  5.6654742851078D-01
90  8.9000000000000D-01  9.2815510200440D-01  5.2485359049296D-01
91  9.0000000000000D-01  9.3367358879947D-01  4.7800436252188D-01
92  9.1000000000000D-01  9.4053184299701D-01  4.2681635475270D-01
93  9.2000000000000D-01  9.4836470377821D-01  3.7220388141980D-01
94  9.3000000000000D-01  9.5677162658858D-01  3.1516562189371D-01
95  9.4000000000000D-01  9.6532288925327D-01  2.5676969405401D-01
96  9.5000000000000D-01  9.7356637587997D-01  1.9813736200457D-01
97  9.6000000000000D-01  9.8103483573939D-01  1.4042562456772D-01
98  9.7000000000000D-01  9.8725350559155D-01  8.4808951649011D-02
99  9.8000000000000D-01  9.9174797689241D-01  3.2460452172354D-02
100  9.9000000000000D-01  9.9405218425295D-01 -1.5467230809234D-02
101  1.0000000000000D+00  9.9371638813844D-01 -5.7860994345040D-02
102  1.0100000000000D+00  9.9031502371305D-01 -9.3666013287136D-02
103  1.0200000000000D+00  9.8345428851347D-01 -1.2190383764665D-01
104  1.0300000000000D+00  9.7277934447958D-01 -1.4168955278372D-01
105  1.0400000000000D+00  9.5798101489140D-01 -1.5224771779618D-01
106  1.0500000000000D+00  9.3880186348208D-01 -1.5292681370509D-01
107  1.0600000000000D+00  9.1504155146067D-01 -1.4321195342878D-01
108  1.0700000000000D+00  8.8656137913591D-01 -1.2273563187970D-01
109  1.0800000000000D+00  8.5328793028202D-01 -9.1286322011694D-02
110  1.0900000000000D+00  8.1521575143922D-01 -4.8814756351969D-02
111  1.1000000000000D+00  7.7240901215511D-01  4.5622333386974D-03
112  1.1100000000000D+00  7.2500210777058D-01  6.8560408270144D-02
113  1.1200000000000D+00  6.7319918357900D-01  1.4272939545241D-01
114  1.1300000000000D+00  6.1727257507972D-01  2.2645655189066D-01
115  1.1400000000000D+00  5.5756017680413D-01  3.1897338842530D-01
116  1.1500000000000D+00  4.9446176666764D-01  4.1936448689181D-01
117  1.1600000000000D+00  4.2843433334786D-01  5.2657879519352D-01
118  1.1700000000000D+00  3.5998646770835D-01  6.3944315260930D-01
119  1.1800000000000D+00  2.8967189426515D-01  7.5667786191859D-01
120  1.1900000000000D+00  2.1808223289648D-01  8.7691409104292D-01
121  1.2000000000000D+00  1.4583909560075D-01  9.9871285211352D-01
122  1.2100000000000D+00  7.3585632982721D-02  1.1205852823972D+00
123  1.2200000000000D+00  1.9776521677759D-03  1.2410139347910D+00
124  1.2300000000000D+00 -6.8325559042033D-02  1.3584747544783D+00
125  1.2400000000000D+00 -1.3667056571835D-01  1.4714594155121D+00
126  1.2500000000000D+00 -2.0241913681136D-01  1.5784976811605D+00
127  1.2600000000000D+00 -2.6495746946708D-01  1.6781794427738D+00
128  1.2700000000000D+00 -3.2370514706262D-01  1.7691761030203D+00
129  1.2800000000000D+00 -3.7812369214020D-01  1.8502609712695D+00
130  1.2900000000000D+00 -4.2772457860224D-01  1.9203283467490D+00
131  1.3000000000000D+00 -4.7207658245917D-01  1.9784110010551D+00
132  1.3100000000000D+00 -5.1081235026741D-01  2.0236957712410D+00
133  1.3200000000000D+00 -5.4363407827548D-01  2.0555370081868D+00
134  1.3300000000000D+00 -5.7031821987219D-01  2.0734676839503D+00
135  1.3400000000000D+00 -5.9071912924871D-01  2.0772079385794D+00
136  1.3500000000000D+00 -6.0477158589873D-01  2.0666709350464D+00
137  1.3600000000000D+00 -6.1249216364525D-01  2.0419659366293D+00
138  1.3700000000000D+00 -6.1397939098905D-01  2.0033984806144D+00
139  1.3800000000000D+00 -6.0941272007979D-01  1.9514676912444D+00
140  1.3900000000000D+00 -5.9905029745455D-01  1.8868607168809D+00
141  1.4000000000000D+00 -5.8322555666886D-01  1.8104443410872D+00
142  1.4100000000000D+00 -5.6234270274806D-01  1.7232539365664D+00
143  1.4200000000000D+00 -5.3687111343061D-01  1.6264798232639D+00
144  1.4300000000000D+00 -5.0733876749096D-01  1.5214512962293D+00
145  1.4400000000000D+00 -4.7432477676452D-01  1.4096185081726D+00
146  1.4500000000000D+00 -4.3845112496862D-01  1.2925324551091D+00
147  1.4600000000000D+00 -4.0037375348251D-01  1.1718234020056D+00
148  1.4700000000000D+00 -3.6077309342961D-01  1.0491779878736D+00
149  1.4800000000000D+00 -3.2034421267036D-01  9.2631541517746D-01
150  1.4900000000000D+00 -2.7978669922419D-01  8.0496301593858D-01
151  1.5000000000000D+00 -2.3979444621364D-01  6.8683159101191D-01
152  1.5100000000000D+00 -2.0104547580653D-01  5.7359085275883D-01
153  1.5200000000000D+00 -1.6419197071306D-01  4.6684537600909D-01
154  1.5300000000000D+00 -1.2985063341805D-01  3.6811134566380D-01
155  1.5400000000000D+00 -9.8593556918209D-02  2.7879454236559D-01
156  1.5500000000000D+00 -7.0949803423103D-02  2.0019817717560D-01
157  1.5600000000000D+00 -4.7364254143928D-02  1.3341037299842D-01
158  1.5700000000000D+00 -2.8124040753318D-02  7.9100667660951D-02
159  1.5800000000000D+00 -1.3738836397700D-02  3.8589064118177D-02
160  1.5900000000000D+00 -4.7722059178664D-03  1.3373783309759D-02
161  1.6000000000000D+00 -5.8242367188345D-04  1.6056833442476D-03
162  1.6100000000000D+00  4.6447443390722D-04 -1.3211336823060D-03
163  1.6200000000000D+00  1.1753507841769D-04 -3.3237701304072D-04
164  1.6300000000000D+00 -1.4431669917921D-04  4.0786907449544D-04
165  1.6400000000000D+00 -3.5257036444677D-05  9.9558456202889D-05
166  1.6500000000000D+00  2.5938233226375D-05 -7.3532707490857D-05
167  1.6600000000000D+00  5.6232583486069D-06 -1.5933361047658D-05
168  1.6700000000000D+00  5.1095582124304D-08 -6.6543406706096D-08
169  1.6800000000000D+00  1.0419382658101D-08 -1.3569494445874D-08
170  1.6900000000000D+00  0.0000000000000D+00  0.0000000000000D+00
171  1.7000000000000D+00  0.0000000000000D+00  0.0000000000000D+00
172  1.7100000000000D+00  0.0000000000000D+00  0.0000000000000D+00
173  1.7200000000000D+00  0.0000000000000D+00  0.0000000000000D+00
174  1.7300000000000D+00  0.0000000000000D+00  0.0000000000000D+00
175  1.7400000000000D+00  0.0000000000000D+00  0.0000000000000D+00
176  1.7500000000000D+00  0.0000000000000D+00  0.0000000000000D+00
177  1.7600000000000D+00  0.0000000000000D+00  0.0000000000000D+00
178  1.7700000000000D+00  0.0000000000000D+00  0.0000000000000D+00
179  1.7800000000000D+00  0.0000000000000D+00  0.0000000000000D+00
180  1.7900000000000D+00  0.0000000000000D+00  0.0000000000000D+00
181  1.8000000000000D+00  0.0000000000000D+00  0.0000000000000D+00
182  1.8100000000000D+00  0.0000000000000D+00  0.0000000000000D+00
183  1.8200000000000D+00  0.0000000000000D+00  0.0000000000000D+00
184  1.8300000000000D+00  0.0000000000000D+00  0.0000000000000D+00
185  1.8400000000000D+00  0.0000000000000D+00  0.0000000000000D+00
186  1.8500000000000D+00  0.0000000000000D+00  0.0000000000000D+00
187  1.8600000000000D+00  0.0000000000000D+00  0.0000000000000D+00
188  1.8700000000000D+00  0.0000000000000D+00  0.0000000000000D+00
189  1.8800000000000D+00  0.0000000000000D+00  0.0000000000000D+00
190  1.8900000000000D+00  0.0000000000000D+00  0.0000000000000D+00
191  1.9000000000000D+00  0.0000000000000D+00  0.0000000000000D+00
192  1.9100000000000D+00  0.0000000000000D+00  0.0000000000000D+00
193  1.9200000000000D+00  0.0000000000000D+00  0.0000000000000D+00
194  1.9300000000000D+00  0.0000000000000D+00  0.0000000000000D+00
195  1.9400000000000D+00  0.0000000000000D+00  0.0000000000000D+00
196  1.9500000000000D+00  0.0000000000000D+00  0.0000000000000D+00
197  1.9600000000000D+00  0.0000000000000D+00  0.0000000000000D+00
198  1.9700000000000D+00  0.0000000000000D+00  0.0000000000000D+00
199  1.9800000000000D+00  0.0000000000000D+00  0.0000000000000D+00
200  1.9900000000000D+00  0.0000000000000D+00  0.0000000000000D+00
201  2.0000000000000D+00  0.0000000000000D+00  0.0000000000000D+00
202  2.0100000000000D+00  0.0000000000000D+00  0.0000000000000D+00
203  2.0200000000000D+00  0.0000000000000D+00  0.0000000000000D+00
204  2.0300000000000D+00  0.0000000000000D+00  0.0000000000000D+00
205  2.0400000000000D+00  0.0000000000000D+00  0.0000000000000D+00
206  2.0500000000000D+00  0.0000000000000D+00  0.0000000000000D+00
207  2.0600000000000D+00  0.0000000000000D+00  0.0000000000000D+00
208  2.0700000000000D+00  0.0000000000000D+00  0.0000000000000D+00
209  2.0800000000000D+00  0.0000000000000D+00  0.0000000000000D+00
210  2.0900000000000D+00  0.0000000000000D+00  0.0000000000000D+00
211  2.1000000000000D+00  0.0000000000000D+00  0.0000000000000D+00
212  2.1100000000000D+00  0.0000000000000D+00  0.0000000000000D+00
213  2.1200000000000D+00  0.0000000000000D+00  0.0000000000000D+00
214  2.1300000000000D+00  0.0000000000000D+00  0.0000000000000D+00
215  2.1400000000000D+00  0.0000000000000D+00  0.0000000000000D+00
216  2.1500000000000D+00  0.0000000000000D+00  0.0000000000000D+00
217  2.1600000000000D+00  0.0000000000000D+00  0.0000000000000D+00
218  2.1700000000000D+00  0.0000000000000D+00  0.0000000000000D+00
219  2.1800000000000D+00  0.0000000000000D+00  0.0000000000000D+00
220  2.1900000000000D+00  0.0000000000000D+00  0.0000000000000D+00
221  2.2000000000000D+00  0.0000000000000D+00  0.0000000000000D+00
222  2.2100000000000D+00  0.0000000000000D+00  0.0000000000000D+00
223  2.2200000000000D+00  0.0000000000000D+00  0.0000000000000D+00
224  2.2300000000000D+00  0.0000000000000D+00  0.0000000000000D+00
225  2.2400000000000D+00  0.0000000000000D+00  0.0000000000000D+00
226  2.2500000000000D+00  0.0000000000000D+00  0.0000000000000D+00
227  2.2600000000000D+00  0.0000000000000D+00  0.0000000000000D+00
228  2.2700000000000D+00  0.0000000000000D+00  0.0000000000000D+00
229  2.2800000000000D+00  0.0000000000000D+00  0.0000000000000D+00
230  2.2900000000000D+00  0.0000000000000D+00  0.0000000000000D+00
231  2.3000000000000D+00  0.0000000000000D+00  0.0000000000000D+00
232  2.3100000000000D+00  0.0000000000000D+00  0.0000000000000D+00
233  2.3200000000000D+00  0.0000000000000D+00  0.0000000000000D+00
234  2.3300000000000D+00  0.0000000000000D+00  0.0000000000000D+00
235  2.3400000000000D+00  0.0000000000000D+00  0.0000000000000D+00
236  2.3500000000000D+00  0.0000000000000D+00  0.0000000000000D+00
237  2.3600000000000D+00  0.0000000000000D+00  0.0000000000000D+00
238  2.3700000000000D+00  0.0000000000000D+00  0.0000000000000D+00
239  2.3800000000000D+00  0.0000000000000D+00  0.0000000000000D+00
240  2.3900000000000D+00  0.0000000000000D+00  0.0000000000000D+00
241  2.4000000000000D+00  0.0000000000000D+00  0.0000000000000D+00
242  2.4100000000000D+00  0.0000000000000D+00  0.0000000000000D+00
243  2.4200000000000D+00  0.0000000000000D+00  0.0000000000000D+00
244  2.4300000000000D+00  0.0000000000000D+00  0.0000000000000D+00
245  2.4400000000000D+00  0.0000000000000D+00  0.0000000000000D+00
246  2.4500000000000D+00  0.0000000000000D+00  0.0000000000000D+00
247  2.4600000000000D+00  0.0000000000000D+00  0.0000000000000D+00
248  2.4700000000000D+00  0.0000000000000D+00  0.0000000000000D+00
249  2.4800000000000D+00  0.0000000000000D+00  0.0000000000000D+00
250  2.4900000000000D+00  0.0000000000000D+00  0.0000000000000D+00
251  2.5000000000000D+00  0.0000000000000D+00  0.0000000000000D+00
252  2.5100000000000D+00  0.0000000000000D+00  0.0000000000000D+00
253  2.5200000000000D+00  0.0000000000000D+00  0.0000000000000D+00
254  2.5300000000000D+00  0.0000000000000D+00  0.0000000000000D+00
255  2.5400000000000D+00  0.0000000000000D+00  0.0000000000000D+00
256  2.5500000000000D+00  0.0000000000000D+00  0.0000000000000D+00
257  2.5600000000000D+00  0.0000000000000D+00  0.0000000000000D+00
258  2.5700000000000D+00  0.0000000000000D+00  0.0000000000000D+00
259  2.5800000000000D+00  0.0000000000000D+00  0.0000000000000D+00
260  2.5900000000000D+00  0.0000000000000D+00  0.0000000000000D+00
261  2.6000000000000D+00  0.0000000000000D+00  0.0000000000000D+00
262  2.6100000000000D+00  0.0000000000000D+00  0.0000000000000D+00
263  2.6200000000000D+00  0.0000000000000D+00  0.0000000000000D+00
264  2.6300000000000D+00  0.0000000000000D+00  0.0000000000000D+00
265  2.6400000000000D+00  0.0000000000000D+00  0.0000000000000D+00
266  2.6500000000000D+00  0.0000000000000D+00  0.0000000000000D+00
267  2.6600000000000D+00  0.0000000000000D+00  0.0000000000000D+00
268  2.6700000000000D+00  0.0000000000000D+00  0.0000000000000D+00
269  2.6800000000000D+00  0.0000000000000D+00  0.0000000000000D+00
270  2.6900000000000D+00  0.0000000000000D+00  0.0000000000000D+00
271  2.7000000000000D+00  0.0000000000000D+00  0.0000000000000D+00
272  2.7100000000000D+00  0.0000000000000D+00  0.0000000000000D+00
273  2.7200000000000D+00  0.0000000000000D+00  0.0000000000000D+00
274  2.7300000000000D+00  0.0000000000000D+00  0.0000000000000D+00
275  2.7400000000000D+00  0.0000000000000D+00  0.0000000000000D+00
276  2.7500000000000D+00  0.0000000000000D+00  0.0000000000000D+00
277  2.7600000000000D+00  0.0000000000000D+00  0.0000000000000D+00
278  2.7700000000000D+00  0.0000000000000D+00  0.0000000000000D+00
279  2.7800000000000D+00  0.0000000000000D+00  0.0000000000000D+00
280  2.7900000000000D+00  0.0000000000000D+00  0.0000000000000D+00
281  2.8000000000000D+00  0.0000000000000D+00  0.0000000000000D+00
282  2.8100000000000D+00  0.0000000000000D+00  0.0000000000000D+00
283  2.8200000000000D+00  0.0000000000000D+00  0.0000000000000D+00
284  2.8300000000000D+00  0.0000000000000D+00  0.0000000000000D+00
285  2.8400000000000D+00  0.0000000000000D+00  0.0000000000000D+00
286  2.8500000000000D+00  0.0000000000000D+00  0.0000000000000D+00
287  2.8600000000000D+00  0.0000000000000D+00  0.0000000000000D+00
288  2.8700000000000D+00  0.0000000000000D+00  0.0000000000000D+00
289  2.8800000000000D+00  0.0000000000000D+00  0.0000000000000D+00
290  2.8900000000000D+00  0.0000000000000D+00  0.0000000000000D+00
291  2.9000000000000D+00  0.0000000000000D+00  0.0000000000000D+00
292  2.9100000000000D+00  0.0000000000000D+00  0.0000000000000D+00
293  2.9200000000000D+00  0.0000000000000D+00  0.0000000000000D+00
294  2.9300000000000D+00  0.0000000000000D+00  0.0000000000000D+00
295  2.9400000000000D+00  0.0000000000000D+00  0.0000000000000D+00
296  2.9500000000000D+00  0.0000000000000D+00  0.0000000000000D+00
297  2.9600000000000D+00  0.0000000000000D+00  0.0000000000000D+00
298  2.9700000000000D+00  0.0000000000000D+00  0.0000000000000D+00
299  2.9800000000000D+00  0.0000000000000D+00  0.0000000000000D+00
300  2.9900000000000D+00  0.0000000000000D+00  0.0000000000000D+00
301  3.0000000000000D+00  0.0000000000000D+00  0.0000000000000D+00
302  3.0100000000000D+00  0.0000000000000D+00  0.0000000000000D+00
303  3.0200000000000D+00  0.0000000000000D+00  0.0000000000000D+00
304  3.0300000000000D+00  0.0000000000000D+00  0.0000000000000D+00
305  3.0400000000000D+00  0.0000000000000D+00  0.0000000000000D+00
306  3.0500000000000D+00  0.0000000000000D+00  0.0000000000000D+00
307  3.0600000000000D+00  0.0000000000000D+00  0.0000000000000D+00
308  3.0700000000000D+00  0.0000000000000D+00  0.0000000000000D+00
309  3.0800000000000D+00  0.0000000000000D+00  0.0000000000000D+00
310  3.0900000000000D+00  0.0000000000000D+00  0.0000000000000D+00
311  3.1000000000000D+00  0.0000000000000D+00  0.0000000000000D+00
312  3.1100000000000D+00  0.0000000000000D+00  0.0000000000000D+00
313  3.1200000000000D+00  0.0000000000000D+00  0.0000000000000D+00
314  3.1300000000000D+00  0.0000000000000D+00  0.0000000000000D+00
315  3.1400000000000D+00  0.0000000000000D+00  0.0000000000000D+00
316  3.1500000000000D+00  0.0000000000000D+00  0.0000000000000D+00
317  3.1600000000000D+00  0.0000000000000D+00  0.0000000000000D+00
318  3.1700000000000D+00  0.0000000000000D+00  0.0000000000000D+00
319  3.1800000000000D+00  0.0000000000000D+00  0.0000000000000D+00
320  3.1900000000000D+00  0.0000000000000D+00  0.0000000000000D+00
321  3.2000000000000D+00  0.0000000000000D+00  0.0000000000000D+00
322  3.2100000000000D+00  0.0000000000000D+00  0.0000000000000D+00
323  3.2200000000000D+00  0.0000000000000D+00  0.0000000000000D+00
324  3.2300000000000D+00  0.0000000000000D+00  0.0000000000000D+00
325  3.2400000000000D+00  0.0000000000000D+00  0.0000000000000D+00
326  3.2500000000000D+00  0.0000000000000D+00  0.0000000000000D+00
327  3.2600000000000D+00  0.0000000000000D+00  0.0000000000000D+00
328  3.2700000000000D+00  0.0000000000000D+00  0.0000000000000D+00
329  3.2800000000000D+00  0.0000000000000D+00  0.0000000000000D+00
330  3.2900000000000D+00  0.0000000000000D+00  0.0000000000000D+00
331  3.3000000000000D+00  0.0000000000000D+00  0.0000000000000D+00
332  3.3100000000000D+00  0.0000000000000D+00  0.0000000000000D+00
333  3.3200000000000D+00  0.0000000000000D+00  0.0000000000000D+00
334  3.3300000000000D+00  0.0000000000000D+00  0.0000000000000D+00
335  3.3400000000000D+00  0.0000000000000D+00  0.0000000000000D+00
336  3.3500000000000D+00  0.0000000000000D+00  0.0000000000000D+00
337  3.3600000000000D+00  0.0000000000000D+00  0.0000000000000D+00
338  3.3700000000000D+00  0.0000000000000D+00  0.0000000000000D+00
339  3.3800000000000D+00  0.0000000000000D+00  0.0000000000000D+00
340  3.3900000000000D+00  0.0000000000000D+00  0.0000000000000D+00
341  3.4000000000000D+00  0.0000000000000D+00  0.0000000000000D+00
342  3.4100000000000D+00  0.0000000000000D+00  0.0000000000000D+00
343  3.4200000000000D+00  0.0000000000000D+00  0.0000000000000D+00
344  3.4300000000000D+00  0.0000000000000D+00  0.0000000000000D+00
345  3.4400000000000D+00  0.0000000000000D+00  0.0000000000000D+00
346  3.4500000000000D+00  0.0000000000000D+00  0.0000000000000D+00
347  3.4600000000000D+00  0.0000000000000D+00  0.0000000000000D+00
348  3.4700000000000D+00  0.0000000000000D+00  0.0000000000000D+00
349  3.4800000000000D+00  0.0000000000000D+00  0.0000000000000D+00
350  3.4900000000000D+00  0.0000000000000D+00  0.0000000000000D+00
351  3.5000000000000D+00  0.0000000000000D+00  0.0000000000000D+00
352  3.5100000000000D+00  0.0000000000000D+00  0.0000000000000D+00
353  3.5200000000000D+00  0.0000000000000D+00  0.0000000000000D+00
354  3.5300000000000D+00  0.0000000000000D+00  0.0000000000000D+00
355  3.5400000000000D+00  0.0000000000000D+00  0.0000000000000D+00
356  3.5500000000000D+00  0.0000000000000D+00  0.0000000000000D+00
357  3.5600000000000D+00  0.0000000000000D+00  0.0000000000000D+00
358  3.5700000000000D+00  0.0000000000000D+00  0.0000000000000D+00
359  3.5800000000000D+00  0.0000000000000D+00  0.0000000000000D+00
360  3.5900000000000D+00  0.0000000000000D+00  0.0000000000000D+00
361  3.6000000000000D+00  0.0000000000000D+00  0.0000000000000D+00
362  3.6100000000000D+00  0.0000000000000D+00  0.0000000000000D+00
363  3.6200000000000D+00  0.0000000000000D+00  0.0000000000000D+00
364  3.6300000000000D+00  0.0000000000000D+00  0.0000000000000D+00
365  3.6400000000000D+00  0.0000000000000D+00  0.0000000000000D+00
366  3.6500000000000D+00  0.0000000000000D+00  0.0000000000000D+00
367  3.6600000000000D+00  0.0000000000000D+00  0.0000000000000D+00
368  3.6700000000000D+00  0.0000000000000D+00  0.0000000000000D+00
369  3.6800000000000D+00  0.0000000000000D+00  0.0000000000000D+00
370  3.6900000000000D+00  0.0000000000000D+00  0.0000000000000D+00
371  3.7000000000000D+00  0.0000000000000D+00  0.0000000000000D+00
372  3.7100000000000D+00  0.0000000000000D+00  0.0000000000000D+00
373  3.7200000000000D+00  0.0000000000000D+00  0.0000000000000D+00
374  3.7300000000000D+00  0.0000000000000D+00  0.0000000000000D+00
375  3.7400000000000D+00  0.0000000000000D+00  0.0000000000000D+00
376  3.7500000000000D+00  0.0000000000000D+00  0.0000000000000D+00
377  3.7600000000000D+00  0.0000000000000D+00  0.0000000000000D+00
378  3.7700000000000D+00  0.0000000000000D+00  0.0000000000000D+00
379  3.7800000000000D+00  0.0000000000000D+00  0.0000000000000D+00
380  3.7900000000000D+00  0.0000000000000D+00  0.0000000000000D+00
381  3.8000000000000D+00  0.0000000000000D+00  0.0000000000000D+00
382  3.8100000000000D+00  0.0000000000000D+00  0.0000000000000D+00
383  3.8200000000000D+00  0.0000000000000D+00  0.0000000000000D+00
384  3.8300000000000D+00  0.0000000000000D+00  0.0000000000000D+00
385  3.8400000000000D+00  0.0000000000000D+00  0.0000000000000D+00
386  3.8500000000000D+00  0.0000000000000D+00  0.0000000000000D+00
387  3.8600000000000D+00  0.0000000000000D+00  0.0000000000000D+00
388  3.8700000000000D+00  0.0000000000000D+00  0.0000000000000D+00
389  3.8800000000000D+00  0.0000000000000D+00  0.0000000000000D+00
390  3.8900000000000D+00  0.0000000000000D+00  0.0000000000000D+00
391  3.9000000000000D+00  0.0000000000000D+00  0.0000000000000D+00
392  3.9100000000000D+00  0.0000000000000D+00  0.0000000000000D+00
393  3.9200000000000D+00  0.0000000000000D+00  0.0000000000000D+00
394  3.9300000000000D+00  0.0000000000000D+00  0.0000000000000D+00
395  3.9400000000000D+00  0.0000000000000D+00  0.0000000000000D+00
396  3.9500000000000D+00  0.0000000000000D+00  0.0000000000000D+00
397  3.9600000000000D+00  0.0000000000000D+00  0.0000000000000D+00
398  3.9700000000000D+00  0.0000000000000D+00  0.0000000000000D+00
399  3.9800000000000D+00  0.0000000000000D+00  0.0000000000000D+00
400  3.9900000000000D+00  0.0000000000000D+00  0.0000000000000D+00
401  4.0000000000000D+00  0.0000000000000D+00  0.0000000000000D+00
402  4.0100000000000D+00  0.0000000000000D+00  0.0000000000000D+00
403  4.0200000000000D+00  0.0000000000000D+00  0.0000000000000D+00
404  4.0300000000000D+00  0.0000000000000D+00  0.0000000000000D+00
405  4.0400000000000D+00  0.0000000000000D+00  0.0000000000000D+00
406  4.0500000000000D+00  0.0000000000000D+00  0.0000000000000D+00
407  4.0600000000000D+00  0.0000000000000D+00  0.0000000000000D+00
408  4.0700000000000D+00  0.0000000000000D+00  0.0000000000000D+00
409  4.0800000000000D+00  0.0000000000000D+00  0.0000000000000D+00
410  4.0900000000000D+00  0.0000000000000D+00  0.0000000000000D+00
411  4.1000000000000D+00  0.0000000000000D+00  0.0000000000000D+00
412  4.1100000000000D+00  0.0000000000000D+00  0.0000000000000D+00
413  4.1200000000000D+00  0.0000000000000D+00  0.0000000000000D+00
414  4.1300000000000D+00  0.0000000000000D+00  0.0000000000000D+00
415  4.1400000000000D+00  0.0000000000000D+00  0.0000000000000D+00
416  4.1500000000000D+00  0.0000000000000D+00  0.0000000000000D+00
417  4.1600000000000D+00  0.0000000000000D+00  0.0000000000000D+00
418  4.1700000000000D+00  0.0000000000000D+00  0.0000000000000D+00
419  4.1800000000000D+00  0.0000000000000D+00  0.0000000000000D+00
420  4.1900000000000D+00  0.0000000000000D+00  0.0000000000000D+00
421  4.2000000000000D+00  0.0000000000000D+00  0.0000000000000D+00
422  4.2100000000000D+00  0.0000000000000D+00  0.0000000000000D+00
423  4.2200000000000D+00  0.0000000000000D+00  0.0000000000000D+00
424  4.2300000000000D+00  0.0000000000000D+00  0.0000000000000D+00
425  4.2400000000000D+00  0.0000000000000D+00  0.0000000000000D+00
426  4.2500000000000D+00  0.0000000000000D+00  0.0000000000000D+00
427  4.2600000000000D+00  0.0000000000000D+00  0.0000000000000D+00
428  4.2700000000000D+00  0.0000000000000D+00  0.0000000000000D+00
429  4.2800000000000D+00  0.0000000000000D+00  0.0000000000000D+00
430  4.2900000000000D+00  0.0000000000000D+00  0.0000000000000D+00
431  4.3000000000000D+00  0.0000000000000D+00  0.0000000000000D+00
432  4.3100000000000D+00  0.0000000000000D+00  0.0000000000000D+00
433  4.3200000000000D+00  0.0000000000000D+00  0.0000000000000D+00
434  4.3300000000000D+00  0.0000000000000D+00  0.0000000000000D+00
435  4.3400000000000D+00  0.0000000000000D+00  0.0000000000000D+00
436  4.3500000000000D+00  0.0000000000000D+00  0.0000000000000D+00
437  4.3600000000000D+00  0.0000000000000D+00  0.0000000000000D+00
438  4.3700000000000D+00  0.0000000000000D+00  0.0000000000000D+00
439  4.3800000000000D+00  0.0000000000000D+00  0.0000000000000D+00
440  4.3900000000000D+00  0.0000000000000D+00  0.0000000000000D+00
441  4.4000000000000D+00  0.0000000000000D+00  0.0000000000000D+00
442  4.4100000000000D+00  0.0000000000000D+00  0.0000000000000D+00
443  4.4200000000000D+00  0.0000000000000D+00  0.0000000000000D+00