Ne    ONCVPSP  r_core=  1.41  1.51
10.0000      8.0000      140820    zatom,zion,pspd
8    11     1     4   401     0    pspcod,pspxc,lmax,lloc,mmax,r2well
4.00000000  0.20000000  0.00000000    rchrg fchrg qchrg
2     2     0     0     0    nproj
0                 extension_switch
0                         1.5628773858786D+00 -7.5895095282642D-01
1  0.0000000000000D+00 -0.0000000000000D+00  0.0000000000000D+00
2  1.0000000000000D-02 -7.5778928195948D-03  3.6006494922297D-02
3  2.0000000000000D-02 -1.4677711161956D-02  7.1946026298991D-02
4  3.0000000000000D-02 -2.0827090634702D-02  1.0775213214738D-01
5  4.0000000000000D-02 -2.5565028325391D-02  1.4335934864748D-01
6  5.0000000000000D-02 -2.8447417400498D-02  1.7870369686499D-01
7  6.0000000000000D-02 -2.9052407951344D-02  2.1372315478110D-01
8  7.0000000000000D-02 -2.6985538882524D-02  2.4835810996131D-01
9  8.0000000000000D-02 -2.1884587847236D-02  2.8255178838215D-01
10  9.0000000000000D-02 -1.3424089129076D-02  3.1625065518044D-01
11  1.0000000000000D-01 -1.3194725513759D-03  3.4940478335862D-01
12  1.1000000000000D-01  1.4669219675650D-02  3.8196818680402D-01
13  1.2000000000000D-01  3.4734077025311D-02  4.1389911433898D-01
14  1.3000000000000D-01  5.9016559900397D-02  4.4516030190805D-01
15  1.4000000000000D-01  8.7605263993578D-02  4.7571918037008D-01
16  1.5000000000000D-01  1.2053423272419D-01  5.0554803696552D-01
17  1.6000000000000D-01  1.5778183829821D-01  5.3462412871131D-01
18  1.7000000000000D-01  1.9927024223501D-01  5.6292974683044D-01
19  1.8000000000000D-01  2.4486544492272D-01  5.9045223138791D-01
20  1.9000000000000D-01  2.9437792372572D-01  6.1718393620745D-01
21  2.0000000000000D-01  3.4756385604595D-01  6.4312214432708D-01
22  2.1000000000000D-01  4.0412691739819D-01  6.6826893493789D-01
23  2.2000000000000D-01  4.6372063722325D-01  6.9263100313178D-01
24  2.3000000000000D-01  5.2595129227236D-01  7.1621943429439D-01
25  2.4000000000000D-01  5.9038130439093D-01  7.3904943584213D-01
26  2.5000000000000D-01  6.5653313266345D-01  7.6114002735471D-01
27  2.6000000000000D-01  7.2389357084529D-01  7.8251369621907D-01
28  2.7000000000000D-01  7.9191849345132D-01  8.0319601575841D-01
29  2.8000000000000D-01  8.6003790689130D-01  8.2321523729036D-01
30  2.9000000000000D-01  9.2766133187395D-01  8.4260185441514D-01
31  3.0000000000000D-01  9.9418343231109D-01  8.6138814646841D-01
32  3.1000000000000D-01  1.0589898405919D+00  8.7960770541044D-01
33  3.2000000000000D-01  1.1214630871288D+00  8.9729495379689D-01
34  3.3000000000000D-01  1.1809887217985D+00  9.1448464699028D-01
35  3.4000000000000D-01  1.2369613028139D+00  9.3121138596894D-01
36  3.5000000000000D-01  1.2887904449008D+00  9.4750912552117D-01
37  3.6000000000000D-01  1.3359067598591D+00  9.6341069145801D-01
38  3.7000000000000D-01  1.3777676594390D+00  9.7894730949245D-01
39  3.8000000000000D-01  1.4138627912630D+00  9.9414816451854D-01
40  3.9000000000000D-01  1.4437194515020D+00  1.0090399626459D+00
41  4.0000000000000D-01  1.4669075321737D+00  1.0236465319340D+00
42  4.1000000000000D-01  1.4830440489711D+00  1.0379884582474D+00
43  4.2000000000000D-01  1.4917973451292D+00  1.0520827486357D+00
44  4.3000000000000D-01  1.4928908023286D+00  1.0659425360245D+00
45  4.4000000000000D-01  1.4861060510491D+00  1.0795768259233D+00
46  4.5000000000000D-01  1.4712856474885D+00  1.0929902878807D+00
47  4.6000000000000D-01  1.4483351881013D+00  1.1061830940767D+00
48  4.7000000000000D-01  1.4172248055814D+00  1.1191508095572D+00
49  4.8000000000000D-01  1.3779901159433D+00  1.1318843285299D+00
50  4.9000000000000D-01  1.3307327051594D+00  1.1443698500174D+00
51  5.0000000000000D-01  1.2756196156279D+00  1.1565889353087D+00
52  5.1000000000000D-01  1.2128823989782D+00  1.1685186018347D+00
53  5.2000000000000D-01  1.1428158835155D+00  1.1801314430602D+00
54  5.3000000000000D-01  1.0657758910018D+00  1.1913958337209D+00
55  5.4000000000000D-01  9.8217639401247D-01  1.2022761787960D+00
56  5.5000000000000D-01  8.9248668128251D-01  1.2127331708914D+00
57  5.6000000000000D-01  7.9722720753477D-01  1.2227241428545D+00
58  5.7000000000000D-01  6.9696556320673D-01  1.2322034245931D+00
59  5.8000000000000D-01  5.9231180058991D-01  1.2411227389292D+00
60  5.9000000000000D-01  4.8391305943177D-01  1.2494316694309D+00
61  6.0000000000000D-01  3.7244883139179D-01  1.2570780567425D+00
62  6.1000000000000D-01  2.5862405608271D-01  1.2640085961877D+00
63  6.2000000000000D-01  1.4316436441572D-01  1.2701692326700D+00
64  6.3000000000000D-01  2.6809263545411D-02  1.2755057420242D+00
65  6.4000000000000D-01 -8.9694587891899D-02  1.2799642992402D+00
66  6.5000000000000D-01 -2.0559856268126D-01  1.2834919101918D+00
67  6.6000000000000D-01 -3.2015923886347D-01  1.2860370166338D+00
68  6.7000000000000D-01 -4.3264538545630D-01  1.2875500814524D+00
69  6.8000000000000D-01 -5.4234293805686D-01  1.2879839992112D+00
70  6.9000000000000D-01 -6.4856094223712D-01  1.2872945900066D+00
71  7.0000000000000D-01 -7.5063863476529D-01  1.2854411881126D+00
72  7.1000000000000D-01 -8.4795069109334D-01  1.2823870718706D+00
73  7.2000000000000D-01 -9.3991161332949D-01  1.2780998197162D+00
74  7.3000000000000D-01 -1.0259809263382D+00  1.2725517334588D+00
75  7.4000000000000D-01 -1.1056675683010D+00  1.2657201914217D+00
76  7.5000000000000D-01 -1.1785330772144D+00  1.2575878989995D+00
77  7.6000000000000D-01 -1.2441972094166D+00  1.2481433399201D+00
78  7.7000000000000D-01 -1.3023386570026D+00  1.2373808156186D+00
79  7.8000000000000D-01 -1.3526978895538D+00  1.2253006606454D+00
80  7.9000000000000D-01 -1.3950789155567D+00  1.2119093654908D+00
81  8.0000000000000D-01 -1.4293503811708D+00  1.1972196420257D+00
82  8.1000000000000D-01 -1.4554460583766D+00  1.1812504359783D+00
83  8.2000000000000D-01 -1.4733647208562D+00  1.1640268863933D+00
84  8.3000000000000D-01 -1.4831694121129D+00  1.1455802325463D+00
85  8.4000000000000D-01 -1.4849861163613D+00  1.1259476693017D+00
86  8.5000000000000D-01 -1.4790018485710D+00  1.1051721523993D+00
87  8.6000000000000D-01 -1.4654621856974D+00  1.0833021556426D+00
88  8.7000000000000D-01 -1.4446682665794D+00  1.0603913824195D+00
89  8.8000000000000D-01 -1.4169732931957D+00  1.0364984344378D+00
90  8.9000000000000D-01 -1.3827785709671D+00  1.0116864409783D+00
91  9.0000000000000D-01 -1.3425291305355D+00  9.8602265237739D-01
92  9.1000000000000D-01 -1.2967089779337D+00  9.5957800182961D-01
93  9.2000000000000D-01 -1.2458360242262D+00  9.3242663995798D-01
94  9.3000000000000D-01 -1.1904567494834D+00  9.0464544692170D-01
95  9.4000000000000D-01 -1.1311406592229D+00  8.7631352710845D-01
96  9.5000000000000D-01 -1.0684749935884D+00  8.4751173436047D-01
97  9.6000000000000D-01 -1.0030583781109D+00  8.1832208089523D-01
98  9.7000000000000D-01 -9.3549469497240D-01  7.8882718620018D-01
99  9.8000000000000D-01 -8.6638784568070D-01  7.5910981037031D-01
100  9.9000000000000D-01 -7.9633584291694D-01  7.2925231458836D-01
101  1.0000000000000D+00 -7.2592525475671D-01  6.9933615776135D-01
102  1.0100000000000D+00 -6.5572587270088D-01  6.6944141303327D-01
103  1.0200000000000D+00 -5.8628753410128D-01  6.3964648937294D-01
104  1.0300000000000D+00 -5.1813116592848D-01  6.1002729242799D-01
105  1.0400000000000D+00 -4.5174519315498D-01  5.8065690596154D-01
106  1.0500000000000D+00 -3.8758375364835D-01  5.5160543661080D-01
107  1.0600000000000D+00 -3.2606213935450D-01  5.2293958824612D-01
108  1.0700000000000D+00 -2.6755603102692D-01  4.9472259601304D-01
109  1.0800000000000D+00 -2.1239466957911D-01  4.6701357866414D-01
110  1.0900000000000D+00 -1.6085600244035D-01  4.3986707306835D-01
111  1.1000000000000D+00 -1.1317228117004D-01  4.1333356056977D-01
112  1.1100000000000D+00 -6.9527048179556D-02  3.8745916813302D-01
113  1.1200000000000D+00 -3.0058477269607D-02  3.6228598103181D-01
114  1.1300000000000D+00  5.1574231199072D-03  3.3785039442781D-01
115  1.1400000000000D+00  3.6088134416560D-02  3.1418488222167D-01
116  1.1500000000000D+00  6.2747583838755D-02  2.9131768662321D-01
117  1.1600000000000D+00  8.5194487766517D-02  2.6927295941364D-01
118  1.1700000000000D+00  1.0354148129156D-01  2.4806977286727D-01
119  1.1800000000000D+00  1.1793701751446D-01  2.2772386347973D-01
120  1.1900000000000D+00  1.2856516773445D-01  2.0824763687674D-01
121  1.2000000000000D+00  1.3565120877505D-01  1.8964948460669D-01
122  1.2100000000000D+00  1.3945078447419D-01  1.7193476434057D-01
123  1.2200000000000D+00  1.4024370329165D-01  1.5510643492255D-01
124  1.2300000000000D+00  1.3833488734297D-01  1.3916487164469D-01
125  1.2400000000000D+00  1.3404753409357D-01  1.2410824456993D-01
126  1.2500000000000D+00  1.2771611969330D-01  1.0993339775838D-01
127  1.2600000000000D+00  1.1968737572431D-01  9.6635695006092D-02
128  1.2700000000000D+00  1.1030626153842D-01  8.4209843779554D-02
129  1.2800000000000D+00  9.9918146165303D-02  7.2650132385387D-02
130  1.2900000000000D+00  8.8867881230504D-02  6.1950391239820D-02
131  1.3000000000000D+00  7.7476794700937D-02  5.2105540256946D-02
132  1.3100000000000D+00  6.6059839256509D-02  4.3110652378202D-02
133  1.3200000000000D+00  5.4913984020796D-02  3.4961659968161D-02
134  1.3300000000000D+00  4.4297392745127D-02  2.7656854082498D-02
135  1.3400000000000D+00  3.4459820985470D-02  2.1194864055114D-02
136  1.3500000000000D+00  2.5606710187835D-02  1.5577100662096D-02
137  1.3600000000000D+00  1.7904394117271D-02  1.0807447208698D-02
138  1.3700000000000D+00  1.1510815650381D-02  6.8901434212172D-03
139  1.3800000000000D+00  6.5056529958782D-03  3.8345858650869D-03
140  1.3900000000000D+00  2.9563924330816D-03  1.6507707150292D-03
141  1.4000000000000D+00  1.0079321608628D-03  4.2392061168136D-04
142  1.4100000000000D+00  2.2167654174091D-04 -6.1773816958239D-05
143  1.4200000000000D+00 -1.9313533802719D-05 -8.8458508471450D-05
144  1.4300000000000D+00 -1.3257426790529D-05  2.5273531814999D-06
145  1.4400000000000D+00 -8.4891830796540D-06  1.6183505444681D-06
146  1.4500000000000D+00  0.0000000000000D+00  0.0000000000000D+00
147  1.4600000000000D+00  0.0000000000000D+00  0.0000000000000D+00
148  1.4700000000000D+00  0.0000000000000D+00  0.0000000000000D+00
149  1.4800000000000D+00  0.0000000000000D+00  0.0000000000000D+00
150  1.4900000000000D+00  0.0000000000000D+00  0.0000000000000D+00
151  1.5000000000000D+00  0.0000000000000D+00  0.0000000000000D+00
152  1.5100000000000D+00  0.0000000000000D+00  0.0000000000000D+00
153  1.5200000000000D+00  0.0000000000000D+00  0.0000000000000D+00
154  1.5300000000000D+00  0.0000000000000D+00  0.0000000000000D+00
155  1.5400000000000D+00  0.0000000000000D+00  0.0000000000000D+00
156  1.5500000000000D+00  0.0000000000000D+00  0.0000000000000D+00
157  1.5600000000000D+00  0.0000000000000D+00  0.0000000000000D+00
158  1.5700000000000D+00  0.0000000000000D+00  0.0000000000000D+00
159  1.5800000000000D+00  0.0000000000000D+00  0.0000000000000D+00
160  1.5900000000000D+00  0.0000000000000D+00  0.0000000000000D+00
161  1.6000000000000D+00  0.0000000000000D+00  0.0000000000000D+00
162  1.6100000000000D+00  0.0000000000000D+00  0.0000000000000D+00
163  1.6200000000000D+00  0.0000000000000D+00  0.0000000000000D+00
164  1.6300000000000D+00  0.0000000000000D+00  0.0000000000000D+00
165  1.6400000000000D+00  0.0000000000000D+00  0.0000000000000D+00
166  1.6500000000000D+00  0.0000000000000D+00  0.0000000000000D+00
167  1.6600000000000D+00  0.0000000000000D+00  0.0000000000000D+00
168  1.6700000000000D+00  0.0000000000000D+00  0.0000000000000D+00
169  1.6800000000000D+00  0.0000000000000D+00  0.0000000000000D+00
170  1.6900000000000D+00  0.0000000000000D+00  0.0000000000000D+00
171  1.7000000000000D+00  0.0000000000000D+00  0.0000000000000D+00
172  1.7100000000000D+00  0.0000000000000D+00  0.0000000000000D+00
173  1.7200000000000D+00  0.0000000000000D+00  0.0000000000000D+00
174  1.7300000000000D+00  0.0000000000000D+00  0.0000000000000D+00
175  1.7400000000000D+00  0.0000000000000D+00  0.0000000000000D+00
176  1.7500000000000D+00  0.0000000000000D+00  0.0000000000000D+00
177  1.7600000000000D+00  0.0000000000000D+00  0.0000000000000D+00
178  1.7700000000000D+00  0.0000000000000D+00  0.0000000000000D+00
179  1.7800000000000D+00  0.0000000000000D+00  0.0000000000000D+00
180  1.7900000000000D+00  0.0000000000000D+00  0.0000000000000D+00
181  1.8000000000000D+00  0.0000000000000D+00  0.0000000000000D+00
182  1.8100000000000D+00  0.0000000000000D+00  0.0000000000000D+00
183  1.8200000000000D+00  0.0000000000000D+00  0.0000000000000D+00
184  1.8300000000000D+00  0.0000000000000D+00  0.0000000000000D+00
185  1.8400000000000D+00  0.0000000000000D+00  0.0000000000000D+00
186  1.8500000000000D+00  0.0000000000000D+00  0.0000000000000D+00
187  1.8600000000000D+00  0.0000000000000D+00  0.0000000000000D+00
188  1.8700000000000D+00  0.0000000000000D+00  0.0000000000000D+00
189  1.8800000000000D+00  0.0000000000000D+00  0.0000000000000D+00
190  1.8900000000000D+00  0.0000000000000D+00  0.0000000000000D+00
191  1.9000000000000D+00  0.0000000000000D+00  0.0000000000000D+00
192  1.9100000000000D+00  0.0000000000000D+00  0.0000000000000D+00
193  1.9200000000000D+00  0.0000000000000D+00  0.0000000000000D+00
194  1.9300000000000D+00  0.0000000000000D+00  0.0000000000000D+00
195  1.9400000000000D+00  0.0000000000000D+00  0.0000000000000D+00
196  1.9500000000000D+00  0.0000000000000D+00  0.0000000000000D+00
197  1.9600000000000D+00  0.0000000000000D+00  0.0000000000000D+00
198  1.9700000000000D+00  0.0000000000000D+00  0.0000000000000D+00
199  1.9800000000000D+00  0.0000000000000D+00  0.0000000000000D+00
200  1.9900000000000D+00  0.0000000000000D+00  0.0000000000000D+00
201  2.0000000000000D+00  0.0000000000000D+00  0.0000000000000D+00
202  2.0100000000000D+00  0.0000000000000D+00  0.0000000000000D+00
203  2.0200000000000D+00  0.0000000000000D+00  0.0000000000000D+00
204  2.0300000000000D+00  0.0000000000000D+00  0.0000000000000D+00
205  2.0400000000000D+00  0.0000000000000D+00  0.0000000000000D+00
206  2.0500000000000D+00  0.0000000000000D+00  0.0000000000000D+00
207  2.0600000000000D+00  0.0000000000000D+00  0.0000000000000D+00
208  2.0700000000000D+00  0.0000000000000D+00  0.0000000000000D+00
209  2.0800000000000D+00  0.0000000000000D+00  0.0000000000000D+00
210  2.0900000000000D+00  0.0000000000000D+00  0.0000000000000D+00
211  2.1000000000000D+00  0.0000000000000D+00  0.0000000000000D+00
212  2.1100000000000D+00  0.0000000000000D+00  0.0000000000000D+00
213  2.1200000000000D+00  0.0000000000000D+00  0.0000000000000D+00
214  2.1300000000000D+00  0.0000000000000D+00  0.0000000000000D+00
215  2.1400000000000D+00  0.0000000000000D+00  0.0000000000000D+00
216  2.1500000000000D+00  0.0000000000000D+00  0.0000000000000D+00
217  2.1600000000000D+00  0.0000000000000D+00  0.0000000000000D+00
218  2.1700000000000D+00  0.0000000000000D+00  0.0000000000000D+00
219  2.1800000000000D+00  0.0000000000000D+00  0.0000000000000D+00
220  2.1900000000000D+00  0.0000000000000D+00  0.0000000000000D+00
221  2.2000000000000D+00  0.0000000000000D+00  0.0000000000000D+00
222  2.2100000000000D+00  0.0000000000000D+00  0.0000000000000D+00
223  2.2200000000000D+00  0.0000000000000D+00  0.0000000000000D+00
224  2.2300000000000D+00  0.0000000000000D+00  0.0000000000000D+00
225  2.2400000000000D+00  0.0000000000000D+00  0.0000000000000D+00
226  2.2500000000000D+00  0.0000000000000D+00  0.0000000000000D+00
227  2.2600000000000D+00  0.0000000000000D+00  0.0000000000000D+00
228  2.2700000000000D+00  0.0000000000000D+00  0.0000000000000D+00
229  2.2800000000000D+00  0.0000000000000D+00  0.0000000000000D+00
230  2.2900000000000D+00  0.0000000000000D+00  0.0000000000000D+00
231  2.3000000000000D+00  0.0000000000000D+00  0.0000000000000D+00
232  2.3100000000000D+00  0.0000000000000D+00  0.0000000000000D+00
233  2.3200000000000D+00  0.0000000000000D+00  0.0000000000000D+00
234  2.3300000000000D+00  0.0000000000000D+00  0.0000000000000D+00
235  2.3400000000000D+00  0.0000000000000D+00  0.0000000000000D+00
236  2.3500000000000D+00  0.0000000000000D+00  0.0000000000000D+00
237  2.3600000000000D+00  0.0000000000000D+00  0.0000000000000D+00
238  2.3700000000000D+00  0.0000000000000D+00  0.0000000000000D+00
239  2.3800000000000D+00  0.0000000000000D+00  0.0000000000000D+00
240  2.3900000000000D+00  0.0000000000000D+00  0.0000000000000D+00
241  2.4000000000000D+00  0.0000000000000D+00  0.0000000000000D+00
242  2.4100000000000D+00  0.0000000000000D+00  0.0000000000000D+00
243  2.4200000000000D+00  0.0000000000000D+00  0.0000000000000D+00
244  2.4300000000000D+00  0.0000000000000D+00  0.0000000000000D+00
245  2.4400000000000D+00  0.0000000000000D+00  0.0000000000000D+00
246  2.4500000000000D+00  0.0000000000000D+00  0.0000000000000D+00
247  2.4600000000000D+00  0.0000000000000D+00  0.0000000000000D+00
248  2.4700000000000D+00  0.0000000000000D+00  0.0000000000000D+00
249  2.4800000000000D+00  0.0000000000000D+00  0.0000000000000D+00
250  2.4900000000000D+00  0.0000000000000D+00  0.0000000000000D+00
251  2.5000000000000D+00  0.0000000000000D+00  0.0000000000000D+00
252  2.5100000000000D+00  0.0000000000000D+00  0.0000000000000D+00
253  2.5200000000000D+00  0.0000000000000D+00  0.0000000000000D+00
254  2.5300000000000D+00  0.0000000000000D+00  0.0000000000000D+00
255  2.5400000000000D+00  0.0000000000000D+00  0.0000000000000D+00
256  2.5500000000000D+00  0.0000000000000D+00  0.0000000000000D+00
257  2.5600000000000D+00  0.0000000000000D+00  0.0000000000000D+00
258  2.5700000000000D+00  0.0000000000000D+00  0.0000000000000D+00
259  2.5800000000000D+00  0.0000000000000D+00  0.0000000000000D+00
260  2.5900000000000D+00  0.0000000000000D+00  0.0000000000000D+00
261  2.6000000000000D+00  0.0000000000000D+00  0.0000000000000D+00
262  2.6100000000000D+00  0.0000000000000D+00  0.0000000000000D+00
263  2.6200000000000D+00  0.0000000000000D+00  0.0000000000000D+00
264  2.6300000000000D+00  0.0000000000000D+00  0.0000000000000D+00
265  2.6400000000000D+00  0.0000000000000D+00  0.0000000000000D+00
266  2.6500000000000D+00  0.0000000000000D+00  0.0000000000000D+00
267  2.6600000000000D+00  0.0000000000000D+00  0.0000000000000D+00
268  2.6700000000000D+00  0.0000000000000D+00  0.0000000000000D+00
269  2.6800000000000D+00  0.0000000000000D+00  0.0000000000000D+00
270  2.6900000000000D+00  0.0000000000000D+00  0.0000000000000D+00
271  2.7000000000000D+00  0.0000000000000D+00  0.0000000000000D+00
272  2.7100000000000D+00  0.0000000000000D+00  0.0000000000000D+00
273  2.7200000000000D+00  0.0000000000000D+00  0.0000000000000D+00
274  2.7300000000000D+00  0.0000000000000D+00  0.0000000000000D+00
275  2.7400000000000D+00  0.0000000000000D+00  0.0000000000000D+00
276  2.7500000000000D+00  0.0000000000000D+00  0.0000000000000D+00
277  2.7600000000000D+00  0.0000000000000D+00  0.0000000000000D+00
278  2.7700000000000D+00  0.0000000000000D+00  0.0000000000000D+00
279  2.7800000000000D+00  0.0000000000000D+00  0.0000000000000D+00
280  2.7900000000000D+00  0.0000000000000D+00  0.0000000000000D+00
281  2.8000000000000D+00  0.0000000000000D+00  0.0000000000000D+00
282  2.8100000000000D+00  0.0000000000000D+00  0.0000000000000D+00
283  2.8200000000000D+00  0.0000000000000D+00  0.0000000000000D+00
284  2.8300000000000D+00  0.0000000000000D+00  0.0000000000000D+00
285  2.8400000000000D+00  0.0000000000000D+00  0.0000000000000D+00
286  2.8500000000000D+00  0.0000000000000D+00  0.0000000000000D+00
287  2.8600000000000D+00  0.0000000000000D+00  0.0000000000000D+00
288  2.8700000000000D+00  0.0000000000000D+00  0.0000000000000D+00
289  2.8800000000000D+00  0.0000000000000D+00  0.0000000000000D+00
290  2.8900000000000D+00  0.0000000000000D+00  0.0000000000000D+00
291  2.9000000000000D+00  0.0000000000000D+00  0.0000000000000D+00
292  2.9100000000000D+00  0.0000000000000D+00  0.0000000000000D+00
293  2.9200000000000D+00  0.0000000000000D+00  0.0000000000000D+00
294  2.9300000000000D+00  0.0000000000000D+00  0.0000000000000D+00
295  2.9400000000000D+00  0.0000000000000D+00  0.0000000000000D+00
296  2.9500000000000D+00  0.0000000000000D+00  0.0000000000000D+00
297  2.9600000000000D+00  0.0000000000000D+00  0.0000000000000D+00
298  2.9700000000000D+00  0.0000000000000D+00  0.0000000000000D+00
299  2.9800000000000D+00  0.0000000000000D+00  0.0000000000000D+00
300  2.9900000000000D+00  0.0000000000000D+00  0.0000000000000D+00
301  3.0000000000000D+00  0.0000000000000D+00  0.0000000000000D+00
302  3.0100000000000D+00  0.0000000000000D+00  0.0000000000000D+00
303  3.0200000000000D+00  0.0000000000000D+00  0.0000000000000D+00
304  3.0300000000000D+00  0.0000000000000D+00  0.0000000000000D+00
305  3.0400000000000D+00  0.0000000000000D+00  0.0000000000000D+00
306  3.0500000000000D+00  0.0000000000000D+00  0.0000000000000D+00
307  3.0600000000000D+00  0.0000000000000D+00  0.0000000000000D+00
308  3.0700000000000D+00  0.0000000000000D+00  0.0000000000000D+00
309  3.0800000000000D+00  0.0000000000000D+00  0.0000000000000D+00
310  3.0900000000000D+00  0.0000000000000D+00  0.0000000000000D+00
311  3.1000000000000D+00  0.0000000000000D+00  0.0000000000000D+00
312  3.1100000000000D+00  0.0000000000000D+00  0.0000000000000D+00
313  3.1200000000000D+00  0.0000000000000D+00  0.0000000000000D+00
314  3.1300000000000D+00  0.0000000000000D+00  0.0000000000000D+00
315  3.1400000000000D+00  0.0000000000000D+00  0.0000000000000D+00
316  3.1500000000000D+00  0.0000000000000D+00  0.0000000000000D+00
317  3.1600000000000D+00  0.0000000000000D+00  0.0000000000000D+00
318  3.1700000000000D+00  0.0000000000000D+00  0.0000000000000D+00
319  3.1800000000000D+00  0.0000000000000D+00  0.0000000000000D+00
320  3.1900000000000D+00  0.0000000000000D+00  0.0000000000000D+00
321  3.2000000000000D+00  0.0000000000000D+00  0.0000000000000D+00
322  3.2100000000000D+00  0.0000000000000D+00  0.0000000000000D+00
323  3.2200000000000D+00  0.0000000000000D+00  0.0000000000000D+00
324  3.2300000000000D+00  0.0000000000000D+00  0.0000000000000D+00
325  3.2400000000000D+00  0.0000000000000D+00  0.0000000000000D+00
326  3.2500000000000D+00  0.0000000000000D+00  0.0000000000000D+00
327  3.2600000000000D+00  0.0000000000000D+00  0.0000000000000D+00
328  3.2700000000000D+00  0.0000000000000D+00  0.0000000000000D+00
329  3.2800000000000D+00  0.0000000000000D+00  0.0000000000000D+00
330  3.2900000000000D+00  0.0000000000000D+00  0.0000000000000D+00
331  3.3000000000000D+00  0.0000000000000D+00  0.0000000000000D+00
332  3.3100000000000D+00  0.0000000000000D+00  0.0000000000000D+00
333  3.3200000000000D+00  0.0000000000000D+00  0.0000000000000D+00
334  3.3300000000000D+00  0.0000000000000D+00  0.0000000000000D+00
335  3.3400000000000D+00  0.0000000000000D+00  0.0000000000000D+00
336  3.3500000000000D+00  0.0000000000000D+00  0.0000000000000D+00
337  3.3600000000000D+00  0.0000000000000D+00  0.0000000000000D+00
338  3.3700000000000D+00  0.0000000000000D+00  0.0000000000000D+00
339  3.3800000000000D+00  0.0000000000000D+00  0.0000000000000D+00
340  3.3900000000000D+00  0.0000000000000D+00  0.0000000000000D+00
341  3.4000000000000D+00  0.0000000000000D+00  0.0000000000000D+00
342  3.4100000000000D+00  0.0000000000000D+00  0.0000000000000D+00
343  3.4200000000000D+00  0.0000000000000D+00  0.0000000000000D+00
344  3.4300000000000D+00  0.0000000000000D+00  0.0000000000000D+00
345  3.4400000000000D+00  0.0000000000000D+00  0.0000000000000D+00
346  3.4500000000000D+00  0.0000000000000D+00  0.0000000000000D+00
347  3.4600000000000D+00  0.0000000000000D+00  0.0000000000000D+00
348  3.4700000000000D+00  0.0000000000000D+00  0.0000000000000D+00
349  3.4800000000000D+00  0.0000000000000D+00  0.0000000000000D+00
350  3.4900000000000D+00  0.0000000000000D+00  0.0000000000000D+00
351  3.5000000000000D+00  0.0000000000000D+00  0.0000000000000D+00
352  3.5100000000000D+00  0.0000000000000D+00  0.0000000000000D+00
353  3.5200000000000D+00  0.0000000000000D+00  0.0000000000000D+00
354  3.5300000000000D+00  0.0000000000000D+00  0.0000000000000D+00
355  3.5400000000000D+00  0.0000000000000D+00  0.0000000000000D+00
356  3.5500000000000D+00  0.0000000000000D+00  0.0000000000000D+00
357  3.5600000000000D+00  0.0000000000000D+00  0.0000000000000D+00
358  3.5700000000000D+00  0.0000000000000D+00  0.0000000000000D+00
359  3.5800000000000D+00  0.0000000000000D+00  0.0000000000000D+00
360  3.5900000000000D+00  0.0000000000000D+00  0.0000000000000D+00
361  3.6000000000000D+00  0.0000000000000D+00  0.0000000000000D+00
362  3.6100000000000D+00  0.0000000000000D+00  0.0000000000000D+00
363  3.6200000000000D+00  0.0000000000000D+00  0.0000000000000D+00
364  3.6300000000000D+00  0.0000000000000D+00  0.0000000000000D+00
365  3.6400000000000D+00  0.0000000000000D+00  0.0000000000000D+00
366  3.6500000000000D+00  0.0000000000000D+00  0.0000000000000D+00
367  3.6600000000000D+00  0.0000000000000D+00  0.0000000000000D+00
368  3.6700000000000D+00  0.0000000000000D+00  0.0000000000000D+00
369  3.6800000000000D+00  0.0000000000000D+00  0.0000000000000D+00
370  3.6900000000000D+00  0.0000000000000D+00  0.0000000000000D+00
371  3.7000000000000D+00  0.0000000000000D+00  0.0000000000000D+00
372  3.7100000000000D+00  0.0000000000000D+00  0.0000000000000D+00
373  3.7200000000000D+00  0.0000000000000D+00  0.0000000000000D+00
374  3.7300000000000D+00  0.0000000000000D+00  0.0000000000000D+00
375  3.7400000000000D+00  0.0000000000000D+00  0.0000000000000D+00
376  3.7500000000000D+00  0.0000000000000D+00  0.0000000000000D+00
377  3.7600000000000D+00  0.0000000000000D+00  0.0000000000000D+00
378  3.7700000000000D+00  0.0000000000000D+00  0.0000000000000D+00
379  3.7800000000000D+00  0.0000000000000D+00  0.0000000000000D+00
380  3.7900000000000D+00  0.0000000000000D+00  0.0000000000000D+00
381  3.8000000000000D+00  0.0000000000000D+00  0.0000000000000D+00
382  3.8100000000000D+00  0.0000000000000D+00  0.0000000000000D+00
383  3.8200000000000D+00  0.0000000000000D+00  0.0000000000000D+00
384  3.8300000000000D+00  0.0000000000000D+00  0.0000000000000D+00
385  3.8400000000000D+00  0.0000000000000D+00  0.0000000000000D+00
386  3.8500000000000D+00  0.0000000000000D+00  0.0000000000000D+00
387  3.8600000000000D+00  0.0000000000000D+00  0.0000000000000D+00
388  3.8700000000000D+00  0.0000000000000D+00  0.0000000000000D+00
389  3.8800000000000D+00  0.0000000000000D+00  0.0000000000000D+00
390  3.8900000000000D+00  0.0000000000000D+00  0.0000000000000D+00
391  3.9000000000000D+00  0.0000000000000D+00  0.0000000000000D+00
392  3.9100000000000D+00  0.0000000000000D+00  0.0000000000000D+00
393  3.9200000000000D+00  0.0000000000000D+00  0.0000000000000D+00
394  3.9300000000000D+00  0.0000000000000D+00  0.0000000000000D+00
395  3.9400000000000D+00  0.0000000000000D+00  0.0000000000000D+00
396  3.9500000000000D+00  0.0000000000000D+00  0.0000000000000D+00
397  3.9600000000000D+00  0.0000000000000D+00  0.0000000000000D+00
398  3.9700000000000D+00  0.0000000000000D+00  0.0000000000000D+00
399  3.9800000000000D+00  0.0000000000000D+00  0.0000000000000D+00
400  3.9900000000000D+00  0.0000000000000D+00  0.0000000000000D+00
401  4.0000000000000D+00  0.0000000000000D+00  0.0000000000000D+00
1                        -7.0004374771572D+00 -2.1275230488113D+00
1  0.0000000000000D+00  0.0000000000000D+00  0.0000000000000D+00
2  1.0000000000000D-02  2.0732615169694D-03  8.2761389241776D-04
3  2.0000000000000D-02  8.2833545144285D-03  3.3039849266599D-03
4  3.0000000000000D-02  1.8601244266382D-02  7.4097263477656D-03
5  4.0000000000000D-02  3.2978672578182D-02  1.3112610870701D-02
6  5.0000000000000D-02  5.1348356961605D-02  2.0367696845710D-02
7  6.0000000000000D-02  7.3624268781375D-02  2.9117505290855D-02
8  7.0000000000000D-02  9.9701989668701D-02  3.9292248169345D-02
9  8.0000000000000D-02  1.2945914528667D-01  5.0810108363668D-02
10  9.0000000000000D-02  1.6275591531768D-01  6.3577571849956D-02
11  1.0000000000000D-01  1.9943561831789D-01  7.7489812596869D-02
12  1.1000000000000D-01  2.3932536985297D-01  9.2431130702558D-02
13  1.2000000000000D-01  2.8223681209090D-01  1.0827544423717D-01
14  1.3000000000000D-01  3.2796691278284D-01  1.2488683517501D-01
15  1.4000000000000D-01  3.7629883127008D-01  1.4212014964588D-01
16  1.5000000000000D-01  4.2700284898317D-01  1.5982165263496D-01
17  1.6000000000000D-01  4.7983736144113D-01  1.7782973690517D-01
18  1.7000000000000D-01  5.3454992875802D-01  1.9597568587494D-01
19  1.8000000000000D-01  5.9087838099158D-01  2.1408448957688D-01
20  1.9000000000000D-01  6.4855197485283D-01  2.3197571286646D-01
21  2.0000000000000D-01  7.0729259724039D-01  2.4946441401395D-01
22  2.1000000000000D-01  7.6681601221525D-01  2.6636211267669D-01
23  2.2000000000000D-01  8.2683314539316D-01  2.8247780369396D-01
24  2.3000000000000D-01  8.8705140204320D-01  2.9761901500652D-01
25  2.4000000000000D-01  9.4717601258524D-01  3.1159290534946D-01
26  2.5000000000000D-01  1.0069114018550D+00  3.2420739981959D-01
27  2.6000000000000D-01  1.0659625723865D+00  3.3527235473750D-01
28  2.7000000000000D-01  1.1240365016113D+00  3.4460075322813D-01
29  2.8000000000000D-01  1.1808435402312D+00  3.5200991901121D-01
30  2.9000000000000D-01  1.2360988100009D+00  3.5732274754972D-01
31  3.0000000000000D-01  1.2895235920698D+00  3.6036894565737D-01
32  3.1000000000000D-01  1.3408466993485D+00  3.6098627284316D-01
33  3.2000000000000D-01  1.3898058253739D+00  3.5902177586740D-01
34  3.3000000000000D-01  1.4361488652155D+00  3.5433301300744D-01
35  3.4000000000000D-01  1.4796351959812D+00  3.4678925111642D-01
36  3.5000000000000D-01  1.5200369153468D+00  3.3627263544967D-01
37  3.6000000000000D-01  1.5571400275783D+00  3.2267931869489D-01
38  3.7000000000000D-01  1.5907455706632D+00  3.0592054112645D-01
39  3.8000000000000D-01  1.6206706786870D+00  2.8592365114952D-01
40  3.9000000000000D-01  1.6467495706774D+00  2.6263306077382D-01
41  4.0000000000000D-01  1.6688344600291D+00  2.3601112180527D-01
42  4.1000000000000D-01  1.6867963804643D+00  2.0603891715593D-01