Ne    ONCVPSP  r_core=  1.31  1.51
10.0000      8.0000      140908    zatom,zion,pspd
8    11     1     4   401     0    pspcod,pspxc,lmax,lloc,mmax,r2well
4.00000000  0.03000000  0.00000000    rchrg fchrg qchrg
2     2     0     0     0    nproj
0                 extension_switch
0                         1.9865221985508D+00 -4.9890809744566D-01
1  0.0000000000000D+00  0.0000000000000D+00  0.0000000000000D+00
2  1.0000000000000D-02  1.0506025546993D-01  1.4563407171892D-02
3  2.0000000000000D-02  2.0940028936783D-01  2.9071712377641D-02
4  3.0000000000000D-02  3.1230972894707D-01  4.3472000255819D-02
5  4.0000000000000D-02  4.1309773131657D-01  5.7715681897623D-02
6  5.0000000000000D-02  5.1110233183495D-01  7.1760542052079D-02
7  6.0000000000000D-02  6.0569930086691D-01  8.5572649524858D-02
8  7.0000000000000D-02  6.9631035859848D-01  9.9128089166551D-02
9  8.0000000000000D-02  7.8241060880513D-01  1.1241447715334D-01
10  9.0000000000000D-02  8.6353506636765D-01  1.2543222534308D-01
11  1.0000000000000D-01  9.3928416910450D-01  1.3819552514751D-01
12  1.1000000000000D-01  1.0093281824892D+00  1.5073302664710D-01
13  1.2000000000000D-01  1.0734104253581D+00  1.6308819440793D-01
14  1.3000000000000D-01  1.1313492654196D+00  1.7531932752799D-01
15  1.4000000000000D-01  1.1830388546417D+00  1.8749923780179D-01
16  1.5000000000000D-01  1.2284485980753D+00  1.9971458640536D-01
17  1.6000000000000D-01  1.2676213701373D+00  2.1206488614100D-01
18  1.7000000000000D-01  1.3006705160133D+00  2.2466118221232D-01
19  1.8000000000000D-01  1.3277756969628D+00  2.3762443184876D-01
20  1.9000000000000D-01  1.3491776562734D+00  2.5108360690169D-01
21  2.0000000000000D-01  1.3651720123416D+00  2.6517355403060D-01
22  2.1000000000000D-01  1.3761021732774D+00  2.8003264023761D-01
23  2.2000000000000D-01  1.3823515341277D+00  2.9580023588199D-01
24  2.3000000000000D-01  1.3843350716997D+00  3.1261406816512D-01
25  2.4000000000000D-01  1.3824905222153D+00  3.3060750291663D-01
26  2.5000000000000D-01  1.3772692304795D+00  3.4990677969966D-01
27  2.6000000000000D-01  1.3691269962000D+00  3.7062830158590D-01
28  2.7000000000000D-01  1.3585148373988D+00  3.9287595053173D-01
29  2.8000000000000D-01  1.3458701139975D+00  4.1673856562552D-01
30  2.9000000000000D-01  1.3316079667675D+00  4.4228756675291D-01
31  3.0000000000000D-01  1.3161133196007D+00  4.6957479867160D-01
32  3.1000000000000D-01  1.2997335770055D+00  4.9863063351917D-01
33  3.2000000000000D-01  1.2827721990530D+00  5.2946238350545D-01
34  3.3000000000000D-01  1.2654830545619D+00  5.6205299738166D-01
35  3.4000000000000D-01  1.2480660634750D+00  5.9636018338920D-01
36  3.5000000000000D-01  1.2306638049293D+00  6.3231586669285D-01
37  3.6000000000000D-01  1.2133593559354D+00  6.6982605655836D-01
38  3.7000000000000D-01  1.1961753529911D+00  7.0877111897995D-01
39  3.8000000000000D-01  1.1790744285008D+00  7.4900648579368D-01
40  3.9000000000000D-01  1.1619606939707D+00  7.9036372516743D-01
41  4.0000000000000D-01  1.1446825906897D+00  8.3265204217013D-01
42  4.1000000000000D-01  1.1270369122910D+00  8.7566015051000D-01
43  4.2000000000000D-01  1.1087738813379D+00  9.1915848903628D-01
44  4.3000000000000D-01  1.0896032637911D+00  9.6290176488471D-01
45  4.4000000000000D-01  1.0692013903354D+00  1.0066317824047D+00
46  4.5000000000000D-01  1.0472189572498D+00  1.0500805158934D+00
47  4.6000000000000D-01  1.0232894638344D+00  1.0929733792393D+00
48  4.7000000000000D-01  9.9703808766069D-01  1.1350326225138D+00
49  4.8000000000000D-01  9.6809088092847D-01  1.1759808279724D+00
50  4.9000000000000D-01  9.3608442407290D-01  1.2155445750263D+00
51  5.0000000000000D-01  9.0067494969002D-01  1.2534578639651D+00
52  5.1000000000000D-01  8.6154722139987D-01  1.2894654638014D+00
53  5.2000000000000D-01  8.1842394436509D-01  1.3233265051810D+00
54  5.3000000000000D-01  7.7107391699230D-01  1.3548175824430D+00
55  5.4000000000000D-01  7.1931830992486D-01  1.3837351536564D+00
56  5.5000000000000D-01  6.6303995394972D-01  1.4098992314511D+00
57  5.6000000000000D-01  6.0218597117806D-01  1.4331544319844D+00
58  5.7000000000000D-01  5.3677527410767D-01  1.4533730990962D+00
59  5.8000000000000D-01  4.6689931319274D-01  1.4704557595170D+00
60  5.9000000000000D-01  3.9272709907700D-01  1.4843334462355D+00
61  6.0000000000000D-01  3.1450255986066D-01  1.4949669366267D+00
62  6.1000000000000D-01  2.3254797755282D-01  1.5023486962406D+00
63  6.2000000000000D-01  1.4725862952803D-01  1.5065011784981D+00
64  6.3000000000000D-01  5.9101269712712D-02  1.5074769206028D+00
65  6.4000000000000D-01 -3.1390369844239D-02  1.5053575215039D+00
66  6.5000000000000D-01 -1.2362240733070D-01  1.5002516005657D+00
67  6.6000000000000D-01 -2.1694700358543D-01  1.4922932804642D+00
68  6.7000000000000D-01 -3.1067061104803D-01  1.4816399118682D+00
69  6.8000000000000D-01 -4.0406324188580D-01  1.4684692140527D+00
70  6.9000000000000D-01 -4.9636776693059D-01  1.4529765510955D+00
71  7.0000000000000D-01 -5.8681078078734D-01  1.4353717925860D+00
72  7.1000000000000D-01 -6.7461371467696D-01  1.4158758866523D+00
73  7.2000000000000D-01 -7.5900354549914D-01  1.3947174941958D+00
74  7.3000000000000D-01 -8.3922422270526D-01  1.3721294683789D+00
75  7.4000000000000D-01 -9.1454788408478D-01  1.3483453216445D+00
76  7.5000000000000D-01 -9.8428489462061D-01  1.3235959780001D+00
77  7.6000000000000D-01 -1.0477969949879D+00  1.2981056830739D+00
78  7.7000000000000D-01 -1.1045047764746D+00  1.2720893804766D+00
79  7.8000000000000D-01 -1.1538972782983D+00  1.2457495566478D+00
80  7.9000000000000D-01 -1.1955401374332D+00  1.2192734638024D+00
81  8.0000000000000D-01 -1.2290825655568D+00  1.1928306664514D+00
82  8.1000000000000D-01 -1.2542630984477D+00  1.1665709335946D+00
83  8.2000000000000D-01 -1.2709140144001D+00  1.1406225105983D+00
84  8.3000000000000D-01 -1.2789643406351D+00  1.1150907980727D+00
85  8.4000000000000D-01 -1.2784413904122D+00  1.0900574579499D+00
86  8.5000000000000D-01 -1.2694707981498D+00  1.0655799595646D+00
87  8.6000000000000D-01 -1.2522750449972D+00  1.0416915709634D+00
88  8.7000000000000D-01 -1.2271704926017D+00  1.0184017930286D+00
89  8.8000000000000D-01 -1.1945629679831D+00  9.9569722638709D-01
90  8.9000000000000D-01 -1.1549419671543D+00  9.7354285357967D-01
91  9.0000000000000D-01 -1.1088735691168D+00  9.5188371167978D-01
92  9.1000000000000D-01 -1.0569921747829D+00  9.3064692357236D-01
93  9.2000000000000D-01 -9.9999120683584D-01  9.0974404954912D-01
94  9.3000000000000D-01 -9.3861292605854D-01  8.8907371488839D-01
95  9.4000000000000D-01 -8.7363753664414D-01  8.6852446384255D-01
96  9.5000000000000D-01 -8.0587238191905D-01  8.4797768595140D-01
97  9.6000000000000D-01 -7.3613948407875D-01  8.2731079887333D-01
98  9.7000000000000D-01 -6.6526283359765D-01  8.0640071840639D-01
99  9.8000000000000D-01 -5.9405739691844D-01  7.8512691721329D-01
100  9.9000000000000D-01 -5.2331720578006D-01  7.6337461951424D-01
101  1.0000000000000D+00 -4.5380417477741D-01  7.4103785122605D-01
102  1.0100000000000D+00 -3.8623758710551D-01  7.1802231229494D-01
103  1.0200000000000D+00 -3.2128779355273D-01  6.9424720793747D-01
104  1.0300000000000D+00 -2.5955977774210D-01  6.6964946429834D-01
105  1.0400000000000D+00 -2.0158703380419D-01  6.4418549935114D-01
106  1.0500000000000D+00 -1.4782922608388D-01  6.1783195415119D-01
107  1.0600000000000D+00 -9.8665332153985D-02  5.9058746088467D-01
108  1.0700000000000D+00 -5.4393744385409D-02  5.6247267219733D-01
109  1.0800000000000D+00 -1.5222470811696D-02  5.3353267023790D-01
110  1.0900000000000D+00  1.8735289514032D-02  5.0383795076098D-01
111  1.1000000000000D+00  4.7448568509175D-02  4.7348119945474D-01
112  1.1100000000000D+00  7.0970116986001D-02  4.4257746146109D-01
113  1.1200000000000D+00  8.9429017980778D-02  4.1126223323349D-01
114  1.1300000000000D+00  1.0304701530590D-01  3.7969472519640D-01
115  1.1400000000000D+00  1.1210723236640D-01  3.4805008018931D-01
116  1.1500000000000D+00  1.1695404312794D-01  3.1651894534741D-01
117  1.1600000000000D+00  1.1798757835673D-01  2.8530589838172D-01
118  1.1700000000000D+00  1.1565954351216D-01  2.5462682672710D-01
119  1.1800000000000D+00  1.1045086633073D-01  2.2470383735290D-01
120  1.1900000000000D+00  1.0286980089474D-01  1.9576462757108D-01
121  1.2000000000000D+00  9.3440918128292D-02  1.6803790992712D-01
122  1.2100000000000D+00  8.2686848741083D-02  1.4174852119801D-01
123  1.2200000000000D+00  7.1126845197973D-02  1.1711772703302D-01
124  1.2300000000000D+00  5.9267753845797D-02  9.4359913291538D-02
125  1.2400000000000D+00  4.7572453000900D-02  7.3672105460831D-02
126  1.2500000000000D+00  3.6476187557991D-02  5.5240604244063D-02
127  1.2600000000000D+00  2.6380712941957D-02  3.9238810847107D-02
128  1.2700000000000D+00  1.7603057985819D-02  2.5810000729555D-02
129  1.2800000000000D+00  1.0420145665319D-02  1.5083058728216D-02
130  1.2900000000000D+00  5.0552853499582D-03  7.1677801043509D-03
131  1.3000000000000D+00  1.7122697822691D-03  2.2621366576237D-03
132  1.3100000000000D+00  2.9196054535189D-04  1.7426564894012D-04
133  1.3200000000000D+00 -8.0021666997979D-05 -2.4033457242324D-04
134  1.3300000000000D+00 -6.0865660060677D-06  5.5255632026583D-07
135  1.3400000000000D+00 -6.0940502202107D-06  5.5323575918473D-07
136  1.3500000000000D+00  0.0000000000000D+00  0.0000000000000D+00
137  1.3600000000000D+00  0.0000000000000D+00  0.0000000000000D+00
138  1.3700000000000D+00  0.0000000000000D+00  0.0000000000000D+00
139  1.3800000000000D+00  0.0000000000000D+00  0.0000000000000D+00
140  1.3900000000000D+00  0.0000000000000D+00  0.0000000000000D+00
141  1.4000000000000D+00  0.0000000000000D+00  0.0000000000000D+00
142  1.4100000000000D+00  0.0000000000000D+00  0.0000000000000D+00
143  1.4200000000000D+00  0.0000000000000D+00  0.0000000000000D+00
144  1.4300000000000D+00  0.0000000000000D+00  0.0000000000000D+00
145  1.4400000000000D+00  0.0000000000000D+00  0.0000000000000D+00
146  1.4500000000000D+00  0.0000000000000D+00  0.0000000000000D+00
147  1.4600000000000D+00  0.0000000000000D+00  0.0000000000000D+00
148  1.4700000000000D+00  0.0000000000000D+00  0.0000000000000D+00
149  1.4800000000000D+00  0.0000000000000D+00  0.0000000000000D+00
150  1.4900000000000D+00  0.0000000000000D+00  0.0000000000000D+00
151  1.5000000000000D+00  0.0000000000000D+00  0.0000000000000D+00
152  1.5100000000000D+00  0.0000000000000D+00  0.0000000000000D+00
153  1.5200000000000D+00  0.0000000000000D+00  0.0000000000000D+00
154  1.5300000000000D+00  0.0000000000000D+00  0.0000000000000D+00
155  1.5400000000000D+00  0.0000000000000D+00  0.0000000000000D+00
156  1.5500000000000D+00  0.0000000000000D+00  0.0000000000000D+00
157  1.5600000000000D+00  0.0000000000000D+00  0.0000000000000D+00
158  1.5700000000000D+00  0.0000000000000D+00  0.0000000000000D+00
159  1.5800000000000D+00  0.0000000000000D+00  0.0000000000000D+00
160  1.5900000000000D+00  0.0000000000000D+00  0.0000000000000D+00
161  1.6000000000000D+00  0.0000000000000D+00  0.0000000000000D+00
162  1.6100000000000D+00  0.0000000000000D+00  0.0000000000000D+00
163  1.6200000000000D+00  0.0000000000000D+00  0.0000000000000D+00
164  1.6300000000000D+00  0.0000000000000D+00  0.0000000000000D+00
165  1.6400000000000D+00  0.0000000000000D+00  0.0000000000000D+00
166  1.6500000000000D+00  0.0000000000000D+00  0.0000000000000D+00
167  1.6600000000000D+00  0.0000000000000D+00  0.0000000000000D+00
168  1.6700000000000D+00  0.0000000000000D+00  0.0000000000000D+00
169  1.6800000000000D+00  0.0000000000000D+00  0.0000000000000D+00
170  1.6900000000000D+00  0.0000000000000D+00  0.0000000000000D+00
171  1.7000000000000D+00  0.0000000000000D+00  0.0000000000000D+00
172  1.7100000000000D+00  0.0000000000000D+00  0.0000000000000D+00
173  1.7200000000000D+00  0.0000000000000D+00  0.0000000000000D+00
174  1.7300000000000D+00  0.0000000000000D+00  0.0000000000000D+00
175  1.7400000000000D+00  0.0000000000000D+00  0.0000000000000D+00
176  1.7500000000000D+00  0.0000000000000D+00  0.0000000000000D+00
177  1.7600000000000D+00  0.0000000000000D+00  0.0000000000000D+00
178  1.7700000000000D+00  0.0000000000000D+00  0.0000000000000D+00
179  1.7800000000000D+00  0.0000000000000D+00  0.0000000000000D+00
180  1.7900000000000D+00  0.0000000000000D+00  0.0000000000000D+00
181  1.8000000000000D+00  0.0000000000000D+00  0.0000000000000D+00
182  1.8100000000000D+00  0.0000000000000D+00  0.0000000000000D+00
183  1.8200000000000D+00  0.0000000000000D+00  0.0000000000000D+00
184  1.8300000000000D+00  0.0000000000000D+00  0.0000000000000D+00
185  1.8400000000000D+00  0.0000000000000D+00  0.0000000000000D+00
186  1.8500000000000D+00  0.0000000000000D+00  0.0000000000000D+00
187  1.8600000000000D+00  0.0000000000000D+00  0.0000000000000D+00
188  1.8700000000000D+00  0.0000000000000D+00  0.0000000000000D+00
189  1.8800000000000D+00  0.0000000000000D+00  0.0000000000000D+00
190  1.8900000000000D+00  0.0000000000000D+00  0.0000000000000D+00
191  1.9000000000000D+00  0.0000000000000D+00  0.0000000000000D+00
192  1.9100000000000D+00  0.0000000000000D+00  0.0000000000000D+00
193  1.9200000000000D+00  0.0000000000000D+00  0.0000000000000D+00
194  1.9300000000000D+00  0.0000000000000D+00  0.0000000000000D+00
195  1.9400000000000D+00  0.0000000000000D+00  0.0000000000000D+00
196  1.9500000000000D+00  0.0000000000000D+00  0.0000000000000D+00
197  1.9600000000000D+00  0.0000000000000D+00  0.0000000000000D+00
198  1.9700000000000D+00  0.0000000000000D+00  0.0000000000000D+00
199  1.9800000000000D+00  0.0000000000000D+00  0.0000000000000D+00
200  1.9900000000000D+00  0.0000000000000D+00  0.0000000000000D+00
201  2.0000000000000D+00  0.0000000000000D+00  0.0000000000000D+00
202  2.0100000000000D+00  0.0000000000000D+00  0.0000000000000D+00
203  2.0200000000000D+00  0.0000000000000D+00  0.0000000000000D+00
204  2.0300000000000D+00  0.0000000000000D+00  0.0000000000000D+00
205  2.0400000000000D+00  0.0000000000000D+00  0.0000000000000D+00
206  2.0500000000000D+00  0.0000000000000D+00  0.0000000000000D+00
207  2.0600000000000D+00  0.0000000000000D+00  0.0000000000000D+00
208  2.0700000000000D+00  0.0000000000000D+00  0.0000000000000D+00
209  2.0800000000000D+00  0.0000000000000D+00  0.0000000000000D+00
210  2.0900000000000D+00  0.0000000000000D+00  0.0000000000000D+00
211  2.1000000000000D+00  0.0000000000000D+00  0.0000000000000D+00
212  2.1100000000000D+00  0.0000000000000D+00  0.0000000000000D+00
213  2.1200000000000D+00  0.0000000000000D+00  0.0000000000000D+00
214  2.1300000000000D+00  0.0000000000000D+00  0.0000000000000D+00
215  2.1400000000000D+00  0.0000000000000D+00  0.0000000000000D+00
216  2.1500000000000D+00  0.0000000000000D+00  0.0000000000000D+00
217  2.1600000000000D+00  0.0000000000000D+00  0.0000000000000D+00
218  2.1700000000000D+00  0.0000000000000D+00  0.0000000000000D+00
219  2.1800000000000D+00  0.0000000000000D+00  0.0000000000000D+00
220  2.1900000000000D+00  0.0000000000000D+00  0.0000000000000D+00
221  2.2000000000000D+00  0.0000000000000D+00  0.0000000000000D+00
222  2.2100000000000D+00  0.0000000000000D+00  0.0000000000000D+00
223  2.2200000000000D+00  0.0000000000000D+00  0.0000000000000D+00
224  2.2300000000000D+00  0.0000000000000D+00  0.0000000000000D+00
225  2.2400000000000D+00  0.0000000000000D+00  0.0000000000000D+00
226  2.2500000000000D+00  0.0000000000000D+00  0.0000000000000D+00
227  2.2600000000000D+00  0.0000000000000D+00  0.0000000000000D+00
228  2.2700000000000D+00  0.0000000000000D+00  0.0000000000000D+00
229  2.2800000000000D+00  0.0000000000000D+00  0.0000000000000D+00
230  2.2900000000000D+00  0.0000000000000D+00  0.0000000000000D+00
231  2.3000000000000D+00  0.0000000000000D+00  0.0000000000000D+00
232  2.3100000000000D+00  0.0000000000000D+00  0.0000000000000D+00
233  2.3200000000000D+00  0.0000000000000D+00  0.0000000000000D+00
234  2.3300000000000D+00  0.0000000000000D+00  0.0000000000000D+00
235  2.3400000000000D+00  0.0000000000000D+00  0.0000000000000D+00
236  2.3500000000000D+00  0.0000000000000D+00  0.0000000000000D+00
237  2.3600000000000D+00  0.0000000000000D+00  0.0000000000000D+00
238  2.3700000000000D+00  0.0000000000000D+00  0.0000000000000D+00
239  2.3800000000000D+00  0.0000000000000D+00  0.0000000000000D+00
240  2.3900000000000D+00  0.0000000000000D+00  0.0000000000000D+00
241  2.4000000000000D+00  0.0000000000000D+00  0.0000000000000D+00
242  2.4100000000000D+00  0.0000000000000D+00  0.0000000000000D+00
243  2.4200000000000D+00  0.0000000000000D+00  0.0000000000000D+00
244  2.4300000000000D+00  0.0000000000000D+00  0.0000000000000D+00
245  2.4400000000000D+00  0.0000000000000D+00  0.0000000000000D+00
246  2.4500000000000D+00  0.0000000000000D+00  0.0000000000000D+00
247  2.4600000000000D+00  0.0000000000000D+00  0.0000000000000D+00
248  2.4700000000000D+00  0.0000000000000D+00  0.0000000000000D+00
249  2.4800000000000D+00  0.0000000000000D+00  0.0000000000000D+00
250  2.4900000000000D+00  0.0000000000000D+00  0.0000000000000D+00
251  2.5000000000000D+00  0.0000000000000D+00  0.0000000000000D+00
252  2.5100000000000D+00  0.0000000000000D+00  0.0000000000000D+00
253  2.5200000000000D+00  0.0000000000000D+00  0.0000000000000D+00
254  2.5300000000000D+00  0.0000000000000D+00  0.0000000000000D+00
255  2.5400000000000D+00  0.0000000000000D+00  0.0000000000000D+00
256  2.5500000000000D+00  0.0000000000000D+00  0.0000000000000D+00
257  2.5600000000000D+00  0.0000000000000D+00  0.0000000000000D+00
258  2.5700000000000D+00  0.0000000000000D+00  0.0000000000000D+00
259  2.5800000000000D+00  0.0000000000000D+00  0.0000000000000D+00
260  2.5900000000000D+00  0.0000000000000D+00  0.0000000000000D+00
261  2.6000000000000D+00  0.0000000000000D+00  0.0000000000000D+00
262  2.6100000000000D+00  0.0000000000000D+00  0.0000000000000D+00
263  2.6200000000000D+00  0.0000000000000D+00  0.0000000000000D+00
264  2.6300000000000D+00  0.0000000000000D+00  0.0000000000000D+00
265  2.6400000000000D+00  0.0000000000000D+00  0.0000000000000D+00
266  2.6500000000000D+00  0.0000000000000D+00  0.0000000000000D+00
267  2.6600000000000D+00  0.0000000000000D+00  0.0000000000000D+00
268  2.6700000000000D+00  0.0000000000000D+00  0.0000000000000D+00
269  2.6800000000000D+00  0.0000000000000D+00  0.0000000000000D+00
270  2.6900000000000D+00  0.0000000000000D+00  0.0000000000000D+00
271  2.7000000000000D+00  0.0000000000000D+00  0.0000000000000D+00
272  2.7100000000000D+00  0.0000000000000D+00  0.0000000000000D+00
273  2.7200000000000D+00  0.0000000000000D+00  0.0000000000000D+00
274  2.7300000000000D+00  0.0000000000000D+00  0.0000000000000D+00
275  2.7400000000000D+00  0.0000000000000D+00  0.0000000000000D+00
276  2.7500000000000D+00  0.0000000000000D+00  0.0000000000000D+00
277  2.7600000000000D+00  0.0000000000000D+00  0.0000000000000D+00
278  2.7700000000000D+00  0.0000000000000D+00  0.0000000000000D+00
279  2.7800000000000D+00  0.0000000000000D+00  0.0000000000000D+00
280  2.7900000000000D+00  0.0000000000000D+00  0.0000000000000D+00
281  2.8000000000000D+00  0.0000000000000D+00  0.0000000000000D+00
282  2.8100000000000D+00  0.0000000000000D+00  0.0000000000000D+00
283  2.8200000000000D+00  0.0000000000000D+00  0.0000000000000D+00
284  2.8300000000000D+00  0.0000000000000D+00  0.0000000000000D+00
285  2.8400000000000D+00  0.0000000000000D+00  0.0000000000000D+00
286  2.8500000000000D+00  0.0000000000000D+00  0.0000000000000D+00
287  2.8600000000000D+00  0.0000000000000D+00  0.0000000000000D+00
288  2.8700000000000D+00  0.0000000000000D+00  0.0000000000000D+00
289  2.8800000000000D+00  0.0000000000000D+00  0.0000000000000D+00
290  2.8900000000000D+00  0.0000000000000D+00  0.0000000000000D+00
291  2.9000000000000D+00  0.0000000000000D+00  0.0000000000000D+00
292  2.9100000000000D+00  0.0000000000000D+00  0.0000000000000D+00
293  2.9200000000000D+00  0.0000000000000D+00  0.0000000000000D+00
294  2.9300000000000D+00  0.0000000000000D+00  0.0000000000000D+00
295  2.9400000000000D+00  0.0000000000000D+00  0.0000000000000D+00
296  2.9500000000000D+00  0.0000000000000D+00  0.0000000000000D+00
297  2.9600000000000D+00  0.0000000000000D+00  0.0000000000000D+00
298  2.9700000000000D+00  0.0000000000000D+00  0.0000000000000D+00
299  2.9800000000000D+00  0.0000000000000D+00  0.0000000000000D+00
300  2.9900000000000D+00  0.0000000000000D+00  0.0000000000000D+00
301  3.0000000000000D+00  0.0000000000000D+00  0.0000000000000D+00
302  3.0100000000000D+00  0.0000000000000D+00  0.0000000000000D+00
303  3.0200000000000D+00  0.0000000000000D+00  0.0000000000000D+00
304  3.0300000000000D+00  0.0000000000000D+00  0.0000000000000D+00
305  3.0400000000000D+00  0.0000000000000D+00  0.0000000000000D+00
306  3.0500000000000D+00  0.0000000000000D+00  0.0000000000000D+00
307  3.0600000000000D+00  0.0000000000000D+00  0.0000000000000D+00
308  3.0700000000000D+00  0.0000000000000D+00  0.0000000000000D+00
309  3.0800000000000D+00  0.0000000000000D+00  0.0000000000000D+00
310  3.0900000000000D+00  0.0000000000000D+00  0.0000000000000D+00
311  3.1000000000000D+00  0.0000000000000D+00  0.0000000000000D+00
312  3.1100000000000D+00  0.0000000000000D+00  0.0000000000000D+00
313  3.1200000000000D+00  0.0000000000000D+00  0.0000000000000D+00
314  3.1300000000000D+00  0.0000000000000D+00  0.0000000000000D+00
315  3.1400000000000D+00  0.0000000000000D+00  0.0000000000000D+00
316  3.1500000000000D+00  0.0000000000000D+00  0.0000000000000D+00
317  3.1600000000000D+00  0.0000000000000D+00  0.0000000000000D+00
318  3.1700000000000D+00  0.0000000000000D+00  0.0000000000000D+00
319  3.1800000000000D+00  0.0000000000000D+00  0.0000000000000D+00
320  3.1900000000000D+00  0.0000000000000D+00  0.0000000000000D+00
321  3.2000000000000D+00  0.0000000000000D+00  0.0000000000000D+00
322  3.2100000000000D+00  0.0000000000000D+00  0.0000000000000D+00
323  3.2200000000000D+00  0.0000000000000D+00  0.0000000000000D+00
324  3.2300000000000D+00  0.0000000000000D+00  0.0000000000000D+00
325  3.2400000000000D+00  0.0000000000000D+00  0.0000000000000D+00
326  3.2500000000000D+00  0.0000000000000D+00  0.0000000000000D+00
327  3.2600000000000D+00  0.0000000000000D+00  0.0000000000000D+00
328  3.2700000000000D+00  0.0000000000000D+00  0.0000000000000D+00
329  3.2800000000000D+00  0.0000000000000D+00  0.0000000000000D+00
330  3.2900000000000D+00  0.0000000000000D+00  0.0000000000000D+00
331  3.3000000000000D+00  0.0000000000000D+00  0.0000000000000D+00
332  3.3100000000000D+00  0.0000000000000D+00  0.0000000000000D+00
333  3.3200000000000D+00  0.0000000000000D+00  0.0000000000000D+00
334  3.3300000000000D+00  0.0000000000000D+00  0.0000000000000D+00
335  3.3400000000000D+00  0.0000000000000D+00  0.0000000000000D+00
336  3.3500000000000D+00  0.0000000000000D+00  0.0000000000000D+00
337  3.3600000000000D+00  0.0000000000000D+00  0.0000000000000D+00
338  3.3700000000000D+00  0.0000000000000D+00  0.0000000000000D+00
339  3.3800000000000D+00  0.0000000000000D+00  0.0000000000000D+00
340  3.3900000000000D+00  0.0000000000000D+00  0.0000000000000D+00
341  3.4000000000000D+00  0.0000000000000D+00  0.0000000000000D+00
342  3.4100000000000D+00  0.0000000000000D+00  0.0000000000000D+00
343  3.4200000000000D+00  0.0000000000000D+00  0.0000000000000D+00
344  3.4300000000000D+00  0.0000000000000D+00  0.0000000000000D+00
345  3.4400000000000D+00  0.0000000000000D+00  0.0000000000000D+00
346  3.4500000000000D+00  0.0000000000000D+00  0.0000000000000D+00
347  3.4600000000000D+00  0.0000000000000D+00  0.0000000000000D+00
348  3.4700000000000D+00  0.0000000000000D+00  0.0000000000000D+00
349  3.4800000000000D+00  0.0000000000000D+00  0.0000000000000D+00
350  3.4900000000000D+00  0.0000000000000D+00  0.0000000000000D+00
351  3.5000000000000D+00  0.0000000000000D+00  0.0000000000000D+00
352  3.5100000000000D+00  0.0000000000000D+00  0.0000000000000D+00
353  3.5200000000000D+00  0.0000000000000D+00  0.0000000000000D+00
354  3.5300000000000D+00  0.0000000000000D+00  0.0000000000000D+00
355  3.5400000000000D+00  0.0000000000000D+00  0.0000000000000D+00
356  3.5500000000000D+00  0.0000000000000D+00  0.0000000000000D+00
357  3.5600000000000D+00  0.0000000000000D+00  0.0000000000000D+00
358  3.5700000000000D+00  0.0000000000000D+00  0.0000000000000D+00
359  3.5800000000000D+00  0.0000000000000D+00  0.0000000000000D+00
360  3.5900000000000D+00  0.0000000000000D+00  0.0000000000000D+00
361  3.6000000000000D+00  0.0000000000000D+00  0.0000000000000D+00
362  3.6100000000000D+00  0.0000000000000D+00  0.0000000000000D+00
363  3.6200000000000D+00  0.0000000000000D+00  0.0000000000000D+00
364  3.6300000000000D+00  0.0000000000000D+00  0.0000000000000D+00
365  3.6400000000000D+00  0.0000000000000D+00  0.0000000000000D+00
366  3.6500000000000D+00  0.0000000000000D+00  0.0000000000000D+00
367  3.6600000000000D+00  0.0000000000000D+00  0.0000000000000D+00
368  3.6700000000000D+00  0.0000000000000D+00  0.0000000000000D+00
369  3.6800000000000D+00  0.0000000000000D+00  0.0000000000000D+00
370  3.6900000000000D+00  0.0000000000000D+00  0.0000000000000D+00
371  3.7000000000000D+00  0.0000000000000D+00  0.0000000000000D+00
372  3.7100000000000D+00  0.0000000000000D+00  0.0000000000000D+00
373  3.7200000000000D+00  0.0000000000000D+00  0.0000000000000D+00
374  3.7300000000000D+00  0.0000000000000D+00  0.0000000000000D+00
375  3.7400000000000D+00  0.0000000000000D+00  0.0000000000000D+00
376  3.7500000000000D+00  0.0000000000000D+00  0.0000000000000D+00
377  3.7600000000000D+00  0.0000000000000D+00  0.0000000000000D+00
378  3.7700000000000D+00  0.0000000000000D+00  0.0000000000000D+00
379  3.7800000000000D+00  0.0000000000000D+00  0.0000000000000D+00
380  3.7900000000000D+00  0.0000000000000D+00  0.0000000000000D+00
381  3.8000000000000D+00  0.0000000000000D+00  0.0000000000000D+00
382  3.8100000000000D+00  0.0000000000000D+00  0.0000000000000D+00
383  3.8200000000000D+00  0.0000000000000D+00  0.0000000000000D+00
384  3.8300000000000D+00  0.0000000000000D+00  0.0000000000000D+00
385  3.8400000000000D+00  0.0000000000000D+00  0.0000000000000D+00
386  3.8500000000000D+00  0.0000000000000D+00  0.0000000000000D+00
387  3.8600000000000D+00  0.0000000000000D+00  0.0000000000000D+00
388  3.8700000000000D+00  0.0000000000000D+00  0.0000000000000D+00
389  3.8800000000000D+00  0.0000000000000D+00  0.0000000000000D+00
390  3.8900000000000D+00  0.0000000000000D+00  0.0000000000000D+00
391  3.9000000000000D+00  0.0000000000000D+00  0.0000000000000D+00
392  3.9100000000000D+00  0.0000000000000D+00  0.0000000000000D+00
393  3.9200000000000D+00  0.0000000000000D+00  0.0000000000000D+00
394  3.9300000000000D+00  0.0000000000000D+00  0.0000000000000D+00
395  3.9400000000000D+00  0.0000000000000D+00  0.0000000000000D+00
396  3.9500000000000D+00  0.0000000000000D+00  0.0000000000000D+00
397  3.9600000000000D+00  0.0000000000000D+00  0.0000000000000D+00
398  3.9700000000000D+00  0.0000000000000D+00  0.0000000000000D+00
399  3.9800000000000D+00  0.0000000000000D+00  0.0000000000000D+00
400  3.9900000000000D+00  0.0000000000000D+00  0.0000000000000D+00
401  4.0000000000000D+00  0.0000000000000D+00  0.0000000000000D+00
1                        -6.6356476335778D+00 -2.0925131064326D+00
1  0.0000000000000D+00  0.0000000000000D+00  0.0000000000000D+00
2  1.0000000000000D-02  2.1456742665357D-03  9.3304729295910D-04
3  2.0000000000000D-02  8.5723430663323D-03  3.7241269376375D-03
4  3.0000000000000D-02  1.9248988624060D-02  8.3490956702317D-03
5  4.0000000000000D-02  3.4124061948822D-02  1.4767859375158D-02
6  5.0000000000000D-02  5.3125703391739D-02  2.2924589585477D-02
7  6.0000000000000D-02  7.6162050634046D-02  3.2748025609285D-02
8  7.0000000000000D-02  1.0312163330543D-01  4.4151861303108D-02
9  8.0000000000000D-02  1.3387385319107D-01  5.7035215224364D-02
10  9.0000000000000D-02  1.6826954873913D-01  7.1283182603874D-02
11  1.0000000000000D-01  2.0614164232028D-01  8.6767467277874D-02
12  1.1000000000000D-01  2.4730586842281D-01  1.0334709141318D-01
13  1.2000000000000D-01  2.9156158068884D-01  1.2086918054756D-01
14  1.3000000000000D-01  3.3869263540949D-01  1.3916982115008D-01
15  1.4000000000000D-01  3.8846834875518D-01  1.5807498754188D-01
16  1.5000000000000D-01  4.4064452480669D-01  1.7740153478204D-01
17  1.6000000000000D-01  4.9496455092547D-01  1.9695825359126D-01
18  1.7000000000000D-01  5.5116055697695D-01  2.1654698333450D-01
19  1.8000000000000D-01  6.0895463415639D-01  2.3596377833742D-01
20  1.9000000000000D-01  6.6806010934301D-01  2.5500012295377D-01
21  2.0000000000000D-01  7.2818286972656D-01  2.7344418968442D-01
22  2.1000000000000D-01  7.8902273368240D-01  2.9108213575556D-01
23  2.2000000000000D-01  8.5027486096537D-01  3.0769943088784D-01
24  2.3000000000000D-01  9.1163119779173D-01  3.2308221125372D-01
25  2.4000000000000D-01  9.7278194953384D-01  3.3701865203785D-01
26  2.5000000000000D-01  1.0334170766128D+00  3.4930035348799D-01
27  2.6000000000000D-01  1.0932278026022D+00  3.5972372969678D-01
28  2.7000000000000D-01  1.1519081338514D+00  3.6809139807061D-01
29  2.8000000000000D-01  1.2091563764526D+00  3.7421355607008D-01
30  2.9000000000000D-01  1.2646766480563D+00  3.7790934157276D-01
31  3.0000000000000D-01  1.3181803745064D+00  3.7900816689875D-01
32  3.1000000000000D-01  1.3693877637456D+00  3.7735101862887D-01
33  3.2000000000000D-01  1.4180292485185D+00  3.7279171486307D-01
34  3.3000000000000D-01  1.4638468921836D+00  3.6519811254694D-01
35  3.4000000000000D-01  1.5065957445894D+00  3.5445325431199D-01
36  3.5000000000000D-01  1.5460451452727D+00  3.4045644941861D-01
37  3.6000000000000D-01  1.5819799625651D+00  3.2312427831586D-01
38  3.7000000000000D-01  1.6142017614021D+00  3.0239151317620D-01
39  3.8000000000000D-01  1.6425298942416D+00  2.7821195086082D-01
40  3.9000000000000D-01  1.6668025036002D+00  2.5055914206201D-01
41  4.0000000000000D-01  1.6868774316703D+00  2.1942701655599D-01
42  4.1000000000000D-01  1.7026330325478D+00  1.8483039932042D-01