Ne    ONCVPSP  r_core=  1.15  1.46
10.0000      8.0000      140817    zatom,zion,pspd
8    11     1     4   401     0    pspcod,pspxc,lmax,lloc,mmax,r2well
4.00000000  0.15000000  0.00000000    rchrg fchrg qchrg
2     2     0     0     0    nproj
0                 extension_switch
0                         4.3595049729308D+00 -2.3718368392224D-01
1  0.0000000000000D+00 -0.0000000000000D+00 -0.0000000000000D+00
2  1.0000000000000D-02 -1.0177739806998D-01 -4.2284777472867D-02
3  2.0000000000000D-02 -2.0325538040637D-01 -8.3561139196917D-02
4  3.0000000000000D-02 -3.0413474579777D-01 -1.2283914272416D-01
5  4.0000000000000D-02 -4.0411673788490D-01 -1.5916548803439D-01
6  5.0000000000000D-02 -5.0290330677287D-01 -1.9164108305243D-01
7  6.0000000000000D-02 -6.0019741673937D-01 -2.1943771548920D-01
8  7.0000000000000D-02 -6.9570341387652D-01 -2.4181355494774D-01
9  8.0000000000000D-02 -7.8912746622177D-01 -2.5812722727759D-01
10  9.0000000000000D-02 -8.8017808738226D-01 -2.6785022572444D-01
11  1.0000000000000D-01 -9.6856675283571D-01 -2.7057744905946D-01
12  1.1000000000000D-01 -1.0540086160555D+00 -2.6603568638674D-01
13  1.2000000000000D-01 -1.1362233293908D+00 -2.5408990057635D-01
14  1.3000000000000D-01 -1.2149359722792D+00 -2.3474719671379D-01
15  1.4000000000000D-01 -1.2898780866629D+00 -2.0815839757016D-01
16  1.5000000000000D-01 -1.3607888175008D+00 -1.7461718836599D-01
17  1.6000000000000D-01 -1.4274161525322D+00 -1.3455682786364D-01
18  1.7000000000000D-01 -1.4895182546908D+00 -8.8544464670771D-02
19  1.8000000000000D-01 -1.5468648755352D+00 -3.7273134992386D-02
20  1.9000000000000D-01 -1.5992388389214D+00  1.8448449201528D-02
21  2.0000000000000D-01 -1.6464375764496D+00  7.7708156306297D-02
22  2.1000000000000D-01 -1.6882747049595D+00  1.3950459415017D-01
23  2.2000000000000D-01 -1.7245816169275D+00  2.0276289912056D-01
24  2.3000000000000D-01 -1.7552090727309D+00  2.6635197065656D-01
25  2.4000000000000D-01 -1.7800287647119D+00  3.2910282327313D-01
26  2.5000000000000D-01 -1.7989348460151D+00  3.8982792099554D-01
27  2.6000000000000D-01 -1.8118453679928D+00  4.4734086491957D-01
28  2.7000000000000D-01 -1.8187036525988D+00  5.0047663715453D-01
29  2.8000000000000D-01 -1.8194795218572D+00  5.4811150812598D-01
30  2.9000000000000D-01 -1.8141704017831D+00  5.8918272123390D-01
31  3.0000000000000D-01 -1.8028022605134D+00  6.2270744726632D-01
32  3.1000000000000D-01 -1.7854303626298D+00  6.4780072997725D-01
33  3.2000000000000D-01 -1.7621398144079D+00  6.6369201159787D-01
34  3.3000000000000D-01 -1.7330459110496D+00  6.6974047302292D-01
35  3.4000000000000D-01 -1.6982942158160D+00  6.6544798123566D-01
36  3.5000000000000D-01 -1.6580604148862D+00  6.5047035127699D-01
37  3.6000000000000D-01 -1.6125499072845D+00  6.2462627368633D-01
38  3.7000000000000D-01 -1.5619971301495D+00  5.8790385209235D-01
39  3.8000000000000D-01 -1.5066646112538D+00  5.4046423989083D-01
40  3.9000000000000D-01 -1.4468417628246D+00  4.8264319878220D-01
41  4.0000000000000D-01 -1.3828433985856D+00  4.1494957806380D-01
42  4.1000000000000D-01 -1.3150080007570D+00  3.3806105195891D-01
43  4.2000000000000D-01 -1.2436957361436D+00  2.5281734554140D-01
44  4.3000000000000D-01 -1.1692862371963D+00  1.6021078380611D-01
45  4.4000000000000D-01 -1.0921761653432D+00  6.1374340684737D-02
46  4.5000000000000D-01 -1.0127765768688D+00 -4.2432657819933D-02
47  4.6000000000000D-01 -9.3151011501939D-01 -1.4984098382349D-01
48  4.7000000000000D-01 -8.4880807348563D-01 -2.5938981199592D-01
49  4.8000000000000D-01 -7.6510733340340D-01 -3.6954664970861D-01
50  4.9000000000000D-01 -6.8084708839671D-01 -4.7872923221022D-01
51  5.0000000000000D-01 -5.9646572860788D-01 -5.8532767327339D-01
52  5.1000000000000D-01 -5.1239770054400D-01 -6.8772706360393D-01
53  5.2000000000000D-01 -4.2907002171705D-01 -7.8433232779598D-01
54  5.3000000000000D-01 -3.4689912976414D-01 -8.7359190459757D-01
55  5.4000000000000D-01 -2.6628828549433D-01 -9.5401806676330D-01
56  5.5000000000000D-01 -1.8762352501559D-01 -1.0242157842752D+00
57  5.6000000000000D-01 -1.1127207822127D-01 -1.0828969251256D+00
58  5.7000000000000D-01 -3.7578497097476D-02 -1.1289078638559D+00
59  5.8000000000000D-01  3.3136647273611D-02 -1.1612409747909D+00
60  5.9000000000000D-01  1.0058029229433D-01 -1.1790595844898D+00
61  6.0000000000000D-01  1.6448716981703D-01 -1.1817016579433D+00
62  6.1000000000000D-01  2.2462351945892D-01 -1.1687049361341D+00
63  6.2000000000000D-01  2.8078662751264D-01 -1.1398042913453D+00
64  6.3000000000000D-01  3.3280682378355D-01 -1.0949442541082D+00
65  6.4000000000000D-01  3.8054841483885D-01 -1.0342837242803D+00
66  6.5000000000000D-01  4.2390922924940D-01 -9.5819093848885D-01
67  6.6000000000000D-01  4.6282130817545D-01 -8.6724484525475D-01
68  6.7000000000000D-01  4.9725084433737D-01 -7.6223049942268D-01
69  6.8000000000000D-01  5.2719697529695D-01 -6.4412663748791D-01
70  6.9000000000000D-01  5.5269100231337D-01 -5.1409514254287D-01
71  7.0000000000000D-01  5.7379554954589D-01 -3.7346857248807D-01
72  7.1000000000000D-01  5.9060286790303D-01 -2.2373193644585D-01
73  7.2000000000000D-01  6.0323289740798D-01 -6.6502782225278D-02
74  7.3000000000000D-01  6.1183137268270D-01  9.6489560161007D-02
75  7.4000000000000D-01  6.1656760382186D-01  2.6342706075780D-01
76  7.5000000000000D-01  6.1763209770779D-01  4.3242657560528D-01
77  7.6000000000000D-01  6.1523396828948D-01  6.0156796218716D-01
78  7.7000000000000D-01  6.0959821646926D-01  7.6891871079019D-01
79  7.8000000000000D-01  6.0096300669591D-01  9.3256088745676D-01
80  7.9000000000000D-01  5.8957686359529D-01  1.0906178255450D+00
81  8.0000000000000D-01  5.7569585825051D-01  1.2412803107974D+00
82  8.1000000000000D-01  5.5958082050547D-01  1.3828319276114D+00
83  8.2000000000000D-01  5.4149461269133D-01  1.5136731868124D+00
84  8.3000000000000D-01  5.2169949871884D-01  1.6323440729210D+00
85  8.4000000000000D-01  5.0045464055799D-01  1.7375446719988D+00
86  8.5000000000000D-01  4.7801375178256D-01  1.8281535692085D+00
87  8.6000000000000D-01  4.5462293513087D-01  1.9032437377952D+00
88  8.7000000000000D-01  4.3051872796461D-01  1.9620956778696D+00
89  8.8000000000000D-01  4.0592637612907D-01  2.0042076037737D+00
90  8.9000000000000D-01  3.8105835305955D-01  2.0293025226271D+00
91  9.0000000000000D-01  3.5611313706624D-01  2.0373320935761D+00
92  9.1000000000000D-01  3.3127425558712D-01  2.0284772070304D+00
93  9.2000000000000D-01  3.0670960085454D-01  2.0031452754013D+00
94  9.3000000000000D-01  2.8257101691268D-01  1.9619642810626D+00
95  9.4000000000000D-01  2.5899415330888D-01  1.9057736826972D+00
96  9.5000000000000D-01  2.3609889690228D-01  1.8356105649717D+00
97  9.6000000000000D-01  2.1398894411337D-01  1.7527000200535D+00
98  9.7000000000000D-01  1.9275266905916D-01  1.6584346813100D+00
99  9.8000000000000D-01  1.7246430975567D-01  1.5543528862205D+00
100  9.9000000000000D-01  1.5318472890786D-01  1.4421182608990D+00
101  1.0000000000000D+00  1.3496255600656D-01  1.3234962930450D+00
102  1.0100000000000D+00  1.1783545392035D-01  1.2003297559561D+00
103  1.0200000000000D+00  1.0183168739583D-01  1.0745164023807D+00
104  1.0300000000000D+00  8.6970828979234D-02  9.4797902260672D-01
105  1.0400000000000D+00  7.3265803707429D-02  8.2263619847533D-01
106  1.0500000000000D+00  6.0724521612780D-02  7.0038106977208D-01
107  1.0600000000000D+00  4.9351122256869D-02  5.8305585848369D-01
108  1.0700000000000D+00  3.9147249115611D-02  4.7243604450248D-01
109  1.0800000000000D+00  3.0113260617508D-02  3.7019788027495D-01
110  1.0900000000000D+00  2.2249822146010D-02  2.7788553359643D-01
111  1.1000000000000D+00  1.5558629253839D-02  1.9691655202897D-01
112  1.1100000000000D+00  1.0043172106703D-02  1.2856123011696D-01
113  1.1200000000000D+00  5.7088826031393D-03  7.3950987998710D-02
114  1.1300000000000D+00  2.5662092261882D-03  3.3958307016911D-02
115  1.1400000000000D+00  6.6732695209865D-04  9.7401757010509D-03
116  1.1500000000000D+00 -6.0889498563912D-05  4.4956447317947D-04
117  1.1600000000000D+00 -8.4544683712803D-05 -6.9369807435283D-04
118  1.1700000000000D+00  5.3969007219435D-06 -1.1709891360303D-05
119  1.1800000000000D+00  0.0000000000000D+00  0.0000000000000D+00
120  1.1900000000000D+00  0.0000000000000D+00  0.0000000000000D+00
121  1.2000000000000D+00  0.0000000000000D+00  0.0000000000000D+00
122  1.2100000000000D+00  0.0000000000000D+00  0.0000000000000D+00
123  1.2200000000000D+00  0.0000000000000D+00  0.0000000000000D+00
124  1.2300000000000D+00  0.0000000000000D+00  0.0000000000000D+00
125  1.2400000000000D+00  0.0000000000000D+00  0.0000000000000D+00
126  1.2500000000000D+00  0.0000000000000D+00  0.0000000000000D+00
127  1.2600000000000D+00  0.0000000000000D+00  0.0000000000000D+00
128  1.2700000000000D+00  0.0000000000000D+00  0.0000000000000D+00
129  1.2800000000000D+00  0.0000000000000D+00  0.0000000000000D+00
130  1.2900000000000D+00  0.0000000000000D+00  0.0000000000000D+00
131  1.3000000000000D+00  0.0000000000000D+00  0.0000000000000D+00
132  1.3100000000000D+00  0.0000000000000D+00  0.0000000000000D+00
133  1.3200000000000D+00  0.0000000000000D+00  0.0000000000000D+00
134  1.3300000000000D+00  0.0000000000000D+00  0.0000000000000D+00
135  1.3400000000000D+00  0.0000000000000D+00  0.0000000000000D+00
136  1.3500000000000D+00  0.0000000000000D+00  0.0000000000000D+00
137  1.3600000000000D+00  0.0000000000000D+00  0.0000000000000D+00
138  1.3700000000000D+00  0.0000000000000D+00  0.0000000000000D+00
139  1.3800000000000D+00  0.0000000000000D+00  0.0000000000000D+00
140  1.3900000000000D+00  0.0000000000000D+00  0.0000000000000D+00
141  1.4000000000000D+00  0.0000000000000D+00  0.0000000000000D+00
142  1.4100000000000D+00  0.0000000000000D+00  0.0000000000000D+00
143  1.4200000000000D+00  0.0000000000000D+00  0.0000000000000D+00
144  1.4300000000000D+00  0.0000000000000D+00  0.0000000000000D+00
145  1.4400000000000D+00  0.0000000000000D+00  0.0000000000000D+00
146  1.4500000000000D+00  0.0000000000000D+00  0.0000000000000D+00
147  1.4600000000000D+00  0.0000000000000D+00  0.0000000000000D+00
148  1.4700000000000D+00  0.0000000000000D+00  0.0000000000000D+00
149  1.4800000000000D+00  0.0000000000000D+00  0.0000000000000D+00
150  1.4900000000000D+00  0.0000000000000D+00  0.0000000000000D+00
151  1.5000000000000D+00  0.0000000000000D+00  0.0000000000000D+00
152  1.5100000000000D+00  0.0000000000000D+00  0.0000000000000D+00
153  1.5200000000000D+00  0.0000000000000D+00  0.0000000000000D+00
154  1.5300000000000D+00  0.0000000000000D+00  0.0000000000000D+00
155  1.5400000000000D+00  0.0000000000000D+00  0.0000000000000D+00
156  1.5500000000000D+00  0.0000000000000D+00  0.0000000000000D+00
157  1.5600000000000D+00  0.0000000000000D+00  0.0000000000000D+00
158  1.5700000000000D+00  0.0000000000000D+00  0.0000000000000D+00
159  1.5800000000000D+00  0.0000000000000D+00  0.0000000000000D+00
160  1.5900000000000D+00  0.0000000000000D+00  0.0000000000000D+00
161  1.6000000000000D+00  0.0000000000000D+00  0.0000000000000D+00
162  1.6100000000000D+00  0.0000000000000D+00  0.0000000000000D+00
163  1.6200000000000D+00  0.0000000000000D+00  0.0000000000000D+00
164  1.6300000000000D+00  0.0000000000000D+00  0.0000000000000D+00
165  1.6400000000000D+00  0.0000000000000D+00  0.0000000000000D+00
166  1.6500000000000D+00  0.0000000000000D+00  0.0000000000000D+00
167  1.6600000000000D+00  0.0000000000000D+00  0.0000000000000D+00
168  1.6700000000000D+00  0.0000000000000D+00  0.0000000000000D+00
169  1.6800000000000D+00  0.0000000000000D+00  0.0000000000000D+00
170  1.6900000000000D+00  0.0000000000000D+00  0.0000000000000D+00
171  1.7000000000000D+00  0.0000000000000D+00  0.0000000000000D+00
172  1.7100000000000D+00  0.0000000000000D+00  0.0000000000000D+00
173  1.7200000000000D+00  0.0000000000000D+00  0.0000000000000D+00
174  1.7300000000000D+00  0.0000000000000D+00  0.0000000000000D+00
175  1.7400000000000D+00  0.0000000000000D+00  0.0000000000000D+00
176  1.7500000000000D+00  0.0000000000000D+00  0.0000000000000D+00
177  1.7600000000000D+00  0.0000000000000D+00  0.0000000000000D+00
178  1.7700000000000D+00  0.0000000000000D+00  0.0000000000000D+00
179  1.7800000000000D+00  0.0000000000000D+00  0.0000000000000D+00
180  1.7900000000000D+00  0.0000000000000D+00  0.0000000000000D+00
181  1.8000000000000D+00  0.0000000000000D+00  0.0000000000000D+00
182  1.8100000000000D+00  0.0000000000000D+00  0.0000000000000D+00
183  1.8200000000000D+00  0.0000000000000D+00  0.0000000000000D+00
184  1.8300000000000D+00  0.0000000000000D+00  0.0000000000000D+00
185  1.8400000000000D+00  0.0000000000000D+00  0.0000000000000D+00
186  1.8500000000000D+00  0.0000000000000D+00  0.0000000000000D+00
187  1.8600000000000D+00  0.0000000000000D+00  0.0000000000000D+00
188  1.8700000000000D+00  0.0000000000000D+00  0.0000000000000D+00
189  1.8800000000000D+00  0.0000000000000D+00  0.0000000000000D+00
190  1.8900000000000D+00  0.0000000000000D+00  0.0000000000000D+00
191  1.9000000000000D+00  0.0000000000000D+00  0.0000000000000D+00
192  1.9100000000000D+00  0.0000000000000D+00  0.0000000000000D+00
193  1.9200000000000D+00  0.0000000000000D+00  0.0000000000000D+00
194  1.9300000000000D+00  0.0000000000000D+00  0.0000000000000D+00
195  1.9400000000000D+00  0.0000000000000D+00  0.0000000000000D+00
196  1.9500000000000D+00  0.0000000000000D+00  0.0000000000000D+00
197  1.9600000000000D+00  0.0000000000000D+00  0.0000000000000D+00
198  1.9700000000000D+00  0.0000000000000D+00  0.0000000000000D+00
199  1.9800000000000D+00  0.0000000000000D+00  0.0000000000000D+00
200  1.9900000000000D+00  0.0000000000000D+00  0.0000000000000D+00
201  2.0000000000000D+00  0.0000000000000D+00  0.0000000000000D+00
202  2.0100000000000D+00  0.0000000000000D+00  0.0000000000000D+00
203  2.0200000000000D+00  0.0000000000000D+00  0.0000000000000D+00
204  2.0300000000000D+00  0.0000000000000D+00  0.0000000000000D+00
205  2.0400000000000D+00  0.0000000000000D+00  0.0000000000000D+00
206  2.0500000000000D+00  0.0000000000000D+00  0.0000000000000D+00
207  2.0600000000000D+00  0.0000000000000D+00  0.0000000000000D+00
208  2.0700000000000D+00  0.0000000000000D+00  0.0000000000000D+00
209  2.0800000000000D+00  0.0000000000000D+00  0.0000000000000D+00
210  2.0900000000000D+00  0.0000000000000D+00  0.0000000000000D+00
211  2.1000000000000D+00  0.0000000000000D+00  0.0000000000000D+00
212  2.1100000000000D+00  0.0000000000000D+00  0.0000000000000D+00
213  2.1200000000000D+00  0.0000000000000D+00  0.0000000000000D+00
214  2.1300000000000D+00  0.0000000000000D+00  0.0000000000000D+00
215  2.1400000000000D+00  0.0000000000000D+00  0.0000000000000D+00
216  2.1500000000000D+00  0.0000000000000D+00  0.0000000000000D+00
217  2.1600000000000D+00  0.0000000000000D+00  0.0000000000000D+00
218  2.1700000000000D+00  0.0000000000000D+00  0.0000000000000D+00
219  2.1800000000000D+00  0.0000000000000D+00  0.0000000000000D+00
220  2.1900000000000D+00  0.0000000000000D+00  0.0000000000000D+00
221  2.2000000000000D+00  0.0000000000000D+00  0.0000000000000D+00
222  2.2100000000000D+00  0.0000000000000D+00  0.0000000000000D+00
223  2.2200000000000D+00  0.0000000000000D+00  0.0000000000000D+00
224  2.2300000000000D+00  0.0000000000000D+00  0.0000000000000D+00
225  2.2400000000000D+00  0.0000000000000D+00  0.0000000000000D+00
226  2.2500000000000D+00  0.0000000000000D+00  0.0000000000000D+00
227  2.2600000000000D+00  0.0000000000000D+00  0.0000000000000D+00
228  2.2700000000000D+00  0.0000000000000D+00  0.0000000000000D+00
229  2.2800000000000D+00  0.0000000000000D+00  0.0000000000000D+00
230  2.2900000000000D+00  0.0000000000000D+00  0.0000000000000D+00
231  2.3000000000000D+00  0.0000000000000D+00  0.0000000000000D+00
232  2.3100000000000D+00  0.0000000000000D+00  0.0000000000000D+00
233  2.3200000000000D+00  0.0000000000000D+00  0.0000000000000D+00
234  2.3300000000000D+00  0.0000000000000D+00  0.0000000000000D+00
235  2.3400000000000D+00  0.0000000000000D+00  0.0000000000000D+00
236  2.3500000000000D+00  0.0000000000000D+00  0.0000000000000D+00
237  2.3600000000000D+00  0.0000000000000D+00  0.0000000000000D+00
238  2.3700000000000D+00  0.0000000000000D+00  0.0000000000000D+00
239  2.3800000000000D+00  0.0000000000000D+00  0.0000000000000D+00
240  2.3900000000000D+00  0.0000000000000D+00  0.0000000000000D+00
241  2.4000000000000D+00  0.0000000000000D+00  0.0000000000000D+00
242  2.4100000000000D+00  0.0000000000000D+00  0.0000000000000D+00
243  2.4200000000000D+00  0.0000000000000D+00  0.0000000000000D+00
244  2.4300000000000D+00  0.0000000000000D+00  0.0000000000000D+00
245  2.4400000000000D+00  0.0000000000000D+00  0.0000000000000D+00
246  2.4500000000000D+00  0.0000000000000D+00  0.0000000000000D+00
247  2.4600000000000D+00  0.0000000000000D+00  0.0000000000000D+00
248  2.4700000000000D+00  0.0000000000000D+00  0.0000000000000D+00
249  2.4800000000000D+00  0.0000000000000D+00  0.0000000000000D+00
250  2.4900000000000D+00  0.0000000000000D+00  0.0000000000000D+00
251  2.5000000000000D+00  0.0000000000000D+00  0.0000000000000D+00
252  2.5100000000000D+00  0.0000000000000D+00  0.0000000000000D+00
253  2.5200000000000D+00  0.0000000000000D+00  0.0000000000000D+00
254  2.5300000000000D+00  0.0000000000000D+00  0.0000000000000D+00
255  2.5400000000000D+00  0.0000000000000D+00  0.0000000000000D+00
256  2.5500000000000D+00  0.0000000000000D+00  0.0000000000000D+00
257  2.5600000000000D+00  0.0000000000000D+00  0.0000000000000D+00
258  2.5700000000000D+00  0.0000000000000D+00  0.0000000000000D+00
259  2.5800000000000D+00  0.0000000000000D+00  0.0000000000000D+00
260  2.5900000000000D+00  0.0000000000000D+00  0.0000000000000D+00
261  2.6000000000000D+00  0.0000000000000D+00  0.0000000000000D+00
262  2.6100000000000D+00  0.0000000000000D+00  0.0000000000000D+00
263  2.6200000000000D+00  0.0000000000000D+00  0.0000000000000D+00
264  2.6300000000000D+00  0.0000000000000D+00  0.0000000000000D+00
265  2.6400000000000D+00  0.0000000000000D+00  0.0000000000000D+00
266  2.6500000000000D+00  0.0000000000000D+00  0.0000000000000D+00
267  2.6600000000000D+00  0.0000000000000D+00  0.0000000000000D+00
268  2.6700000000000D+00  0.0000000000000D+00  0.0000000000000D+00
269  2.6800000000000D+00  0.0000000000000D+00  0.0000000000000D+00
270  2.6900000000000D+00  0.0000000000000D+00  0.0000000000000D+00
271  2.7000000000000D+00  0.0000000000000D+00  0.0000000000000D+00
272  2.7100000000000D+00  0.0000000000000D+00  0.0000000000000D+00
273  2.7200000000000D+00  0.0000000000000D+00  0.0000000000000D+00
274  2.7300000000000D+00  0.0000000000000D+00  0.0000000000000D+00
275  2.7400000000000D+00  0.0000000000000D+00  0.0000000000000D+00
276  2.7500000000000D+00  0.0000000000000D+00  0.0000000000000D+00
277  2.7600000000000D+00  0.0000000000000D+00  0.0000000000000D+00
278  2.7700000000000D+00  0.0000000000000D+00  0.0000000000000D+00
279  2.7800000000000D+00  0.0000000000000D+00  0.0000000000000D+00
280  2.7900000000000D+00  0.0000000000000D+00  0.0000000000000D+00
281  2.8000000000000D+00  0.0000000000000D+00  0.0000000000000D+00
282  2.8100000000000D+00  0.0000000000000D+00  0.0000000000000D+00
283  2.8200000000000D+00  0.0000000000000D+00  0.0000000000000D+00
284  2.8300000000000D+00  0.0000000000000D+00  0.0000000000000D+00
285  2.8400000000000D+00  0.0000000000000D+00  0.0000000000000D+00
286  2.8500000000000D+00  0.0000000000000D+00  0.0000000000000D+00
287  2.8600000000000D+00  0.0000000000000D+00  0.0000000000000D+00
288  2.8700000000000D+00  0.0000000000000D+00  0.0000000000000D+00
289  2.8800000000000D+00  0.0000000000000D+00  0.0000000000000D+00
290  2.8900000000000D+00  0.0000000000000D+00  0.0000000000000D+00
291  2.9000000000000D+00  0.0000000000000D+00  0.0000000000000D+00
292  2.9100000000000D+00  0.0000000000000D+00  0.0000000000000D+00
293  2.9200000000000D+00  0.0000000000000D+00  0.0000000000000D+00
294  2.9300000000000D+00  0.0000000000000D+00  0.0000000000000D+00
295  2.9400000000000D+00  0.0000000000000D+00  0.0000000000000D+00
296  2.9500000000000D+00  0.0000000000000D+00  0.0000000000000D+00
297  2.9600000000000D+00  0.0000000000000D+00  0.0000000000000D+00
298  2.9700000000000D+00  0.0000000000000D+00  0.0000000000000D+00
299  2.9800000000000D+00  0.0000000000000D+00  0.0000000000000D+00
300  2.9900000000000D+00  0.0000000000000D+00  0.0000000000000D+00
301  3.0000000000000D+00  0.0000000000000D+00  0.0000000000000D+00
302  3.0100000000000D+00  0.0000000000000D+00  0.0000000000000D+00
303  3.0200000000000D+00  0.0000000000000D+00  0.0000000000000D+00
304  3.0300000000000D+00  0.0000000000000D+00  0.0000000000000D+00
305  3.0400000000000D+00  0.0000000000000D+00  0.0000000000000D+00
306  3.0500000000000D+00  0.0000000000000D+00  0.0000000000000D+00
307  3.0600000000000D+00  0.0000000000000D+00  0.0000000000000D+00
308  3.0700000000000D+00  0.0000000000000D+00  0.0000000000000D+00
309  3.0800000000000D+00  0.0000000000000D+00  0.0000000000000D+00
310  3.0900000000000D+00  0.0000000000000D+00  0.0000000000000D+00
311  3.1000000000000D+00  0.0000000000000D+00  0.0000000000000D+00
312  3.1100000000000D+00  0.0000000000000D+00  0.0000000000000D+00
313  3.1200000000000D+00  0.0000000000000D+00  0.0000000000000D+00
314  3.1300000000000D+00  0.0000000000000D+00  0.0000000000000D+00
315  3.1400000000000D+00  0.0000000000000D+00  0.0000000000000D+00
316  3.1500000000000D+00  0.0000000000000D+00  0.0000000000000D+00
317  3.1600000000000D+00  0.0000000000000D+00  0.0000000000000D+00
318  3.1700000000000D+00  0.0000000000000D+00  0.0000000000000D+00
319  3.1800000000000D+00  0.0000000000000D+00  0.0000000000000D+00
320  3.1900000000000D+00  0.0000000000000D+00  0.0000000000000D+00
321  3.2000000000000D+00  0.0000000000000D+00  0.0000000000000D+00
322  3.2100000000000D+00  0.0000000000000D+00  0.0000000000000D+00
323  3.2200000000000D+00  0.0000000000000D+00  0.0000000000000D+00
324  3.2300000000000D+00  0.0000000000000D+00  0.0000000000000D+00
325  3.2400000000000D+00  0.0000000000000D+00  0.0000000000000D+00
326  3.2500000000000D+00  0.0000000000000D+00  0.0000000000000D+00
327  3.2600000000000D+00  0.0000000000000D+00  0.0000000000000D+00
328  3.2700000000000D+00  0.0000000000000D+00  0.0000000000000D+00
329  3.2800000000000D+00  0.0000000000000D+00  0.0000000000000D+00
330  3.2900000000000D+00  0.0000000000000D+00  0.0000000000000D+00
331  3.3000000000000D+00  0.0000000000000D+00  0.0000000000000D+00
332  3.3100000000000D+00  0.0000000000000D+00  0.0000000000000D+00
333  3.3200000000000D+00  0.0000000000000D+00  0.0000000000000D+00
334  3.3300000000000D+00  0.0000000000000D+00  0.0000000000000D+00
335  3.3400000000000D+00  0.0000000000000D+00  0.0000000000000D+00
336  3.3500000000000D+00  0.0000000000000D+00  0.0000000000000D+00
337  3.3600000000000D+00  0.0000000000000D+00  0.0000000000000D+00
338  3.3700000000000D+00  0.0000000000000D+00  0.0000000000000D+00
339  3.3800000000000D+00  0.0000000000000D+00  0.0000000000000D+00
340  3.3900000000000D+00  0.0000000000000D+00  0.0000000000000D+00
341  3.4000000000000D+00  0.0000000000000D+00  0.0000000000000D+00
342  3.4100000000000D+00  0.0000000000000D+00  0.0000000000000D+00
343  3.4200000000000D+00  0.0000000000000D+00  0.0000000000000D+00
344  3.4300000000000D+00  0.0000000000000D+00  0.0000000000000D+00
345  3.4400000000000D+00  0.0000000000000D+00  0.0000000000000D+00
346  3.4500000000000D+00  0.0000000000000D+00  0.0000000000000D+00
347  3.4600000000000D+00  0.0000000000000D+00  0.0000000000000D+00
348  3.4700000000000D+00  0.0000000000000D+00  0.0000000000000D+00
349  3.4800000000000D+00  0.0000000000000D+00  0.0000000000000D+00
350  3.4900000000000D+00  0.0000000000000D+00  0.0000000000000D+00
351  3.5000000000000D+00  0.0000000000000D+00  0.0000000000000D+00
352  3.5100000000000D+00  0.0000000000000D+00  0.0000000000000D+00
353  3.5200000000000D+00  0.0000000000000D+00  0.0000000000000D+00
354  3.5300000000000D+00  0.0000000000000D+00  0.0000000000000D+00
355  3.5400000000000D+00  0.0000000000000D+00  0.0000000000000D+00
356  3.5500000000000D+00  0.0000000000000D+00  0.0000000000000D+00
357  3.5600000000000D+00  0.0000000000000D+00  0.0000000000000D+00
358  3.5700000000000D+00  0.0000000000000D+00  0.0000000000000D+00
359  3.5800000000000D+00  0.0000000000000D+00  0.0000000000000D+00
360  3.5900000000000D+00  0.0000000000000D+00  0.0000000000000D+00
361  3.6000000000000D+00  0.0000000000000D+00  0.0000000000000D+00
362  3.6100000000000D+00  0.0000000000000D+00  0.0000000000000D+00
363  3.6200000000000D+00  0.0000000000000D+00  0.0000000000000D+00
364  3.6300000000000D+00  0.0000000000000D+00  0.0000000000000D+00
365  3.6400000000000D+00  0.0000000000000D+00  0.0000000000000D+00
366  3.6500000000000D+00  0.0000000000000D+00  0.0000000000000D+00
367  3.6600000000000D+00  0.0000000000000D+00  0.0000000000000D+00
368  3.6700000000000D+00  0.0000000000000D+00  0.0000000000000D+00
369  3.6800000000000D+00  0.0000000000000D+00  0.0000000000000D+00
370  3.6900000000000D+00  0.0000000000000D+00  0.0000000000000D+00
371  3.7000000000000D+00  0.0000000000000D+00  0.0000000000000D+00
372  3.7100000000000D+00  0.0000000000000D+00  0.0000000000000D+00
373  3.7200000000000D+00  0.0000000000000D+00  0.0000000000000D+00
374  3.7300000000000D+00  0.0000000000000D+00  0.0000000000000D+00
375  3.7400000000000D+00  0.0000000000000D+00  0.0000000000000D+00
376  3.7500000000000D+00  0.0000000000000D+00  0.0000000000000D+00
377  3.7600000000000D+00  0.0000000000000D+00  0.0000000000000D+00
378  3.7700000000000D+00  0.0000000000000D+00  0.0000000000000D+00
379  3.7800000000000D+00  0.0000000000000D+00  0.0000000000000D+00
380  3.7900000000000D+00  0.0000000000000D+00  0.0000000000000D+00
381  3.8000000000000D+00  0.0000000000000D+00  0.0000000000000D+00
382  3.8100000000000D+00  0.0000000000000D+00  0.0000000000000D+00
383  3.8200000000000D+00  0.0000000000000D+00  0.0000000000000D+00
384  3.8300000000000D+00  0.0000000000000D+00  0.0000000000000D+00
385  3.8400000000000D+00  0.0000000000000D+00  0.0000000000000D+00
386  3.8500000000000D+00  0.0000000000000D+00  0.0000000000000D+00
387  3.8600000000000D+00  0.0000000000000D+00  0.0000000000000D+00
388  3.8700000000000D+00  0.0000000000000D+00  0.0000000000000D+00
389  3.8800000000000D+00  0.0000000000000D+00  0.0000000000000D+00
390  3.8900000000000D+00  0.0000000000000D+00  0.0000000000000D+00
391  3.9000000000000D+00  0.0000000000000D+00  0.0000000000000D+00
392  3.9100000000000D+00  0.0000000000000D+00  0.0000000000000D+00
393  3.9200000000000D+00  0.0000000000000D+00  0.0000000000000D+00
394  3.9300000000000D+00  0.0000000000000D+00  0.0000000000000D+00
395  3.9400000000000D+00  0.0000000000000D+00  0.0000000000000D+00
396  3.9500000000000D+00  0.0000000000000D+00  0.0000000000000D+00
397  3.9600000000000D+00  0.0000000000000D+00  0.0000000000000D+00
398  3.9700000000000D+00  0.0000000000000D+00  0.0000000000000D+00
399  3.9800000000000D+00  0.0000000000000D+00  0.0000000000000D+00
400  3.9900000000000D+00  0.0000000000000D+00  0.0000000000000D+00
401  4.0000000000000D+00  0.0000000000000D+00  0.0000000000000D+00
1                        -5.9537055502901D+00 -1.8652715895794D+00
1  0.0000000000000D+00  0.0000000000000D+00  0.0000000000000D+00
2  1.0000000000000D-02  2.1961048518749D-03  8.0075079252331D-04
3  2.0000000000000D-02  8.7740198479061D-03  3.1961918982555D-03
4  3.0000000000000D-02  1.9702583696911D-02  7.1659138136011D-03
5  4.0000000000000D-02  3.4929985561859D-02  1.2675981897892D-02
6  5.0000000000000D-02  5.4383952109376D-02  1.9679058722142D-02
7  6.0000000000000D-02  7.7972009522981D-02  2.8114576441377D-02
8  7.0000000000000D-02  1.0558182060045D-01  3.7908960234296D-02
9  8.0000000000000D-02  1.3708159705591D-01  4.8975904094702D-02
10  9.0000000000000D-02  1.7232058712494D-01  6.1216700459365D-02
11  1.0000000000000D-01  2.1112963851703D-01  7.4520625305746D-02
12  1.1000000000000D-01  2.5332183667433D-01  8.8765380446192D-02
13  1.2000000000000D-01  2.9869321817558D-01  1.0381759477675D-01
14  1.3000000000000D-01  3.4702355896728D-01  1.1953338620400D-01
15  1.4000000000000D-01  3.9807723686432D-01  1.3575898583407D-01
16  1.5000000000000D-01  4.5160416761685D-01  1.5233142590011D-01
17  1.6000000000000D-01  5.0734081335633D-01  1.6907929248696D-01
18  1.7000000000000D-01  5.6501126220455D-01  1.8582354401526D-01
19  1.8000000000000D-01  6.2432837703654D-01  2.0237839568653D-01
20  1.9000000000000D-01  6.8499501150498D-01  2.1855227004512D-01
21  2.0000000000000D-01  7.4670529010619D-01  2.3414881248383D-01
22  2.1000000000000D-01  8.0914595029612D-01  2.4896797142954D-01
23  2.2000000000000D-01  8.7199774135757D-01  2.6280713973239D-01
24  2.3000000000000D-01  9.3493687729221D-01  2.7546235586195D-01
25  2.4000000000000D-01  9.9763653762351D-01  2.8672956011116D-01
26  2.5000000000000D-01  1.0597684132733D+00  2.9640590392962D-01
27  2.6000000000000D-01  1.1210042862270D+00  3.0429110183906D-01
28  2.7000000000000D-01  1.1810176445906D+00  3.1018882801445D-01
29  2.8000000000000D-01  1.2394853170216D+00  3.1390814155993D-01
30  2.9000000000000D-01  1.2960891254527D+00  3.1526493935110D-01
31  3.0000000000000D-01  1.3505175449367D+00  3.1408342478329D-01
32  3.1000000000000D-01  1.4024673623394D+00  3.1019758340189D-01
33  3.2000000000000D-01  1.4516453235296D+00  3.0345265380726D-01
34  3.3000000000000D-01  1.4977697648172D+00  2.9370658913015D-01
35  3.4000000000000D-01  1.5405722083859D+00  2.8083148569498D-01
36  3.5000000000000D-01  1.5797989219211D+00  2.6471497871810D-01
37  3.6000000000000D-01  1.6152124263287D+00  2.4526158627920D-01
38  3.7000000000000D-01  1.6465929422332D+00  2.2239399020024D-01
39  3.8000000000000D-01  1.6737397630988D+00  1.9605423837419D-01
40  3.9000000000000D-01  1.6964725483773D+00  1.6620486168956D-01
41  4.0000000000000D-01  1.7146325207998D+00  1.3282988488058D-01
42  4.1000000000000D-01  1.7280835617484D+00  9.5935723430068D-02