Ne    ONCVPSP  r_core=  1.31  1.46
10.0000      8.0000      140820    zatom,zion,pspd
8    11     1     4   401     0    pspcod,pspxc,lmax,lloc,mmax,r2well
4.00000000  0.00000000  0.00000000    rchrg fchrg qchrg
2     2     0     0     0    nproj
0                 extension_switch
0                         2.5854382740523D+00 -4.9393185412899D-01
1  0.0000000000000D+00 -0.0000000000000D+00  0.0000000000000D+00
2  1.0000000000000D-02 -9.2098665246298D-02  1.1919088788194D-02
3  2.0000000000000D-02 -1.8394475318518D-01  2.3932036954614D-02
4  3.0000000000000D-02 -2.7528576167332D-01  3.6131835221228D-02
5  4.0000000000000D-02 -3.6586935029488D-01  4.8609745317413D-02
6  5.0000000000000D-02 -4.5544344953085D-01  6.1454456195897D-02
7  6.0000000000000D-02 -5.4375640335832D-01  7.4751264860960D-02
8  7.0000000000000D-02 -6.3055715553698D-01  8.8581289606120D-02
9  8.0000000000000D-02 -7.1559548909291D-01  1.0302072312823D-01
10  9.0000000000000D-02 -7.9862232760095D-01  1.1814013255196D-01
11  1.0000000000000D-01 -8.7939010579376D-01  1.3400381292496D-01
12  1.1000000000000D-01 -9.5765321581615D-01  1.5066920017440D-01
13  1.2000000000000D-01 -1.0331685341146D+00  1.6818634888767D-01
14  1.3000000000000D-01 -1.1056960325296D+00  1.8659747959961D-01
15  1.4000000000000D-01 -1.1749994754851D+00  2.0593659964412D-01
16  1.5000000000000D-01 -1.2408472039642D+00  2.2622920057543D-01
17  1.6000000000000D-01 -1.3030130045481D+00  2.4749203487440D-01
18  1.7000000000000D-01 -1.3612770613672D+00  2.6973297315056D-01
19  1.8000000000000D-01 -1.4154269854164D+00  2.9295094300471D-01
20  1.9000000000000D-01 -1.4652589163299D+00  3.1713594910504D-01
21  2.0000000000000D-01 -1.5105786862100D+00  3.4226917387314D-01
22  2.1000000000000D-01 -1.5512030414948D+00  3.6832315674008D-01
23  2.2000000000000D-01 -1.5869609044799D+00  3.9526204978844D-01
24  2.3000000000000D-01 -1.6176946693160D+00  4.2304194623042D-01
25  2.4000000000000D-01 -1.6432615127640D+00  4.5161127726312D-01
26  2.5000000000000D-01 -1.6635347179101D+00  4.8091127491141D-01
27  2.6000000000000D-01 -1.6784049689319D+00  5.1087648991544D-01
28  2.7000000000000D-01 -1.6877816419358D+00  5.4143536806627D-01
29  2.8000000000000D-01 -1.6915940304905D+00  5.7251086771228D-01
30  2.9000000000000D-01 -1.6897925226373D+00  6.0402112004717D-01
31  3.0000000000000D-01 -1.6823496976549D+00  6.3588012139970D-01
32  3.1000000000000D-01 -1.6692613282617D+00  6.6799845060691D-01
33  3.2000000000000D-01 -1.6505472648932D+00  7.0028399958718D-01
34  3.3000000000000D-01 -1.6262522178450D+00  7.3264272710283D-01
35  3.4000000000000D-01 -1.5964463628911D+00  7.6497939591529D-01
36  3.5000000000000D-01 -1.5612258154536D+00  7.9719831608938D-01
37  3.6000000000000D-01 -1.5207129310199D+00  8.2920407403110D-01
38  3.7000000000000D-01 -1.4750564275048D+00  8.6090224343856D-01
39  3.8000000000000D-01 -1.4244313007097D+00  8.9220005026519D-01
40  3.9000000000000D-01 -1.3690385711505D+00  9.2300703381399D-01
41  4.0000000000000D-01 -1.3091048060349D+00  9.5323565041108D-01
42  4.1000000000000D-01 -1.2448814337659D+00  9.8280182577353D-01
43  4.2000000000000D-01 -1.1766438551204D+00  1.0116254684017D+00
44  4.3000000000000D-01 -1.1046903406861D+00  1.0396309242146D+00
45  4.4000000000000D-01 -1.0293407199062D+00  1.0667473724809D+00
46  4.5000000000000D-01 -9.5093486642253D-01  1.0929091601519D+00
47  4.6000000000000D-01 -8.6983098689323D-01  1.1180560723052D+00
48  4.7000000000000D-01 -7.8640373249292D-01  1.1421335330935D+00
49  4.8000000000000D-01 -7.0104213583043D-01  1.1650927470895D+00
50  4.9000000000000D-01 -6.1414731488145D-01  1.1868907943342D+00
51  5.0000000000000D-01 -5.2613014158564D-01  1.2074906128884D+00
52  5.1000000000000D-01 -4.3740880426983D-01  1.2268609394942D+00
53  5.2000000000000D-01 -3.4840603931351D-01  1.2449762326947D+00
54  5.3000000000000D-01 -2.5954642806508D-01  1.2618164819311D+00
55  5.4000000000000D-01 -1.7125399144618D-01  1.2773669544345D+00
56  5.5000000000000D-01 -8.3948631527367D-02  1.2916179897057D+00
57  5.6000000000000D-01  1.9557893938025D-03  1.3045646092509D+00
58  5.7000000000000D-01  8.6055165314958D-02  1.3162062127446D+00
59  5.8000000000000D-01  1.6795703704273D-01  1.3265461597507D+00
60  5.9000000000000D-01  2.4728438712503D-01  1.3355913608926D+00
61  6.0000000000000D-01  3.2367684467035D-01  1.3433518630154D+00
62  6.1000000000000D-01  3.9679502878080D-01  1.3498403468025D+00
63  6.2000000000000D-01  4.6632126869705D-01  1.3550717327352D+00
64  6.3000000000000D-01  5.3196269573924D-01  1.3590626909726D+00
65  6.4000000000000D-01  5.9345354678696D-01  1.3618311629444D+00
66  6.5000000000000D-01  6.5055609034633D-01  1.3633959994812D+00
67  6.6000000000000D-01  7.0306291305281D-01  1.3637764927059D+00
68  6.7000000000000D-01  7.5079862682369D-01  1.3629919418441D+00
69  6.8000000000000D-01  7.9362024865788D-01  1.3610613707295D+00
70  6.9000000000000D-01  8.3141814230831D-01  1.3580032054217D+00
71  7.0000000000000D-01  8.6411720736063D-01  1.3538349112957D+00
72  7.1000000000000D-01  8.9167697839782D-01  1.3485727724366D+00
73  7.2000000000000D-01  9.1409131957846D-01  1.3422317456736D+00
74  7.3000000000000D-01  9.3138833706131D-01  1.3348252943354D+00
75  7.4000000000000D-01  9.4362982568848D-01  1.3263652973132D+00
76  7.5000000000000D-01  9.5091026634837D-01  1.3168620440803D+00
77  7.6000000000000D-01  9.5335622892850D-01  1.3063241516316D+00
78  7.7000000000000D-01  9.5112440910775D-01  1.2947587401133D+00
79  7.8000000000000D-01  9.4440013819767D-01  1.2821715307619D+00
80  7.9000000000000D-01  9.3339550182416D-01  1.2685670207411D+00
81  8.0000000000000D-01  9.1834721846065D-01  1.2539487100574D+00
82  8.1000000000000D-01  8.9951431343262D-01  1.2383193745910D+00
83  8.2000000000000D-01  8.7717561125564D-01  1.2216813814085D+00
84  8.3000000000000D-01  8.5162707107316D-01  1.2040370419097D+00
85  8.4000000000000D-01  8.2317899160374D-01  1.1853889978172D+00
86  8.5000000000000D-01  7.9215311338868D-01  1.1657406345332D+00
87  8.6000000000000D-01  7.5887964724831D-01  1.1450965159658D+00
88  8.7000000000000D-01  7.2369425871099D-01  1.1234628345813D+00
89  8.8000000000000D-01  6.8693503876984D-01  1.1008478701542D+00
90  8.9000000000000D-01  6.4893949164325D-01  1.0772624504800D+00
91  9.0000000000000D-01  6.1004157025149D-01  1.0527204071855D+00
92  9.1000000000000D-01  5.7056878984991D-01  1.0272390197195D+00
93  9.2000000000000D-01  5.3083944964372D-01  1.0008394406538D+00
94  9.3000000000000D-01  4.9115999120476D-01  9.7354709556828D-01
95  9.4000000000000D-01  4.5182252106050D-01  9.4539205106193D-01
96  9.5000000000000D-01  4.1310305277251D-01  9.1640927567489D-01
97  9.6000000000000D-01  3.7525831061647D-01  8.8663907433509D-01
98  9.7000000000000D-01  3.3852406323007D-01  8.5612730344924D-01
99  9.8000000000000D-01  3.0311420078096D-01  8.2492546705157D-01
100  9.9000000000000D-01  2.6921907035276D-01  7.9309088787740D-01
101  1.0000000000000D+00  2.3700442620091D-01  7.6068677399882D-01
102  1.0100000000000D+00  2.0661066889987D-01  7.2778222270748D-01
103  1.0200000000000D+00  1.7815337615201D-01  6.9445205551642D-01
104  1.0300000000000D+00  1.5172054310609D-01  6.6077699548394D-01
105  1.0400000000000D+00  1.2737374279431D-01  6.2684332265376D-01
106  1.0500000000000D+00  1.0514963546550D-01  5.9274250278397D-01
107  1.0600000000000D+00  8.5060037658975D-02  5.5857093862961D-01
108  1.0700000000000D+00  6.7093576880386D-02  5.2442957595987D-01
109  1.0800000000000D+00  5.1215147840305D-02  4.9042361593926D-01
110  1.0900000000000D+00  3.7367180354057D-02  4.5666188392430D-01
111  1.1000000000000D+00  2.5473552916791D-02  4.2325621308362D-01
112  1.1100000000000D+00  1.5440535246045D-02  3.9032095011728D-01
113  1.1200000000000D+00  7.1588896229282D-03  3.5797263343226D-01
114  1.1300000000000D+00  5.0401998106967D-04  3.2632856556337D-01
115  1.1400000000000D+00 -4.6585418789260D-03  2.9550664025024D-01
116  1.1500000000000D+00 -8.4720928748503D-03  2.6562471896175D-01
117  1.1600000000000D+00 -1.1087240079150D-02  2.3680026888848D-01
118  1.1700000000000D+00 -1.2657475522083D-02  2.0914796018933D-01
119  1.1800000000000D+00 -1.3337387679576D-02  1.8278053639062D-01
120  1.1900000000000D+00 -1.3282106102791D-02  1.5780860726219D-01
121  1.2000000000000D+00 -1.2641955537227D-02  1.3433806736326D-01
122  1.2100000000000D+00 -1.1559923375158D-02  1.1246988595405D-01
123  1.2200000000000D+00 -1.0173119585499D-02  9.2301144282943D-02
124  1.2300000000000D+00 -8.6095731412691D-03  7.3923627616467D-02
125  1.2400000000000D+00 -6.9800439057814D-03  5.7420683877400D-02
126  1.2500000000000D+00 -5.3853834233689D-03  4.2870765774768D-02
127  1.2600000000000D+00 -3.9143856638895D-03  3.0346471893209D-02
128  1.2700000000000D+00 -2.6308258099569D-03  1.9909387742972D-02
129  1.2800000000000D+00 -1.5872477329881D-03  1.1615934110777D-02
130  1.2900000000000D+00 -8.2091893027792D-04  5.5156856303759D-03
131  1.3000000000000D+00 -3.5637954589695D-04  1.7433540156433D-03
132  1.3100000000000D+00 -1.6349684869645D-04  1.3826236439054D-04
133  1.3200000000000D+00 -4.8990683913389D-05 -1.8262646667883D-04
134  1.3300000000000D+00  5.4719127265834D-06  2.5635221709178D-07
135  1.3400000000000D+00  5.4786411456257D-06  2.5666743504668D-07
136  1.3500000000000D+00  0.0000000000000D+00  0.0000000000000D+00
137  1.3600000000000D+00  0.0000000000000D+00  0.0000000000000D+00
138  1.3700000000000D+00  0.0000000000000D+00  0.0000000000000D+00
139  1.3800000000000D+00  0.0000000000000D+00  0.0000000000000D+00
140  1.3900000000000D+00  0.0000000000000D+00  0.0000000000000D+00
141  1.4000000000000D+00  0.0000000000000D+00  0.0000000000000D+00
142  1.4100000000000D+00  0.0000000000000D+00  0.0000000000000D+00
143  1.4200000000000D+00  0.0000000000000D+00  0.0000000000000D+00
144  1.4300000000000D+00  0.0000000000000D+00  0.0000000000000D+00
145  1.4400000000000D+00  0.0000000000000D+00  0.0000000000000D+00
146  1.4500000000000D+00  0.0000000000000D+00  0.0000000000000D+00
147  1.4600000000000D+00  0.0000000000000D+00  0.0000000000000D+00
148  1.4700000000000D+00  0.0000000000000D+00  0.0000000000000D+00
149  1.4800000000000D+00  0.0000000000000D+00  0.0000000000000D+00
150  1.4900000000000D+00  0.0000000000000D+00  0.0000000000000D+00
151  1.5000000000000D+00  0.0000000000000D+00  0.0000000000000D+00
152  1.5100000000000D+00  0.0000000000000D+00  0.0000000000000D+00
153  1.5200000000000D+00  0.0000000000000D+00  0.0000000000000D+00
154  1.5300000000000D+00  0.0000000000000D+00  0.0000000000000D+00
155  1.5400000000000D+00  0.0000000000000D+00  0.0000000000000D+00
156  1.5500000000000D+00  0.0000000000000D+00  0.0000000000000D+00
157  1.5600000000000D+00  0.0000000000000D+00  0.0000000000000D+00
158  1.5700000000000D+00  0.0000000000000D+00  0.0000000000000D+00
159  1.5800000000000D+00  0.0000000000000D+00  0.0000000000000D+00
160  1.5900000000000D+00  0.0000000000000D+00  0.0000000000000D+00
161  1.6000000000000D+00  0.0000000000000D+00  0.0000000000000D+00
162  1.6100000000000D+00  0.0000000000000D+00  0.0000000000000D+00
163  1.6200000000000D+00  0.0000000000000D+00  0.0000000000000D+00
164  1.6300000000000D+00  0.0000000000000D+00  0.0000000000000D+00
165  1.6400000000000D+00  0.0000000000000D+00  0.0000000000000D+00
166  1.6500000000000D+00  0.0000000000000D+00  0.0000000000000D+00
167  1.6600000000000D+00  0.0000000000000D+00  0.0000000000000D+00
168  1.6700000000000D+00  0.0000000000000D+00  0.0000000000000D+00
169  1.6800000000000D+00  0.0000000000000D+00  0.0000000000000D+00
170  1.6900000000000D+00  0.0000000000000D+00  0.0000000000000D+00
171  1.7000000000000D+00  0.0000000000000D+00  0.0000000000000D+00
172  1.7100000000000D+00  0.0000000000000D+00  0.0000000000000D+00
173  1.7200000000000D+00  0.0000000000000D+00  0.0000000000000D+00
174  1.7300000000000D+00  0.0000000000000D+00  0.0000000000000D+00
175  1.7400000000000D+00  0.0000000000000D+00  0.0000000000000D+00
176  1.7500000000000D+00  0.0000000000000D+00  0.0000000000000D+00
177  1.7600000000000D+00  0.0000000000000D+00  0.0000000000000D+00
178  1.7700000000000D+00  0.0000000000000D+00  0.0000000000000D+00
179  1.7800000000000D+00  0.0000000000000D+00  0.0000000000000D+00
180  1.7900000000000D+00  0.0000000000000D+00  0.0000000000000D+00
181  1.8000000000000D+00  0.0000000000000D+00  0.0000000000000D+00
182  1.8100000000000D+00  0.0000000000000D+00  0.0000000000000D+00
183  1.8200000000000D+00  0.0000000000000D+00  0.0000000000000D+00
184  1.8300000000000D+00  0.0000000000000D+00  0.0000000000000D+00
185  1.8400000000000D+00  0.0000000000000D+00  0.0000000000000D+00
186  1.8500000000000D+00  0.0000000000000D+00  0.0000000000000D+00
187  1.8600000000000D+00  0.0000000000000D+00  0.0000000000000D+00
188  1.8700000000000D+00  0.0000000000000D+00  0.0000000000000D+00
189  1.8800000000000D+00  0.0000000000000D+00  0.0000000000000D+00
190  1.8900000000000D+00  0.0000000000000D+00  0.0000000000000D+00
191  1.9000000000000D+00  0.0000000000000D+00  0.0000000000000D+00
192  1.9100000000000D+00  0.0000000000000D+00  0.0000000000000D+00
193  1.9200000000000D+00  0.0000000000000D+00  0.0000000000000D+00
194  1.9300000000000D+00  0.0000000000000D+00  0.0000000000000D+00
195  1.9400000000000D+00  0.0000000000000D+00  0.0000000000000D+00
196  1.9500000000000D+00  0.0000000000000D+00  0.0000000000000D+00
197  1.9600000000000D+00  0.0000000000000D+00  0.0000000000000D+00
198  1.9700000000000D+00  0.0000000000000D+00  0.0000000000000D+00
199  1.9800000000000D+00  0.0000000000000D+00  0.0000000000000D+00
200  1.9900000000000D+00  0.0000000000000D+00  0.0000000000000D+00
201  2.0000000000000D+00  0.0000000000000D+00  0.0000000000000D+00
202  2.0100000000000D+00  0.0000000000000D+00  0.0000000000000D+00
203  2.0200000000000D+00  0.0000000000000D+00  0.0000000000000D+00
204  2.0300000000000D+00  0.0000000000000D+00  0.0000000000000D+00
205  2.0400000000000D+00  0.0000000000000D+00  0.0000000000000D+00
206  2.0500000000000D+00  0.0000000000000D+00  0.0000000000000D+00
207  2.0600000000000D+00  0.0000000000000D+00  0.0000000000000D+00
208  2.0700000000000D+00  0.0000000000000D+00  0.0000000000000D+00
209  2.0800000000000D+00  0.0000000000000D+00  0.0000000000000D+00
210  2.0900000000000D+00  0.0000000000000D+00  0.0000000000000D+00
211  2.1000000000000D+00  0.0000000000000D+00  0.0000000000000D+00
212  2.1100000000000D+00  0.0000000000000D+00  0.0000000000000D+00
213  2.1200000000000D+00  0.0000000000000D+00  0.0000000000000D+00
214  2.1300000000000D+00  0.0000000000000D+00  0.0000000000000D+00
215  2.1400000000000D+00  0.0000000000000D+00  0.0000000000000D+00
216  2.1500000000000D+00  0.0000000000000D+00  0.0000000000000D+00
217  2.1600000000000D+00  0.0000000000000D+00  0.0000000000000D+00
218  2.1700000000000D+00  0.0000000000000D+00  0.0000000000000D+00
219  2.1800000000000D+00  0.0000000000000D+00  0.0000000000000D+00
220  2.1900000000000D+00  0.0000000000000D+00  0.0000000000000D+00
221  2.2000000000000D+00  0.0000000000000D+00  0.0000000000000D+00
222  2.2100000000000D+00  0.0000000000000D+00  0.0000000000000D+00
223  2.2200000000000D+00  0.0000000000000D+00  0.0000000000000D+00
224  2.2300000000000D+00  0.0000000000000D+00  0.0000000000000D+00
225  2.2400000000000D+00  0.0000000000000D+00  0.0000000000000D+00
226  2.2500000000000D+00  0.0000000000000D+00  0.0000000000000D+00
227  2.2600000000000D+00  0.0000000000000D+00  0.0000000000000D+00
228  2.2700000000000D+00  0.0000000000000D+00  0.0000000000000D+00
229  2.2800000000000D+00  0.0000000000000D+00  0.0000000000000D+00
230  2.2900000000000D+00  0.0000000000000D+00  0.0000000000000D+00
231  2.3000000000000D+00  0.0000000000000D+00  0.0000000000000D+00
232  2.3100000000000D+00  0.0000000000000D+00  0.0000000000000D+00
233  2.3200000000000D+00  0.0000000000000D+00  0.0000000000000D+00
234  2.3300000000000D+00  0.0000000000000D+00  0.0000000000000D+00
235  2.3400000000000D+00  0.0000000000000D+00  0.0000000000000D+00
236  2.3500000000000D+00  0.0000000000000D+00  0.0000000000000D+00
237  2.3600000000000D+00  0.0000000000000D+00  0.0000000000000D+00
238  2.3700000000000D+00  0.0000000000000D+00  0.0000000000000D+00
239  2.3800000000000D+00  0.0000000000000D+00  0.0000000000000D+00
240  2.3900000000000D+00  0.0000000000000D+00  0.0000000000000D+00
241  2.4000000000000D+00  0.0000000000000D+00  0.0000000000000D+00
242  2.4100000000000D+00  0.0000000000000D+00  0.0000000000000D+00
243  2.4200000000000D+00  0.0000000000000D+00  0.0000000000000D+00
244  2.4300000000000D+00  0.0000000000000D+00  0.0000000000000D+00
245  2.4400000000000D+00  0.0000000000000D+00  0.0000000000000D+00
246  2.4500000000000D+00  0.0000000000000D+00  0.0000000000000D+00
247  2.4600000000000D+00  0.0000000000000D+00  0.0000000000000D+00
248  2.4700000000000D+00  0.0000000000000D+00  0.0000000000000D+00
249  2.4800000000000D+00  0.0000000000000D+00  0.0000000000000D+00
250  2.4900000000000D+00  0.0000000000000D+00  0.0000000000000D+00
251  2.5000000000000D+00  0.0000000000000D+00  0.0000000000000D+00
252  2.5100000000000D+00  0.0000000000000D+00  0.0000000000000D+00
253  2.5200000000000D+00  0.0000000000000D+00  0.0000000000000D+00
254  2.5300000000000D+00  0.0000000000000D+00  0.0000000000000D+00
255  2.5400000000000D+00  0.0000000000000D+00  0.0000000000000D+00
256  2.5500000000000D+00  0.0000000000000D+00  0.0000000000000D+00
257  2.5600000000000D+00  0.0000000000000D+00  0.0000000000000D+00
258  2.5700000000000D+00  0.0000000000000D+00  0.0000000000000D+00
259  2.5800000000000D+00  0.0000000000000D+00  0.0000000000000D+00
260  2.5900000000000D+00  0.0000000000000D+00  0.0000000000000D+00
261  2.6000000000000D+00  0.0000000000000D+00  0.0000000000000D+00
262  2.6100000000000D+00  0.0000000000000D+00  0.0000000000000D+00
263  2.6200000000000D+00  0.0000000000000D+00  0.0000000000000D+00
264  2.6300000000000D+00  0.0000000000000D+00  0.0000000000000D+00
265  2.6400000000000D+00  0.0000000000000D+00  0.0000000000000D+00
266  2.6500000000000D+00  0.0000000000000D+00  0.0000000000000D+00
267  2.6600000000000D+00  0.0000000000000D+00  0.0000000000000D+00
268  2.6700000000000D+00  0.0000000000000D+00  0.0000000000000D+00
269  2.6800000000000D+00  0.0000000000000D+00  0.0000000000000D+00
270  2.6900000000000D+00  0.0000000000000D+00  0.0000000000000D+00
271  2.7000000000000D+00  0.0000000000000D+00  0.0000000000000D+00
272  2.7100000000000D+00  0.0000000000000D+00  0.0000000000000D+00
273  2.7200000000000D+00  0.0000000000000D+00  0.0000000000000D+00
274  2.7300000000000D+00  0.0000000000000D+00  0.0000000000000D+00
275  2.7400000000000D+00  0.0000000000000D+00  0.0000000000000D+00
276  2.7500000000000D+00  0.0000000000000D+00  0.0000000000000D+00
277  2.7600000000000D+00  0.0000000000000D+00  0.0000000000000D+00
278  2.7700000000000D+00  0.0000000000000D+00  0.0000000000000D+00
279  2.7800000000000D+00  0.0000000000000D+00  0.0000000000000D+00
280  2.7900000000000D+00  0.0000000000000D+00  0.0000000000000D+00
281  2.8000000000000D+00  0.0000000000000D+00  0.0000000000000D+00
282  2.8100000000000D+00  0.0000000000000D+00  0.0000000000000D+00
283  2.8200000000000D+00  0.0000000000000D+00  0.0000000000000D+00
284  2.8300000000000D+00  0.0000000000000D+00  0.0000000000000D+00
285  2.8400000000000D+00  0.0000000000000D+00  0.0000000000000D+00
286  2.8500000000000D+00  0.0000000000000D+00  0.0000000000000D+00
287  2.8600000000000D+00  0.0000000000000D+00  0.0000000000000D+00
288  2.8700000000000D+00  0.0000000000000D+00  0.0000000000000D+00
289  2.8800000000000D+00  0.0000000000000D+00  0.0000000000000D+00
290  2.8900000000000D+00  0.0000000000000D+00  0.0000000000000D+00
291  2.9000000000000D+00  0.0000000000000D+00  0.0000000000000D+00
292  2.9100000000000D+00  0.0000000000000D+00  0.0000000000000D+00
293  2.9200000000000D+00  0.0000000000000D+00  0.0000000000000D+00
294  2.9300000000000D+00  0.0000000000000D+00  0.0000000000000D+00
295  2.9400000000000D+00  0.0000000000000D+00  0.0000000000000D+00
296  2.9500000000000D+00  0.0000000000000D+00  0.0000000000000D+00
297  2.9600000000000D+00  0.0000000000000D+00  0.0000000000000D+00
298  2.9700000000000D+00  0.0000000000000D+00  0.0000000000000D+00
299  2.9800000000000D+00  0.0000000000000D+00  0.0000000000000D+00
300  2.9900000000000D+00  0.0000000000000D+00  0.0000000000000D+00
301  3.0000000000000D+00  0.0000000000000D+00  0.0000000000000D+00
302  3.0100000000000D+00  0.0000000000000D+00  0.0000000000000D+00
303  3.0200000000000D+00  0.0000000000000D+00  0.0000000000000D+00
304  3.0300000000000D+00  0.0000000000000D+00  0.0000000000000D+00
305  3.0400000000000D+00  0.0000000000000D+00  0.0000000000000D+00
306  3.0500000000000D+00  0.0000000000000D+00  0.0000000000000D+00
307  3.0600000000000D+00  0.0000000000000D+00  0.0000000000000D+00
308  3.0700000000000D+00  0.0000000000000D+00  0.0000000000000D+00
309  3.0800000000000D+00  0.0000000000000D+00  0.0000000000000D+00
310  3.0900000000000D+00  0.0000000000000D+00  0.0000000000000D+00
311  3.1000000000000D+00  0.0000000000000D+00  0.0000000000000D+00
312  3.1100000000000D+00  0.0000000000000D+00  0.0000000000000D+00
313  3.1200000000000D+00  0.0000000000000D+00  0.0000000000000D+00
314  3.1300000000000D+00  0.0000000000000D+00  0.0000000000000D+00
315  3.1400000000000D+00  0.0000000000000D+00  0.0000000000000D+00
316  3.1500000000000D+00  0.0000000000000D+00  0.0000000000000D+00
317  3.1600000000000D+00  0.0000000000000D+00  0.0000000000000D+00
318  3.1700000000000D+00  0.0000000000000D+00  0.0000000000000D+00
319  3.1800000000000D+00  0.0000000000000D+00  0.0000000000000D+00
320  3.1900000000000D+00  0.0000000000000D+00  0.0000000000000D+00
321  3.2000000000000D+00  0.0000000000000D+00  0.0000000000000D+00
322  3.2100000000000D+00  0.0000000000000D+00  0.0000000000000D+00
323  3.2200000000000D+00  0.0000000000000D+00  0.0000000000000D+00
324  3.2300000000000D+00  0.0000000000000D+00  0.0000000000000D+00
325  3.2400000000000D+00  0.0000000000000D+00  0.0000000000000D+00
326  3.2500000000000D+00  0.0000000000000D+00  0.0000000000000D+00
327  3.2600000000000D+00  0.0000000000000D+00  0.0000000000000D+00
328  3.2700000000000D+00  0.0000000000000D+00  0.0000000000000D+00
329  3.2800000000000D+00  0.0000000000000D+00  0.0000000000000D+00
330  3.2900000000000D+00  0.0000000000000D+00  0.0000000000000D+00
331  3.3000000000000D+00  0.0000000000000D+00  0.0000000000000D+00
332  3.3100000000000D+00  0.0000000000000D+00  0.0000000000000D+00
333  3.3200000000000D+00  0.0000000000000D+00  0.0000000000000D+00
334  3.3300000000000D+00  0.0000000000000D+00  0.0000000000000D+00
335  3.3400000000000D+00  0.0000000000000D+00  0.0000000000000D+00
336  3.3500000000000D+00  0.0000000000000D+00  0.0000000000000D+00
337  3.3600000000000D+00  0.0000000000000D+00  0.0000000000000D+00
338  3.3700000000000D+00  0.0000000000000D+00  0.0000000000000D+00
339  3.3800000000000D+00  0.0000000000000D+00  0.0000000000000D+00
340  3.3900000000000D+00  0.0000000000000D+00  0.0000000000000D+00
341  3.4000000000000D+00  0.0000000000000D+00  0.0000000000000D+00
342  3.4100000000000D+00  0.0000000000000D+00  0.0000000000000D+00
343  3.4200000000000D+00  0.0000000000000D+00  0.0000000000000D+00
344  3.4300000000000D+00  0.0000000000000D+00  0.0000000000000D+00
345  3.4400000000000D+00  0.0000000000000D+00  0.0000000000000D+00
346  3.4500000000000D+00  0.0000000000000D+00  0.0000000000000D+00
347  3.4600000000000D+00  0.0000000000000D+00  0.0000000000000D+00
348  3.4700000000000D+00  0.0000000000000D+00  0.0000000000000D+00
349  3.4800000000000D+00  0.0000000000000D+00  0.0000000000000D+00
350  3.4900000000000D+00  0.0000000000000D+00  0.0000000000000D+00
351  3.5000000000000D+00  0.0000000000000D+00  0.0000000000000D+00
352  3.5100000000000D+00  0.0000000000000D+00  0.0000000000000D+00
353  3.5200000000000D+00  0.0000000000000D+00  0.0000000000000D+00
354  3.5300000000000D+00  0.0000000000000D+00  0.0000000000000D+00
355  3.5400000000000D+00  0.0000000000000D+00  0.0000000000000D+00
356  3.5500000000000D+00  0.0000000000000D+00  0.0000000000000D+00
357  3.5600000000000D+00  0.0000000000000D+00  0.0000000000000D+00
358  3.5700000000000D+00  0.0000000000000D+00  0.0000000000000D+00
359  3.5800000000000D+00  0.0000000000000D+00  0.0000000000000D+00
360  3.5900000000000D+00  0.0000000000000D+00  0.0000000000000D+00
361  3.6000000000000D+00  0.0000000000000D+00  0.0000000000000D+00
362  3.6100000000000D+00  0.0000000000000D+00  0.0000000000000D+00
363  3.6200000000000D+00  0.0000000000000D+00  0.0000000000000D+00
364  3.6300000000000D+00  0.0000000000000D+00  0.0000000000000D+00
365  3.6400000000000D+00  0.0000000000000D+00  0.0000000000000D+00
366  3.6500000000000D+00  0.0000000000000D+00  0.0000000000000D+00
367  3.6600000000000D+00  0.0000000000000D+00  0.0000000000000D+00
368  3.6700000000000D+00  0.0000000000000D+00  0.0000000000000D+00
369  3.6800000000000D+00  0.0000000000000D+00  0.0000000000000D+00
370  3.6900000000000D+00  0.0000000000000D+00  0.0000000000000D+00
371  3.7000000000000D+00  0.0000000000000D+00  0.0000000000000D+00
372  3.7100000000000D+00  0.0000000000000D+00  0.0000000000000D+00
373  3.7200000000000D+00  0.0000000000000D+00  0.0000000000000D+00
374  3.7300000000000D+00  0.0000000000000D+00  0.0000000000000D+00
375  3.7400000000000D+00  0.0000000000000D+00  0.0000000000000D+00
376  3.7500000000000D+00  0.0000000000000D+00  0.0000000000000D+00
377  3.7600000000000D+00  0.0000000000000D+00  0.0000000000000D+00
378  3.7700000000000D+00  0.0000000000000D+00  0.0000000000000D+00
379  3.7800000000000D+00  0.0000000000000D+00  0.0000000000000D+00
380  3.7900000000000D+00  0.0000000000000D+00  0.0000000000000D+00
381  3.8000000000000D+00  0.0000000000000D+00  0.0000000000000D+00
382  3.8100000000000D+00  0.0000000000000D+00  0.0000000000000D+00
383  3.8200000000000D+00  0.0000000000000D+00  0.0000000000000D+00
384  3.8300000000000D+00  0.0000000000000D+00  0.0000000000000D+00
385  3.8400000000000D+00  0.0000000000000D+00  0.0000000000000D+00
386  3.8500000000000D+00  0.0000000000000D+00  0.0000000000000D+00
387  3.8600000000000D+00  0.0000000000000D+00  0.0000000000000D+00
388  3.8700000000000D+00  0.0000000000000D+00  0.0000000000000D+00
389  3.8800000000000D+00  0.0000000000000D+00  0.0000000000000D+00
390  3.8900000000000D+00  0.0000000000000D+00  0.0000000000000D+00
391  3.9000000000000D+00  0.0000000000000D+00  0.0000000000000D+00
392  3.9100000000000D+00  0.0000000000000D+00  0.0000000000000D+00
393  3.9200000000000D+00  0.0000000000000D+00  0.0000000000000D+00
394  3.9300000000000D+00  0.0000000000000D+00  0.0000000000000D+00
395  3.9400000000000D+00  0.0000000000000D+00  0.0000000000000D+00
396  3.9500000000000D+00  0.0000000000000D+00  0.0000000000000D+00
397  3.9600000000000D+00  0.0000000000000D+00  0.0000000000000D+00
398  3.9700000000000D+00  0.0000000000000D+00  0.0000000000000D+00
399  3.9800000000000D+00  0.0000000000000D+00  0.0000000000000D+00
400  3.9900000000000D+00  0.0000000000000D+00  0.0000000000000D+00
401  4.0000000000000D+00  0.0000000000000D+00  0.0000000000000D+00
1                        -7.0248557967783D+00 -2.1441121348258D+00
1  0.0000000000000D+00  0.0000000000000D+00  0.0000000000000D+00
2  1.0000000000000D-02  2.2610559641780D-03  9.1958545182768D-04
3  2.0000000000000D-02  9.0329128482807D-03  3.6705718904681D-03
4  3.0000000000000D-02  2.0281687192011D-02  8.2296829825672D-03
5  4.0000000000000D-02  3.5951071652389D-02  1.4558236294492D-02
6  5.0000000000000D-02  5.5962582198409D-02  2.2602310697490D-02
7  6.0000000000000D-02  8.0215903296101D-02  3.2292981165335D-02
8  7.0000000000000D-02  1.0858933018726D-01  4.3546621362251D-02
9  8.0000000000000D-02  1.4094030709441D-01  5.6265274485990D-02
10  9.0000000000000D-02  1.7710605990707D-01  7.0337092866226D-02
11  1.0000000000000D-01  2.1690432161117D-01  8.5636846810913D-02
12  1.1000000000000D-01  2.6013414842144D-01  1.0202650314307D-01
13  1.2000000000000D-01  3.0657682426142D-01  1.1935587377042D-01
14  1.3000000000000D-01  3.5599685091070D-01  1.3746333448030D-01
15  1.4000000000000D-01  4.0814302075052D-01  1.5617661390548D-01
16  1.5000000000000D-01  4.6274956879826D-01  1.7531365242993D-01
17  1.6000000000000D-01  5.1953740012345D-01  1.9468353029211D-01
18  1.7000000000000D-01  5.7821538870278D-01  2.1408746403856D-01
19  1.8000000000000D-01  6.3848174290652D-01  2.3331986964166D-01
20  1.9000000000000D-01  7.0002543299547D-01  2.5216949059609D-01
21  2.0000000000000D-01  7.6252767467389D-01  2.7042058792622D-01
22  2.1000000000000D-01  8.2566346410859D-01  2.8785419007292D-01
23  2.2000000000000D-01  8.8910315655984D-01  3.0424939732834D-01
24  2.3000000000000D-01  9.5251408354955D-01  3.1938473778695D-01
25  2.4000000000000D-01  1.0155622002963D+00  3.3303956838703D-01
26  2.5000000000000D-01  1.0779137583184D+00  3.4499551757904D-01
27  2.6000000000000D-01  1.1392369907678D+00  3.5503795792880D-01
28  2.7000000000000D-01  1.1992038094955D+00  3.6295750908163D-01
29  2.8000000000000D-01  1.2574914978317D+00  3.6855155457284D-01
30  2.9000000000000D-01  1.3137843960288D+00  3.7162577002727D-01
31  3.0000000000000D-01  1.3677755679219D+00  3.7199565053831D-01
32  3.1000000000000D-01  1.4191684400995D+00  3.6948802765188D-01
33  3.2000000000000D-01  1.4676784038756D+00  3.6394256443993D-01
34  3.3000000000000D-01  1.5130343732459D+00  3.5521322216977D-01
35  3.4000000000000D-01  1.5549802842202D+00  3.4316967823960D-01
36  3.5000000000000D-01  1.5932765319001D+00  3.2769869278438D-01
37  3.6000000000000D-01  1.6277013322965D+00  3.0870540674554D-01
38  3.7000000000000D-01  1.6580520004662D+00  2.8611456039104D-01
39  3.8000000000000D-01  1.6841461387601D+00  2.5987162039788D-01
40  3.9000000000000D-01  1.7058227212058D+00  2.2994380371945D-01
41  4.0000000000000D-01  1.7229430693673D+00  1.9632098448648D-01
42  4.1000000000000D-01  1.7353917143397D+00  1.5901647645677D-01