Ne    ONCVPSP  r_core=  1.15  1.41
10.0000      8.0000      140817    zatom,zion,pspd
8    11     1     4   401     0    pspcod,pspxc,lmax,lloc,mmax,r2well
4.00000000  0.10000000  0.00000000    rchrg fchrg qchrg
2     2     0     0     0    nproj
0                 extension_switch
0                         4.6271689968191D+00 -1.8918363774489D-01
1  0.0000000000000D+00 -0.0000000000000D+00 -0.0000000000000D+00
2  1.0000000000000D-02 -1.0822812615937D-01 -8.7580367902989D-03
3  2.0000000000000D-02 -2.1609020499243D-01 -1.6952017989160D-02
4  3.0000000000000D-02 -3.2322108973087D-01 -2.4030248832724D-02
5  4.0000000000000D-02 -4.2925744302823D-01 -2.9465537001191D-02
6  5.0000000000000D-02 -5.3383866219004D-01 -3.2766899356895D-02
7  6.0000000000000D-02 -6.3660782834147D-01 -3.3490625145950D-02
8  7.0000000000000D-02 -7.3721268638935D-01 -3.1250497470845D-02
9  8.0000000000000D-02 -8.3530666168319D-01 -2.5726988342861D-02
10  9.0000000000000D-02 -9.3054991815649D-01 -1.6675259452196D-02
11  1.0000000000000D-01 -1.0226104613807D+00 -3.9318199642372D-03
12  1.1000000000000D-01 -1.1111652884900D+00  1.2580285349003D-02
13  1.2000000000000D-01 -1.1959015853344D+00  3.2847860311756D-02
14  1.3000000000000D-01 -1.2765179695317D+00  5.6765590923892D-02
15  1.4000000000000D-01 -1.3527257760169D+00  8.4135778659922D-02
16  1.5000000000000D-01 -1.4242503806583D+00  1.1466979456004D-01
17  1.6000000000000D-01 -1.4908325541859D+00  1.4799124830466D-01
18  1.7000000000000D-01 -1.5522298391708D+00  1.8364083712334D-01
19  1.8000000000000D-01 -1.6082179380443D+00  2.2108280986430D-01
20  1.9000000000000D-01 -1.6585921022543D+00  2.5971295970845D-01
21  2.0000000000000D-01 -1.7031685054759D+00  2.9886801488218D-01
22  2.1000000000000D-01 -1.7417855932211D+00  3.3783631910618D-01
23  2.2000000000000D-01 -1.7743053829007D+00  3.7586959021267D-01
24  2.3000000000000D-01 -1.8006147066324D+00  4.1219561823851D-01
25  2.4000000000000D-01 -1.8206263717822D+00  4.4603165397652D-01
26  2.5000000000000D-01 -1.8342802343651D+00  4.7659838507294D-01
27  2.6000000000000D-01 -1.8415441407529D+00  5.0313403066101D-01
28  2.7000000000000D-01 -1.8424147597766D+00  5.2490870247831D-01
29  2.8000000000000D-01 -1.8369182452203D+00  5.4123837312353D-01
30  2.9000000000000D-01 -1.8251107436599D+00  5.5149853420507D-01
31  3.0000000000000D-01 -1.8070787180462D+00  5.5513717137532D-01
32  3.1000000000000D-01 -1.7829390753608D+00  5.5168685346814D-01
33  3.2000000000000D-01 -1.7528390838604D+00  5.4077564290670D-01
34  3.3000000000000D-01 -1.7169560819602D+00  5.2213698167955D-01
35  3.4000000000000D-01 -1.6754969446258D+00  4.9561771260321D-01
36  3.5000000000000D-01 -1.6286973299968D+00  4.6118472776233D-01
37  3.6000000000000D-01 -1.5768206841332D+00  4.1892978919817D-01
38  3.7000000000000D-01 -1.5201570070808D+00  3.6907248904886D-01
39  3.8000000000000D-01 -1.4590213954550D+00  3.1196102900588D-01
40  3.9000000000000D-01 -1.3937523398365D+00  2.4807134292183D-01
41  4.0000000000000D-01 -1.3247098039303D+00  1.7800393280320D-01
42  4.1000000000000D-01 -1.2522731058439D+00  1.0247866943515D-01
43  4.2000000000000D-01 -1.1768385902837D+00  2.2327703657742D-02
44  4.3000000000000D-01 -1.0988171231934D+00 -6.1513579384721D-02
45  4.4000000000000D-01 -1.0186314252876D+00 -1.4801741988069D-01
46  4.5000000000000D-01 -9.3671326628250D-01 -2.3607622203805D-01
47  4.6000000000000D-01 -8.5350054444160D-01 -3.2451660782606D-01
48  4.7000000000000D-01 -7.6943429946555D-01 -4.1211472546243D-01
49  4.8000000000000D-01 -6.8495565269150D-01 -4.9761265862527D-01
50  4.9000000000000D-01 -6.0050258160591D-01 -5.7973624716588D-01
51  5.0000000000000D-01 -5.1650693997631D-01 -6.5721273358204D-01
52  5.1000000000000D-01 -4.3339148955236D-01 -7.2878861446113D-01
53  5.2000000000000D-01 -3.5156661509074D-01 -7.9324921760611D-01
54  5.3000000000000D-01 -2.7142745595976D-01 -8.4943694030628D-01
55  5.4000000000000D-01 -1.9335162258668D-01 -8.9626657666595D-01
56  5.5000000000000D-01 -1.1769548200226D-01 -9.3274757122447D-01
57  5.6000000000000D-01 -4.4792967495935D-02 -9.5799394493238D-01
58  5.7000000000000D-01  2.5047878938446D-02 -9.7124512969896D-01
59  5.8000000000000D-01  9.1545799491024D-02 -9.7187355535385D-01
60  5.9000000000000D-01  1.5444935029633D-01 -9.5940289062218D-01
61  6.0000000000000D-01  2.1353681239895D-01 -9.3350934004425D-01
62  6.1000000000000D-01  2.6861930582882D-01 -8.9403953696994D-01
63  6.2000000000000D-01  3.1953998866950D-01 -8.4100676213994D-01
64  6.3000000000000D-01  3.6617551921112D-01 -7.7459872443061D-01
65  6.4000000000000D-01  4.0843649681018D-01 -6.9517908534175D-01
66  6.5000000000000D-01  4.4626666735529D-01 -6.0328166494480D-01
67  6.6000000000000D-01  4.7964311629536D-01 -4.9960916117796D-01
68  6.7000000000000D-01  5.0857575407068D-01 -3.8502713043884D-01
69  6.8000000000000D-01  5.3310583181617D-01 -2.6055235325228D-01
70  6.9000000000000D-01  5.5330481276356D-01 -1.2734241092466D-01
71  7.0000000000000D-01  5.6927312056853D-01  1.3316660432390D-02
72  7.1000000000000D-01  5.8113818560246D-01  1.6002673031043D-01
73  7.2000000000000D-01  5.8905231742757D-01  3.1129500548214D-01
74  7.3000000000000D-01  5.9319057227935D-01  4.6555240261013D-01
75  7.4000000000000D-01  5.9374836191802D-01  6.2117352571127D-01
76  7.5000000000000D-01  5.9093898533120D-01  7.7649665647532D-01
77  7.6000000000000D-01  5.8499081049379D-01  9.2984818504592D-01
78  7.7000000000000D-01  5.7614463137037D-01  1.0795626450344D+00
79  7.8000000000000D-01  5.6465089020977D-01  1.2240053114770D+00
80  7.9000000000000D-01  5.5076688712127D-01  1.3615942563257D+00
81  8.0000000000000D-01  5.3475401678215D-01  1.4908217958638D+00
82  8.1000000000000D-01  5.1687506279322D-01  1.6102750826231D+00
83  8.2000000000000D-01  4.9739158260690D-01  1.7186555385685D+00
84  8.3000000000000D-01  4.7656141425985D-01  1.8147968423297D+00
85  8.4000000000000D-01  4.5463633403649D-01  1.8976812035421D+00
86  8.5000000000000D-01  4.3185989171321D-01  1.9664536815252D+00
87  8.6000000000000D-01  4.0846544722157D-01  2.0204343332400D+00
88  8.7000000000000D-01  3.8467442946030D-01  2.0591280063817D+00
89  8.8000000000000D-01  3.6069483460975D-01  2.0822316272878D+00
90  8.9000000000000D-01  3.3671997768542D-01  2.0896388698220D+00
91  9.0000000000000D-01  3.1292750723252D-01  2.0814421302946D+00
92  9.1000000000000D-01  2.8947868903207D-01  2.0579317745716D+00
93  9.2000000000000D-01  2.6651796048857D-01  2.0195926665014D+00
94  9.3000000000000D-01  2.4417275303539D-01  1.9670980312499D+00
95  9.4000000000000D-01  2.2255357548289D-01  1.9013007524404D+00
96  9.5000000000000D-01  2.0175464733223D-01  1.8232208852533D+00
97  9.6000000000000D-01  1.8185371837628D-01  1.7340364429621D+00
98  9.7000000000000D-01  1.6291314417732D-01  1.6350654344548D+00
99  9.8000000000000D-01  1.4498123314474D-01  1.5277470237052D+00
100  9.9000000000000D-01  1.2809319348030D-01  1.4136237600798D+00
101  1.0000000000000D+00  1.1227243564078D-01  1.2943214798046D+00
102  1.0100000000000D+00  9.7531983852333D-02  1.1715283710235D+00
103  1.0200000000000D+00  8.3876108002107D-02  1.0469763353993D+00
104  1.0300000000000D+00  7.1301298705335D-02  9.2241511357262D-01
105  1.0400000000000D+00  5.9798368111133D-02  7.9958810799428D-01
106  1.0500000000000D+00  4.9354089963212D-02  6.8021507212745D-01
107  1.0600000000000D+00  3.9952550040316D-02  5.6597090902939D-01
108  1.0700000000000D+00  3.1576404546978D-02  4.5847299513912D-01
109  1.0800000000000D+00  2.4208268055854D-02  3.5925405565322D-01
110  1.0900000000000D+00  1.7832406387334D-02  2.6973539978089D-01
111  1.1000000000000D+00  1.2435255563127D-02  1.9123288920361D-01
112  1.1100000000000D+00  8.0062684171063D-03  1.2493995406077D-01
113  1.1200000000000D+00  4.5379169521254D-03  7.1936292991544D-02
114  1.1300000000000D+00  2.0296021031004D-03  3.3077115358910D-02
115  1.1400000000000D+00  5.1603717363631D-04  9.5149180360035D-03
116  1.1500000000000D+00 -6.3529002031892D-05  4.5880683793652D-04
117  1.1600000000000D+00 -7.2020873965841D-05 -6.6963230877701D-04
118  1.1700000000000D+00  5.2829767706229D-06 -1.2722975438321D-05
119  1.1800000000000D+00  0.0000000000000D+00  0.0000000000000D+00
120  1.1900000000000D+00  0.0000000000000D+00  0.0000000000000D+00
121  1.2000000000000D+00  0.0000000000000D+00  0.0000000000000D+00
122  1.2100000000000D+00  0.0000000000000D+00  0.0000000000000D+00
123  1.2200000000000D+00  0.0000000000000D+00  0.0000000000000D+00
124  1.2300000000000D+00  0.0000000000000D+00  0.0000000000000D+00
125  1.2400000000000D+00  0.0000000000000D+00  0.0000000000000D+00
126  1.2500000000000D+00  0.0000000000000D+00  0.0000000000000D+00
127  1.2600000000000D+00  0.0000000000000D+00  0.0000000000000D+00
128  1.2700000000000D+00  0.0000000000000D+00  0.0000000000000D+00
129  1.2800000000000D+00  0.0000000000000D+00  0.0000000000000D+00
130  1.2900000000000D+00  0.0000000000000D+00  0.0000000000000D+00
131  1.3000000000000D+00  0.0000000000000D+00  0.0000000000000D+00
132  1.3100000000000D+00  0.0000000000000D+00  0.0000000000000D+00
133  1.3200000000000D+00  0.0000000000000D+00  0.0000000000000D+00
134  1.3300000000000D+00  0.0000000000000D+00  0.0000000000000D+00
135  1.3400000000000D+00  0.0000000000000D+00  0.0000000000000D+00
136  1.3500000000000D+00  0.0000000000000D+00  0.0000000000000D+00
137  1.3600000000000D+00  0.0000000000000D+00  0.0000000000000D+00
138  1.3700000000000D+00  0.0000000000000D+00  0.0000000000000D+00
139  1.3800000000000D+00  0.0000000000000D+00  0.0000000000000D+00
140  1.3900000000000D+00  0.0000000000000D+00  0.0000000000000D+00
141  1.4000000000000D+00  0.0000000000000D+00  0.0000000000000D+00
142  1.4100000000000D+00  0.0000000000000D+00  0.0000000000000D+00
143  1.4200000000000D+00  0.0000000000000D+00  0.0000000000000D+00
144  1.4300000000000D+00  0.0000000000000D+00  0.0000000000000D+00
145  1.4400000000000D+00  0.0000000000000D+00  0.0000000000000D+00
146  1.4500000000000D+00  0.0000000000000D+00  0.0000000000000D+00
147  1.4600000000000D+00  0.0000000000000D+00  0.0000000000000D+00
148  1.4700000000000D+00  0.0000000000000D+00  0.0000000000000D+00
149  1.4800000000000D+00  0.0000000000000D+00  0.0000000000000D+00
150  1.4900000000000D+00  0.0000000000000D+00  0.0000000000000D+00
151  1.5000000000000D+00  0.0000000000000D+00  0.0000000000000D+00
152  1.5100000000000D+00  0.0000000000000D+00  0.0000000000000D+00
153  1.5200000000000D+00  0.0000000000000D+00  0.0000000000000D+00
154  1.5300000000000D+00  0.0000000000000D+00  0.0000000000000D+00
155  1.5400000000000D+00  0.0000000000000D+00  0.0000000000000D+00
156  1.5500000000000D+00  0.0000000000000D+00  0.0000000000000D+00
157  1.5600000000000D+00  0.0000000000000D+00  0.0000000000000D+00
158  1.5700000000000D+00  0.0000000000000D+00  0.0000000000000D+00
159  1.5800000000000D+00  0.0000000000000D+00  0.0000000000000D+00
160  1.5900000000000D+00  0.0000000000000D+00  0.0000000000000D+00
161  1.6000000000000D+00  0.0000000000000D+00  0.0000000000000D+00
162  1.6100000000000D+00  0.0000000000000D+00  0.0000000000000D+00
163  1.6200000000000D+00  0.0000000000000D+00  0.0000000000000D+00
164  1.6300000000000D+00  0.0000000000000D+00  0.0000000000000D+00
165  1.6400000000000D+00  0.0000000000000D+00  0.0000000000000D+00
166  1.6500000000000D+00  0.0000000000000D+00  0.0000000000000D+00
167  1.6600000000000D+00  0.0000000000000D+00  0.0000000000000D+00
168  1.6700000000000D+00  0.0000000000000D+00  0.0000000000000D+00
169  1.6800000000000D+00  0.0000000000000D+00  0.0000000000000D+00
170  1.6900000000000D+00  0.0000000000000D+00  0.0000000000000D+00
171  1.7000000000000D+00  0.0000000000000D+00  0.0000000000000D+00
172  1.7100000000000D+00  0.0000000000000D+00  0.0000000000000D+00
173  1.7200000000000D+00  0.0000000000000D+00  0.0000000000000D+00
174  1.7300000000000D+00  0.0000000000000D+00  0.0000000000000D+00
175  1.7400000000000D+00  0.0000000000000D+00  0.0000000000000D+00
176  1.7500000000000D+00  0.0000000000000D+00  0.0000000000000D+00
177  1.7600000000000D+00  0.0000000000000D+00  0.0000000000000D+00
178  1.7700000000000D+00  0.0000000000000D+00  0.0000000000000D+00
179  1.7800000000000D+00  0.0000000000000D+00  0.0000000000000D+00
180  1.7900000000000D+00  0.0000000000000D+00  0.0000000000000D+00
181  1.8000000000000D+00  0.0000000000000D+00  0.0000000000000D+00
182  1.8100000000000D+00  0.0000000000000D+00  0.0000000000000D+00
183  1.8200000000000D+00  0.0000000000000D+00  0.0000000000000D+00
184  1.8300000000000D+00  0.0000000000000D+00  0.0000000000000D+00
185  1.8400000000000D+00  0.0000000000000D+00  0.0000000000000D+00
186  1.8500000000000D+00  0.0000000000000D+00  0.0000000000000D+00
187  1.8600000000000D+00  0.0000000000000D+00  0.0000000000000D+00
188  1.8700000000000D+00  0.0000000000000D+00  0.0000000000000D+00
189  1.8800000000000D+00  0.0000000000000D+00  0.0000000000000D+00
190  1.8900000000000D+00  0.0000000000000D+00  0.0000000000000D+00
191  1.9000000000000D+00  0.0000000000000D+00  0.0000000000000D+00
192  1.9100000000000D+00  0.0000000000000D+00  0.0000000000000D+00
193  1.9200000000000D+00  0.0000000000000D+00  0.0000000000000D+00
194  1.9300000000000D+00  0.0000000000000D+00  0.0000000000000D+00
195  1.9400000000000D+00  0.0000000000000D+00  0.0000000000000D+00
196  1.9500000000000D+00  0.0000000000000D+00  0.0000000000000D+00
197  1.9600000000000D+00  0.0000000000000D+00  0.0000000000000D+00
198  1.9700000000000D+00  0.0000000000000D+00  0.0000000000000D+00
199  1.9800000000000D+00  0.0000000000000D+00  0.0000000000000D+00
200  1.9900000000000D+00  0.0000000000000D+00  0.0000000000000D+00
201  2.0000000000000D+00  0.0000000000000D+00  0.0000000000000D+00
202  2.0100000000000D+00  0.0000000000000D+00  0.0000000000000D+00
203  2.0200000000000D+00  0.0000000000000D+00  0.0000000000000D+00
204  2.0300000000000D+00  0.0000000000000D+00  0.0000000000000D+00
205  2.0400000000000D+00  0.0000000000000D+00  0.0000000000000D+00
206  2.0500000000000D+00  0.0000000000000D+00  0.0000000000000D+00
207  2.0600000000000D+00  0.0000000000000D+00  0.0000000000000D+00
208  2.0700000000000D+00  0.0000000000000D+00  0.0000000000000D+00
209  2.0800000000000D+00  0.0000000000000D+00  0.0000000000000D+00
210  2.0900000000000D+00  0.0000000000000D+00  0.0000000000000D+00
211  2.1000000000000D+00  0.0000000000000D+00  0.0000000000000D+00
212  2.1100000000000D+00  0.0000000000000D+00  0.0000000000000D+00
213  2.1200000000000D+00  0.0000000000000D+00  0.0000000000000D+00
214  2.1300000000000D+00  0.0000000000000D+00  0.0000000000000D+00
215  2.1400000000000D+00  0.0000000000000D+00  0.0000000000000D+00
216  2.1500000000000D+00  0.0000000000000D+00  0.0000000000000D+00
217  2.1600000000000D+00  0.0000000000000D+00  0.0000000000000D+00
218  2.1700000000000D+00  0.0000000000000D+00  0.0000000000000D+00
219  2.1800000000000D+00  0.0000000000000D+00  0.0000000000000D+00
220  2.1900000000000D+00  0.0000000000000D+00  0.0000000000000D+00
221  2.2000000000000D+00  0.0000000000000D+00  0.0000000000000D+00
222  2.2100000000000D+00  0.0000000000000D+00  0.0000000000000D+00
223  2.2200000000000D+00  0.0000000000000D+00  0.0000000000000D+00
224  2.2300000000000D+00  0.0000000000000D+00  0.0000000000000D+00
225  2.2400000000000D+00  0.0000000000000D+00  0.0000000000000D+00
226  2.2500000000000D+00  0.0000000000000D+00  0.0000000000000D+00
227  2.2600000000000D+00  0.0000000000000D+00  0.0000000000000D+00
228  2.2700000000000D+00  0.0000000000000D+00  0.0000000000000D+00
229  2.2800000000000D+00  0.0000000000000D+00  0.0000000000000D+00
230  2.2900000000000D+00  0.0000000000000D+00  0.0000000000000D+00
231  2.3000000000000D+00  0.0000000000000D+00  0.0000000000000D+00
232  2.3100000000000D+00  0.0000000000000D+00  0.0000000000000D+00
233  2.3200000000000D+00  0.0000000000000D+00  0.0000000000000D+00
234  2.3300000000000D+00  0.0000000000000D+00  0.0000000000000D+00
235  2.3400000000000D+00  0.0000000000000D+00  0.0000000000000D+00
236  2.3500000000000D+00  0.0000000000000D+00  0.0000000000000D+00
237  2.3600000000000D+00  0.0000000000000D+00  0.0000000000000D+00
238  2.3700000000000D+00  0.0000000000000D+00  0.0000000000000D+00
239  2.3800000000000D+00  0.0000000000000D+00  0.0000000000000D+00
240  2.3900000000000D+00  0.0000000000000D+00  0.0000000000000D+00
241  2.4000000000000D+00  0.0000000000000D+00  0.0000000000000D+00
242  2.4100000000000D+00  0.0000000000000D+00  0.0000000000000D+00
243  2.4200000000000D+00  0.0000000000000D+00  0.0000000000000D+00
244  2.4300000000000D+00  0.0000000000000D+00  0.0000000000000D+00
245  2.4400000000000D+00  0.0000000000000D+00  0.0000000000000D+00
246  2.4500000000000D+00  0.0000000000000D+00  0.0000000000000D+00
247  2.4600000000000D+00  0.0000000000000D+00  0.0000000000000D+00
248  2.4700000000000D+00  0.0000000000000D+00  0.0000000000000D+00
249  2.4800000000000D+00  0.0000000000000D+00  0.0000000000000D+00
250  2.4900000000000D+00  0.0000000000000D+00  0.0000000000000D+00
251  2.5000000000000D+00  0.0000000000000D+00  0.0000000000000D+00
252  2.5100000000000D+00  0.0000000000000D+00  0.0000000000000D+00
253  2.5200000000000D+00  0.0000000000000D+00  0.0000000000000D+00
254  2.5300000000000D+00  0.0000000000000D+00  0.0000000000000D+00
255  2.5400000000000D+00  0.0000000000000D+00  0.0000000000000D+00
256  2.5500000000000D+00  0.0000000000000D+00  0.0000000000000D+00
257  2.5600000000000D+00  0.0000000000000D+00  0.0000000000000D+00
258  2.5700000000000D+00  0.0000000000000D+00  0.0000000000000D+00
259  2.5800000000000D+00  0.0000000000000D+00  0.0000000000000D+00
260  2.5900000000000D+00  0.0000000000000D+00  0.0000000000000D+00
261  2.6000000000000D+00  0.0000000000000D+00  0.0000000000000D+00
262  2.6100000000000D+00  0.0000000000000D+00  0.0000000000000D+00
263  2.6200000000000D+00  0.0000000000000D+00  0.0000000000000D+00
264  2.6300000000000D+00  0.0000000000000D+00  0.0000000000000D+00
265  2.6400000000000D+00  0.0000000000000D+00  0.0000000000000D+00
266  2.6500000000000D+00  0.0000000000000D+00  0.0000000000000D+00
267  2.6600000000000D+00  0.0000000000000D+00  0.0000000000000D+00
268  2.6700000000000D+00  0.0000000000000D+00  0.0000000000000D+00
269  2.6800000000000D+00  0.0000000000000D+00  0.0000000000000D+00
270  2.6900000000000D+00  0.0000000000000D+00  0.0000000000000D+00
271  2.7000000000000D+00  0.0000000000000D+00  0.0000000000000D+00
272  2.7100000000000D+00  0.0000000000000D+00  0.0000000000000D+00
273  2.7200000000000D+00  0.0000000000000D+00  0.0000000000000D+00
274  2.7300000000000D+00  0.0000000000000D+00  0.0000000000000D+00
275  2.7400000000000D+00  0.0000000000000D+00  0.0000000000000D+00
276  2.7500000000000D+00  0.0000000000000D+00  0.0000000000000D+00
277  2.7600000000000D+00  0.0000000000000D+00  0.0000000000000D+00
278  2.7700000000000D+00  0.0000000000000D+00  0.0000000000000D+00
279  2.7800000000000D+00  0.0000000000000D+00  0.0000000000000D+00
280  2.7900000000000D+00  0.0000000000000D+00  0.0000000000000D+00
281  2.8000000000000D+00  0.0000000000000D+00  0.0000000000000D+00
282  2.8100000000000D+00  0.0000000000000D+00  0.0000000000000D+00
283  2.8200000000000D+00  0.0000000000000D+00  0.0000000000000D+00
284  2.8300000000000D+00  0.0000000000000D+00  0.0000000000000D+00
285  2.8400000000000D+00  0.0000000000000D+00  0.0000000000000D+00
286  2.8500000000000D+00  0.0000000000000D+00  0.0000000000000D+00
287  2.8600000000000D+00  0.0000000000000D+00  0.0000000000000D+00
288  2.8700000000000D+00  0.0000000000000D+00  0.0000000000000D+00
289  2.8800000000000D+00  0.0000000000000D+00  0.0000000000000D+00
290  2.8900000000000D+00  0.0000000000000D+00  0.0000000000000D+00
291  2.9000000000000D+00  0.0000000000000D+00  0.0000000000000D+00
292  2.9100000000000D+00  0.0000000000000D+00  0.0000000000000D+00
293  2.9200000000000D+00  0.0000000000000D+00  0.0000000000000D+00
294  2.9300000000000D+00  0.0000000000000D+00  0.0000000000000D+00
295  2.9400000000000D+00  0.0000000000000D+00  0.0000000000000D+00
296  2.9500000000000D+00  0.0000000000000D+00  0.0000000000000D+00
297  2.9600000000000D+00  0.0000000000000D+00  0.0000000000000D+00
298  2.9700000000000D+00  0.0000000000000D+00  0.0000000000000D+00
299  2.9800000000000D+00  0.0000000000000D+00  0.0000000000000D+00
300  2.9900000000000D+00  0.0000000000000D+00  0.0000000000000D+00
301  3.0000000000000D+00  0.0000000000000D+00  0.0000000000000D+00
302  3.0100000000000D+00  0.0000000000000D+00  0.0000000000000D+00
303  3.0200000000000D+00  0.0000000000000D+00  0.0000000000000D+00
304  3.0300000000000D+00  0.0000000000000D+00  0.0000000000000D+00
305  3.0400000000000D+00  0.0000000000000D+00  0.0000000000000D+00
306  3.0500000000000D+00  0.0000000000000D+00  0.0000000000000D+00
307  3.0600000000000D+00  0.0000000000000D+00  0.0000000000000D+00
308  3.0700000000000D+00  0.0000000000000D+00  0.0000000000000D+00
309  3.0800000000000D+00  0.0000000000000D+00  0.0000000000000D+00
310  3.0900000000000D+00  0.0000000000000D+00  0.0000000000000D+00
311  3.1000000000000D+00  0.0000000000000D+00  0.0000000000000D+00
312  3.1100000000000D+00  0.0000000000000D+00  0.0000000000000D+00
313  3.1200000000000D+00  0.0000000000000D+00  0.0000000000000D+00
314  3.1300000000000D+00  0.0000000000000D+00  0.0000000000000D+00
315  3.1400000000000D+00  0.0000000000000D+00  0.0000000000000D+00
316  3.1500000000000D+00  0.0000000000000D+00  0.0000000000000D+00
317  3.1600000000000D+00  0.0000000000000D+00  0.0000000000000D+00
318  3.1700000000000D+00  0.0000000000000D+00  0.0000000000000D+00
319  3.1800000000000D+00  0.0000000000000D+00  0.0000000000000D+00
320  3.1900000000000D+00  0.0000000000000D+00  0.0000000000000D+00
321  3.2000000000000D+00  0.0000000000000D+00  0.0000000000000D+00
322  3.2100000000000D+00  0.0000000000000D+00  0.0000000000000D+00
323  3.2200000000000D+00  0.0000000000000D+00  0.0000000000000D+00
324  3.2300000000000D+00  0.0000000000000D+00  0.0000000000000D+00
325  3.2400000000000D+00  0.0000000000000D+00  0.0000000000000D+00
326  3.2500000000000D+00  0.0000000000000D+00  0.0000000000000D+00
327  3.2600000000000D+00  0.0000000000000D+00  0.0000000000000D+00
328  3.2700000000000D+00  0.0000000000000D+00  0.0000000000000D+00
329  3.2800000000000D+00  0.0000000000000D+00  0.0000000000000D+00
330  3.2900000000000D+00  0.0000000000000D+00  0.0000000000000D+00
331  3.3000000000000D+00  0.0000000000000D+00  0.0000000000000D+00
332  3.3100000000000D+00  0.0000000000000D+00  0.0000000000000D+00
333  3.3200000000000D+00  0.0000000000000D+00  0.0000000000000D+00
334  3.3300000000000D+00  0.0000000000000D+00  0.0000000000000D+00
335  3.3400000000000D+00  0.0000000000000D+00  0.0000000000000D+00
336  3.3500000000000D+00  0.0000000000000D+00  0.0000000000000D+00
337  3.3600000000000D+00  0.0000000000000D+00  0.0000000000000D+00
338  3.3700000000000D+00  0.0000000000000D+00  0.0000000000000D+00
339  3.3800000000000D+00  0.0000000000000D+00  0.0000000000000D+00
340  3.3900000000000D+00  0.0000000000000D+00  0.0000000000000D+00
341  3.4000000000000D+00  0.0000000000000D+00  0.0000000000000D+00
342  3.4100000000000D+00  0.0000000000000D+00  0.0000000000000D+00
343  3.4200000000000D+00  0.0000000000000D+00  0.0000000000000D+00
344  3.4300000000000D+00  0.0000000000000D+00  0.0000000000000D+00
345  3.4400000000000D+00  0.0000000000000D+00  0.0000000000000D+00
346  3.4500000000000D+00  0.0000000000000D+00  0.0000000000000D+00
347  3.4600000000000D+00  0.0000000000000D+00  0.0000000000000D+00
348  3.4700000000000D+00  0.0000000000000D+00  0.0000000000000D+00
349  3.4800000000000D+00  0.0000000000000D+00  0.0000000000000D+00
350  3.4900000000000D+00  0.0000000000000D+00  0.0000000000000D+00
351  3.5000000000000D+00  0.0000000000000D+00  0.0000000000000D+00
352  3.5100000000000D+00  0.0000000000000D+00  0.0000000000000D+00
353  3.5200000000000D+00  0.0000000000000D+00  0.0000000000000D+00
354  3.5300000000000D+00  0.0000000000000D+00  0.0000000000000D+00
355  3.5400000000000D+00  0.0000000000000D+00  0.0000000000000D+00
356  3.5500000000000D+00  0.0000000000000D+00  0.0000000000000D+00
357  3.5600000000000D+00  0.0000000000000D+00  0.0000000000000D+00
358  3.5700000000000D+00  0.0000000000000D+00  0.0000000000000D+00
359  3.5800000000000D+00  0.0000000000000D+00  0.0000000000000D+00
360  3.5900000000000D+00  0.0000000000000D+00  0.0000000000000D+00
361  3.6000000000000D+00  0.0000000000000D+00  0.0000000000000D+00
362  3.6100000000000D+00  0.0000000000000D+00  0.0000000000000D+00
363  3.6200000000000D+00  0.0000000000000D+00  0.0000000000000D+00
364  3.6300000000000D+00  0.0000000000000D+00  0.0000000000000D+00
365  3.6400000000000D+00  0.0000000000000D+00  0.0000000000000D+00
366  3.6500000000000D+00  0.0000000000000D+00  0.0000000000000D+00
367  3.6600000000000D+00  0.0000000000000D+00  0.0000000000000D+00
368  3.6700000000000D+00  0.0000000000000D+00  0.0000000000000D+00
369  3.6800000000000D+00  0.0000000000000D+00  0.0000000000000D+00
370  3.6900000000000D+00  0.0000000000000D+00  0.0000000000000D+00
371  3.7000000000000D+00  0.0000000000000D+00  0.0000000000000D+00
372  3.7100000000000D+00  0.0000000000000D+00  0.0000000000000D+00
373  3.7200000000000D+00  0.0000000000000D+00  0.0000000000000D+00
374  3.7300000000000D+00  0.0000000000000D+00  0.0000000000000D+00
375  3.7400000000000D+00  0.0000000000000D+00  0.0000000000000D+00
376  3.7500000000000D+00  0.0000000000000D+00  0.0000000000000D+00
377  3.7600000000000D+00  0.0000000000000D+00  0.0000000000000D+00
378  3.7700000000000D+00  0.0000000000000D+00  0.0000000000000D+00
379  3.7800000000000D+00  0.0000000000000D+00  0.0000000000000D+00
380  3.7900000000000D+00  0.0000000000000D+00  0.0000000000000D+00
381  3.8000000000000D+00  0.0000000000000D+00  0.0000000000000D+00
382  3.8100000000000D+00  0.0000000000000D+00  0.0000000000000D+00
383  3.8200000000000D+00  0.0000000000000D+00  0.0000000000000D+00
384  3.8300000000000D+00  0.0000000000000D+00  0.0000000000000D+00
385  3.8400000000000D+00  0.0000000000000D+00  0.0000000000000D+00
386  3.8500000000000D+00  0.0000000000000D+00  0.0000000000000D+00
387  3.8600000000000D+00  0.0000000000000D+00  0.0000000000000D+00
388  3.8700000000000D+00  0.0000000000000D+00  0.0000000000000D+00
389  3.8800000000000D+00  0.0000000000000D+00  0.0000000000000D+00
390  3.8900000000000D+00  0.0000000000000D+00  0.0000000000000D+00
391  3.9000000000000D+00  0.0000000000000D+00  0.0000000000000D+00
392  3.9100000000000D+00  0.0000000000000D+00  0.0000000000000D+00
393  3.9200000000000D+00  0.0000000000000D+00  0.0000000000000D+00
394  3.9300000000000D+00  0.0000000000000D+00  0.0000000000000D+00
395  3.9400000000000D+00  0.0000000000000D+00  0.0000000000000D+00
396  3.9500000000000D+00  0.0000000000000D+00  0.0000000000000D+00
397  3.9600000000000D+00  0.0000000000000D+00  0.0000000000000D+00
398  3.9700000000000D+00  0.0000000000000D+00  0.0000000000000D+00
399  3.9800000000000D+00  0.0000000000000D+00  0.0000000000000D+00
400  3.9900000000000D+00  0.0000000000000D+00  0.0000000000000D+00
401  4.0000000000000D+00  0.0000000000000D+00  0.0000000000000D+00
1                        -6.3098003538832D+00 -2.0079767698223D+00
1  0.0000000000000D+00  0.0000000000000D+00  0.0000000000000D+00
2  1.0000000000000D-02  2.3235995718043D-03  7.8647687326706D-04
3  2.0000000000000D-02  9.2831338989654D-03  3.1394553770091D-03
4  3.0000000000000D-02  2.0844846909044D-02  7.0395892993588D-03
5  4.0000000000000D-02  3.6952602259191D-02  1.2454669209366D-02
6  5.0000000000000D-02  5.7528069475630D-02  1.9339675465506D-02
7  6.0000000000000D-02  8.2470985475561D-02  2.7636855642557D-02
8  7.0000000000000D-02  1.1165949235448D-01  3.7275829507927D-02
9  8.0000000000000D-02  1.4495055251178D-01  4.8173725454769D-02
10  9.0000000000000D-02  1.8218044233444D-01  6.0235352990101D-02
11  1.0000000000000D-01  2.2316532574912D-01  7.3353416462863D-02
12  1.1000000000000D-01  2.6770190898446D-01  8.7408775686713D-02
13  1.2000000000000D-01  3.1556817785094D-01  1.0227075945225D-01
14  1.3000000000000D-01  3.6652421874162D-01  1.1779753812444D-01
15  1.4000000000000D-01  4.2031312433015D-01  1.3383656154084D-01
16  1.5000000000000D-01  4.7666198478659D-01  1.5022506838617D-01
17  1.6000000000000D-01  5.3528296476848D-01  1.6679067280143D-01
18  1.7000000000000D-01  5.9587446635486D-01  1.8335203378707D-01
19  1.8000000000000D-01  6.5812237711109D-01  1.9971961201597D-01
20  1.9000000000000D-01  7.2170140249472D-01  2.1569651838930D-01
21  2.0000000000000D-01  7.8627648013236D-01  2.3107945688143D-01
22  2.1000000000000D-01  8.5150427480970D-01  2.4565976501901D-01
23  2.2000000000000D-01  9.1703474890743D-01  2.5922455108628D-01
24  2.3000000000000D-01  9.8251280590137D-01  2.7155792930306D-01
25  2.4000000000000D-01  1.0475800002538D+00  2.8244234950142D-01
26  2.5000000000000D-01  1.1118763109176D+00  2.9166002150033D-01
27  2.6000000000000D-01  1.1750419648121D+00  2.9899442168843D-01
28  2.7000000000000D-01  1.2367193128010D+00  3.0423188719153D-01
29  2.8000000000000D-01  1.2965547380448D+00  3.0716327636182D-01
30  2.9000000000000D-01  1.3542005955120D+00  3.0758569574708D-01
31  3.0000000000000D-01  1.4093171683292D+00  3.0530427787606D-01
32  3.1000000000000D-01  1.4615746301704D+00  3.0013399767807D-01
33  3.2000000000000D-01  1.5106549998839D+00  2.9190151063044D-01
34  3.3000000000000D-01  1.5562540830683D+00  2.8044700843818D-01
35  3.4000000000000D-01  1.5980833727912D+00  2.6562605394396D-01
36  3.5000000000000D-01  1.6358719100301D+00  2.4731139849917D-01
37  3.6000000000000D-01  1.6693680818917D+00  2.2539475247158D-01
38  3.7000000000000D-01  1.6983413448569D+00  1.9978849194797D-01
39  3.8000000000000D-01  1.7225838554914D+00  1.7042727386871D-01
40  3.9000000000000D-01  1.7419120013948D+00  1.3726955775340D-01
41  4.0000000000000D-01  1.7561678088641D+00  1.0029899377900D-01
42  4.1000000000000D-01  1.7652202190322D+00  5.9525665771257D-02