Ne    ONCVPSP  r_core=  1.31  1.55
10.0000      8.0000      140820    zatom,zion,pspd
8    11     1     4   401     0    pspcod,pspxc,lmax,lloc,mmax,r2well
4.00000000  0.20000000  0.00000000    rchrg fchrg qchrg
2     2     0     0     0    nproj
0                 extension_switch
0                         7.7158832392612D+00  1.3993186248222D+00
1  0.0000000000000D+00 -0.0000000000000D+00 -0.0000000000000D+00
2  1.0000000000000D-02 -2.7790513999496D-02 -1.3471876289797D-01
3  2.0000000000000D-02 -5.6238433688855D-02 -2.6781857374657D-01
4  3.0000000000000D-02 -8.5987430214208D-02 -3.9770516358424D-01
5  4.0000000000000D-02 -1.1765393187630D-01 -5.2283324537321D-01
6  5.0000000000000D-02 -1.5181406474159D-01 -6.4173005034974D-01
7  6.0000000000000D-02 -1.8899125777629D-01 -7.5301773554769D-01
8  7.0000000000000D-02 -2.2964471756405D-01 -8.5543431393602D-01
9  8.0000000000000D-02 -2.7415896408598D-01 -9.4785278147311D-01
10  9.0000000000000D-02 -3.2283460207640D-01 -1.0292981439876D+00
11  1.0000000000000D-01 -3.7588048320613D-01 -1.0989620792028D+00
12  1.1000000000000D-01 -4.3340739220553D-01 -1.1562150065249D+00
13  1.2000000000000D-01 -4.9542336588400D-01 -1.2006153779033D+00
14  1.3000000000000D-01 -5.6183072824924D-01 -1.2319160464582D+00
15  1.4000000000000D-01 -6.3242489835986D-01 -1.2500676139786D+00
16  1.5000000000000D-01 -7.0689499756382D-01 -1.2552187097264D+00
17  1.6000000000000D-01 -7.8482625700010D-01 -1.2477131947220D+00
18  1.7000000000000D-01 -8.6570419522488D-01 -1.2280843402549D+00
19  1.8000000000000D-01 -9.4892050835346D-01 -1.1970460724795D+00
20  1.9000000000000D-01 -1.0337805910249D+00 -1.1554814190533D+00
21  2.0000000000000D-01 -1.1195125652937D+00 -1.1044283579003D+00
22  2.1000000000000D-01 -1.2052777124434D+00 -1.0450632471927D+00
23  2.2000000000000D-01 -1.2901821064224D+00 -9.7868216313477D-01
24  2.3000000000000D-01 -1.3732893130531D+00 -9.0668037791273D-01
25  2.4000000000000D-01 -1.4536339145232D+00 -8.3053037251879D-01
26  2.5000000000000D-01 -1.5302357614416D+00 -7.5175855442685D-01
27  2.6000000000000D-01 -1.6021144915772D+00 -6.7192143202361D-01
28  2.7000000000000D-01 -1.6683044688539D+00 -5.9258101198077D-01
29  2.8000000000000D-01 -1.7278694893245D+00 -5.1528048361044D-01
30  2.9000000000000D-01 -1.7799173440350D+00 -4.4152005695005D-01
31  3.0000000000000D-01 -1.8236138716300D+00 -3.7273355762569D-01
32  3.1000000000000D-01 -1.8581963032814D+00 -3.1026610779873D-01
33  3.2000000000000D-01 -1.8829856048309D+00 -2.5535338328121D-01
34  3.3000000000000D-01 -1.8973980013672D+00 -2.0910214059129D-01
35  3.4000000000000D-01 -1.9009547998520D+00 -1.7247347752546D-01
36  3.5000000000000D-01 -1.8932910450371D+00 -1.4626794380108D-01
37  3.6000000000000D-01 -1.8741625404809D+00 -1.3111327253688D-01
38  3.7000000000000D-01 -1.8434512048353D+00 -1.2745478186736D-01
39  3.8000000000000D-01 -1.8011683863891D+00 -1.3554908173910D-01
40  3.9000000000000D-01 -1.7474567733679D+00 -1.5546000291105D-01
41  4.0000000000000D-01 -1.6825901510941D+00 -1.8705800916840D-01
42  4.1000000000000D-01 -1.6069712603616D+00 -2.3002267034000D-01
43  4.2000000000000D-01 -1.5211279447729D+00 -2.8384786796039D-01
44  4.3000000000000D-01 -1.4257074580483D+00 -3.4784995659779D-01
45  4.4000000000000D-01 -1.3214690631486D+00 -4.2117865895113D-01
46  4.5000000000000D-01 -1.2092750334849D+00 -5.0283051118223D-01
47  4.6000000000000D-01 -1.0900801912409D+00 -5.9166463473228D-01
48  4.7000000000000D-01 -9.6492018055752D-01 -6.8642051960290D-01
49  4.8000000000000D-01 -8.3489864802109D-01 -7.8573751676277D-01
50  4.9000000000000D-01 -7.0117313681831D-01 -8.8817629141532D-01
51  5.0000000000000D-01 -5.6494071278525D-01 -9.9224076714144D-01
52  5.1000000000000D-01 -4.2742329868544D-01 -1.0964004649588D+00
53  5.2000000000000D-01 -2.8985158078240D-01 -1.1991149023273D+00
54  5.3000000000000D-01 -1.5344956882255D-01 -1.2988570128003D+00
55  5.4000000000000D-01 -1.9421267289292D-02 -1.3941333236112D+00
56  5.5000000000000D-01  1.1106804338627D-01 -1.4835119620158D+00
57  5.6000000000000D-01  2.3690135064520D-01 -1.5656369703441D+00
58  5.7000000000000D-01  3.5702794019331D-01 -1.6392549650043D+00
59  5.8000000000000D-01  4.7047127500224D-01 -1.7032266088180D+00
60  5.9000000000000D-01  5.7634553411478D-01 -1.7565506305520D+00
61  6.0000000000000D-01  6.7385860547791D-01 -1.7983676910512D+00
62  6.1000000000000D-01  7.6232906400032D-01 -1.8279844902259D+00
63  6.2000000000000D-01  8.4118530623858D-01 -1.8448715354811D+00
64  6.3000000000000D-01  9.0997473175416D-01 -1.8486753112318D+00
65  6.4000000000000D-01  9.6836812569820D-01 -1.8392231205892D+00
66  6.5000000000000D-01  1.0161577643843D+00 -1.8165187454054D+00
67  6.6000000000000D-01  1.0532601420591D+00 -1.7807443985067D+00
68  6.7000000000000D-01  1.0797151648605D+00 -1.7322572550910D+00
69  6.8000000000000D-01  1.0956802182984D+00 -1.6715787179137D+00
70  6.9000000000000D-01  1.1014258725291D+00 -1.5993857955428D+00
71  7.0000000000000D-01  1.0973310421824D+00 -1.5165011957102D+00
72  7.1000000000000D-01  1.0838744084365D+00 -1.4238782564405D+00
73  7.2000000000000D-01  1.0616248163253D+00 -1.3225845709841D+00
74  7.3000000000000D-01  1.0312317460208D+00 -1.2137854317403D+00
75  7.4000000000000D-01  9.9341444944194D-01 -1.0987255011448D+00
76  7.5000000000000D-01  9.4895060492420D-01 -9.7871018042643D-01
77  7.6000000000000D-01  8.9866376274749D-01 -8.5508429132932D-01
78  7.7000000000000D-01  8.4341107168912D-01 -7.2921296816280D-01
79  7.8000000000000D-01  7.8407085171526D-01 -6.0246162688791D-01
80  7.9000000000000D-01  7.2153016956304D-01 -4.7617639649614D-01
81  8.0000000000000D-01  6.5667269330413D-01 -3.5166530276910D-01
82  8.1000000000000D-01  5.9036699858922D-01 -2.3018046209436D-01
83  8.2000000000000D-01  5.2345549517058D-01 -1.1290155323886D-01
84  8.3000000000000D-01  4.5674412673284D-01 -9.2080619400685D-04
85  8.4000000000000D-01  3.9099297916929D-01  1.0477028532522D-01
86  8.5000000000000D-01  3.2690791262060D-01  2.0329235672816D-01
87  8.6000000000000D-01  2.6513331123648D-01  2.9388753770831D-01
88  8.7000000000000D-01  2.0624602209510D-01  3.7592669638897D-01
89  8.8000000000000D-01  1.5075053136493D-01  4.4891450999432D-01
90  8.9000000000000D-01  9.9075401932563D-02  5.1249235105677D-01
91  9.0000000000000D-01  5.1570972654147D-02  5.6643901971476D-01
92  9.1000000000000D-01  8.5082954241935D-03  6.1066939371762D-01
93  9.2000000000000D-01 -2.9920737261655D-02  6.4523110771259D-01
94  9.3000000000000D-01 -6.3602144239000D-02  6.7029941150422D-01
95  9.4000000000000D-01 -9.2497578405041D-02  6.8617039233605D-01
96  9.5000000000000D-01 -1.1664019178762D-01  6.9325171632327D-01
97  9.6000000000000D-01 -1.3613310523449D-01  6.9205633401724D-01
98  9.7000000000000D-01 -1.5114361057874D-01  6.8319034187624D-01
99  9.8000000000000D-01 -1.6189687964408D-01  6.6734077461120D-01
100  9.9000000000000D-01 -1.6867109506923D-01  6.4526502959604D-01
101  1.0000000000000D+00 -1.7179176667319D-01  6.1777951114167D-01
102  1.0100000000000D+00 -1.7162581921504D-01  5.8574808106586D-01
103  1.0200000000000D+00 -1.6857444596281D-01  5.5006950911533D-01
104  1.0300000000000D+00 -1.6305742272875D-01  5.1164363392328D-01
105  1.0400000000000D+00 -1.5549299282180D-01  4.7133481389361D-01
106  1.0500000000000D+00 -1.4629187611359D-01  4.2996385799270D-01
107  1.0600000000000D+00 -1.3585018715402D-01  3.8829586121019D-01
108  1.0700000000000D+00 -1.2454536348629D-01  3.4703541297967D-01
109  1.0800000000000D+00 -1.1272784214824D-01  3.0681131604993D-01
110  1.0900000000000D+00 -1.0071340906485D-01  2.6816471373066D-01
111  1.1000000000000D+00 -8.8785639854322D-02  2.3155836001241D-01
112  1.1100000000000D+00 -7.7191965661905D-02  1.9737066888580D-01
113  1.1200000000000D+00 -6.6145603235920D-02  1.6590174178646D-01
114  1.1300000000000D+00 -5.5808796343116D-02  1.3734302929775D-01
115  1.1400000000000D+00 -4.6309776148044D-02  1.1181423272504D-01
116  1.1500000000000D+00 -3.7740110454810D-02  8.9359464998728D-02
117  1.1600000000000D+00 -3.0156209543932D-02  6.9951580682739D-02
118  1.1700000000000D+00 -2.3571687470617D-02  5.3482383761573D-02
119  1.1800000000000D+00 -1.7975019631465D-02  3.9796662035007D-02
120  1.1900000000000D+00 -1.3329941083461D-02  2.8693414185962D-02
121  1.2000000000000D+00 -9.5720648159068D-03  1.9924492350141D-02
122  1.2100000000000D+00 -6.6202259012787D-03  1.3217558447425D-02
123  1.2200000000000D+00 -4.3817872836852D-03  8.2844514918583D-03
124  1.2300000000000D+00 -2.7529813087154D-03  4.8246491860457D-03
125  1.2400000000000D+00 -1.6278640119385D-03  2.5488445277229D-03
126  1.2500000000000D+00 -9.0181405959418D-04  1.1788325562420D-03
127  1.2600000000000D+00 -4.7159049456247D-04  4.4949513095256D-04
128  1.2700000000000D+00 -2.5005699934424D-04  1.4734751114294D-04
129  1.2800000000000D+00 -1.5932897362729D-04  8.5890225161871D-05
130  1.2900000000000D+00 -1.3323465484368D-04  1.1362938034165D-04
131  1.3000000000000D+00 -1.3982136543295D-04  1.6542186645960D-04
132  1.3100000000000D+00 -1.4275483920673D-04  1.8230478128020D-04
133  1.3200000000000D+00 -6.9367586498937D-05  9.0518396410193D-05
134  1.3300000000000D+00  5.3541529689786D-06 -6.8687438749080D-06
135  1.3400000000000D+00  5.3607365872839D-06 -6.8771898771369D-06
136  1.3500000000000D+00  0.0000000000000D+00  0.0000000000000D+00
137  1.3600000000000D+00  0.0000000000000D+00  0.0000000000000D+00
138  1.3700000000000D+00  0.0000000000000D+00  0.0000000000000D+00
139  1.3800000000000D+00  0.0000000000000D+00  0.0000000000000D+00
140  1.3900000000000D+00  0.0000000000000D+00  0.0000000000000D+00
141  1.4000000000000D+00  0.0000000000000D+00  0.0000000000000D+00
142  1.4100000000000D+00  0.0000000000000D+00  0.0000000000000D+00
143  1.4200000000000D+00  0.0000000000000D+00  0.0000000000000D+00
144  1.4300000000000D+00  0.0000000000000D+00  0.0000000000000D+00
145  1.4400000000000D+00  0.0000000000000D+00  0.0000000000000D+00
146  1.4500000000000D+00  0.0000000000000D+00  0.0000000000000D+00
147  1.4600000000000D+00  0.0000000000000D+00  0.0000000000000D+00
148  1.4700000000000D+00  0.0000000000000D+00  0.0000000000000D+00
149  1.4800000000000D+00  0.0000000000000D+00  0.0000000000000D+00
150  1.4900000000000D+00  0.0000000000000D+00  0.0000000000000D+00
151  1.5000000000000D+00  0.0000000000000D+00  0.0000000000000D+00
152  1.5100000000000D+00  0.0000000000000D+00  0.0000000000000D+00
153  1.5200000000000D+00  0.0000000000000D+00  0.0000000000000D+00
154  1.5300000000000D+00  0.0000000000000D+00  0.0000000000000D+00
155  1.5400000000000D+00  0.0000000000000D+00  0.0000000000000D+00
156  1.5500000000000D+00  0.0000000000000D+00  0.0000000000000D+00
157  1.5600000000000D+00  0.0000000000000D+00  0.0000000000000D+00
158  1.5700000000000D+00  0.0000000000000D+00  0.0000000000000D+00
159  1.5800000000000D+00  0.0000000000000D+00  0.0000000000000D+00
160  1.5900000000000D+00  0.0000000000000D+00  0.0000000000000D+00
161  1.6000000000000D+00  0.0000000000000D+00  0.0000000000000D+00
162  1.6100000000000D+00  0.0000000000000D+00  0.0000000000000D+00
163  1.6200000000000D+00  0.0000000000000D+00  0.0000000000000D+00
164  1.6300000000000D+00  0.0000000000000D+00  0.0000000000000D+00
165  1.6400000000000D+00  0.0000000000000D+00  0.0000000000000D+00
166  1.6500000000000D+00  0.0000000000000D+00  0.0000000000000D+00
167  1.6600000000000D+00  0.0000000000000D+00  0.0000000000000D+00
168  1.6700000000000D+00  0.0000000000000D+00  0.0000000000000D+00
169  1.6800000000000D+00  0.0000000000000D+00  0.0000000000000D+00
170  1.6900000000000D+00  0.0000000000000D+00  0.0000000000000D+00
171  1.7000000000000D+00  0.0000000000000D+00  0.0000000000000D+00
172  1.7100000000000D+00  0.0000000000000D+00  0.0000000000000D+00
173  1.7200000000000D+00  0.0000000000000D+00  0.0000000000000D+00
174  1.7300000000000D+00  0.0000000000000D+00  0.0000000000000D+00
175  1.7400000000000D+00  0.0000000000000D+00  0.0000000000000D+00
176  1.7500000000000D+00  0.0000000000000D+00  0.0000000000000D+00
177  1.7600000000000D+00  0.0000000000000D+00  0.0000000000000D+00
178  1.7700000000000D+00  0.0000000000000D+00  0.0000000000000D+00
179  1.7800000000000D+00  0.0000000000000D+00  0.0000000000000D+00
180  1.7900000000000D+00  0.0000000000000D+00  0.0000000000000D+00
181  1.8000000000000D+00  0.0000000000000D+00  0.0000000000000D+00
182  1.8100000000000D+00  0.0000000000000D+00  0.0000000000000D+00
183  1.8200000000000D+00  0.0000000000000D+00  0.0000000000000D+00
184  1.8300000000000D+00  0.0000000000000D+00  0.0000000000000D+00
185  1.8400000000000D+00  0.0000000000000D+00  0.0000000000000D+00
186  1.8500000000000D+00  0.0000000000000D+00  0.0000000000000D+00
187  1.8600000000000D+00  0.0000000000000D+00  0.0000000000000D+00
188  1.8700000000000D+00  0.0000000000000D+00  0.0000000000000D+00
189  1.8800000000000D+00  0.0000000000000D+00  0.0000000000000D+00
190  1.8900000000000D+00  0.0000000000000D+00  0.0000000000000D+00
191  1.9000000000000D+00  0.0000000000000D+00  0.0000000000000D+00
192  1.9100000000000D+00  0.0000000000000D+00  0.0000000000000D+00
193  1.9200000000000D+00  0.0000000000000D+00  0.0000000000000D+00
194  1.9300000000000D+00  0.0000000000000D+00  0.0000000000000D+00
195  1.9400000000000D+00  0.0000000000000D+00  0.0000000000000D+00
196  1.9500000000000D+00  0.0000000000000D+00  0.0000000000000D+00
197  1.9600000000000D+00  0.0000000000000D+00  0.0000000000000D+00
198  1.9700000000000D+00  0.0000000000000D+00  0.0000000000000D+00
199  1.9800000000000D+00  0.0000000000000D+00  0.0000000000000D+00
200  1.9900000000000D+00  0.0000000000000D+00  0.0000000000000D+00
201  2.0000000000000D+00  0.0000000000000D+00  0.0000000000000D+00
202  2.0100000000000D+00  0.0000000000000D+00  0.0000000000000D+00
203  2.0200000000000D+00  0.0000000000000D+00  0.0000000000000D+00
204  2.0300000000000D+00  0.0000000000000D+00  0.0000000000000D+00
205  2.0400000000000D+00  0.0000000000000D+00  0.0000000000000D+00
206  2.0500000000000D+00  0.0000000000000D+00  0.0000000000000D+00
207  2.0600000000000D+00  0.0000000000000D+00  0.0000000000000D+00
208  2.0700000000000D+00  0.0000000000000D+00  0.0000000000000D+00
209  2.0800000000000D+00  0.0000000000000D+00  0.0000000000000D+00
210  2.0900000000000D+00  0.0000000000000D+00  0.0000000000000D+00
211  2.1000000000000D+00  0.0000000000000D+00  0.0000000000000D+00
212  2.1100000000000D+00  0.0000000000000D+00  0.0000000000000D+00
213  2.1200000000000D+00  0.0000000000000D+00  0.0000000000000D+00
214  2.1300000000000D+00  0.0000000000000D+00  0.0000000000000D+00
215  2.1400000000000D+00  0.0000000000000D+00  0.0000000000000D+00
216  2.1500000000000D+00  0.0000000000000D+00  0.0000000000000D+00
217  2.1600000000000D+00  0.0000000000000D+00  0.0000000000000D+00
218  2.1700000000000D+00  0.0000000000000D+00  0.0000000000000D+00
219  2.1800000000000D+00  0.0000000000000D+00  0.0000000000000D+00
220  2.1900000000000D+00  0.0000000000000D+00  0.0000000000000D+00
221  2.2000000000000D+00  0.0000000000000D+00  0.0000000000000D+00
222  2.2100000000000D+00  0.0000000000000D+00  0.0000000000000D+00
223  2.2200000000000D+00  0.0000000000000D+00  0.0000000000000D+00
224  2.2300000000000D+00  0.0000000000000D+00  0.0000000000000D+00
225  2.2400000000000D+00  0.0000000000000D+00  0.0000000000000D+00
226  2.2500000000000D+00  0.0000000000000D+00  0.0000000000000D+00
227  2.2600000000000D+00  0.0000000000000D+00  0.0000000000000D+00
228  2.2700000000000D+00  0.0000000000000D+00  0.0000000000000D+00
229  2.2800000000000D+00  0.0000000000000D+00  0.0000000000000D+00
230  2.2900000000000D+00  0.0000000000000D+00  0.0000000000000D+00
231  2.3000000000000D+00  0.0000000000000D+00  0.0000000000000D+00
232  2.3100000000000D+00  0.0000000000000D+00  0.0000000000000D+00
233  2.3200000000000D+00  0.0000000000000D+00  0.0000000000000D+00
234  2.3300000000000D+00  0.0000000000000D+00  0.0000000000000D+00
235  2.3400000000000D+00  0.0000000000000D+00  0.0000000000000D+00
236  2.3500000000000D+00  0.0000000000000D+00  0.0000000000000D+00
237  2.3600000000000D+00  0.0000000000000D+00  0.0000000000000D+00
238  2.3700000000000D+00  0.0000000000000D+00  0.0000000000000D+00
239  2.3800000000000D+00  0.0000000000000D+00  0.0000000000000D+00
240  2.3900000000000D+00  0.0000000000000D+00  0.0000000000000D+00
241  2.4000000000000D+00  0.0000000000000D+00  0.0000000000000D+00
242  2.4100000000000D+00  0.0000000000000D+00  0.0000000000000D+00
243  2.4200000000000D+00  0.0000000000000D+00  0.0000000000000D+00
244  2.4300000000000D+00  0.0000000000000D+00  0.0000000000000D+00
245  2.4400000000000D+00  0.0000000000000D+00  0.0000000000000D+00
246  2.4500000000000D+00  0.0000000000000D+00  0.0000000000000D+00
247  2.4600000000000D+00  0.0000000000000D+00  0.0000000000000D+00
248  2.4700000000000D+00  0.0000000000000D+00  0.0000000000000D+00
249  2.4800000000000D+00  0.0000000000000D+00  0.0000000000000D+00
250  2.4900000000000D+00  0.0000000000000D+00  0.0000000000000D+00
251  2.5000000000000D+00  0.0000000000000D+00  0.0000000000000D+00
252  2.5100000000000D+00  0.0000000000000D+00  0.0000000000000D+00
253  2.5200000000000D+00  0.0000000000000D+00  0.0000000000000D+00
254  2.5300000000000D+00  0.0000000000000D+00  0.0000000000000D+00
255  2.5400000000000D+00  0.0000000000000D+00  0.0000000000000D+00
256  2.5500000000000D+00  0.0000000000000D+00  0.0000000000000D+00
257  2.5600000000000D+00  0.0000000000000D+00  0.0000000000000D+00
258  2.5700000000000D+00  0.0000000000000D+00  0.0000000000000D+00
259  2.5800000000000D+00  0.0000000000000D+00  0.0000000000000D+00
260  2.5900000000000D+00  0.0000000000000D+00  0.0000000000000D+00
261  2.6000000000000D+00  0.0000000000000D+00  0.0000000000000D+00
262  2.6100000000000D+00  0.0000000000000D+00  0.0000000000000D+00
263  2.6200000000000D+00  0.0000000000000D+00  0.0000000000000D+00
264  2.6300000000000D+00  0.0000000000000D+00  0.0000000000000D+00
265  2.6400000000000D+00  0.0000000000000D+00  0.0000000000000D+00
266  2.6500000000000D+00  0.0000000000000D+00  0.0000000000000D+00
267  2.6600000000000D+00  0.0000000000000D+00  0.0000000000000D+00
268  2.6700000000000D+00  0.0000000000000D+00  0.0000000000000D+00
269  2.6800000000000D+00  0.0000000000000D+00  0.0000000000000D+00
270  2.6900000000000D+00  0.0000000000000D+00  0.0000000000000D+00
271  2.7000000000000D+00  0.0000000000000D+00  0.0000000000000D+00
272  2.7100000000000D+00  0.0000000000000D+00  0.0000000000000D+00
273  2.7200000000000D+00  0.0000000000000D+00  0.0000000000000D+00
274  2.7300000000000D+00  0.0000000000000D+00  0.0000000000000D+00
275  2.7400000000000D+00  0.0000000000000D+00  0.0000000000000D+00
276  2.7500000000000D+00  0.0000000000000D+00  0.0000000000000D+00
277  2.7600000000000D+00  0.0000000000000D+00  0.0000000000000D+00
278  2.7700000000000D+00  0.0000000000000D+00  0.0000000000000D+00
279  2.7800000000000D+00  0.0000000000000D+00  0.0000000000000D+00
280  2.7900000000000D+00  0.0000000000000D+00  0.0000000000000D+00
281  2.8000000000000D+00  0.0000000000000D+00  0.0000000000000D+00
282  2.8100000000000D+00  0.0000000000000D+00  0.0000000000000D+00
283  2.8200000000000D+00  0.0000000000000D+00  0.0000000000000D+00
284  2.8300000000000D+00  0.0000000000000D+00  0.0000000000000D+00
285  2.8400000000000D+00  0.0000000000000D+00  0.0000000000000D+00
286  2.8500000000000D+00  0.0000000000000D+00  0.0000000000000D+00
287  2.8600000000000D+00  0.0000000000000D+00  0.0000000000000D+00
288  2.8700000000000D+00  0.0000000000000D+00  0.0000000000000D+00
289  2.8800000000000D+00  0.0000000000000D+00  0.0000000000000D+00
290  2.8900000000000D+00  0.0000000000000D+00  0.0000000000000D+00
291  2.9000000000000D+00  0.0000000000000D+00  0.0000000000000D+00
292  2.9100000000000D+00  0.0000000000000D+00  0.0000000000000D+00
293  2.9200000000000D+00  0.0000000000000D+00  0.0000000000000D+00
294  2.9300000000000D+00  0.0000000000000D+00  0.0000000000000D+00
295  2.9400000000000D+00  0.0000000000000D+00  0.0000000000000D+00
296  2.9500000000000D+00  0.0000000000000D+00  0.0000000000000D+00
297  2.9600000000000D+00  0.0000000000000D+00  0.0000000000000D+00
298  2.9700000000000D+00  0.0000000000000D+00  0.0000000000000D+00
299  2.9800000000000D+00  0.0000000000000D+00  0.0000000000000D+00
300  2.9900000000000D+00  0.0000000000000D+00  0.0000000000000D+00
301  3.0000000000000D+00  0.0000000000000D+00  0.0000000000000D+00
302  3.0100000000000D+00  0.0000000000000D+00  0.0000000000000D+00
303  3.0200000000000D+00  0.0000000000000D+00  0.0000000000000D+00
304  3.0300000000000D+00  0.0000000000000D+00  0.0000000000000D+00
305  3.0400000000000D+00  0.0000000000000D+00  0.0000000000000D+00
306  3.0500000000000D+00  0.0000000000000D+00  0.0000000000000D+00
307  3.0600000000000D+00  0.0000000000000D+00  0.0000000000000D+00
308  3.0700000000000D+00  0.0000000000000D+00  0.0000000000000D+00
309  3.0800000000000D+00  0.0000000000000D+00  0.0000000000000D+00
310  3.0900000000000D+00  0.0000000000000D+00  0.0000000000000D+00
311  3.1000000000000D+00  0.0000000000000D+00  0.0000000000000D+00
312  3.1100000000000D+00  0.0000000000000D+00  0.0000000000000D+00
313  3.1200000000000D+00  0.0000000000000D+00  0.0000000000000D+00
314  3.1300000000000D+00  0.0000000000000D+00  0.0000000000000D+00
315  3.1400000000000D+00  0.0000000000000D+00  0.0000000000000D+00
316  3.1500000000000D+00  0.0000000000000D+00  0.0000000000000D+00
317  3.1600000000000D+00  0.0000000000000D+00  0.0000000000000D+00
318  3.1700000000000D+00  0.0000000000000D+00  0.0000000000000D+00
319  3.1800000000000D+00  0.0000000000000D+00  0.0000000000000D+00
320  3.1900000000000D+00  0.0000000000000D+00  0.0000000000000D+00
321  3.2000000000000D+00  0.0000000000000D+00  0.0000000000000D+00
322  3.2100000000000D+00  0.0000000000000D+00  0.0000000000000D+00
323  3.2200000000000D+00  0.0000000000000D+00  0.0000000000000D+00
324  3.2300000000000D+00  0.0000000000000D+00  0.0000000000000D+00
325  3.2400000000000D+00  0.0000000000000D+00  0.0000000000000D+00
326  3.2500000000000D+00  0.0000000000000D+00  0.0000000000000D+00
327  3.2600000000000D+00  0.0000000000000D+00  0.0000000000000D+00
328  3.2700000000000D+00  0.0000000000000D+00  0.0000000000000D+00
329  3.2800000000000D+00  0.0000000000000D+00  0.0000000000000D+00
330  3.2900000000000D+00  0.0000000000000D+00  0.0000000000000D+00
331  3.3000000000000D+00  0.0000000000000D+00  0.0000000000000D+00
332  3.3100000000000D+00  0.0000000000000D+00  0.0000000000000D+00
333  3.3200000000000D+00  0.0000000000000D+00  0.0000000000000D+00
334  3.3300000000000D+00  0.0000000000000D+00  0.0000000000000D+00
335  3.3400000000000D+00  0.0000000000000D+00  0.0000000000000D+00
336  3.3500000000000D+00  0.0000000000000D+00  0.0000000000000D+00
337  3.3600000000000D+00  0.0000000000000D+00  0.0000000000000D+00
338  3.3700000000000D+00  0.0000000000000D+00  0.0000000000000D+00
339  3.3800000000000D+00  0.0000000000000D+00  0.0000000000000D+00
340  3.3900000000000D+00  0.0000000000000D+00  0.0000000000000D+00
341  3.4000000000000D+00  0.0000000000000D+00  0.0000000000000D+00
342  3.4100000000000D+00  0.0000000000000D+00  0.0000000000000D+00
343  3.4200000000000D+00  0.0000000000000D+00  0.0000000000000D+00
344  3.4300000000000D+00  0.0000000000000D+00  0.0000000000000D+00
345  3.4400000000000D+00  0.0000000000000D+00  0.0000000000000D+00
346  3.4500000000000D+00  0.0000000000000D+00  0.0000000000000D+00
347  3.4600000000000D+00  0.0000000000000D+00  0.0000000000000D+00
348  3.4700000000000D+00  0.0000000000000D+00  0.0000000000000D+00
349  3.4800000000000D+00  0.0000000000000D+00  0.0000000000000D+00
350  3.4900000000000D+00  0.0000000000000D+00  0.0000000000000D+00
351  3.5000000000000D+00  0.0000000000000D+00  0.0000000000000D+00
352  3.5100000000000D+00  0.0000000000000D+00  0.0000000000000D+00
353  3.5200000000000D+00  0.0000000000000D+00  0.0000000000000D+00
354  3.5300000000000D+00  0.0000000000000D+00  0.0000000000000D+00
355  3.5400000000000D+00  0.0000000000000D+00  0.0000000000000D+00
356  3.5500000000000D+00  0.0000000000000D+00  0.0000000000000D+00
357  3.5600000000000D+00  0.0000000000000D+00  0.0000000000000D+00
358  3.5700000000000D+00  0.0000000000000D+00  0.0000000000000D+00
359  3.5800000000000D+00  0.0000000000000D+00  0.0000000000000D+00
360  3.5900000000000D+00  0.0000000000000D+00  0.0000000000000D+00
361  3.6000000000000D+00  0.0000000000000D+00  0.0000000000000D+00
362  3.6100000000000D+00  0.0000000000000D+00  0.0000000000000D+00
363  3.6200000000000D+00  0.0000000000000D+00  0.0000000000000D+00
364  3.6300000000000D+00  0.0000000000000D+00  0.0000000000000D+00
365  3.6400000000000D+00  0.0000000000000D+00  0.0000000000000D+00
366  3.6500000000000D+00  0.0000000000000D+00  0.0000000000000D+00
367  3.6600000000000D+00  0.0000000000000D+00  0.0000000000000D+00
368  3.6700000000000D+00  0.0000000000000D+00  0.0000000000000D+00
369  3.6800000000000D+00  0.0000000000000D+00  0.0000000000000D+00
370  3.6900000000000D+00  0.0000000000000D+00  0.0000000000000D+00
371  3.7000000000000D+00  0.0000000000000D+00  0.0000000000000D+00
372  3.7100000000000D+00  0.0000000000000D+00  0.0000000000000D+00
373  3.7200000000000D+00  0.0000000000000D+00  0.0000000000000D+00
374  3.7300000000000D+00  0.0000000000000D+00  0.0000000000000D+00
375  3.7400000000000D+00  0.0000000000000D+00  0.0000000000000D+00
376  3.7500000000000D+00  0.0000000000000D+00  0.0000000000000D+00
377  3.7600000000000D+00  0.0000000000000D+00  0.0000000000000D+00
378  3.7700000000000D+00  0.0000000000000D+00  0.0000000000000D+00
379  3.7800000000000D+00  0.0000000000000D+00  0.0000000000000D+00
380  3.7900000000000D+00  0.0000000000000D+00  0.0000000000000D+00
381  3.8000000000000D+00  0.0000000000000D+00  0.0000000000000D+00
382  3.8100000000000D+00  0.0000000000000D+00  0.0000000000000D+00
383  3.8200000000000D+00  0.0000000000000D+00  0.0000000000000D+00
384  3.8300000000000D+00  0.0000000000000D+00  0.0000000000000D+00
385  3.8400000000000D+00  0.0000000000000D+00  0.0000000000000D+00
386  3.8500000000000D+00  0.0000000000000D+00  0.0000000000000D+00
387  3.8600000000000D+00  0.0000000000000D+00  0.0000000000000D+00
388  3.8700000000000D+00  0.0000000000000D+00  0.0000000000000D+00
389  3.8800000000000D+00  0.0000000000000D+00  0.0000000000000D+00
390  3.8900000000000D+00  0.0000000000000D+00  0.0000000000000D+00
391  3.9000000000000D+00  0.0000000000000D+00  0.0000000000000D+00
392  3.9100000000000D+00  0.0000000000000D+00  0.0000000000000D+00
393  3.9200000000000D+00  0.0000000000000D+00  0.0000000000000D+00
394  3.9300000000000D+00  0.0000000000000D+00  0.0000000000000D+00
395  3.9400000000000D+00  0.0000000000000D+00  0.0000000000000D+00
396  3.9500000000000D+00  0.0000000000000D+00  0.0000000000000D+00
397  3.9600000000000D+00  0.0000000000000D+00  0.0000000000000D+00
398  3.9700000000000D+00  0.0000000000000D+00  0.0000000000000D+00
399  3.9800000000000D+00  0.0000000000000D+00  0.0000000000000D+00
400  3.9900000000000D+00  0.0000000000000D+00  0.0000000000000D+00
401  4.0000000000000D+00  0.0000000000000D+00  0.0000000000000D+00
1                        -5.9205498904691D+00 -2.0968655881693D+00
1  0.0000000000000D+00  0.0000000000000D+00  0.0000000000000D+00
2  1.0000000000000D-02  2.6670446284077D-03  1.0023433977363D-03
3  2.0000000000000D-02  1.0653271350967D-02  3.9991248595515D-03
4  3.0000000000000D-02  2.3914022869461D-02  8.9596456246518D-03
5  4.0000000000000D-02  4.2375084358759D-02  1.5832899469780D-02
6  5.0000000000000D-02  6.5933004605322D-02  2.4547811198289D-02
7  6.0000000000000D-02  9.4455545836788D-02  3.5013572326252D-02
8  7.0000000000000D-02  1.2778226242031D-01  4.7120075669875D-02
9  8.0000000000000D-02  1.6572520857380D-01  6.0738450886176D-02
10  9.0000000000000D-02  2.0806977514539D-01  7.5721703270730D-02
11  1.0000000000000D-01  2.5457565535153D-01  9.1905458245743D-02
12  1.1000000000000D-01  3.0497793912375D-01  1.0910881397094D-01
13  1.2000000000000D-01  3.5898833538933D-01  1.2713530436459D-01
14  1.3000000000000D-01  4.1629652119821D-01  1.4577397452490D-01
15  1.4000000000000D-01  4.7657161603006D-01  1.6480057002118D-01
16  1.5000000000000D-01  5.3946377917211D-01  1.8397884103712D-01
17  1.6000000000000D-01  6.0460592701958D-01  2.0306196126212D-01
18  1.7000000000000D-01  6.7161556686059D-01  2.2179406091647D-01
19  1.8000000000000D-01  7.4009674211434D-01  2.3991187155057D-01
20  1.9000000000000D-01  8.0964208391199D-01  2.5714647980732D-01
21  2.0000000000000D-01  8.7983496142547D-01  2.7322518459352D-01
22  2.1000000000000D-01  9.5025172506542D-01  2.8787345328857D-01
23  2.2000000000000D-01  1.0204640309679D+00  3.0081696665197D-01
24  2.3000000000000D-01  1.0900412391069D+00  3.1178374532169D-01
25  2.4000000000000D-01  1.1585528716474D+00  3.2050634467726D-01
26  2.5000000000000D-01  1.2255711229411D+00  3.2672410912016D-01
27  2.6000000000000D-01  1.2906733994952D+00  3.3018546297324D-01
28  2.7000000000000D-01  1.3534448873808D+00  3.3065023427724D-01
29  2.8000000000000D-01  1.4134811181232D+00  3.2789198011706D-01
30  2.9000000000000D-01  1.4703905261114D+00  3.2170030429129D-01
31  3.0000000000000D-01  1.5237969755771D+00  3.1188314224119D-01
32  3.1000000000000D-01  1.5733422395569D+00  2.9826899224702D-01
33  3.2000000000000D-01  1.6186884111343D+00  2.8070906938322D-01
34  3.3000000000000D-01  1.6595202325087D+00  2.5907936395305D-01
35  3.4000000000000D-01  1.6955473126557D+00  2.3328257036603D-01
36  3.5000000000000D-01  1.7265062248344D+00  2.0324987398259D-01
37  3.6000000000000D-01  1.7521624577067D+00  1.6894256470118D-01
38  3.7000000000000D-01  1.7723122024454D+00  1.3035345532594D-01
39  3.8000000000000D-01  1.7867839627094D+00  8.7508088713057D-02
40  3.9000000000000D-01  1.7954399598534D+00  4.0465699472705D-02
41  4.0000000000000D-01  1.7981773237400D+00 -1.0680080903965D-02
42  4.1000000000000D-01  1.7949290589358D+00 -6.5800788103198D-02