Cd    ONCVPSP-3.2.3.1  r_core=   1.25838   1.30423   1.35174
48.0000     20.0000      170510    zatom,zion,pspd
8      11   2     4   600     0    pspcod,pspxc,lmax,lloc,mmax,r2well
5.99000000  6.00000000  0.00000000    rchrg fchrg qchrg
2     2     2     0     0    nproj
1     1           extension_switch
0                         5.1917189413986D+01  3.5342342816008D+00
1  0.0000000000000D+00 -4.5713794971647D-09  8.2837029458105D-09
2  1.0000000000000D-02  1.1010629751505D-01 -2.9198056753103D-02
3  2.0000000000000D-02  2.1972273658473D-01 -5.7925261158176D-02
4  3.0000000000000D-02  3.2836364776396D-01 -8.5717166948627D-02
5  4.0000000000000D-02  4.3555167591061D-01 -1.1212202712973D-01
6  5.0000000000000D-02  5.4082177929268D-01 -1.3670686356090D-01
7  6.0000000000000D-02  6.4372504237897D-01 -1.5906320651872D-01
8  7.0000000000000D-02  7.4383224569977D-01 -1.7881240418545D-01
9  8.0000000000000D-02  8.4073714073563D-01 -1.9561041029163D-01
10  9.0000000000000D-02  9.3405938333899D-01 -2.0915196819335D-01
11  1.0000000000000D-01  1.0234470856093D+00 -2.1917412129410D-01
12  1.1000000000000D-01  1.1085789533024D+00 -2.2545899270057D-01
13  1.2000000000000D-01  1.1891659836213D+00 -2.2783579108520D-01
14  1.3000000000000D-01  1.2649527064600D+00 -2.2618201464055D-01
15  1.4000000000000D-01  1.3357179606876D+00 -2.2042384046474D-01
16  1.5000000000000D-01  1.4012752057150D+00 -2.1053570241383D-01
17  1.6000000000000D-01  1.4614723771925D+00 -1.9653907608897D-01
18  1.7000000000000D-01  1.5161913040960D+00 -1.7850050488934D-01
19  1.8000000000000D-01  1.5653467124904D+00 -1.5652891565711D-01
20  1.9000000000000D-01  1.6088848487622D+00 -1.3077228607843D-01
21  2.0000000000000D-01  1.6467817619367D+00 -1.0141373841586D-01
22  2.1000000000000D-01  1.6790412907016D+00 -6.8667145084045D-02
23  2.2000000000000D-01  1.7056928058305D+00 -3.2772340819534D-02
24  2.3000000000000D-01  1.7267887627296D+00  6.0099564497289D-03
25  2.4000000000000D-01  1.7424021217367D+00  4.7403408614326D-02
26  2.5000000000000D-01  1.7526236955222D+00  9.1121393691534D-02
27  2.6000000000000D-01  1.7575594834370D+00  1.3687230391727D-01
28  2.7000000000000D-01  1.7573280519085D+00  1.8436469543247D-01
29  2.8000000000000D-01  1.7520580180066D+00  2.3331218294739D-01
30  2.9000000000000D-01  1.7418856901329D+00  2.8343797852495D-01
31  3.0000000000000D-01  1.7269529154704D+00  3.3447898147310D-01
32  3.1000000000000D-01  1.7074051784598D+00  3.8618933612784D-01
33  3.2000000000000D-01  1.6833899882422D+00  4.3834338586398D-01
34  3.3000000000000D-01  1.6550555858456D+00  4.9073796477173D-01
35  3.4000000000000D-01  1.6225499940389D+00  5.4319398283057D-01
36  3.5000000000000D-01  1.5860204243873D+00  5.9555727582062D-01
37  3.6000000000000D-01  1.5456130472826D+00  6.4769870733260D-01
38  3.7000000000000D-01  1.5014731217724D+00  6.9951352675154D-01
39  3.8000000000000D-01  1.4537454730568D+00  7.5092000366504D-01
40  3.9000000000000D-01  1.4025752967412D+00  8.0185737544828D-01
41  4.0000000000000D-01  1.3481092605238D+00  8.5228316047120D-01
42  4.1000000000000D-01  1.2904968661250D+00  9.0216990413046D-01
43  4.2000000000000D-01  1.2298920271158D+00  9.5150143841762D-01
44  4.3000000000000D-01  1.1664548120252D+00  1.0002687477044D+00
45  4.4000000000000D-01  1.1003532968520D+00  1.0484655435910D+00
46  4.5000000000000D-01  1.0317654669972D+00  1.0960836597890D+00
47  4.6000000000000D-01  9.6088110577778D-01  1.1431083839057D+00
48  4.7000000000000D-01  8.8790360516039D-01  1.1895138465003D+00
49  4.8000000000000D-01  8.1305163421866D-01  1.2352585887964D+00
50  4.9000000000000D-01  7.3656060210583D-01  1.2802814288843D+00
51  5.0000000000000D-01  6.5868385503781D-01  1.3244977421390D+00
52  5.1000000000000D-01  5.7969355088069D-01  1.3677962649322D+00
53  5.2000000000000D-01  4.9988116036615D-01  1.4100365216522D+00
54  5.3000000000000D-01  4.1955755064595D-01  1.4510469636675D+00
55  5.4000000000000D-01  3.3905261472110D-01  1.4906238953993D+00
56  5.5000000000000D-01  2.5871441910312D-01  1.5285312473407D+00
57  5.6000000000000D-01  1.7890785175664D-01  1.5645012388984D+00
58  5.7000000000000D-01  1.0001276269062D-01  1.5982359557599D+00
59  5.8000000000000D-01  2.2421600407530D-02  1.6294098472924D+00
60  5.9000000000000D-01 -5.3463441536657D-02  1.6576731298182D+00
61  6.0000000000000D-01 -1.2723374245344D-01  1.6826560616499D+00
62  6.1000000000000D-01 -1.9847800062121D-01  1.7039740361688D+00
63  6.2000000000000D-01 -2.6678636067845D-01  1.7212334200734D+00
64  6.3000000000000D-01 -3.3175486557088D-01  1.7340380459716D+00
65  6.4000000000000D-01 -3.9299016721466D-01  1.7419962517643D+00
66  6.5000000000000D-01 -4.5011442202726D-01  1.7447283443968D+00
67  6.6000000000000D-01 -5.0277029070703D-01  1.7418743527858D+00
68  6.7000000000000D-01 -5.5062595621489D-01  1.7331019242651D+00
69  6.8000000000000D-01 -5.9338007007576D-01  1.7181142111825D+00
70  6.9000000000000D-01 -6.3076653489917D-01  1.6966575893764D+00
71  7.0000000000000D-01 -6.6255903053823D-01  1.6685290483846D+00
72  7.1000000000000D-01 -6.8857519262070D-01  1.6335830945012D+00
73  7.2000000000000D-01 -7.0868035529545D-01  1.5917380122187D+00
74  7.3000000000000D-01 -7.2279077495048D-01  1.5429813371850D+00
75  7.4000000000000D-01 -7.3087625825797D-01  1.4873744043910D+00
76  7.5000000000000D-01 -7.3296212623423D-01  1.4250558489549D+00
77  7.6000000000000D-01 -7.2913045577929D-01  1.3562439531123D+00
78  7.7000000000000D-01 -7.1952055136062D-01  1.2812377518067D+00
79  7.8000000000000D-01 -7.0432861188347D-01  1.2004168301985D+00
80  7.9000000000000D-01 -6.8380657115337D-01  1.1142397691243D+00
81  8.0000000000000D-01 -6.5826010444912D-01  1.0232412186591D+00
82  8.1000000000000D-01 -6.2804580834959D-01  9.2802760501938D-01
83  8.2000000000000D-01 -5.9356757578520D-01  8.2927150159091D-01
84  8.3000000000000D-01 -5.5527220310569D-01  7.2770472047759D-01
85  8.4000000000000D-01 -5.1364428044417D-01  6.2411020609651D-01
86  8.5000000000000D-01 -4.6920043052323D-01  5.1931283647410D-01
87  8.6000000000000D-01 -4.2248297406375D-01  4.1416926062925D-01
88  8.7000000000000D-01 -3.7405311182281D-01  3.0955692123682D-01
89  8.8000000000000D-01 -3.2448372377236D-01  2.0636243024238D-01
90  8.9000000000000D-01 -2.7435189480965D-01  1.0546948084495D-01
91  9.0000000000000D-01 -2.2423128347052D-01  7.7464919392269D-03
92  9.1000000000000D-01 -1.7468445520851D-01 -8.5965809630496D-02
93  9.2000000000000D-01 -1.2625530483106D-01 -1.7486665793671D-01
94  9.3000000000000D-01 -7.9461693478508D-02 -2.5820715502641D-01
95  9.4000000000000D-01 -3.4788424094104D-02 -3.3530160524006D-01
96  9.5000000000000D-01  7.3193243710756D-03 -4.0553807178447D-01
97  9.6000000000000D-01  4.6461989715181D-02 -4.6838796035941D-01
98  9.7000000000000D-01  8.2290940006833D-02 -5.2341444820713D-01
99  9.8000000000000D-01  1.1451301182966D-01 -5.7027959409913D-01
100  9.9000000000000D-01  1.4289418921392D-01 -6.0874998514685D-01
101  1.0000000000000D+00  1.6726235326324D-01 -6.3870080025329D-01
102  1.0100000000000D+00  1.8750904714696D-01 -6.6011819507398D-01
103  1.0200000000000D+00  2.0359021817430D-01 -6.7309994254812D-01
104  1.0300000000000D+00  2.1552591588019D-01 -6.7785429260167D-01
105  1.0400000000000D+00  2.2339894306225D-01 -6.7469704557637D-01
106  1.0500000000000D+00  2.2735247505358D-01 -6.6404686551060D-01
107  1.0600000000000D+00  2.2758668162418D-01 -6.4641889232819D-01
108  1.0700000000000D+00  2.2435440210829D-01 -6.2241673993945D-01
109  1.0800000000000D+00  2.1795594405457D-01 -5.9272300127314D-01
110  1.0900000000000D+00  2.0873309056737D-01 -5.5808840696526D-01
111  1.1000000000000D+00  1.9706241714423D-01 -5.1931981147685D-01
112  1.1100000000000D+00  1.8334803240379D-01 -4.7726720394479D-01
113  1.1200000000000D+00  1.6801386782597D-01 -4.3280995965616D-01
114  1.1300000000000D+00  1.5149565312722D-01 -3.8684256799415D-01
115  1.1400000000000D+00  1.3423271969040D-01 -3.4026008278314D-01
116  1.1500000000000D+00  1.1665977967193D-01 -2.9394355003236D-01
117  1.1600000000000D+00  9.9198831348468D-02 -2.4874567321030D-01
118  1.1700000000000D+00  8.2251341162301D-02 -2.0547697609033D-01
119  1.1800000000000D+00  6.6190849350191D-02 -1.6489271706626D-01
120  1.1900000000000D+00  5.1356140867533D-02 -1.2768079993830D-01
121  1.2000000000000D+00  3.8045117749197D-02 -9.4450916577413D-02
122  1.2100000000000D+00  2.6509495965774D-02 -6.5725134279070D-02
123  1.2200000000000D+00  1.6956201611980D-02 -4.1943990522509D-02
124  1.2300000000000D+00  9.5051946668086D-03 -2.3367885200246D-02
125  1.2400000000000D+00  4.2615415199434D-03 -1.0250155852847D-02
126  1.2500000000000D+00  1.4741593891929D-03 -3.1929991837781D-03
127  1.2600000000000D+00  4.3998002466784D-04 -6.6289071303874D-04
128  1.2700000000000D+00  5.6203603649983D-05 -3.7709098164195D-05
129  1.2800000000000D+00 -2.0575991916126D-05 -3.8625952688535D-07
130  1.2900000000000D+00  2.0316528375583D-06 -1.5242226654689D-06
131  1.3000000000000D+00  4.1780985837544D-06 -2.3705923022417D-06
132  1.3100000000000D+00 -1.4812082567206D-06  2.4223281759774D-06
133  1.3200000000000D+00  0.0000000000000D+00  0.0000000000000D+00
134  1.3300000000000D+00  0.0000000000000D+00  0.0000000000000D+00
135  1.3400000000000D+00  0.0000000000000D+00  0.0000000000000D+00
136  1.3500000000000D+00  0.0000000000000D+00  0.0000000000000D+00
137  1.3600000000000D+00  0.0000000000000D+00  0.0000000000000D+00
138  1.3700000000000D+00  0.0000000000000D+00  0.0000000000000D+00
139  1.3800000000000D+00  0.0000000000000D+00  0.0000000000000D+00
140  1.3900000000000D+00  0.0000000000000D+00  0.0000000000000D+00
141  1.4000000000000D+00  0.0000000000000D+00  0.0000000000000D+00
142  1.4100000000000D+00  0.0000000000000D+00  0.0000000000000D+00
143  1.4200000000000D+00  0.0000000000000D+00  0.0000000000000D+00
144  1.4300000000000D+00  0.0000000000000D+00  0.0000000000000D+00
145  1.4400000000000D+00  0.0000000000000D+00  0.0000000000000D+00
146  1.4500000000000D+00  0.0000000000000D+00  0.0000000000000D+00
147  1.4600000000000D+00  0.0000000000000D+00  0.0000000000000D+00
148  1.4700000000000D+00  0.0000000000000D+00  0.0000000000000D+00
149  1.4800000000000D+00  0.0000000000000D+00  0.0000000000000D+00
150  1.4900000000000D+00  0.0000000000000D+00  0.0000000000000D+00
151  1.5000000000000D+00  0.0000000000000D+00  0.0000000000000D+00
152  1.5100000000000D+00  0.0000000000000D+00  0.0000000000000D+00
153  1.5200000000000D+00  0.0000000000000D+00  0.0000000000000D+00
154  1.5300000000000D+00  0.0000000000000D+00  0.0000000000000D+00
155  1.5400000000000D+00  0.0000000000000D+00  0.0000000000000D+00
156  1.5500000000000D+00  0.0000000000000D+00  0.0000000000000D+00
157  1.5600000000000D+00  0.0000000000000D+00  0.0000000000000D+00
158  1.5700000000000D+00  0.0000000000000D+00  0.0000000000000D+00
159  1.5800000000000D+00  0.0000000000000D+00  0.0000000000000D+00
160  1.5900000000000D+00  0.0000000000000D+00  0.0000000000000D+00
161  1.6000000000000D+00  0.0000000000000D+00  0.0000000000000D+00
162  1.6100000000000D+00  0.0000000000000D+00  0.0000000000000D+00
163  1.6200000000000D+00  0.0000000000000D+00  0.0000000000000D+00
164  1.6300000000000D+00  0.0000000000000D+00  0.0000000000000D+00
165  1.6400000000000D+00  0.0000000000000D+00  0.0000000000000D+00
166  1.6500000000000D+00  0.0000000000000D+00  0.0000000000000D+00
167  1.6600000000000D+00  0.0000000000000D+00  0.0000000000000D+00
168  1.6700000000000D+00  0.0000000000000D+00  0.0000000000000D+00
169  1.6800000000000D+00  0.0000000000000D+00  0.0000000000000D+00
170  1.6900000000000D+00  0.0000000000000D+00  0.0000000000000D+00
171  1.7000000000000D+00  0.0000000000000D+00  0.0000000000000D+00
172  1.7100000000000D+00  0.0000000000000D+00  0.0000000000000D+00
173  1.7200000000000D+00  0.0000000000000D+00  0.0000000000000D+00
174  1.7300000000000D+00  0.0000000000000D+00  0.0000000000000D+00
175  1.7400000000000D+00  0.0000000000000D+00  0.0000000000000D+00
176  1.7500000000000D+00  0.0000000000000D+00  0.0000000000000D+00
177  1.7600000000000D+00  0.0000000000000D+00  0.0000000000000D+00
178  1.7700000000000D+00  0.0000000000000D+00  0.0000000000000D+00
179  1.7800000000000D+00  0.0000000000000D+00  0.0000000000000D+00
180  1.7900000000000D+00  0.0000000000000D+00  0.0000000000000D+00
181  1.8000000000000D+00  0.0000000000000D+00  0.0000000000000D+00
182  1.8100000000000D+00  0.0000000000000D+00  0.0000000000000D+00
183  1.8200000000000D+00  0.0000000000000D+00  0.0000000000000D+00
184  1.8300000000000D+00  0.0000000000000D+00  0.0000000000000D+00
185  1.8400000000000D+00  0.0000000000000D+00  0.0000000000000D+00
186  1.8500000000000D+00  0.0000000000000D+00  0.0000000000000D+00
187  1.8600000000000D+00  0.0000000000000D+00  0.0000000000000D+00
188  1.8700000000000D+00  0.0000000000000D+00  0.0000000000000D+00
189  1.8800000000000D+00  0.0000000000000D+00  0.0000000000000D+00
190  1.8900000000000D+00  0.0000000000000D+00  0.0000000000000D+00
191  1.9000000000000D+00  0.0000000000000D+00  0.0000000000000D+00
192  1.9100000000000D+00  0.0000000000000D+00  0.0000000000000D+00
193  1.9200000000000D+00  0.0000000000000D+00  0.0000000000000D+00
194  1.9300000000000D+00  0.0000000000000D+00  0.0000000000000D+00
195  1.9400000000000D+00  0.0000000000000D+00  0.0000000000000D+00
196  1.9500000000000D+00  0.0000000000000D+00  0.0000000000000D+00
197  1.9600000000000D+00  0.0000000000000D+00  0.0000000000000D+00
198  1.9700000000000D+00  0.0000000000000D+00  0.0000000000000D+00
199  1.9800000000000D+00  0.0000000000000D+00  0.0000000000000D+00
200  1.9900000000000D+00  0.0000000000000D+00  0.0000000000000D+00
201  2.0000000000000D+00  0.0000000000000D+00  0.0000000000000D+00
202  2.0100000000000D+00  0.0000000000000D+00  0.0000000000000D+00
203  2.0200000000000D+00  0.0000000000000D+00  0.0000000000000D+00
204  2.0300000000000D+00  0.0000000000000D+00  0.0000000000000D+00
205  2.0400000000000D+00  0.0000000000000D+00  0.0000000000000D+00
206  2.0500000000000D+00  0.0000000000000D+00  0.0000000000000D+00
207  2.0600000000000D+00  0.0000000000000D+00  0.0000000000000D+00
208  2.0700000000000D+00  0.0000000000000D+00  0.0000000000000D+00
209  2.0800000000000D+00  0.0000000000000D+00  0.0000000000000D+00
210  2.0900000000000D+00  0.0000000000000D+00  0.0000000000000D+00
211  2.1000000000000D+00  0.0000000000000D+00  0.0000000000000D+00
212  2.1100000000000D+00  0.0000000000000D+00  0.0000000000000D+00
213  2.1200000000000D+00  0.0000000000000D+00  0.0000000000000D+00
214  2.1300000000000D+00  0.0000000000000D+00  0.0000000000000D+00
215  2.1400000000000D+00  0.0000000000000D+00  0.0000000000000D+00
216  2.1500000000000D+00  0.0000000000000D+00  0.0000000000000D+00
217  2.1600000000000D+00  0.0000000000000D+00  0.0000000000000D+00
218  2.1700000000000D+00  0.0000000000000D+00  0.0000000000000D+00
219  2.1800000000000D+00  0.0000000000000D+00  0.0000000000000D+00
220  2.1900000000000D+00  0.0000000000000D+00  0.0000000000000D+00
221  2.2000000000000D+00  0.0000000000000D+00  0.0000000000000D+00
222  2.2100000000000D+00  0.0000000000000D+00  0.0000000000000D+00
223  2.2200000000000D+00  0.0000000000000D+00  0.0000000000000D+00
224  2.2300000000000D+00  0.0000000000000D+00  0.0000000000000D+00
225  2.2400000000000D+00  0.0000000000000D+00  0.0000000000000D+00
226  2.2500000000000D+00  0.0000000000000D+00  0.0000000000000D+00
227  2.2600000000000D+00  0.0000000000000D+00  0.0000000000000D+00
228  2.2700000000000D+00  0.0000000000000D+00  0.0000000000000D+00
229  2.2800000000000D+00  0.0000000000000D+00  0.0000000000000D+00
230  2.2900000000000D+00  0.0000000000000D+00  0.0000000000000D+00
231  2.3000000000000D+00  0.0000000000000D+00  0.0000000000000D+00
232  2.3100000000000D+00  0.0000000000000D+00  0.0000000000000D+00
233  2.3200000000000D+00  0.0000000000000D+00  0.0000000000000D+00
234  2.3300000000000D+00  0.0000000000000D+00  0.0000000000000D+00
235  2.3400000000000D+00  0.0000000000000D+00  0.0000000000000D+00
236  2.3500000000000D+00  0.0000000000000D+00  0.0000000000000D+00
237  2.3600000000000D+00  0.0000000000000D+00  0.0000000000000D+00
238  2.3700000000000D+00  0.0000000000000D+00  0.0000000000000D+00
239  2.3800000000000D+00  0.0000000000000D+00  0.0000000000000D+00
240  2.3900000000000D+00  0.0000000000000D+00  0.0000000000000D+00
241  2.4000000000000D+00  0.0000000000000D+00  0.0000000000000D+00
242  2.4100000000000D+00  0.0000000000000D+00  0.0000000000000D+00
243  2.4200000000000D+00  0.0000000000000D+00  0.0000000000000D+00
244  2.4300000000000D+00  0.0000000000000D+00  0.0000000000000D+00
245  2.4400000000000D+00  0.0000000000000D+00  0.0000000000000D+00
246  2.4500000000000D+00  0.0000000000000D+00  0.0000000000000D+00
247  2.4600000000000D+00  0.0000000000000D+00  0.0000000000000D+00
248  2.4700000000000D+00  0.0000000000000D+00  0.0000000000000D+00
249  2.4800000000000D+00  0.0000000000000D+00  0.0000000000000D+00
250  2.4900000000000D+00  0.0000000000000D+00  0.0000000000000D+00
251  2.5000000000000D+00  0.0000000000000D+00  0.0000000000000D+00
252  2.5100000000000D+00  0.0000000000000D+00  0.0000000000000D+00
253  2.5200000000000D+00  0.0000000000000D+00  0.0000000000000D+00
254  2.5300000000000D+00  0.0000000000000D+00  0.0000000000000D+00
255  2.5400000000000D+00  0.0000000000000D+00  0.0000000000000D+00
256  2.5500000000000D+00  0.0000000000000D+00  0.0000000000000D+00
257  2.5600000000000D+00  0.0000000000000D+00  0.0000000000000D+00
258  2.5700000000000D+00  0.0000000000000D+00  0.0000000000000D+00
259  2.5800000000000D+00  0.0000000000000D+00  0.0000000000000D+00
260  2.5900000000000D+00  0.0000000000000D+00  0.0000000000000D+00
261  2.6000000000000D+00  0.0000000000000D+00  0.0000000000000D+00
262  2.6100000000000D+00  0.0000000000000D+00  0.0000000000000D+00
263  2.6200000000000D+00  0.0000000000000D+00  0.0000000000000D+00
264  2.6300000000000D+00  0.0000000000000D+00  0.0000000000000D+00
265  2.6400000000000D+00  0.0000000000000D+00  0.0000000000000D+00
266  2.6500000000000D+00  0.0000000000000D+00  0.0000000000000D+00
267  2.6600000000000D+00  0.0000000000000D+00  0.0000000000000D+00
268  2.6700000000000D+00  0.0000000000000D+00  0.0000000000000D+00
269  2.6800000000000D+00  0.0000000000000D+00  0.0000000000000D+00
270  2.6900000000000D+00  0.0000000000000D+00  0.0000000000000D+00
271  2.7000000000000D+00  0.0000000000000D+00  0.0000000000000D+00
272  2.7100000000000D+00  0.0000000000000D+00  0.0000000000000D+00
273  2.7200000000000D+00  0.0000000000000D+00  0.0000000000000D+00
274  2.7300000000000D+00  0.0000000000000D+00  0.0000000000000D+00
275  2.7400000000000D+00  0.0000000000000D+00  0.0000000000000D+00
276  2.7500000000000D+00  0.0000000000000D+00  0.0000000000000D+00
277  2.7600000000000D+00  0.0000000000000D+00  0.0000000000000D+00
278  2.7700000000000D+00  0.0000000000000D+00  0.0000000000000D+00
279  2.7800000000000D+00  0.0000000000000D+00  0.0000000000000D+00
280  2.7900000000000D+00  0.0000000000000D+00  0.0000000000000D+00
281  2.8000000000000D+00  0.0000000000000D+00  0.0000000000000D+00
282  2.8100000000000D+00  0.0000000000000D+00  0.0000000000000D+00
283  2.8200000000000D+00  0.0000000000000D+00  0.0000000000000D+00
284  2.8300000000000D+00  0.0000000000000D+00  0.0000000000000D+00
285  2.8400000000000D+00  0.0000000000000D+00  0.0000000000000D+00
286  2.8500000000000D+00  0.0000000000000D+00  0.0000000000000D+00
287  2.8600000000000D+00  0.0000000000000D+00  0.0000000000000D+00
288  2.8700000000000D+00  0.0000000000000D+00  0.0000000000000D+00
289  2.8800000000000D+00  0.0000000000000D+00  0.0000000000000D+00
290  2.8900000000000D+00  0.0000000000000D+00  0.0000000000000D+00
291  2.9000000000000D+00  0.0000000000000D+00  0.0000000000000D+00
292  2.9100000000000D+00  0.0000000000000D+00  0.0000000000000D+00
293  2.9200000000000D+00  0.0000000000000D+00  0.0000000000000D+00
294  2.9300000000000D+00  0.0000000000000D+00  0.0000000000000D+00
295  2.9400000000000D+00  0.0000000000000D+00  0.0000000000000D+00
296  2.9500000000000D+00  0.0000000000000D+00  0.0000000000000D+00
297  2.9600000000000D+00  0.0000000000000D+00  0.0000000000000D+00
298  2.9700000000000D+00  0.0000000000000D+00  0.0000000000000D+00
299  2.9800000000000D+00  0.0000000000000D+00  0.0000000000000D+00
300  2.9900000000000D+00  0.0000000000000D+00  0.0000000000000D+00
301  3.0000000000000D+00  0.0000000000000D+00  0.0000000000000D+00
302  3.0100000000000D+00  0.0000000000000D+00  0.0000000000000D+00
303  3.0200000000000D+00  0.0000000000000D+00  0.0000000000000D+00
304  3.0300000000000D+00  0.0000000000000D+00  0.0000000000000D+00
305  3.0400000000000D+00  0.0000000000000D+00  0.0000000000000D+00
306  3.0500000000000D+00  0.0000000000000D+00  0.0000000000000D+00
307  3.0600000000000D+00  0.0000000000000D+00  0.0000000000000D+00
308  3.0700000000000D+00  0.0000000000000D+00  0.0000000000000D+00
309  3.0800000000000D+00  0.0000000000000D+00  0.0000000000000D+00
310  3.0900000000000D+00  0.0000000000000D+00  0.0000000000000D+00
311  3.1000000000000D+00  0.0000000000000D+00  0.0000000000000D+00
312  3.1100000000000D+00  0.0000000000000D+00  0.0000000000000D+00
313  3.1200000000000D+00  0.0000000000000D+00  0.0000000000000D+00
314  3.1300000000000D+00  0.0000000000000D+00  0.0000000000000D+00
315  3.1400000000000D+00  0.0000000000000D+00  0.0000000000000D+00
316  3.1500000000000D+00  0.0000000000000D+00  0.0000000000000D+00
317  3.1600000000000D+00  0.0000000000000D+00  0.0000000000000D+00
318  3.1700000000000D+00  0.0000000000000D+00  0.0000000000000D+00
319  3.1800000000000D+00  0.0000000000000D+00  0.0000000000000D+00
320  3.1900000000000D+00  0.0000000000000D+00  0.0000000000000D+00
321  3.2000000000000D+00  0.0000000000000D+00  0.0000000000000D+00
322  3.2100000000000D+00  0.0000000000000D+00  0.0000000000000D+00
323  3.2200000000000D+00  0.0000000000000D+00  0.0000000000000D+00
324  3.2300000000000D+00  0.0000000000000D+00  0.0000000000000D+00
325  3.2400000000000D+00  0.0000000000000D+00  0.0000000000000D+00
326  3.2500000000000D+00  0.0000000000000D+00  0.0000000000000D+00
327  3.2600000000000D+00  0.0000000000000D+00  0.0000000000000D+00
328  3.2700000000000D+00  0.0000000000000D+00  0.0000000000000D+00
329  3.2800000000000D+00  0.0000000000000D+00  0.0000000000000D+00
330  3.2900000000000D+00  0.0000000000000D+00  0.0000000000000D+00
331  3.3000000000000D+00  0.0000000000000D+00  0.0000000000000D+00
332  3.3100000000000D+00  0.0000000000000D+00  0.0000000000000D+00
333  3.3200000000000D+00  0.0000000000000D+00  0.0000000000000D+00
334  3.3300000000000D+00  0.0000000000000D+00  0.0000000000000D+00
335  3.3400000000000D+00  0.0000000000000D+00  0.0000000000000D+00
336  3.3500000000000D+00  0.0000000000000D+00  0.0000000000000D+00
337  3.3600000000000D+00  0.0000000000000D+00  0.0000000000000D+00
338  3.3700000000000D+00  0.0000000000000D+00  0.0000000000000D+00
339  3.3800000000000D+00  0.0000000000000D+00  0.0000000000000D+00
340  3.3900000000000D+00  0.0000000000000D+00  0.0000000000000D+00
341  3.4000000000000D+00  0.0000000000000D+00  0.0000000000000D+00
342  3.4100000000000D+00  0.0000000000000D+00  0.0000000000000D+00
343  3.4200000000000D+00  0.0000000000000D+00  0.0000000000000D+00
344  3.4300000000000D+00  0.0000000000000D+00  0.0000000000000D+00
345  3.4400000000000D+00  0.0000000000000D+00  0.0000000000000D+00
346  3.4500000000000D+00  0.0000000000000D+00  0.0000000000000D+00
347  3.4600000000000D+00  0.0000000000000D+00  0.0000000000000D+00
348  3.4700000000000D+00  0.0000000000000D+00  0.0000000000000D+00
349  3.4800000000000D+00  0.0000000000000D+00  0.0000000000000D+00
350  3.4900000000000D+00  0.0000000000000D+00  0.0000000000000D+00
351  3.5000000000000D+00  0.0000000000000D+00  0.0000000000000D+00
352  3.5100000000000D+00  0.0000000000000D+00  0.0000000000000D+00
353  3.5200000000000D+00  0.0000000000000D+00  0.0000000000000D+00
354  3.5300000000000D+00  0.0000000000000D+00  0.0000000000000D+00
355  3.5400000000000D+00  0.0000000000000D+00  0.0000000000000D+00
356  3.5500000000000D+00  0.0000000000000D+00  0.0000000000000D+00
357  3.5600000000000D+00  0.0000000000000D+00  0.0000000000000D+00
358  3.5700000000000D+00  0.0000000000000D+00  0.0000000000000D+00
359  3.5800000000000D+00  0.0000000000000D+00  0.0000000000000D+00
360  3.5900000000000D+00  0.0000000000000D+00  0.0000000000000D+00
361  3.6000000000000D+00  0.0000000000000D+00  0.0000000000000D+00
362  3.6100000000000D+00  0.0000000000000D+00  0.0000000000000D+00
363  3.6200000000000D+00  0.0000000000000D+00  0.0000000000000D+00
364  3.6300000000000D+00  0.0000000000000D+00  0.0000000000000D+00
365  3.6400000000000D+00  0.0000000000000D+00  0.0000000000000D+00
366  3.6500000000000D+00  0.0000000000000D+00  0.0000000000000D+00
367  3.6600000000000D+00  0.0000000000000D+00  0.0000000000000D+00
368  3.6700000000000D+00  0.0000000000000D+00  0.0000000000000D+00
369  3.6800000000000D+00  0.0000000000000D+00  0.0000000000000D+00
370  3.6900000000000D+00  0.0000000000000D+00  0.0000000000000D+00
371  3.7000000000000D+00  0.0000000000000D+00  0.0000000000000D+00
372  3.7100000000000D+00  0.0000000000000D+00  0.0000000000000D+00
373  3.7200000000000D+00  0.0000000000000D+00  0.0000000000000D+00
374  3.7300000000000D+00  0.0000000000000D+00  0.0000000000000D+00
375  3.7400000000000D+00  0.0000000000000D+00  0.0000000000000D+00
376  3.7500000000000D+00  0.0000000000000D+00  0.0000000000000D+00
377  3.7600000000000D+00  0.0000000000000D+00  0.0000000000000D+00
378  3.7700000000000D+00  0.0000000000000D+00  0.0000000000000D+00
379  3.7800000000000D+00  0.0000000000000D+00  0.0000000000000D+00
380  3.7900000000000D+00  0.0000000000000D+00  0.0000000000000D+00
381  3.8000000000000D+00  0.0000000000000D+00  0.0000000000000D+00
382  3.8100000000000D+00  0.0000000000000D+00  0.0000000000000D+00
383  3.8200000000000D+00  0.0000000000000D+00  0.0000000000000D+00
384  3.8300000000000D+00  0.0000000000000D+00  0.0000000000000D+00
385  3.8400000000000D+00  0.0000000000000D+00  0.0000000000000D+00
386  3.8500000000000D+00  0.0000000000000D+00  0.0000000000000D+00
387  3.8600000000000D+00  0.0000000000000D+00  0.0000000000000D+00
388  3.8700000000000D+00  0.0000000000000D+00  0.0000000000000D+00
389  3.8800000000000D+00  0.0000000000000D+00  0.0000000000000D+00
390  3.8900000000000D+00  0.0000000000000D+00  0.0000000000000D+00
391  3.9000000000000D+00  0.0000000000000D+00  0.0000000000000D+00
392  3.9100000000000D+00  0.0000000000000D+00  0.0000000000000D+00
393  3.9200000000000D+00  0.0000000000000D+00  0.0000000000000D+00
394  3.9300000000000D+00  0.0000000000000D+00  0.0000000000000D+00
395  3.9400000000000D+00  0.0000000000000D+00  0.0000000000000D+00
396  3.9500000000000D+00  0.0000000000000D+00  0.0000000000000D+00
397  3.9600000000000D+00  0.0000000000000D+00  0.0000000000000D+00
398  3.9700000000000D+00  0.0000000000000D+00  0.0000000000000D+00
399  3.9800000000000D+00  0.0000000000000D+00  0.0000000000000D+00
400  3.9900000000000D+00  0.0000000000000D+00  0.0000000000000D+00
401  4.0000000000000D+00  0.0000000000000D+00  0.0000000000000D+00
402  4.0100000000000D+00  0.0000000000000D+00  0.0000000000000D+00
403  4.0200000000000D+00  0.0000000000000D+00  0.0000000000000D+00
404  4.0300000000000D+00  0.0000000000000D+00  0.0000000000000D+00
405  4.0400000000000D+00  0.0000000000000D+00  0.0000000000000D+00
406  4.0500000000000D+00  0.0000000000000D+00  0.0000000000000D+00
407  4.0600000000000D+00  0.0000000000000D+00  0.0000000000000D+00
408  4.0700000000000D+00  0.0000000000000D+00  0.0000000000000D+00
409  4.0800000000000D+00  0.0000000000000D+00  0.0000000000000D+00
410  4.0900000000000D+00  0.0000000000000D+00  0.0000000000000D+00
411  4.1000000000000D+00  0.0000000000000D+00  0.0000000000000D+00
412  4.1100000000000D+00  0.0000000000000D+00  0.0000000000000D+00
413  4.1200000000000D+00  0.0000000000000D+00  0.0000000000000D+00
414  4.1300000000000D+00  0.0000000000000D+00  0.0000000000000D+00
415  4.1400000000000D+00  0.0000000000000D+00  0.0000000000000D+00
416  4.1500000000000D+00  0.0000000000000D+00  0.0000000000000D+00
417  4.1600000000000D+00  0.0000000000000D+00  0.0000000000000D+00
418  4.1700000000000D+00  0.0000000000000D+00  0.0000000000000D+00
419  4.1800000000000D+00  0.0000000000000D+00  0.0000000000000D+00
420  4.1900000000000D+00  0.0000000000000D+00  0.0000000000000D+00
421  4.2000000000000D+00  0.0000000000000D+00  0.0000000000000D+00
422  4.2100000000000D+00  0.0000000000000D+00  0.0000000000000D+00
423  4.2200000000000D+00  0.0000000000000D+00  0.0000000000000D+00
424  4.2300000000000D+00  0.0000000000000D+00  0.0000000000000D+00
425  4.2400000000000D+00  0.0000000000000D+00  0.0000000000000D+00
426  4.2500000000000D+00  0.0000000000000D+00  0.0000000000000D+00
427  4.2600000000000D+00  0.0000000000000D+00  0.0000000000000D+00
428  4.2700000000000D+00  0.0000000000000D+00  0.0000000000000D+00
429  4.2800000000000D+00  0.0000000000000D+00  0.0000000000000D+00
430  4.2900000000000D+00  0.0000000000000D+00  0.0000000000000D+00
431  4.3000000000000D+00  0.0000000000000D+00  0.0000000000000D+00
432  4.3100000000000D+00  0.0000000000000D+00  0.0000000000000D+00
433  4.3200000000000D+00  0.0000000000000D+00  0.0000000000000D+00
434  4.3300000000000D+00  0.0000000000000D+00  0.0000000000000D+00
435  4.3400000000000D+00  0.0000000000000D+00  0.0000000000000D+00
436  4.3500000000000D+00  0.0000000000000D+00  0.0000000000000D+00
437  4.3600000000000D+00  0.0000000000000D+00  0.0000000000000D+00
438  4.3700000000000D+00  0.0000000000000D+00  0.0000000000000D+00
439  4.3800000000000D+00  0.0000000000000D+00  0.0000000000000D+00
440  4.3900000000000D+00  0.0000000000000D+00  0.0000000000000D+00
441  4.4000000000000D+00  0.0000000000000D+00  0.0000000000000D+00
442  4.4100000000000D+00  0.0000000000000D+00  0.0000000000000D+00
443  4.4200000000000D+00  0.0000000000000D+00  0.0000000000000D+00