Cd    ONCVPSP-3.2.3.1  r_core=   1.91042   2.10171   1.71595
48.0000     12.0000      170428    zatom,zion,pspd
8      11   2     4   600     0    pspcod,pspxc,lmax,lloc,mmax,r2well
5.99000000  5.00000000  0.00000000    rchrg fchrg qchrg
2     2     2     0     0    nproj
1     1           extension_switch
0                         1.0670315784093D+01  1.8376395673239D+00
1  0.0000000000000D+00 -5.9888760617355D-11  7.0820349584721D-11
2  1.0000000000000D-02  4.4955846544515D-02 -3.0641565308613D-02
3  2.0000000000000D-02  8.9765969695231D-02 -6.1119607629908D-02
4  3.0000000000000D-02  1.3428536826376D-01 -9.1271430627645D-02
5  4.0000000000000D-02  1.7837048197560D-01 -1.2093598721672D-01
6  5.0000000000000D-02  2.2187990319970D-01 -1.4995469407890D-01
7  6.0000000000000D-02  2.6467507824714D-01 -1.7817223409658D-01
8  7.0000000000000D-02  3.0662099483183D-01 -2.0543734275978D-01
9  8.0000000000000D-02  3.4758685234567D-01 -2.3160357467254D-01
10  9.0000000000000D-02  3.8744671167462D-01 -2.5653004637210D-01
11  1.0000000000000D-01  4.2608012137083D-01 -2.8008215177943D-01
12  1.1000000000000D-01  4.6337271709803D-01 -3.0213224672044D-01
13  1.2000000000000D-01  4.9921679138383D-01 -3.2256029909492D-01
14  1.3000000000000D-01  5.3351183084185D-01 -3.4125450142284D-01
15  1.4000000000000D-01  5.6616501816894D-01 -3.5811184266633D-01
16  1.5000000000000D-01  5.9709169637761D-01 -3.7303863640788D-01
17  1.6000000000000D-01  6.2621579289017D-01 -3.8595100266235D-01
18  1.7000000000000D-01  6.5347020129934D-01 -3.9677530080984D-01
19  1.8000000000000D-01  6.7879711878864D-01 -4.0544851135922D-01
20  1.9000000000000D-01  7.0214833740429D-01 -4.1191856448573D-01
21  2.0000000000000D-01  7.2348548757906D-01 -4.1614461353103D-01
22  2.1000000000000D-01  7.4278023252449D-01 -4.1809725190860D-01
23  2.2000000000000D-01  7.6001441233265D-01 -4.1775867212085D-01
24  2.3000000000000D-01  7.7518013686002D-01 -4.1512276586594D-01
25  2.4000000000000D-01  7.8827982670330D-01 -4.1019516448996D-01
26  2.5000000000000D-01  7.9932620181970D-01 -4.0299321932467D-01
27  2.6000000000000D-01  8.0834221759098D-01 -3.9354592173870D-01
28  2.7000000000000D-01  8.1536094838034D-01 -3.8189376302238D-01
29  2.8000000000000D-01  8.2042541888328D-01 -3.6808853451940D-01
30  2.9000000000000D-01  8.2358838382707D-01 -3.5219306871432D-01
31  3.0000000000000D-01  8.2491205682607D-01 -3.3428092227762D-01
32  3.1000000000000D-01  8.2446778945256D-01 -3.1443600236327D-01
33  3.2000000000000D-01  8.2233570183227D-01 -2.9275213774278D-01
34  3.3000000000000D-01  8.1860426632014D-01 -2.6933259664368D-01
35  3.4000000000000D-01  8.1336984605390D-01 -2.4428955344032D-01
36  3.5000000000000D-01  8.0673619041843D-01 -2.1774350661488D-01
37  3.6000000000000D-01  7.9881388968376D-01 -1.8982265067054D-01
38  3.7000000000000D-01  7.8971979130031D-01 -1.6066220493146D-01
39  3.8000000000000D-01  7.7957638054550D-01 -1.3040370240413D-01
40  3.9000000000000D-01  7.6851112841983D-01 -9.9194242106292D-02
41  4.0000000000000D-01  7.5665580987794D-01 -6.7185708481965D-02
42  4.1000000000000D-01  7.4414579565826D-01 -3.4533961721795D-02
43  4.2000000000000D-01  7.3111932113897D-01 -1.3980029913103D-03
44  4.3000000000000D-01  7.1771673579580D-01  3.2060881265505D-02
45  4.4000000000000D-01  7.0407973697134D-01  6.5679991632132D-02
46  4.5000000000000D-01  6.9035059178117D-01  9.9296100193925D-02
47  4.6000000000000D-01  6.7667135108181D-01  1.3274634263251D-01
48  4.7000000000000D-01  6.6318305950667D-01  1.6586911330729D-01
49  4.8000000000000D-01  6.5002496563654D-01  1.9850495862963D-01
50  4.9000000000000D-01  6.3733373641486D-01  2.3049746399518D-01
51  5.0000000000000D-01  6.2524267993988D-01  2.6169412952420D-01
52  5.1000000000000D-01  6.1388098076552D-01  2.9194722987005D-01
53  5.2000000000000D-01  6.0337295182482D-01  3.2111465338760D-01
54  5.3000000000000D-01  5.9383730704875D-01  3.4906071601178D-01
55  5.4000000000000D-01  5.8538645868826D-01  3.7565694528134D-01
56  5.5000000000000D-01  5.7812584326671D-01  4.0078283004842D-01
57  5.6000000000000D-01  5.7215327998146D-01  4.2432653154970D-01
58  5.7000000000000D-01  5.6755836524751D-01  4.4618555167156D-01
59  5.8000000000000D-01  5.6442190692882D-01  4.6626735442287D-01
60  5.9000000000000D-01  5.6281540163208D-01  4.8448993683628D-01
61  6.0000000000000D-01  5.6280055825141D-01  5.0078234574515D-01
62  6.1000000000000D-01  5.6442887074296D-01  5.1508513713478D-01
63  6.2000000000000D-01  5.6774124288085D-01  5.2735077503887D-01
64  6.3000000000000D-01  5.7276766750296D-01  5.3754396724237D-01
65  6.4000000000000D-01  5.7952696249187D-01  5.4564193536367D-01
66  6.5000000000000D-01  5.8802656545993D-01  5.5163461721677D-01
67  6.6000000000000D-01  5.9826238881578D-01  5.5552479969769D-01
68  6.7000000000000D-01  6.1021873658445D-01  5.5732818079844D-01
69  6.8000000000000D-01  6.2386828403801D-01  5.5707335972190D-01
70  6.9000000000000D-01  6.3917212086500D-01  5.5480175445424D-01
71  7.0000000000000D-01  6.5607985827561D-01  5.5056744653979D-01
72  7.1000000000000D-01  6.7452980009371D-01  5.4443695320330D-01
73  7.2000000000000D-01  6.9444917754378D-01  5.3648892736485D-01
74  7.3000000000000D-01  7.1575444708858D-01  5.2681378649843D-01
75  7.4000000000000D-01  7.3835165032394D-01  5.1551327168928D-01
76  7.5000000000000D-01  7.6213683458634D-01  5.0269993864885D-01
77  7.6000000000000D-01  7.8699653258058D-01  4.8849658284550D-01
78  7.7000000000000D-01  8.1280829899358D-01  4.7303560129966D-01
79  7.8000000000000D-01  8.3944130172274D-01  4.5645829397729D-01
80  7.9000000000000D-01  8.6675696502100D-01  4.3891410808585D-01
81  8.0000000000000D-01  8.9460966154352D-01  4.2055982893667D-01
82  8.1000000000000D-01  9.2284744997678D-01  4.0155872137971D-01
83  8.2000000000000D-01  9.5131285464171D-01  3.8207962614148D-01
84  8.3000000000000D-01  9.7984368319162D-01  3.6229601569968D-01
85  8.4000000000000D-01  1.0082738782664D+00  3.4238501461386D-01
86  8.5000000000000D-01  1.0364343987358D+00  3.2252638948511D-01
87  8.6000000000000D-01  1.0641541259477D+00  3.0290151395247D-01
88  8.7000000000000D-01  1.0912607902096D+00  2.8369231433660D-01
89  8.8000000000000D-01  1.1175819125680D+00  2.6508020171487D-01
90  8.9000000000000D-01  1.1429457568074D+00  2.4724499635818D-01
91  9.0000000000000D-01  1.1671822864856D+00  2.3036385056831D-01
92  9.1000000000000D-01  1.1901241217322D+00  2.1461017603472D-01
93  9.2000000000000D-01  1.2116074904873D+00  2.0015258187276D-01
94  9.3000000000000D-01  1.2314731688330D+00  1.8715382951374D-01
95  9.4000000000000D-01  1.2495674050720D+00  1.7576981059231D-01
96  9.5000000000000D-01  1.2657428222505D+00  1.6614855391167D-01
97  9.6000000000000D-01  1.2798592938861D+00  1.5842926747007D-01
98  9.7000000000000D-01  1.2917847877617D+00  1.5274142139744D-01
99  9.8000000000000D-01  1.3013961727758D+00  1.4920387748027D-01
100  9.9000000000000D-01  1.3085799839979D+00  1.4792407074836D-01
101  1.0000000000000D+00  1.3132331412737D+00  1.4899724835330D-01
102  1.0100000000000D+00  1.3152636169322D+00  1.5250577070524D-01
103  1.0200000000000D+00  1.3145910484057D+00  1.5851847951850D-01
104  1.0300000000000D+00  1.3111472918406D+00  1.6709013708594D-01
105  1.0400000000000D+00  1.3048769130800D+00  1.7826094073626D-01
106  1.0500000000000D+00  1.2957376127189D+00  1.9205611603789D-01
107  1.0600000000000D+00  1.2837005822975D+00  2.0848559187558D-01
108  1.0700000000000D+00  1.2687507890244D+00  2.2754376013263D-01
109  1.0800000000000D+00  1.2508871868580D+00  2.4920932219162D-01
110  1.0900000000000D+00  1.2301228521439D+00  2.7344522402310D-01
111  1.1000000000000D+00  1.2064850424360D+00  3.0019868112391D-01
112  1.1100000000000D+00  1.1800151775752D+00  3.2940129403864D-01
113  1.1200000000000D+00  1.1507687424741D+00  3.6096925475147D-01
114  1.1300000000000D+00  1.1188151116001D+00  3.9480364360235D-01
115  1.1400000000000D+00  1.0842372955207D+00  4.3079081593699D-01
116  1.1500000000000D+00  1.0471316104036D+00  4.6880287709019D-01
117  1.1600000000000D+00  1.0076072716836D+00  5.0869824392198D-01
118  1.1700000000000D+00  9.6578591372661D-01  5.5032229040947D-01
119  1.1800000000000D+00  9.2180103766215D-01  5.9350807440317D-01
120  1.1900000000000D+00  8.7579739000618D-01  6.3807714213277D-01
121  1.2000000000000D+00  8.2793027508179D-01  6.8384040660413D-01
122  1.2100000000000D+00  7.7836480474699D-01  7.3059909545235D-01
123  1.2200000000000D+00  7.2727508930384D-01  7.7814576340077D-01
124  1.2300000000000D+00  6.7484337367264D-01  8.2626536423441D-01
125  1.2400000000000D+00  6.2125912352093D-01  8.7473637650954D-01
126  1.2500000000000D+00  5.6671806623037D-01  9.2333197700774D-01
127  1.2600000000000D+00  5.1142119179639D-01  9.7182125570267D-01
128  1.2700000000000D+00  4.5557371919192D-01  1.0199704655219D+00
129  1.2800000000000D+00  3.9938403391467D-01  1.0675442999877D+00
130  1.2900000000000D+00  3.4306260252982D-01  1.1143071917162D+00
131  1.3000000000000D+00  2.8682087035716D-01  1.1600246243925D+00
132  1.3100000000000D+00  2.3087014851877D-01  1.2044644507887D+00
133  1.3200000000000D+00  1.7542049660247D-01  1.2473982093405D+00
134  1.3300000000000D+00  1.2067960740804D-01  1.2886024315990D+00
135  1.3400000000000D+00  6.6851700102280D-02  1.3278599330658D+00
136  1.3500000000000D+00  1.4136428259507D-02  1.3649610797239D+00
137  1.3600000000000D+00 -3.7272190892008D-02  1.3997050228446D+00
138  1.3700000000000D+00 -8.7186819824645D-02  1.4319008947851D+00
139  1.3800000000000D+00 -1.3542781031876D-01  1.4613689583246D+00
140  1.3900000000000D+00 -1.8182417364248D-01  1.4879417029483D+00
141  1.4000000000000D+00 -2.2621450526131D-01  1.5114648810189D+00
142  1.4100000000000D+00 -2.6844785857641D-01  1.5317984774816D+00
143  1.4200000000000D+00 -3.0838456274149D-01  1.5488176074236D+00
144  1.4300000000000D+00 -3.4589697888017D-01  1.5624133349128D+00
145  1.4400000000000D+00 -3.8087019094776D-01  1.5724934089264D+00
146  1.4500000000000D+00 -4.1320262618772D-01  1.5789829105713D+00
147  1.4600000000000D+00 -4.4280660164595D-01  1.5818248076760D+00
148  1.4700000000000D+00 -4.6960879355025D-01  1.5809804132347D+00
149  1.4800000000000D+00 -4.9355062550218D-01  1.5764297431529D+00
150  1.4900000000000D+00 -5.1458857457281D-01  1.5681717725534D+00
151  1.5000000000000D+00 -5.3269439113462D-01  1.5562245859567D+00
152  1.5100000000000D+00 -5.4785523280669D-01  1.5406254221447D+00
153  1.5200000000000D+00 -5.6007370990698D-01  1.5214306109118D+00
154  1.5300000000000D+00 -5.6936784251861D-01  1.4987154021830D+00
155  1.5400000000000D+00 -5.7577092923249D-01  1.4725736879075D+00
156  1.5500000000000D+00 -5.7933132691604D-01  1.4431176163044D+00
157  1.5600000000000D+00 -5.8011214442046D-01  1.4104771022701D+00
158  1.5700000000000D+00 -5.7819084884622D-01  1.3747992326613D+00
159  1.5800000000000D+00 -5.7365878984541D-01  1.3362475733064D+00
160  1.5900000000000D+00 -5.6662064044546D-01  1.2950013763116D+00
161  1.6000000000000D+00 -5.5719376130203D-01  1.2512546961956D+00
162  1.6100000000000D+00 -5.4550748809652D-01  1.2052154148863D+00
163  1.6200000000000D+00 -5.3170234908779D-01  1.1571041842187D+00
164  1.6300000000000D+00 -5.1592921437606D-01  1.1071532881507D+00
165  1.6400000000000D+00 -4.9834838374932D-01  1.0556054331536D+00
166  1.6500000000000D+00 -4.7912861630160D-01  1.0027124709173D+00
167  1.6600000000000D+00 -4.5844610844031D-01  9.4873406066144D-01
168  1.6700000000000D+00 -4.3648342589060D-01  8.9393628280292D-01
169  1.6800000000000D+00 -4.1342839263338D-01  8.3859019243953D-01
170  1.6900000000000D+00 -3.8947295286124D-01  7.8297036986397D-01
171  1.7000000000000D+00 -3.6481200139444D-01  7.2735342911642D-01
172  1.7100000000000D+00 -3.3964216494712D-01  6.7201635377479D-01
173  1.7200000000000D+00 -3.1416061775188D-01  6.1723507035539D-01
174  1.7300000000000D+00 -2.8856393703637D-01  5.6328330506414D-01
175  1.7400000000000D+00 -2.6304695439241D-01  5.1043134805364D-01
176  1.7500000000000D+00 -2.3780165418420D-01  4.5894493997224D-01
177  1.7600000000000D+00 -2.1301606546806D-01  4.0908408364367D-01
178  1.7700000000000D+00 -1.8887310911168D-01  3.6110149593667D-01
179  1.7800000000000D+00 -1.6554949178769D-01  3.1524119817360D-01
180  1.7900000000000D+00 -1.4321464368377D-01  2.7173724455960D-01
181  1.8000000000000D+00 -1.2202967978419D-01  2.3081240839592D-01
182  1.8100000000000D+00 -1.0214641196242D-01  1.9267696136829D-01
183  1.8200000000000D+00 -8.3706404264700D-02  1.5752749796110D-01
184  1.8300000000000D+00 -6.6840085977586D-02  1.2554583337080D-01
185  1.8400000000000D+00 -5.1665918601795D-02  9.6897968574213D-02
186  1.8500000000000D+00 -3.8298646414862D-02  7.1750189942555D-02
187  1.8600000000000D+00 -2.6812388470136D-02  5.0199726255309D-02
188  1.8700000000000D+00 -1.7247287335660D-02  3.2287872513143D-02
189  1.8800000000000D+00 -9.7306923284845D-03  1.8229047049673D-02
190  1.8900000000000D+00 -4.4479878527902D-03  8.3560825208260D-03
191  1.9000000000000D+00 -1.3570040472925D-03  2.5813504557219D-03
192  1.9100000000000D+00  3.0218589480749D-05 -1.6153372810087D-05
193  1.9200000000000D+00  3.1031147028872D-04 -5.5638096002348D-04
194  1.9300000000000D+00  9.3219903660401D-05 -1.6926765265637D-04
195  1.9400000000000D+00 -8.0115377064875D-05  1.4587831498546D-04
196  1.9500000000000D+00 -6.4686049359094D-05  1.1807245055950D-04
197  1.9600000000000D+00  8.5849466871780D-06 -1.5544029105036D-05
198  1.9700000000000D+00  1.6149777172214D-05 -2.9291988254210D-05
199  1.9800000000000D+00  5.6415396884471D-08 -1.0245257582797D-07
200  1.9900000000000D+00 -1.6765103634343D-07  2.0176287644387D-07
201  2.0000000000000D+00 -7.6978394292135D-08  9.2641134794991D-08
202  2.0100000000000D+00  0.0000000000000D+00  0.0000000000000D+00
203  2.0200000000000D+00  0.0000000000000D+00  0.0000000000000D+00
204  2.0300000000000D+00  0.0000000000000D+00  0.0000000000000D+00
205  2.0400000000000D+00  0.0000000000000D+00  0.0000000000000D+00
206  2.0500000000000D+00  0.0000000000000D+00  0.0000000000000D+00
207  2.0600000000000D+00  0.0000000000000D+00  0.0000000000000D+00
208  2.0700000000000D+00  0.0000000000000D+00  0.0000000000000D+00
209  2.0800000000000D+00  0.0000000000000D+00  0.0000000000000D+00
210  2.0900000000000D+00  0.0000000000000D+00  0.0000000000000D+00
211  2.1000000000000D+00  0.0000000000000D+00  0.0000000000000D+00
212  2.1100000000000D+00  0.0000000000000D+00  0.0000000000000D+00
213  2.1200000000000D+00  0.0000000000000D+00  0.0000000000000D+00
214  2.1300000000000D+00  0.0000000000000D+00  0.0000000000000D+00
215  2.1400000000000D+00  0.0000000000000D+00  0.0000000000000D+00
216  2.1500000000000D+00  0.0000000000000D+00  0.0000000000000D+00
217  2.1600000000000D+00  0.0000000000000D+00  0.0000000000000D+00
218  2.1700000000000D+00  0.0000000000000D+00  0.0000000000000D+00
219  2.1800000000000D+00  0.0000000000000D+00  0.0000000000000D+00
220  2.1900000000000D+00  0.0000000000000D+00  0.0000000000000D+00
221  2.2000000000000D+00  0.0000000000000D+00  0.0000000000000D+00
222  2.2100000000000D+00  0.0000000000000D+00  0.0000000000000D+00
223  2.2200000000000D+00  0.0000000000000D+00  0.0000000000000D+00
224  2.2300000000000D+00  0.0000000000000D+00  0.0000000000000D+00
225  2.2400000000000D+00  0.0000000000000D+00  0.0000000000000D+00
226  2.2500000000000D+00  0.0000000000000D+00  0.0000000000000D+00
227  2.2600000000000D+00  0.0000000000000D+00  0.0000000000000D+00
228  2.2700000000000D+00  0.0000000000000D+00  0.0000000000000D+00
229  2.2800000000000D+00  0.0000000000000D+00  0.0000000000000D+00
230  2.2900000000000D+00  0.0000000000000D+00  0.0000000000000D+00
231  2.3000000000000D+00  0.0000000000000D+00  0.0000000000000D+00
232  2.3100000000000D+00  0.0000000000000D+00  0.0000000000000D+00
233  2.3200000000000D+00  0.0000000000000D+00  0.0000000000000D+00
234  2.3300000000000D+00  0.0000000000000D+00  0.0000000000000D+00
235  2.3400000000000D+00  0.0000000000000D+00  0.0000000000000D+00
236  2.3500000000000D+00  0.0000000000000D+00  0.0000000000000D+00
237  2.3600000000000D+00  0.0000000000000D+00  0.0000000000000D+00
238  2.3700000000000D+00  0.0000000000000D+00  0.0000000000000D+00
239  2.3800000000000D+00  0.0000000000000D+00  0.0000000000000D+00
240  2.3900000000000D+00  0.0000000000000D+00  0.0000000000000D+00
241  2.4000000000000D+00  0.0000000000000D+00  0.0000000000000D+00
242  2.4100000000000D+00  0.0000000000000D+00  0.0000000000000D+00
243  2.4200000000000D+00  0.0000000000000D+00  0.0000000000000D+00
244  2.4300000000000D+00  0.0000000000000D+00  0.0000000000000D+00
245  2.4400000000000D+00  0.0000000000000D+00  0.0000000000000D+00
246  2.4500000000000D+00  0.0000000000000D+00  0.0000000000000D+00
247  2.4600000000000D+00  0.0000000000000D+00  0.0000000000000D+00
248  2.4700000000000D+00  0.0000000000000D+00  0.0000000000000D+00
249  2.4800000000000D+00  0.0000000000000D+00  0.0000000000000D+00
250  2.4900000000000D+00  0.0000000000000D+00  0.0000000000000D+00
251  2.5000000000000D+00  0.0000000000000D+00  0.0000000000000D+00
252  2.5100000000000D+00  0.0000000000000D+00  0.0000000000000D+00
253  2.5200000000000D+00  0.0000000000000D+00  0.0000000000000D+00
254  2.5300000000000D+00  0.0000000000000D+00  0.0000000000000D+00
255  2.5400000000000D+00  0.0000000000000D+00  0.0000000000000D+00
256  2.5500000000000D+00  0.0000000000000D+00  0.0000000000000D+00
257  2.5600000000000D+00  0.0000000000000D+00  0.0000000000000D+00
258  2.5700000000000D+00  0.0000000000000D+00  0.0000000000000D+00
259  2.5800000000000D+00  0.0000000000000D+00  0.0000000000000D+00
260  2.5900000000000D+00  0.0000000000000D+00  0.0000000000000D+00
261  2.6000000000000D+00  0.0000000000000D+00  0.0000000000000D+00
262  2.6100000000000D+00  0.0000000000000D+00  0.0000000000000D+00
263  2.6200000000000D+00  0.0000000000000D+00  0.0000000000000D+00
264  2.6300000000000D+00  0.0000000000000D+00  0.0000000000000D+00
265  2.6400000000000D+00  0.0000000000000D+00  0.0000000000000D+00
266  2.6500000000000D+00  0.0000000000000D+00  0.0000000000000D+00
267  2.6600000000000D+00  0.0000000000000D+00  0.0000000000000D+00
268  2.6700000000000D+00  0.0000000000000D+00  0.0000000000000D+00
269  2.6800000000000D+00  0.0000000000000D+00  0.0000000000000D+00
270  2.6900000000000D+00  0.0000000000000D+00  0.0000000000000D+00
271  2.7000000000000D+00  0.0000000000000D+00  0.0000000000000D+00
272  2.7100000000000D+00  0.0000000000000D+00  0.0000000000000D+00
273  2.7200000000000D+00  0.0000000000000D+00  0.0000000000000D+00
274  2.7300000000000D+00  0.0000000000000D+00  0.0000000000000D+00
275  2.7400000000000D+00  0.0000000000000D+00  0.0000000000000D+00
276  2.7500000000000D+00  0.0000000000000D+00  0.0000000000000D+00
277  2.7600000000000D+00  0.0000000000000D+00  0.0000000000000D+00
278  2.7700000000000D+00  0.0000000000000D+00  0.0000000000000D+00
279  2.7800000000000D+00  0.0000000000000D+00  0.0000000000000D+00
280  2.7900000000000D+00  0.0000000000000D+00  0.0000000000000D+00
281  2.8000000000000D+00  0.0000000000000D+00  0.0000000000000D+00
282  2.8100000000000D+00  0.0000000000000D+00  0.0000000000000D+00
283  2.8200000000000D+00  0.0000000000000D+00  0.0000000000000D+00
284  2.8300000000000D+00  0.0000000000000D+00  0.0000000000000D+00
285  2.8400000000000D+00  0.0000000000000D+00  0.0000000000000D+00
286  2.8500000000000D+00  0.0000000000000D+00  0.0000000000000D+00
287  2.8600000000000D+00  0.0000000000000D+00  0.0000000000000D+00
288  2.8700000000000D+00  0.0000000000000D+00  0.0000000000000D+00
289  2.8800000000000D+00  0.0000000000000D+00  0.0000000000000D+00
290  2.8900000000000D+00  0.0000000000000D+00  0.0000000000000D+00
291  2.9000000000000D+00  0.0000000000000D+00  0.0000000000000D+00
292  2.9100000000000D+00  0.0000000000000D+00  0.0000000000000D+00
293  2.9200000000000D+00  0.0000000000000D+00  0.0000000000000D+00
294  2.9300000000000D+00  0.0000000000000D+00  0.0000000000000D+00
295  2.9400000000000D+00  0.0000000000000D+00  0.0000000000000D+00
296  2.9500000000000D+00  0.0000000000000D+00  0.0000000000000D+00
297  2.9600000000000D+00  0.0000000000000D+00  0.0000000000000D+00
298  2.9700000000000D+00  0.0000000000000D+00  0.0000000000000D+00
299  2.9800000000000D+00  0.0000000000000D+00  0.0000000000000D+00
300  2.9900000000000D+00  0.0000000000000D+00  0.0000000000000D+00
301  3.0000000000000D+00  0.0000000000000D+00  0.0000000000000D+00
302  3.0100000000000D+00  0.0000000000000D+00  0.0000000000000D+00
303  3.0200000000000D+00  0.0000000000000D+00  0.0000000000000D+00
304  3.0300000000000D+00  0.0000000000000D+00  0.0000000000000D+00
305  3.0400000000000D+00  0.0000000000000D+00  0.0000000000000D+00
306  3.0500000000000D+00  0.0000000000000D+00  0.0000000000000D+00
307  3.0600000000000D+00  0.0000000000000D+00  0.0000000000000D+00
308  3.0700000000000D+00  0.0000000000000D+00  0.0000000000000D+00
309  3.0800000000000D+00  0.0000000000000D+00  0.0000000000000D+00
310  3.0900000000000D+00  0.0000000000000D+00  0.0000000000000D+00
311  3.1000000000000D+00  0.0000000000000D+00  0.0000000000000D+00
312  3.1100000000000D+00  0.0000000000000D+00  0.0000000000000D+00
313  3.1200000000000D+00  0.0000000000000D+00  0.0000000000000D+00
314  3.1300000000000D+00  0.0000000000000D+00  0.0000000000000D+00
315  3.1400000000000D+00  0.0000000000000D+00  0.0000000000000D+00
316  3.1500000000000D+00  0.0000000000000D+00  0.0000000000000D+00
317  3.1600000000000D+00  0.0000000000000D+00  0.0000000000000D+00
318  3.1700000000000D+00  0.0000000000000D+00  0.0000000000000D+00
319  3.1800000000000D+00  0.0000000000000D+00  0.0000000000000D+00
320  3.1900000000000D+00  0.0000000000000D+00  0.0000000000000D+00
321  3.2000000000000D+00  0.0000000000000D+00  0.0000000000000D+00
322  3.2100000000000D+00  0.0000000000000D+00  0.0000000000000D+00
323  3.2200000000000D+00  0.0000000000000D+00  0.0000000000000D+00
324  3.2300000000000D+00  0.0000000000000D+00  0.0000000000000D+00
325  3.2400000000000D+00  0.0000000000000D+00  0.0000000000000D+00
326  3.2500000000000D+00  0.0000000000000D+00  0.0000000000000D+00
327  3.2600000000000D+00  0.0000000000000D+00  0.0000000000000D+00
328  3.2700000000000D+00  0.0000000000000D+00  0.0000000000000D+00
329  3.2800000000000D+00  0.0000000000000D+00  0.0000000000000D+00
330  3.2900000000000D+00  0.0000000000000D+00  0.0000000000000D+00
331  3.3000000000000D+00  0.0000000000000D+00  0.0000000000000D+00
332  3.3100000000000D+00  0.0000000000000D+00  0.0000000000000D+00
333  3.3200000000000D+00  0.0000000000000D+00  0.0000000000000D+00
334  3.3300000000000D+00  0.0000000000000D+00  0.0000000000000D+00
335  3.3400000000000D+00  0.0000000000000D+00  0.0000000000000D+00
336  3.3500000000000D+00  0.0000000000000D+00  0.0000000000000D+00
337  3.3600000000000D+00  0.0000000000000D+00  0.0000000000000D+00
338  3.3700000000000D+00  0.0000000000000D+00  0.0000000000000D+00
339  3.3800000000000D+00  0.0000000000000D+00  0.0000000000000D+00
340  3.3900000000000D+00  0.0000000000000D+00  0.0000000000000D+00
341  3.4000000000000D+00  0.0000000000000D+00  0.0000000000000D+00
342  3.4100000000000D+00  0.0000000000000D+00  0.0000000000000D+00
343  3.4200000000000D+00  0.0000000000000D+00  0.0000000000000D+00
344  3.4300000000000D+00  0.0000000000000D+00  0.0000000000000D+00
345  3.4400000000000D+00  0.0000000000000D+00  0.0000000000000D+00
346  3.4500000000000D+00  0.0000000000000D+00  0.0000000000000D+00
347  3.4600000000000D+00  0.0000000000000D+00  0.0000000000000D+00
348  3.4700000000000D+00  0.0000000000000D+00  0.0000000000000D+00
349  3.4800000000000D+00  0.0000000000000D+00  0.0000000000000D+00
350  3.4900000000000D+00  0.0000000000000D+00  0.0000000000000D+00
351  3.5000000000000D+00  0.0000000000000D+00  0.0000000000000D+00
352  3.5100000000000D+00  0.0000000000000D+00  0.0000000000000D+00
353  3.5200000000000D+00  0.0000000000000D+00  0.0000000000000D+00
354  3.5300000000000D+00  0.0000000000000D+00  0.0000000000000D+00
355  3.5400000000000D+00  0.0000000000000D+00  0.0000000000000D+00
356  3.5500000000000D+00  0.0000000000000D+00  0.0000000000000D+00
357  3.5600000000000D+00  0.0000000000000D+00  0.0000000000000D+00
358  3.5700000000000D+00  0.0000000000000D+00  0.0000000000000D+00
359  3.5800000000000D+00  0.0000000000000D+00  0.0000000000000D+00
360  3.5900000000000D+00  0.0000000000000D+00  0.0000000000000D+00
361  3.6000000000000D+00  0.0000000000000D+00  0.0000000000000D+00
362  3.6100000000000D+00  0.0000000000000D+00  0.0000000000000D+00
363  3.6200000000000D+00  0.0000000000000D+00  0.0000000000000D+00
364  3.6300000000000D+00  0.0000000000000D+00  0.0000000000000D+00
365  3.6400000000000D+00  0.0000000000000D+00  0.0000000000000D+00
366  3.6500000000000D+00  0.0000000000000D+00  0.0000000000000D+00
367  3.6600000000000D+00  0.0000000000000D+00  0.0000000000000D+00
368  3.6700000000000D+00  0.0000000000000D+00  0.0000000000000D+00
369  3.6800000000000D+00  0.0000000000000D+00  0.0000000000000D+00
370  3.6900000000000D+00  0.0000000000000D+00  0.0000000000000D+00
371  3.7000000000000D+00  0.0000000000000D+00  0.0000000000000D+00
372  3.7100000000000D+00  0.0000000000000D+00  0.0000000000000D+00
373  3.7200000000000D+00  0.0000000000000D+00  0.0000000000000D+00
374  3.7300000000000D+00  0.0000000000000D+00  0.0000000000000D+00
375  3.7400000000000D+00  0.0000000000000D+00  0.0000000000000D+00
376  3.7500000000000D+00  0.0000000000000D+00  0.0000000000000D+00
377  3.7600000000000D+00  0.0000000000000D+00  0.0000000000000D+00
378  3.7700000000000D+00  0.0000000000000D+00  0.0000000000000D+00
379  3.7800000000000D+00  0.0000000000000D+00  0.0000000000000D+00
380  3.7900000000000D+00  0.0000000000000D+00  0.0000000000000D+00
381  3.8000000000000D+00  0.0000000000000D+00  0.0000000000000D+00
382  3.8100000000000D+00  0.0000000000000D+00  0.0000000000000D+00
383  3.8200000000000D+00  0.0000000000000D+00  0.0000000000000D+00
384  3.8300000000000D+00  0.0000000000000D+00  0.0000000000000D+00
385  3.8400000000000D+00  0.0000000000000D+00  0.0000000000000D+00
386  3.8500000000000D+00  0.0000000000000D+00  0.0000000000000D+00
387  3.8600000000000D+00  0.0000000000000D+00  0.0000000000000D+00
388  3.8700000000000D+00  0.0000000000000D+00  0.0000000000000D+00
389  3.8800000000000D+00  0.0000000000000D+00  0.0000000000000D+00
390  3.8900000000000D+00  0.0000000000000D+00  0.0000000000000D+00
391  3.9000000000000D+00  0.0000000000000D+00  0.0000000000000D+00
392  3.9100000000000D+00  0.0000000000000D+00  0.0000000000000D+00
393  3.9200000000000D+00  0.0000000000000D+00  0.0000000000000D+00
394  3.9300000000000D+00  0.0000000000000D+00  0.0000000000000D+00
395  3.9400000000000D+00  0.0000000000000D+00  0.0000000000000D+00
396  3.9500000000000D+00  0.0000000000000D+00  0.0000000000000D+00
397  3.9600000000000D+00  0.0000000000000D+00  0.0000000000000D+00
398  3.9700000000000D+00  0.0000000000000D+00  0.0000000000000D+00
399  3.9800000000000D+00  0.0000000000000D+00  0.0000000000000D+00
400  3.9900000000000D+00  0.0000000000000D+00  0.0000000000000D+00
401  4.0000000000000D+00  0.0000000000000D+00  0.0000000000000D+00
402  4.0100000000000D+00  0.0000000000000D+00  0.0000000000000D+00
403  4.0200000000000D+00  0.0000000000000D+00  0.0000000000000D+00
404  4.0300000000000D+00  0.0000000000000D+00  0.0000000000000D+00
405  4.0400000000000D+00  0.0000000000000D+00  0.0000000000000D+00
406  4.0500000000000D+00  0.0000000000000D+00  0.0000000000000D+00
407  4.0600000000000D+00  0.0000000000000D+00  0.0000000000000D+00
408  4.0700000000000D+00  0.0000000000000D+00  0.0000000000000D+00
409  4.0800000000000D+00  0.0000000000000D+00  0.0000000000000D+00
410  4.0900000000000D+00  0.0000000000000D+00  0.0000000000000D+00
411  4.1000000000000D+00  0.0000000000000D+00  0.0000000000000D+00
412  4.1100000000000D+00  0.0000000000000D+00  0.0000000000000D+00
413  4.1200000000000D+00  0.0000000000000D+00  0.0000000000000D+00
414  4.1300000000000D+00  0.0000000000000D+00  0.0000000000000D+00
415  4.1400000000000D+00  0.0000000000000D+00  0.0000000000000D+00
416  4.1500000000000D+00  0.0000000000000D+00  0.0000000000000D+00
417  4.1600000000000D+00  0.0000000000000D+00  0.0000000000000D+00
418  4.1700000000000D+00  0.0000000000000D+00  0.0000000000000D+00
419  4.1800000000000D+00  0.0000000000000D+00  0.0000000000000D+00
420  4.1900000000000D+00  0.0000000000000D+00  0.0000000000000D+00
421  4.2000000000000D+00  0.0000000000000D+00  0.0000000000000D+00
422  4.2100000000000D+00  0.0000000000000D+00  0.0000000000000D+00
423  4.2200000000000D+00  0.0000000000000D+00  0.0000000000000D+00
424  4.2300000000000D+00  0.0000000000000D+00  0.0000000000000D+00
425  4.2400000000000D+00  0.0000000000000D+00  0.0000000000000D+00
426  4.2500000000000D+00  0.0000000000000D+00  0.0000000000000D+00
427  4.2600000000000D+00  0.0000000000000D+00  0.0000000000000D+00
428  4.2700000000000D+00  0.0000000000000D+00  0.0000000000000D+00
429  4.2800000000000D+00  0.0000000000000D+00  0.0000000000000D+00
430  4.2900000000000D+00  0.0000000000000D+00  0.0000000000000D+00
431  4.3000000000000D+00  0.0000000000000D+00  0.0000000000000D+00
432  4.3100000000000D+00  0.0000000000000D+00  0.0000000000000D+00
433  4.3200000000000D+00  0.0000000000000D+00  0.0000000000000D+00
434  4.3300000000000D+00  0.0000000000000D+00  0.0000000000000D+00
435  4.3400000000000D+00  0.0000000000000D+00  0.0000000000000D+00
436  4.3500000000000D+00  0.0000000000000D+00  0.0000000000000D+00
437  4.3600000000000D+00  0.0000000000000D+00  0.0000000000000D+00
438  4.3700000000000D+00  0.0000000000000D+00  0.0000000000000D+00
439  4.3800000000000D+00  0.0000000000000D+00  0.0000000000000D+00
440  4.3900000000000D+00  0.0000000000000D+00  0.0000000000000D+00
441  4.4000000000000D+00  0.0000000000000D+00  0.0000000000000D+00
442  4.4100000000000D+00  0.0000000000000D+00  0.0000000000000D+00
443  4.4200000000000D+00  0.0000000000000D+00  0.0000000000000D+00