Sn    ONCVPSP  r_core=  2.27  2.62  1.86
50.0000     14.0000      160324    zatom,zion,pspd
8   -1013   2     4   600     0    pspcod,pspxc,lmax,lloc,mmax,r2well
5.99000000  6.50000000  0.00000000    rchrg fchrg qchrg
2     2     2     0     0    nproj
0                 extension_switch
0                         5.8716633106805D+00  8.0674110285211D-01
1  0.0000000000000D+00  1.6092127630429D-12 -7.2708679355049D-12
2  1.0000000000000D-02  1.5112681049274D-02  3.2059516476942D-03
3  2.0000000000000D-02  3.0236770055474D-02  6.3693904499193D-03
4  3.0000000000000D-02  4.5383622063630D-02  9.4479862350594D-03
5  4.0000000000000D-02  6.0564486444809D-02  1.2399773563216D-02
6  5.0000000000000D-02  7.5790454433300D-02  1.5183332553898D-02
7  6.0000000000000D-02  9.1072407111683D-02  1.7757967873005D-02
8  7.0000000000000D-02  1.0642096399122D-01  2.0083885273924D-02
9  8.0000000000000D-02  1.2184643233342D-01  2.2122365094868D-02
10  9.0000000000000D-02  1.3735875735668D-01  2.3835932123450D-02
11  1.0000000000000D-01  1.5296747346947D-01  2.5188521250329D-02
12  1.1000000000000D-01  1.6868165666894D-01  2.6145638346127D-02
13  1.2000000000000D-01  1.8450987824062D-01  2.6674515810015D-02
14  1.3000000000000D-01  2.0046015989136D-01  2.6744262254184D-02
15  1.4000000000000D-01  2.1653993044413D-01  2.6326005805832D-02
16  1.5000000000000D-01  2.3275598421879D-01  2.5393030527343D-02
17  1.6000000000000D-01  2.4911444121875D-01  2.3920905475890D-02
18  1.7000000000000D-01  2.6562070923850D-01  2.1887605945770D-02
19  1.8000000000000D-01  2.8227944800195D-01  1.9273626460229D-02
20  1.9000000000000D-01  2.9909453543613D-01  1.6062085104473D-02
21  2.0000000000000D-01  3.1606903617918D-01  1.2238818817703D-02
22  2.1000000000000D-01  3.3320517241555D-01  7.7924692894162D-03
23  2.2000000000000D-01  3.5050429712533D-01  2.7145591340319D-03
24  2.3000000000000D-01  3.6796686982814D-01 -3.0004419526312D-03
25  2.4000000000000D-01  3.8559243489536D-01 -9.3550613204453D-03
26  2.5000000000000D-01  4.0337960249804D-01 -1.6348778009557D-02
27  2.6000000000000D-01  4.2132603225034D-01 -2.3977988113531D-02
28  2.7000000000000D-01  4.3942841960180D-01 -3.2235981028942D-02
29  2.8000000000000D-01  4.5768248502420D-01 -4.1112926725080D-02
30  2.9000000000000D-01  4.7608296603138D-01 -5.0595874132696D-02
31  3.0000000000000D-01  4.9462361206322D-01 -6.0668760715651D-02
32  3.1000000000000D-01  5.1329718225715D-01 -7.1312433253476D-02
33  3.2000000000000D-01  5.3209544612328D-01 -8.2504679827132D-02
34  3.3000000000000D-01  5.5100918713134D-01 -9.4220272963935D-02
35  3.4000000000000D-01  5.7002820921023D-01 -1.0643102386134D-01
36  3.5000000000000D-01  5.8914134615319D-01 -1.1910584757325D-01
37  3.6000000000000D-01  6.0833647391419D-01 -1.3221083900594D-01
38  3.7000000000000D-01  6.2760052577328D-01 -1.4570935953522D-01
39  3.8000000000000D-01  6.4691951034152D-01 -1.5956213402034D-01
40  3.9000000000000D-01  6.6627853236831D-01 -1.7372735795561D-01
41  4.0000000000000D-01  6.8566181630696D-01 -1.8816081446519D-01
42  4.1000000000000D-01  7.0505273258688D-01 -2.0281600081358D-01
43  4.2000000000000D-01  7.2443382653381D-01 -2.1764426407021D-01
44  4.3000000000000D-01  7.4378684987266D-01 -2.3259494553484D-01
45  4.4000000000000D-01  7.6309279474059D-01 -2.4761553349890D-01
46  4.5000000000000D-01  7.8233193013161D-01 -2.6265182388765D-01
47  4.6000000000000D-01  8.0148384068743D-01 -2.7764808829927D-01
48  4.7000000000000D-01  8.2052746774330D-01 -2.9254724892900D-01
49  4.8000000000000D-01  8.3944115253153D-01 -3.0729105984034D-01
50  4.9000000000000D-01  8.5820268143975D-01 -3.2182029402057D-01
51  5.0000000000000D-01  8.7678933321561D-01 -3.3607493563464D-01
52  5.1000000000000D-01  8.9517792800440D-01 -3.4999437687002D-01
53  5.2000000000000D-01  9.1334487810106D-01 -3.6351761874543D-01
54  5.3000000000000D-01  9.3126624029396D-01 -3.7658347523884D-01
55  5.4000000000000D-01  9.4891776967282D-01 -3.8913078007370D-01
56  5.5000000000000D-01  9.6627497476983D-01 -4.0109859548955D-01
57  5.6000000000000D-01  9.8331317389903D-01 -4.1242642231029D-01
58  5.7000000000000D-01  1.0000075525557D+00 -4.2305441061486D-01
59  5.8000000000000D-01  1.0163332217348D+00 -4.3292357030738D-01
60  5.9000000000000D-01  1.0322652770243D+00 -4.4197598087848D-01
61  6.0000000000000D-01  1.0477788583276D+00 -4.5015499964745D-01
62  6.1000000000000D-01  1.0628492100669D+00 -4.5740546777388D-01
63  6.2000000000000D-01  1.0774517417176D+00 -4.6367391332992D-01
64  6.3000000000000D-01  1.0915620885234D+00 -4.6890875072826D-01
65  6.4000000000000D-01  1.1051561722389D+00 -4.7306047580826D-01
66  6.5000000000000D-01  1.1182102617500D+00 -4.7608185589118D-01
67  6.6000000000000D-01  1.1307010334162D+00 -4.7792811412798D-01
68  6.7000000000000D-01  1.1426056309856D+00 -4.7855710747632D-01
69  6.8000000000000D-01  1.1539017249288D+00 -4.7792949766054D-01
70  6.9000000000000D-01  1.1645675710419D+00 -4.7600891448646D-01
71  7.0000000000000D-01  1.1745820681688D+00 -4.7276211090469D-01
72  7.1000000000000D-01  1.1839248148947D+00 -4.6815910923870D-01
73  7.2000000000000D-01  1.1925761650648D+00 -4.6217333802000D-01
74  7.3000000000000D-01  1.2005172819853D+00 -4.5478175890020D-01
75  7.4000000000000D-01  1.2077301911647D+00 -4.4596498313938D-01
76  7.5000000000000D-01  1.2141978314581D+00 -4.3570737720227D-01
77  7.6000000000000D-01  1.2199041044792D+00 -4.2399715702685D-01
78  7.7000000000000D-01  1.2248339221503D+00 -4.1082647056599D-01
79  7.8000000000000D-01  1.2289732522616D+00 -3.9619146823921D-01
80  7.9000000000000D-01  1.2323091619178D+00 -3.8009236097067D-01
81  8.0000000000000D-01  1.2348298587541D+00 -3.6253346552991D-01
82  8.1000000000000D-01  1.2365247298075D+00 -3.4352323693233D-01
83  8.2000000000000D-01  1.2373843779356D+00 -3.2307428770016D-01
84  8.3000000000000D-01  1.2374006556797D+00 -3.0120339382764D-01
85  8.4000000000000D-01  1.2365666964754D+00 -2.7793148733871D-01
86  8.5000000000000D-01  1.2348769431188D+00 -2.5328363537119D-01
87  8.6000000000000D-01  1.2323271734038D+00 -2.2728900576704D-01
88  8.7000000000000D-01  1.2289145228514D+00 -1.9998081919467D-01
89  8.8000000000000D-01  1.2246375044575D+00 -1.7139628787576D-01
90  8.9000000000000D-01  1.2194960253968D+00 -1.4157654103608D-01
91  9.0000000000000D-01  1.2134914006204D+00 -1.1056653724589D-01
92  9.1000000000000D-01  1.2066263632985D+00 -7.8414963862230D-02
93  9.2000000000000D-01  1.1989050720630D+00 -4.5174123831329D-02
94  9.3000000000000D-01  1.1903331150133D+00 -1.0899810154429D-02
95  9.4000000000000D-01  1.1809175104557D+00  2.4348831634907D-02
96  9.5000000000000D-01  1.1706667043562D+00  6.0509452590053D-02
97  9.6000000000000D-01  1.1595905644913D+00  9.7516660633102D-02
98  9.7000000000000D-01  1.1477003712914D+00  1.3530219152382D-01
99  9.8000000000000D-01  1.1350088053803D+00  1.7379509000009D-01
100  9.9000000000000D-01  1.1215299318175D+00  2.1292190053641D-01
101  1.0000000000000D+00  1.1072791810647D+00  2.5260686713035D-01
102  1.0100000000000D+00  1.0922733266997D+00  2.9277214149223D-01
103  1.0200000000000D+00  1.0765304599135D+00  3.3333799898086D-01
104  1.0300000000000D+00  1.0600699608311D+00  3.7422306159719D-01
105  1.0400000000000D+00  1.0429124667067D+00  4.1534452732125D-01
106  1.0500000000000D+00  1.0250798370508D+00  4.5661840504980D-01
107  1.0600000000000D+00  1.0065951157548D+00  4.9795975437068D-01
108  1.0700000000000D+00  9.8748249028622D-01  5.3928292938899D-01
109  1.0800000000000D+00  9.6776724803581D-01  5.8050182580163D-01
110  1.0900000000000D+00  9.4747572990492D-01  6.2153013040370D-01
111  1.1000000000000D+00  9.2663528122856D-01  6.6228157219595D-01
112  1.1100000000000D+00  9.0527420013783D-01  7.0267017425467D-01
113  1.1200000000000D+00  8.8342168347136D-01  7.4261050551919D-01
114  1.1300000000000D+00  8.6110777035304D-01  7.8201793164922D-01
115  1.1400000000000D+00  8.3836328355888D-01  8.2080886410344D-01
116  1.1500000000000D+00  8.1521976880374D-01  8.5890100659445D-01
117  1.1600000000000D+00  7.9170943208370D-01  8.9621359808198D-01
118  1.1700000000000D+00  7.6786507521606D-01  9.3266765147464D-01
119  1.1800000000000D+00  7.4372002972410D-01  9.6818618722157D-01
120  1.1900000000000D+00  7.1930808922022D-01  1.0026944609929D+00
121  1.2000000000000D+00  6.9466344044529D-01  1.0361201846687D+00
122  1.2100000000000D+00  6.6982059312570D-01  1.0683937398668D+00
123  1.2200000000000D+00  6.4481430881600D-01  1.0994483832753D+00
124  1.2300000000000D+00  6.1967952889789D-01  1.1292204430807D+00
125  1.2400000000000D+00  5.9445130190918D-01  1.1576495058047D+00
126  1.2500000000000D+00  5.6916471038058D-01  1.1846785928964D+00
127  1.2600000000000D+00  5.4385479736121D-01  1.2102543264747D+00
128  1.2700000000000D+00  5.1855649281460D-01  1.2343270836347D+00
129  1.2800000000000D+00  4.9330454007019D-01  1.2568511387693D+00
130  1.2900000000000D+00  4.6813342251672D-01  1.2777847934263D+00
131  1.3000000000000D+00  4.4307729072406D-01  1.2970904932309D+00
132  1.3100000000000D+00  4.1816989018167D-01  1.3147349314526D+00
133  1.3200000000000D+00  3.9344448984137D-01  1.3306891388780D+00
134  1.3300000000000D+00  3.6893381165166D-01  1.3449285596450D+00
135  1.3400000000000D+00  3.4466996127126D-01  1.3574331127658D+00
136  1.3500000000000D+00  3.2068436014508D-01  1.3681872391579D+00
137  1.3600000000000D+00  2.9700767912874D-01  1.3771799339512D+00
138  1.3700000000000D+00  2.7366977384148D-01  1.3844047639953D+00
139  1.3800000000000D+00  2.5069962192400D-01  1.3898598705062D+00
140  1.3900000000000D+00  2.2812526238168D-01  1.3935479567729D+00
141  1.4000000000000D+00  2.0597373717752D-01  1.3954762610458D+00
142  1.4100000000000D+00  1.8427103524684D-01  1.3956565146229D+00
143  1.4200000000000D+00  1.6304203909635D-01  1.3941048852871D+00
144  1.4300000000000D+00  1.4231047413627D-01  1.3908419063350D+00
145  1.4400000000000D+00  1.2209886091206D-01  1.3858923913202D+00
146  1.4500000000000D+00  1.0242847036257D-01  1.3792853349310D+00
147  1.4600000000000D+00  8.3319282257772D-02  1.3710538002229D+00
148  1.4700000000000D+00  6.4789946941015D-02  1.3612347926399D+00
149  1.4800000000000D+00  4.6857750493165D-02  1.3498691212604D+00
150  1.4900000000000D+00  2.9538583454586D-02  1.3370012476495D+00
151  1.5000000000000D+00  1.2846913178458D-02  1.3226791229647D+00
152  1.5100000000000D+00 -3.2042400438207D-03  1.3069540136851D+00
153  1.5200000000000D+00 -1.8603323038391D-02  1.2898803167158D+00
154  1.5300000000000D+00 -3.3340265872410D-02  1.2715153643486D+00
155  1.5400000000000D+00 -4.7406493994932D-02  1.2519192198093D+00
156  1.5500000000000D+00 -6.0794936332833D-02  1.2311544640353D+00
157  1.5600000000000D+00 -7.3500029276823D-02  1.2092859743751D+00
158  1.5700000000000D+00 -8.5517716554370D-02  1.1863806959848D+00
159  1.5800000000000D+00 -9.6845444906390D-02  1.1625074065935D+00
160  1.5900000000000D+00 -1.0748215562701D-01  1.1377364754976D+00
161  1.6000000000000D+00 -1.1742827186779D-01  1.1121396174667D+00
162  1.6100000000000D+00 -1.2668568181926D-01  1.0857896424462D+00
163  1.6200000000000D+00 -1.3525771767519D-01  1.0587602017863D+00
164  1.6300000000000D+00 -1.4314913052184D-01  1.0311255318571D+00
165  1.6400000000000D+00 -1.5036606108562D-01  1.0029601958363D+00
166  1.6500000000000D+00 -1.5691600649436D-01  9.7433882448649D-01
167  1.6600000000000D+00 -1.6280778302113D-01  9.4533585674875D-01
168  1.6700000000000D+00 -1.6805148497835D-01  9.1602528092146D-01
169  1.6800000000000D+00 -1.7265843976337D-01  8.8648037727468D-01
170  1.6900000000000D+00 -1.7664115924017D-01  8.5677346281271D-01
171  1.7000000000000D+00 -1.8001328748417D-01  8.2697563904745D-01
172  1.7100000000000D+00 -1.8278954509798D-01  7.9715654342122D-01
173  1.7200000000000D+00 -1.8498567014258D-01  7.6738410525840D-01
174  1.7300000000000D+00 -1.8661835592230D-01  7.3772430677744D-01
175  1.7400000000000D+00 -1.8770518567584D-01  7.0824095008051D-01
176  1.7500000000000D+00 -1.8826456444962D-01  6.7899543049612D-01
177  1.7600000000000D+00 -1.8831564820426D-01  6.5004651727014D-01
178  1.7700000000000D+00 -1.8787827047381D-01  6.2145014175828D-01
179  1.7800000000000D+00 -1.8697286662010D-01  5.9325919425166D-01
180  1.7900000000000D+00 -1.8562039604600D-01  5.6552332929133D-01
181  1.8000000000000D+00 -1.8384226176780D-01  5.3828877683194D-01
182  1.8100000000000D+00 -1.8166023193401D-01  5.1159818487229D-01
183  1.8200000000000D+00 -1.7909634748989D-01  4.8549039883819D-01
184  1.8300000000000D+00 -1.7617286043496D-01  4.6000043608446D-01
185  1.8400000000000D+00 -1.7291213301488D-01  4.3515926159911D-01
186  1.8500000000000D+00 -1.6933651289991D-01  4.1099340386037D-01
187  1.8600000000000D+00 -1.6546830178525D-01  3.8752517483430D-01
188  1.8700000000000D+00 -1.6132976156826D-01  3.6477315901835D-01
189  1.8800000000000D+00 -1.5694311132586D-01  3.4275259278378D-01
190  1.8900000000000D+00 -1.5233055713058D-01  3.2147584610954D-01
191  1.9000000000000D+00 -1.4751434266221D-01  3.0095306582753D-01
192  1.9100000000000D+00 -1.4251666292292D-01  2.8119195070061D-01
193  1.9200000000000D+00 -1.3735960968222D-01  2.6219768790142D-01
194  1.9300000000000D+00 -1.3206515017944D-01  2.4397316335567D-01
195  1.9400000000000D+00 -1.2665508192081D-01  2.2651900195195D-01
196  1.9500000000000D+00 -1.2115099285702D-01  2.0983365105915D-01
197  1.9600000000000D+00 -1.1557422292972D-01  1.9391347823180D-01
198  1.9700000000000D+00 -1.0994582463952D-01  1.7875286586159D-01
199  1.9800000000000D+00 -1.0428652431666D-01  1.6434431352436D-01
200  1.9900000000000D+00 -9.8616683817444D-02  1.5067854469663D-01
201  2.0000000000000D+00 -9.2956262718620D-02  1.3774461787361D-01
202  2.0100000000000D+00 -8.7324781055040D-02  1.2553004101941D-01
203  2.0200000000000D+00 -8.1741282677312D-02  1.1402088906113D-01
204  2.0300000000000D+00 -7.6224299280845D-02  1.0320192375594D-01
205  2.0400000000000D+00 -7.0791815159835D-02  9.3056715300394D-02
206  2.0500000000000D+00 -6.5461232771357D-02  8.3567765126305D-02
207  2.0600000000000D+00 -6.0249339121741D-02  7.4716629344778D-02
208  2.0700000000000D+00 -5.5172273087449D-02  6.6484042063476D-02
209  2.0800000000000D+00 -5.0245493680035D-02  5.8850038207252D-02
210  2.0900000000000D+00 -4.5483749325510D-02  5.1794075167430D-02
211  2.1000000000000D+00 -4.0901048240316D-02  4.5295152495854D-02
212  2.1100000000000D+00 -3.6510629879251D-02  3.9331929691951D-02
213  2.1200000000000D+00 -3.2324937609969D-02  3.3882840626542D-02
214  2.1300000000000D+00 -2.8355592568434D-02  2.8926204927371D-02
215  2.1400000000000D+00 -2.4613368780206D-02  2.4440335445392D-02
216  2.1500000000000D+00 -2.1108169632279D-02  2.0403640888121D-02
217  2.1600000000000D+00 -1.7849005622507D-02  1.6794724363106D-02
218  2.1700000000000D+00 -1.4843973576729D-02  1.3592475750916D-02
219  2.1800000000000D+00 -1.2100237253631D-02  1.0776158782952D-02
220  2.1900000000000D+00 -9.6240093910787D-03  8.3254922255531D-03
221  2.2000000000000D+00 -7.4217585491489D-03  6.2212492455953D-03
222  2.2100000000000D+00 -5.4958245703761D-03  4.4434480148453D-03
223  2.2200000000000D+00 -3.8475654723690D-03  2.9728284419723D-03
224  2.2300000000000D+00 -2.4749826479423D-03  1.7911039563729D-03
225  2.2400000000000D+00 -1.3961193007656D-03  8.8535667647729D-04
226  2.2500000000000D+00 -6.1797092426685D-04  2.3826539342514D-04
227  2.2600000000000D+00 -1.2832033014462D-04 -1.6697579871827D-04
228  2.2700000000000D+00  1.1507289794700D-04 -3.4502680979394D-04
229  2.2800000000000D+00  1.6260157432378D-04 -3.1475953153583D-04
230  2.2900000000000D+00  9.6982471212948D-05 -1.6591579359425D-04
231  2.3000000000000D+00  4.4295694909367D-06 -7.1927451848738D-06
232  2.3100000000000D+00 -3.0405430859084D-05  4.8430438077913D-05
233  2.3200000000000D+00 -2.2586799162105D-05  3.5166134130775D-05
234  2.3300000000000D+00  1.6315679646601D-06 -2.7780488701059D-06
235  2.3400000000000D+00  6.4337641696277D-06 -1.0815310237523D-05
236  2.3500000000000D+00  3.8095796160550D-06 -6.3395523827166D-06
237  2.3600000000000D+00 -2.0396954636590D-07  4.8751171531592D-07
238  2.3700000000000D+00 -4.2542304171831D-07  1.0168121687684D-06
239  2.3800000000000D+00 -1.8736413101565D-07  4.4782277809384D-07
240  2.3900000000000D+00  0.0000000000000D+00  0.0000000000000D+00
241  2.4000000000000D+00  0.0000000000000D+00  0.0000000000000D+00
242  2.4100000000000D+00  0.0000000000000D+00  0.0000000000000D+00
243  2.4200000000000D+00  0.0000000000000D+00  0.0000000000000D+00
244  2.4300000000000D+00  0.0000000000000D+00  0.0000000000000D+00
245  2.4400000000000D+00  0.0000000000000D+00  0.0000000000000D+00
246  2.4500000000000D+00  0.0000000000000D+00  0.0000000000000D+00
247  2.4600000000000D+00  0.0000000000000D+00  0.0000000000000D+00
248  2.4700000000000D+00  0.0000000000000D+00  0.0000000000000D+00
249  2.4800000000000D+00  0.0000000000000D+00  0.0000000000000D+00
250  2.4900000000000D+00  0.0000000000000D+00  0.0000000000000D+00
251  2.5000000000000D+00  0.0000000000000D+00  0.0000000000000D+00
252  2.5100000000000D+00  0.0000000000000D+00  0.0000000000000D+00
253  2.5200000000000D+00  0.0000000000000D+00  0.0000000000000D+00
254  2.5300000000000D+00  0.0000000000000D+00  0.0000000000000D+00
255  2.5400000000000D+00  0.0000000000000D+00  0.0000000000000D+00
256  2.5500000000000D+00  0.0000000000000D+00  0.0000000000000D+00
257  2.5600000000000D+00  0.0000000000000D+00  0.0000000000000D+00
258  2.5700000000000D+00  0.0000000000000D+00  0.0000000000000D+00
259  2.5800000000000D+00  0.0000000000000D+00  0.0000000000000D+00
260  2.5900000000000D+00  0.0000000000000D+00  0.0000000000000D+00
261  2.6000000000000D+00  0.0000000000000D+00  0.0000000000000D+00
262  2.6100000000000D+00  0.0000000000000D+00  0.0000000000000D+00
263  2.6200000000000D+00  0.0000000000000D+00  0.0000000000000D+00
264  2.6300000000000D+00  0.0000000000000D+00  0.0000000000000D+00
265  2.6400000000000D+00  0.0000000000000D+00  0.0000000000000D+00
266  2.6500000000000D+00  0.0000000000000D+00  0.0000000000000D+00
267  2.6600000000000D+00  0.0000000000000D+00  0.0000000000000D+00
268  2.6700000000000D+00  0.0000000000000D+00  0.0000000000000D+00
269  2.6800000000000D+00  0.0000000000000D+00  0.0000000000000D+00
270  2.6900000000000D+00  0.0000000000000D+00  0.0000000000000D+00
271  2.7000000000000D+00  0.0000000000000D+00  0.0000000000000D+00
272  2.7100000000000D+00  0.0000000000000D+00  0.0000000000000D+00
273  2.7200000000000D+00  0.0000000000000D+00  0.0000000000000D+00
274  2.7300000000000D+00  0.0000000000000D+00  0.0000000000000D+00
275  2.7400000000000D+00  0.0000000000000D+00  0.0000000000000D+00
276  2.7500000000000D+00  0.0000000000000D+00  0.0000000000000D+00
277  2.7600000000000D+00  0.0000000000000D+00  0.0000000000000D+00
278  2.7700000000000D+00  0.0000000000000D+00  0.0000000000000D+00
279  2.7800000000000D+00  0.0000000000000D+00  0.0000000000000D+00
280  2.7900000000000D+00  0.0000000000000D+00  0.0000000000000D+00
281  2.8000000000000D+00  0.0000000000000D+00  0.0000000000000D+00
282  2.8100000000000D+00  0.0000000000000D+00  0.0000000000000D+00
283  2.8200000000000D+00  0.0000000000000D+00  0.0000000000000D+00
284  2.8300000000000D+00  0.0000000000000D+00  0.0000000000000D+00
285  2.8400000000000D+00  0.0000000000000D+00  0.0000000000000D+00
286  2.8500000000000D+00  0.0000000000000D+00  0.0000000000000D+00
287  2.8600000000000D+00  0.0000000000000D+00  0.0000000000000D+00
288  2.8700000000000D+00  0.0000000000000D+00  0.0000000000000D+00
289  2.8800000000000D+00  0.0000000000000D+00  0.0000000000000D+00
290  2.8900000000000D+00  0.0000000000000D+00  0.0000000000000D+00
291  2.9000000000000D+00  0.0000000000000D+00  0.0000000000000D+00
292  2.9100000000000D+00  0.0000000000000D+00  0.0000000000000D+00
293  2.9200000000000D+00  0.0000000000000D+00  0.0000000000000D+00
294  2.9300000000000D+00  0.0000000000000D+00  0.0000000000000D+00
295  2.9400000000000D+00  0.0000000000000D+00  0.0000000000000D+00
296  2.9500000000000D+00  0.0000000000000D+00  0.0000000000000D+00
297  2.9600000000000D+00  0.0000000000000D+00  0.0000000000000D+00
298  2.9700000000000D+00  0.0000000000000D+00  0.0000000000000D+00
299  2.9800000000000D+00  0.0000000000000D+00  0.0000000000000D+00
300  2.9900000000000D+00  0.0000000000000D+00  0.0000000000000D+00
301  3.0000000000000D+00  0.0000000000000D+00  0.0000000000000D+00
302  3.0100000000000D+00  0.0000000000000D+00  0.0000000000000D+00
303  3.0200000000000D+00  0.0000000000000D+00  0.0000000000000D+00
304  3.0300000000000D+00  0.0000000000000D+00  0.0000000000000D+00
305  3.0400000000000D+00  0.0000000000000D+00  0.0000000000000D+00
306  3.0500000000000D+00  0.0000000000000D+00  0.0000000000000D+00
307  3.0600000000000D+00  0.0000000000000D+00  0.0000000000000D+00
308  3.0700000000000D+00  0.0000000000000D+00  0.0000000000000D+00
309  3.0800000000000D+00  0.0000000000000D+00  0.0000000000000D+00
310  3.0900000000000D+00  0.0000000000000D+00  0.0000000000000D+00
311  3.1000000000000D+00  0.0000000000000D+00  0.0000000000000D+00
312  3.1100000000000D+00  0.0000000000000D+00  0.0000000000000D+00
313  3.1200000000000D+00  0.0000000000000D+00  0.0000000000000D+00
314  3.1300000000000D+00  0.0000000000000D+00  0.0000000000000D+00
315  3.1400000000000D+00  0.0000000000000D+00  0.0000000000000D+00
316  3.1500000000000D+00  0.0000000000000D+00  0.0000000000000D+00
317  3.1600000000000D+00  0.0000000000000D+00  0.0000000000000D+00
318  3.1700000000000D+00  0.0000000000000D+00  0.0000000000000D+00
319  3.1800000000000D+00  0.0000000000000D+00  0.0000000000000D+00
320  3.1900000000000D+00  0.0000000000000D+00  0.0000000000000D+00
321  3.2000000000000D+00  0.0000000000000D+00  0.0000000000000D+00
322  3.2100000000000D+00  0.0000000000000D+00  0.0000000000000D+00
323  3.2200000000000D+00  0.0000000000000D+00  0.0000000000000D+00
324  3.2300000000000D+00  0.0000000000000D+00  0.0000000000000D+00
325  3.2400000000000D+00  0.0000000000000D+00  0.0000000000000D+00
326  3.2500000000000D+00  0.0000000000000D+00  0.0000000000000D+00
327  3.2600000000000D+00  0.0000000000000D+00  0.0000000000000D+00
328  3.2700000000000D+00  0.0000000000000D+00  0.0000000000000D+00
329  3.2800000000000D+00  0.0000000000000D+00  0.0000000000000D+00
330  3.2900000000000D+00  0.0000000000000D+00  0.0000000000000D+00
331  3.3000000000000D+00  0.0000000000000D+00  0.0000000000000D+00
332  3.3100000000000D+00  0.0000000000000D+00  0.0000000000000D+00
333  3.3200000000000D+00  0.0000000000000D+00  0.0000000000000D+00
334  3.3300000000000D+00  0.0000000000000D+00  0.0000000000000D+00
335  3.3400000000000D+00  0.0000000000000D+00  0.0000000000000D+00
336  3.3500000000000D+00  0.0000000000000D+00  0.0000000000000D+00
337  3.3600000000000D+00  0.0000000000000D+00  0.0000000000000D+00
338  3.3700000000000D+00  0.0000000000000D+00  0.0000000000000D+00
339  3.3800000000000D+00  0.0000000000000D+00  0.0000000000000D+00
340  3.3900000000000D+00  0.0000000000000D+00  0.0000000000000D+00
341  3.4000000000000D+00  0.0000000000000D+00  0.0000000000000D+00
342  3.4100000000000D+00  0.0000000000000D+00  0.0000000000000D+00
343  3.4200000000000D+00  0.0000000000000D+00  0.0000000000000D+00
344  3.4300000000000D+00  0.0000000000000D+00  0.0000000000000D+00
345  3.4400000000000D+00  0.0000000000000D+00  0.0000000000000D+00
346  3.4500000000000D+00  0.0000000000000D+00  0.0000000000000D+00
347  3.4600000000000D+00  0.0000000000000D+00  0.0000000000000D+00
348  3.4700000000000D+00  0.0000000000000D+00  0.0000000000000D+00
349  3.4800000000000D+00  0.0000000000000D+00  0.0000000000000D+00
350  3.4900000000000D+00  0.0000000000000D+00  0.0000000000000D+00
351  3.5000000000000D+00  0.0000000000000D+00  0.0000000000000D+00
352  3.5100000000000D+00  0.0000000000000D+00  0.0000000000000D+00
353  3.5200000000000D+00  0.0000000000000D+00  0.0000000000000D+00
354  3.5300000000000D+00  0.0000000000000D+00  0.0000000000000D+00
355  3.5400000000000D+00  0.0000000000000D+00  0.0000000000000D+00
356  3.5500000000000D+00  0.0000000000000D+00  0.0000000000000D+00
357  3.5600000000000D+00  0.0000000000000D+00  0.0000000000000D+00
358  3.5700000000000D+00  0.0000000000000D+00  0.0000000000000D+00
359  3.5800000000000D+00  0.0000000000000D+00  0.0000000000000D+00
360  3.5900000000000D+00  0.0000000000000D+00  0.0000000000000D+00
361  3.6000000000000D+00  0.0000000000000D+00  0.0000000000000D+00
362  3.6100000000000D+00  0.0000000000000D+00  0.0000000000000D+00
363  3.6200000000000D+00  0.0000000000000D+00  0.0000000000000D+00
364  3.6300000000000D+00  0.0000000000000D+00  0.0000000000000D+00
365  3.6400000000000D+00  0.0000000000000D+00  0.0000000000000D+00
366  3.6500000000000D+00  0.0000000000000D+00  0.0000000000000D+00
367  3.6600000000000D+00  0.0000000000000D+00  0.0000000000000D+00
368  3.6700000000000D+00  0.0000000000000D+00  0.0000000000000D+00
369  3.6800000000000D+00  0.0000000000000D+00  0.0000000000000D+00
370  3.6900000000000D+00  0.0000000000000D+00  0.0000000000000D+00
371  3.7000000000000D+00  0.0000000000000D+00  0.0000000000000D+00
372  3.7100000000000D+00  0.0000000000000D+00  0.0000000000000D+00
373  3.7200000000000D+00  0.0000000000000D+00  0.0000000000000D+00
374  3.7300000000000D+00  0.0000000000000D+00  0.0000000000000D+00
375  3.7400000000000D+00  0.0000000000000D+00  0.0000000000000D+00
376  3.7500000000000D+00  0.0000000000000D+00  0.0000000000000D+00
377  3.7600000000000D+00  0.0000000000000D+00  0.0000000000000D+00
378  3.7700000000000D+00  0.0000000000000D+00  0.0000000000000D+00
379  3.7800000000000D+00  0.0000000000000D+00  0.0000000000000D+00
380  3.7900000000000D+00  0.0000000000000D+00  0.0000000000000D+00
381  3.8000000000000D+00  0.0000000000000D+00  0.0000000000000D+00
382  3.8100000000000D+00  0.0000000000000D+00  0.0000000000000D+00
383  3.8200000000000D+00  0.0000000000000D+00  0.0000000000000D+00
384  3.8300000000000D+00  0.0000000000000D+00  0.0000000000000D+00
385  3.8400000000000D+00  0.0000000000000D+00  0.0000000000000D+00
386  3.8500000000000D+00  0.0000000000000D+00  0.0000000000000D+00
387  3.8600000000000D+00  0.0000000000000D+00  0.0000000000000D+00
388  3.8700000000000D+00  0.0000000000000D+00  0.0000000000000D+00
389  3.8800000000000D+00  0.0000000000000D+00  0.0000000000000D+00
390  3.8900000000000D+00  0.0000000000000D+00  0.0000000000000D+00
391  3.9000000000000D+00  0.0000000000000D+00  0.0000000000000D+00
392  3.9100000000000D+00  0.0000000000000D+00  0.0000000000000D+00
393  3.9200000000000D+00  0.0000000000000D+00  0.0000000000000D+00
394  3.9300000000000D+00  0.0000000000000D+00  0.0000000000000D+00
395  3.9400000000000D+00  0.0000000000000D+00  0.0000000000000D+00
396  3.9500000000000D+00  0.0000000000000D+00  0.0000000000000D+00
397  3.9600000000000D+00  0.0000000000000D+00  0.0000000000000D+00
398  3.9700000000000D+00  0.0000000000000D+00  0.0000000000000D+00
399  3.9800000000000D+00  0.0000000000000D+00  0.0000000000000D+00
400  3.9900000000000D+00  0.0000000000000D+00  0.0000000000000D+00
401  4.0000000000000D+00  0.0000000000000D+00  0.0000000000000D+00
402  4.0100000000000D+00  0.0000000000000D+00  0.0000000000000D+00
403  4.0200000000000D+00  0.0000000000000D+00  0.0000000000000D+00
404  4.0300000000000D+00  0.0000000000000D+00  0.0000000000000D+00
405  4.0400000000000D+00  0.0000000000000D+00  0.0000000000000D+00
406  4.0500000000000D+00  0.0000000000000D+00  0.0000000000000D+00
407  4.0600000000000D+00  0.0000000000000D+00  0.0000000000000D+00
408  4.0700000000000D+00  0.0000000000000D+00  0.0000000000000D+00
409  4.0800000000000D+00  0.0000000000000D+00  0.0000000000000D+00
410  4.0900000000000D+00  0.0000000000000D+00  0.0000000000000D+00
411  4.1000000000000D+00  0.0000000000000D+00  0.0000000000000D+00
412  4.1100000000000D+00  0.0000000000000D+00  0.0000000000000D+00
413  4.1200000000000D+00  0.0000000000000D+00  0.0000000000000D+00
414  4.1300000000000D+00  0.0000000000000D+00  0.0000000000000D+00
415  4.1400000000000D+00  0.0000000000000D+00  0.0000000000000D+00
416  4.1500000000000D+00  0.0000000000000D+00  0.0000000000000D+00
417  4.1600000000000D+00  0.0000000000000D+00  0.0000000000000D+00
418  4.1700000000000D+00  0.0000000000000D+00  0.0000000000000D+00
419  4.1800000000000D+00  0.0000000000000D+00  0.0000000000000D+00
420  4.1900000000000D+00  0.0000000000000D+00  0.0000000000000D+00
421  4.2000000000000D+00  0.0000000000000D+00  0.0000000000000D+00
422  4.2100000000000D+00  0.0000000000000D+00  0.0000000000000D+00
423  4.2200000000000D+00  0.0000000000000D+00  0.0000000000000D+00
424  4.2300000000000D+00  0.0000000000000D+00  0.0000000000000D+00
425  4.2400000000000D+00  0.0000000000000D+00  0.0000000000000D+00
426  4.2500000000000D+00  0.0000000000000D+00  0.0000000000000D+00
427  4.2600000000000D+00  0.0000000000000D+00  0.0000000000000D+00
428  4.2700000000000D+00  0.0000000000000D+00  0.0000000000000D+00
429  4.2800000000000D+00  0.0000000000000D+00  0.0000000000000D+00
430  4.2900000000000D+00  0.0000000000000D+00  0.0000000000000D+00
431  4.3000000000000D+00  0.0000000000000D+00  0.0000000000000D+00
432  4.3100000000000D+00  0.0000000000000D+00  0.0000000000000D+00
433  4.3200000000000D+00  0.0000000000000D+00  0.0000000000000D+00
434  4.3300000000000D+00  0.0000000000000D+00  0.0000000000000D+00
435  4.3400000000000D+00  0.0000000000000D+00  0.0000000000000D+00
436  4.3500000000000D+00  0.0000000000000D+00  0.0000000000000D+00
437  4.3600000000000D+00  0.0000000000000D+00  0.0000000000000D+00
438  4.3700000000000D+00  0.0000000000000D+00  0.0000000000000D+00
439  4.3800000000000D+00  0.0000000000000D+00  0.0000000000000D+00
440  4.3900000000000D+00  0.0000000000000D+00  0.0000000000000D+00
441  4.4000000000000D+00  0.0000000000000D+00  0.0000000000000D+00
442  4.4100000000000D+00  0.0000000000000D+00  0.0000000000000D+00
443  4.4200000000000D+00  0.0000000000000D+00  0.0000000000000D+00
444  4.4300000000000D+00  0.0000000000000D+00  0.0000000000000D+00