Zr    ONCVPSP-3.2.3  r_core=   1.56507   1.56507   1.51006
40.0000     12.0000      170222    zatom,zion,pspd
8      11   2     4   600     0    pspcod,pspxc,lmax,lloc,mmax,r2well
5.99000000  5.00000000  0.00000000    rchrg fchrg qchrg
2     4     3     0    nproj
3     1           extension_switch
4     4     0    nprojso
0                         8.9596772340727D-01  1.0640115914666D+01
1  0.0000000000000D+00  1.0111683712566D-09 -2.0656276689124D-10
2  1.0000000000000D-02 -3.2532802691523D-02  5.6298162920012D-02
3  2.0000000000000D-02 -6.4878797740280D-02  1.1250253845138D-01
4  3.0000000000000D-02 -9.6852832869373D-02  1.6851972256814D-01
5  4.0000000000000D-02 -1.2827304612678D-01  2.2425707391059D-01
6  5.0000000000000D-02 -1.5896246029135D-01  2.7962308502387D-01
7  6.0000000000000D-02 -1.8875051709806D-01  3.3452774163184D-01
8  7.0000000000000D-02 -2.1747453242397D-01  3.8888286620343D-01
9  8.0000000000000D-02 -2.4498105458793D-01  4.4260244227557D-01
10  9.0000000000000D-02 -2.7112710915688D-01  4.9560291624979D-01
11  1.0000000000000D-01 -2.9578131510623D-01  5.4780347367636D-01
12  1.1000000000000D-01 -3.1882485883183D-01  5.9912628737606D-01
13  1.2000000000000D-01 -3.4015231433671D-01  6.4949673512170D-01
14  1.3000000000000D-01 -3.5967229989430D-01  6.9884358500364D-01
15  1.4000000000000D-01 -3.7730796359676D-01  7.4709914703151D-01
16  1.5000000000000D-01 -3.9299729240592D-01  7.9419938997223D-01
17  1.6000000000000D-01 -4.0669324160764D-01  8.4008402288640D-01
18  1.7000000000000D-01 -4.1836368389993D-01  8.8469654129554D-01
19  1.8000000000000D-01 -4.2799117969089D-01  9.2798423838480D-01
20  1.9000000000000D-01 -4.3557257251575D-01  9.6989818211441D-01
21  2.0000000000000D-01 -4.4111841577256D-01  1.0103931595709D+00
22  2.1000000000000D-01 -4.4465223919545D-01  1.0494275903311D+00
23  2.2000000000000D-01 -4.4620966560257D-01  1.0869634110317D+00
24  2.3000000000000D-01 -4.4583739044773D-01  1.1229659337288D+00
25  2.4000000000000D-01 -4.4359203854275D-01  1.1574036809895D+00
26  2.5000000000000D-01 -4.3953891397808D-01  1.1902482009813D+00
27  2.6000000000000D-01 -4.3375066073072D-01  1.2214738660981D+00
28  2.7000000000000D-01 -4.2630585269022D-01  1.2510576588971D+00
29  2.8000000000000D-01 -4.1728753283891D-01  1.2789789492995D+00
30  2.9000000000000D-01 -4.0678172207749D-01  1.3052192671383D+00
31  3.0000000000000D-01 -3.9487591867948D-01  1.3297620742061D+00
32  3.1000000000000D-01 -3.8165760958057D-01  1.3525925399766D+00
33  3.2000000000000D-01 -3.6721281465587D-01  1.3736973251295D+00
34  3.3000000000000D-01 -3.5162468480910D-01  1.3930643769113D+00
35  3.4000000000000D-01 -3.3497217409359D-01  1.4106827402096D+00
36  3.5000000000000D-01 -3.1732880521175D-01  1.4265423880062D+00
37  3.6000000000000D-01 -2.9876154660640D-01  1.4406340746135D+00
38  3.7000000000000D-01 -2.7932981797516D-01  1.4529492147795D+00
39  3.8000000000000D-01 -2.5908463942463D-01  1.4634797913903D+00
40  3.9000000000000D-01 -2.3806793765142D-01  1.4722182940905D+00
41  4.0000000000000D-01 -2.1631202051475D-01  1.4791576907005D+00
42  4.1000000000000D-01 -1.9383922917277D-01  1.4842914328350D+00
43  4.2000000000000D-01 -1.7066177461968D-01  1.4876134966236D+00
44  4.3000000000000D-01 -1.4678176300988D-01  1.4891184589092D+00
45  4.4000000000000D-01 -1.2219141162068D-01  1.4888016087643D+00
46  4.5000000000000D-01 -9.6873454715184D-02  1.4866590936175D+00
47  4.6000000000000D-01 -7.0801735957054D-02  1.4826880987357D+00
48  4.7000000000000D-01 -4.3941981431420D-02  1.4768870582710D+00
49  4.8000000000000D-01 -1.6252744770488D-02  1.4692558955478D+00
50  4.9000000000000D-01  1.2313486590062D-02  1.4597962897679D+00
51  5.0000000000000D-01  4.1809037364971D-02  1.4485119658268D+00
52  5.1000000000000D-01  7.2289658145925D-02  1.4354090034929D+00
53  5.2000000000000D-01  1.0381302451405D-01  1.4204961617978D+00
54  5.3000000000000D-01  1.3643714100321D-01  1.4037852141271D+00
55  5.4000000000000D-01  1.7021867100072D-01  1.3852912891976D+00
56  5.5000000000000D-01  2.0521121504846D-01  1.3650332128568D+00
57  5.6000000000000D-01  2.4146356110943D-01  1.3430338454524D+00
58  5.7000000000000D-01  2.7901793117965D-01  1.3193204093987D+00
59  5.8000000000000D-01  3.1790824913887D-01  1.2939248015065D+00
60  5.9000000000000D-01  3.5815845493176D-01  1.2668838846606D+00
61  6.0000000000000D-01  3.9978089005131D-01  1.2382397535082D+00
62  6.1000000000000D-01  4.4277477885222D-01  1.2080399689785D+00
63  6.2000000000000D-01  4.8712482945806D-01  1.1763377566749D+00
64  6.3000000000000D-01  5.3279997693987D-01  1.1431921644765D+00
65  6.4000000000000D-01  5.7975229006219D-01  1.1086681750391D+00
66  6.5000000000000D-01  6.2791606120040D-01  1.0728367693133D+00
67  6.6000000000000D-01  6.7720709707412D-01  1.0357749376721D+00
68  6.7000000000000D-01  7.2752222573144D-01  9.9756563577457D-01
69  6.8000000000000D-01  7.7873903275567D-01  9.5829768287891D-01
70  6.9000000000000D-01  8.3071583701836D-01  9.1806560093620D-01
71  7.0000000000000D-01  8.8329191347196D-01  8.7696939345958D-01
72  7.1000000000000D-01  9.3628796750378D-01  8.3511426384764D-01
73  7.2000000000000D-01  9.8950686228812D-01  7.9261027354957D-01
74  7.3000000000000D-01  1.0427345974329D+00  7.4957194117519D-01
75  7.4000000000000D-01  1.0957415340304D+00  7.0611778437501D-01
76  7.5000000000000D-01  1.1482838580555D+00  6.6236980702891D-01
77  7.6000000000000D-01  1.2001052709265D+00  6.1845293498158D-01
78  7.7000000000000D-01  1.2509388930057D+00  5.7449440424043D-01
79  7.8000000000000D-01  1.3005093629058D+00  5.3062310619396D-01
80  7.9000000000000D-01  1.3485351127216D+00  4.8696889501261D-01
81  8.0000000000000D-01  1.3947307967595D+00  4.4366186294884D-01
82  8.1000000000000D-01  1.4388098490223D+00  4.0083158975194D-01
83  8.2000000000000D-01  1.4804871426653D+00  3.5860637284866D-01
84  8.3000000000000D-01  1.5194817228871D+00  3.1711244530770D-01
85  8.4000000000000D-01  1.5555195832924D+00  2.7647318889718D-01
86  8.5000000000000D-01  1.5883364546802D+00  2.3680834975716D-01
87  8.6000000000000D-01  1.6176805744861D+00  1.9823326433792D-01
88  8.7000000000000D-01  1.6433154047646D+00  1.6085810329795D-01
89  8.8000000000000D-01  1.6650222666300D+00  1.2478714101065D-01
90  8.9000000000000D-01  1.6826028595085D+00  9.0118058195600D-02
91  9.0000000000000D-01  1.6958816343640D+00  5.6941284968394D-02
92  9.1000000000000D-01  1.7047079912674D+00  2.5339391294601D-02
93  9.2000000000000D-01  1.7089582732505D+00 -4.6134685594950D-03
94  9.3000000000000D-01  1.7085375303233D+00 -3.2852051460421D-02
95  9.4000000000000D-01  1.7033810298087D+00 -5.9320455156482D-02
96  9.5000000000000D-01  1.6934554917414D+00 -8.3972477394112D-02
97  9.6000000000000D-01  1.6787600309615D+00 -1.0677190013850D-01
98  9.7000000000000D-01  1.6593267906593D+00 -1.2769269537526D-01
99  9.8000000000000D-01  1.6352212555426D+00 -1.4671914977230D-01
100  9.9000000000000D-01  1.6065422362288D+00 -1.6384590628577D-01
101  1.0000000000000D+00  1.5734215202696D+00 -1.7907792168335D-01
102  1.0100000000000D+00  1.5360231889371D+00 -1.9243033982533D-01
103  1.0200000000000D+00  1.4945426027454D+00 -2.0392828143763D-01
104  1.0300000000000D+00  1.4492050625206D+00 -2.1360655200273D-01
105  1.0400000000000D+00  1.4002641566767D+00 -2.2150927028521D-01
106  1.0500000000000D+00  1.3479998090151D+00 -2.2768942085577D-01
107  1.0600000000000D+00  1.2927160449077D+00 -2.3220833479734D-01
108  1.0700000000000D+00  1.2347384972956D+00 -2.3513510360176D-01
109  1.0800000000000D+00  1.1744116769358D+00 -2.3654593195952D-01
110  1.0900000000000D+00  1.1120960343808D+00 -2.3652343584975D-01
111  1.1000000000000D+00  1.0481648436611D+00 -2.3515589291255D-01
112  1.1100000000000D+00  9.8300093998321D-01 -2.3253645262774D-01
113  1.1200000000000D+00  9.1699334575978D-01 -2.2876231428893D-01
114  1.1300000000000D+00  8.5053382067360D-01 -2.2393388108480D-01
115  1.1400000000000D+00  7.8401337259026D-01 -2.1815389886110D-01
116  1.1500000000000D+00  7.1781876686049D-01 -2.1152658830902D-01
117  1.1600000000000D+00  6.5232907181607D-01 -2.0415677939499D-01
118  1.1700000000000D+00  5.8791227787926D-01 -1.9614905676695D-01
119  1.1800000000000D+00  5.2492202705483D-01 -1.8760692473229D-01
120  1.1900000000000D+00  4.6369448875380D-01 -1.7863200022415D-01
121  1.2000000000000D+00  4.0454541594084D-01 -1.6932324173802D-01
122  1.2100000000000D+00  3.4776741328162D-01 -1.5977622170314D-01
123  1.2200000000000D+00  2.9362744796293D-01 -1.5008244953041D-01
124  1.2300000000000D+00  2.4236462956899D-01 -1.4032875161788D-01
125  1.2400000000000D+00  1.9418828246911D-01 -1.3059671393724D-01
126  1.2500000000000D+00  1.4927633196629D-01 -1.2096219232991D-01
127  1.2600000000000D+00  1.0777402089056D-01 -1.1149489461622D-01
128  1.2700000000000D+00  6.9792968341183D-02 -1.0225803750039D-01
129  1.2800000000000D+00  3.5410580448909D-02 -9.3308080841710D-02
130  1.2900000000000D+00  4.6698179044303D-03 -8.4694540709346D-02
131  1.3000000000000D+00 -2.2420681521081D-02 -7.6459881168273D-02
132  1.3100000000000D+00 -4.5886127515689D-02 -6.8639484680908D-02
133  1.3200000000000D+00 -6.5784757633227D-02 -6.1261699487273D-02
134  1.3300000000000D+00 -8.2206688619423D-02 -5.4347960913707D-02
135  1.3400000000000D+00 -9.5272451872669D-02 -4.7912983976496D-02
136  1.3500000000000D+00 -1.0513123613581D-01 -4.1965022414314D-02
137  1.3600000000000D+00 -1.1195886301112D-01 -3.6506188711580D-02
138  1.3700000000000D+00 -1.1595551903141D-01 -3.1532830103191D-02
139  1.3800000000000D+00 -1.1734328021887D-01 -2.7035952777204D-02
140  1.3900000000000D+00 -1.1636345987907D-01 -2.3001687664976D-02
141  1.4000000000000D+00 -1.1327381619475D-01 -1.9411789894325D-02
142  1.4100000000000D+00 -1.0834566611404D-01 -1.6244161953930D-02
143  1.4200000000000D+00 -1.0186090134788D-01 -1.3473400299399D-02
144  1.4300000000000D+00 -9.4109115219408D-02 -1.1071324336996D-02
145  1.4400000000000D+00 -8.5384301159985D-02 -9.0075909735174D-03
146  1.4500000000000D+00 -7.5982360298292D-02 -7.2501519095480D-03
147  1.4600000000000D+00 -6.6199126422339D-02 -5.7656223894807D-03
148  1.4700000000000D+00 -5.6323292945362D-02 -4.5205970278428D-03
149  1.4800000000000D+00 -4.6630105089821D-02 -3.4828463194183D-03
150  1.4900000000000D+00 -3.7374037457960D-02 -2.6227523149593D-03
151  1.5000000000000D+00 -2.8784360538661D-02 -1.9142007306697D-03
152  1.5100000000000D+00 -2.1063741013052D-02 -1.3349150848083D-03
153  1.5200000000000D+00 -1.4391264640101D-02 -8.6726693341578D-04
154  1.5300000000000D+00 -8.8819688993693D-03 -4.9723770128767D-04
155  1.5400000000000D+00 -4.6557559968343D-03 -2.1747171809120D-04
156  1.5500000000000D+00 -1.9202862704342D-03 -2.6612776967843D-05
157  1.5600000000000D+00 -5.7301927847020D-04  7.2521443312692D-05
158  1.5700000000000D+00 -8.7753768534653D-05  7.4491724146589D-05
159  1.5800000000000D+00  5.1384180781131D-06  2.0040937992174D-05
160  1.5900000000000D+00 -8.6371867834222D-06 -1.1273605492247D-05
161  1.6000000000000D+00 -5.0282675693783D-06 -4.4846194374815D-06
162  1.6100000000000D+00  5.5287898623447D-07  2.4553269421060D-06
163  1.6200000000000D+00  3.0179815375119D-07  7.7555592236612D-07
164  1.6300000000000D+00  7.2199515007455D-07 -2.4041126274928D-07
165  1.6400000000000D+00  1.7273500287218D-07 -5.7517616506444D-08
166  1.6500000000000D+00  0.0000000000000D+00  0.0000000000000D+00
167  1.6600000000000D+00  0.0000000000000D+00  0.0000000000000D+00
168  1.6700000000000D+00  0.0000000000000D+00  0.0000000000000D+00
169  1.6800000000000D+00  0.0000000000000D+00  0.0000000000000D+00
170  1.6900000000000D+00  0.0000000000000D+00  0.0000000000000D+00
171  1.7000000000000D+00  0.0000000000000D+00  0.0000000000000D+00
172  1.7100000000000D+00  0.0000000000000D+00  0.0000000000000D+00
173  1.7200000000000D+00  0.0000000000000D+00  0.0000000000000D+00
174  1.7300000000000D+00  0.0000000000000D+00  0.0000000000000D+00
175  1.7400000000000D+00  0.0000000000000D+00  0.0000000000000D+00
176  1.7500000000000D+00  0.0000000000000D+00  0.0000000000000D+00
177  1.7600000000000D+00  0.0000000000000D+00  0.0000000000000D+00
178  1.7700000000000D+00  0.0000000000000D+00  0.0000000000000D+00
179  1.7800000000000D+00  0.0000000000000D+00  0.0000000000000D+00
180  1.7900000000000D+00  0.0000000000000D+00  0.0000000000000D+00
181  1.8000000000000D+00  0.0000000000000D+00  0.0000000000000D+00
182  1.8100000000000D+00  0.0000000000000D+00  0.0000000000000D+00
183  1.8200000000000D+00  0.0000000000000D+00  0.0000000000000D+00
184  1.8300000000000D+00  0.0000000000000D+00  0.0000000000000D+00
185  1.8400000000000D+00  0.0000000000000D+00  0.0000000000000D+00
186  1.8500000000000D+00  0.0000000000000D+00  0.0000000000000D+00
187  1.8600000000000D+00  0.0000000000000D+00  0.0000000000000D+00
188  1.8700000000000D+00  0.0000000000000D+00  0.0000000000000D+00
189  1.8800000000000D+00  0.0000000000000D+00  0.0000000000000D+00
190  1.8900000000000D+00  0.0000000000000D+00  0.0000000000000D+00
191  1.9000000000000D+00  0.0000000000000D+00  0.0000000000000D+00
192  1.9100000000000D+00  0.0000000000000D+00  0.0000000000000D+00
193  1.9200000000000D+00  0.0000000000000D+00  0.0000000000000D+00
194  1.9300000000000D+00  0.0000000000000D+00  0.0000000000000D+00
195  1.9400000000000D+00  0.0000000000000D+00  0.0000000000000D+00
196  1.9500000000000D+00  0.0000000000000D+00  0.0000000000000D+00
197  1.9600000000000D+00  0.0000000000000D+00  0.0000000000000D+00
198  1.9700000000000D+00  0.0000000000000D+00  0.0000000000000D+00
199  1.9800000000000D+00  0.0000000000000D+00  0.0000000000000D+00
200  1.9900000000000D+00  0.0000000000000D+00  0.0000000000000D+00
201  2.0000000000000D+00  0.0000000000000D+00  0.0000000000000D+00
202  2.0100000000000D+00  0.0000000000000D+00  0.0000000000000D+00
203  2.0200000000000D+00  0.0000000000000D+00  0.0000000000000D+00
204  2.0300000000000D+00  0.0000000000000D+00  0.0000000000000D+00
205  2.0400000000000D+00  0.0000000000000D+00  0.0000000000000D+00
206  2.0500000000000D+00  0.0000000000000D+00  0.0000000000000D+00
207  2.0600000000000D+00  0.0000000000000D+00  0.0000000000000D+00
208  2.0700000000000D+00  0.0000000000000D+00  0.0000000000000D+00
209  2.0800000000000D+00  0.0000000000000D+00  0.0000000000000D+00
210  2.0900000000000D+00  0.0000000000000D+00  0.0000000000000D+00
211  2.1000000000000D+00  0.0000000000000D+00  0.0000000000000D+00
212  2.1100000000000D+00  0.0000000000000D+00  0.0000000000000D+00
213  2.1200000000000D+00  0.0000000000000D+00  0.0000000000000D+00
214  2.1300000000000D+00  0.0000000000000D+00  0.0000000000000D+00
215  2.1400000000000D+00  0.0000000000000D+00  0.0000000000000D+00
216  2.1500000000000D+00  0.0000000000000D+00  0.0000000000000D+00
217  2.1600000000000D+00  0.0000000000000D+00  0.0000000000000D+00
218  2.1700000000000D+00  0.0000000000000D+00  0.0000000000000D+00
219  2.1800000000000D+00  0.0000000000000D+00  0.0000000000000D+00
220  2.1900000000000D+00  0.0000000000000D+00  0.0000000000000D+00
221  2.2000000000000D+00  0.0000000000000D+00  0.0000000000000D+00
222  2.2100000000000D+00  0.0000000000000D+00  0.0000000000000D+00
223  2.2200000000000D+00  0.0000000000000D+00  0.0000000000000D+00
224  2.2300000000000D+00  0.0000000000000D+00  0.0000000000000D+00
225  2.2400000000000D+00  0.0000000000000D+00  0.0000000000000D+00
226  2.2500000000000D+00  0.0000000000000D+00  0.0000000000000D+00
227  2.2600000000000D+00  0.0000000000000D+00  0.0000000000000D+00
228  2.2700000000000D+00  0.0000000000000D+00  0.0000000000000D+00
229  2.2800000000000D+00  0.0000000000000D+00  0.0000000000000D+00
230  2.2900000000000D+00  0.0000000000000D+00  0.0000000000000D+00
231  2.3000000000000D+00  0.0000000000000D+00  0.0000000000000D+00
232  2.3100000000000D+00  0.0000000000000D+00  0.0000000000000D+00
233  2.3200000000000D+00  0.0000000000000D+00  0.0000000000000D+00
234  2.3300000000000D+00  0.0000000000000D+00  0.0000000000000D+00
235  2.3400000000000D+00  0.0000000000000D+00  0.0000000000000D+00
236  2.3500000000000D+00  0.0000000000000D+00  0.0000000000000D+00
237  2.3600000000000D+00  0.0000000000000D+00  0.0000000000000D+00
238  2.3700000000000D+00  0.0000000000000D+00  0.0000000000000D+00
239  2.3800000000000D+00  0.0000000000000D+00  0.0000000000000D+00
240  2.3900000000000D+00  0.0000000000000D+00  0.0000000000000D+00
241  2.4000000000000D+00  0.0000000000000D+00  0.0000000000000D+00
242  2.4100000000000D+00  0.0000000000000D+00  0.0000000000000D+00
243  2.4200000000000D+00  0.0000000000000D+00  0.0000000000000D+00
244  2.4300000000000D+00  0.0000000000000D+00  0.0000000000000D+00
245  2.4400000000000D+00  0.0000000000000D+00  0.0000000000000D+00
246  2.4500000000000D+00  0.0000000000000D+00  0.0000000000000D+00
247  2.4600000000000D+00  0.0000000000000D+00  0.0000000000000D+00
248  2.4700000000000D+00  0.0000000000000D+00  0.0000000000000D+00
249  2.4800000000000D+00  0.0000000000000D+00  0.0000000000000D+00
250  2.4900000000000D+00  0.0000000000000D+00  0.0000000000000D+00
251  2.5000000000000D+00  0.0000000000000D+00  0.0000000000000D+00
252  2.5100000000000D+00  0.0000000000000D+00  0.0000000000000D+00
253  2.5200000000000D+00  0.0000000000000D+00  0.0000000000000D+00
254  2.5300000000000D+00  0.0000000000000D+00  0.0000000000000D+00
255  2.5400000000000D+00  0.0000000000000D+00  0.0000000000000D+00
256  2.5500000000000D+00  0.0000000000000D+00  0.0000000000000D+00
257  2.5600000000000D+00  0.0000000000000D+00  0.0000000000000D+00
258  2.5700000000000D+00  0.0000000000000D+00  0.0000000000000D+00
259  2.5800000000000D+00  0.0000000000000D+00  0.0000000000000D+00
260  2.5900000000000D+00  0.0000000000000D+00  0.0000000000000D+00
261  2.6000000000000D+00  0.0000000000000D+00  0.0000000000000D+00
262  2.6100000000000D+00  0.0000000000000D+00  0.0000000000000D+00
263  2.6200000000000D+00  0.0000000000000D+00  0.0000000000000D+00
264  2.6300000000000D+00  0.0000000000000D+00  0.0000000000000D+00
265  2.6400000000000D+00  0.0000000000000D+00  0.0000000000000D+00
266  2.6500000000000D+00  0.0000000000000D+00  0.0000000000000D+00
267  2.6600000000000D+00  0.0000000000000D+00  0.0000000000000D+00
268  2.6700000000000D+00  0.0000000000000D+00  0.0000000000000D+00
269  2.6800000000000D+00  0.0000000000000D+00  0.0000000000000D+00
270  2.6900000000000D+00  0.0000000000000D+00  0.0000000000000D+00
271  2.7000000000000D+00  0.0000000000000D+00  0.0000000000000D+00
272  2.7100000000000D+00  0.0000000000000D+00  0.0000000000000D+00
273  2.7200000000000D+00  0.0000000000000D+00  0.0000000000000D+00
274  2.7300000000000D+00  0.0000000000000D+00  0.0000000000000D+00
275  2.7400000000000D+00  0.0000000000000D+00  0.0000000000000D+00
276  2.7500000000000D+00  0.0000000000000D+00  0.0000000000000D+00
277  2.7600000000000D+00  0.0000000000000D+00  0.0000000000000D+00
278  2.7700000000000D+00  0.0000000000000D+00  0.0000000000000D+00
279  2.7800000000000D+00  0.0000000000000D+00  0.0000000000000D+00
280  2.7900000000000D+00  0.0000000000000D+00  0.0000000000000D+00
281  2.8000000000000D+00  0.0000000000000D+00  0.0000000000000D+00
282  2.8100000000000D+00  0.0000000000000D+00  0.0000000000000D+00
283  2.8200000000000D+00  0.0000000000000D+00  0.0000000000000D+00
284  2.8300000000000D+00  0.0000000000000D+00  0.0000000000000D+00
285  2.8400000000000D+00  0.0000000000000D+00  0.0000000000000D+00
286  2.8500000000000D+00  0.0000000000000D+00  0.0000000000000D+00
287  2.8600000000000D+00  0.0000000000000D+00  0.0000000000000D+00
288  2.8700000000000D+00  0.0000000000000D+00  0.0000000000000D+00
289  2.8800000000000D+00  0.0000000000000D+00  0.0000000000000D+00
290  2.8900000000000D+00  0.0000000000000D+00  0.0000000000000D+00
291  2.9000000000000D+00  0.0000000000000D+00  0.0000000000000D+00
292  2.9100000000000D+00  0.0000000000000D+00  0.0000000000000D+00
293  2.9200000000000D+00  0.0000000000000D+00  0.0000000000000D+00
294  2.9300000000000D+00  0.0000000000000D+00  0.0000000000000D+00
295  2.9400000000000D+00  0.0000000000000D+00  0.0000000000000D+00
296  2.9500000000000D+00  0.0000000000000D+00  0.0000000000000D+00
297  2.9600000000000D+00  0.0000000000000D+00  0.0000000000000D+00
298  2.9700000000000D+00  0.0000000000000D+00  0.0000000000000D+00
299  2.9800000000000D+00  0.0000000000000D+00  0.0000000000000D+00
300  2.9900000000000D+00  0.0000000000000D+00  0.0000000000000D+00
301  3.0000000000000D+00  0.0000000000000D+00  0.0000000000000D+00
302  3.0100000000000D+00  0.0000000000000D+00  0.0000000000000D+00
303  3.0200000000000D+00  0.0000000000000D+00  0.0000000000000D+00
304  3.0300000000000D+00  0.0000000000000D+00  0.0000000000000D+00
305  3.0400000000000D+00  0.0000000000000D+00  0.0000000000000D+00
306  3.0500000000000D+00  0.0000000000000D+00  0.0000000000000D+00
307  3.0600000000000D+00  0.0000000000000D+00  0.0000000000000D+00
308  3.0700000000000D+00  0.0000000000000D+00  0.0000000000000D+00
309  3.0800000000000D+00  0.0000000000000D+00  0.0000000000000D+00
310  3.0900000000000D+00  0.0000000000000D+00  0.0000000000000D+00
311  3.1000000000000D+00  0.0000000000000D+00  0.0000000000000D+00
312  3.1100000000000D+00  0.0000000000000D+00  0.0000000000000D+00
313  3.1200000000000D+00  0.0000000000000D+00  0.0000000000000D+00
314  3.1300000000000D+00  0.0000000000000D+00  0.0000000000000D+00
315  3.1400000000000D+00  0.0000000000000D+00  0.0000000000000D+00
316  3.1500000000000D+00  0.0000000000000D+00  0.0000000000000D+00
317  3.1600000000000D+00  0.0000000000000D+00  0.0000000000000D+00
318  3.1700000000000D+00  0.0000000000000D+00  0.0000000000000D+00
319  3.1800000000000D+00  0.0000000000000D+00  0.0000000000000D+00
320  3.1900000000000D+00  0.0000000000000D+00  0.0000000000000D+00
321  3.2000000000000D+00  0.0000000000000D+00  0.0000000000000D+00
322  3.2100000000000D+00  0.0000000000000D+00  0.0000000000000D+00
323  3.2200000000000D+00  0.0000000000000D+00  0.0000000000000D+00
324  3.2300000000000D+00  0.0000000000000D+00  0.0000000000000D+00
325  3.2400000000000D+00  0.0000000000000D+00  0.0000000000000D+00
326  3.2500000000000D+00  0.0000000000000D+00  0.0000000000000D+00
327  3.2600000000000D+00  0.0000000000000D+00  0.0000000000000D+00
328  3.2700000000000D+00  0.0000000000000D+00  0.0000000000000D+00
329  3.2800000000000D+00  0.0000000000000D+00  0.0000000000000D+00
330  3.2900000000000D+00  0.0000000000000D+00  0.0000000000000D+00
331  3.3000000000000D+00  0.0000000000000D+00  0.0000000000000D+00
332  3.3100000000000D+00  0.0000000000000D+00  0.0000000000000D+00
333  3.3200000000000D+00  0.0000000000000D+00  0.0000000000000D+00
334  3.3300000000000D+00  0.0000000000000D+00  0.0000000000000D+00
335  3.3400000000000D+00  0.0000000000000D+00  0.0000000000000D+00
336  3.3500000000000D+00  0.0000000000000D+00  0.0000000000000D+00
337  3.3600000000000D+00  0.0000000000000D+00  0.0000000000000D+00
338  3.3700000000000D+00  0.0000000000000D+00  0.0000000000000D+00
339  3.3800000000000D+00  0.0000000000000D+00  0.0000000000000D+00
340  3.3900000000000D+00  0.0000000000000D+00  0.0000000000000D+00
341  3.4000000000000D+00  0.0000000000000D+00  0.0000000000000D+00
342  3.4100000000000D+00  0.0000000000000D+00  0.0000000000000D+00
343  3.4200000000000D+00  0.0000000000000D+00  0.0000000000000D+00
344  3.4300000000000D+00  0.0000000000000D+00  0.0000000000000D+00
345  3.4400000000000D+00  0.0000000000000D+00  0.0000000000000D+00
346  3.4500000000000D+00  0.0000000000000D+00  0.0000000000000D+00
347  3.4600000000000D+00  0.0000000000000D+00  0.0000000000000D+00
348  3.4700000000000D+00  0.0000000000000D+00  0.0000000000000D+00
349  3.4800000000000D+00  0.0000000000000D+00  0.0000000000000D+00
350  3.4900000000000D+00  0.0000000000000D+00  0.0000000000000D+00
351  3.5000000000000D+00  0.0000000000000D+00  0.0000000000000D+00
352  3.5100000000000D+00  0.0000000000000D+00  0.0000000000000D+00
353  3.5200000000000D+00  0.0000000000000D+00  0.0000000000000D+00
354  3.5300000000000D+00  0.0000000000000D+00  0.0000000000000D+00
355  3.5400000000000D+00  0.0000000000000D+00  0.0000000000000D+00
356  3.5500000000000D+00  0.0000000000000D+00  0.0000000000000D+00
357  3.5600000000000D+00  0.0000000000000D+00  0.0000000000000D+00
358  3.5700000000000D+00  0.0000000000000D+00  0.0000000000000D+00
359  3.5800000000000D+00  0.0000000000000D+00  0.0000000000000D+00
360  3.5900000000000D+00  0.0000000000000D+00  0.0000000000000D+00
361  3.6000000000000D+00  0.0000000000000D+00  0.0000000000000D+00
362  3.6100000000000D+00  0.0000000000000D+00  0.0000000000000D+00
363  3.6200000000000D+00  0.0000000000000D+00  0.0000000000000D+00
364  3.6300000000000D+00  0.0000000000000D+00  0.0000000000000D+00
365  3.6400000000000D+00  0.0000000000000D+00  0.0000000000000D+00
366  3.6500000000000D+00  0.0000000000000D+00  0.0000000000000D+00
367  3.6600000000000D+00  0.0000000000000D+00  0.0000000000000D+00
368  3.6700000000000D+00  0.0000000000000D+00  0.0000000000000D+00
369  3.6800000000000D+00  0.0000000000000D+00  0.0000000000000D+00
370  3.6900000000000D+00  0.0000000000000D+00  0.0000000000000D+00
371  3.7000000000000D+00  0.0000000000000D+00  0.0000000000000D+00
372  3.7100000000000D+00  0.0000000000000D+00  0.0000000000000D+00
373  3.7200000000000D+00  0.0000000000000D+00  0.0000000000000D+00
374  3.7300000000000D+00  0.0000000000000D+00  0.0000000000000D+00
375  3.7400000000000D+00  0.0000000000000D+00  0.0000000000000D+00
376  3.7500000000000D+00  0.0000000000000D+00  0.0000000000000D+00
377  3.7600000000000D+00  0.0000000000000D+00  0.0000000000000D+00
378  3.7700000000000D+00  0.0000000000000D+00  0.0000000000000D+00
379  3.7800000000000D+00  0.0000000000000D+00  0.0000000000000D+00
380  3.7900000000000D+00  0.0000000000000D+00  0.0000000000000D+00
381  3.8000000000000D+00  0.0000000000000D+00  0.0000000000000D+00
382  3.8100000000000D+00  0.0000000000000D+00  0.0000000000000D+00
383  3.8200000000000D+00  0.0000000000000D+00  0.0000000000000D+00
384  3.8300000000000D+00  0.0000000000000D+00  0.0000000000000D+00
385  3.8400000000000D+00  0.0000000000000D+00  0.0000000000000D+00
386  3.8500000000000D+00  0.0000000000000D+00  0.0000000000000D+00
387  3.8600000000000D+00  0.0000000000000D+00  0.0000000000000D+00
388  3.8700000000000D+00  0.0000000000000D+00  0.0000000000000D+00
389  3.8800000000000D+00  0.0000000000000D+00  0.0000000000000D+00
390  3.8900000000000D+00  0.0000000000000D+00  0.0000000000000D+00
391  3.9000000000000D+00  0.0000000000000D+00  0.0000000000000D+00
392  3.9100000000000D+00  0.0000000000000D+00  0.0000000000000D+00
393  3.9200000000000D+00  0.0000000000000D+00  0.0000000000000D+00
394  3.9300000000000D+00  0.0000000000000D+00  0.0000000000000D+00
395  3.9400000000000D+00  0.0000000000000D+00  0.0000000000000D+00
396  3.9500000000000D+00  0.0000000000000D+00  0.0000000000000D+00
397  3.9600000000000D+00  0.0000000000000D+00  0.0000000000000D+00
398  3.9700000000000D+00  0.0000000000000D+00  0.0000000000000D+00
399  3.9800000000000D+00  0.0000000000000D+00  0.0000000000000D+00
400  3.9900000000000D+00  0.0000000000000D+00  0.0000000000000D+00
401  4.0000000000000D+00  0.0000000000000D+00  0.0000000000000D+00
402  4.0100000000000D+00  0.0000000000000D+00  0.0000000000000D+00
403  4.0200000000000D+00  0.0000000000000D+00  0.0000000000000D+00
404  4.0300000000000D+00  0.0000000000000D+00  0.0000000000000D+00
405  4.0400000000000D+00  0.0000000000000D+00  0.0000000000000D+00
406  4.0500000000000D+00  0.0000000000000D+00  0.0000000000000D+00
407  4.0600000000000D+00  0.0000000000000D+00  0.0000000000000D+00
408  4.0700000000000D+00  0.0000000000000D+00  0.0000000000000D+00
409  4.0800000000000D+00  0.0000000000000D+00  0.0000000000000D+00
410  4.0900000000000D+00  0.0000000000000D+00  0.0000000000000D+00
411  4.1000000000000D+00  0.0000000000000D+00  0.0000000000000D+00
412  4.1100000000000D+00  0.0000000000000D+00  0.0000000000000D+00
413  4.1200000000000D+00  0.0000000000000D+00  0.0000000000000D+00
414  4.1300000000000D+00  0.0000000000000D+00  0.0000000000000D+00
415  4.1400000000000D+00  0.0000000000000D+00  0.0000000000000D+00
416  4.1500000000000D+00  0.0000000000000D+00  0.0000000000000D+00
417  4.1600000000000D+00  0.0000000000000D+00  0.0000000000000D+00
418  4.1700000000000D+00  0.0000000000000D+00  0.0000000000000D+00
419  4.1800000000000D+00  0.0000000000000D+00  0.0000000000000D+00
420  4.1900000000000D+00  0.0000000000000D+00  0.0000000000000D+00
421  4.2000000000000D+00  0.0000000000000D+00  0.0000000000000D+00
422  4.2100000000000D+00  0.0000000000000D+00  0.0000000000000D+00
423  4.2200000000000D+00  0.0000000000000D+00  0.0000000000000D+00
424  4.2300000000000D+00  0.0000000000000D+00  0.0000000000000D+00
425  4.2400000000000D+00  0.0000000000000D+00  0.0000000000000D+00
426  4.2500000000000D+00  0.0000000000000D+00  0.0000000000000D+00
427  4.2600000000000D+00  0.0000000000000D+00  0.0000000000000D+00
428  4.2700000000000D+00  0.0000000000000D+00  0.0000000000000D+00
429  4.2800000000000D+00  0.0000000000000D+00  0.0000000000000D+00
430  4.2900000000000D+00  0.0000000000000D+00  0.0000000000000D+00
431  4.3000000000000D+00  0.0000000000000D+00  0.0000000000000D+00
432  4.3100000000000D+00  0.0000000000000D+00  0.0000000000000D+00
433  4.3200000000000D+00  0.0000000000000D+00  0.0000000000000D+00
434  4.3300000000000D+00  0.0000000000000D+00  0.0000000000000D+00
435  4.3400000000000D+00  0.0000000000000D+00  0.0000000000000D+00
436  4.3500000000000D+00  0.0000000000000D+00  0.0000000000000D+00
437  4.3600000000000D+00  0.0000000000000D+00  0.0000000000000D+00
438  4.3700000000000D+00  0.0000000000000D+00  0.0000000000000D+00
439  4.3800000000000D+00  0.0000000000000D+00  0.0000000000000D+00
440  4.3900000000000D+00  0.0000000000000D+00  0.0000000000000D+00
441  4.4000000000000D+00  0.0000000000000D+00  0.0000000000000D+00
442  4.4100000000000D+00  0.0000000000000D+00  0.0000000000000D+00
443  4.4200000000000D+00  0.0000000000000D+00  0.0000000000000D+00