Pt    ONCVPSP  r_core=  1.31  1.31  1.51  1.70
78.0000     32.0000      140820    zatom,zion,pspd
8    11     3     4   601     0    pspcod,pspxc,lmax,lloc,mmax,r2well
6.00000000  0.35000000  0.00000000    rchrg fchrg qchrg
2     2     2     2     0    nproj
0                 extension_switch
0                         1.9690268631908D+01  2.4857975893118D+00
1  0.0000000000000D+00 -0.0000000000000D+00 -0.0000000000000D+00
2  1.0000000000000D-02 -5.4494389183138D-02 -2.5499894184073D-02
3  2.0000000000000D-02 -1.0906065033095D-01 -5.0561763453367D-02
4  3.0000000000000D-02 -1.6376839263723D-01 -7.4753850154705D-02
5  4.0000000000000D-02 -2.1868272817910D-01 -9.7656856208957D-02
6  5.0000000000000D-02 -2.7386209411462D-01 -1.1886998634039D-01
7  6.0000000000000D-02 -3.2935615893129D-01 -1.3801676970952D-01
8  7.0000000000000D-02 -3.8520383934175D-01 -1.5475058985575D-01
9  8.0000000000000D-02 -4.4143145322823D-01 -1.6875985602736D-01
10  9.0000000000000D-02 -4.9805103256315D-01 -1.7977275288741D-01
11  1.0000000000000D-01 -5.5505881847362D-01 -1.8756151025691D-01
12  1.1000000000000D-01 -6.1243395867934D-01 -1.9194613969186D-01
13  1.2000000000000D-01 -6.7013742525949D-01 -1.9279759073058D-01
14  1.3000000000000D-01 -7.2811116835500D-01 -1.9004028586329D-01
15  1.4000000000000D-01 -7.8627751872651D-01 -1.8365400042007D-01
16  1.5000000000000D-01 -8.4453884947536D-01 -1.7367506044966D-01
17  1.6000000000000D-01 -9.0277750418675D-01 -1.6019683980379D-01
18  1.7000000000000D-01 -9.6085599594435D-01 -1.4336954496020D-01
19  1.8000000000000D-01 -1.0186174784038D+00 -1.2339928489320D-01
20  1.9000000000000D-01 -1.0758864874761D+00 -1.0054643030423D-01
21  2.0000000000000D-01 -1.1324699481902D+00 -7.5123276404929D-02
22  2.1000000000000D-01 -1.1881584399093D+00 -4.7491028580426D-02
23  2.2000000000000D-01 -1.2427277073976D+00 -1.8056143150988D-02
24  2.3000000000000D-01 -1.2959404060655D+00  1.2733944533061D-02
25  2.4000000000000D-01 -1.3475480618786D+00  4.4395653938936D-02
26  2.5000000000000D-01 -1.3972932305714D+00  7.6414613224471D-02
27  2.6000000000000D-01 -1.4449118307539D+00  1.0825146698347D-01
28  2.7000000000000D-01 -1.4901356320107D+00  1.3934808672369D-01
29  2.8000000000000D-01 -1.5326948620219D+00  1.6913409111925D-01
30  2.9000000000000D-01 -1.5723209191023D+00  1.9703363761777D-01
31  3.0000000000000D-01 -1.6087491522249D+00  2.2247238730399D-01
32  3.1000000000000D-01 -1.6417216806965D+00  2.4488456946370D-01
33  3.2000000000000D-01 -1.6709902160532D+00  2.6372004856153D-01
34  3.3000000000000D-01 -1.6963188567498D+00  2.7845131635152D-01
35  3.4000000000000D-01 -1.7174868856725D+00  2.8858048028795D-01
36  3.5000000000000D-01 -1.7342913325399D+00  2.9364565190109D-01
37  3.6000000000000D-01 -1.7465496556210D+00  2.9322761474247D-01
38  3.7000000000000D-01 -1.7541020173125D+00  2.8695546032405D-01
39  3.8000000000000D-01 -1.7568135537714D+00  2.7451218638998D-01
40  3.9000000000000D-01 -1.7545764358965D+00  2.5563974984515D-01
41  4.0000000000000D-01 -1.7473115993372D+00  2.3014326985320D-01
42  4.1000000000000D-01 -1.7349703089977D+00  1.9789479080078D-01
43  4.2000000000000D-01 -1.7175354295213D+00  1.5883628535191D-01
44  4.3000000000000D-01 -1.6950224053287D+00  1.1298190673981D-01
45  4.4000000000000D-01 -1.6674799359914D+00  6.0419455869423D-02
46  4.5000000000000D-01 -1.6349903353392D+00  1.3110359949877D-03
47  4.6000000000000D-01 -1.5976695654610D+00 -6.4107124667532D-02
48  4.7000000000000D-01 -1.5556669400306D+00 -1.3552569309039D-01
49  4.8000000000000D-01 -1.5091644848668D+00 -2.1256411734210D-01
50  4.9000000000000D-01 -1.4583760116114D+00 -2.9477324311681D-01
51  5.0000000000000D-01 -1.4035458523109D+00 -3.8163879009152D-01
52  5.1000000000000D-01 -1.3449472137033D+00 -4.7258575122707D-01
53  5.2000000000000D-01 -1.2828803381962D+00 -5.6698326483342D-01
54  5.3000000000000D-01 -1.2176703091178D+00 -6.6415043690543D-01
55  5.4000000000000D-01 -1.1496646296912D+00 -7.6336257570790D-01
56  5.5000000000000D-01 -1.0792305483242D+00 -8.6385814832754D-01
57  5.6000000000000D-01 -1.0067521104990D+00 -9.6484633318018D-01
58  5.7000000000000D-01 -9.3262723511635D-01 -1.0655144494747D+00
59  5.8000000000000D-01 -8.5726423841554D-01 -1.1650367807966D+00
60  5.9000000000000D-01 -7.8107873976109D-01 -1.2625823061752D+00
61  6.0000000000000D-01 -7.0449008694894D-01 -1.3573236225197D+00
62  6.1000000000000D-01 -6.2791761947155D-01 -1.4484461969527D+00
63  6.2000000000000D-01 -5.5177808364075D-01 -1.5351545875748D+00
64  6.3000000000000D-01 -4.7648056843820D-01 -1.6166849114802D+00
65  6.4000000000000D-01 -4.0242442266767D-01 -1.6923096202584D+00
66  6.5000000000000D-01 -3.2999594360379D-01 -1.7613453576287D+00
67  6.6000000000000D-01 -2.5956369045295D-01 -1.8231640874216D+00
68  6.7000000000000D-01 -1.9147691342047D-01 -1.8771963666720D+00
69  6.8000000000000D-01 -1.2606252635221D-01 -1.9229381724737D+00
70  6.9000000000000D-01 -6.3622002031945D-02 -1.9599577579685D+00
71  7.0000000000000D-01 -4.4287519311116D-03 -1.9879011640384D+00
72  7.1000000000000D-01  5.1273186411224D-02 -2.0064944875056D+00
73  7.2000000000000D-01  1.0327123604063D-01 -2.0155478801174D+00
74  7.3000000000000D-01  1.5138560405462D-01 -2.0149576017535D+00
75  7.4000000000000D-01  1.9547061184457D-01 -2.0047079239347D+00
76  7.5000000000000D-01  2.3541586141847D-01 -1.9848724226485D+00
77  7.6000000000000D-01  2.7114589621377D-01 -1.9556117682510D+00
78  7.7000000000000D-01  3.0262055128085D-01 -1.9171728990338D+00
79  7.8000000000000D-01  3.2983465073005D-01 -1.8698865674362D+00
80  7.9000000000000D-01  3.5281734864684D-01 -1.8141639430499D+00
81  8.0000000000000D-01  3.7163112284551D-01 -1.7504923081034D+00
82  8.1000000000000D-01  3.8637043496637D-01 -1.6794298923856D+00
83  8.2000000000000D-01  3.9716007434358D-01 -1.6015999051912D+00
84  8.3000000000000D-01  4.0415320673922D-01 -1.5176838317433D+00
85  8.4000000000000D-01  4.0752915242219D-01 -1.4284140705804D+00
86  8.5000000000000D-01  4.0749092114599D-01 -1.3345659965293D+00
87  8.6000000000000D-01  4.0426253433338D-01 -1.2369495410873D+00
88  8.7000000000000D-01  3.9808616719842D-01 -1.1364003882794D+00
89  8.8000000000000D-01  3.8921914562217D-01 -1.0337708893136D+00
90  8.9000000000000D-01  3.7793083433782D-01 -9.2992080360875D-01
91  9.0000000000000D-01  3.6449945435891D-01 -8.2570797695079D-01
92  9.1000000000000D-01  3.4920886857493D-01 -7.2197906956797D-01
93  9.2000000000000D-01  3.3234537500135D-01 -6.1956044767118D-01
94  9.3000000000000D-01  3.1419454724676D-01 -5.1924935130078D-01
95  9.4000000000000D-01  2.9503816127437D-01 -4.2180544893208D-01
96  9.5000000000000D-01  2.7515124639766D-01 -3.2794288494890D-01
97  9.6000000000000D-01  2.5479929656364D-01 -2.3832291951741D-01
98  9.7000000000000D-01  2.3423657743735D-01 -1.5355014866814D-01
99  9.8000000000000D-01  2.1370125136319D-01 -7.4158397261567D-02
100  9.9000000000000D-01  1.9341523661525D-01 -6.1231746058948D-04
101  1.0000000000000D+00  1.7358195353563D-01  6.6698194410243D-02
102  1.0100000000000D+00  1.5438467999874D-01  1.2746151675769D-01
103  1.0200000000000D+00  1.3598530707475D-01  1.8144654372632D-01
104  1.0300000000000D+00  1.1852426359487D-01  2.2850150695430D-01
105  1.0400000000000D+00  1.0211814215323D-01  2.6855948267949D-01
106  1.0500000000000D+00  8.6858946624251D-02  3.0163860544304D-01
107  1.0600000000000D+00  7.2816375259748D-02  3.2783391462948D-01
108  1.0700000000000D+00  6.0037315501498D-02  3.4731717567600D-01
109  1.0800000000000D+00  4.8547456580107D-02  3.6033099132496D-01
110  1.0900000000000D+00  3.8349774399903D-02  3.6719077161937D-01
111  1.1000000000000D+00  2.9426334212051D-02  3.6827709037045D-01
112  1.1100000000000D+00  2.1741850028896D-02  3.6402465874691D-01
113  1.1200000000000D+00  1.5244737510741D-02  3.5491775463083D-01
114  1.1300000000000D+00  9.8682658857325D-03  3.4148533318308D-01
115  1.1400000000000D+00  5.5316374406968D-03  3.2429244834728D-01
116  1.1500000000000D+00  2.1450213746516D-03  3.0392792948166D-01
117  1.1600000000000D+00 -3.8949093987410D-04  2.8100036921078D-01
118  1.1700000000000D+00 -2.1762410360197D-03  2.5612926707197D-01
119  1.1800000000000D+00 -3.3218333340143D-03  2.2992906190241D-01
120  1.1900000000000D+00 -3.9332736858995D-03  2.0300693701339D-01
121  1.2000000000000D+00 -4.1181196409300D-03  1.7596461712899D-01
122  1.2100000000000D+00 -3.9766731246988D-03  1.4936088582885D-01
123  1.2200000000000D+00 -3.6034646907389D-03  1.2372624617648D-01
124  1.2300000000000D+00 -3.0876773984272D-03  9.9564549023014D-02
125  1.2400000000000D+00 -2.5052543276452D-03  7.7318013391497D-02
126  1.2500000000000D+00 -1.9193191381926D-03  5.7372347903480D-02
127  1.2600000000000D+00 -1.3843559656369D-03  4.0075550030225D-02
128  1.2700000000000D+00 -9.3735008680909D-04  2.5699160131279D-02
129  1.2800000000000D+00 -5.9833341405232D-04  1.4441216595423D-02
130  1.2900000000000D+00 -3.7796222659297D-04  6.4595238334878D-03
131  1.3000000000000D+00 -2.8109547699254D-04  2.0724019298220D-03
132  1.3100000000000D+00 -2.2064599823131D-04  3.8247581130164D-04
133  1.3200000000000D+00 -6.2399582695713D-05 -4.6657511221332D-05
134  1.3300000000000D+00  1.5337295535456D-05 -3.2446485041704D-05
135  1.3400000000000D+00  1.2679612823582D-06 -2.6824081655328D-06
136  1.3500000000000D+00  0.0000000000000D+00  0.0000000000000D+00
137  1.3600000000000D+00  0.0000000000000D+00  0.0000000000000D+00
138  1.3700000000000D+00  0.0000000000000D+00  0.0000000000000D+00
139  1.3800000000000D+00  0.0000000000000D+00  0.0000000000000D+00
140  1.3900000000000D+00  0.0000000000000D+00  0.0000000000000D+00
141  1.4000000000000D+00  0.0000000000000D+00  0.0000000000000D+00
142  1.4100000000000D+00  0.0000000000000D+00  0.0000000000000D+00
143  1.4200000000000D+00  0.0000000000000D+00  0.0000000000000D+00
144  1.4300000000000D+00  0.0000000000000D+00  0.0000000000000D+00
145  1.4400000000000D+00  0.0000000000000D+00  0.0000000000000D+00
146  1.4500000000000D+00  0.0000000000000D+00  0.0000000000000D+00
147  1.4600000000000D+00  0.0000000000000D+00  0.0000000000000D+00
148  1.4700000000000D+00  0.0000000000000D+00  0.0000000000000D+00
149  1.4800000000000D+00  0.0000000000000D+00  0.0000000000000D+00
150  1.4900000000000D+00  0.0000000000000D+00  0.0000000000000D+00
151  1.5000000000000D+00  0.0000000000000D+00  0.0000000000000D+00
152  1.5100000000000D+00  0.0000000000000D+00  0.0000000000000D+00
153  1.5200000000000D+00  0.0000000000000D+00  0.0000000000000D+00
154  1.5300000000000D+00  0.0000000000000D+00  0.0000000000000D+00
155  1.5400000000000D+00  0.0000000000000D+00  0.0000000000000D+00
156  1.5500000000000D+00  0.0000000000000D+00  0.0000000000000D+00
157  1.5600000000000D+00  0.0000000000000D+00  0.0000000000000D+00
158  1.5700000000000D+00  0.0000000000000D+00  0.0000000000000D+00
159  1.5800000000000D+00  0.0000000000000D+00  0.0000000000000D+00
160  1.5900000000000D+00  0.0000000000000D+00  0.0000000000000D+00
161  1.6000000000000D+00  0.0000000000000D+00  0.0000000000000D+00
162  1.6100000000000D+00  0.0000000000000D+00  0.0000000000000D+00
163  1.6200000000000D+00  0.0000000000000D+00  0.0000000000000D+00
164  1.6300000000000D+00  0.0000000000000D+00  0.0000000000000D+00
165  1.6400000000000D+00  0.0000000000000D+00  0.0000000000000D+00
166  1.6500000000000D+00  0.0000000000000D+00  0.0000000000000D+00
167  1.6600000000000D+00  0.0000000000000D+00  0.0000000000000D+00
168  1.6700000000000D+00  0.0000000000000D+00  0.0000000000000D+00
169  1.6800000000000D+00  0.0000000000000D+00  0.0000000000000D+00
170  1.6900000000000D+00  0.0000000000000D+00  0.0000000000000D+00
171  1.7000000000000D+00  0.0000000000000D+00  0.0000000000000D+00
172  1.7100000000000D+00  0.0000000000000D+00  0.0000000000000D+00
173  1.7200000000000D+00  0.0000000000000D+00  0.0000000000000D+00
174  1.7300000000000D+00  0.0000000000000D+00  0.0000000000000D+00
175  1.7400000000000D+00  0.0000000000000D+00  0.0000000000000D+00
176  1.7500000000000D+00  0.0000000000000D+00  0.0000000000000D+00
177  1.7600000000000D+00  0.0000000000000D+00  0.0000000000000D+00
178  1.7700000000000D+00  0.0000000000000D+00  0.0000000000000D+00
179  1.7800000000000D+00  0.0000000000000D+00  0.0000000000000D+00
180  1.7900000000000D+00  0.0000000000000D+00  0.0000000000000D+00
181  1.8000000000000D+00  0.0000000000000D+00  0.0000000000000D+00
182  1.8100000000000D+00  0.0000000000000D+00  0.0000000000000D+00
183  1.8200000000000D+00  0.0000000000000D+00  0.0000000000000D+00
184  1.8300000000000D+00  0.0000000000000D+00  0.0000000000000D+00
185  1.8400000000000D+00  0.0000000000000D+00  0.0000000000000D+00
186  1.8500000000000D+00  0.0000000000000D+00  0.0000000000000D+00
187  1.8600000000000D+00  0.0000000000000D+00  0.0000000000000D+00
188  1.8700000000000D+00  0.0000000000000D+00  0.0000000000000D+00
189  1.8800000000000D+00  0.0000000000000D+00  0.0000000000000D+00
190  1.8900000000000D+00  0.0000000000000D+00  0.0000000000000D+00
191  1.9000000000000D+00  0.0000000000000D+00  0.0000000000000D+00
192  1.9100000000000D+00  0.0000000000000D+00  0.0000000000000D+00
193  1.9200000000000D+00  0.0000000000000D+00  0.0000000000000D+00
194  1.9300000000000D+00  0.0000000000000D+00  0.0000000000000D+00
195  1.9400000000000D+00  0.0000000000000D+00  0.0000000000000D+00
196  1.9500000000000D+00  0.0000000000000D+00  0.0000000000000D+00
197  1.9600000000000D+00  0.0000000000000D+00  0.0000000000000D+00
198  1.9700000000000D+00  0.0000000000000D+00  0.0000000000000D+00
199  1.9800000000000D+00  0.0000000000000D+00  0.0000000000000D+00
200  1.9900000000000D+00  0.0000000000000D+00  0.0000000000000D+00
201  2.0000000000000D+00  0.0000000000000D+00  0.0000000000000D+00
202  2.0100000000000D+00  0.0000000000000D+00  0.0000000000000D+00
203  2.0200000000000D+00  0.0000000000000D+00  0.0000000000000D+00
204  2.0300000000000D+00  0.0000000000000D+00  0.0000000000000D+00
205  2.0400000000000D+00  0.0000000000000D+00  0.0000000000000D+00
206  2.0500000000000D+00  0.0000000000000D+00  0.0000000000000D+00
207  2.0600000000000D+00  0.0000000000000D+00  0.0000000000000D+00
208  2.0700000000000D+00  0.0000000000000D+00  0.0000000000000D+00
209  2.0800000000000D+00  0.0000000000000D+00  0.0000000000000D+00
210  2.0900000000000D+00  0.0000000000000D+00  0.0000000000000D+00
211  2.1000000000000D+00  0.0000000000000D+00  0.0000000000000D+00
212  2.1100000000000D+00  0.0000000000000D+00  0.0000000000000D+00
213  2.1200000000000D+00  0.0000000000000D+00  0.0000000000000D+00
214  2.1300000000000D+00  0.0000000000000D+00  0.0000000000000D+00
215  2.1400000000000D+00  0.0000000000000D+00  0.0000000000000D+00
216  2.1500000000000D+00  0.0000000000000D+00  0.0000000000000D+00
217  2.1600000000000D+00  0.0000000000000D+00  0.0000000000000D+00
218  2.1700000000000D+00  0.0000000000000D+00  0.0000000000000D+00
219  2.1800000000000D+00  0.0000000000000D+00  0.0000000000000D+00
220  2.1900000000000D+00  0.0000000000000D+00  0.0000000000000D+00
221  2.2000000000000D+00  0.0000000000000D+00  0.0000000000000D+00
222  2.2100000000000D+00  0.0000000000000D+00  0.0000000000000D+00
223  2.2200000000000D+00  0.0000000000000D+00  0.0000000000000D+00
224  2.2300000000000D+00  0.0000000000000D+00  0.0000000000000D+00
225  2.2400000000000D+00  0.0000000000000D+00  0.0000000000000D+00
226  2.2500000000000D+00  0.0000000000000D+00  0.0000000000000D+00
227  2.2600000000000D+00  0.0000000000000D+00  0.0000000000000D+00
228  2.2700000000000D+00  0.0000000000000D+00  0.0000000000000D+00
229  2.2800000000000D+00  0.0000000000000D+00  0.0000000000000D+00
230  2.2900000000000D+00  0.0000000000000D+00  0.0000000000000D+00
231  2.3000000000000D+00  0.0000000000000D+00  0.0000000000000D+00
232  2.3100000000000D+00  0.0000000000000D+00  0.0000000000000D+00
233  2.3200000000000D+00  0.0000000000000D+00  0.0000000000000D+00
234  2.3300000000000D+00  0.0000000000000D+00  0.0000000000000D+00
235  2.3400000000000D+00  0.0000000000000D+00  0.0000000000000D+00
236  2.3500000000000D+00  0.0000000000000D+00  0.0000000000000D+00
237  2.3600000000000D+00  0.0000000000000D+00  0.0000000000000D+00
238  2.3700000000000D+00  0.0000000000000D+00  0.0000000000000D+00
239  2.3800000000000D+00  0.0000000000000D+00  0.0000000000000D+00
240  2.3900000000000D+00  0.0000000000000D+00  0.0000000000000D+00
241  2.4000000000000D+00  0.0000000000000D+00  0.0000000000000D+00
242  2.4100000000000D+00  0.0000000000000D+00  0.0000000000000D+00
243  2.4200000000000D+00  0.0000000000000D+00  0.0000000000000D+00
244  2.4300000000000D+00  0.0000000000000D+00  0.0000000000000D+00
245  2.4400000000000D+00  0.0000000000000D+00  0.0000000000000D+00
246  2.4500000000000D+00  0.0000000000000D+00  0.0000000000000D+00
247  2.4600000000000D+00  0.0000000000000D+00  0.0000000000000D+00
248  2.4700000000000D+00  0.0000000000000D+00  0.0000000000000D+00
249  2.4800000000000D+00  0.0000000000000D+00  0.0000000000000D+00
250  2.4900000000000D+00  0.0000000000000D+00  0.0000000000000D+00
251  2.5000000000000D+00  0.0000000000000D+00  0.0000000000000D+00
252  2.5100000000000D+00  0.0000000000000D+00  0.0000000000000D+00
253  2.5200000000000D+00  0.0000000000000D+00  0.0000000000000D+00
254  2.5300000000000D+00  0.0000000000000D+00  0.0000000000000D+00
255  2.5400000000000D+00  0.0000000000000D+00  0.0000000000000D+00
256  2.5500000000000D+00  0.0000000000000D+00  0.0000000000000D+00
257  2.5600000000000D+00  0.0000000000000D+00  0.0000000000000D+00
258  2.5700000000000D+00  0.0000000000000D+00  0.0000000000000D+00
259  2.5800000000000D+00  0.0000000000000D+00  0.0000000000000D+00
260  2.5900000000000D+00  0.0000000000000D+00  0.0000000000000D+00
261  2.6000000000000D+00  0.0000000000000D+00  0.0000000000000D+00
262  2.6100000000000D+00  0.0000000000000D+00  0.0000000000000D+00
263  2.6200000000000D+00  0.0000000000000D+00  0.0000000000000D+00
264  2.6300000000000D+00  0.0000000000000D+00  0.0000000000000D+00
265  2.6400000000000D+00  0.0000000000000D+00  0.0000000000000D+00
266  2.6500000000000D+00  0.0000000000000D+00  0.0000000000000D+00
267  2.6600000000000D+00  0.0000000000000D+00  0.0000000000000D+00
268  2.6700000000000D+00  0.0000000000000D+00  0.0000000000000D+00
269  2.6800000000000D+00  0.0000000000000D+00  0.0000000000000D+00
270  2.6900000000000D+00  0.0000000000000D+00  0.0000000000000D+00
271  2.7000000000000D+00  0.0000000000000D+00  0.0000000000000D+00
272  2.7100000000000D+00  0.0000000000000D+00  0.0000000000000D+00
273  2.7200000000000D+00  0.0000000000000D+00  0.0000000000000D+00
274  2.7300000000000D+00  0.0000000000000D+00  0.0000000000000D+00
275  2.7400000000000D+00  0.0000000000000D+00  0.0000000000000D+00
276  2.7500000000000D+00  0.0000000000000D+00  0.0000000000000D+00
277  2.7600000000000D+00  0.0000000000000D+00  0.0000000000000D+00
278  2.7700000000000D+00  0.0000000000000D+00  0.0000000000000D+00
279  2.7800000000000D+00  0.0000000000000D+00  0.0000000000000D+00
280  2.7900000000000D+00  0.0000000000000D+00  0.0000000000000D+00
281  2.8000000000000D+00  0.0000000000000D+00  0.0000000000000D+00
282  2.8100000000000D+00  0.0000000000000D+00  0.0000000000000D+00
283  2.8200000000000D+00  0.0000000000000D+00  0.0000000000000D+00
284  2.8300000000000D+00  0.0000000000000D+00  0.0000000000000D+00
285  2.8400000000000D+00  0.0000000000000D+00  0.0000000000000D+00
286  2.8500000000000D+00  0.0000000000000D+00  0.0000000000000D+00
287  2.8600000000000D+00  0.0000000000000D+00  0.0000000000000D+00
288  2.8700000000000D+00  0.0000000000000D+00  0.0000000000000D+00
289  2.8800000000000D+00  0.0000000000000D+00  0.0000000000000D+00
290  2.8900000000000D+00  0.0000000000000D+00  0.0000000000000D+00
291  2.9000000000000D+00  0.0000000000000D+00  0.0000000000000D+00
292  2.9100000000000D+00  0.0000000000000D+00  0.0000000000000D+00
293  2.9200000000000D+00  0.0000000000000D+00  0.0000000000000D+00
294  2.9300000000000D+00  0.0000000000000D+00  0.0000000000000D+00
295  2.9400000000000D+00  0.0000000000000D+00  0.0000000000000D+00
296  2.9500000000000D+00  0.0000000000000D+00  0.0000000000000D+00
297  2.9600000000000D+00  0.0000000000000D+00  0.0000000000000D+00
298  2.9700000000000D+00  0.0000000000000D+00  0.0000000000000D+00
299  2.9800000000000D+00  0.0000000000000D+00  0.0000000000000D+00
300  2.9900000000000D+00  0.0000000000000D+00  0.0000000000000D+00
301  3.0000000000000D+00  0.0000000000000D+00  0.0000000000000D+00
302  3.0100000000000D+00  0.0000000000000D+00  0.0000000000000D+00
303  3.0200000000000D+00  0.0000000000000D+00  0.0000000000000D+00
304  3.0300000000000D+00  0.0000000000000D+00  0.0000000000000D+00
305  3.0400000000000D+00  0.0000000000000D+00  0.0000000000000D+00
306  3.0500000000000D+00  0.0000000000000D+00  0.0000000000000D+00
307  3.0600000000000D+00  0.0000000000000D+00  0.0000000000000D+00
308  3.0700000000000D+00  0.0000000000000D+00  0.0000000000000D+00
309  3.0800000000000D+00  0.0000000000000D+00  0.0000000000000D+00
310  3.0900000000000D+00  0.0000000000000D+00  0.0000000000000D+00
311  3.1000000000000D+00  0.0000000000000D+00  0.0000000000000D+00
312  3.1100000000000D+00  0.0000000000000D+00  0.0000000000000D+00
313  3.1200000000000D+00  0.0000000000000D+00  0.0000000000000D+00
314  3.1300000000000D+00  0.0000000000000D+00  0.0000000000000D+00
315  3.1400000000000D+00  0.0000000000000D+00  0.0000000000000D+00
316  3.1500000000000D+00  0.0000000000000D+00  0.0000000000000D+00
317  3.1600000000000D+00  0.0000000000000D+00  0.0000000000000D+00
318  3.1700000000000D+00  0.0000000000000D+00  0.0000000000000D+00
319  3.1800000000000D+00  0.0000000000000D+00  0.0000000000000D+00
320  3.1900000000000D+00  0.0000000000000D+00  0.0000000000000D+00
321  3.2000000000000D+00  0.0000000000000D+00  0.0000000000000D+00
322  3.2100000000000D+00  0.0000000000000D+00  0.0000000000000D+00
323  3.2200000000000D+00  0.0000000000000D+00  0.0000000000000D+00
324  3.2300000000000D+00  0.0000000000000D+00  0.0000000000000D+00
325  3.2400000000000D+00  0.0000000000000D+00  0.0000000000000D+00
326  3.2500000000000D+00  0.0000000000000D+00  0.0000000000000D+00
327  3.2600000000000D+00  0.0000000000000D+00  0.0000000000000D+00
328  3.2700000000000D+00  0.0000000000000D+00  0.0000000000000D+00
329  3.2800000000000D+00  0.0000000000000D+00  0.0000000000000D+00
330  3.2900000000000D+00  0.0000000000000D+00  0.0000000000000D+00
331  3.3000000000000D+00  0.0000000000000D+00  0.0000000000000D+00
332  3.3100000000000D+00  0.0000000000000D+00  0.0000000000000D+00
333  3.3200000000000D+00  0.0000000000000D+00  0.0000000000000D+00
334  3.3300000000000D+00  0.0000000000000D+00  0.0000000000000D+00
335  3.3400000000000D+00  0.0000000000000D+00  0.0000000000000D+00
336  3.3500000000000D+00  0.0000000000000D+00  0.0000000000000D+00
337  3.3600000000000D+00  0.0000000000000D+00  0.0000000000000D+00
338  3.3700000000000D+00  0.0000000000000D+00  0.0000000000000D+00
339  3.3800000000000D+00  0.0000000000000D+00  0.0000000000000D+00
340  3.3900000000000D+00  0.0000000000000D+00  0.0000000000000D+00
341  3.4000000000000D+00  0.0000000000000D+00  0.0000000000000D+00
342  3.4100000000000D+00  0.0000000000000D+00  0.0000000000000D+00
343  3.4200000000000D+00  0.0000000000000D+00  0.0000000000000D+00
344  3.4300000000000D+00  0.0000000000000D+00  0.0000000000000D+00
345  3.4400000000000D+00  0.0000000000000D+00  0.0000000000000D+00
346  3.4500000000000D+00  0.0000000000000D+00  0.0000000000000D+00
347  3.4600000000000D+00  0.0000000000000D+00  0.0000000000000D+00
348  3.4700000000000D+00  0.0000000000000D+00  0.0000000000000D+00
349  3.4800000000000D+00  0.0000000000000D+00  0.0000000000000D+00
350  3.4900000000000D+00  0.0000000000000D+00  0.0000000000000D+00
351  3.5000000000000D+00  0.0000000000000D+00  0.0000000000000D+00
352  3.5100000000000D+00  0.0000000000000D+00  0.0000000000000D+00
353  3.5200000000000D+00  0.0000000000000D+00  0.0000000000000D+00
354  3.5300000000000D+00  0.0000000000000D+00  0.0000000000000D+00
355  3.5400000000000D+00  0.0000000000000D+00  0.0000000000000D+00
356  3.5500000000000D+00  0.0000000000000D+00  0.0000000000000D+00
357  3.5600000000000D+00  0.0000000000000D+00  0.0000000000000D+00
358  3.5700000000000D+00  0.0000000000000D+00  0.0000000000000D+00
359  3.5800000000000D+00  0.0000000000000D+00  0.0000000000000D+00
360  3.5900000000000D+00  0.0000000000000D+00  0.0000000000000D+00
361  3.6000000000000D+00  0.0000000000000D+00  0.0000000000000D+00
362  3.6100000000000D+00  0.0000000000000D+00  0.0000000000000D+00
363  3.6200000000000D+00  0.0000000000000D+00  0.0000000000000D+00
364  3.6300000000000D+00  0.0000000000000D+00  0.0000000000000D+00
365  3.6400000000000D+00  0.0000000000000D+00  0.0000000000000D+00
366  3.6500000000000D+00  0.0000000000000D+00  0.0000000000000D+00
367  3.6600000000000D+00  0.0000000000000D+00  0.0000000000000D+00
368  3.6700000000000D+00  0.0000000000000D+00  0.0000000000000D+00
369  3.6800000000000D+00  0.0000000000000D+00  0.0000000000000D+00
370  3.6900000000000D+00  0.0000000000000D+00  0.0000000000000D+00
371  3.7000000000000D+00  0.0000000000000D+00  0.0000000000000D+00
372  3.7100000000000D+00  0.0000000000000D+00  0.0000000000000D+00
373  3.7200000000000D+00  0.0000000000000D+00  0.0000000000000D+00
374  3.7300000000000D+00  0.0000000000000D+00  0.0000000000000D+00
375  3.7400000000000D+00  0.0000000000000D+00  0.0000000000000D+00
376  3.7500000000000D+00  0.0000000000000D+00  0.0000000000000D+00
377  3.7600000000000D+00  0.0000000000000D+00  0.0000000000000D+00
378  3.7700000000000D+00  0.0000000000000D+00  0.0000000000000D+00
379  3.7800000000000D+00  0.0000000000000D+00  0.0000000000000D+00
380  3.7900000000000D+00  0.0000000000000D+00  0.0000000000000D+00
381  3.8000000000000D+00  0.0000000000000D+00  0.0000000000000D+00
382  3.8100000000000D+00  0.0000000000000D+00  0.0000000000000D+00
383  3.8200000000000D+00  0.0000000000000D+00  0.0000000000000D+00
384  3.8300000000000D+00  0.0000000000000D+00  0.0000000000000D+00
385  3.8400000000000D+00  0.0000000000000D+00  0.0000000000000D+00
386  3.8500000000000D+00  0.0000000000000D+00  0.0000000000000D+00
387  3.8600000000000D+00  0.0000000000000D+00  0.0000000000000D+00
388  3.8700000000000D+00  0.0000000000000D+00  0.0000000000000D+00
389  3.8800000000000D+00  0.0000000000000D+00  0.0000000000000D+00
390  3.8900000000000D+00  0.0000000000000D+00  0.0000000000000D+00
391  3.9000000000000D+00  0.0000000000000D+00  0.0000000000000D+00
392  3.9100000000000D+00  0.0000000000000D+00  0.0000000000000D+00
393  3.9200000000000D+00  0.0000000000000D+00  0.0000000000000D+00
394  3.9300000000000D+00  0.0000000000000D+00  0.0000000000000D+00
395  3.9400000000000D+00  0.0000000000000D+00  0.0000000000000D+00
396  3.9500000000000D+00  0.0000000000000D+00  0.0000000000000D+00
397  3.9600000000000D+00  0.0000000000000D+00  0.0000000000000D+00
398  3.9700000000000D+00  0.0000000000000D+00  0.0000000000000D+00
399  3.9800000000000D+00  0.0000000000000D+00  0.0000000000000D+00
400  3.9900000000000D+00  0.0000000000000D+00  0.0000000000000D+00
401  4.0000000000000D+00  0.0000000000000D+00  0.0000000000000D+00
402  4.0100000000000D+00  0.0000000000000D+00  0.0000000000000D+00
403  4.0200000000000D+00  0.0000000000000D+00  0.0000000000000D+00
404  4.0300000000000D+00  0.0000000000000D+00  0.0000000000000D+00
405  4.0400000000000D+00  0.0000000000000D+00  0.0000000000000D+00
406  4.0500000000000D+00  0.0000000000000D+00  0.0000000000000D+00
407  4.0600000000000D+00  0.0000000000000D+00  0.0000000000000D+00
408  4.0700000000000D+00  0.0000000000000D+00  0.0000000000000D+00
409  4.0800000000000D+00  0.0000000000000D+00  0.0000000000000D+00
410  4.0900000000000D+00  0.0000000000000D+00  0.0000000000000D+00
411  4.1000000000000D+00  0.0000000000000D+00  0.0000000000000D+00
412  4.1100000000000D+00  0.0000000000000D+00  0.0000000000000D+00
413  4.1200000000000D+00  0.0000000000000D+00  0.0000000000000D+00
414  4.1300000000000D+00  0.0000000000000D+00  0.0000000000000D+00
415  4.1400000000000D+00  0.0000000000000D+00  0.0000000000000D+00
416  4.1500000000000D+00  0.0000000000000D+00  0.0000000000000D+00
417  4.1600000000000D+00  0.0000000000000D+00  0.0000000000000D+00
418  4.1700000000000D+00  0.0000000000000D+00  0.0000000000000D+00
419  4.1800000000000D+00  0.0000000000000D+00  0.0000000000000D+00
420  4.1900000000000D+00  0.0000000000000D+00  0.0000000000000D+00
421  4.2000000000000D+00  0.0000000000000D+00  0.0000000000000D+00
422  4.2100000000000D+00  0.0000000000000D+00  0.0000000000000D+00
423  4.2200000000000D+00  0.0000000000000D+00  0.0000000000000D+00
424  4.2300000000000D+00  0.0000000000000D+00  0.0000000000000D+00
425  4.2400000000000D+00  0.0000000000000D+00  0.0000000000000D+00
426  4.2500000000000D+00  0.0000000000000D+00  0.0000000000000D+00
427  4.2600000000000D+00  0.0000000000000D+00  0.0000000000000D+00
428  4.2700000000000D+00  0.0000000000000D+00  0.0000000000000D+00
429  4.2800000000000D+00  0.0000000000000D+00  0.0000000000000D+00
430  4.2900000000000D+00  0.0000000000000D+00  0.0000000000000D+00
431  4.3000000000000D+00  0.0000000000000D+00  0.0000000000000D+00
432  4.3100000000000D+00  0.0000000000000D+00  0.0000000000000D+00
433  4.3200000000000D+00  0.0000000000000D+00  0.0000000000000D+00
434  4.3300000000000D+00  0.0000000000000D+00  0.0000000000000D+00
435  4.3400000000000D+00  0.0000000000000D+00  0.0000000000000D+00
436  4.3500000000000D+00  0.0000000000000D+00  0.0000000000000D+00
437  4.3600000000000D+00  0.0000000000000D+00  0.0000000000000D+00
438  4.3700000000000D+00  0.0000000000000D+00  0.0000000000000D+00
439  4.3800000000000D+00  0.0000000000000D+00  0.0000000000000D+00
440  4.3900000000000D+00  0.0000000000000D+00  0.0000000000000D+00
441  4.4000000000000D+00  0.0000000000000D+00  0.0000000000000D+00
442  4.4100000000000D+00  0.0000000000000D+00  0.0000000000000D+00
443  4.4200000000000D+00  0.0000000000000D+00  0.0000000000000D+00