Pt    ONCVPSP  r_core=  2.40  2.61  2.32
78.0000     10.0000      140906    zatom,zion,pspd
8    11     2     4   601     0    pspcod,pspxc,lmax,lloc,mmax,r2well
6.00000000  1.15000000  0.00000000    rchrg fchrg qchrg
2     2     2     0     0    nproj
0                 extension_switch
0                        -1.7534675699234D+02  1.2221585489142D+00
1  0.0000000000000D+00 -0.0000000000000D+00  0.0000000000000D+00
2  1.0000000000000D-02 -7.0551611736291D-03  1.1499358742032D-02
3  2.0000000000000D-02 -1.4043211958873D-02  2.2957689045885D-02
4  3.0000000000000D-02 -2.0897231865235D-02  3.4334091658247D-02
5  4.0000000000000D-02 -2.7550679880515D-02  4.5587925495080D-02
6  5.0000000000000D-02 -3.3937583415124D-02  5.6678936223881D-02
7  6.0000000000000D-02 -3.9992726289495D-02  6.7567384239611D-02
8  7.0000000000000D-02 -4.5651835440680D-02  7.8214171826643D-02
9  8.0000000000000D-02 -5.0851766019731D-02  8.8580969294066D-02
10  9.0000000000000D-02 -5.5530684545959D-02  9.8630339865729D-02
11  1.0000000000000D-01 -5.9628249780528D-02  1.0832586310114D-01
12  1.1000000000000D-01 -6.3085790969979D-02  1.1763225661229D-01
13  1.2000000000000D-01 -6.5846483110009D-02  1.2651549583774D-01
14  1.3000000000000D-01 -6.7855518863113D-02  1.3494293162038D-01
15  1.4000000000000D-01 -6.9060276771169D-02  1.4288340533627D-01
16  1.5000000000000D-01 -6.9410485368545D-02  1.5030736129363D-01
17  1.6000000000000D-01 -6.8858382833908D-02  1.5718695613907D-01
18  1.7000000000000D-01 -6.7358871746823D-02  1.6349616495426D-01
19  1.8000000000000D-01 -6.4869668589657D-02  1.6921088377287D-01
20  1.9000000000000D-01 -6.1351447635616D-02  1.7430902824329D-01
21  2.0000000000000D-01 -5.6767978558133D-02  1.7877062794887D-01
22  2.1000000000000D-01 -5.1086257794572D-02  1.8257791637113D-01
23  2.2000000000000D-01 -4.4276632700880D-02  1.8571541579457D-01
24  2.3000000000000D-01 -3.6312918576415D-02  1.8817001716224D-01
25  2.4000000000000D-01 -2.7172507668885D-02  1.8993105422355D-01
26  2.5000000000000D-01 -1.6836470204278D-02  1.9099037195254D-01
27  2.6000000000000D-01 -5.2896465743178D-03  1.9134238858754D-01
28  2.7000000000000D-01  7.4792693052791D-03  1.9098415124239D-01
29  2.8000000000000D-01  2.1477656523956D-02  1.8991538430855D-01
30  2.9000000000000D-01  3.6708903146145D-02  1.8813853088752D-01
31  3.0000000000000D-01  5.3172352614612D-02  1.8565878651389D-01
32  3.1000000000000D-01  7.0863260805903D-02  1.8248412495562D-01
33  3.2000000000000D-01  8.9772764259590D-02  1.7862531567886D-01
34  3.3000000000000D-01  1.0988785969829D-01  1.7409593284186D-01
35  3.4000000000000D-01  1.3119139414175D-01  1.6891235613847D-01
36  3.5000000000000D-01  1.5366206985767D-01  1.6309376083202D-01
37  3.6000000000000D-01  1.7727445728450D-01  1.5666210103946D-01
38  3.7000000000000D-01  2.0199902468738D-01  1.4964208100980D-01
39  3.8000000000000D-01  2.2780217758571D-01  1.4206111842156D-01
40  3.9000000000000D-01  2.5464631191956D-01  1.3394929715247D-01
41  4.0000000000000D-01  2.8248988049692D-01  1.2533931013230D-01
42  4.1000000000000D-01  3.1128747189230D-01  1.1626639233886D-01
43  4.2000000000000D-01  3.4098990260565D-01  1.0676824361313D-01
44  4.3000000000000D-01  3.7154432227087D-01  9.6884941376509D-02
45  4.4000000000000D-01  4.0289433185215D-01  8.6658843284378D-02
46  4.5000000000000D-01  4.3498011472998D-01  7.6134479883072D-02
47  4.6000000000000D-01  4.6773858051774D-01  6.5358437391489D-02
48  4.7000000000000D-01  5.0110352134402D-01  5.4379230817692D-02
49  4.8000000000000D-01  5.3500577851531D-01  4.3247169141256D-02
50  4.9000000000000D-01  5.6937342350352D-01  3.2014209197361D-02
51  5.0000000000000D-01  6.0413195586839D-01  2.0733796254914D-02
52  5.1000000000000D-01  6.3920449893062D-01  9.4607071513304D-03
53  5.2000000000000D-01  6.7451200231780D-01 -1.7491118878176D-03
54  5.3000000000000D-01  7.0997350156027D-01 -1.2838753541596D-02
55  5.4000000000000D-01  7.4550630758257D-01 -2.3750499611711D-02
56  5.5000000000000D-01  7.8102627469312D-01 -3.4426035076710D-02
57  5.6000000000000D-01  8.1644804939528D-01 -4.4806645639890D-02
58  5.7000000000000D-01  8.5168530505168D-01 -5.4833403513807D-02
59  5.8000000000000D-01  8.8665104208778D-01 -6.4447405433738D-02
60  5.9000000000000D-01  9.2125781927780D-01 -7.3589954588791D-02
61  6.0000000000000D-01  9.5541804557446D-01 -8.2202790619230D-02
62  6.1000000000000D-01  9.8904428515885D-01 -9.0228329411831D-02
63  6.2000000000000D-01  1.0220494320304D+00 -9.7609798087929D-02
64  6.3000000000000D-01  1.0543471667356D+00 -1.0429159415625D-01
65  6.4000000000000D-01  1.0858520893597D+00 -1.1021938586753D-01
66  6.5000000000000D-01  1.1164800039324D+00 -1.1534033276321D-01
67  6.6000000000000D-01  1.1461483487340D+00 -1.1960342005870D-01
68  6.7000000000000D-01  1.1747763239014D+00 -1.2295955274872D-01
69  6.8000000000000D-01  1.2022851849916D+00 -1.2536178021922D-01
70  6.9000000000000D-01  1.2285985608354D+00 -1.2676553833457D-01
71  7.0000000000000D-01  1.2536427441539D+00 -1.2712886846009D-01
72  7.1000000000000D-01  1.2773468706762D+00 -1.2641254831273D-01
73  7.2000000000000D-01  1.2996431988044D+00 -1.2458030001097D-01
74  7.3000000000000D-01  1.3204673336620D+00 -1.2159895336520D-01
75  7.4000000000000D-01  1.3397584782675D+00 -1.1743862841865D-01
76  7.5000000000000D-01  1.3574597014002D+00 -1.1207292839316D-01
77  7.6000000000000D-01  1.3735180579919D+00 -1.0547901813491D-01
78  7.7000000000000D-01  1.3878848154810D+00 -9.7637781915108D-02
79  7.8000000000000D-01  1.4005156336261D+00 -8.8533943491175D-02
80  7.9000000000000D-01  1.4113707293532D+00 -7.8156172660480D-02
81  8.0000000000000D-01  1.4204150258636D+00 -6.6497177677374D-02
82  8.1000000000000D-01  1.4276182852987D+00 -5.3553782964475D-02
83  8.2000000000000D-01  1.4329552243224D+00 -3.9326991609878D-02
84  8.3000000000000D-01  1.4364056120525D+00 -2.3822032205599D-02
85  8.4000000000000D-01  1.4379543498428D+00 -7.0483896459348D-03
86  8.5000000000000D-01  1.4375915324859D+00  1.0980180430969D-02
87  8.6000000000000D-01  1.4353124904820D+00  3.0245653808770D-02
88  8.7000000000000D-01  1.4311178130881D+00  5.0725756648648D-02
89  8.8000000000000D-01  1.4250133519404D+00  7.2394001348001D-02
90  8.9000000000000D-01  1.4170102051202D+00  9.5219739341713D-02
91  9.0000000000000D-01  1.4071246816179D+00  1.1916823080674D-01
92  9.1000000000000D-01  1.3953782462396D+00  1.4420073114681D-01
93  9.2000000000000D-01  1.3817974451019D+00  1.7027459404145D-01
94  9.3000000000000D-01  1.3664138119666D+00  1.9734339074188D-01
95  9.4000000000000D-01  1.3492637557932D+00  2.2535704518476D-01
96  9.5000000000000D-01  1.3303884300167D+00  2.5426198437070D-01
97  9.6000000000000D-01  1.3098335842137D+00  2.8400130332010D-01
98  9.7000000000000D-01  1.2876493767161D+00  3.1451493983715D-01
99  9.8000000000000D-01  1.2638902778547D+00  3.4573985864169D-01
100  9.9000000000000D-01  1.2386147791159D+00  3.7761028254035D-01
101  1.0000000000000D+00  1.2118852056821D+00  4.1005789963854D-01
102  1.0100000000000D+00  1.1837674929677D+00  4.4301209098268D-01
103  1.0200000000000D+00  1.1543309482691D+00  4.7640016738195D-01
104  1.0300000000000D+00  1.1236480293363D+00  5.1014756758197D-01
105  1.0400000000000D+00  1.0917940671983D+00  5.4417816889981D-01
106  1.0500000000000D+00  1.0588469214074D+00  5.7841462873749D-01
107  1.0600000000000D+00  1.0248867707093D+00  6.1277853285157D-01
108  1.0700000000000D+00  9.8999581388381D-01  6.4719069985187D-01
109  1.0800000000000D+00  9.5425809133461D-01  6.8157132174833D-01
110  1.0900000000000D+00  9.1775901667086D-01  7.1584046426422D-01
111  1.1000000000000D+00  8.8058497144511D-01  7.4991843972671D-01
112  1.1100000000000D+00  8.4282324269903D-01  7.8372580139605D-01
113  1.1200000000000D+00  8.0456175862513D-01  8.1718359366552D-01
114  1.1300000000000D+00  7.6588881972159D-01  8.5021360531991D-01
115  1.1400000000000D+00  7.2689208834321D-01  8.8273938709973D-01
116  1.1500000000000D+00  6.8765909723333D-01  9.1468563901983D-01
117  1.1600000000000D+00  6.4827702754862D-01  9.4597842128912D-01
118  1.1700000000000D+00  6.0883195716968D-01  9.7654589741698D-01
119  1.1800000000000D+00  5.6940818048442D-01  1.0063189569120D+00
120  1.1900000000000D+00  5.3008884005730D-01  1.0352305298580D+00
121  1.2000000000000D+00  4.9095618347214D-01  1.0632153266471D+00
122  1.2100000000000D+00  4.5208884188720D-01  1.0902124794553D+00
123  1.2200000000000D+00  4.1356377766206D-01  1.1161635600017D+00
124  1.2300000000000D+00  3.7545635509658D-01  1.1410125148205D+00
125  1.2400000000000D+00  3.3783814274505D-01  1.1647077478517D+00
126  1.2500000000000D+00  3.0077765362247D-01  1.1872013388652D+00
127  1.2600000000000D+00  2.6434156147939D-01  1.2084478856301D+00
128  1.2700000000000D+00  2.2859233919693D-01  1.2284067009496D+00
129  1.2800000000000D+00  1.9358853020016D-01  1.2470414795129D+00
130  1.2900000000000D+00  1.5938678910323D-01  1.2643184100454D+00
131  1.3000000000000D+00  1.2603874337515D-01  1.2802090266458D+00
132  1.3100000000000D+00  9.3591971756273D-02  1.2946892306016D+00
133  1.3200000000000D+00  6.2092247080834D-02  1.3077372909770D+00
134  1.3300000000000D+00  3.1579002009630D-02  1.3193378364273D+00
135  1.3400000000000D+00  2.0885345252861D-03  1.3294789332535D+00
136  1.3500000000000D+00 -2.6345128149470D-02  1.3381513836974D+00
137  1.3600000000000D+00 -5.3695142251867D-02  1.3453528577504D+00
138  1.3700000000000D+00 -7.9936109626862D-02  1.3510829473723D+00
139  1.3800000000000D+00 -1.0504731674535D-01  1.3553459239762D+00
140  1.3900000000000D+00 -1.2901314181940D-01  1.3581509185632D+00
141  1.4000000000000D+00 -1.5181917721273D-01  1.3595088147098D+00
142  1.4100000000000D+00 -1.7345794151858D-01  1.3594367186642D+00
143  1.4200000000000D+00 -1.9392356775488D-01  1.3579536848736D+00
144  1.4300000000000D+00 -2.1321420153895D-01  1.3550826286976D+00
145  1.4400000000000D+00 -2.3133263383355D-01  1.3508505514906D+00
146  1.4500000000000D+00 -2.4828258395818D-01  1.3452859938472D+00
147  1.4600000000000D+00 -2.6407404636979D-01  1.3384225122272D+00
148  1.4700000000000D+00 -2.7871762740080D-01  1.3302948682379D+00
149  1.4800000000000D+00 -2.9222827467762D-01  1.3209413851507D+00
150  1.4900000000000D+00 -3.0462321295136D-01  1.3104024259165D+00
151  1.5000000000000D+00 -3.1592200184128D-01  1.2987206521442D+00
152  1.5100000000000D+00 -3.2614741496383D-01  1.2859408386313D+00
153  1.5200000000000D+00 -3.3532331370069D-01  1.2721095512377D+00
154  1.5300000000000D+00 -3.4347681607621D-01  1.2572748293453D+00
155  1.5400000000000D+00 -3.5063589862596D-01  1.2414864308048D+00
156  1.5500000000000D+00 -3.5683083877820D-01  1.2247948315562D+00
157  1.5600000000000D+00 -3.6209298697110D-01  1.2072519293331D+00
158  1.5700000000000D+00 -3.6645519072370D-01  1.1889100457554D+00
159  1.5800000000000D+00 -3.6995117585774D-01  1.1698221261656D+00
160  1.5900000000000D+00 -3.7261582796796D-01  1.1500417164838D+00
161  1.6000000000000D+00 -3.7448428167789D-01  1.1296218044008D+00
162  1.6100000000000D+00 -3.7559290043059D-01  1.1086165046848D+00
163  1.6200000000000D+00 -3.7597735582253D-01  1.0870779594718D+00
164  1.6300000000000D+00 -3.7567490032561D-01  1.0650601687421D+00
165  1.6400000000000D+00 -3.7472098896295D-01  1.0426136761315D+00
166  1.6500000000000D+00 -3.7315315567340D-01  1.0197916690062D+00
167  1.6600000000000D+00 -3.7100601615260D-01  9.9664248306517D-01
168  1.6700000000000D+00 -3.6831677408679D-01  9.7321779785239D-01
169  1.6800000000000D+00 -3.6511871955198D-01  9.4956327859213D-01
170  1.6900000000000D+00 -3.6144812566208D-01  9.2572842071389D-01
171  1.7000000000000D+00 -3.5733660821965D-01  9.0175590341495D-01
172  1.7100000000000D+00 -3.5281893570419D-01  8.7769239533675D-01
173  1.7200000000000D+00 -3.4792483568315D-01  8.5357741761901D-01
174  1.7300000000000D+00 -3.4268703868342D-01  8.2945421717902D-01
175  1.7400000000000D+00 -3.3713329641404D-01  8.0535911961830D-01
176  1.7500000000000D+00 -3.3129382476667D-01  7.8133141892958D-01
177  1.7600000000000D+00 -3.2519442236927D-01  7.5740432494304D-01
178  1.7700000000000D+00 -3.1886238999241D-01  7.3361273202051D-01
179  1.7800000000000D+00 -3.1232168088550D-01  7.0998690310801D-01
180  1.7900000000000D+00 -3.0559638116227D-01  6.8655699822905D-01
181  1.8000000000000D+00 -2.9870875585499D-01  6.6335055169580D-01
182  1.8100000000000D+00 -2.9167950729589D-01  6.4039280047776D-01
183  1.8200000000000D+00 -2.8452937568562D-01  6.1770876862482D-01
184  1.8300000000000D+00 -2.7727567154139D-01  5.9531876422153D-01
185  1.8400000000000D+00 -2.6993773447888D-01  5.7324546675173D-01
186  1.8500000000000D+00 -2.6252966126902D-01  5.5150446485227D-01
187  1.8600000000000D+00 -2.5506943758424D-01  5.3011615989320D-01
188  1.8700000000000D+00 -2.4756874801993D-01  5.0909242932782D-01
189  1.8800000000000D+00 -2.4004288967906D-01  4.8844963649517D-01
190  1.8900000000000D+00 -2.3250289662545D-01  4.6819822791516D-01
191  1.9000000000000D+00 -2.2496103328465D-01  4.4835002701178D-01
192  1.9100000000000D+00 -2.1742796748953D-01  4.2891442465146D-01
193  1.9200000000000D+00 -2.0991333867004D-01  4.0989916407279D-01
194  1.9300000000000D+00 -2.0242745013458D-01  3.9131259635454D-01
195  1.9400000000000D+00 -1.9497797180204D-01  3.7315917208364D-01
196  1.9500000000000D+00 -1.8757461507276D-01  3.5544590379132D-01
197  1.9600000000000D+00 -1.8022412615560D-01  3.3817532179485D-01
198  1.9700000000000D+00 -1.7293469844022D-01  3.2135174420793D-01
199  1.9800000000000D+00 -1.6571336088076D-01  3.0497748310074D-01
200  1.9900000000000D+00 -1.5856698517791D-01  2.8905433708710D-01
201  2.0000000000000D+00 -1.5150270118362D-01  2.7358418195331D-01
202  2.0100000000000D+00 -1.4452673436033D-01  2.5856720221840D-01
203  2.0200000000000D+00 -1.3764601043420D-01  2.4400437516256D-01
204  2.0300000000000D+00 -1.3086674142390D-01  2.2989523255777D-01
205  2.0400000000000D+00 -1.2419545765985D-01  2.1623950039285D-01
206  2.0500000000000D+00 -1.1763862836084D-01  2.0303652124992D-01
207  2.0600000000000D+00 -1.1120262083126D-01  1.9028518557661D-01
208  2.0700000000000D+00 -1.0489403562943D-01  1.7798437286053D-01
209  2.0800000000000D+00 -9.8719257854340D-02  1.6613257699254D-01
210  2.0900000000000D+00 -9.2684922028199D-02  1.5472816025197D-01
211  2.1000000000000D+00 -8.6797534152923D-02  1.4376930229005D-01
212  2.1100000000000D+00 -8.1063582927831D-02  1.3325399829738D-01
213  2.1200000000000D+00 -7.5489876101919D-02  1.2318006206776D-01
214  2.1300000000000D+00 -7.0082509889211D-02  1.1354506888501D-01
215  2.1400000000000D+00 -6.4848219001704D-02  1.0434650501253D-01
216  2.1500000000000D+00 -5.9793123348209D-02  9.5581485171013D-02
217  2.1600000000000D+00 -5.4922914391902D-02  8.7246802375738D-02
218  2.1700000000000D+00 -5.0244471171582D-02  7.9339488893738D-02
219  2.1800000000000D+00 -4.5762096175570D-02  7.1855291780744D-02
220  2.1900000000000D+00 -4.1481533788278D-02  6.4790402224535D-02
221  2.2000000000000D+00 -3.7407749802089D-02  5.8140390857379D-02
222  2.2100000000000D+00 -3.3543698897705D-02  5.1899574202715D-02
223  2.2200000000000D+00 -2.9894771776224D-02  4.6063411688302D-02
224  2.2300000000000D+00 -2.6462357803923D-02  4.0624808371834D-02
225  2.2400000000000D+00 -2.3248232282660D-02  3.5576684314432D-02
226  2.2500000000000D+00 -2.0255948278420D-02  3.0912812380326D-02
227  2.2600000000000D+00 -1.7482851478716D-02  2.6622964618124D-02
228  2.2700000000000D+00 -1.4929458523510D-02  2.2698372531880D-02
229  2.2800000000000D+00 -1.2594617968355D-02  1.9129418469520D-02
230  2.2900000000000D+00 -1.0474175112504D-02  1.5905143322198D-02
231  2.3000000000000D+00 -8.5665846759082D-03  1.3014782620899D-02
232  2.3100000000000D+00 -6.8669646923220D-03  1.0447391067038D-02
233  2.3200000000000D+00 -5.3699921680466D-03  8.1917605043287D-03
234  2.3300000000000D+00 -4.0726842293618D-03  6.2364260609003D-03
235  2.3400000000000D+00 -2.9665755778799D-03  4.5695631739031D-03
236  2.3500000000000D+00 -2.0450709089447D-03  3.1791380312280D-03
237  2.3600000000000D+00 -1.3022030110568D-03  2.0529056934270D-03
238  2.3700000000000D+00 -7.2696814618324D-04  1.1779340253128D-03
239  2.3800000000000D+00 -3.1724883968899D-04  5.5342647274236D-04
240  2.3900000000000D+00 -6.3587502457890D-05  1.6621258352797D-04
241  2.4000000000000D+00  7.1834404557504D-05 -4.4843475220809D-05
242  2.4100000000000D+00  1.1168733898526D-04 -1.1971661573050D-04
243  2.4200000000000D+00  8.4519999651757D-05 -1.0035372714027D-04
244  2.4300000000000D+00  2.4737638009190D-05 -3.0668641350810D-05
245  2.4400000000000D+00 -5.3312362227997D-06  5.0007772556851D-06
246  2.4500000000000D+00 -6.4151645493664D-06  6.0175178193663D-06
247  2.4600000000000D+00 -1.8492598747694D-06  1.7346327071475D-06
248  2.4700000000000D+00  0.0000000000000D+00  0.0000000000000D+00
249  2.4800000000000D+00  0.0000000000000D+00  0.0000000000000D+00
250  2.4900000000000D+00  0.0000000000000D+00  0.0000000000000D+00
251  2.5000000000000D+00  0.0000000000000D+00  0.0000000000000D+00
252  2.5100000000000D+00  0.0000000000000D+00  0.0000000000000D+00
253  2.5200000000000D+00  0.0000000000000D+00  0.0000000000000D+00
254  2.5300000000000D+00  0.0000000000000D+00  0.0000000000000D+00
255  2.5400000000000D+00  0.0000000000000D+00  0.0000000000000D+00
256  2.5500000000000D+00  0.0000000000000D+00  0.0000000000000D+00
257  2.5600000000000D+00  0.0000000000000D+00  0.0000000000000D+00
258  2.5700000000000D+00  0.0000000000000D+00  0.0000000000000D+00
259  2.5800000000000D+00  0.0000000000000D+00  0.0000000000000D+00
260  2.5900000000000D+00  0.0000000000000D+00  0.0000000000000D+00
261  2.6000000000000D+00  0.0000000000000D+00  0.0000000000000D+00
262  2.6100000000000D+00  0.0000000000000D+00  0.0000000000000D+00
263  2.6200000000000D+00  0.0000000000000D+00  0.0000000000000D+00
264  2.6300000000000D+00  0.0000000000000D+00  0.0000000000000D+00
265  2.6400000000000D+00  0.0000000000000D+00  0.0000000000000D+00
266  2.6500000000000D+00  0.0000000000000D+00  0.0000000000000D+00
267  2.6600000000000D+00  0.0000000000000D+00  0.0000000000000D+00
268  2.6700000000000D+00  0.0000000000000D+00  0.0000000000000D+00
269  2.6800000000000D+00  0.0000000000000D+00  0.0000000000000D+00
270  2.6900000000000D+00  0.0000000000000D+00  0.0000000000000D+00
271  2.7000000000000D+00  0.0000000000000D+00  0.0000000000000D+00
272  2.7100000000000D+00  0.0000000000000D+00  0.0000000000000D+00
273  2.7200000000000D+00  0.0000000000000D+00  0.0000000000000D+00
274  2.7300000000000D+00  0.0000000000000D+00  0.0000000000000D+00
275  2.7400000000000D+00  0.0000000000000D+00  0.0000000000000D+00
276  2.7500000000000D+00  0.0000000000000D+00  0.0000000000000D+00
277  2.7600000000000D+00  0.0000000000000D+00  0.0000000000000D+00
278  2.7700000000000D+00  0.0000000000000D+00  0.0000000000000D+00
279  2.7800000000000D+00  0.0000000000000D+00  0.0000000000000D+00
280  2.7900000000000D+00  0.0000000000000D+00  0.0000000000000D+00
281  2.8000000000000D+00  0.0000000000000D+00  0.0000000000000D+00
282  2.8100000000000D+00  0.0000000000000D+00  0.0000000000000D+00
283  2.8200000000000D+00  0.0000000000000D+00  0.0000000000000D+00
284  2.8300000000000D+00  0.0000000000000D+00  0.0000000000000D+00
285  2.8400000000000D+00  0.0000000000000D+00  0.0000000000000D+00
286  2.8500000000000D+00  0.0000000000000D+00  0.0000000000000D+00
287  2.8600000000000D+00  0.0000000000000D+00  0.0000000000000D+00
288  2.8700000000000D+00  0.0000000000000D+00  0.0000000000000D+00
289  2.8800000000000D+00  0.0000000000000D+00  0.0000000000000D+00
290  2.8900000000000D+00  0.0000000000000D+00  0.0000000000000D+00
291  2.9000000000000D+00  0.0000000000000D+00  0.0000000000000D+00
292  2.9100000000000D+00  0.0000000000000D+00  0.0000000000000D+00
293  2.9200000000000D+00  0.0000000000000D+00  0.0000000000000D+00
294  2.9300000000000D+00  0.0000000000000D+00  0.0000000000000D+00
295  2.9400000000000D+00  0.0000000000000D+00  0.0000000000000D+00
296  2.9500000000000D+00  0.0000000000000D+00  0.0000000000000D+00
297  2.9600000000000D+00  0.0000000000000D+00  0.0000000000000D+00
298  2.9700000000000D+00  0.0000000000000D+00  0.0000000000000D+00
299  2.9800000000000D+00  0.0000000000000D+00  0.0000000000000D+00
300  2.9900000000000D+00  0.0000000000000D+00  0.0000000000000D+00
301  3.0000000000000D+00  0.0000000000000D+00  0.0000000000000D+00
302  3.0100000000000D+00  0.0000000000000D+00  0.0000000000000D+00
303  3.0200000000000D+00  0.0000000000000D+00  0.0000000000000D+00
304  3.0300000000000D+00  0.0000000000000D+00  0.0000000000000D+00
305  3.0400000000000D+00  0.0000000000000D+00  0.0000000000000D+00
306  3.0500000000000D+00  0.0000000000000D+00  0.0000000000000D+00
307  3.0600000000000D+00  0.0000000000000D+00  0.0000000000000D+00
308  3.0700000000000D+00  0.0000000000000D+00  0.0000000000000D+00
309  3.0800000000000D+00  0.0000000000000D+00  0.0000000000000D+00
310  3.0900000000000D+00  0.0000000000000D+00  0.0000000000000D+00
311  3.1000000000000D+00  0.0000000000000D+00  0.0000000000000D+00
312  3.1100000000000D+00  0.0000000000000D+00  0.0000000000000D+00
313  3.1200000000000D+00  0.0000000000000D+00  0.0000000000000D+00
314  3.1300000000000D+00  0.0000000000000D+00  0.0000000000000D+00
315  3.1400000000000D+00  0.0000000000000D+00  0.0000000000000D+00
316  3.1500000000000D+00  0.0000000000000D+00  0.0000000000000D+00
317  3.1600000000000D+00  0.0000000000000D+00  0.0000000000000D+00
318  3.1700000000000D+00  0.0000000000000D+00  0.0000000000000D+00
319  3.1800000000000D+00  0.0000000000000D+00  0.0000000000000D+00
320  3.1900000000000D+00  0.0000000000000D+00  0.0000000000000D+00
321  3.2000000000000D+00  0.0000000000000D+00  0.0000000000000D+00
322  3.2100000000000D+00  0.0000000000000D+00  0.0000000000000D+00
323  3.2200000000000D+00  0.0000000000000D+00  0.0000000000000D+00
324  3.2300000000000D+00  0.0000000000000D+00  0.0000000000000D+00
325  3.2400000000000D+00  0.0000000000000D+00  0.0000000000000D+00
326  3.2500000000000D+00  0.0000000000000D+00  0.0000000000000D+00
327  3.2600000000000D+00  0.0000000000000D+00  0.0000000000000D+00
328  3.2700000000000D+00  0.0000000000000D+00  0.0000000000000D+00
329  3.2800000000000D+00  0.0000000000000D+00  0.0000000000000D+00
330  3.2900000000000D+00  0.0000000000000D+00  0.0000000000000D+00
331  3.3000000000000D+00  0.0000000000000D+00  0.0000000000000D+00
332  3.3100000000000D+00  0.0000000000000D+00  0.0000000000000D+00
333  3.3200000000000D+00  0.0000000000000D+00  0.0000000000000D+00
334  3.3300000000000D+00  0.0000000000000D+00  0.0000000000000D+00
335  3.3400000000000D+00  0.0000000000000D+00  0.0000000000000D+00
336  3.3500000000000D+00  0.0000000000000D+00  0.0000000000000D+00
337  3.3600000000000D+00  0.0000000000000D+00  0.0000000000000D+00
338  3.3700000000000D+00  0.0000000000000D+00  0.0000000000000D+00
339  3.3800000000000D+00  0.0000000000000D+00  0.0000000000000D+00
340  3.3900000000000D+00  0.0000000000000D+00  0.0000000000000D+00
341  3.4000000000000D+00  0.0000000000000D+00  0.0000000000000D+00
342  3.4100000000000D+00  0.0000000000000D+00  0.0000000000000D+00
343  3.4200000000000D+00  0.0000000000000D+00  0.0000000000000D+00
344  3.4300000000000D+00  0.0000000000000D+00  0.0000000000000D+00
345  3.4400000000000D+00  0.0000000000000D+00  0.0000000000000D+00
346  3.4500000000000D+00  0.0000000000000D+00  0.0000000000000D+00
347  3.4600000000000D+00  0.0000000000000D+00  0.0000000000000D+00
348  3.4700000000000D+00  0.0000000000000D+00  0.0000000000000D+00
349  3.4800000000000D+00  0.0000000000000D+00  0.0000000000000D+00
350  3.4900000000000D+00  0.0000000000000D+00  0.0000000000000D+00
351  3.5000000000000D+00  0.0000000000000D+00  0.0000000000000D+00
352  3.5100000000000D+00  0.0000000000000D+00  0.0000000000000D+00
353  3.5200000000000D+00  0.0000000000000D+00  0.0000000000000D+00
354  3.5300000000000D+00  0.0000000000000D+00  0.0000000000000D+00
355  3.5400000000000D+00  0.0000000000000D+00  0.0000000000000D+00
356  3.5500000000000D+00  0.0000000000000D+00  0.0000000000000D+00
357  3.5600000000000D+00  0.0000000000000D+00  0.0000000000000D+00
358  3.5700000000000D+00  0.0000000000000D+00  0.0000000000000D+00
359  3.5800000000000D+00  0.0000000000000D+00  0.0000000000000D+00
360  3.5900000000000D+00  0.0000000000000D+00  0.0000000000000D+00
361  3.6000000000000D+00  0.0000000000000D+00  0.0000000000000D+00
362  3.6100000000000D+00  0.0000000000000D+00  0.0000000000000D+00
363  3.6200000000000D+00  0.0000000000000D+00  0.0000000000000D+00
364  3.6300000000000D+00  0.0000000000000D+00  0.0000000000000D+00
365  3.6400000000000D+00  0.0000000000000D+00  0.0000000000000D+00
366  3.6500000000000D+00  0.0000000000000D+00  0.0000000000000D+00
367  3.6600000000000D+00  0.0000000000000D+00  0.0000000000000D+00
368  3.6700000000000D+00  0.0000000000000D+00  0.0000000000000D+00
369  3.6800000000000D+00  0.0000000000000D+00  0.0000000000000D+00
370  3.6900000000000D+00  0.0000000000000D+00  0.0000000000000D+00
371  3.7000000000000D+00  0.0000000000000D+00  0.0000000000000D+00
372  3.7100000000000D+00  0.0000000000000D+00  0.0000000000000D+00
373  3.7200000000000D+00  0.0000000000000D+00  0.0000000000000D+00
374  3.7300000000000D+00  0.0000000000000D+00  0.0000000000000D+00
375  3.7400000000000D+00  0.0000000000000D+00  0.0000000000000D+00
376  3.7500000000000D+00  0.0000000000000D+00  0.0000000000000D+00
377  3.7600000000000D+00  0.0000000000000D+00  0.0000000000000D+00
378  3.7700000000000D+00  0.0000000000000D+00  0.0000000000000D+00
379  3.7800000000000D+00  0.0000000000000D+00  0.0000000000000D+00
380  3.7900000000000D+00  0.0000000000000D+00  0.0000000000000D+00
381  3.8000000000000D+00  0.0000000000000D+00  0.0000000000000D+00
382  3.8100000000000D+00  0.0000000000000D+00  0.0000000000000D+00
383  3.8200000000000D+00  0.0000000000000D+00  0.0000000000000D+00
384  3.8300000000000D+00  0.0000000000000D+00  0.0000000000000D+00
385  3.8400000000000D+00  0.0000000000000D+00  0.0000000000000D+00
386  3.8500000000000D+00  0.0000000000000D+00  0.0000000000000D+00
387  3.8600000000000D+00  0.0000000000000D+00  0.0000000000000D+00
388  3.8700000000000D+00  0.0000000000000D+00  0.0000000000000D+00
389  3.8800000000000D+00  0.0000000000000D+00  0.0000000000000D+00
390  3.8900000000000D+00  0.0000000000000D+00  0.0000000000000D+00
391  3.9000000000000D+00  0.0000000000000D+00  0.0000000000000D+00
392  3.9100000000000D+00  0.0000000000000D+00  0.0000000000000D+00
393  3.9200000000000D+00  0.0000000000000D+00  0.0000000000000D+00
394  3.9300000000000D+00  0.0000000000000D+00  0.0000000000000D+00
395  3.9400000000000D+00  0.0000000000000D+00  0.0000000000000D+00
396  3.9500000000000D+00  0.0000000000000D+00  0.0000000000000D+00
397  3.9600000000000D+00  0.0000000000000D+00  0.0000000000000D+00
398  3.9700000000000D+00  0.0000000000000D+00  0.0000000000000D+00
399  3.9800000000000D+00  0.0000000000000D+00  0.0000000000000D+00
400  3.9900000000000D+00  0.0000000000000D+00  0.0000000000000D+00
401  4.0000000000000D+00  0.0000000000000D+00  0.0000000000000D+00
402  4.0100000000000D+00  0.0000000000000D+00  0.0000000000000D+00
403  4.0200000000000D+00  0.0000000000000D+00  0.0000000000000D+00
404  4.0300000000000D+00  0.0000000000000D+00  0.0000000000000D+00
405  4.0400000000000D+00  0.0000000000000D+00  0.0000000000000D+00
406  4.0500000000000D+00  0.0000000000000D+00  0.0000000000000D+00
407  4.0600000000000D+00  0.0000000000000D+00  0.0000000000000D+00
408  4.0700000000000D+00  0.0000000000000D+00  0.0000000000000D+00
409  4.0800000000000D+00  0.0000000000000D+00  0.0000000000000D+00
410  4.0900000000000D+00  0.0000000000000D+00  0.0000000000000D+00
411  4.1000000000000D+00  0.0000000000000D+00  0.0000000000000D+00
412  4.1100000000000D+00  0.0000000000000D+00  0.0000000000000D+00
413  4.1200000000000D+00  0.0000000000000D+00  0.0000000000000D+00
414  4.1300000000000D+00  0.0000000000000D+00  0.0000000000000D+00
415  4.1400000000000D+00  0.0000000000000D+00  0.0000000000000D+00
416  4.1500000000000D+00  0.0000000000000D+00  0.0000000000000D+00
417  4.1600000000000D+00  0.0000000000000D+00  0.0000000000000D+00
418  4.1700000000000D+00  0.0000000000000D+00  0.0000000000000D+00
419  4.1800000000000D+00  0.0000000000000D+00  0.0000000000000D+00
420  4.1900000000000D+00  0.0000000000000D+00  0.0000000000000D+00
421  4.2000000000000D+00  0.0000000000000D+00  0.0000000000000D+00
422  4.2100000000000D+00  0.0000000000000D+00  0.0000000000000D+00
423  4.2200000000000D+00  0.0000000000000D+00  0.0000000000000D+00
424  4.2300000000000D+00  0.0000000000000D+00  0.0000000000000D+00
425  4.2400000000000D+00  0.0000000000000D+00  0.0000000000000D+00
426  4.2500000000000D+00  0.0000000000000D+00  0.0000000000000D+00
427  4.2600000000000D+00  0.0000000000000D+00  0.0000000000000D+00
428  4.2700000000000D+00  0.0000000000000D+00  0.0000000000000D+00
429  4.2800000000000D+00  0.0000000000000D+00  0.0000000000000D+00
430  4.2900000000000D+00  0.0000000000000D+00  0.0000000000000D+00
431  4.3000000000000D+00  0.0000000000000D+00  0.0000000000000D+00
432  4.3100000000000D+00  0.0000000000000D+00  0.0000000000000D+00
433  4.3200000000000D+00  0.0000000000000D+00  0.0000000000000D+00
434  4.3300000000000D+00  0.0000000000000D+00  0.0000000000000D+00
435  4.3400000000000D+00  0.0000000000000D+00  0.0000000000000D+00
436  4.3500000000000D+00  0.0000000000000D+00  0.0000000000000D+00
437  4.3600000000000D+00  0.0000000000000D+00  0.0000000000000D+00
438  4.3700000000000D+00  0.0000000000000D+00  0.0000000000000D+00
439  4.3800000000000D+00  0.0000000000000D+00  0.0000000000000D+00
440  4.3900000000000D+00  0.0000000000000D+00  0.0000000000000D+00
441  4.4000000000000D+00  0.0000000000000D+00  0.0000000000000D+00
442  4.4100000000000D+00  0.0000000000000D+00  0.0000000000000D+00
443  4.4200000000000D+00  0.0000000000000D+00  0.0000000000000D+00
444  4.4300000000000D+00  0.0000000000000D+00  0.0000000000000D+00