Pt    ONCVPSP  r_core=  2.40  2.61  2.32
78.0000     10.0000      140906    zatom,zion,pspd
8    11     2     4   601     0    pspcod,pspxc,lmax,lloc,mmax,r2well
6.00000000  1.15000000  0.00000000    rchrg fchrg qchrg
2     2     2     0     0    nproj
0                 extension_switch
0                        -3.0538909883136D+01  1.3766970535028D+00
1  0.0000000000000D+00 -0.0000000000000D+00 -0.0000000000000D+00
2  1.0000000000000D-02 -2.3182218128006D-02 -2.4979452608246D-02
3  2.0000000000000D-02 -4.6264993946656D-02 -4.9897489798208D-02
4  3.0000000000000D-02 -6.9149175621594D-02 -7.4692885780507D-02
5  4.0000000000000D-02 -9.1736191458413D-02 -9.9304793462833D-02
6  5.0000000000000D-02 -1.1392833794963D-01 -1.2367293239817D-01
7  6.0000000000000D-02 -1.3562906540008D-01 -1.4773777505695D-01
8  7.0000000000000D-02 -1.5674326033375D-01 -1.7144073087193D-01
9  8.0000000000000D-02 -1.7717752389343D-01 -1.9472432751032D-01
10  9.0000000000000D-02 -1.9684044545454D-01 -2.1753238883534D-01
11  1.0000000000000D-01 -2.1564287069098D-01 -2.3981020903061D-01
12  1.1000000000000D-01 -2.3349816333795D-01 -2.6150472236676D-01
13  1.2000000000000D-01 -2.5032245992382D-01 -2.8256466810832D-01
14  1.3000000000000D-01 -2.6603491674935D-01 -3.0294075006423D-01
15  1.4000000000000D-01 -2.8055794843501D-01 -3.2258579031465D-01
16  1.5000000000000D-01 -2.9381745734151D-01 -3.4145487663792D-01
17  1.6000000000000D-01 -3.0574305325058D-01 -3.5950550321633D-01
18  1.7000000000000D-01 -3.1626826262964D-01 -3.7669770416086D-01
19  1.8000000000000D-01 -3.2533072694711D-01 -3.9299417948884D-01
20  1.9000000000000D-01 -3.3287238953904D-01 -4.0836041321174D-01
21  2.0000000000000D-01 -3.3883967016048D-01 -4.2276478296009D-01
22  2.1000000000000D-01 -3.4318362732857D-01 -4.3617866119367D-01
23  2.2000000000000D-01 -3.4586010727567D-01 -4.4857650722971D-01
24  2.3000000000000D-01 -3.4682987974658D-01 -4.5993595022214D-01
25  2.4000000000000D-01 -3.4605875965495D-01 -4.7023786245854D-01
26  2.5000000000000D-01 -3.4351771483682D-01 -4.7946642311260D-01
27  2.6000000000000D-01 -3.3918295903129D-01 -4.8760917189988D-01
28  2.7000000000000D-01 -3.3303603033562D-01 -4.9465705278326D-01
29  2.8000000000000D-01 -3.2506385415908D-01 -5.0060444713105D-01
30  2.9000000000000D-01 -3.1525879144809D-01 -5.0544919679381D-01
31  3.0000000000000D-01 -3.0361867133354D-01 -5.0919261658628D-01
32  3.1000000000000D-01 -2.9014680827562D-01 -5.1183949622860D-01
33  3.2000000000000D-01 -2.7485200351345D-01 -5.1339809165829D-01
34  3.3000000000000D-01 -2.5774853107697D-01 -5.1388010589644D-01
35  3.4000000000000D-01 -2.3885610885341D-01 -5.1330065959195D-01
36  3.5000000000000D-01 -2.1819985242529D-01 -5.1167825050155D-01
37  3.6000000000000D-01 -1.9581021582711D-01 -5.0903470327441D-01
38  3.7000000000000D-01 -1.7172291506998D-01 -5.0539510863653D-01
39  3.8000000000000D-01 -1.4597883804098D-01 -5.0078775281895D-01
40  3.9000000000000D-01 -1.1862393839253D-01 -4.9524403629147D-01
41  4.0000000000000D-01 -8.9709116006910D-02 -4.8879838397880D-01
42  4.1000000000000D-01 -5.9290082725933D-02 -4.8148814536031D-01
43  4.2000000000000D-01 -2.7427214286587D-02 -4.7335348553995D-01
44  4.3000000000000D-01  5.8146111862940D-03 -4.6443726747202D-01
45  4.4000000000000D-01  4.0366187697599D-02 -4.5478492566505D-01
46  4.5000000000000D-01  7.6154168449888D-02 -4.4444433170638D-01
47  4.6000000000000D-01  1.1310126494377D-01 -4.3346565199283D-01
48  4.7000000000000D-01  1.5112645748213D-01 -4.2190119813156D-01
49  4.8000000000000D-01  1.9014521383368D-01 -4.0980527238040D-01
50  4.9000000000000D-01  2.3006972217420D-01 -3.9723400359062D-01
51  5.0000000000000D-01  2.7080914077971D-01 -3.8424517206160D-01
52  5.1000000000000D-01  3.1226983730894D-01 -3.7089804293855D-01
53  5.2000000000000D-01  3.5435563313233D-01 -3.5725319655779D-01
54  5.3000000000000D-01  3.9696811796684D-01 -3.4337230949691D-01
55  5.4000000000000D-01  4.4000686358006D-01 -3.2931800876321D-01
56  5.5000000000000D-01  4.8336973827341D-01 -3.1515365466537D-01
57  5.6000000000000D-01  5.2695318827082D-01 -3.0094314849978D-01
58  5.7000000000000D-01  5.7065249845303D-01 -2.8675075525720D-01
59  5.8000000000000D-01  6.1436212923812D-01 -2.7264087392495D-01
60  5.9000000000000D-01  6.5797596474646D-01 -2.5867787061856D-01
61  6.0000000000000D-01  7.0138763097783D-01 -2.4492586370610D-01
62  6.1000000000000D-01  7.4449082535204D-01 -2.3144850208993D-01
63  6.2000000000000D-01  7.8717949017758D-01 -2.1830885200912D-01
64  6.3000000000000D-01  8.2934831273338D-01 -2.0556905971210D-01
65  6.4000000000000D-01  8.7089284580392D-01 -1.9329027631288D-01
66  6.5000000000000D-01  9.1170980477677D-01 -1.8153246144080D-01
67  6.6000000000000D-01  9.5169752479256D-01 -1.7035407959637D-01
68  6.7000000000000D-01  9.9075607506456D-01 -1.5981203082030D-01
69  6.8000000000000D-01  1.0287875612655D+00 -1.4996145377933D-01
70  6.9000000000000D-01  1.0656964524722D+00 -1.4085551379522D-01
71  7.0000000000000D-01  1.1013898766306D+00 -1.3254521359239D-01
72  7.1000000000000D-01  1.1357777949781D+00 -1.2507928596479D-01
73  7.2000000000000D-01  1.1687732873476D+00 -1.1850401302812D-01
74  7.3000000000000D-01  1.2002927777694D+00 -1.1286308641649D-01
75  7.4000000000000D-01  1.2302562904143D+00 -1.0819744857820D-01
76  7.5000000000000D-01  1.2585877244742D+00 -1.0454512336500D-01
77  7.6000000000000D-01  1.2852149735498D+00 -1.0194114968051D-01
78  7.7000000000000D-01  1.3100701608840D+00 -1.0041744013226D-01
79  7.8000000000000D-01  1.3330898273837D+00 -1.0000267200926D-01
80  7.9000000000000D-01  1.3542151066721D+00 -1.0072218799424D-01
81  8.0000000000000D-01  1.3733918866730D+00 -1.0259790692740D-01
82  8.1000000000000D-01  1.3905709572698D+00 -1.0564824490610D-01
83  8.2000000000000D-01  1.4057081436255D+00 -1.0988804697380D-01
84  8.3000000000000D-01  1.4187644247924D+00 -1.1532852962041D-01
85  8.4000000000000D-01  1.4297060372791D+00 -1.2197723428599D-01
86  8.5000000000000D-01  1.4385045632826D+00 -1.2983799203144D-01
87  8.6000000000000D-01  1.4451370033301D+00 -1.3891089950990D-01
88  8.7000000000000D-01  1.4495858331162D+00 -1.4919230634451D-01
89  8.8000000000000D-01  1.4518390443561D+00 -1.6067481398835D-01
90  8.9000000000000D-01  1.4518901695178D+00 -1.7334728611150D-01
91  9.0000000000000D-01  1.4497382903412D+00 -1.8719487052679D-01
92  9.1000000000000D-01  1.4453880300950D+00 -2.0219903262892D-01
93  9.2000000000000D-01  1.4388495295820D+00 -2.1833760027980D-01
94  9.3000000000000D-01  1.4301384069632D+00 -2.3558482002513D-01
95  9.4000000000000D-01  1.4192757015424D+00 -2.5391142447231D-01
96  9.5000000000000D-01  1.4062878017419D+00 -2.7328471059566D-01
97  9.6000000000000D-01  1.3912063575943D+00 -2.9366862866174D-01
98  9.7000000000000D-01  1.3740681313261D+00 -3.1502389856114D-01
99  9.8000000000000D-01  1.3549150312924D+00 -3.3730805682336D-01
100  9.9000000000000D-01  1.3337938337151D+00 -3.6047564197485D-01
101  1.0000000000000D+00  1.3107560721843D+00 -3.8447830596576D-01
102  1.0100000000000D+00  1.2858578828305D+00 -4.0926494986496D-01
103  1.0200000000000D+00  1.2591598317098D+00 -4.3478186976607D-01
104  1.0300000000000D+00  1.2307267281972D+00 -4.6097289571395D-01
105  1.0400000000000D+00  1.2006274646899D+00 -4.8777955753907D-01
106  1.0500000000000D+00  1.1689347625927D+00 -5.1514129863399D-01
107  1.0600000000000D+00  1.1357249463583D+00 -5.4299561544330D-01
108  1.0700000000000D+00  1.1010777296450D+00 -5.7127824433789D-01
109  1.0800000000000D+00  1.0650760374692D+00 -5.9992328018815D-01
110  1.0900000000000D+00  1.0278056969118D+00 -6.2886346757267D-01
111  1.1000000000000D+00  9.8935509190231D-01 -6.5803046646188D-01
112  1.1100000000000D+00  9.4981502731009D-01 -6.8735490841400D-01
113  1.1200000000000D+00  9.0927850800567D-01 -7.1676657214242D-01
114  1.1300000000000D+00  8.6784051250110D-01 -7.4619456242803D-01
115  1.1400000000000D+00  8.2559722113451D-01 -7.7556797240810D-01
116  1.1500000000000D+00  7.8264625715129D-01 -8.0481558711678D-01
117  1.1600000000000D+00  7.3908649482502D-01 -8.3386603668377D-01
118  1.1700000000000D+00  6.9501745634121D-01 -8.6264830103273D-01
119  1.1800000000000D+00  6.5053867659972D-01 -8.9109219809209D-01
120  1.1900000000000D+00  6.0575010399140D-01 -9.1912799543145D-01
121  1.2000000000000D+00  5.6075229927694D-01 -9.4668623844728D-01
122  1.2100000000000D+00  5.1564412044673D-01 -9.7369964358976D-01
123  1.2200000000000D+00  4.7052418892855D-01 -1.0001018220670D+00
124  1.2300000000000D+00  4.2549095694633D-01 -1.0258272280529D+00
125  1.2400000000000D+00  3.8064071552361D-01 -1.0508127448393D+00
126  1.2500000000000D+00  3.3606806910580D-01 -1.0749972431502D+00
127  1.2600000000000D+00  2.9186702639212D-01 -1.0983207083666D+00
128  1.2700000000000D+00  2.4812874479389D-01 -1.1207260040344D+00
129  1.2800000000000D+00  2.0494156249530D-01 -1.1421587859527D+00
130  1.2900000000000D+00  1.6239297972196D-01 -1.1625659610584D+00
131  1.3000000000000D+00  1.2056645550667D-01 -1.1818981405723D+00
132  1.3100000000000D+00  7.9542128583235D-02 -1.2001090254099D+00
133  1.3200000000000D+00  3.9399229419415D-02 -1.2171535856876D+00
134  1.3300000000000D+00  2.1103786276335D-04 -1.2329918333010D+00
135  1.3400000000000D+00 -3.7951883765090D-02 -1.2475863394134D+00
136  1.3500000000000D+00 -7.5020530640039D-02 -1.2609014038305D+00
137  1.3600000000000D+00 -1.1093357816481D-01 -1.2729075137681D+00
138  1.3700000000000D+00 -1.4563064168825D-01 -1.2835763677190D+00
139  1.3800000000000D+00 -1.7905620008762D-01 -1.2928837515796D+00
140  1.3900000000000D+00 -2.1116066685315D-01 -1.3008102274857D+00
141  1.4000000000000D+00 -2.4189501955041D-01 -1.3073373093602D+00
142  1.4100000000000D+00 -2.7121908199513D-01 -1.3124533066033D+00
143  1.4200000000000D+00 -2.9909422800814D-01 -1.3161481187607D+00
144  1.4300000000000D+00 -3.2548673644843D-01 -1.3184156204806D+00
145  1.4400000000000D+00 -3.5036962638050D-01 -1.3192548232219D+00
146  1.4500000000000D+00 -3.7371603871687D-01 -1.3186653841157D+00
147  1.4600000000000D+00 -3.9550937836871D-01 -1.3166544115893D+00
148  1.4700000000000D+00 -4.1573299624613D-01 -1.3132294919186D+00
149  1.4800000000000D+00 -4.3437748818760D-01 -1.3084035601439D+00
150  1.4900000000000D+00 -4.5143734814505D-01 -1.3021925808156D+00
151  1.5000000000000D+00 -4.6691037801976D-01 -1.2946152425282D+00
152  1.5100000000000D+00 -4.8080173820228D-01 -1.2856953650418D+00
153  1.5200000000000D+00 -4.9311657496027D-01 -1.2754573872523D+00
154  1.5300000000000D+00 -5.0386951733068D-01 -1.2639320227786D+00
155  1.5400000000000D+00 -5.1307450386605D-01 -1.2511501818109D+00
156  1.5500000000000D+00 -5.2075347703994D-01 -1.2371479899336D+00
157  1.5600000000000D+00 -5.2692941101444D-01 -1.2219627379914D+00
158  1.5700000000000D+00 -5.3163098386086D-01 -1.2056354750105D+00
159  1.5800000000000D+00 -5.3488947611642D-01 -1.1882091699843D+00
160  1.5900000000000D+00 -5.3673999927466D-01 -1.1697294577388D+00
161  1.6000000000000D+00 -5.3722118149979D-01 -1.1502441450831D+00
162  1.6100000000000D+00 -5.3637420623464D-01 -1.1298030612726D+00
163  1.6200000000000D+00 -5.3424401724544D-01 -1.1084579738742D+00
164  1.6300000000000D+00 -5.3087741847841D-01 -1.0862624419810D+00
165  1.6400000000000D+00 -5.2632460959941D-01 -1.0632713128061D+00
166  1.6500000000000D+00 -5.2063745828347D-01 -1.0395413289174D+00
167  1.6600000000000D+00 -5.1387036700913D-01 -1.0151295568078D+00
168  1.6700000000000D+00 -5.0607959990476D-01 -9.9009529261329D-01
169  1.6800000000000D+00 -4.9732274360137D-01 -9.6449700320207D-01
170  1.6900000000000D+00 -4.8765968086087D-01 -9.3839582598337D-01
171  1.7000000000000D+00 -4.7715022381997D-01 -9.1185087050789D-01
172  1.7100000000000D+00 -4.6585698659261D-01 -8.8492432205999D-01
173  1.7200000000000D+00 -4.5384113429226D-01 -8.5767525687991D-01
174  1.7300000000000D+00 -4.4116701579852D-01 -8.3016603396959D-01
175  1.7400000000000D+00 -4.2789638982774D-01 -8.0245512292041D-01
176  1.7500000000000D+00 -4.1409423395772D-01 -7.7460410204825D-01
177  1.7600000000000D+00 -3.9982227980694D-01 -7.4667038244341D-01
178  1.7700000000000D+00 -3.8514492118227D-01 -7.1871373125509D-01
179  1.7800000000000D+00 -3.7012339912740D-01 -6.9079018250616D-01
180  1.7900000000000D+00 -3.5482021759460D-01 -6.6295659908362D-01
181  1.8000000000000D+00 -3.3929582434775D-01 -6.3526745065091D-01
182  1.8100000000000D+00 -3.2360946487838D-01 -6.0777556997197D-01
183  1.8200000000000D+00 -3.0782063070104D-01 -5.8053378281112D-01
184  1.8300000000000D+00 -2.9198393647808D-01 -5.5358978675360D-01
185  1.8400000000000D+00 -2.7615783920304D-01 -5.2699473970284D-01
186  1.8500000000000D+00 -2.6039104109539D-01 -5.0079020294672D-01
187  1.8600000000000D+00 -2.4474087510421D-01 -4.7502561269733D-01
188  1.8700000000000D+00 -2.2925028194684D-01 -4.4973671669559D-01
189  1.8800000000000D+00 -2.1397160937292D-01 -4.2496771211371D-01
190  1.8900000000000D+00 -1.9894530516338D-01 -4.0075166533009D-01
191  1.9000000000000D+00 -1.8421604372043D-01 -3.7712522155711D-01
192  1.9100000000000D+00 -1.6982263996884D-01 -3.5411954555364D-01
193  1.9200000000000D+00 -1.5580068690998D-01 -3.3176265138506D-01
194  1.9300000000000D+00 -1.4218780419976D-01 -3.1008416736261D-01
195  1.9400000000000D+00 -1.2900982302947D-01 -2.8910305871098D-01
196  1.9500000000000D+00 -1.1630268733950D-01 -2.6884696265798D-01
197  1.9600000000000D+00 -1.0408482721502D-01 -2.4932800822278D-01
198  1.9700000000000D+00 -9.2383777634648D-02 -2.3056601376876D-01
199  1.9800000000000D+00 -8.1217112338030D-02 -2.1257201105066D-01
200  1.9900000000000D+00 -7.0601145941593D-02 -1.9535571487570D-01
201  2.0000000000000D+00 -6.0553150931007D-02 -1.7892747308964D-01
202  2.0100000000000D+00 -5.1078761008633D-02 -1.6328754197265D-01
203  2.0200000000000D+00 -4.2192794134619D-02 -1.4844370606223D-01
204  2.0300000000000D+00 -3.3894807167253D-02 -1.3439077488291D-01
205  2.0400000000000D+00 -2.6190080957594D-02 -1.2112809866932D-01
206  2.0500000000000D+00 -1.9078697153956D-02 -1.0865054935221D-01
207  2.0600000000000D+00 -1.2554692868006D-02 -9.6947812343218D-02
208  2.0700000000000D+00 -6.6183039570538D-03 -8.6014401646488D-02
209  2.0800000000000D+00 -1.2559081166081D-03 -7.5833449406291D-02
210  2.0900000000000D+00  3.5395540239647D-03 -6.6393105987311D-02
211  2.1000000000000D+00  7.7813821415644D-03 -5.7676405136806D-02
212  2.1100000000000D+00  1.1486265075643D-02 -4.9663490808721D-02
213  2.1200000000000D+00  1.4667136926654D-02 -4.2337160314901D-02
214  2.1300000000000D+00  1.7346865156918D-02 -3.5672487261559D-02
215  2.1400000000000D+00  1.9544111124584D-02 -2.9647401146193D-02
216  2.1500000000000D+00  2.1281434302035D-02 -2.4236823434236D-02
217  2.1600000000000D+00  2.2584360728644D-02 -1.9413323960240D-02
218  2.1700000000000D+00  2.3475871174932D-02 -1.5150833379230D-02
219  2.1800000000000D+00  2.3984898809522D-02 -1.1419344507601D-02
220  2.1900000000000D+00  2.4138905534740D-02 -8.1893122598925D-03
221  2.2000000000000D+00  2.3966508838263D-02 -5.4303335462617D-03
222  2.2100000000000D+00  2.3498364080123D-02 -3.1108482186249D-03
223  2.2200000000000D+00  2.2765088880475D-02 -1.1984058217085D-03
224  2.2300000000000D+00  2.1798037598165D-02  3.3908845141094D-04
225  2.2400000000000D+00  2.0629304540124D-02  1.5346157510433D-03
226  2.2500000000000D+00  1.9292071570804D-02  2.4227027044804D-03
227  2.2600000000000D+00  1.7817895311843D-02  3.0350902456514D-03
228  2.2700000000000D+00  1.6240951436792D-02  3.4068864345971D-03
229  2.2800000000000D+00  1.4594188274019D-02  3.5716129754243D-03
230  2.2900000000000D+00  1.2907794477938D-02  3.5593326386515D-03
231  2.3000000000000D+00  1.1217355791193D-02  3.4063622289314D-03
232  2.3100000000000D+00  9.5511878955258D-03  3.1406612982781D-03
233  2.3200000000000D+00  7.9373569021704D-03  2.7898619192946D-03
234  2.3300000000000D+00  6.4109146888846D-03  2.3893038391360D-03
235  2.3400000000000D+00  4.9930510771250D-03  1.9591081047938D-03
236  2.3500000000000D+00  3.7108538213017D-03  1.5258121880170D-03
237  2.3600000000000D+00  2.5939905083123D-03  1.1187110825306D-03
238  2.3700000000000D+00  1.6591851187250D-03  7.5325759272672D-04
239  2.3800000000000D+00  9.5709572715402D-04  4.6677723051347D-04
240  2.3900000000000D+00  5.1052111312522D-04  2.8102105502067D-04
241  2.4000000000000D+00  2.3147473606748D-04  1.5533079807550D-04
242  2.4100000000000D+00  7.4144247935871D-05  7.3824421408970D-05
243  2.4200000000000D+00  3.2338819430974D-06  2.5327699529148D-05
244  2.4300000000000D+00 -6.0803442350500D-06  3.3544825738742D-06
245  2.4400000000000D+00 -7.4067828122832D-06 -5.7577364141500D-06
246  2.4500000000000D+00 -8.9127040214441D-06 -6.9283792698373D-06
247  2.4600000000000D+00 -2.5692101575447D-06 -1.9972011134398D-06
248  2.4700000000000D+00  0.0000000000000D+00  0.0000000000000D+00
249  2.4800000000000D+00  0.0000000000000D+00  0.0000000000000D+00
250  2.4900000000000D+00  0.0000000000000D+00  0.0000000000000D+00
251  2.5000000000000D+00  0.0000000000000D+00  0.0000000000000D+00
252  2.5100000000000D+00  0.0000000000000D+00  0.0000000000000D+00
253  2.5200000000000D+00  0.0000000000000D+00  0.0000000000000D+00
254  2.5300000000000D+00  0.0000000000000D+00  0.0000000000000D+00
255  2.5400000000000D+00  0.0000000000000D+00  0.0000000000000D+00
256  2.5500000000000D+00  0.0000000000000D+00  0.0000000000000D+00
257  2.5600000000000D+00  0.0000000000000D+00  0.0000000000000D+00
258  2.5700000000000D+00  0.0000000000000D+00  0.0000000000000D+00
259  2.5800000000000D+00  0.0000000000000D+00  0.0000000000000D+00
260  2.5900000000000D+00  0.0000000000000D+00  0.0000000000000D+00
261  2.6000000000000D+00  0.0000000000000D+00  0.0000000000000D+00
262  2.6100000000000D+00  0.0000000000000D+00  0.0000000000000D+00
263  2.6200000000000D+00  0.0000000000000D+00  0.0000000000000D+00
264  2.6300000000000D+00  0.0000000000000D+00  0.0000000000000D+00
265  2.6400000000000D+00  0.0000000000000D+00  0.0000000000000D+00
266  2.6500000000000D+00  0.0000000000000D+00  0.0000000000000D+00
267  2.6600000000000D+00  0.0000000000000D+00  0.0000000000000D+00
268  2.6700000000000D+00  0.0000000000000D+00  0.0000000000000D+00
269  2.6800000000000D+00  0.0000000000000D+00  0.0000000000000D+00
270  2.6900000000000D+00  0.0000000000000D+00  0.0000000000000D+00
271  2.7000000000000D+00  0.0000000000000D+00  0.0000000000000D+00
272  2.7100000000000D+00  0.0000000000000D+00  0.0000000000000D+00
273  2.7200000000000D+00  0.0000000000000D+00  0.0000000000000D+00
274  2.7300000000000D+00  0.0000000000000D+00  0.0000000000000D+00
275  2.7400000000000D+00  0.0000000000000D+00  0.0000000000000D+00
276  2.7500000000000D+00  0.0000000000000D+00  0.0000000000000D+00
277  2.7600000000000D+00  0.0000000000000D+00  0.0000000000000D+00
278  2.7700000000000D+00  0.0000000000000D+00  0.0000000000000D+00
279  2.7800000000000D+00  0.0000000000000D+00  0.0000000000000D+00
280  2.7900000000000D+00  0.0000000000000D+00  0.0000000000000D+00
281  2.8000000000000D+00  0.0000000000000D+00  0.0000000000000D+00
282  2.8100000000000D+00  0.0000000000000D+00  0.0000000000000D+00
283  2.8200000000000D+00  0.0000000000000D+00  0.0000000000000D+00
284  2.8300000000000D+00  0.0000000000000D+00  0.0000000000000D+00
285  2.8400000000000D+00  0.0000000000000D+00  0.0000000000000D+00
286  2.8500000000000D+00  0.0000000000000D+00  0.0000000000000D+00
287  2.8600000000000D+00  0.0000000000000D+00  0.0000000000000D+00
288  2.8700000000000D+00  0.0000000000000D+00  0.0000000000000D+00
289  2.8800000000000D+00  0.0000000000000D+00  0.0000000000000D+00
290  2.8900000000000D+00  0.0000000000000D+00  0.0000000000000D+00
291  2.9000000000000D+00  0.0000000000000D+00  0.0000000000000D+00
292  2.9100000000000D+00  0.0000000000000D+00  0.0000000000000D+00
293  2.9200000000000D+00  0.0000000000000D+00  0.0000000000000D+00
294  2.9300000000000D+00  0.0000000000000D+00  0.0000000000000D+00
295  2.9400000000000D+00  0.0000000000000D+00  0.0000000000000D+00
296  2.9500000000000D+00  0.0000000000000D+00  0.0000000000000D+00
297  2.9600000000000D+00  0.0000000000000D+00  0.0000000000000D+00
298  2.9700000000000D+00  0.0000000000000D+00  0.0000000000000D+00
299  2.9800000000000D+00  0.0000000000000D+00  0.0000000000000D+00
300  2.9900000000000D+00  0.0000000000000D+00  0.0000000000000D+00
301  3.0000000000000D+00  0.0000000000000D+00  0.0000000000000D+00
302  3.0100000000000D+00  0.0000000000000D+00  0.0000000000000D+00
303  3.0200000000000D+00  0.0000000000000D+00  0.0000000000000D+00
304  3.0300000000000D+00  0.0000000000000D+00  0.0000000000000D+00
305  3.0400000000000D+00  0.0000000000000D+00  0.0000000000000D+00
306  3.0500000000000D+00  0.0000000000000D+00  0.0000000000000D+00
307  3.0600000000000D+00  0.0000000000000D+00  0.0000000000000D+00
308  3.0700000000000D+00  0.0000000000000D+00  0.0000000000000D+00
309  3.0800000000000D+00  0.0000000000000D+00  0.0000000000000D+00
310  3.0900000000000D+00  0.0000000000000D+00  0.0000000000000D+00
311  3.1000000000000D+00  0.0000000000000D+00  0.0000000000000D+00
312  3.1100000000000D+00  0.0000000000000D+00  0.0000000000000D+00
313  3.1200000000000D+00  0.0000000000000D+00  0.0000000000000D+00
314  3.1300000000000D+00  0.0000000000000D+00  0.0000000000000D+00
315  3.1400000000000D+00  0.0000000000000D+00  0.0000000000000D+00
316  3.1500000000000D+00  0.0000000000000D+00  0.0000000000000D+00
317  3.1600000000000D+00  0.0000000000000D+00  0.0000000000000D+00
318  3.1700000000000D+00  0.0000000000000D+00  0.0000000000000D+00
319  3.1800000000000D+00  0.0000000000000D+00  0.0000000000000D+00
320  3.1900000000000D+00  0.0000000000000D+00  0.0000000000000D+00
321  3.2000000000000D+00  0.0000000000000D+00  0.0000000000000D+00
322  3.2100000000000D+00  0.0000000000000D+00  0.0000000000000D+00
323  3.2200000000000D+00  0.0000000000000D+00  0.0000000000000D+00
324  3.2300000000000D+00  0.0000000000000D+00  0.0000000000000D+00
325  3.2400000000000D+00  0.0000000000000D+00  0.0000000000000D+00
326  3.2500000000000D+00  0.0000000000000D+00  0.0000000000000D+00
327  3.2600000000000D+00  0.0000000000000D+00  0.0000000000000D+00
328  3.2700000000000D+00  0.0000000000000D+00  0.0000000000000D+00
329  3.2800000000000D+00  0.0000000000000D+00  0.0000000000000D+00
330  3.2900000000000D+00  0.0000000000000D+00  0.0000000000000D+00
331  3.3000000000000D+00  0.0000000000000D+00  0.0000000000000D+00
332  3.3100000000000D+00  0.0000000000000D+00  0.0000000000000D+00
333  3.3200000000000D+00  0.0000000000000D+00  0.0000000000000D+00
334  3.3300000000000D+00  0.0000000000000D+00  0.0000000000000D+00
335  3.3400000000000D+00  0.0000000000000D+00  0.0000000000000D+00
336  3.3500000000000D+00  0.0000000000000D+00  0.0000000000000D+00
337  3.3600000000000D+00  0.0000000000000D+00  0.0000000000000D+00
338  3.3700000000000D+00  0.0000000000000D+00  0.0000000000000D+00
339  3.3800000000000D+00  0.0000000000000D+00  0.0000000000000D+00
340  3.3900000000000D+00  0.0000000000000D+00  0.0000000000000D+00
341  3.4000000000000D+00  0.0000000000000D+00  0.0000000000000D+00
342  3.4100000000000D+00  0.0000000000000D+00  0.0000000000000D+00
343  3.4200000000000D+00  0.0000000000000D+00  0.0000000000000D+00
344  3.4300000000000D+00  0.0000000000000D+00  0.0000000000000D+00
345  3.4400000000000D+00  0.0000000000000D+00  0.0000000000000D+00
346  3.4500000000000D+00  0.0000000000000D+00  0.0000000000000D+00
347  3.4600000000000D+00  0.0000000000000D+00  0.0000000000000D+00
348  3.4700000000000D+00  0.0000000000000D+00  0.0000000000000D+00
349  3.4800000000000D+00  0.0000000000000D+00  0.0000000000000D+00
350  3.4900000000000D+00  0.0000000000000D+00  0.0000000000000D+00
351  3.5000000000000D+00  0.0000000000000D+00  0.0000000000000D+00
352  3.5100000000000D+00  0.0000000000000D+00  0.0000000000000D+00
353  3.5200000000000D+00  0.0000000000000D+00  0.0000000000000D+00
354  3.5300000000000D+00  0.0000000000000D+00  0.0000000000000D+00
355  3.5400000000000D+00  0.0000000000000D+00  0.0000000000000D+00
356  3.5500000000000D+00  0.0000000000000D+00  0.0000000000000D+00
357  3.5600000000000D+00  0.0000000000000D+00  0.0000000000000D+00
358  3.5700000000000D+00  0.0000000000000D+00  0.0000000000000D+00
359  3.5800000000000D+00  0.0000000000000D+00  0.0000000000000D+00
360  3.5900000000000D+00  0.0000000000000D+00  0.0000000000000D+00
361  3.6000000000000D+00  0.0000000000000D+00  0.0000000000000D+00
362  3.6100000000000D+00  0.0000000000000D+00  0.0000000000000D+00
363  3.6200000000000D+00  0.0000000000000D+00  0.0000000000000D+00
364  3.6300000000000D+00  0.0000000000000D+00  0.0000000000000D+00
365  3.6400000000000D+00  0.0000000000000D+00  0.0000000000000D+00
366  3.6500000000000D+00  0.0000000000000D+00  0.0000000000000D+00
367  3.6600000000000D+00  0.0000000000000D+00  0.0000000000000D+00
368  3.6700000000000D+00  0.0000000000000D+00  0.0000000000000D+00
369  3.6800000000000D+00  0.0000000000000D+00  0.0000000000000D+00
370  3.6900000000000D+00  0.0000000000000D+00  0.0000000000000D+00
371  3.7000000000000D+00  0.0000000000000D+00  0.0000000000000D+00
372  3.7100000000000D+00  0.0000000000000D+00  0.0000000000000D+00
373  3.7200000000000D+00  0.0000000000000D+00  0.0000000000000D+00
374  3.7300000000000D+00  0.0000000000000D+00  0.0000000000000D+00
375  3.7400000000000D+00  0.0000000000000D+00  0.0000000000000D+00
376  3.7500000000000D+00  0.0000000000000D+00  0.0000000000000D+00
377  3.7600000000000D+00  0.0000000000000D+00  0.0000000000000D+00
378  3.7700000000000D+00  0.0000000000000D+00  0.0000000000000D+00
379  3.7800000000000D+00  0.0000000000000D+00  0.0000000000000D+00
380  3.7900000000000D+00  0.0000000000000D+00  0.0000000000000D+00
381  3.8000000000000D+00  0.0000000000000D+00  0.0000000000000D+00
382  3.8100000000000D+00  0.0000000000000D+00  0.0000000000000D+00
383  3.8200000000000D+00  0.0000000000000D+00  0.0000000000000D+00
384  3.8300000000000D+00  0.0000000000000D+00  0.0000000000000D+00
385  3.8400000000000D+00  0.0000000000000D+00  0.0000000000000D+00
386  3.8500000000000D+00  0.0000000000000D+00  0.0000000000000D+00
387  3.8600000000000D+00  0.0000000000000D+00  0.0000000000000D+00
388  3.8700000000000D+00  0.0000000000000D+00  0.0000000000000D+00
389  3.8800000000000D+00  0.0000000000000D+00  0.0000000000000D+00
390  3.8900000000000D+00  0.0000000000000D+00  0.0000000000000D+00
391  3.9000000000000D+00  0.0000000000000D+00  0.0000000000000D+00
392  3.9100000000000D+00  0.0000000000000D+00  0.0000000000000D+00
393  3.9200000000000D+00  0.0000000000000D+00  0.0000000000000D+00
394  3.9300000000000D+00  0.0000000000000D+00  0.0000000000000D+00
395  3.9400000000000D+00  0.0000000000000D+00  0.0000000000000D+00
396  3.9500000000000D+00  0.0000000000000D+00  0.0000000000000D+00
397  3.9600000000000D+00  0.0000000000000D+00  0.0000000000000D+00
398  3.9700000000000D+00  0.0000000000000D+00  0.0000000000000D+00
399  3.9800000000000D+00  0.0000000000000D+00  0.0000000000000D+00
400  3.9900000000000D+00  0.0000000000000D+00  0.0000000000000D+00
401  4.0000000000000D+00  0.0000000000000D+00  0.0000000000000D+00
402  4.0100000000000D+00  0.0000000000000D+00  0.0000000000000D+00
403  4.0200000000000D+00  0.0000000000000D+00  0.0000000000000D+00
404  4.0300000000000D+00  0.0000000000000D+00  0.0000000000000D+00
405  4.0400000000000D+00  0.0000000000000D+00  0.0000000000000D+00
406  4.0500000000000D+00  0.0000000000000D+00  0.0000000000000D+00
407  4.0600000000000D+00  0.0000000000000D+00  0.0000000000000D+00
408  4.0700000000000D+00  0.0000000000000D+00  0.0000000000000D+00
409  4.0800000000000D+00  0.0000000000000D+00  0.0000000000000D+00
410  4.0900000000000D+00  0.0000000000000D+00  0.0000000000000D+00
411  4.1000000000000D+00  0.0000000000000D+00  0.0000000000000D+00
412  4.1100000000000D+00  0.0000000000000D+00  0.0000000000000D+00
413  4.1200000000000D+00  0.0000000000000D+00  0.0000000000000D+00
414  4.1300000000000D+00  0.0000000000000D+00  0.0000000000000D+00
415  4.1400000000000D+00  0.0000000000000D+00  0.0000000000000D+00
416  4.1500000000000D+00  0.0000000000000D+00  0.0000000000000D+00
417  4.1600000000000D+00  0.0000000000000D+00  0.0000000000000D+00
418  4.1700000000000D+00  0.0000000000000D+00  0.0000000000000D+00
419  4.1800000000000D+00  0.0000000000000D+00  0.0000000000000D+00
420  4.1900000000000D+00  0.0000000000000D+00  0.0000000000000D+00
421  4.2000000000000D+00  0.0000000000000D+00  0.0000000000000D+00
422  4.2100000000000D+00  0.0000000000000D+00  0.0000000000000D+00
423  4.2200000000000D+00  0.0000000000000D+00  0.0000000000000D+00
424  4.2300000000000D+00  0.0000000000000D+00  0.0000000000000D+00
425  4.2400000000000D+00  0.0000000000000D+00  0.0000000000000D+00
426  4.2500000000000D+00  0.0000000000000D+00  0.0000000000000D+00
427  4.2600000000000D+00  0.0000000000000D+00  0.0000000000000D+00
428  4.2700000000000D+00  0.0000000000000D+00  0.0000000000000D+00
429  4.2800000000000D+00  0.0000000000000D+00  0.0000000000000D+00
430  4.2900000000000D+00  0.0000000000000D+00  0.0000000000000D+00
431  4.3000000000000D+00  0.0000000000000D+00  0.0000000000000D+00
432  4.3100000000000D+00  0.0000000000000D+00  0.0000000000000D+00
433  4.3200000000000D+00  0.0000000000000D+00  0.0000000000000D+00
434  4.3300000000000D+00  0.0000000000000D+00  0.0000000000000D+00
435  4.3400000000000D+00  0.0000000000000D+00  0.0000000000000D+00
436  4.3500000000000D+00  0.0000000000000D+00  0.0000000000000D+00
437  4.3600000000000D+00  0.0000000000000D+00  0.0000000000000D+00
438  4.3700000000000D+00  0.0000000000000D+00  0.0000000000000D+00
439  4.3800000000000D+00  0.0000000000000D+00  0.0000000000000D+00
440  4.3900000000000D+00  0.0000000000000D+00  0.0000000000000D+00
441  4.4000000000000D+00  0.0000000000000D+00  0.0000000000000D+00
442  4.4100000000000D+00  0.0000000000000D+00  0.0000000000000D+00
443  4.4200000000000D+00  0.0000000000000D+00  0.0000000000000D+00
444  4.4300000000000D+00  0.0000000000000D+00  0.0000000000000D+00