Pt    ONCVPSP  r_core=  2.46  2.68  2.27
78.0000     10.0000      140906    zatom,zion,pspd
8    11     2     4   601     0    pspcod,pspxc,lmax,lloc,mmax,r2well
6.00000000  1.20000000  0.00000000    rchrg fchrg qchrg
2     2     2     0     0    nproj
0                 extension_switch
0                         3.9527376605114D+00  4.6391531062555D-01
1  0.0000000000000D+00 -0.0000000000000D+00 -0.0000000000000D+00
2  1.0000000000000D-02 -2.0800732012201D-02 -1.5785999465859D-02
3  2.0000000000000D-02 -4.1580026057056D-02 -3.1552384375371D-02
4  3.0000000000000D-02 -6.2316506442645D-02 -4.7279577799017D-02
5  4.0000000000000D-02 -8.2988921827713D-02 -6.2948077958501D-02
6  5.0000000000000D-02 -1.0357620689710D-01 -7.8538495546522D-02
7  6.0000000000000D-02 -1.2405754343890D-01 -9.4031590740257D-02
8  7.0000000000000D-02 -1.4441242062669D-01 -1.0940830980764D-01
9  8.0000000000000D-02 -1.6462069431236D-01 -1.2464982120656D-01
10  9.0000000000000D-02 -1.8466264513789D-01 -1.3973755107818D-01
11  1.0000000000000D-01 -2.0451903527860D-01 -1.5465321803767D-01
12  1.1000000000000D-01 -2.2417116363266D-01 -1.6937886716640D-01
13  1.2000000000000D-01 -2.4360091927859D-01 -1.8389690311277D-01
14  1.3000000000000D-01 -2.6279083302461D-01 -1.9819012220993D-01
15  1.4000000000000D-01 -2.8172412688394D-01 -2.1224174352327D-01
16  1.5000000000000D-01 -3.0038476130841D-01 -2.2603543873912D-01
17  1.6000000000000D-01 -3.1875748003094D-01 -2.3955536081570D-01
18  1.7000000000000D-01 -3.3682785235616D-01 -2.5278617130963D-01
19  1.8000000000000D-01 -3.5458231277002D-01 -2.6571306630905D-01
20  1.9000000000000D-01 -3.7200819774664D-01 -2.7832180090927D-01
21  2.0000000000000D-01 -3.8909377956028D-01 -2.9059871211811D-01
22  2.1000000000000D-01 -4.0582829710716D-01 -3.0253074020546D-01
23  2.2000000000000D-01 -4.2220198348655D-01 -3.1410544834269D-01
24  2.3000000000000D-01 -4.3820609037467D-01 -3.2531104056285D-01
25  2.4000000000000D-01 -4.5383290898808D-01 -3.3613637791241D-01
26  2.5000000000000D-01 -4.6907578767228D-01 -3.4657099282594D-01
27  2.6000000000000D-01 -4.8392914594218D-01 -3.5660510160933D-01
28  2.7000000000000D-01 -4.9838848501464D-01 -3.6622961506409D-01
29  2.8000000000000D-01 -5.1245039465693D-01 -3.7543614712363D-01
30  2.9000000000000D-01 -5.2611255648481D-01 -3.8421702160390D-01
31  3.0000000000000D-01 -5.3937374356230D-01 -3.9256527695628D-01
32  3.1000000000000D-01 -5.5223381632341D-01 -4.0047466903258D-01
33  3.2000000000000D-01 -5.6469371480623D-01 -4.0793967183615D-01
34  3.3000000000000D-01 -5.7675544726759D-01 -4.1495547629283D-01
35  3.4000000000000D-01 -5.8842207511917D-01 -4.2151798711925D-01
36  3.5000000000000D-01 -5.9969769432294D-01 -4.2762381745057D-01
37  3.6000000000000D-01 -6.1058741301445D-01 -4.3327028184760D-01
38  3.7000000000000D-01 -6.2109732597790D-01 -4.3845538704201D-01
39  3.8000000000000D-01 -6.3123448548140D-01 -4.4317782098077D-01
40  3.9000000000000D-01 -6.4100686848166D-01 -4.4743693982990D-01
41  4.0000000000000D-01 -6.5042334116381D-01 -4.5123275324831D-01
42  4.1000000000000D-01 -6.5949361991495D-01 -4.5456590781360D-01
43  4.2000000000000D-01 -6.6822822933123D-01 -4.5743766870111D-01
44  4.3000000000000D-01 -6.7663845730057D-01 -4.5984989967266D-01
45  4.4000000000000D-01 -6.8473630728995D-01 -4.6180504143822D-01
46  4.5000000000000D-01 -6.9253444797526D-01 -4.6330608845798D-01
47  4.6000000000000D-01 -7.0004616036819D-01 -4.6435656426063D-01
48  4.7000000000000D-01 -7.0728528262450D-01 -4.6496049536824D-01
49  4.8000000000000D-01 -7.1426615344256D-01 -4.6512238424104D-01
50  4.9000000000000D-01 -7.2100355229372D-01 -4.6484718050636D-01
51  5.0000000000000D-01 -7.2751263598598D-01 -4.6414025018217D-01
52  5.1000000000000D-01 -7.3380887896159D-01 -4.6300734625356D-01
53  5.2000000000000D-01 -7.3990801276214D-01 -4.6145457871588D-01
54  5.3000000000000D-01 -7.4582594770229D-01 -4.5948837610299D-01
55  5.4000000000000D-01 -7.5157872222210D-01 -4.5711545953013D-01
56  5.5000000000000D-01 -7.5718242617162D-01 -4.5434280452185D-01
57  5.6000000000000D-01 -7.6265313393963D-01 -4.5117760709295D-01
58  5.7000000000000D-01 -7.6800684333825D-01 -4.4762725251618D-01
59  5.8000000000000D-01 -7.7325939613572D-01 -4.4369927506363D-01
60  5.9000000000000D-01 -7.7842642167240D-01 -4.3940132875785D-01
61  6.0000000000000D-01 -7.8352326378714D-01 -4.3474114991148D-01
62  6.1000000000000D-01 -7.8856490595876D-01 -4.2972651863182D-01
63  6.2000000000000D-01 -7.9356593520290D-01 -4.2436523933948D-01
64  6.3000000000000D-01 -7.9854042782630D-01 -4.1866508260439D-01
65  6.4000000000000D-01 -8.0350192775899D-01 -4.1263377270298D-01
66  6.5000000000000D-01 -8.0846338263799D-01 -4.0627895434819D-01
67  6.6000000000000D-01 -8.1343704408481D-01 -3.9960814129069D-01
68  6.7000000000000D-01 -8.1843444924414D-01 -3.9262870564221D-01
69  6.8000000000000D-01 -8.2346635879575D-01 -3.8534784546607D-01
70  6.9000000000000D-01 -8.2854269093599D-01 -3.7777255026032D-01
71  7.0000000000000D-01 -8.3367246410843D-01 -3.6990957084381D-01
72  7.1000000000000D-01 -8.3886376770110D-01 -3.6176540352186D-01
73  7.2000000000000D-01 -8.4412370894168D-01 -3.5334626224739D-01
74  7.3000000000000D-01 -8.4945837418782D-01 -3.4465805817645D-01
75  7.4000000000000D-01 -8.5487278500032D-01 -3.3570637664415D-01
76  7.5000000000000D-01 -8.6037085214513D-01 -3.2649645316619D-01
77  7.6000000000000D-01 -8.6595536329696D-01 -3.1703316682780D-01
78  7.7000000000000D-01 -8.7162794768457D-01 -3.0732102200960D-01
79  7.8000000000000D-01 -8.7738905214068D-01 -2.9736413609940D-01
80  7.9000000000000D-01 -8.8323792127703D-01 -2.8716622948230D-01
81  8.0000000000000D-01 -8.8917258188726D-01 -2.7673061787534D-01
82  8.1000000000000D-01 -8.9518983166740D-01 -2.6606020706470D-01
83  8.2000000000000D-01 -9.0128523233005D-01 -2.5515749009542D-01
84  8.3000000000000D-01 -9.0745310717588D-01 -2.4402454695569D-01
85  8.4000000000000D-01 -9.1368654317278D-01 -2.3266304678913D-01
86  8.5000000000000D-01 -9.1997739758081D-01 -2.2107425266081D-01
87  8.6000000000000D-01 -9.2631630914830D-01 -2.0925902889442D-01
88  8.7000000000000D-01 -9.3269271389144D-01 -1.9721785098936D-01
89  8.8000000000000D-01 -9.3909486545676D-01 -1.8495081811787D-01
90  8.9000000000000D-01 -9.4550986005121D-01 -1.7245766819258D-01
91  9.0000000000000D-01 -9.5192366590957D-01 -1.5973779548536D-01
92  9.1000000000000D-01 -9.5832115725164D-01 -1.4679027076612D-01
93  9.2000000000000D-01 -9.6468615266218D-01 -1.3361386391852D-01
94  9.3000000000000D-01 -9.7100145780521D-01 -1.2020706897493D-01
95  9.4000000000000D-01 -9.7724891235878D-01 -1.0656813149728D-01
96  9.5000000000000D-01 -9.8340944102806D-01 -9.2695078212597D-02
97  9.6000000000000D-01 -9.8946310846268D-01 -7.8585748792114D-02
98  9.7000000000000D-01 -9.9538917219307D-01 -6.4237825499417D-02
99  9.8000000000000D-01 -1.0011661553826D+00 -4.9648877607308D-02
100  9.9000000000000D-01 -1.0067719094963D+00 -3.4816394921772D-02
101  1.0000000000000D+00 -1.0121836829693D+00 -1.9737827460641D-02
102  1.0100000000000D+00 -1.0173781938380D+00 -4.4106267830845D-03
103  1.0200000000000D+00 -1.0223317045403D+00  1.1167711725359D-02
104  1.0300000000000D+00 -1.0270200810411D+00  2.6999616287919D-02
105  1.0400000000000D+00 -1.0314188975036D+00  4.3087378474148D-02
106  1.0500000000000D+00 -1.0355035454328D+00  5.9433091983292D-02
107  1.0600000000000D+00 -1.0392492720803D+00  7.6038633610524D-02
108  1.0700000000000D+00 -1.0426312803553D+00  9.2905607286876D-02
109  1.0800000000000D+00 -1.0456247692325D+00  1.1003532326564D-01
110  1.0900000000000D+00 -1.0482051024906D+00  1.2742870299010D-01
111  1.1000000000000D+00 -1.0503479282540D+00  1.4508621478540D-01
112  1.1100000000000D+00 -1.0520291699191D+00  1.6300788283758D-01
113  1.1200000000000D+00 -1.0532251089847D+00  1.8119324279248D-01
114  1.1300000000000D+00 -1.0539124688025D+00  1.9964129694560D-01
115  1.1400000000000D+00 -1.0540687605253D+00  2.1835032572309D-01
116  1.1500000000000D+00 -1.0536720708220D+00  2.3731801167629D-01
117  1.1600000000000D+00 -1.0527011344353D+00  2.5654140152953D-01
118  1.1700000000000D+00 -1.0511355893186D+00  2.7601676949655D-01
119  1.1800000000000D+00 -1.0489561943583D+00  2.9573950730870D-01
120  1.1900000000000D+00 -1.0461445975803D+00  3.1570425610396D-01
121  1.2000000000000D+00 -1.0426832458584D+00  3.3590495500149D-01
122  1.2100000000000D+00 -1.0385563104747D+00  3.5633435855690D-01
123  1.2200000000000D+00 -1.0337490088004D+00  3.7698440727690D-01
124  1.2300000000000D+00 -1.0282475812263D+00  3.9784623910815D-01
125  1.2400000000000D+00 -1.0220400354756D+00  4.1890981371083D-01
126  1.2500000000000D+00 -1.0151158914056D+00  4.4016406164725D-01
127  1.2600000000000D+00 -1.0074657683619D+00  4.6159709383431D-01
128  1.2700000000000D+00 -9.9908218722275D-01  4.8319580994481D-01
129  1.2800000000000D+00 -9.8995948227912D-01  5.0494596834826D-01
130  1.2900000000000D+00 -9.8009310693314D-01  5.2683252108332D-01
131  1.3000000000000D+00 -9.6948070671252D-01  5.4883911592230D-01
132  1.3100000000000D+00 -9.5812179593636D-01  5.7094828323735D-01
133  1.3200000000000D+00 -9.4601698521530D-01  5.9314177760436D-01
134  1.3300000000000D+00 -9.3316955154614D-01  6.1539990718080D-01
135  1.3400000000000D+00 -9.1958434478194D-01  6.3770204930064D-01
136  1.3500000000000D+00 -9.0526747832689D-01  6.6002675195463D-01
137  1.3600000000000D+00 -8.9022806429751D-01  6.8235109586439D-01
138  1.3700000000000D+00 -8.7447620746520D-01  7.0465149681113D-01
139  1.3800000000000D+00 -8.5802414387163D-01  7.2690326908780D-01
140  1.3900000000000D+00 -8.4088640959504D-01  7.4908066225723D-01
141  1.4000000000000D+00 -8.2307844798867D-01  7.7115727673384D-01
142  1.4100000000000D+00 -8.0461867510892D-01  7.9310551643670D-01
143  1.4200000000000D+00 -7.8552657198168D-01  8.1489717213518D-01
144  1.4300000000000D+00 -7.6582354918531D-01  8.3650316713006D-01
145  1.4400000000000D+00 -7.4553319368694D-01  8.5789368391632D-01
146  1.4500000000000D+00 -7.2467990143244D-01  8.7903826840179D-01
147  1.4600000000000D+00 -7.0329084782397D-01  8.9990582037357D-01
148  1.4700000000000D+00 -6.8139390155635D-01  9.2046470137232D-01
149  1.4800000000000D+00 -6.5901899824983D-01  9.4068278185145D-01
150  1.4900000000000D+00 -6.3619736568529D-01  9.6052759738736D-01
151  1.5000000000000D+00 -6.1296156262421D-01  9.7996616063861D-01
152  1.5100000000000D+00 -5.8934573765163D-01  9.9896560713893D-01
153  1.5200000000000D+00 -5.6538493555688D-01  1.0174922939349D+00
154  1.5300000000000D+00 -5.4111571824121D-01  1.0355132994013D+00
155  1.5400000000000D+00 -5.1657546540527D-01  1.0529948589875D+00
156  1.5500000000000D+00 -4.9180266314751D-01  1.0699040871838D+00
157  1.5600000000000D+00 -4.6683662648026D-01  1.0862076543309D+00
158  1.5700000000000D+00 -4.4171747060221D-01  1.1018729412904D+00
159  1.5800000000000D+00 -4.1648591912331D-01  1.1168675365162D+00
160  1.5900000000000D+00 -3.9118341296296D-01  1.1311593941636D+00
161  1.6000000000000D+00 -3.6585153438718D-01  1.1447174783332D+00
162  1.6100000000000D+00 -3.4053270705019D-01  1.1575106585976D+00
163  1.6200000000000D+00 -3.1526882380648D-01  1.1695097115733D+00
164  1.6300000000000D+00 -2.9010290379262D-01  1.1806847976301D+00
165  1.6400000000000D+00 -2.6507661793840D-01  1.1910089148972D+00
166  1.6500000000000D+00 -2.4023314893589D-01  1.2004539194324D+00
167  1.6600000000000D+00 -2.1561343995680D-01  1.2089954053776D+00
168  1.6700000000000D+00 -1.9126036225206D-01  1.2166073548588D+00
169  1.6800000000000D+00 -1.6721366257858D-01  1.2232682908112D+00
170  1.6900000000000D+00 -1.4351538447864D-01  1.2289547740188D+00
171  1.7000000000000D+00 -1.2020365798357D-01  1.2336485389391D+00
172  1.7100000000000D+00 -9.7319142381733D-02  1.2373291974909D+00
173  1.7200000000000D+00 -7.4897991160911D-02  1.2399819192890D+00
174  1.7300000000000D+00 -5.2978882869408D-02  1.2415898575964D+00
175  1.7400000000000D+00 -3.1595707281467D-02  1.2421417734517D+00
176  1.7500000000000D+00 -1.0784526966180D-02  1.2416248655383D+00
177  1.7600000000000D+00  9.4232367390173D-03  1.2400315702423D+00
178  1.7700000000000D+00  2.8994806318489D-02  1.2373536411861D+00
179  1.7800000000000D+00  4.7901347361358D-02  1.2335872033768D+00
180  1.7900000000000D+00  6.6114057658512D-02  1.2287290638975D+00
181  1.8000000000000D+00  8.3606728763573D-02  1.2227789910474D+00
182  1.8100000000000D+00  1.0035522023066D-01  1.2157393050412D+00
183  1.8200000000000D+00  1.1633593124451D-01  1.2076133391388D+00
184  1.8300000000000D+00  1.3153002424430D-01  1.1984093058765D+00
185  1.8400000000000D+00  1.4591647153695D-01  1.1881340328423D+00
186  1.8500000000000D+00  1.5948227349319D-01  1.1768018681971D+00
187  1.8600000000000D+00  1.7220898663137D-01  1.1644231251552D+00
188  1.8700000000000D+00  1.8408899572169D-01  1.1510176914035D+00
189  1.8800000000000D+00  1.9510898727949D-01  1.1366013952718D+00
190  1.8900000000000D+00  2.0526427617408D-01  1.1211975020208D+00
191  1.9000000000000D+00  2.1454818278649D-01  1.1048283552189D+00
192  1.9100000000000D+00  2.2295838790421D-01  1.0875201425821D+00
193  1.9200000000000D+00  2.3049535504306D-01  1.0693017893149D+00
194  1.9300000000000D+00  2.3715891342698D-01  1.0502022933141D+00
195  1.9400000000000D+00  2.4295667123324D-01  1.0302567558693D+00
196  1.9500000000000D+00  2.4789097270947D-01  1.0094973359172D+00
197  1.9600000000000D+00  2.5197485072374D-01  9.8796376578678D-01
198  1.9700000000000D+00  2.5521690875906D-01  9.6569368267714D-01
199  1.9800000000000D+00  2.5763177994677D-01  9.4272885942162D-01
200  1.9900000000000D+00  2.5923549375679D-01  9.1911262962074D-01
201  2.0000000000000D+00  2.6004415611335D-01  8.9488895904703D-01
202  2.0100000000000D+00  2.6008039368542D-01  8.7010565882999D-01
203  2.0200000000000D+00  2.5936304857129D-01  8.4480976513632D-01
204  2.0300000000000D+00  2.5791866488374D-01  8.1905173343419D-01
205  2.0400000000000D+00  2.5577193272296D-01  7.9288245596708D-01
206  2.0500000000000D+00  2.5295028779485D-01  7.6635404771318D-01
207  2.0600000000000D+00  2.4948430853543D-01  7.3951999178845D-01
208  2.0700000000000D+00  2.4540294410768D-01  7.1243504732703D-01
209  2.0800000000000D+00  2.4074049237232D-01  6.8515366821886D-01
210  2.0900000000000D+00  2.3552996876229D-01  6.5773259063756D-01
211  2.1000000000000D+00  2.2980656594218D-01  6.3022776973668D-01
212  2.1100000000000D+00  2.2360702978544D-01  6.0269536375100D-01
213  2.1200000000000D+00  2.1696828345909D-01  5.7519458574003D-01
214  2.1300000000000D+00  2.0992880763507D-01  5.4777965598872D-01
215  2.1400000000000D+00  2.0252796149423D-01  5.2050964467864D-01
216  2.1500000000000D+00  1.9480527264042D-01  4.9344058504093D-01
217  2.1600000000000D+00  1.8680061568294D-01  4.6662657797364D-01
218  2.1700000000000D+00  1.7855625749694D-01  4.4012833141154D-01
219  2.1800000000000D+00  1.7011125316587D-01  4.1399502822235D-01
220  2.1900000000000D+00  1.6150768462708D-01  3.8828287785554D-01
221  2.2000000000000D+00  1.5278704312675D-01  3.6304571508881D-01
222  2.2100000000000D+00  1.4398815479872D-01  3.3833011341514D-01
223  2.2200000000000D+00  1.3515470328495D-01  3.1419217213785D-01
224  2.2300000000000D+00  1.2632427681548D-01  2.9067494497285D-01
225  2.2400000000000D+00  1.1753585052011D-01  2.6782340669191D-01
226  2.2500000000000D+00  1.0883217652066D-01  2.4568891905883D-01
227  2.2600000000000D+00  1.0024603762245D-01  2.2430419389347D-01
228  2.2700000000000D+00  9.1816950366984D-02  2.0371270734930D-01
229  2.2800000000000D+00  8.3581454278042D-02  1.8395313484376D-01
230  2.2900000000000D+00  7.5570121878978D-02  1.6505494609233D-01
231  2.3000000000000D+00  6.7821361250619D-02  1.4705757037231D-01
232  2.3100000000000D+00  6.0363898388101D-02  1.2998857171240D-01
233  2.3200000000000D+00  5.3225920568417D-02  1.1387459904276D-01
234  2.3300000000000D+00  4.6443989278393D-02  9.8751740995627D-02
235  2.3400000000000D+00  4.0037838449523D-02  8.4636564709633D-02
236  2.3500000000000D+00  3.4034097004516D-02  7.1553254839851D-02
237  2.3600000000000D+00  2.8462280210065D-02  5.9529001244609D-02
238  2.3700000000000D+00  2.3336538216141D-02  4.8573522271536D-02
239  2.3800000000000D+00  1.8680204853899D-02  3.8706545128904D-02
240  2.3900000000000D+00  1.4513880445661D-02  2.9944543567612D-02
241  2.4000000000000D+00  1.0846695281468D-02  2.2291090421861D-02
242  2.4100000000000D+00  7.6975225544778D-03  1.5760229177063D-02
243  2.4200000000000D+00  5.0776459040232D-03  1.0357480330849D-02
244  2.4300000000000D+00  2.9907902709744D-03  6.0798750945075D-03
245  2.4400000000000D+00  1.5265749435349D-03  3.0875141422267D-03
246  2.4500000000000D+00  6.0416555038780D-04  1.2088599951618D-03
247  2.4600000000000D+00  8.0720281605867D-05  1.5157304387777D-04
248  2.4700000000000D+00 -1.3972731350359D-04 -2.9163788419429D-04
249  2.4800000000000D+00 -1.4822404258136D-04 -3.0554417068362D-04
250  2.4900000000000D+00 -3.6668808481622D-05 -7.5330966055760D-05
251  2.5000000000000D+00  7.3208021753646D-07  2.0227848096837D-06
252  2.5100000000000D+00  7.7633563803250D-07  2.1450653879334D-06
253  2.5200000000000D+00  1.8717455241464D-07  5.1717534815755D-07
254  2.5300000000000D+00  0.0000000000000D+00  0.0000000000000D+00
255  2.5400000000000D+00  0.0000000000000D+00  0.0000000000000D+00
256  2.5500000000000D+00  0.0000000000000D+00  0.0000000000000D+00
257  2.5600000000000D+00  0.0000000000000D+00  0.0000000000000D+00
258  2.5700000000000D+00  0.0000000000000D+00  0.0000000000000D+00
259  2.5800000000000D+00  0.0000000000000D+00  0.0000000000000D+00
260  2.5900000000000D+00  0.0000000000000D+00  0.0000000000000D+00
261  2.6000000000000D+00  0.0000000000000D+00  0.0000000000000D+00
262  2.6100000000000D+00  0.0000000000000D+00  0.0000000000000D+00
263  2.6200000000000D+00  0.0000000000000D+00  0.0000000000000D+00
264  2.6300000000000D+00  0.0000000000000D+00  0.0000000000000D+00
265  2.6400000000000D+00  0.0000000000000D+00  0.0000000000000D+00
266  2.6500000000000D+00  0.0000000000000D+00  0.0000000000000D+00
267  2.6600000000000D+00  0.0000000000000D+00  0.0000000000000D+00
268  2.6700000000000D+00  0.0000000000000D+00  0.0000000000000D+00
269  2.6800000000000D+00  0.0000000000000D+00  0.0000000000000D+00
270  2.6900000000000D+00  0.0000000000000D+00  0.0000000000000D+00
271  2.7000000000000D+00  0.0000000000000D+00  0.0000000000000D+00
272  2.7100000000000D+00  0.0000000000000D+00  0.0000000000000D+00
273  2.7200000000000D+00  0.0000000000000D+00  0.0000000000000D+00
274  2.7300000000000D+00  0.0000000000000D+00  0.0000000000000D+00
275  2.7400000000000D+00  0.0000000000000D+00  0.0000000000000D+00
276  2.7500000000000D+00  0.0000000000000D+00  0.0000000000000D+00
277  2.7600000000000D+00  0.0000000000000D+00  0.0000000000000D+00
278  2.7700000000000D+00  0.0000000000000D+00  0.0000000000000D+00
279  2.7800000000000D+00  0.0000000000000D+00  0.0000000000000D+00
280  2.7900000000000D+00  0.0000000000000D+00  0.0000000000000D+00
281  2.8000000000000D+00  0.0000000000000D+00  0.0000000000000D+00
282  2.8100000000000D+00  0.0000000000000D+00  0.0000000000000D+00
283  2.8200000000000D+00  0.0000000000000D+00  0.0000000000000D+00
284  2.8300000000000D+00  0.0000000000000D+00  0.0000000000000D+00
285  2.8400000000000D+00  0.0000000000000D+00  0.0000000000000D+00
286  2.8500000000000D+00  0.0000000000000D+00  0.0000000000000D+00
287  2.8600000000000D+00  0.0000000000000D+00  0.0000000000000D+00
288  2.8700000000000D+00  0.0000000000000D+00  0.0000000000000D+00
289  2.8800000000000D+00  0.0000000000000D+00  0.0000000000000D+00
290  2.8900000000000D+00  0.0000000000000D+00  0.0000000000000D+00
291  2.9000000000000D+00  0.0000000000000D+00  0.0000000000000D+00
292  2.9100000000000D+00  0.0000000000000D+00  0.0000000000000D+00
293  2.9200000000000D+00  0.0000000000000D+00  0.0000000000000D+00
294  2.9300000000000D+00  0.0000000000000D+00  0.0000000000000D+00
295  2.9400000000000D+00  0.0000000000000D+00  0.0000000000000D+00
296  2.9500000000000D+00  0.0000000000000D+00  0.0000000000000D+00
297  2.9600000000000D+00  0.0000000000000D+00  0.0000000000000D+00
298  2.9700000000000D+00  0.0000000000000D+00  0.0000000000000D+00
299  2.9800000000000D+00  0.0000000000000D+00  0.0000000000000D+00
300  2.9900000000000D+00  0.0000000000000D+00  0.0000000000000D+00
301  3.0000000000000D+00  0.0000000000000D+00  0.0000000000000D+00
302  3.0100000000000D+00  0.0000000000000D+00  0.0000000000000D+00
303  3.0200000000000D+00  0.0000000000000D+00  0.0000000000000D+00
304  3.0300000000000D+00  0.0000000000000D+00  0.0000000000000D+00
305  3.0400000000000D+00  0.0000000000000D+00  0.0000000000000D+00
306  3.0500000000000D+00  0.0000000000000D+00  0.0000000000000D+00
307  3.0600000000000D+00  0.0000000000000D+00  0.0000000000000D+00
308  3.0700000000000D+00  0.0000000000000D+00  0.0000000000000D+00
309  3.0800000000000D+00  0.0000000000000D+00  0.0000000000000D+00
310  3.0900000000000D+00  0.0000000000000D+00  0.0000000000000D+00
311  3.1000000000000D+00  0.0000000000000D+00  0.0000000000000D+00
312  3.1100000000000D+00  0.0000000000000D+00  0.0000000000000D+00
313  3.1200000000000D+00  0.0000000000000D+00  0.0000000000000D+00
314  3.1300000000000D+00  0.0000000000000D+00  0.0000000000000D+00
315  3.1400000000000D+00  0.0000000000000D+00  0.0000000000000D+00
316  3.1500000000000D+00  0.0000000000000D+00  0.0000000000000D+00
317  3.1600000000000D+00  0.0000000000000D+00  0.0000000000000D+00
318  3.1700000000000D+00  0.0000000000000D+00  0.0000000000000D+00
319  3.1800000000000D+00  0.0000000000000D+00  0.0000000000000D+00
320  3.1900000000000D+00  0.0000000000000D+00  0.0000000000000D+00
321  3.2000000000000D+00  0.0000000000000D+00  0.0000000000000D+00
322  3.2100000000000D+00  0.0000000000000D+00  0.0000000000000D+00
323  3.2200000000000D+00  0.0000000000000D+00  0.0000000000000D+00
324  3.2300000000000D+00  0.0000000000000D+00  0.0000000000000D+00
325  3.2400000000000D+00  0.0000000000000D+00  0.0000000000000D+00
326  3.2500000000000D+00  0.0000000000000D+00  0.0000000000000D+00
327  3.2600000000000D+00  0.0000000000000D+00  0.0000000000000D+00
328  3.2700000000000D+00  0.0000000000000D+00  0.0000000000000D+00
329  3.2800000000000D+00  0.0000000000000D+00  0.0000000000000D+00
330  3.2900000000000D+00  0.0000000000000D+00  0.0000000000000D+00
331  3.3000000000000D+00  0.0000000000000D+00  0.0000000000000D+00
332  3.3100000000000D+00  0.0000000000000D+00  0.0000000000000D+00
333  3.3200000000000D+00  0.0000000000000D+00  0.0000000000000D+00
334  3.3300000000000D+00  0.0000000000000D+00  0.0000000000000D+00
335  3.3400000000000D+00  0.0000000000000D+00  0.0000000000000D+00
336  3.3500000000000D+00  0.0000000000000D+00  0.0000000000000D+00
337  3.3600000000000D+00  0.0000000000000D+00  0.0000000000000D+00
338  3.3700000000000D+00  0.0000000000000D+00  0.0000000000000D+00
339  3.3800000000000D+00  0.0000000000000D+00  0.0000000000000D+00
340  3.3900000000000D+00  0.0000000000000D+00  0.0000000000000D+00
341  3.4000000000000D+00  0.0000000000000D+00  0.0000000000000D+00
342  3.4100000000000D+00  0.0000000000000D+00  0.0000000000000D+00
343  3.4200000000000D+00  0.0000000000000D+00  0.0000000000000D+00
344  3.4300000000000D+00  0.0000000000000D+00  0.0000000000000D+00
345  3.4400000000000D+00  0.0000000000000D+00  0.0000000000000D+00
346  3.4500000000000D+00  0.0000000000000D+00  0.0000000000000D+00
347  3.4600000000000D+00  0.0000000000000D+00  0.0000000000000D+00
348  3.4700000000000D+00  0.0000000000000D+00  0.0000000000000D+00
349  3.4800000000000D+00  0.0000000000000D+00  0.0000000000000D+00
350  3.4900000000000D+00  0.0000000000000D+00  0.0000000000000D+00
351  3.5000000000000D+00  0.0000000000000D+00  0.0000000000000D+00
352  3.5100000000000D+00  0.0000000000000D+00  0.0000000000000D+00
353  3.5200000000000D+00  0.0000000000000D+00  0.0000000000000D+00
354  3.5300000000000D+00  0.0000000000000D+00  0.0000000000000D+00
355  3.5400000000000D+00  0.0000000000000D+00  0.0000000000000D+00
356  3.5500000000000D+00  0.0000000000000D+00  0.0000000000000D+00
357  3.5600000000000D+00  0.0000000000000D+00  0.0000000000000D+00
358  3.5700000000000D+00  0.0000000000000D+00  0.0000000000000D+00
359  3.5800000000000D+00  0.0000000000000D+00  0.0000000000000D+00
360  3.5900000000000D+00  0.0000000000000D+00  0.0000000000000D+00
361  3.6000000000000D+00  0.0000000000000D+00  0.0000000000000D+00
362  3.6100000000000D+00  0.0000000000000D+00  0.0000000000000D+00
363  3.6200000000000D+00  0.0000000000000D+00  0.0000000000000D+00
364  3.6300000000000D+00  0.0000000000000D+00  0.0000000000000D+00
365  3.6400000000000D+00  0.0000000000000D+00  0.0000000000000D+00
366  3.6500000000000D+00  0.0000000000000D+00  0.0000000000000D+00
367  3.6600000000000D+00  0.0000000000000D+00  0.0000000000000D+00
368  3.6700000000000D+00  0.0000000000000D+00  0.0000000000000D+00
369  3.6800000000000D+00  0.0000000000000D+00  0.0000000000000D+00
370  3.6900000000000D+00  0.0000000000000D+00  0.0000000000000D+00
371  3.7000000000000D+00  0.0000000000000D+00  0.0000000000000D+00
372  3.7100000000000D+00  0.0000000000000D+00  0.0000000000000D+00
373  3.7200000000000D+00  0.0000000000000D+00  0.0000000000000D+00
374  3.7300000000000D+00  0.0000000000000D+00  0.0000000000000D+00
375  3.7400000000000D+00  0.0000000000000D+00  0.0000000000000D+00
376  3.7500000000000D+00  0.0000000000000D+00  0.0000000000000D+00
377  3.7600000000000D+00  0.0000000000000D+00  0.0000000000000D+00
378  3.7700000000000D+00  0.0000000000000D+00  0.0000000000000D+00
379  3.7800000000000D+00  0.0000000000000D+00  0.0000000000000D+00
380  3.7900000000000D+00  0.0000000000000D+00  0.0000000000000D+00
381  3.8000000000000D+00  0.0000000000000D+00  0.0000000000000D+00
382  3.8100000000000D+00  0.0000000000000D+00  0.0000000000000D+00
383  3.8200000000000D+00  0.0000000000000D+00  0.0000000000000D+00
384  3.8300000000000D+00  0.0000000000000D+00  0.0000000000000D+00
385  3.8400000000000D+00  0.0000000000000D+00  0.0000000000000D+00
386  3.8500000000000D+00  0.0000000000000D+00  0.0000000000000D+00
387  3.8600000000000D+00  0.0000000000000D+00  0.0000000000000D+00
388  3.8700000000000D+00  0.0000000000000D+00  0.0000000000000D+00
389  3.8800000000000D+00  0.0000000000000D+00  0.0000000000000D+00
390  3.8900000000000D+00  0.0000000000000D+00  0.0000000000000D+00
391  3.9000000000000D+00  0.0000000000000D+00  0.0000000000000D+00
392  3.9100000000000D+00  0.0000000000000D+00  0.0000000000000D+00
393  3.9200000000000D+00  0.0000000000000D+00  0.0000000000000D+00
394  3.9300000000000D+00  0.0000000000000D+00  0.0000000000000D+00
395  3.9400000000000D+00  0.0000000000000D+00  0.0000000000000D+00
396  3.9500000000000D+00  0.0000000000000D+00  0.0000000000000D+00
397  3.9600000000000D+00  0.0000000000000D+00  0.0000000000000D+00
398  3.9700000000000D+00  0.0000000000000D+00  0.0000000000000D+00
399  3.9800000000000D+00  0.0000000000000D+00  0.0000000000000D+00
400  3.9900000000000D+00  0.0000000000000D+00  0.0000000000000D+00
401  4.0000000000000D+00  0.0000000000000D+00  0.0000000000000D+00
402  4.0100000000000D+00  0.0000000000000D+00  0.0000000000000D+00
403  4.0200000000000D+00  0.0000000000000D+00  0.0000000000000D+00
404  4.0300000000000D+00  0.0000000000000D+00  0.0000000000000D+00
405  4.0400000000000D+00  0.0000000000000D+00  0.0000000000000D+00
406  4.0500000000000D+00  0.0000000000000D+00  0.0000000000000D+00
407  4.0600000000000D+00  0.0000000000000D+00  0.0000000000000D+00
408  4.0700000000000D+00  0.0000000000000D+00  0.0000000000000D+00
409  4.0800000000000D+00  0.0000000000000D+00  0.0000000000000D+00
410  4.0900000000000D+00  0.0000000000000D+00  0.0000000000000D+00
411  4.1000000000000D+00  0.0000000000000D+00  0.0000000000000D+00
412  4.1100000000000D+00  0.0000000000000D+00  0.0000000000000D+00
413  4.1200000000000D+00  0.0000000000000D+00  0.0000000000000D+00
414  4.1300000000000D+00  0.0000000000000D+00  0.0000000000000D+00
415  4.1400000000000D+00  0.0000000000000D+00  0.0000000000000D+00
416  4.1500000000000D+00  0.0000000000000D+00  0.0000000000000D+00
417  4.1600000000000D+00  0.0000000000000D+00  0.0000000000000D+00
418  4.1700000000000D+00  0.0000000000000D+00  0.0000000000000D+00
419  4.1800000000000D+00  0.0000000000000D+00  0.0000000000000D+00
420  4.1900000000000D+00  0.0000000000000D+00  0.0000000000000D+00
421  4.2000000000000D+00  0.0000000000000D+00  0.0000000000000D+00
422  4.2100000000000D+00  0.0000000000000D+00  0.0000000000000D+00
423  4.2200000000000D+00  0.0000000000000D+00  0.0000000000000D+00
424  4.2300000000000D+00  0.0000000000000D+00  0.0000000000000D+00
425  4.2400000000000D+00  0.0000000000000D+00  0.0000000000000D+00
426  4.2500000000000D+00  0.0000000000000D+00  0.0000000000000D+00
427  4.2600000000000D+00  0.0000000000000D+00  0.0000000000000D+00
428  4.2700000000000D+00  0.0000000000000D+00  0.0000000000000D+00
429  4.2800000000000D+00  0.0000000000000D+00  0.0000000000000D+00
430  4.2900000000000D+00  0.0000000000000D+00  0.0000000000000D+00
431  4.3000000000000D+00  0.0000000000000D+00  0.0000000000000D+00
432  4.3100000000000D+00  0.0000000000000D+00  0.0000000000000D+00
433  4.3200000000000D+00  0.0000000000000D+00  0.0000000000000D+00
434  4.3300000000000D+00  0.0000000000000D+00  0.0000000000000D+00
435  4.3400000000000D+00  0.0000000000000D+00  0.0000000000000D+00
436  4.3500000000000D+00  0.0000000000000D+00  0.0000000000000D+00
437  4.3600000000000D+00  0.0000000000000D+00  0.0000000000000D+00
438  4.3700000000000D+00  0.0000000000000D+00  0.0000000000000D+00
439  4.3800000000000D+00  0.0000000000000D+00  0.0000000000000D+00
440  4.3900000000000D+00  0.0000000000000D+00  0.0000000000000D+00
441  4.4000000000000D+00  0.0000000000000D+00  0.0000000000000D+00
442  4.4100000000000D+00  0.0000000000000D+00  0.0000000000000D+00
443  4.4200000000000D+00  0.0000000000000D+00  0.0000000000000D+00
444  4.4300000000000D+00  0.0000000000000D+00  0.0000000000000D+00