Cd    ONCVPSP  r_core=  1.40  1.40  1.56
48.0000     20.0000      141229    zatom,zion,pspd
8    11     2     4   601     0    pspcod,pspxc,lmax,lloc,mmax,r2well
6.00000000  0.04000000  0.00000000    rchrg fchrg qchrg
2     2     2     0     0    nproj
0                 extension_switch
0                         8.4572697916427D+00 -3.8277022581662D-01
1  0.0000000000000D+00 -0.0000000000000D+00  0.0000000000000D+00
2  1.0000000000000D-02 -7.7581854955104D-02  7.3761494790024D-02
3  2.0000000000000D-02 -1.5498198931028D-01  1.4676540175832D-01
4  3.0000000000000D-02 -2.3201924389106D-01  2.1826427254227D-01
5  4.0000000000000D-02 -3.0851357976468D-01  2.8753078333953D-01
6  5.0000000000000D-02 -3.8428663186236D-01  3.5386741368924D-01
7  6.0000000000000D-02 -4.5916225487280D-01  4.1661567174884D-01
8  7.0000000000000D-02 -5.3296705894140D-01  4.7516472588417D-01
9  8.0000000000000D-02 -6.0553093281222D-01  5.2895931174086D-01
10  9.0000000000000D-02 -6.7668755214960D-01  5.7750679499621D-01
11  1.0000000000000D-01 -7.4627487094184D-01  6.2038328357638D-01
12  1.1000000000000D-01 -8.1413559400473D-01  6.5723869737076D-01
13  1.2000000000000D-01 -8.8011762880168D-01  6.8780072017970D-01
14  1.3000000000000D-01 -9.4407451492011D-01  7.1187757559000D-01
15  1.4000000000000D-01 -1.0058658299500D+00  7.2935958834339D-01
16  1.5000000000000D-01 -1.0653575701852D+00  7.4021950826162D-01
17  1.6000000000000D-01 -1.1224225056513D+00  7.4451159831927D-01
18  1.7000000000000D-01 -1.1769405079879D+00  7.4236950266329D-01
19  1.8000000000000D-01 -1.2287988513283D+00  7.3400293290696D-01
20  1.9000000000000D-01 -1.2778924848569D+00  7.1969323043785D-01
21  2.0000000000000D-01 -1.3241242780911D+00  6.9978787053149D-01
22  2.1000000000000D-01 -1.3674052370631D+00  6.7469401423579D-01
23  2.2000000000000D-01 -1.4076546934061D+00  6.4487119632990D-01
24  2.3000000000000D-01 -1.4448004655219D+00  6.1082327639131D-01
25  2.4000000000000D-01 -1.4787789925337D+00  5.7308978119417D-01
26  2.5000000000000D-01 -1.5095354409460D+00  5.3223680911143D-01
27  2.6000000000000D-01 -1.5370237869911D+00  4.8884754983207D-01
28  2.7000000000000D-01 -1.5612068715112D+00  4.4351273005800D-01
29  2.8000000000000D-01 -1.5820564320055D+00  3.9682098909633D-01
30  2.9000000000000D-01 -1.5995531106733D+00  3.4934941087547D-01
31  3.0000000000000D-01 -1.6136864394562D+00  3.0165438630655D-01
32  3.1000000000000D-01 -1.6244548036362D+00  2.5426289124650D-01
33  3.2000000000000D-01 -1.6318653841419D+00  2.0766438601566D-01
34  3.3000000000000D-01 -1.6359340798156D+00  1.6230349170091D-01
35  3.4000000000000D-01 -1.6366854107231D+00  1.1857340336573D-01
36  3.5000000000000D-01 -1.6341524022305D+00  7.6810342798288D-02
37  3.6000000000000D-01 -1.6283764514984D+00  3.7289064303306D-02
38  3.7000000000000D-01 -1.6194071771639D+00  2.1954107834780D-04
39  3.8000000000000D-01 -1.6073022495692D+00 -3.4255409422753D-02
40  3.9000000000000D-01 -1.5921272079226D+00 -6.6060894935588D-02
41  4.0000000000000D-01 -1.5739552589505D+00 -9.5189741162757D-02
42  4.1000000000000D-01 -1.5528670597583D+00 -1.2170097084042D-01
43  4.2000000000000D-01 -1.5289504847408D+00 -1.4571705572230D-01
44  4.3000000000000D-01 -1.5023003757202D+00 -1.6741999615890D-01
45  4.4000000000000D-01 -1.4730182775913D+00 -1.8704626850633D-01
46  4.5000000000000D-01 -1.4412121552234D+00 -2.0488076099684D-01
47  4.6000000000000D-01 -1.4069960953962D+00 -2.2124975525510D-01
48  4.7000000000000D-01 -1.3704899911557D+00 -2.3651309223716D-01
49  4.8000000000000D-01 -1.3318192093793D+00 -2.5105564933269D-01
50  4.9000000000000D-01 -1.2911142450575D+00 -2.6527833752658D-01
51  5.0000000000000D-01 -1.2485103587369D+00 -2.7958875752333D-01
52  5.1000000000000D-01 -1.2041471622594D+00 -2.9439101862027D-01
53  5.2000000000000D-01 -1.1581682533642D+00 -3.1007657306909D-01
54  5.3000000000000D-01 -1.1107207980466D+00 -3.2701469361906D-01
55  5.4000000000000D-01 -1.0619550270213D+00 -3.4554189177358D-01
56  5.5000000000000D-01 -1.0120238995909D+00 -3.6595516212385D-01
57  5.6000000000000D-01 -9.6108248745778D-01 -3.8850104573203D-01
58  5.7000000000000D-01 -9.0928764095511D-01 -4.1337084498082D-01
59  5.8000000000000D-01 -8.5679732663173D-01 -4.4069117977336D-01
60  5.9000000000000D-01 -8.0377030218196D-01 -4.7052157684786D-01
61  6.0000000000000D-01 -7.5036534592827D-01 -5.0284619460507D-01
62  6.1000000000000D-01 -6.9674100233249D-01 -5.3757485486340D-01
63  6.2000000000000D-01 -6.4305476025234D-01 -5.7453735448169D-01
64  6.3000000000000D-01 -5.8946264699692D-01 -6.1348510165114D-01
65  6.4000000000000D-01 -5.3611878012868D-01 -6.5409284109816D-01
66  6.5000000000000D-01 -4.8317445556828D-01 -6.9595782988638D-01
67  6.6000000000000D-01 -4.3077790190526D-01 -7.3860663921996D-01
68  6.7000000000000D-01 -3.7907370516045D-01 -7.8149958299354D-01
69  6.8000000000000D-01 -3.2820207755771D-01 -8.2403637252952D-01
70  6.9000000000000D-01 -2.7829839284634D-01 -8.6556454742765D-01
71  7.0000000000000D-01 -2.2949273480440D-01 -9.0538850032981D-01
72  7.1000000000000D-01 -1.8190935946777D-01 -9.4277914979811D-01
73  7.2000000000000D-01 -1.3566625766969D-01 -9.7698441116414D-01
74  7.3000000000000D-01 -9.0874440954115D-02 -1.0072417998391D+00
75  7.4000000000000D-01 -4.7637784148883D-02 -1.0327897327148D+00
76  7.5000000000000D-01 -6.0525329514308D-03 -1.0528801737881D+00
77  7.6000000000000D-01  3.3793064553069D-02 -1.0667912898259D+00
78  7.7000000000000D-01  7.1819087531192D-02 -1.0738400926365D+00
79  7.8000000000000D-01  1.0795423013355D-01 -1.0733948616705D+00
80  7.9000000000000D-01  1.4213604452714D-01 -1.0648871410528D+00
81  8.0000000000000D-01  1.7431111441566D-01 -1.0478227502462D+00
82  8.1000000000000D-01  2.0443525590705D-01 -1.0217931334011D+00
83  8.2000000000000D-01  2.3247359523266D-01 -9.8648476837416D-01
84  8.3000000000000D-01  2.5840057374905D-01 -9.4168686538528D-01
85  8.4000000000000D-01  2.8219996085710D-01 -8.8729873960049D-01
86  8.5000000000000D-01  3.0386478986291D-01 -8.2333537140246D-01
87  8.6000000000000D-01  3.2339723974065D-01 -7.4993137769017D-01
88  8.7000000000000D-01  3.4080846324183D-01 -6.6734329919571D-01
89  8.8000000000000D-01  3.5611836230722D-01 -5.7595013364151D-01
90  8.9000000000000D-01  3.6935529262394D-01 -4.7625150286738D-01
91  9.0000000000000D-01  3.8055579277853D-01 -3.6886602033658D-01
92  9.1000000000000D-01  3.8976418046199D-01 -2.5452568769830D-01
93  9.2000000000000D-01  3.9703212450077D-01 -1.3406885674246D-01
94  9.3000000000000D-01  4.0241819837033D-01 -8.4321513255616D-03
95  9.4000000000000D-01  4.0598738630594D-01  1.2135950575328D-01
96  9.5000000000000D-01  4.0781055689696D-01  2.5420435425195D-01
97  9.6000000000000D-01  4.0796390904592D-01  3.8893659253486D-01
98  9.7000000000000D-01  4.0652839561327D-01  5.2434032679674D-01
99  9.8000000000000D-01  4.0358913043630D-01  6.5916446752932D-01
100  9.9000000000000D-01  3.9923488617075D-01  7.9213625230824D-01
101  1.0000000000000D+00  3.9355727010368D-01  9.2198140726218D-01
102  1.0100000000000D+00  3.8665017399846D-01  1.0474401470963D+00
103  1.0200000000000D+00  3.7860921704286D-01  1.1672825391490D+00
104  1.0300000000000D+00  3.6953111915591D-01  1.2803254302354D+00
105  1.0400000000000D+00  3.5951312151588D-01  1.3854483159480D+00
106  1.0500000000000D+00  3.4865280891603D-01  1.4815992750440D+00
107  1.0600000000000D+00  3.3704649322044D-01  1.5678355422617D+00
108  1.0700000000000D+00  3.2478953228780D-01  1.6433171021201D+00
109  1.0800000000000D+00  3.1197572838308D-01  1.7073215058962D+00
110  1.0900000000000D+00  2.9869698797726D-01  1.7592519777755D+00
111  1.1000000000000D+00  2.8504311873069D-01  1.7986420500784D+00
112  1.1100000000000D+00  2.7109999123882D-01  1.8251978184633D+00
113  1.1200000000000D+00  2.5695084457112D-01  1.8387638263970D+00
114  1.1300000000000D+00  2.4267563525574D-01  1.8393356908611D+00
115  1.1400000000000D+00  2.2835139497698D-01  1.8270502111453D+00
116  1.1500000000000D+00  2.1404959874168D-01  1.8022363756410D+00
117  1.1600000000000D+00  1.9983858495284D-01  1.7653553914777D+00
118  1.1700000000000D+00  1.8578314557061D-01  1.7170057483472D+00
119  1.1800000000000D+00  1.7194381635218D-01  1.6579315035784D+00
120  1.1900000000000D+00  1.5837602416429D-01  1.5890213408213D+00
121  1.2000000000000D+00  1.4513194929347D-01  1.5112670142446D+00
122  1.2100000000000D+00  1.3226085055366D-01  1.4257596650787D+00
123  1.2200000000000D+00  1.1980608435442D-01  1.3337029456384D+00
124  1.2300000000000D+00  1.0780833025903D-01  1.2363595558106D+00
125  1.2400000000000D+00  9.6305648361764D-02  1.1350545090685D+00
126  1.2500000000000D+00  8.5331472941744D-02  1.0311566449526D+00
127  1.2600000000000D+00  7.4916501688549D-02  9.2604529869095D-01
128  1.2700000000000D+00  6.5089537245650D-02  8.2112108171617D-01
129  1.2800000000000D+00  5.5875748959471D-02  7.1775552404965D-01
130  1.2900000000000D+00  4.7298201060351D-02  6.1727174751947D-01
131  1.3000000000000D+00  3.9378668929764D-02  5.2098368825753D-01
132  1.3100000000000D+00  3.2136095123633D-02  4.3008726151217D-01
133  1.3200000000000D+00  2.5588225672127D-02  3.4569032131720D-01
134  1.3300000000000D+00  1.9751912048358D-02  2.6887373955184D-01
135  1.3400000000000D+00  1.4641904877724D-02  2.0048715683256D-01
136  1.3500000000000D+00  1.0272553261263D-02  1.4132069008103D-01
137  1.3600000000000D+00  6.6572428029670D-03  9.2046158229371D-02
138  1.3700000000000D+00  3.8082733559372D-03  5.3094807948250D-02
139  1.3800000000000D+00  1.7376183647859D-03  2.4858967287043D-02
140  1.3900000000000D+00  5.0995050226178D-04  8.2404367559459D-03
141  1.4000000000000D+00 -5.6635719409463D-06  1.2568923364210D-03
142  1.4100000000000D+00 -8.3879474433110D-05 -5.2153353628321D-04
143  1.4200000000000D+00  1.0632484008410D-06 -3.3459868836042D-05
144  1.4300000000000D+00  1.3309467130628D-06 -4.1884194146559D-05
145  1.4400000000000D+00  0.0000000000000D+00  0.0000000000000D+00
146  1.4500000000000D+00  0.0000000000000D+00  0.0000000000000D+00
147  1.4600000000000D+00  0.0000000000000D+00  0.0000000000000D+00
148  1.4700000000000D+00  0.0000000000000D+00  0.0000000000000D+00
149  1.4800000000000D+00  0.0000000000000D+00  0.0000000000000D+00
150  1.4900000000000D+00  0.0000000000000D+00  0.0000000000000D+00
151  1.5000000000000D+00  0.0000000000000D+00  0.0000000000000D+00
152  1.5100000000000D+00  0.0000000000000D+00  0.0000000000000D+00
153  1.5200000000000D+00  0.0000000000000D+00  0.0000000000000D+00
154  1.5300000000000D+00  0.0000000000000D+00  0.0000000000000D+00
155  1.5400000000000D+00  0.0000000000000D+00  0.0000000000000D+00
156  1.5500000000000D+00  0.0000000000000D+00  0.0000000000000D+00
157  1.5600000000000D+00  0.0000000000000D+00  0.0000000000000D+00
158  1.5700000000000D+00  0.0000000000000D+00  0.0000000000000D+00
159  1.5800000000000D+00  0.0000000000000D+00  0.0000000000000D+00
160  1.5900000000000D+00  0.0000000000000D+00  0.0000000000000D+00
161  1.6000000000000D+00  0.0000000000000D+00  0.0000000000000D+00
162  1.6100000000000D+00  0.0000000000000D+00  0.0000000000000D+00
163  1.6200000000000D+00  0.0000000000000D+00  0.0000000000000D+00
164  1.6300000000000D+00  0.0000000000000D+00  0.0000000000000D+00
165  1.6400000000000D+00  0.0000000000000D+00  0.0000000000000D+00
166  1.6500000000000D+00  0.0000000000000D+00  0.0000000000000D+00
167  1.6600000000000D+00  0.0000000000000D+00  0.0000000000000D+00
168  1.6700000000000D+00  0.0000000000000D+00  0.0000000000000D+00
169  1.6800000000000D+00  0.0000000000000D+00  0.0000000000000D+00
170  1.6900000000000D+00  0.0000000000000D+00  0.0000000000000D+00
171  1.7000000000000D+00  0.0000000000000D+00  0.0000000000000D+00
172  1.7100000000000D+00  0.0000000000000D+00  0.0000000000000D+00
173  1.7200000000000D+00  0.0000000000000D+00  0.0000000000000D+00
174  1.7300000000000D+00  0.0000000000000D+00  0.0000000000000D+00
175  1.7400000000000D+00  0.0000000000000D+00  0.0000000000000D+00
176  1.7500000000000D+00  0.0000000000000D+00  0.0000000000000D+00
177  1.7600000000000D+00  0.0000000000000D+00  0.0000000000000D+00
178  1.7700000000000D+00  0.0000000000000D+00  0.0000000000000D+00
179  1.7800000000000D+00  0.0000000000000D+00  0.0000000000000D+00
180  1.7900000000000D+00  0.0000000000000D+00  0.0000000000000D+00
181  1.8000000000000D+00  0.0000000000000D+00  0.0000000000000D+00
182  1.8100000000000D+00  0.0000000000000D+00  0.0000000000000D+00
183  1.8200000000000D+00  0.0000000000000D+00  0.0000000000000D+00
184  1.8300000000000D+00  0.0000000000000D+00  0.0000000000000D+00
185  1.8400000000000D+00  0.0000000000000D+00  0.0000000000000D+00
186  1.8500000000000D+00  0.0000000000000D+00  0.0000000000000D+00
187  1.8600000000000D+00  0.0000000000000D+00  0.0000000000000D+00
188  1.8700000000000D+00  0.0000000000000D+00  0.0000000000000D+00
189  1.8800000000000D+00  0.0000000000000D+00  0.0000000000000D+00
190  1.8900000000000D+00  0.0000000000000D+00  0.0000000000000D+00
191  1.9000000000000D+00  0.0000000000000D+00  0.0000000000000D+00
192  1.9100000000000D+00  0.0000000000000D+00  0.0000000000000D+00
193  1.9200000000000D+00  0.0000000000000D+00  0.0000000000000D+00
194  1.9300000000000D+00  0.0000000000000D+00  0.0000000000000D+00
195  1.9400000000000D+00  0.0000000000000D+00  0.0000000000000D+00
196  1.9500000000000D+00  0.0000000000000D+00  0.0000000000000D+00
197  1.9600000000000D+00  0.0000000000000D+00  0.0000000000000D+00
198  1.9700000000000D+00  0.0000000000000D+00  0.0000000000000D+00
199  1.9800000000000D+00  0.0000000000000D+00  0.0000000000000D+00
200  1.9900000000000D+00  0.0000000000000D+00  0.0000000000000D+00
201  2.0000000000000D+00  0.0000000000000D+00  0.0000000000000D+00
202  2.0100000000000D+00  0.0000000000000D+00  0.0000000000000D+00
203  2.0200000000000D+00  0.0000000000000D+00  0.0000000000000D+00
204  2.0300000000000D+00  0.0000000000000D+00  0.0000000000000D+00
205  2.0400000000000D+00  0.0000000000000D+00  0.0000000000000D+00
206  2.0500000000000D+00  0.0000000000000D+00  0.0000000000000D+00
207  2.0600000000000D+00  0.0000000000000D+00  0.0000000000000D+00
208  2.0700000000000D+00  0.0000000000000D+00  0.0000000000000D+00
209  2.0800000000000D+00  0.0000000000000D+00  0.0000000000000D+00
210  2.0900000000000D+00  0.0000000000000D+00  0.0000000000000D+00
211  2.1000000000000D+00  0.0000000000000D+00  0.0000000000000D+00
212  2.1100000000000D+00  0.0000000000000D+00  0.0000000000000D+00
213  2.1200000000000D+00  0.0000000000000D+00  0.0000000000000D+00
214  2.1300000000000D+00  0.0000000000000D+00  0.0000000000000D+00
215  2.1400000000000D+00  0.0000000000000D+00  0.0000000000000D+00
216  2.1500000000000D+00  0.0000000000000D+00  0.0000000000000D+00
217  2.1600000000000D+00  0.0000000000000D+00  0.0000000000000D+00
218  2.1700000000000D+00  0.0000000000000D+00  0.0000000000000D+00
219  2.1800000000000D+00  0.0000000000000D+00  0.0000000000000D+00
220  2.1900000000000D+00  0.0000000000000D+00  0.0000000000000D+00
221  2.2000000000000D+00  0.0000000000000D+00  0.0000000000000D+00
222  2.2100000000000D+00  0.0000000000000D+00  0.0000000000000D+00
223  2.2200000000000D+00  0.0000000000000D+00  0.0000000000000D+00
224  2.2300000000000D+00  0.0000000000000D+00  0.0000000000000D+00
225  2.2400000000000D+00  0.0000000000000D+00  0.0000000000000D+00
226  2.2500000000000D+00  0.0000000000000D+00  0.0000000000000D+00
227  2.2600000000000D+00  0.0000000000000D+00  0.0000000000000D+00
228  2.2700000000000D+00  0.0000000000000D+00  0.0000000000000D+00
229  2.2800000000000D+00  0.0000000000000D+00  0.0000000000000D+00
230  2.2900000000000D+00  0.0000000000000D+00  0.0000000000000D+00
231  2.3000000000000D+00  0.0000000000000D+00  0.0000000000000D+00
232  2.3100000000000D+00  0.0000000000000D+00  0.0000000000000D+00
233  2.3200000000000D+00  0.0000000000000D+00  0.0000000000000D+00
234  2.3300000000000D+00  0.0000000000000D+00  0.0000000000000D+00
235  2.3400000000000D+00  0.0000000000000D+00  0.0000000000000D+00
236  2.3500000000000D+00  0.0000000000000D+00  0.0000000000000D+00
237  2.3600000000000D+00  0.0000000000000D+00  0.0000000000000D+00
238  2.3700000000000D+00  0.0000000000000D+00  0.0000000000000D+00
239  2.3800000000000D+00  0.0000000000000D+00  0.0000000000000D+00
240  2.3900000000000D+00  0.0000000000000D+00  0.0000000000000D+00
241  2.4000000000000D+00  0.0000000000000D+00  0.0000000000000D+00
242  2.4100000000000D+00  0.0000000000000D+00  0.0000000000000D+00
243  2.4200000000000D+00  0.0000000000000D+00  0.0000000000000D+00
244  2.4300000000000D+00  0.0000000000000D+00  0.0000000000000D+00
245  2.4400000000000D+00  0.0000000000000D+00  0.0000000000000D+00
246  2.4500000000000D+00  0.0000000000000D+00  0.0000000000000D+00
247  2.4600000000000D+00  0.0000000000000D+00  0.0000000000000D+00
248  2.4700000000000D+00  0.0000000000000D+00  0.0000000000000D+00
249  2.4800000000000D+00  0.0000000000000D+00  0.0000000000000D+00
250  2.4900000000000D+00  0.0000000000000D+00  0.0000000000000D+00
251  2.5000000000000D+00  0.0000000000000D+00  0.0000000000000D+00
252  2.5100000000000D+00  0.0000000000000D+00  0.0000000000000D+00
253  2.5200000000000D+00  0.0000000000000D+00  0.0000000000000D+00
254  2.5300000000000D+00  0.0000000000000D+00  0.0000000000000D+00
255  2.5400000000000D+00  0.0000000000000D+00  0.0000000000000D+00
256  2.5500000000000D+00  0.0000000000000D+00  0.0000000000000D+00
257  2.5600000000000D+00  0.0000000000000D+00  0.0000000000000D+00
258  2.5700000000000D+00  0.0000000000000D+00  0.0000000000000D+00
259  2.5800000000000D+00  0.0000000000000D+00  0.0000000000000D+00
260  2.5900000000000D+00  0.0000000000000D+00  0.0000000000000D+00
261  2.6000000000000D+00  0.0000000000000D+00  0.0000000000000D+00
262  2.6100000000000D+00  0.0000000000000D+00  0.0000000000000D+00
263  2.6200000000000D+00  0.0000000000000D+00  0.0000000000000D+00
264  2.6300000000000D+00  0.0000000000000D+00  0.0000000000000D+00
265  2.6400000000000D+00  0.0000000000000D+00  0.0000000000000D+00
266  2.6500000000000D+00  0.0000000000000D+00  0.0000000000000D+00
267  2.6600000000000D+00  0.0000000000000D+00  0.0000000000000D+00
268  2.6700000000000D+00  0.0000000000000D+00  0.0000000000000D+00
269  2.6800000000000D+00  0.0000000000000D+00  0.0000000000000D+00
270  2.6900000000000D+00  0.0000000000000D+00  0.0000000000000D+00
271  2.7000000000000D+00  0.0000000000000D+00  0.0000000000000D+00
272  2.7100000000000D+00  0.0000000000000D+00  0.0000000000000D+00
273  2.7200000000000D+00  0.0000000000000D+00  0.0000000000000D+00
274  2.7300000000000D+00  0.0000000000000D+00  0.0000000000000D+00
275  2.7400000000000D+00  0.0000000000000D+00  0.0000000000000D+00
276  2.7500000000000D+00  0.0000000000000D+00  0.0000000000000D+00
277  2.7600000000000D+00  0.0000000000000D+00  0.0000000000000D+00
278  2.7700000000000D+00  0.0000000000000D+00  0.0000000000000D+00
279  2.7800000000000D+00  0.0000000000000D+00  0.0000000000000D+00
280  2.7900000000000D+00  0.0000000000000D+00  0.0000000000000D+00
281  2.8000000000000D+00  0.0000000000000D+00  0.0000000000000D+00
282  2.8100000000000D+00  0.0000000000000D+00  0.0000000000000D+00
283  2.8200000000000D+00  0.0000000000000D+00  0.0000000000000D+00
284  2.8300000000000D+00  0.0000000000000D+00  0.0000000000000D+00
285  2.8400000000000D+00  0.0000000000000D+00  0.0000000000000D+00
286  2.8500000000000D+00  0.0000000000000D+00  0.0000000000000D+00
287  2.8600000000000D+00  0.0000000000000D+00  0.0000000000000D+00
288  2.8700000000000D+00  0.0000000000000D+00  0.0000000000000D+00
289  2.8800000000000D+00  0.0000000000000D+00  0.0000000000000D+00
290  2.8900000000000D+00  0.0000000000000D+00  0.0000000000000D+00
291  2.9000000000000D+00  0.0000000000000D+00  0.0000000000000D+00
292  2.9100000000000D+00  0.0000000000000D+00  0.0000000000000D+00
293  2.9200000000000D+00  0.0000000000000D+00  0.0000000000000D+00
294  2.9300000000000D+00  0.0000000000000D+00  0.0000000000000D+00
295  2.9400000000000D+00  0.0000000000000D+00  0.0000000000000D+00
296  2.9500000000000D+00  0.0000000000000D+00  0.0000000000000D+00
297  2.9600000000000D+00  0.0000000000000D+00  0.0000000000000D+00
298  2.9700000000000D+00  0.0000000000000D+00  0.0000000000000D+00
299  2.9800000000000D+00  0.0000000000000D+00  0.0000000000000D+00
300  2.9900000000000D+00  0.0000000000000D+00  0.0000000000000D+00
301  3.0000000000000D+00  0.0000000000000D+00  0.0000000000000D+00
302  3.0100000000000D+00  0.0000000000000D+00  0.0000000000000D+00
303  3.0200000000000D+00  0.0000000000000D+00  0.0000000000000D+00
304  3.0300000000000D+00  0.0000000000000D+00  0.0000000000000D+00
305  3.0400000000000D+00  0.0000000000000D+00  0.0000000000000D+00
306  3.0500000000000D+00  0.0000000000000D+00  0.0000000000000D+00
307  3.0600000000000D+00  0.0000000000000D+00  0.0000000000000D+00
308  3.0700000000000D+00  0.0000000000000D+00  0.0000000000000D+00
309  3.0800000000000D+00  0.0000000000000D+00  0.0000000000000D+00
310  3.0900000000000D+00  0.0000000000000D+00  0.0000000000000D+00
311  3.1000000000000D+00  0.0000000000000D+00  0.0000000000000D+00
312  3.1100000000000D+00  0.0000000000000D+00  0.0000000000000D+00
313  3.1200000000000D+00  0.0000000000000D+00  0.0000000000000D+00
314  3.1300000000000D+00  0.0000000000000D+00  0.0000000000000D+00
315  3.1400000000000D+00  0.0000000000000D+00  0.0000000000000D+00
316  3.1500000000000D+00  0.0000000000000D+00  0.0000000000000D+00
317  3.1600000000000D+00  0.0000000000000D+00  0.0000000000000D+00
318  3.1700000000000D+00  0.0000000000000D+00  0.0000000000000D+00
319  3.1800000000000D+00  0.0000000000000D+00  0.0000000000000D+00
320  3.1900000000000D+00  0.0000000000000D+00  0.0000000000000D+00
321  3.2000000000000D+00  0.0000000000000D+00  0.0000000000000D+00
322  3.2100000000000D+00  0.0000000000000D+00  0.0000000000000D+00
323  3.2200000000000D+00  0.0000000000000D+00  0.0000000000000D+00
324  3.2300000000000D+00  0.0000000000000D+00  0.0000000000000D+00
325  3.2400000000000D+00  0.0000000000000D+00  0.0000000000000D+00
326  3.2500000000000D+00  0.0000000000000D+00  0.0000000000000D+00
327  3.2600000000000D+00  0.0000000000000D+00  0.0000000000000D+00
328  3.2700000000000D+00  0.0000000000000D+00  0.0000000000000D+00
329  3.2800000000000D+00  0.0000000000000D+00  0.0000000000000D+00
330  3.2900000000000D+00  0.0000000000000D+00  0.0000000000000D+00
331  3.3000000000000D+00  0.0000000000000D+00  0.0000000000000D+00
332  3.3100000000000D+00  0.0000000000000D+00  0.0000000000000D+00
333  3.3200000000000D+00  0.0000000000000D+00  0.0000000000000D+00
334  3.3300000000000D+00  0.0000000000000D+00  0.0000000000000D+00
335  3.3400000000000D+00  0.0000000000000D+00  0.0000000000000D+00
336  3.3500000000000D+00  0.0000000000000D+00  0.0000000000000D+00
337  3.3600000000000D+00  0.0000000000000D+00  0.0000000000000D+00
338  3.3700000000000D+00  0.0000000000000D+00  0.0000000000000D+00
339  3.3800000000000D+00  0.0000000000000D+00  0.0000000000000D+00
340  3.3900000000000D+00  0.0000000000000D+00  0.0000000000000D+00
341  3.4000000000000D+00  0.0000000000000D+00  0.0000000000000D+00
342  3.4100000000000D+00  0.0000000000000D+00  0.0000000000000D+00
343  3.4200000000000D+00  0.0000000000000D+00  0.0000000000000D+00
344  3.4300000000000D+00  0.0000000000000D+00  0.0000000000000D+00
345  3.4400000000000D+00  0.0000000000000D+00  0.0000000000000D+00
346  3.4500000000000D+00  0.0000000000000D+00  0.0000000000000D+00
347  3.4600000000000D+00  0.0000000000000D+00  0.0000000000000D+00
348  3.4700000000000D+00  0.0000000000000D+00  0.0000000000000D+00
349  3.4800000000000D+00  0.0000000000000D+00  0.0000000000000D+00
350  3.4900000000000D+00  0.0000000000000D+00  0.0000000000000D+00
351  3.5000000000000D+00  0.0000000000000D+00  0.0000000000000D+00
352  3.5100000000000D+00  0.0000000000000D+00  0.0000000000000D+00
353  3.5200000000000D+00  0.0000000000000D+00  0.0000000000000D+00
354  3.5300000000000D+00  0.0000000000000D+00  0.0000000000000D+00
355  3.5400000000000D+00  0.0000000000000D+00  0.0000000000000D+00
356  3.5500000000000D+00  0.0000000000000D+00  0.0000000000000D+00
357  3.5600000000000D+00  0.0000000000000D+00  0.0000000000000D+00
358  3.5700000000000D+00  0.0000000000000D+00  0.0000000000000D+00
359  3.5800000000000D+00  0.0000000000000D+00  0.0000000000000D+00
360  3.5900000000000D+00  0.0000000000000D+00  0.0000000000000D+00
361  3.6000000000000D+00  0.0000000000000D+00  0.0000000000000D+00
362  3.6100000000000D+00  0.0000000000000D+00  0.0000000000000D+00
363  3.6200000000000D+00  0.0000000000000D+00  0.0000000000000D+00
364  3.6300000000000D+00  0.0000000000000D+00  0.0000000000000D+00
365  3.6400000000000D+00  0.0000000000000D+00  0.0000000000000D+00
366  3.6500000000000D+00  0.0000000000000D+00  0.0000000000000D+00
367  3.6600000000000D+00  0.0000000000000D+00  0.0000000000000D+00
368  3.6700000000000D+00  0.0000000000000D+00  0.0000000000000D+00
369  3.6800000000000D+00  0.0000000000000D+00  0.0000000000000D+00
370  3.6900000000000D+00  0.0000000000000D+00  0.0000000000000D+00
371  3.7000000000000D+00  0.0000000000000D+00  0.0000000000000D+00
372  3.7100000000000D+00  0.0000000000000D+00  0.0000000000000D+00
373  3.7200000000000D+00  0.0000000000000D+00  0.0000000000000D+00
374  3.7300000000000D+00  0.0000000000000D+00  0.0000000000000D+00
375  3.7400000000000D+00  0.0000000000000D+00  0.0000000000000D+00
376  3.7500000000000D+00  0.0000000000000D+00  0.0000000000000D+00
377  3.7600000000000D+00  0.0000000000000D+00  0.0000000000000D+00
378  3.7700000000000D+00  0.0000000000000D+00  0.0000000000000D+00
379  3.7800000000000D+00  0.0000000000000D+00  0.0000000000000D+00
380  3.7900000000000D+00  0.0000000000000D+00  0.0000000000000D+00
381  3.8000000000000D+00  0.0000000000000D+00  0.0000000000000D+00
382  3.8100000000000D+00  0.0000000000000D+00  0.0000000000000D+00
383  3.8200000000000D+00  0.0000000000000D+00  0.0000000000000D+00
384  3.8300000000000D+00  0.0000000000000D+00  0.0000000000000D+00
385  3.8400000000000D+00  0.0000000000000D+00  0.0000000000000D+00
386  3.8500000000000D+00  0.0000000000000D+00  0.0000000000000D+00
387  3.8600000000000D+00  0.0000000000000D+00  0.0000000000000D+00
388  3.8700000000000D+00  0.0000000000000D+00  0.0000000000000D+00
389  3.8800000000000D+00  0.0000000000000D+00  0.0000000000000D+00
390  3.8900000000000D+00  0.0000000000000D+00  0.0000000000000D+00
391  3.9000000000000D+00  0.0000000000000D+00  0.0000000000000D+00
392  3.9100000000000D+00  0.0000000000000D+00  0.0000000000000D+00
393  3.9200000000000D+00  0.0000000000000D+00  0.0000000000000D+00
394  3.9300000000000D+00  0.0000000000000D+00  0.0000000000000D+00
395  3.9400000000000D+00  0.0000000000000D+00  0.0000000000000D+00
396  3.9500000000000D+00  0.0000000000000D+00  0.0000000000000D+00
397  3.9600000000000D+00  0.0000000000000D+00  0.0000000000000D+00
398  3.9700000000000D+00  0.0000000000000D+00  0.0000000000000D+00
399  3.9800000000000D+00  0.0000000000000D+00  0.0000000000000D+00
400  3.9900000000000D+00  0.0000000000000D+00  0.0000000000000D+00
401  4.0000000000000D+00  0.0000000000000D+00  0.0000000000000D+00
402  4.0100000000000D+00  0.0000000000000D+00  0.0000000000000D+00
403  4.0200000000000D+00  0.0000000000000D+00  0.0000000000000D+00
404  4.0300000000000D+00  0.0000000000000D+00  0.0000000000000D+00
405  4.0400000000000D+00  0.0000000000000D+00  0.0000000000000D+00
406  4.0500000000000D+00  0.0000000000000D+00  0.0000000000000D+00
407  4.0600000000000D+00  0.0000000000000D+00  0.0000000000000D+00
408  4.0700000000000D+00  0.0000000000000D+00  0.0000000000000D+00
409  4.0800000000000D+00  0.0000000000000D+00  0.0000000000000D+00
410  4.0900000000000D+00  0.0000000000000D+00  0.0000000000000D+00
411  4.1000000000000D+00  0.0000000000000D+00  0.0000000000000D+00
412  4.1100000000000D+00  0.0000000000000D+00  0.0000000000000D+00
413  4.1200000000000D+00  0.0000000000000D+00  0.0000000000000D+00
414  4.1300000000000D+00  0.0000000000000D+00  0.0000000000000D+00
415  4.1400000000000D+00  0.0000000000000D+00  0.0000000000000D+00
416  4.1500000000000D+00  0.0000000000000D+00  0.0000000000000D+00
417  4.1600000000000D+00  0.0000000000000D+00  0.0000000000000D+00
418  4.1700000000000D+00  0.0000000000000D+00  0.0000000000000D+00
419  4.1800000000000D+00  0.0000000000000D+00  0.0000000000000D+00
420  4.1900000000000D+00  0.0000000000000D+00  0.0000000000000D+00
421  4.2000000000000D+00  0.0000000000000D+00  0.0000000000000D+00
422  4.2100000000000D+00  0.0000000000000D+00  0.0000000000000D+00
423  4.2200000000000D+00  0.0000000000000D+00  0.0000000000000D+00
424  4.2300000000000D+00  0.0000000000000D+00  0.0000000000000D+00
425  4.2400000000000D+00  0.0000000000000D+00  0.0000000000000D+00
426  4.2500000000000D+00  0.0000000000000D+00  0.0000000000000D+00
427  4.2600000000000D+00  0.0000000000000D+00  0.0000000000000D+00
428  4.2700000000000D+00  0.0000000000000D+00  0.0000000000000D+00
429  4.2800000000000D+00  0.0000000000000D+00  0.0000000000000D+00
430  4.2900000000000D+00  0.0000000000000D+00  0.0000000000000D+00
431  4.3000000000000D+00  0.0000000000000D+00  0.0000000000000D+00
432  4.3100000000000D+00  0.0000000000000D+00  0.0000000000000D+00
433  4.3200000000000D+00  0.0000000000000D+00  0.0000000000000D+00
434  4.3300000000000D+00  0.0000000000000D+00  0.0000000000000D+00
435  4.3400000000000D+00  0.0000000000000D+00  0.0000000000000D+00
436  4.3500000000000D+00  0.0000000000000D+00  0.0000000000000D+00
437  4.3600000000000D+00  0.0000000000000D+00  0.0000000000000D+00
438  4.3700000000000D+00  0.0000000000000D+00  0.0000000000000D+00
439  4.3800000000000D+00  0.0000000000000D+00  0.0000000000000D+00
440  4.3900000000000D+00  0.0000000000000D+00  0.0000000000000D+00
441  4.4000000000000D+00  0.0000000000000D+00  0.0000000000000D+00
442  4.4100000000000D+00  0.0000000000000D+00  0.0000000000000D+00
443  4.4200000000000D+00  0.0000000000000D+00  0.0000000000000D+00
444  4.4300000000000D+00  0.0000000000000D+00  0.0000000000000D+00