Cd    ONCVPSP  r_core=  1.45  1.40  1.66
48.0000     20.0000      140903    zatom,zion,pspd
8    11     2     4   601     0    pspcod,pspxc,lmax,lloc,mmax,r2well
6.00000000  0.15000000  0.00000000    rchrg fchrg qchrg
2     2     2     0     0    nproj
0                 extension_switch
0                         7.1311443122909D+00 -1.2004632442038D+00
1  0.0000000000000D+00 -0.0000000000000D+00  0.0000000000000D+00
2  1.0000000000000D-02 -7.0787272643404D-02  5.4860892708006D-02
3  2.0000000000000D-02 -1.4142761993015D-01  1.0952841266126D-01
4  3.0000000000000D-02 -2.1177449704521D-01  1.6380917785000D-01
5  4.0000000000000D-02 -2.8168211917478D-01  2.1750979700028D-01
6  5.0000000000000D-02 -3.5100583880452D-01  2.7043688792697D-01
7  6.0000000000000D-02 -4.1960251978344D-01  3.2239712310801D-01
8  7.0000000000000D-02 -4.8733090708676D-01  3.7319731095572D-01
9  8.0000000000000D-02 -5.5405199122742D-01  4.2264452075802D-01
10  9.0000000000000D-02 -6.1962936626893D-01  4.7054625863795D-01
11  1.0000000000000D-01 -6.8392958043011D-01  5.1671070115867D-01
12  1.1000000000000D-01 -7.4682247826562D-01  5.6094699235869D-01
13  1.2000000000000D-01 -8.0818153345086D-01  6.0306560908672D-01
14  1.3000000000000D-01 -8.6788417118179D-01  6.4287879844623D-01
15  1.4000000000000D-01 -9.2581207938964D-01  6.8020109028875D-01
16  1.5000000000000D-01 -9.8185150760901D-01  7.1484988602744D-01
17  1.6000000000000D-01 -1.0358935530361D+00  7.4664612480173D-01
18  1.7000000000000D-01 -1.0878344324470D+00  7.7541502535413D-01
19  1.8000000000000D-01 -1.1375757397842D+00  8.0098690272778D-01
20  1.9000000000000D-01 -1.1850246879380D+00  8.2319805481657D-01
21  2.0000000000000D-01 -1.2300943350735D+00  8.4189171708343D-01
22  2.1000000000000D-01 -1.2727037933463D+00  8.5691907517217D-01
23  2.2000000000000D-01 -1.3127784209814D+00  8.6814033321207D-01
24  2.3000000000000D-01 -1.3502499962405D+00  8.7542582709235D-01
25  2.4000000000000D-01 -1.3850568730052D+00  8.7865717422310D-01
26  2.5000000000000D-01 -1.4171441168632D+00  8.7772844527137D-01
27  2.6000000000000D-01 -1.4464636236890D+00  8.7254736069531D-01
28  2.7000000000000D-01 -1.4729742164093D+00  8.6303647682688D-01
29  2.8000000000000D-01 -1.4966417235831D+00  8.4913437138388D-01
30  2.9000000000000D-01 -1.5174390375872D+00  8.3079680445144D-01
31  3.0000000000000D-01 -1.5353461522625D+00  8.0799783898583D-01
32  3.1000000000000D-01 -1.5503501808359D+00  7.8073091534322D-01
33  3.2000000000000D-01 -1.5624453531942D+00  7.4900985721473D-01
34  3.3000000000000D-01 -1.5716329927816D+00  7.1286979204000D-01
35  3.4000000000000D-01 -1.5779214743603D+00  6.7236799257672D-01
36  3.5000000000000D-01 -1.5813261609669D+00  6.2758460073660D-01
37  3.6000000000000D-01 -1.5818693215577D+00  5.7862323056279D-01
38  3.7000000000000D-01 -1.5795800295440D+00  5.2561143078042D-01
39  3.8000000000000D-01 -1.5744940417570D+00  4.6870103435063D-01
40  3.9000000000000D-01 -1.5666536596645D+00  4.0806830147833D-01
41  4.0000000000000D-01 -1.5561075723087D+00  3.4391393097782D-01
42  4.1000000000000D-01 -1.5429106817198D+00  2.7646288685766D-01
43  4.2000000000000D-01 -1.5271239115808D+00  2.0596404102279D-01
44  4.3000000000000D-01 -1.5088139992593D+00  1.3268962763730D-01
45  4.4000000000000D-01 -1.4880532736109D+00  5.6934501839128D-02
46  4.5000000000000D-01 -1.4649194164105D+00 -2.0984794920321D-02
47  4.6000000000000D-01 -1.4394952110360D+00 -1.0073116947846D-01
48  4.7000000000000D-01 -1.4118682775719D+00 -1.8194830786184D-01
49  4.8000000000000D-01 -1.3821307959851D+00 -2.6426220025260D-01
50  4.9000000000000D-01 -1.3503792212914D+00 -3.4728284269092D-01
51  5.0000000000000D-01 -1.3167139889654D+00 -4.3060610851478D-01
52  5.1000000000000D-01 -1.2812391840246D+00 -5.1381591721377D-01
53  5.2000000000000D-01 -1.2440622546796D+00 -5.9648635419216D-01
54  5.3000000000000D-01 -1.2052936908959D+00 -6.7818401688803D-01
55  5.4000000000000D-01 -1.1650466437787D+00 -7.5847081630576D-01
56  5.5000000000000D-01 -1.1234366832404D+00 -8.3690611869967D-01
57  5.6000000000000D-01 -1.0805813475627D+00 -9.1305012073484D-01
58  5.7000000000000D-01 -1.0365999193324D+00 -9.8646599123001D-01
59  5.8000000000000D-01 -9.9161296065093D-01 -1.0567235124342D+00
60  5.9000000000000D-01 -9.4574211089046D-01 -1.1234011002262D+00
61  6.0000000000000D-01 -8.9910956464954D-01 -1.1860899520907D+00
62  6.1000000000000D-01 -8.5183793486929D-01 -1.2443955849667D+00
63  6.2000000000000D-01 -8.0404971603761D-01 -1.2979421359649D+00
64  6.3000000000000D-01 -7.5586705330000D-01 -1.3463744866219D+00
65  6.4000000000000D-01 -7.0741148260089D-01 -1.3893605025379D+00
66  6.5000000000000D-01 -6.5880336444274D-01 -1.4265954942603D+00
67  6.6000000000000D-01 -6.1016177569213D-01 -1.4578031994500D+00
68  6.7000000000000D-01 -5.6160417775779D-01 -1.4827383187639D+00
69  6.8000000000000D-01 -5.1324599031333D-01 -1.5011896489621D+00
70  6.9000000000000D-01 -4.6520034197586D-01 -1.5129817529811D+00
71  7.0000000000000D-01 -4.1757782698110D-01 -1.5179764449472D+00
72  7.1000000000000D-01 -3.7048620511086D-01 -1.5160745400082D+00
73  7.2000000000000D-01 -3.2403016248151D-01 -1.5072170001048D+00
74  7.3000000000000D-01 -2.7831089825817D-01 -1.4913870609647D+00
75  7.4000000000000D-01 -2.3342605012701D-01 -1.4686098125681D+00
76  7.5000000000000D-01 -1.8946940465980D-01 -1.4389530764054D+00
77  7.6000000000000D-01 -1.4653067613016D-01 -1.4025275808604D+00
78  7.7000000000000D-01 -1.0469529920907D-01 -1.3594868162657D+00
79  7.8000000000000D-01 -6.4044235971355D-02 -1.3100265646838D+00
80  7.9000000000000D-01 -2.4653797592885D-02 -1.2543841023271D+00
81  8.0000000000000D-01  1.3404504484247D-02 -1.1928370251324D+00
82  8.1000000000000D-01  5.0064140866209D-02 -1.1257019439880D+00
83  8.2000000000000D-01  8.5263686605345D-02 -1.0533326422893D+00
84  8.3000000000000D-01  1.1894691307535D-01 -9.7611792962948D-01
85  8.4000000000000D-01  1.5106290356416D-01 -8.9447933572674D-01
86  8.5000000000000D-01  1.8156613808843D-01 -8.0886846418032D-01
87  8.6000000000000D-01  2.1041656194850D-01 -7.1976408233494D-01
88  8.7000000000000D-01  2.3757963794445D-01 -6.2766896730496D-01
89  8.8000000000000D-01  2.6302638221021D-01 -5.3310653076604D-01
90  8.9000000000000D-01  2.8673336153129D-01 -4.3661735764067D-01
91  9.0000000000000D-01  3.0868274741182D-01 -3.3875530702742D-01
92  9.1000000000000D-01  3.2886228039241D-01 -2.4008361078128D-01
93  9.2000000000000D-01  3.4726522545318D-01 -1.4117097456676D-01
94  9.3000000000000D-01  3.6389033717939D-01 -4.2587461649515D-02
95  9.4000000000000D-01  3.7874179868145D-01  5.5099632132461D-02
96  9.5000000000000D-01  3.9182914484057D-01  1.5132991351907D-01
97  9.6000000000000D-01  4.0316717019938D-01  2.4555400032638D-01
98  9.7000000000000D-01  4.1277582191286D-01  3.3723756589948D-01
99  9.8000000000000D-01  4.2068007828843D-01  4.2586528218306D-01
100  9.9000000000000D-01  4.2690977746067D-01  5.1094316409251D-01
101  1.0000000000000D+00  4.3149958471011D-01  5.9200585661518D-01
102  1.0100000000000D+00  4.3448873292267D-01  6.6861812743014D-01
103  1.0200000000000D+00  4.3592084620265D-01  7.4037759078200D-01
104  1.0300000000000D+00  4.3584376796564D-01  8.0691815672077D-01
105  1.0400000000000D+00  4.3430936328859D-01  8.6791269552067D-01
106  1.0500000000000D+00  4.3137333471330D-01  9.2307213250363D-01
107  1.0600000000000D+00  4.2709498275624D-01  9.7215734858802D-01
108  1.0700000000000D+00  4.2153694223535D-01  1.0149726346279D+00
109  1.0800000000000D+00  4.1476496667461D-01  1.0513685254009D+00
110  1.0900000000000D+00  4.0684771267773D-01  1.0812422270888D+00
111  1.1000000000000D+00  3.9785656728974D-01  1.1045373303978D+00
112  1.1100000000000D+00  3.8786506130543D-01  1.1212537536939D+00
113  1.1200000000000D+00  3.7694888528952D-01  1.1314359954076D+00
114  1.1300000000000D+00  3.6518558788851D-01  1.1351757088828D+00
115  1.1400000000000D+00  3.5265455570356D-01  1.1326082300734D+00
116  1.1500000000000D+00  3.3943588315445D-01  1.1239241298155D+00
117  1.1600000000000D+00  3.2561086405695D-01  1.1093529765997D+00
118  1.1700000000000D+00  3.1126173158317D-01  1.0891643543743D+00
119  1.1800000000000D+00  2.9647117397652D-01  1.0636692515726D+00
120  1.1900000000000D+00  2.8132144681050D-01  1.0332189009592D+00
121  1.2000000000000D+00  2.6589499962556D-01  9.9819491388736D-01
122  1.2100000000000D+00  2.5027468067116D-01  9.5900843701210D-01
123  1.2200000000000D+00  2.3454126185981D-01  9.1610229649183D-01
124  1.2300000000000D+00  2.1877508483027D-01  8.6993916165369D-01
125  1.2400000000000D+00  2.0305620042211D-01  8.2100234784039D-01
126  1.2500000000000D+00  1.8746203376444D-01  7.6979110216859D-01
127  1.2600000000000D+00  1.7206833561468D-01  7.1681346951528D-01
128  1.2700000000000D+00  1.5695023166344D-01  6.6258892502093D-01
129  1.2800000000000D+00  1.4217938688827D-01  6.0763662082651D-01
130  1.2900000000000D+00  1.2782498708561D-01  5.5247130785488D-01
131  1.3000000000000D+00  1.1395543612185D-01  4.9761240115770D-01
132  1.3100000000000D+00  1.0063433404434D-01  4.4355885313692D-01
133  1.3200000000000D+00  8.7922737066567D-02  3.9079591067565D-01
134  1.3300000000000D+00  7.5880874645862D-02  3.3980949458183D-01
135  1.3400000000000D+00  6.4562222463170D-02  2.9103795002745D-01
136  1.3500000000000D+00  5.4019138936419D-02  2.4491178258402D-01
137  1.3600000000000D+00  4.4300955904025D-02  2.0184023651109D-01
138  1.3700000000000D+00  3.5450995812684D-02  1.6217979952160D-01
139  1.3800000000000D+00  2.7512015117718D-02  1.2628371738526D-01
140  1.3900000000000D+00  2.0520781104491D-02  9.4450060755720D-02
141  1.4000000000000D+00  1.4510607012202D-02  6.6943200081498D-02
142  1.4100000000000D+00  9.5135253709782D-03  4.4017554245452D-02
143  1.4200000000000D+00  5.5518200176609D-03  2.5826745007023D-02
144  1.4300000000000D+00  2.6473636451456D-03  1.2521308424879D-02
145  1.4400000000000D+00  8.8451986386917D-04  4.4855805000824D-03
146  1.4500000000000D+00  1.0576947720869D-04  9.4135383095863D-04
147  1.4600000000000D+00 -8.9508808891535D-05 -1.6045525157262D-04
148  1.4700000000000D+00 -3.0926192597917D-07 -5.9279851149167D-06
149  1.4800000000000D+00 -1.8050056243008D-06 -3.4598654326161D-05
150  1.4900000000000D+00  0.0000000000000D+00  0.0000000000000D+00
151  1.5000000000000D+00  0.0000000000000D+00  0.0000000000000D+00
152  1.5100000000000D+00  0.0000000000000D+00  0.0000000000000D+00
153  1.5200000000000D+00  0.0000000000000D+00  0.0000000000000D+00
154  1.5300000000000D+00  0.0000000000000D+00  0.0000000000000D+00
155  1.5400000000000D+00  0.0000000000000D+00  0.0000000000000D+00
156  1.5500000000000D+00  0.0000000000000D+00  0.0000000000000D+00
157  1.5600000000000D+00  0.0000000000000D+00  0.0000000000000D+00
158  1.5700000000000D+00  0.0000000000000D+00  0.0000000000000D+00
159  1.5800000000000D+00  0.0000000000000D+00  0.0000000000000D+00
160  1.5900000000000D+00  0.0000000000000D+00  0.0000000000000D+00
161  1.6000000000000D+00  0.0000000000000D+00  0.0000000000000D+00
162  1.6100000000000D+00  0.0000000000000D+00  0.0000000000000D+00
163  1.6200000000000D+00  0.0000000000000D+00  0.0000000000000D+00
164  1.6300000000000D+00  0.0000000000000D+00  0.0000000000000D+00
165  1.6400000000000D+00  0.0000000000000D+00  0.0000000000000D+00
166  1.6500000000000D+00  0.0000000000000D+00  0.0000000000000D+00
167  1.6600000000000D+00  0.0000000000000D+00  0.0000000000000D+00
168  1.6700000000000D+00  0.0000000000000D+00  0.0000000000000D+00
169  1.6800000000000D+00  0.0000000000000D+00  0.0000000000000D+00
170  1.6900000000000D+00  0.0000000000000D+00  0.0000000000000D+00
171  1.7000000000000D+00  0.0000000000000D+00  0.0000000000000D+00
172  1.7100000000000D+00  0.0000000000000D+00  0.0000000000000D+00
173  1.7200000000000D+00  0.0000000000000D+00  0.0000000000000D+00
174  1.7300000000000D+00  0.0000000000000D+00  0.0000000000000D+00
175  1.7400000000000D+00  0.0000000000000D+00  0.0000000000000D+00
176  1.7500000000000D+00  0.0000000000000D+00  0.0000000000000D+00
177  1.7600000000000D+00  0.0000000000000D+00  0.0000000000000D+00
178  1.7700000000000D+00  0.0000000000000D+00  0.0000000000000D+00
179  1.7800000000000D+00  0.0000000000000D+00  0.0000000000000D+00
180  1.7900000000000D+00  0.0000000000000D+00  0.0000000000000D+00
181  1.8000000000000D+00  0.0000000000000D+00  0.0000000000000D+00
182  1.8100000000000D+00  0.0000000000000D+00  0.0000000000000D+00
183  1.8200000000000D+00  0.0000000000000D+00  0.0000000000000D+00
184  1.8300000000000D+00  0.0000000000000D+00  0.0000000000000D+00
185  1.8400000000000D+00  0.0000000000000D+00  0.0000000000000D+00
186  1.8500000000000D+00  0.0000000000000D+00  0.0000000000000D+00
187  1.8600000000000D+00  0.0000000000000D+00  0.0000000000000D+00
188  1.8700000000000D+00  0.0000000000000D+00  0.0000000000000D+00
189  1.8800000000000D+00  0.0000000000000D+00  0.0000000000000D+00
190  1.8900000000000D+00  0.0000000000000D+00  0.0000000000000D+00
191  1.9000000000000D+00  0.0000000000000D+00  0.0000000000000D+00
192  1.9100000000000D+00  0.0000000000000D+00  0.0000000000000D+00
193  1.9200000000000D+00  0.0000000000000D+00  0.0000000000000D+00
194  1.9300000000000D+00  0.0000000000000D+00  0.0000000000000D+00
195  1.9400000000000D+00  0.0000000000000D+00  0.0000000000000D+00
196  1.9500000000000D+00  0.0000000000000D+00  0.0000000000000D+00
197  1.9600000000000D+00  0.0000000000000D+00  0.0000000000000D+00
198  1.9700000000000D+00  0.0000000000000D+00  0.0000000000000D+00
199  1.9800000000000D+00  0.0000000000000D+00  0.0000000000000D+00
200  1.9900000000000D+00  0.0000000000000D+00  0.0000000000000D+00
201  2.0000000000000D+00  0.0000000000000D+00  0.0000000000000D+00
202  2.0100000000000D+00  0.0000000000000D+00  0.0000000000000D+00
203  2.0200000000000D+00  0.0000000000000D+00  0.0000000000000D+00
204  2.0300000000000D+00  0.0000000000000D+00  0.0000000000000D+00
205  2.0400000000000D+00  0.0000000000000D+00  0.0000000000000D+00
206  2.0500000000000D+00  0.0000000000000D+00  0.0000000000000D+00
207  2.0600000000000D+00  0.0000000000000D+00  0.0000000000000D+00
208  2.0700000000000D+00  0.0000000000000D+00  0.0000000000000D+00
209  2.0800000000000D+00  0.0000000000000D+00  0.0000000000000D+00
210  2.0900000000000D+00  0.0000000000000D+00  0.0000000000000D+00
211  2.1000000000000D+00  0.0000000000000D+00  0.0000000000000D+00
212  2.1100000000000D+00  0.0000000000000D+00  0.0000000000000D+00
213  2.1200000000000D+00  0.0000000000000D+00  0.0000000000000D+00
214  2.1300000000000D+00  0.0000000000000D+00  0.0000000000000D+00
215  2.1400000000000D+00  0.0000000000000D+00  0.0000000000000D+00
216  2.1500000000000D+00  0.0000000000000D+00  0.0000000000000D+00
217  2.1600000000000D+00  0.0000000000000D+00  0.0000000000000D+00
218  2.1700000000000D+00  0.0000000000000D+00  0.0000000000000D+00
219  2.1800000000000D+00  0.0000000000000D+00  0.0000000000000D+00
220  2.1900000000000D+00  0.0000000000000D+00  0.0000000000000D+00
221  2.2000000000000D+00  0.0000000000000D+00  0.0000000000000D+00
222  2.2100000000000D+00  0.0000000000000D+00  0.0000000000000D+00
223  2.2200000000000D+00  0.0000000000000D+00  0.0000000000000D+00
224  2.2300000000000D+00  0.0000000000000D+00  0.0000000000000D+00
225  2.2400000000000D+00  0.0000000000000D+00  0.0000000000000D+00
226  2.2500000000000D+00  0.0000000000000D+00  0.0000000000000D+00
227  2.2600000000000D+00  0.0000000000000D+00  0.0000000000000D+00
228  2.2700000000000D+00  0.0000000000000D+00  0.0000000000000D+00
229  2.2800000000000D+00  0.0000000000000D+00  0.0000000000000D+00
230  2.2900000000000D+00  0.0000000000000D+00  0.0000000000000D+00
231  2.3000000000000D+00  0.0000000000000D+00  0.0000000000000D+00
232  2.3100000000000D+00  0.0000000000000D+00  0.0000000000000D+00
233  2.3200000000000D+00  0.0000000000000D+00  0.0000000000000D+00
234  2.3300000000000D+00  0.0000000000000D+00  0.0000000000000D+00
235  2.3400000000000D+00  0.0000000000000D+00  0.0000000000000D+00
236  2.3500000000000D+00  0.0000000000000D+00  0.0000000000000D+00
237  2.3600000000000D+00  0.0000000000000D+00  0.0000000000000D+00
238  2.3700000000000D+00  0.0000000000000D+00  0.0000000000000D+00
239  2.3800000000000D+00  0.0000000000000D+00  0.0000000000000D+00
240  2.3900000000000D+00  0.0000000000000D+00  0.0000000000000D+00
241  2.4000000000000D+00  0.0000000000000D+00  0.0000000000000D+00
242  2.4100000000000D+00  0.0000000000000D+00  0.0000000000000D+00
243  2.4200000000000D+00  0.0000000000000D+00  0.0000000000000D+00
244  2.4300000000000D+00  0.0000000000000D+00  0.0000000000000D+00
245  2.4400000000000D+00  0.0000000000000D+00  0.0000000000000D+00
246  2.4500000000000D+00  0.0000000000000D+00  0.0000000000000D+00
247  2.4600000000000D+00  0.0000000000000D+00  0.0000000000000D+00
248  2.4700000000000D+00  0.0000000000000D+00  0.0000000000000D+00
249  2.4800000000000D+00  0.0000000000000D+00  0.0000000000000D+00
250  2.4900000000000D+00  0.0000000000000D+00  0.0000000000000D+00
251  2.5000000000000D+00  0.0000000000000D+00  0.0000000000000D+00
252  2.5100000000000D+00  0.0000000000000D+00  0.0000000000000D+00
253  2.5200000000000D+00  0.0000000000000D+00  0.0000000000000D+00
254  2.5300000000000D+00  0.0000000000000D+00  0.0000000000000D+00
255  2.5400000000000D+00  0.0000000000000D+00  0.0000000000000D+00
256  2.5500000000000D+00  0.0000000000000D+00  0.0000000000000D+00
257  2.5600000000000D+00  0.0000000000000D+00  0.0000000000000D+00
258  2.5700000000000D+00  0.0000000000000D+00  0.0000000000000D+00
259  2.5800000000000D+00  0.0000000000000D+00  0.0000000000000D+00
260  2.5900000000000D+00  0.0000000000000D+00  0.0000000000000D+00
261  2.6000000000000D+00  0.0000000000000D+00  0.0000000000000D+00
262  2.6100000000000D+00  0.0000000000000D+00  0.0000000000000D+00
263  2.6200000000000D+00  0.0000000000000D+00  0.0000000000000D+00
264  2.6300000000000D+00  0.0000000000000D+00  0.0000000000000D+00
265  2.6400000000000D+00  0.0000000000000D+00  0.0000000000000D+00
266  2.6500000000000D+00  0.0000000000000D+00  0.0000000000000D+00
267  2.6600000000000D+00  0.0000000000000D+00  0.0000000000000D+00
268  2.6700000000000D+00  0.0000000000000D+00  0.0000000000000D+00
269  2.6800000000000D+00  0.0000000000000D+00  0.0000000000000D+00
270  2.6900000000000D+00  0.0000000000000D+00  0.0000000000000D+00
271  2.7000000000000D+00  0.0000000000000D+00  0.0000000000000D+00
272  2.7100000000000D+00  0.0000000000000D+00  0.0000000000000D+00
273  2.7200000000000D+00  0.0000000000000D+00  0.0000000000000D+00
274  2.7300000000000D+00  0.0000000000000D+00  0.0000000000000D+00
275  2.7400000000000D+00  0.0000000000000D+00  0.0000000000000D+00
276  2.7500000000000D+00  0.0000000000000D+00  0.0000000000000D+00
277  2.7600000000000D+00  0.0000000000000D+00  0.0000000000000D+00
278  2.7700000000000D+00  0.0000000000000D+00  0.0000000000000D+00
279  2.7800000000000D+00  0.0000000000000D+00  0.0000000000000D+00
280  2.7900000000000D+00  0.0000000000000D+00  0.0000000000000D+00
281  2.8000000000000D+00  0.0000000000000D+00  0.0000000000000D+00
282  2.8100000000000D+00  0.0000000000000D+00  0.0000000000000D+00
283  2.8200000000000D+00  0.0000000000000D+00  0.0000000000000D+00
284  2.8300000000000D+00  0.0000000000000D+00  0.0000000000000D+00
285  2.8400000000000D+00  0.0000000000000D+00  0.0000000000000D+00
286  2.8500000000000D+00  0.0000000000000D+00  0.0000000000000D+00
287  2.8600000000000D+00  0.0000000000000D+00  0.0000000000000D+00
288  2.8700000000000D+00  0.0000000000000D+00  0.0000000000000D+00
289  2.8800000000000D+00  0.0000000000000D+00  0.0000000000000D+00
290  2.8900000000000D+00  0.0000000000000D+00  0.0000000000000D+00
291  2.9000000000000D+00  0.0000000000000D+00  0.0000000000000D+00
292  2.9100000000000D+00  0.0000000000000D+00  0.0000000000000D+00
293  2.9200000000000D+00  0.0000000000000D+00  0.0000000000000D+00
294  2.9300000000000D+00  0.0000000000000D+00  0.0000000000000D+00
295  2.9400000000000D+00  0.0000000000000D+00  0.0000000000000D+00
296  2.9500000000000D+00  0.0000000000000D+00  0.0000000000000D+00
297  2.9600000000000D+00  0.0000000000000D+00  0.0000000000000D+00
298  2.9700000000000D+00  0.0000000000000D+00  0.0000000000000D+00
299  2.9800000000000D+00  0.0000000000000D+00  0.0000000000000D+00
300  2.9900000000000D+00  0.0000000000000D+00  0.0000000000000D+00
301  3.0000000000000D+00  0.0000000000000D+00  0.0000000000000D+00
302  3.0100000000000D+00  0.0000000000000D+00  0.0000000000000D+00
303  3.0200000000000D+00  0.0000000000000D+00  0.0000000000000D+00
304  3.0300000000000D+00  0.0000000000000D+00  0.0000000000000D+00
305  3.0400000000000D+00  0.0000000000000D+00  0.0000000000000D+00
306  3.0500000000000D+00  0.0000000000000D+00  0.0000000000000D+00
307  3.0600000000000D+00  0.0000000000000D+00  0.0000000000000D+00
308  3.0700000000000D+00  0.0000000000000D+00  0.0000000000000D+00
309  3.0800000000000D+00  0.0000000000000D+00  0.0000000000000D+00
310  3.0900000000000D+00  0.0000000000000D+00  0.0000000000000D+00
311  3.1000000000000D+00  0.0000000000000D+00  0.0000000000000D+00
312  3.1100000000000D+00  0.0000000000000D+00  0.0000000000000D+00
313  3.1200000000000D+00  0.0000000000000D+00  0.0000000000000D+00
314  3.1300000000000D+00  0.0000000000000D+00  0.0000000000000D+00
315  3.1400000000000D+00  0.0000000000000D+00  0.0000000000000D+00
316  3.1500000000000D+00  0.0000000000000D+00  0.0000000000000D+00
317  3.1600000000000D+00  0.0000000000000D+00  0.0000000000000D+00
318  3.1700000000000D+00  0.0000000000000D+00  0.0000000000000D+00
319  3.1800000000000D+00  0.0000000000000D+00  0.0000000000000D+00
320  3.1900000000000D+00  0.0000000000000D+00  0.0000000000000D+00
321  3.2000000000000D+00  0.0000000000000D+00  0.0000000000000D+00
322  3.2100000000000D+00  0.0000000000000D+00  0.0000000000000D+00
323  3.2200000000000D+00  0.0000000000000D+00  0.0000000000000D+00
324  3.2300000000000D+00  0.0000000000000D+00  0.0000000000000D+00
325  3.2400000000000D+00  0.0000000000000D+00  0.0000000000000D+00
326  3.2500000000000D+00  0.0000000000000D+00  0.0000000000000D+00
327  3.2600000000000D+00  0.0000000000000D+00  0.0000000000000D+00
328  3.2700000000000D+00  0.0000000000000D+00  0.0000000000000D+00
329  3.2800000000000D+00  0.0000000000000D+00  0.0000000000000D+00
330  3.2900000000000D+00  0.0000000000000D+00  0.0000000000000D+00
331  3.3000000000000D+00  0.0000000000000D+00  0.0000000000000D+00
332  3.3100000000000D+00  0.0000000000000D+00  0.0000000000000D+00
333  3.3200000000000D+00  0.0000000000000D+00  0.0000000000000D+00
334  3.3300000000000D+00  0.0000000000000D+00  0.0000000000000D+00
335  3.3400000000000D+00  0.0000000000000D+00  0.0000000000000D+00
336  3.3500000000000D+00  0.0000000000000D+00  0.0000000000000D+00
337  3.3600000000000D+00  0.0000000000000D+00  0.0000000000000D+00
338  3.3700000000000D+00  0.0000000000000D+00  0.0000000000000D+00
339  3.3800000000000D+00  0.0000000000000D+00  0.0000000000000D+00
340  3.3900000000000D+00  0.0000000000000D+00  0.0000000000000D+00
341  3.4000000000000D+00  0.0000000000000D+00  0.0000000000000D+00
342  3.4100000000000D+00  0.0000000000000D+00  0.0000000000000D+00
343  3.4200000000000D+00  0.0000000000000D+00  0.0000000000000D+00
344  3.4300000000000D+00  0.0000000000000D+00  0.0000000000000D+00
345  3.4400000000000D+00  0.0000000000000D+00  0.0000000000000D+00
346  3.4500000000000D+00  0.0000000000000D+00  0.0000000000000D+00
347  3.4600000000000D+00  0.0000000000000D+00  0.0000000000000D+00
348  3.4700000000000D+00  0.0000000000000D+00  0.0000000000000D+00
349  3.4800000000000D+00  0.0000000000000D+00  0.0000000000000D+00
350  3.4900000000000D+00  0.0000000000000D+00  0.0000000000000D+00
351  3.5000000000000D+00  0.0000000000000D+00  0.0000000000000D+00
352  3.5100000000000D+00  0.0000000000000D+00  0.0000000000000D+00
353  3.5200000000000D+00  0.0000000000000D+00  0.0000000000000D+00
354  3.5300000000000D+00  0.0000000000000D+00  0.0000000000000D+00
355  3.5400000000000D+00  0.0000000000000D+00  0.0000000000000D+00
356  3.5500000000000D+00  0.0000000000000D+00  0.0000000000000D+00
357  3.5600000000000D+00  0.0000000000000D+00  0.0000000000000D+00
358  3.5700000000000D+00  0.0000000000000D+00  0.0000000000000D+00
359  3.5800000000000D+00  0.0000000000000D+00  0.0000000000000D+00
360  3.5900000000000D+00  0.0000000000000D+00  0.0000000000000D+00
361  3.6000000000000D+00  0.0000000000000D+00  0.0000000000000D+00
362  3.6100000000000D+00  0.0000000000000D+00  0.0000000000000D+00
363  3.6200000000000D+00  0.0000000000000D+00  0.0000000000000D+00
364  3.6300000000000D+00  0.0000000000000D+00  0.0000000000000D+00
365  3.6400000000000D+00  0.0000000000000D+00  0.0000000000000D+00
366  3.6500000000000D+00  0.0000000000000D+00  0.0000000000000D+00
367  3.6600000000000D+00  0.0000000000000D+00  0.0000000000000D+00
368  3.6700000000000D+00  0.0000000000000D+00  0.0000000000000D+00
369  3.6800000000000D+00  0.0000000000000D+00  0.0000000000000D+00
370  3.6900000000000D+00  0.0000000000000D+00  0.0000000000000D+00
371  3.7000000000000D+00  0.0000000000000D+00  0.0000000000000D+00
372  3.7100000000000D+00  0.0000000000000D+00  0.0000000000000D+00
373  3.7200000000000D+00  0.0000000000000D+00  0.0000000000000D+00
374  3.7300000000000D+00  0.0000000000000D+00  0.0000000000000D+00
375  3.7400000000000D+00  0.0000000000000D+00  0.0000000000000D+00
376  3.7500000000000D+00  0.0000000000000D+00  0.0000000000000D+00
377  3.7600000000000D+00  0.0000000000000D+00  0.0000000000000D+00
378  3.7700000000000D+00  0.0000000000000D+00  0.0000000000000D+00
379  3.7800000000000D+00  0.0000000000000D+00  0.0000000000000D+00
380  3.7900000000000D+00  0.0000000000000D+00  0.0000000000000D+00
381  3.8000000000000D+00  0.0000000000000D+00  0.0000000000000D+00
382  3.8100000000000D+00  0.0000000000000D+00  0.0000000000000D+00
383  3.8200000000000D+00  0.0000000000000D+00  0.0000000000000D+00
384  3.8300000000000D+00  0.0000000000000D+00  0.0000000000000D+00
385  3.8400000000000D+00  0.0000000000000D+00  0.0000000000000D+00
386  3.8500000000000D+00  0.0000000000000D+00  0.0000000000000D+00
387  3.8600000000000D+00  0.0000000000000D+00  0.0000000000000D+00
388  3.8700000000000D+00  0.0000000000000D+00  0.0000000000000D+00
389  3.8800000000000D+00  0.0000000000000D+00  0.0000000000000D+00
390  3.8900000000000D+00  0.0000000000000D+00  0.0000000000000D+00
391  3.9000000000000D+00  0.0000000000000D+00  0.0000000000000D+00
392  3.9100000000000D+00  0.0000000000000D+00  0.0000000000000D+00
393  3.9200000000000D+00  0.0000000000000D+00  0.0000000000000D+00
394  3.9300000000000D+00  0.0000000000000D+00  0.0000000000000D+00
395  3.9400000000000D+00  0.0000000000000D+00  0.0000000000000D+00
396  3.9500000000000D+00  0.0000000000000D+00  0.0000000000000D+00
397  3.9600000000000D+00  0.0000000000000D+00  0.0000000000000D+00
398  3.9700000000000D+00  0.0000000000000D+00  0.0000000000000D+00
399  3.9800000000000D+00  0.0000000000000D+00  0.0000000000000D+00
400  3.9900000000000D+00  0.0000000000000D+00  0.0000000000000D+00
401  4.0000000000000D+00  0.0000000000000D+00  0.0000000000000D+00
402  4.0100000000000D+00  0.0000000000000D+00  0.0000000000000D+00
403  4.0200000000000D+00  0.0000000000000D+00  0.0000000000000D+00
404  4.0300000000000D+00  0.0000000000000D+00  0.0000000000000D+00
405  4.0400000000000D+00  0.0000000000000D+00  0.0000000000000D+00
406  4.0500000000000D+00  0.0000000000000D+00  0.0000000000000D+00
407  4.0600000000000D+00  0.0000000000000D+00  0.0000000000000D+00
408  4.0700000000000D+00  0.0000000000000D+00  0.0000000000000D+00
409  4.0800000000000D+00  0.0000000000000D+00  0.0000000000000D+00
410  4.0900000000000D+00  0.0000000000000D+00  0.0000000000000D+00
411  4.1000000000000D+00  0.0000000000000D+00  0.0000000000000D+00
412  4.1100000000000D+00  0.0000000000000D+00  0.0000000000000D+00
413  4.1200000000000D+00  0.0000000000000D+00  0.0000000000000D+00
414  4.1300000000000D+00  0.0000000000000D+00  0.0000000000000D+00
415  4.1400000000000D+00  0.0000000000000D+00  0.0000000000000D+00
416  4.1500000000000D+00  0.0000000000000D+00  0.0000000000000D+00
417  4.1600000000000D+00  0.0000000000000D+00  0.0000000000000D+00
418  4.1700000000000D+00  0.0000000000000D+00  0.0000000000000D+00
419  4.1800000000000D+00  0.0000000000000D+00  0.0000000000000D+00
420  4.1900000000000D+00  0.0000000000000D+00  0.0000000000000D+00
421  4.2000000000000D+00  0.0000000000000D+00  0.0000000000000D+00
422  4.2100000000000D+00  0.0000000000000D+00  0.0000000000000D+00
423  4.2200000000000D+00  0.0000000000000D+00  0.0000000000000D+00
424  4.2300000000000D+00  0.0000000000000D+00  0.0000000000000D+00
425  4.2400000000000D+00  0.0000000000000D+00  0.0000000000000D+00
426  4.2500000000000D+00  0.0000000000000D+00  0.0000000000000D+00
427  4.2600000000000D+00  0.0000000000000D+00  0.0000000000000D+00
428  4.2700000000000D+00  0.0000000000000D+00  0.0000000000000D+00
429  4.2800000000000D+00  0.0000000000000D+00  0.0000000000000D+00
430  4.2900000000000D+00  0.0000000000000D+00  0.0000000000000D+00
431  4.3000000000000D+00  0.0000000000000D+00  0.0000000000000D+00
432  4.3100000000000D+00  0.0000000000000D+00  0.0000000000000D+00
433  4.3200000000000D+00  0.0000000000000D+00  0.0000000000000D+00
434  4.3300000000000D+00  0.0000000000000D+00  0.0000000000000D+00
435  4.3400000000000D+00  0.0000000000000D+00  0.0000000000000D+00
436  4.3500000000000D+00  0.0000000000000D+00  0.0000000000000D+00
437  4.3600000000000D+00  0.0000000000000D+00  0.0000000000000D+00
438  4.3700000000000D+00  0.0000000000000D+00  0.0000000000000D+00
439  4.3800000000000D+00  0.0000000000000D+00  0.0000000000000D+00
440  4.3900000000000D+00  0.0000000000000D+00  0.0000000000000D+00
441  4.4000000000000D+00  0.0000000000000D+00  0.0000000000000D+00
442  4.4100000000000D+00  0.0000000000000D+00  0.0000000000000D+00
443  4.4200000000000D+00  0.0000000000000D+00  0.0000000000000D+00
444  4.4300000000000D+00  0.0000000000000D+00  0.0000000000000D+00