Cd    ONCVPSP  r_core=  1.45  1.45  1.72
48.0000     20.0000      140906    zatom,zion,pspd
8    11     2     4   601     0    pspcod,pspxc,lmax,lloc,mmax,r2well
6.00000000  0.07000000  0.00000000    rchrg fchrg qchrg
2     2     2     0     0    nproj
0                 extension_switch
0                         6.2648215116503D+00 -1.9649616040053D+00
1  0.0000000000000D+00 -0.0000000000000D+00  0.0000000000000D+00
2  1.0000000000000D-02 -6.6110091701848D-02  4.5440181537067D-02
3  2.0000000000000D-02 -1.3208316505892D-01  9.0803887009897D-02
4  3.0000000000000D-02 -1.9778267364839D-01  1.3601358437390D-01
5  4.0000000000000D-02 -2.6307301211657D-01  1.8098964756399D-01
6  5.0000000000000D-02 -3.2781997979831D-01  2.2564935413749D-01
7  6.0000000000000D-02 -3.9189123609941D-01  2.6990593594752D-01
8  7.0000000000000D-02 -4.5515674499540D-01  3.1366769961346D-01
9  8.0000000000000D-02 -5.1748920609103D-01  3.5683723277017D-01
10  9.0000000000000D-02 -5.7876446977692D-01  3.9931071114979D-01
11  1.0000000000000D-01 -6.3886193416949D-01  4.4097732038204D-01
12  1.1000000000000D-01 -6.9766492163131D-01  4.8171880517162D-01
13  1.2000000000000D-01 -7.5506103285490D-01  5.2140915703416D-01
14  1.3000000000000D-01 -8.1094247662268D-01  5.5991445024066D-01
15  1.4000000000000D-01 -8.6520637371189D-01  5.9709283383664D-01
16  1.5000000000000D-01 -9.1775503321326D-01  6.3279468602226D-01
17  1.6000000000000D-01 -9.6849620041726D-01  6.6686293504660D-01
18  1.7000000000000D-01 -1.0173432747569D+00  6.9913354891279D-01
19  1.8000000000000D-01 -1.0642154975669D+00  7.2943619448959D-01
20  1.9000000000000D-01 -1.1090381084706D+00  7.5759506353390D-01
21  2.0000000000000D-01 -1.1517424709176D+00  7.8342986378745D-01
22  2.1000000000000D-01 -1.1922661656584D+00  8.0675696596383D-01
23  2.2000000000000D-01 -1.2305530535097D+00  8.2739070252059D-01
24  2.3000000000000D-01 -1.2665533070832D+00  8.4514480669739D-01
25  2.4000000000000D-01 -1.3002234122793D+00  8.5983398083328D-01
26  2.5000000000000D-01 -1.3315261402882D+00  8.7127557498893D-01
27  2.6000000000000D-01 -1.3604304918080D+00  8.7929137842407D-01
28  2.7000000000000D-01 -1.3869116136920D+00  8.8370947802119D-01
29  2.8000000000000D-01 -1.4109506905937D+00  8.8436619390433D-01
30  2.9000000000000D-01 -1.4325348125458D+00  8.8110806018147D-01
31  3.0000000000000D-01 -1.4516568206865D+00  8.7379382634408D-01
32  3.1000000000000D-01 -1.4683151327492D+00  8.6229647099457D-01
33  3.2000000000000D-01 -1.4825135507076D+00  8.4650519360320D-01
34  3.3000000000000D-01 -1.4942610536073D+00  8.2632735559539D-01
35  3.4000000000000D-01 -1.5035715755382D+00  8.0169038412482D-01
36  3.5000000000000D-01 -1.5104637732038D+00  7.7254357510845D-01
37  3.6000000000000D-01 -1.5149607853496D+00  7.3885978724036D-01
38  3.7000000000000D-01 -1.5170899876533D+00  7.0063699144939D-01
39  3.8000000000000D-01 -1.5168827365309D+00  6.5789974034972D-01
40  3.9000000000000D-01 -1.5143741224180D+00  6.1070036021329D-01
41  4.0000000000000D-01 -1.5096027167835D+00  5.5912002595803D-01
42  4.1000000000000D-01 -1.5026103240509D+00  5.0326960957513D-01
43  4.2000000000000D-01 -1.4934417392257D+00  4.4329030167740D-01
44  4.3000000000000D-01 -1.4821445120819D+00  3.7935399861459D-01
45  4.4000000000000D-01 -1.4687687231185D+00  3.1166342482870D-01
46  4.5000000000000D-01 -1.4533667673272D+00  2.4045201063501D-01
47  4.6000000000000D-01 -1.4359931529870D+00  1.6598348621044D-01
48  4.7000000000000D-01 -1.4167043135757D+00  8.8551203594784D-02
49  4.8000000000000D-01 -1.3955584352998D+00  8.4771770605822D-03
50  4.9000000000000D-01 -1.3726153037490D+00 -7.3889155697380D-02
51  5.0000000000000D-01 -1.3479361658695D+00 -1.5817242921166D-01
52  5.1000000000000D-01 -1.3215835876842D+00 -2.4397316314504D-01
53  5.2000000000000D-01 -1.2936213769197D+00 -3.3086980886922D-01
54  5.3000000000000D-01 -1.2641144912506D+00 -4.1842099531114D-01
55  5.4000000000000D-01 -1.2331289359621D+00 -5.0616825417503D-01
56  5.5000000000000D-01 -1.2007317685431D+00 -5.9363848423387D-01
57  5.6000000000000D-01 -1.1669909944989D+00 -6.8034735401820D-01
58  5.7000000000000D-01 -1.1319756088634D+00 -7.6580197102455D-01
59  5.8000000000000D-01 -1.0957555277760D+00 -8.4950480332549D-01
60  5.9000000000000D-01 -1.0584016522237D+00 -9.3095636593776D-01
61  6.0000000000000D-01 -1.0199858149925D+00 -1.0096598779731D+00
62  6.1000000000000D-01 -9.8058087218808D-01 -1.0851235912508D+00
63  6.2000000000000D-01 -9.4026067324788D-01 -1.1568658416229D+00
64  6.3000000000000D-01 -8.9910012696208D-01 -1.2244180551032D+00
65  6.4000000000000D-01 -8.5717524769510D-01 -1.2873278385419D+00
66  6.5000000000000D-01 -8.1456314802547D-01 -1.3451645762832D+00
67  6.6000000000000D-01 -7.7134211359013D-01 -1.3975213152906D+00
68  6.7000000000000D-01 -7.2759162455148D-01 -1.4440183303657D+00
69  6.8000000000000D-01 -6.8339236336762D-01 -1.4843074997617D+00
70  6.9000000000000D-01 -6.3882623555992D-01 -1.5180750536005D+00
71  7.0000000000000D-01 -5.9397637530163D-01 -1.5450441092699D+00
72  7.1000000000000D-01 -5.4892712990813D-01 -1.5649775624115D+00
73  7.2000000000000D-01 -5.0376403470700D-01 -1.5776802743974D+00
74  7.3000000000000D-01 -4.5857374940345D-01 -1.5830026206241D+00
75  7.4000000000000D-01 -4.1344400860337D-01 -1.5808407872791D+00
76  7.5000000000000D-01 -3.6846352780104D-01 -1.5711387758898D+00
77  7.6000000000000D-01 -3.2372189217658D-01 -1.5538895503365D+00
78  7.7000000000000D-01 -2.7930942148244D-01 -1.5291358047858D+00
79  7.8000000000000D-01 -2.3531701015326D-01 -1.4969703392079D+00
80  7.9000000000000D-01 -1.9183594207482D-01 -1.4575360327266D+00
81  8.0000000000000D-01 -1.4895768526176D-01 -1.4110253179770D+00
82  8.1000000000000D-01 -1.0677364465718D-01 -1.3576795732540D+00
83  8.2000000000000D-01 -6.5374900267964D-02 -1.2977877630786D+00
84  8.3000000000000D-01 -2.4851931660475D-02 -1.2316846325909D+00
85  8.4000000000000D-01  1.4705696164603D-02 -1.1597487537997D+00
86  8.5000000000000D-01  5.3209664074493D-02 -1.0824000883371D+00
87  8.6000000000000D-01  9.0573250385015D-02 -1.0000971821207D+00
88  8.7000000000000D-01  1.2671170067587D-01 -9.1333401161857D-01
89  8.8000000000000D-01  1.6154261347769D-01 -8.2263650501166D-01
90  8.9000000000000D-01  1.9498631100978D-01 -7.2855882229609D-01
91  9.0000000000000D-01  2.2696630267499D-01 -6.3167928244572D-01
92  9.1000000000000D-01  2.5740968723430D-01 -5.3259599522581D-01
93  9.2000000000000D-01  2.8624755174427D-01 -4.3192243477320D-01
94  9.3000000000000D-01  3.1341540464529D-01 -3.3028277116047D-01
95  9.4000000000000D-01  3.3885359378054D-01 -2.2830708749906D-01
96  9.5000000000000D-01  3.6250771686194D-01 -1.2662651471900D-01
97  9.6000000000000D-01  3.8432902021531D-01 -2.5868329163611D-02
98  9.7000000000000D-01  4.0427478158342D-01  7.3348940366970D-02
99  9.8000000000000D-01  4.2230867280696D-01  1.7042034877998D-01
100  9.9000000000000D-01  4.3840090752594D-01  2.6475773057971D-01
101  1.0000000000000D+00  4.5252904651673D-01  3.5579804611319D-01
102  1.0100000000000D+00  4.6467798889680D-01  4.4300590168157D-01
103  1.0200000000000D+00  4.7484016017642D-01  5.2587719017695D-01
104  1.0300000000000D+00  4.8301578514882D-01  6.0394352814070D-01
105  1.0400000000000D+00  4.8921305285027D-01  6.7677587408875D-01
106  1.0500000000000D+00  4.9344788515019D-01  7.4398406830507D-01
107  1.0600000000000D+00  4.9574511711195D-01  8.0523096073937D-01
108  1.0700000000000D+00  4.9613756484530D-01  8.6022576728453D-01
109  1.0800000000000D+00  4.9466618886786D-01  9.0872783795627D-01
110  1.0900000000000D+00  4.9137998255079D-01  9.5054768954118D-01
111  1.1000000000000D+00  4.8633581059576D-01  9.8554711323469D-01
112  1.1100000000000D+00  4.7959909372963D-01  1.0136518052547D+00
113  1.1200000000000D+00  4.7124247573367D-01  1.0348379416367D+00
114  1.1300000000000D+00  4.6134587844207D-01  1.0491357131283D+00
115  1.1400000000000D+00  4.4999608716538D-01  1.0566253978358D+00
116  1.1500000000000D+00  4.3728716856116D-01  1.0574527097584D+00
117  1.1600000000000D+00  4.2331898411433D-01  1.0518091315831D+00
118  1.1700000000000D+00  4.0819709074978D-01  1.0399334997748D+00
119  1.1800000000000D+00  3.9203249928860D-01  1.0221143937402D+00
120  1.1900000000000D+00  3.7494078434763D-01  9.9869006625763D-01
121  1.2000000000000D+00  3.5704144152646D-01  9.7003584559847D-01
122  1.2100000000000D+00  3.3845796327035D-01  9.3656286170734D-01
123  1.2200000000000D+00  3.1931596740254D-01  8.9872394475030D-01
124  1.2300000000000D+00  2.9974318074093D-01  8.5699717784743D-01
125  1.2400000000000D+00  2.7986965657238D-01  8.1188667721371D-01
126  1.2500000000000D+00  2.5982517700524D-01  7.6391991402231D-01
127  1.2600000000000D+00  2.3973919132074D-01  7.1363772155138D-01
128  1.2700000000000D+00  2.1974204871748D-01  6.6159614262118D-01
129  1.2800000000000D+00  1.9996108211237D-01  6.0835567465314D-01
130  1.2900000000000D+00  1.8052093156896D-01  5.5447484145178D-01
131  1.3000000000000D+00  1.6154614928501D-01  5.0051918695041D-01
132  1.3100000000000D+00  1.4315455373844D-01  4.4703534620471D-01
133  1.3200000000000D+00  1.2546000318053D-01  3.9455626027662D-01
134  1.3300000000000D+00  1.0857571854415D-01  3.4361694075526D-01
135  1.3400000000000D+00  9.2602987349105D-02  2.9470177286673D-01
136  1.3500000000000D+00  7.7641072066482D-02  2.4828663381641D-01
137  1.3600000000000D+00  6.3783864821286D-02  2.0482470682566D-01
138  1.3700000000000D+00  5.1113168494896D-02  1.6471027697541D-01
139  1.3800000000000D+00  3.9709817101938D-02  1.2833411615004D-01
140  1.3900000000000D+00  2.9642176561047D-02  9.6024588110249D-02
141  1.4000000000000D+00  2.0971156888712D-02  6.8071522706902D-02
142  1.4100000000000D+00  1.3754873393185D-02  4.4752242965096D-02
143  1.4200000000000D+00  8.0311069168478D-03  2.6234079347537D-02
144  1.4300000000000D+00  3.8370167505263D-03  1.2681637470443D-02
145  1.4400000000000D+00  1.2939308493499D-03  4.4902433101440D-03
146  1.4500000000000D+00  1.7172680281600D-04  8.7905461711743D-04
147  1.4600000000000D+00 -1.1859944392647D-04 -2.0643163978661D-04
148  1.4700000000000D+00 -6.3645829194955D-07 -5.2552016357070D-06
149  1.4800000000000D+00 -3.7146855144374D-06 -3.0671957044997D-05
150  1.4900000000000D+00  0.0000000000000D+00  0.0000000000000D+00
151  1.5000000000000D+00  0.0000000000000D+00  0.0000000000000D+00
152  1.5100000000000D+00  0.0000000000000D+00  0.0000000000000D+00
153  1.5200000000000D+00  0.0000000000000D+00  0.0000000000000D+00
154  1.5300000000000D+00  0.0000000000000D+00  0.0000000000000D+00
155  1.5400000000000D+00  0.0000000000000D+00  0.0000000000000D+00
156  1.5500000000000D+00  0.0000000000000D+00  0.0000000000000D+00
157  1.5600000000000D+00  0.0000000000000D+00  0.0000000000000D+00
158  1.5700000000000D+00  0.0000000000000D+00  0.0000000000000D+00
159  1.5800000000000D+00  0.0000000000000D+00  0.0000000000000D+00
160  1.5900000000000D+00  0.0000000000000D+00  0.0000000000000D+00
161  1.6000000000000D+00  0.0000000000000D+00  0.0000000000000D+00
162  1.6100000000000D+00  0.0000000000000D+00  0.0000000000000D+00
163  1.6200000000000D+00  0.0000000000000D+00  0.0000000000000D+00
164  1.6300000000000D+00  0.0000000000000D+00  0.0000000000000D+00
165  1.6400000000000D+00  0.0000000000000D+00  0.0000000000000D+00
166  1.6500000000000D+00  0.0000000000000D+00  0.0000000000000D+00
167  1.6600000000000D+00  0.0000000000000D+00  0.0000000000000D+00
168  1.6700000000000D+00  0.0000000000000D+00  0.0000000000000D+00
169  1.6800000000000D+00  0.0000000000000D+00  0.0000000000000D+00
170  1.6900000000000D+00  0.0000000000000D+00  0.0000000000000D+00
171  1.7000000000000D+00  0.0000000000000D+00  0.0000000000000D+00
172  1.7100000000000D+00  0.0000000000000D+00  0.0000000000000D+00
173  1.7200000000000D+00  0.0000000000000D+00  0.0000000000000D+00
174  1.7300000000000D+00  0.0000000000000D+00  0.0000000000000D+00
175  1.7400000000000D+00  0.0000000000000D+00  0.0000000000000D+00
176  1.7500000000000D+00  0.0000000000000D+00  0.0000000000000D+00
177  1.7600000000000D+00  0.0000000000000D+00  0.0000000000000D+00
178  1.7700000000000D+00  0.0000000000000D+00  0.0000000000000D+00
179  1.7800000000000D+00  0.0000000000000D+00  0.0000000000000D+00
180  1.7900000000000D+00  0.0000000000000D+00  0.0000000000000D+00
181  1.8000000000000D+00  0.0000000000000D+00  0.0000000000000D+00
182  1.8100000000000D+00  0.0000000000000D+00  0.0000000000000D+00
183  1.8200000000000D+00  0.0000000000000D+00  0.0000000000000D+00
184  1.8300000000000D+00  0.0000000000000D+00  0.0000000000000D+00
185  1.8400000000000D+00  0.0000000000000D+00  0.0000000000000D+00
186  1.8500000000000D+00  0.0000000000000D+00  0.0000000000000D+00
187  1.8600000000000D+00  0.0000000000000D+00  0.0000000000000D+00
188  1.8700000000000D+00  0.0000000000000D+00  0.0000000000000D+00
189  1.8800000000000D+00  0.0000000000000D+00  0.0000000000000D+00
190  1.8900000000000D+00  0.0000000000000D+00  0.0000000000000D+00
191  1.9000000000000D+00  0.0000000000000D+00  0.0000000000000D+00
192  1.9100000000000D+00  0.0000000000000D+00  0.0000000000000D+00
193  1.9200000000000D+00  0.0000000000000D+00  0.0000000000000D+00
194  1.9300000000000D+00  0.0000000000000D+00  0.0000000000000D+00
195  1.9400000000000D+00  0.0000000000000D+00  0.0000000000000D+00
196  1.9500000000000D+00  0.0000000000000D+00  0.0000000000000D+00
197  1.9600000000000D+00  0.0000000000000D+00  0.0000000000000D+00
198  1.9700000000000D+00  0.0000000000000D+00  0.0000000000000D+00
199  1.9800000000000D+00  0.0000000000000D+00  0.0000000000000D+00
200  1.9900000000000D+00  0.0000000000000D+00  0.0000000000000D+00
201  2.0000000000000D+00  0.0000000000000D+00  0.0000000000000D+00
202  2.0100000000000D+00  0.0000000000000D+00  0.0000000000000D+00
203  2.0200000000000D+00  0.0000000000000D+00  0.0000000000000D+00
204  2.0300000000000D+00  0.0000000000000D+00  0.0000000000000D+00
205  2.0400000000000D+00  0.0000000000000D+00  0.0000000000000D+00
206  2.0500000000000D+00  0.0000000000000D+00  0.0000000000000D+00
207  2.0600000000000D+00  0.0000000000000D+00  0.0000000000000D+00
208  2.0700000000000D+00  0.0000000000000D+00  0.0000000000000D+00
209  2.0800000000000D+00  0.0000000000000D+00  0.0000000000000D+00
210  2.0900000000000D+00  0.0000000000000D+00  0.0000000000000D+00
211  2.1000000000000D+00  0.0000000000000D+00  0.0000000000000D+00
212  2.1100000000000D+00  0.0000000000000D+00  0.0000000000000D+00
213  2.1200000000000D+00  0.0000000000000D+00  0.0000000000000D+00
214  2.1300000000000D+00  0.0000000000000D+00  0.0000000000000D+00
215  2.1400000000000D+00  0.0000000000000D+00  0.0000000000000D+00
216  2.1500000000000D+00  0.0000000000000D+00  0.0000000000000D+00
217  2.1600000000000D+00  0.0000000000000D+00  0.0000000000000D+00
218  2.1700000000000D+00  0.0000000000000D+00  0.0000000000000D+00
219  2.1800000000000D+00  0.0000000000000D+00  0.0000000000000D+00
220  2.1900000000000D+00  0.0000000000000D+00  0.0000000000000D+00
221  2.2000000000000D+00  0.0000000000000D+00  0.0000000000000D+00
222  2.2100000000000D+00  0.0000000000000D+00  0.0000000000000D+00
223  2.2200000000000D+00  0.0000000000000D+00  0.0000000000000D+00
224  2.2300000000000D+00  0.0000000000000D+00  0.0000000000000D+00
225  2.2400000000000D+00  0.0000000000000D+00  0.0000000000000D+00
226  2.2500000000000D+00  0.0000000000000D+00  0.0000000000000D+00
227  2.2600000000000D+00  0.0000000000000D+00  0.0000000000000D+00
228  2.2700000000000D+00  0.0000000000000D+00  0.0000000000000D+00
229  2.2800000000000D+00  0.0000000000000D+00  0.0000000000000D+00
230  2.2900000000000D+00  0.0000000000000D+00  0.0000000000000D+00
231  2.3000000000000D+00  0.0000000000000D+00  0.0000000000000D+00
232  2.3100000000000D+00  0.0000000000000D+00  0.0000000000000D+00
233  2.3200000000000D+00  0.0000000000000D+00  0.0000000000000D+00
234  2.3300000000000D+00  0.0000000000000D+00  0.0000000000000D+00
235  2.3400000000000D+00  0.0000000000000D+00  0.0000000000000D+00
236  2.3500000000000D+00  0.0000000000000D+00  0.0000000000000D+00
237  2.3600000000000D+00  0.0000000000000D+00  0.0000000000000D+00
238  2.3700000000000D+00  0.0000000000000D+00  0.0000000000000D+00
239  2.3800000000000D+00  0.0000000000000D+00  0.0000000000000D+00
240  2.3900000000000D+00  0.0000000000000D+00  0.0000000000000D+00
241  2.4000000000000D+00  0.0000000000000D+00  0.0000000000000D+00
242  2.4100000000000D+00  0.0000000000000D+00  0.0000000000000D+00
243  2.4200000000000D+00  0.0000000000000D+00  0.0000000000000D+00
244  2.4300000000000D+00  0.0000000000000D+00  0.0000000000000D+00
245  2.4400000000000D+00  0.0000000000000D+00  0.0000000000000D+00
246  2.4500000000000D+00  0.0000000000000D+00  0.0000000000000D+00
247  2.4600000000000D+00  0.0000000000000D+00  0.0000000000000D+00
248  2.4700000000000D+00  0.0000000000000D+00  0.0000000000000D+00
249  2.4800000000000D+00  0.0000000000000D+00  0.0000000000000D+00
250  2.4900000000000D+00  0.0000000000000D+00  0.0000000000000D+00
251  2.5000000000000D+00  0.0000000000000D+00  0.0000000000000D+00
252  2.5100000000000D+00  0.0000000000000D+00  0.0000000000000D+00
253  2.5200000000000D+00  0.0000000000000D+00  0.0000000000000D+00
254  2.5300000000000D+00  0.0000000000000D+00  0.0000000000000D+00
255  2.5400000000000D+00  0.0000000000000D+00  0.0000000000000D+00
256  2.5500000000000D+00  0.0000000000000D+00  0.0000000000000D+00
257  2.5600000000000D+00  0.0000000000000D+00  0.0000000000000D+00
258  2.5700000000000D+00  0.0000000000000D+00  0.0000000000000D+00
259  2.5800000000000D+00  0.0000000000000D+00  0.0000000000000D+00
260  2.5900000000000D+00  0.0000000000000D+00  0.0000000000000D+00
261  2.6000000000000D+00  0.0000000000000D+00  0.0000000000000D+00
262  2.6100000000000D+00  0.0000000000000D+00  0.0000000000000D+00
263  2.6200000000000D+00  0.0000000000000D+00  0.0000000000000D+00
264  2.6300000000000D+00  0.0000000000000D+00  0.0000000000000D+00
265  2.6400000000000D+00  0.0000000000000D+00  0.0000000000000D+00
266  2.6500000000000D+00  0.0000000000000D+00  0.0000000000000D+00
267  2.6600000000000D+00  0.0000000000000D+00  0.0000000000000D+00
268  2.6700000000000D+00  0.0000000000000D+00  0.0000000000000D+00
269  2.6800000000000D+00  0.0000000000000D+00  0.0000000000000D+00
270  2.6900000000000D+00  0.0000000000000D+00  0.0000000000000D+00
271  2.7000000000000D+00  0.0000000000000D+00  0.0000000000000D+00
272  2.7100000000000D+00  0.0000000000000D+00  0.0000000000000D+00
273  2.7200000000000D+00  0.0000000000000D+00  0.0000000000000D+00
274  2.7300000000000D+00  0.0000000000000D+00  0.0000000000000D+00
275  2.7400000000000D+00  0.0000000000000D+00  0.0000000000000D+00
276  2.7500000000000D+00  0.0000000000000D+00  0.0000000000000D+00
277  2.7600000000000D+00  0.0000000000000D+00  0.0000000000000D+00
278  2.7700000000000D+00  0.0000000000000D+00  0.0000000000000D+00
279  2.7800000000000D+00  0.0000000000000D+00  0.0000000000000D+00
280  2.7900000000000D+00  0.0000000000000D+00  0.0000000000000D+00
281  2.8000000000000D+00  0.0000000000000D+00  0.0000000000000D+00
282  2.8100000000000D+00  0.0000000000000D+00  0.0000000000000D+00
283  2.8200000000000D+00  0.0000000000000D+00  0.0000000000000D+00
284  2.8300000000000D+00  0.0000000000000D+00  0.0000000000000D+00
285  2.8400000000000D+00  0.0000000000000D+00  0.0000000000000D+00
286  2.8500000000000D+00  0.0000000000000D+00  0.0000000000000D+00
287  2.8600000000000D+00  0.0000000000000D+00  0.0000000000000D+00
288  2.8700000000000D+00  0.0000000000000D+00  0.0000000000000D+00
289  2.8800000000000D+00  0.0000000000000D+00  0.0000000000000D+00
290  2.8900000000000D+00  0.0000000000000D+00  0.0000000000000D+00
291  2.9000000000000D+00  0.0000000000000D+00  0.0000000000000D+00
292  2.9100000000000D+00  0.0000000000000D+00  0.0000000000000D+00
293  2.9200000000000D+00  0.0000000000000D+00  0.0000000000000D+00
294  2.9300000000000D+00  0.0000000000000D+00  0.0000000000000D+00
295  2.9400000000000D+00  0.0000000000000D+00  0.0000000000000D+00
296  2.9500000000000D+00  0.0000000000000D+00  0.0000000000000D+00
297  2.9600000000000D+00  0.0000000000000D+00  0.0000000000000D+00
298  2.9700000000000D+00  0.0000000000000D+00  0.0000000000000D+00
299  2.9800000000000D+00  0.0000000000000D+00  0.0000000000000D+00
300  2.9900000000000D+00  0.0000000000000D+00  0.0000000000000D+00
301  3.0000000000000D+00  0.0000000000000D+00  0.0000000000000D+00
302  3.0100000000000D+00  0.0000000000000D+00  0.0000000000000D+00
303  3.0200000000000D+00  0.0000000000000D+00  0.0000000000000D+00
304  3.0300000000000D+00  0.0000000000000D+00  0.0000000000000D+00
305  3.0400000000000D+00  0.0000000000000D+00  0.0000000000000D+00
306  3.0500000000000D+00  0.0000000000000D+00  0.0000000000000D+00
307  3.0600000000000D+00  0.0000000000000D+00  0.0000000000000D+00
308  3.0700000000000D+00  0.0000000000000D+00  0.0000000000000D+00
309  3.0800000000000D+00  0.0000000000000D+00  0.0000000000000D+00
310  3.0900000000000D+00  0.0000000000000D+00  0.0000000000000D+00
311  3.1000000000000D+00  0.0000000000000D+00  0.0000000000000D+00
312  3.1100000000000D+00  0.0000000000000D+00  0.0000000000000D+00
313  3.1200000000000D+00  0.0000000000000D+00  0.0000000000000D+00
314  3.1300000000000D+00  0.0000000000000D+00  0.0000000000000D+00
315  3.1400000000000D+00  0.0000000000000D+00  0.0000000000000D+00
316  3.1500000000000D+00  0.0000000000000D+00  0.0000000000000D+00
317  3.1600000000000D+00  0.0000000000000D+00  0.0000000000000D+00
318  3.1700000000000D+00  0.0000000000000D+00  0.0000000000000D+00
319  3.1800000000000D+00  0.0000000000000D+00  0.0000000000000D+00
320  3.1900000000000D+00  0.0000000000000D+00  0.0000000000000D+00
321  3.2000000000000D+00  0.0000000000000D+00  0.0000000000000D+00
322  3.2100000000000D+00  0.0000000000000D+00  0.0000000000000D+00
323  3.2200000000000D+00  0.0000000000000D+00  0.0000000000000D+00
324  3.2300000000000D+00  0.0000000000000D+00  0.0000000000000D+00
325  3.2400000000000D+00  0.0000000000000D+00  0.0000000000000D+00
326  3.2500000000000D+00  0.0000000000000D+00  0.0000000000000D+00
327  3.2600000000000D+00  0.0000000000000D+00  0.0000000000000D+00
328  3.2700000000000D+00  0.0000000000000D+00  0.0000000000000D+00
329  3.2800000000000D+00  0.0000000000000D+00  0.0000000000000D+00
330  3.2900000000000D+00  0.0000000000000D+00  0.0000000000000D+00
331  3.3000000000000D+00  0.0000000000000D+00  0.0000000000000D+00
332  3.3100000000000D+00  0.0000000000000D+00  0.0000000000000D+00
333  3.3200000000000D+00  0.0000000000000D+00  0.0000000000000D+00
334  3.3300000000000D+00  0.0000000000000D+00  0.0000000000000D+00
335  3.3400000000000D+00  0.0000000000000D+00  0.0000000000000D+00
336  3.3500000000000D+00  0.0000000000000D+00  0.0000000000000D+00
337  3.3600000000000D+00  0.0000000000000D+00  0.0000000000000D+00
338  3.3700000000000D+00  0.0000000000000D+00  0.0000000000000D+00
339  3.3800000000000D+00  0.0000000000000D+00  0.0000000000000D+00
340  3.3900000000000D+00  0.0000000000000D+00  0.0000000000000D+00
341  3.4000000000000D+00  0.0000000000000D+00  0.0000000000000D+00
342  3.4100000000000D+00  0.0000000000000D+00  0.0000000000000D+00
343  3.4200000000000D+00  0.0000000000000D+00  0.0000000000000D+00
344  3.4300000000000D+00  0.0000000000000D+00  0.0000000000000D+00
345  3.4400000000000D+00  0.0000000000000D+00  0.0000000000000D+00
346  3.4500000000000D+00  0.0000000000000D+00  0.0000000000000D+00
347  3.4600000000000D+00  0.0000000000000D+00  0.0000000000000D+00
348  3.4700000000000D+00  0.0000000000000D+00  0.0000000000000D+00
349  3.4800000000000D+00  0.0000000000000D+00  0.0000000000000D+00
350  3.4900000000000D+00  0.0000000000000D+00  0.0000000000000D+00
351  3.5000000000000D+00  0.0000000000000D+00  0.0000000000000D+00
352  3.5100000000000D+00  0.0000000000000D+00  0.0000000000000D+00
353  3.5200000000000D+00  0.0000000000000D+00  0.0000000000000D+00
354  3.5300000000000D+00  0.0000000000000D+00  0.0000000000000D+00
355  3.5400000000000D+00  0.0000000000000D+00  0.0000000000000D+00
356  3.5500000000000D+00  0.0000000000000D+00  0.0000000000000D+00
357  3.5600000000000D+00  0.0000000000000D+00  0.0000000000000D+00
358  3.5700000000000D+00  0.0000000000000D+00  0.0000000000000D+00
359  3.5800000000000D+00  0.0000000000000D+00  0.0000000000000D+00
360  3.5900000000000D+00  0.0000000000000D+00  0.0000000000000D+00
361  3.6000000000000D+00  0.0000000000000D+00  0.0000000000000D+00
362  3.6100000000000D+00  0.0000000000000D+00  0.0000000000000D+00
363  3.6200000000000D+00  0.0000000000000D+00  0.0000000000000D+00
364  3.6300000000000D+00  0.0000000000000D+00  0.0000000000000D+00
365  3.6400000000000D+00  0.0000000000000D+00  0.0000000000000D+00
366  3.6500000000000D+00  0.0000000000000D+00  0.0000000000000D+00
367  3.6600000000000D+00  0.0000000000000D+00  0.0000000000000D+00
368  3.6700000000000D+00  0.0000000000000D+00  0.0000000000000D+00
369  3.6800000000000D+00  0.0000000000000D+00  0.0000000000000D+00
370  3.6900000000000D+00  0.0000000000000D+00  0.0000000000000D+00
371  3.7000000000000D+00  0.0000000000000D+00  0.0000000000000D+00
372  3.7100000000000D+00  0.0000000000000D+00  0.0000000000000D+00
373  3.7200000000000D+00  0.0000000000000D+00  0.0000000000000D+00
374  3.7300000000000D+00  0.0000000000000D+00  0.0000000000000D+00
375  3.7400000000000D+00  0.0000000000000D+00  0.0000000000000D+00
376  3.7500000000000D+00  0.0000000000000D+00  0.0000000000000D+00
377  3.7600000000000D+00  0.0000000000000D+00  0.0000000000000D+00
378  3.7700000000000D+00  0.0000000000000D+00  0.0000000000000D+00
379  3.7800000000000D+00  0.0000000000000D+00  0.0000000000000D+00
380  3.7900000000000D+00  0.0000000000000D+00  0.0000000000000D+00
381  3.8000000000000D+00  0.0000000000000D+00  0.0000000000000D+00
382  3.8100000000000D+00  0.0000000000000D+00  0.0000000000000D+00
383  3.8200000000000D+00  0.0000000000000D+00  0.0000000000000D+00
384  3.8300000000000D+00  0.0000000000000D+00  0.0000000000000D+00
385  3.8400000000000D+00  0.0000000000000D+00  0.0000000000000D+00
386  3.8500000000000D+00  0.0000000000000D+00  0.0000000000000D+00
387  3.8600000000000D+00  0.0000000000000D+00  0.0000000000000D+00
388  3.8700000000000D+00  0.0000000000000D+00  0.0000000000000D+00
389  3.8800000000000D+00  0.0000000000000D+00  0.0000000000000D+00
390  3.8900000000000D+00  0.0000000000000D+00  0.0000000000000D+00
391  3.9000000000000D+00  0.0000000000000D+00  0.0000000000000D+00
392  3.9100000000000D+00  0.0000000000000D+00  0.0000000000000D+00
393  3.9200000000000D+00  0.0000000000000D+00  0.0000000000000D+00
394  3.9300000000000D+00  0.0000000000000D+00  0.0000000000000D+00
395  3.9400000000000D+00  0.0000000000000D+00  0.0000000000000D+00
396  3.9500000000000D+00  0.0000000000000D+00  0.0000000000000D+00
397  3.9600000000000D+00  0.0000000000000D+00  0.0000000000000D+00
398  3.9700000000000D+00  0.0000000000000D+00  0.0000000000000D+00
399  3.9800000000000D+00  0.0000000000000D+00  0.0000000000000D+00
400  3.9900000000000D+00  0.0000000000000D+00  0.0000000000000D+00
401  4.0000000000000D+00  0.0000000000000D+00  0.0000000000000D+00
402  4.0100000000000D+00  0.0000000000000D+00  0.0000000000000D+00
403  4.0200000000000D+00  0.0000000000000D+00  0.0000000000000D+00
404  4.0300000000000D+00  0.0000000000000D+00  0.0000000000000D+00
405  4.0400000000000D+00  0.0000000000000D+00  0.0000000000000D+00
406  4.0500000000000D+00  0.0000000000000D+00  0.0000000000000D+00
407  4.0600000000000D+00  0.0000000000000D+00  0.0000000000000D+00
408  4.0700000000000D+00  0.0000000000000D+00  0.0000000000000D+00
409  4.0800000000000D+00  0.0000000000000D+00  0.0000000000000D+00
410  4.0900000000000D+00  0.0000000000000D+00  0.0000000000000D+00
411  4.1000000000000D+00  0.0000000000000D+00  0.0000000000000D+00
412  4.1100000000000D+00  0.0000000000000D+00  0.0000000000000D+00
413  4.1200000000000D+00  0.0000000000000D+00  0.0000000000000D+00
414  4.1300000000000D+00  0.0000000000000D+00  0.0000000000000D+00
415  4.1400000000000D+00  0.0000000000000D+00  0.0000000000000D+00
416  4.1500000000000D+00  0.0000000000000D+00  0.0000000000000D+00
417  4.1600000000000D+00  0.0000000000000D+00  0.0000000000000D+00
418  4.1700000000000D+00  0.0000000000000D+00  0.0000000000000D+00
419  4.1800000000000D+00  0.0000000000000D+00  0.0000000000000D+00
420  4.1900000000000D+00  0.0000000000000D+00  0.0000000000000D+00
421  4.2000000000000D+00  0.0000000000000D+00  0.0000000000000D+00
422  4.2100000000000D+00  0.0000000000000D+00  0.0000000000000D+00
423  4.2200000000000D+00  0.0000000000000D+00  0.0000000000000D+00
424  4.2300000000000D+00  0.0000000000000D+00  0.0000000000000D+00
425  4.2400000000000D+00  0.0000000000000D+00  0.0000000000000D+00
426  4.2500000000000D+00  0.0000000000000D+00  0.0000000000000D+00
427  4.2600000000000D+00  0.0000000000000D+00  0.0000000000000D+00
428  4.2700000000000D+00  0.0000000000000D+00  0.0000000000000D+00
429  4.2800000000000D+00  0.0000000000000D+00  0.0000000000000D+00
430  4.2900000000000D+00  0.0000000000000D+00  0.0000000000000D+00
431  4.3000000000000D+00  0.0000000000000D+00  0.0000000000000D+00
432  4.3100000000000D+00  0.0000000000000D+00  0.0000000000000D+00
433  4.3200000000000D+00  0.0000000000000D+00  0.0000000000000D+00
434  4.3300000000000D+00  0.0000000000000D+00  0.0000000000000D+00
435  4.3400000000000D+00  0.0000000000000D+00  0.0000000000000D+00
436  4.3500000000000D+00  0.0000000000000D+00  0.0000000000000D+00
437  4.3600000000000D+00  0.0000000000000D+00  0.0000000000000D+00
438  4.3700000000000D+00  0.0000000000000D+00  0.0000000000000D+00
439  4.3800000000000D+00  0.0000000000000D+00  0.0000000000000D+00
440  4.3900000000000D+00  0.0000000000000D+00  0.0000000000000D+00
441  4.4000000000000D+00  0.0000000000000D+00  0.0000000000000D+00
442  4.4100000000000D+00  0.0000000000000D+00  0.0000000000000D+00
443  4.4200000000000D+00  0.0000000000000D+00  0.0000000000000D+00
444  4.4300000000000D+00  0.0000000000000D+00  0.0000000000000D+00