Cd    ONCVPSP  r_core=  1.40  1.40  1.72
48.0000     20.0000      140817    zatom,zion,pspd
8    11     2     4   601     0    pspcod,pspxc,lmax,lloc,mmax,r2well
6.00000000  0.30000000  0.00000000    rchrg fchrg qchrg
2     2     2     0     0    nproj
0                 extension_switch
0                         8.8153268159197D+00 -5.9881392469282D-01
1  0.0000000000000D+00 -0.0000000000000D+00  0.0000000000000D+00
2  1.0000000000000D-02 -7.8241238453487D-02  4.3952646527734D-02
3  2.0000000000000D-02 -1.5630322200978D-01  8.7784060340971D-02
4  3.0000000000000D-02 -2.3400714152524D-01  1.3137218615940D-01
5  4.0000000000000D-02 -3.1117507891090D-01  1.7459334329797D-01
6  5.0000000000000D-02 -3.8763045151899D-01  2.1732146202696D-01
7  6.0000000000000D-02 -4.6319845513460D-01  2.5942737809500D-01
8  7.0000000000000D-02 -5.3770650506154D-01  3.0077820362847D-01
9  8.0000000000000D-02 -6.1098467476100D-01  3.4123679161966D-01
10  9.0000000000000D-02 -6.8286613144303D-01  3.8066131001140D-01
11  1.0000000000000D-01 -7.5318756798430D-01  4.1890493992059D-01
12  1.1000000000000D-01 -8.2178963045471D-01  4.5581571094481D-01
13  1.2000000000000D-01 -8.8851734049777D-01  4.9123648464801D-01
14  1.3000000000000D-01 -9.5322051168542D-01  5.2500509533824D-01
15  1.4000000000000D-01 -1.0157541591030D+00  5.5695465518103D-01
16  1.5000000000000D-01 -1.0759789008394D+00  5.8691402829560D-01
17  1.6000000000000D-01 -1.1337613508431D+00  6.1470847652840D-01
18  1.7000000000000D-01 -1.1889745013475D+00  6.4016047639443D-01
19  1.8000000000000D-01 -1.2414980944536D+00  6.6309070566449D-01
20  1.9000000000000D-01 -1.2912189805967D+00  6.8331919312070D-01
21  2.0000000000000D-01 -1.3380314640326D+00  7.0066662731298D-01
22  2.1000000000000D-01 -1.3818376317942D+00  7.1495580935093D-01
23  2.2000000000000D-01 -1.4225476669267D+00  7.2601324329906D-01
24  2.3000000000000D-01 -1.4600801431953D+00  7.3367084698444D-01
25  2.4000000000000D-01 -1.4943623000673D+00  7.3776776771627D-01
26  2.5000000000000D-01 -1.5253302952803D+00  7.3815227800337D-01
27  2.6000000000000D-01 -1.5529294373551D+00  7.3468375220332D-01
28  2.7000000000000D-01 -1.5771143899367D+00  7.2723466737204D-01
29  2.8000000000000D-01 -1.5978493528170D+00  7.1569263913717D-01
30  2.9000000000000D-01 -1.6151082149006D+00  6.9996245267932D-01
31  3.0000000000000D-01 -1.6288746774846D+00  6.7996805967037D-01
32  3.1000000000000D-01 -1.6391423481555D+00  6.5565452953148D-01
33  3.2000000000000D-01 -1.6459148022533D+00  6.2698991534775D-01
34  3.3000000000000D-01 -1.6492056107948D+00  5.9396700302589D-01
35  3.4000000000000D-01 -1.6490383365223D+00  5.5660495415556D-01
36  3.5000000000000D-01 -1.6454464930648D+00  5.1495077477160D-01
37  3.6000000000000D-01 -1.6384734686628D+00  4.6908060214223D-01
38  3.7000000000000D-01 -1.6281724132253D+00  4.1910077403869D-01
39  3.8000000000000D-01 -1.6146060893791D+00  3.6514873363651D-01
40  3.9000000000000D-01 -1.5978466841866D+00  3.0739359435565D-01
41  4.0000000000000D-01 -1.5779755850349D+00  2.4603650620178D-01
42  4.1000000000000D-01 -1.5550831173844D+00  1.8131072537461D-01
43  4.2000000000000D-01 -1.5292682453945D+00  1.1348138910020D-01
44  4.3000000000000D-01 -1.5006382352265D+00  4.2844989333952D-02
45  4.4000000000000D-01 -1.4693082840365D+00 -3.0271471424324D-02
46  4.5000000000000D-01 -1.4354011117118D+00 -1.0551163075112D-01
47  4.6000000000000D-01 -1.3990465202992D+00 -1.8249124136560D-01
48  4.7000000000000D-01 -1.3603809202917D+00 -2.6079995955203D-01
49  4.8000000000000D-01 -1.3195468265341D+00 -3.4000344418613D-01
50  4.9000000000000D-01 -1.2766923308508D+00 -4.1964574177962D-01
51  5.0000000000000D-01 -1.2319705496024D+00 -4.9925193876412D-01
52  5.1000000000000D-01 -1.1855389994194D+00 -5.7833124385802D-01
53  5.2000000000000D-01 -1.1375590422185D+00 -6.5638006691849D-01
54  5.3000000000000D-01 -1.0881952655747D+00 -7.3288540139484D-01
55  5.4000000000000D-01 -1.0376147492836D+00 -8.0732885179512D-01
56  5.5000000000000D-01 -9.8598657851834D-01 -8.7918979187936D-01
57  5.6000000000000D-01 -9.3348097705711D-01 -9.4795019124085D-01
58  5.7000000000000D-01 -8.8026885300223D-01 -1.0130977669972D+00
59  5.8000000000000D-01 -8.2652090229286D-01 -1.0741311808154D+00
60  5.9000000000000D-01 -7.7240720136835D-01 -1.1305629793702D+00
61  6.0000000000000D-01 -7.1809620699434D-01 -1.1819254676962D+00
62  6.1000000000000D-01 -6.6375448313368D-01 -1.2277729125245D+00
63  6.2000000000000D-01 -6.0954568438907D-01 -1.2676875655159D+00
64  6.3000000000000D-01 -5.5563012352201D-01 -1.3012826005700D+00
65  6.4000000000000D-01 -5.0216429398089D-01 -1.3282051705414D+00
66  6.5000000000000D-01 -4.4929983182922D-01 -1.3481424927130D+00
67  6.6000000000000D-01 -3.9718334951533D-01 -1.3608230366018D+00
68  6.7000000000000D-01 -3.4595586313360D-01 -1.3660198228670D+00
69  6.8000000000000D-01 -2.9575206661639D-01 -1.3635544528483D+00
70  6.9000000000000D-01 -2.4669995227742D-01 -1.3532990503299D+00
71  7.0000000000000D-01 -1.9892045828354D-01 -1.3351778909982D+00
72  7.1000000000000D-01 -1.5252703299757D-01 -1.3091693154715D+00
73  7.2000000000000D-01 -1.0762532767699D-01 -1.2753067595622D+00
74  7.3000000000000D-01 -6.4312620303834D-02 -1.2336809350125D+00
75  7.4000000000000D-01 -2.2677842735033D-02 -1.1844386260707D+00
76  7.5000000000000D-01  1.7198739111952D-02 -1.1277830867302D+00
77  7.6000000000000D-01  5.5245701609226D-02 -1.0639734359058D+00
78  7.7000000000000D-01  9.1400591371218D-02 -9.9332355604295D-01
79  7.8000000000000D-01  1.2561000454167D-01 -9.1620049576912D-01
80  7.9000000000000D-01  1.5782961750576D-01 -8.3302238221574D-01
81  8.0000000000000D-01  1.8802415152742D-01 -7.4425581462828D-01
82  8.1000000000000D-01  2.1616735338627D-01 -6.5041296402270D-01
83  8.2000000000000D-01  2.4224186646551D-01 -5.5204799450488D-01
84  8.3000000000000D-01  2.6623904547829D-01 -4.4975311996772D-01
85  8.4000000000000D-01  2.8815877690916D-01 -3.4415437222130D-01
86  8.5000000000000D-01  3.0800923898203D-01 -2.3590695745344D-01
87  8.6000000000000D-01  3.2580662257312D-01 -1.2569029151290D-01
88  8.7000000000000D-01  3.4157481559732D-01 -1.4202755186143D-02
89  8.8000000000000D-01  3.5534505364786D-01  9.7843785805660D-02
90  8.9000000000000D-01  3.6715553361911D-01  2.0972940861822D-01
91  9.0000000000000D-01  3.7705103074832D-01  3.2073234620055D-01
92  9.1000000000000D-01  3.8508244600622D-01  4.3013483633745D-01
93  9.2000000000000D-01  3.9130635106099D-01  5.3722885117326D-01
94  9.3000000000000D-01  3.9578452224018D-01  6.4132209889247D-01
95  9.4000000000000D-01  3.9858345644228D-01  7.4174385614851D-01
96  9.5000000000000D-01  3.9977387741570D-01  8.3785066271637D-01
97  9.6000000000000D-01  3.9943023641867D-01  9.2903182015082D-01
98  9.7000000000000D-01  3.9763021132738D-01  1.0147146373449D+00
99  9.8000000000000D-01  3.9445420825559D-01  1.0943693682959D+00
100  9.9000000000000D-01  3.8998499137195D-01  1.1675116122865D+00
101  1.0000000000000D+00  3.8430691540582D-01  1.2337120948111D+00
102  1.0100000000000D+00  3.7750558128408D-01  1.2925972133973D+00
103  1.0200000000000D+00  3.6966743021580D-01  1.3438516047578D+00
104  1.0300000000000D+00  3.6087926843004D-01  1.3872216230590D+00
105  1.0400000000000D+00  3.5122785326459D-01  1.4225175153656D+00
106  1.0500000000000D+00  3.4079985106769D-01  1.4496109052933D+00
107  1.0600000000000D+00  3.2968045679216D-01  1.4684487182152D+00
108  1.0700000000000D+00  3.1795386395970D-01  1.4790424119420D+00
109  1.0800000000000D+00  3.0570281721986D-01  1.4814699310995D+00
110  1.0900000000000D+00  2.9300840705607D-01  1.4758744485809D+00
111  1.1000000000000D+00  2.7994996858617D-01  1.4624625058559D+00
112  1.1100000000000D+00  2.6660362562008D-01  1.4415121215557D+00
113  1.1200000000000D+00  2.5304348075276D-01  1.4133572630111D+00
114  1.1300000000000D+00  2.3934111321450D-01  1.3783886256066D+00
115  1.1400000000000D+00  2.2556590960325D-01  1.3370488203805D+00
116  1.1500000000000D+00  2.1178298252977D-01  1.2898378756961D+00
117  1.1600000000000D+00  1.9805517090652D-01  1.2372960084672D+00
118  1.1700000000000D+00  1.8444271374065D-01  1.1800027831318D+00
119  1.1800000000000D+00  1.7100269641145D-01  1.1185748291745D+00
120  1.1900000000000D+00  1.5778836986124D-01  1.0536570444367D+00
121  1.2000000000000D+00  1.4485062619727D-01  9.8591518497560D-01
122  1.2100000000000D+00  1.3223826454791D-01  9.1603640350101D-01
123  1.2200000000000D+00  1.1999553412328D-01  8.4471236125903D-01
124  1.2300000000000D+00  1.0816469146128D-01  7.7263787227688D-01
125  1.2400000000000D+00  9.6786057176211D-02  7.0051297014500D-01
126  1.2500000000000D+00  8.5896260285971D-02  6.2901940970912D-01
127  1.2600000000000D+00  7.5529703292403D-02  5.5882023023129D-01
128  1.2700000000000D+00  6.5719312776688D-02  4.9057081063022D-01
129  1.2800000000000D+00  5.6494868435148D-02  4.2488437991446D-01
130  1.2900000000000D+00  4.7884195833257D-02  3.6233615537742D-01
131  1.3000000000000D+00  3.9914022677420D-02  3.0348573904654D-01
132  1.3100000000000D+00  3.2608196742158D-02  2.4882115367493D-01
133  1.3200000000000D+00  2.5989172365085D-02  1.9878479265387D-01
134  1.3300000000000D+00  2.0078552359750D-02  1.5379953930877D-01
135  1.3400000000000D+00  1.4895109231062D-02  1.1418003506056D-01
136  1.3500000000000D+00  1.0456997116012D-02  8.0214253345116D-02
137  1.3600000000000D+00  6.7810132810378D-03  5.2135560609844D-02
138  1.3700000000000D+00  3.8818637763833D-03  3.0077881152030D-02
139  1.3800000000000D+00  1.7737941910178D-03  1.4157290205121D-02
140  1.3900000000000D+00  5.2379752476047D-04  4.8242344935430D-03
141  1.4000000000000D+00 -1.4539149153608D-06  9.0165054134331D-04
142  1.4100000000000D+00 -8.3450667238711D-05 -2.0290349459419D-04
143  1.4200000000000D+00  9.2885719996742D-07 -2.5826197418291D-05
144  1.4300000000000D+00  1.1627193007988D-06 -3.2328562674156D-05
145  1.4400000000000D+00  0.0000000000000D+00  0.0000000000000D+00
146  1.4500000000000D+00  0.0000000000000D+00  0.0000000000000D+00
147  1.4600000000000D+00  0.0000000000000D+00  0.0000000000000D+00
148  1.4700000000000D+00  0.0000000000000D+00  0.0000000000000D+00
149  1.4800000000000D+00  0.0000000000000D+00  0.0000000000000D+00
150  1.4900000000000D+00  0.0000000000000D+00  0.0000000000000D+00
151  1.5000000000000D+00  0.0000000000000D+00  0.0000000000000D+00
152  1.5100000000000D+00  0.0000000000000D+00  0.0000000000000D+00
153  1.5200000000000D+00  0.0000000000000D+00  0.0000000000000D+00
154  1.5300000000000D+00  0.0000000000000D+00  0.0000000000000D+00
155  1.5400000000000D+00  0.0000000000000D+00  0.0000000000000D+00
156  1.5500000000000D+00  0.0000000000000D+00  0.0000000000000D+00
157  1.5600000000000D+00  0.0000000000000D+00  0.0000000000000D+00
158  1.5700000000000D+00  0.0000000000000D+00  0.0000000000000D+00
159  1.5800000000000D+00  0.0000000000000D+00  0.0000000000000D+00
160  1.5900000000000D+00  0.0000000000000D+00  0.0000000000000D+00
161  1.6000000000000D+00  0.0000000000000D+00  0.0000000000000D+00
162  1.6100000000000D+00  0.0000000000000D+00  0.0000000000000D+00
163  1.6200000000000D+00  0.0000000000000D+00  0.0000000000000D+00
164  1.6300000000000D+00  0.0000000000000D+00  0.0000000000000D+00
165  1.6400000000000D+00  0.0000000000000D+00  0.0000000000000D+00
166  1.6500000000000D+00  0.0000000000000D+00  0.0000000000000D+00
167  1.6600000000000D+00  0.0000000000000D+00  0.0000000000000D+00
168  1.6700000000000D+00  0.0000000000000D+00  0.0000000000000D+00
169  1.6800000000000D+00  0.0000000000000D+00  0.0000000000000D+00
170  1.6900000000000D+00  0.0000000000000D+00  0.0000000000000D+00
171  1.7000000000000D+00  0.0000000000000D+00  0.0000000000000D+00
172  1.7100000000000D+00  0.0000000000000D+00  0.0000000000000D+00
173  1.7200000000000D+00  0.0000000000000D+00  0.0000000000000D+00
174  1.7300000000000D+00  0.0000000000000D+00  0.0000000000000D+00
175  1.7400000000000D+00  0.0000000000000D+00  0.0000000000000D+00
176  1.7500000000000D+00  0.0000000000000D+00  0.0000000000000D+00
177  1.7600000000000D+00  0.0000000000000D+00  0.0000000000000D+00
178  1.7700000000000D+00  0.0000000000000D+00  0.0000000000000D+00
179  1.7800000000000D+00  0.0000000000000D+00  0.0000000000000D+00
180  1.7900000000000D+00  0.0000000000000D+00  0.0000000000000D+00
181  1.8000000000000D+00  0.0000000000000D+00  0.0000000000000D+00
182  1.8100000000000D+00  0.0000000000000D+00  0.0000000000000D+00
183  1.8200000000000D+00  0.0000000000000D+00  0.0000000000000D+00
184  1.8300000000000D+00  0.0000000000000D+00  0.0000000000000D+00
185  1.8400000000000D+00  0.0000000000000D+00  0.0000000000000D+00
186  1.8500000000000D+00  0.0000000000000D+00  0.0000000000000D+00
187  1.8600000000000D+00  0.0000000000000D+00  0.0000000000000D+00
188  1.8700000000000D+00  0.0000000000000D+00  0.0000000000000D+00
189  1.8800000000000D+00  0.0000000000000D+00  0.0000000000000D+00
190  1.8900000000000D+00  0.0000000000000D+00  0.0000000000000D+00
191  1.9000000000000D+00  0.0000000000000D+00  0.0000000000000D+00
192  1.9100000000000D+00  0.0000000000000D+00  0.0000000000000D+00
193  1.9200000000000D+00  0.0000000000000D+00  0.0000000000000D+00
194  1.9300000000000D+00  0.0000000000000D+00  0.0000000000000D+00
195  1.9400000000000D+00  0.0000000000000D+00  0.0000000000000D+00
196  1.9500000000000D+00  0.0000000000000D+00  0.0000000000000D+00
197  1.9600000000000D+00  0.0000000000000D+00  0.0000000000000D+00
198  1.9700000000000D+00  0.0000000000000D+00  0.0000000000000D+00
199  1.9800000000000D+00  0.0000000000000D+00  0.0000000000000D+00
200  1.9900000000000D+00  0.0000000000000D+00  0.0000000000000D+00
201  2.0000000000000D+00  0.0000000000000D+00  0.0000000000000D+00
202  2.0100000000000D+00  0.0000000000000D+00  0.0000000000000D+00
203  2.0200000000000D+00  0.0000000000000D+00  0.0000000000000D+00
204  2.0300000000000D+00  0.0000000000000D+00  0.0000000000000D+00
205  2.0400000000000D+00  0.0000000000000D+00  0.0000000000000D+00
206  2.0500000000000D+00  0.0000000000000D+00  0.0000000000000D+00
207  2.0600000000000D+00  0.0000000000000D+00  0.0000000000000D+00
208  2.0700000000000D+00  0.0000000000000D+00  0.0000000000000D+00
209  2.0800000000000D+00  0.0000000000000D+00  0.0000000000000D+00
210  2.0900000000000D+00  0.0000000000000D+00  0.0000000000000D+00
211  2.1000000000000D+00  0.0000000000000D+00  0.0000000000000D+00
212  2.1100000000000D+00  0.0000000000000D+00  0.0000000000000D+00
213  2.1200000000000D+00  0.0000000000000D+00  0.0000000000000D+00
214  2.1300000000000D+00  0.0000000000000D+00  0.0000000000000D+00
215  2.1400000000000D+00  0.0000000000000D+00  0.0000000000000D+00
216  2.1500000000000D+00  0.0000000000000D+00  0.0000000000000D+00
217  2.1600000000000D+00  0.0000000000000D+00  0.0000000000000D+00
218  2.1700000000000D+00  0.0000000000000D+00  0.0000000000000D+00
219  2.1800000000000D+00  0.0000000000000D+00  0.0000000000000D+00
220  2.1900000000000D+00  0.0000000000000D+00  0.0000000000000D+00
221  2.2000000000000D+00  0.0000000000000D+00  0.0000000000000D+00
222  2.2100000000000D+00  0.0000000000000D+00  0.0000000000000D+00
223  2.2200000000000D+00  0.0000000000000D+00  0.0000000000000D+00
224  2.2300000000000D+00  0.0000000000000D+00  0.0000000000000D+00
225  2.2400000000000D+00  0.0000000000000D+00  0.0000000000000D+00
226  2.2500000000000D+00  0.0000000000000D+00  0.0000000000000D+00
227  2.2600000000000D+00  0.0000000000000D+00  0.0000000000000D+00
228  2.2700000000000D+00  0.0000000000000D+00  0.0000000000000D+00
229  2.2800000000000D+00  0.0000000000000D+00  0.0000000000000D+00
230  2.2900000000000D+00  0.0000000000000D+00  0.0000000000000D+00
231  2.3000000000000D+00  0.0000000000000D+00  0.0000000000000D+00
232  2.3100000000000D+00  0.0000000000000D+00  0.0000000000000D+00
233  2.3200000000000D+00  0.0000000000000D+00  0.0000000000000D+00
234  2.3300000000000D+00  0.0000000000000D+00  0.0000000000000D+00
235  2.3400000000000D+00  0.0000000000000D+00  0.0000000000000D+00
236  2.3500000000000D+00  0.0000000000000D+00  0.0000000000000D+00
237  2.3600000000000D+00  0.0000000000000D+00  0.0000000000000D+00
238  2.3700000000000D+00  0.0000000000000D+00  0.0000000000000D+00
239  2.3800000000000D+00  0.0000000000000D+00  0.0000000000000D+00
240  2.3900000000000D+00  0.0000000000000D+00  0.0000000000000D+00
241  2.4000000000000D+00  0.0000000000000D+00  0.0000000000000D+00
242  2.4100000000000D+00  0.0000000000000D+00  0.0000000000000D+00
243  2.4200000000000D+00  0.0000000000000D+00  0.0000000000000D+00
244  2.4300000000000D+00  0.0000000000000D+00  0.0000000000000D+00
245  2.4400000000000D+00  0.0000000000000D+00  0.0000000000000D+00
246  2.4500000000000D+00  0.0000000000000D+00  0.0000000000000D+00
247  2.4600000000000D+00  0.0000000000000D+00  0.0000000000000D+00
248  2.4700000000000D+00  0.0000000000000D+00  0.0000000000000D+00
249  2.4800000000000D+00  0.0000000000000D+00  0.0000000000000D+00
250  2.4900000000000D+00  0.0000000000000D+00  0.0000000000000D+00
251  2.5000000000000D+00  0.0000000000000D+00  0.0000000000000D+00
252  2.5100000000000D+00  0.0000000000000D+00  0.0000000000000D+00
253  2.5200000000000D+00  0.0000000000000D+00  0.0000000000000D+00
254  2.5300000000000D+00  0.0000000000000D+00  0.0000000000000D+00
255  2.5400000000000D+00  0.0000000000000D+00  0.0000000000000D+00
256  2.5500000000000D+00  0.0000000000000D+00  0.0000000000000D+00
257  2.5600000000000D+00  0.0000000000000D+00  0.0000000000000D+00
258  2.5700000000000D+00  0.0000000000000D+00  0.0000000000000D+00
259  2.5800000000000D+00  0.0000000000000D+00  0.0000000000000D+00
260  2.5900000000000D+00  0.0000000000000D+00  0.0000000000000D+00
261  2.6000000000000D+00  0.0000000000000D+00  0.0000000000000D+00
262  2.6100000000000D+00  0.0000000000000D+00  0.0000000000000D+00
263  2.6200000000000D+00  0.0000000000000D+00  0.0000000000000D+00
264  2.6300000000000D+00  0.0000000000000D+00  0.0000000000000D+00
265  2.6400000000000D+00  0.0000000000000D+00  0.0000000000000D+00
266  2.6500000000000D+00  0.0000000000000D+00  0.0000000000000D+00
267  2.6600000000000D+00  0.0000000000000D+00  0.0000000000000D+00
268  2.6700000000000D+00  0.0000000000000D+00  0.0000000000000D+00
269  2.6800000000000D+00  0.0000000000000D+00  0.0000000000000D+00
270  2.6900000000000D+00  0.0000000000000D+00  0.0000000000000D+00
271  2.7000000000000D+00  0.0000000000000D+00  0.0000000000000D+00
272  2.7100000000000D+00  0.0000000000000D+00  0.0000000000000D+00
273  2.7200000000000D+00  0.0000000000000D+00  0.0000000000000D+00
274  2.7300000000000D+00  0.0000000000000D+00  0.0000000000000D+00
275  2.7400000000000D+00  0.0000000000000D+00  0.0000000000000D+00
276  2.7500000000000D+00  0.0000000000000D+00  0.0000000000000D+00
277  2.7600000000000D+00  0.0000000000000D+00  0.0000000000000D+00
278  2.7700000000000D+00  0.0000000000000D+00  0.0000000000000D+00
279  2.7800000000000D+00  0.0000000000000D+00  0.0000000000000D+00
280  2.7900000000000D+00  0.0000000000000D+00  0.0000000000000D+00
281  2.8000000000000D+00  0.0000000000000D+00  0.0000000000000D+00
282  2.8100000000000D+00  0.0000000000000D+00  0.0000000000000D+00
283  2.8200000000000D+00  0.0000000000000D+00  0.0000000000000D+00
284  2.8300000000000D+00  0.0000000000000D+00  0.0000000000000D+00
285  2.8400000000000D+00  0.0000000000000D+00  0.0000000000000D+00
286  2.8500000000000D+00  0.0000000000000D+00  0.0000000000000D+00
287  2.8600000000000D+00  0.0000000000000D+00  0.0000000000000D+00
288  2.8700000000000D+00  0.0000000000000D+00  0.0000000000000D+00
289  2.8800000000000D+00  0.0000000000000D+00  0.0000000000000D+00
290  2.8900000000000D+00  0.0000000000000D+00  0.0000000000000D+00
291  2.9000000000000D+00  0.0000000000000D+00  0.0000000000000D+00
292  2.9100000000000D+00  0.0000000000000D+00  0.0000000000000D+00
293  2.9200000000000D+00  0.0000000000000D+00  0.0000000000000D+00
294  2.9300000000000D+00  0.0000000000000D+00  0.0000000000000D+00
295  2.9400000000000D+00  0.0000000000000D+00  0.0000000000000D+00
296  2.9500000000000D+00  0.0000000000000D+00  0.0000000000000D+00
297  2.9600000000000D+00  0.0000000000000D+00  0.0000000000000D+00
298  2.9700000000000D+00  0.0000000000000D+00  0.0000000000000D+00
299  2.9800000000000D+00  0.0000000000000D+00  0.0000000000000D+00
300  2.9900000000000D+00  0.0000000000000D+00  0.0000000000000D+00
301  3.0000000000000D+00  0.0000000000000D+00  0.0000000000000D+00
302  3.0100000000000D+00  0.0000000000000D+00  0.0000000000000D+00
303  3.0200000000000D+00  0.0000000000000D+00  0.0000000000000D+00
304  3.0300000000000D+00  0.0000000000000D+00  0.0000000000000D+00
305  3.0400000000000D+00  0.0000000000000D+00  0.0000000000000D+00
306  3.0500000000000D+00  0.0000000000000D+00  0.0000000000000D+00
307  3.0600000000000D+00  0.0000000000000D+00  0.0000000000000D+00
308  3.0700000000000D+00  0.0000000000000D+00  0.0000000000000D+00
309  3.0800000000000D+00  0.0000000000000D+00  0.0000000000000D+00
310  3.0900000000000D+00  0.0000000000000D+00  0.0000000000000D+00
311  3.1000000000000D+00  0.0000000000000D+00  0.0000000000000D+00
312  3.1100000000000D+00  0.0000000000000D+00  0.0000000000000D+00
313  3.1200000000000D+00  0.0000000000000D+00  0.0000000000000D+00
314  3.1300000000000D+00  0.0000000000000D+00  0.0000000000000D+00
315  3.1400000000000D+00  0.0000000000000D+00  0.0000000000000D+00
316  3.1500000000000D+00  0.0000000000000D+00  0.0000000000000D+00
317  3.1600000000000D+00  0.0000000000000D+00  0.0000000000000D+00
318  3.1700000000000D+00  0.0000000000000D+00  0.0000000000000D+00
319  3.1800000000000D+00  0.0000000000000D+00  0.0000000000000D+00
320  3.1900000000000D+00  0.0000000000000D+00  0.0000000000000D+00
321  3.2000000000000D+00  0.0000000000000D+00  0.0000000000000D+00
322  3.2100000000000D+00  0.0000000000000D+00  0.0000000000000D+00
323  3.2200000000000D+00  0.0000000000000D+00  0.0000000000000D+00
324  3.2300000000000D+00  0.0000000000000D+00  0.0000000000000D+00
325  3.2400000000000D+00  0.0000000000000D+00  0.0000000000000D+00
326  3.2500000000000D+00  0.0000000000000D+00  0.0000000000000D+00
327  3.2600000000000D+00  0.0000000000000D+00  0.0000000000000D+00
328  3.2700000000000D+00  0.0000000000000D+00  0.0000000000000D+00
329  3.2800000000000D+00  0.0000000000000D+00  0.0000000000000D+00
330  3.2900000000000D+00  0.0000000000000D+00  0.0000000000000D+00
331  3.3000000000000D+00  0.0000000000000D+00  0.0000000000000D+00
332  3.3100000000000D+00  0.0000000000000D+00  0.0000000000000D+00
333  3.3200000000000D+00  0.0000000000000D+00  0.0000000000000D+00
334  3.3300000000000D+00  0.0000000000000D+00  0.0000000000000D+00
335  3.3400000000000D+00  0.0000000000000D+00  0.0000000000000D+00
336  3.3500000000000D+00  0.0000000000000D+00  0.0000000000000D+00
337  3.3600000000000D+00  0.0000000000000D+00  0.0000000000000D+00
338  3.3700000000000D+00  0.0000000000000D+00  0.0000000000000D+00
339  3.3800000000000D+00  0.0000000000000D+00  0.0000000000000D+00
340  3.3900000000000D+00  0.0000000000000D+00  0.0000000000000D+00
341  3.4000000000000D+00  0.0000000000000D+00  0.0000000000000D+00
342  3.4100000000000D+00  0.0000000000000D+00  0.0000000000000D+00
343  3.4200000000000D+00  0.0000000000000D+00  0.0000000000000D+00
344  3.4300000000000D+00  0.0000000000000D+00  0.0000000000000D+00
345  3.4400000000000D+00  0.0000000000000D+00  0.0000000000000D+00
346  3.4500000000000D+00  0.0000000000000D+00  0.0000000000000D+00
347  3.4600000000000D+00  0.0000000000000D+00  0.0000000000000D+00
348  3.4700000000000D+00  0.0000000000000D+00  0.0000000000000D+00
349  3.4800000000000D+00  0.0000000000000D+00  0.0000000000000D+00
350  3.4900000000000D+00  0.0000000000000D+00  0.0000000000000D+00
351  3.5000000000000D+00  0.0000000000000D+00  0.0000000000000D+00
352  3.5100000000000D+00  0.0000000000000D+00  0.0000000000000D+00
353  3.5200000000000D+00  0.0000000000000D+00  0.0000000000000D+00
354  3.5300000000000D+00  0.0000000000000D+00  0.0000000000000D+00
355  3.5400000000000D+00  0.0000000000000D+00  0.0000000000000D+00
356  3.5500000000000D+00  0.0000000000000D+00  0.0000000000000D+00
357  3.5600000000000D+00  0.0000000000000D+00  0.0000000000000D+00
358  3.5700000000000D+00  0.0000000000000D+00  0.0000000000000D+00
359  3.5800000000000D+00  0.0000000000000D+00  0.0000000000000D+00
360  3.5900000000000D+00  0.0000000000000D+00  0.0000000000000D+00
361  3.6000000000000D+00  0.0000000000000D+00  0.0000000000000D+00
362  3.6100000000000D+00  0.0000000000000D+00  0.0000000000000D+00
363  3.6200000000000D+00  0.0000000000000D+00  0.0000000000000D+00
364  3.6300000000000D+00  0.0000000000000D+00  0.0000000000000D+00
365  3.6400000000000D+00  0.0000000000000D+00  0.0000000000000D+00
366  3.6500000000000D+00  0.0000000000000D+00  0.0000000000000D+00
367  3.6600000000000D+00  0.0000000000000D+00  0.0000000000000D+00
368  3.6700000000000D+00  0.0000000000000D+00  0.0000000000000D+00
369  3.6800000000000D+00  0.0000000000000D+00  0.0000000000000D+00
370  3.6900000000000D+00  0.0000000000000D+00  0.0000000000000D+00
371  3.7000000000000D+00  0.0000000000000D+00  0.0000000000000D+00
372  3.7100000000000D+00  0.0000000000000D+00  0.0000000000000D+00
373  3.7200000000000D+00  0.0000000000000D+00  0.0000000000000D+00
374  3.7300000000000D+00  0.0000000000000D+00  0.0000000000000D+00
375  3.7400000000000D+00  0.0000000000000D+00  0.0000000000000D+00
376  3.7500000000000D+00  0.0000000000000D+00  0.0000000000000D+00
377  3.7600000000000D+00  0.0000000000000D+00  0.0000000000000D+00
378  3.7700000000000D+00  0.0000000000000D+00  0.0000000000000D+00
379  3.7800000000000D+00  0.0000000000000D+00  0.0000000000000D+00
380  3.7900000000000D+00  0.0000000000000D+00  0.0000000000000D+00
381  3.8000000000000D+00  0.0000000000000D+00  0.0000000000000D+00
382  3.8100000000000D+00  0.0000000000000D+00  0.0000000000000D+00
383  3.8200000000000D+00  0.0000000000000D+00  0.0000000000000D+00
384  3.8300000000000D+00  0.0000000000000D+00  0.0000000000000D+00
385  3.8400000000000D+00  0.0000000000000D+00  0.0000000000000D+00
386  3.8500000000000D+00  0.0000000000000D+00  0.0000000000000D+00
387  3.8600000000000D+00  0.0000000000000D+00  0.0000000000000D+00
388  3.8700000000000D+00  0.0000000000000D+00  0.0000000000000D+00
389  3.8800000000000D+00  0.0000000000000D+00  0.0000000000000D+00
390  3.8900000000000D+00  0.0000000000000D+00  0.0000000000000D+00
391  3.9000000000000D+00  0.0000000000000D+00  0.0000000000000D+00
392  3.9100000000000D+00  0.0000000000000D+00  0.0000000000000D+00
393  3.9200000000000D+00  0.0000000000000D+00  0.0000000000000D+00
394  3.9300000000000D+00  0.0000000000000D+00  0.0000000000000D+00
395  3.9400000000000D+00  0.0000000000000D+00  0.0000000000000D+00
396  3.9500000000000D+00  0.0000000000000D+00  0.0000000000000D+00
397  3.9600000000000D+00  0.0000000000000D+00  0.0000000000000D+00
398  3.9700000000000D+00  0.0000000000000D+00  0.0000000000000D+00
399  3.9800000000000D+00  0.0000000000000D+00  0.0000000000000D+00
400  3.9900000000000D+00  0.0000000000000D+00  0.0000000000000D+00
401  4.0000000000000D+00  0.0000000000000D+00  0.0000000000000D+00
402  4.0100000000000D+00  0.0000000000000D+00  0.0000000000000D+00
403  4.0200000000000D+00  0.0000000000000D+00  0.0000000000000D+00
404  4.0300000000000D+00  0.0000000000000D+00  0.0000000000000D+00
405  4.0400000000000D+00  0.0000000000000D+00  0.0000000000000D+00
406  4.0500000000000D+00  0.0000000000000D+00  0.0000000000000D+00
407  4.0600000000000D+00  0.0000000000000D+00  0.0000000000000D+00
408  4.0700000000000D+00  0.0000000000000D+00  0.0000000000000D+00
409  4.0800000000000D+00  0.0000000000000D+00  0.0000000000000D+00
410  4.0900000000000D+00  0.0000000000000D+00  0.0000000000000D+00
411  4.1000000000000D+00  0.0000000000000D+00  0.0000000000000D+00
412  4.1100000000000D+00  0.0000000000000D+00  0.0000000000000D+00
413  4.1200000000000D+00  0.0000000000000D+00  0.0000000000000D+00
414  4.1300000000000D+00  0.0000000000000D+00  0.0000000000000D+00
415  4.1400000000000D+00  0.0000000000000D+00  0.0000000000000D+00
416  4.1500000000000D+00  0.0000000000000D+00  0.0000000000000D+00
417  4.1600000000000D+00  0.0000000000000D+00  0.0000000000000D+00
418  4.1700000000000D+00  0.0000000000000D+00  0.0000000000000D+00
419  4.1800000000000D+00  0.0000000000000D+00  0.0000000000000D+00
420  4.1900000000000D+00  0.0000000000000D+00  0.0000000000000D+00
421  4.2000000000000D+00  0.0000000000000D+00  0.0000000000000D+00
422  4.2100000000000D+00  0.0000000000000D+00  0.0000000000000D+00
423  4.2200000000000D+00  0.0000000000000D+00  0.0000000000000D+00
424  4.2300000000000D+00  0.0000000000000D+00  0.0000000000000D+00
425  4.2400000000000D+00  0.0000000000000D+00  0.0000000000000D+00
426  4.2500000000000D+00  0.0000000000000D+00  0.0000000000000D+00
427  4.2600000000000D+00  0.0000000000000D+00  0.0000000000000D+00
428  4.2700000000000D+00  0.0000000000000D+00  0.0000000000000D+00
429  4.2800000000000D+00  0.0000000000000D+00  0.0000000000000D+00
430  4.2900000000000D+00  0.0000000000000D+00  0.0000000000000D+00
431  4.3000000000000D+00  0.0000000000000D+00  0.0000000000000D+00
432  4.3100000000000D+00  0.0000000000000D+00  0.0000000000000D+00
433  4.3200000000000D+00  0.0000000000000D+00  0.0000000000000D+00
434  4.3300000000000D+00  0.0000000000000D+00  0.0000000000000D+00
435  4.3400000000000D+00  0.0000000000000D+00  0.0000000000000D+00
436  4.3500000000000D+00  0.0000000000000D+00  0.0000000000000D+00
437  4.3600000000000D+00  0.0000000000000D+00  0.0000000000000D+00
438  4.3700000000000D+00  0.0000000000000D+00  0.0000000000000D+00
439  4.3800000000000D+00  0.0000000000000D+00  0.0000000000000D+00
440  4.3900000000000D+00  0.0000000000000D+00  0.0000000000000D+00
441  4.4000000000000D+00  0.0000000000000D+00  0.0000000000000D+00
442  4.4100000000000D+00  0.0000000000000D+00  0.0000000000000D+00
443  4.4200000000000D+00  0.0000000000000D+00  0.0000000000000D+00
444  4.4300000000000D+00  0.0000000000000D+00  0.0000000000000D+00