Cd    ONCVPSP  r_core=  2.37  2.31  1.87
48.0000     12.0000      141225    zatom,zion,pspd
8    11     2     4   601     0    pspcod,pspxc,lmax,lloc,mmax,r2well
6.00000000  1.00000000  0.00000000    rchrg fchrg qchrg
2     2     2     0     0    nproj
0                 extension_switch
0                         4.8780274201784D+00  5.8695881744694D-01
1  0.0000000000000D+00 -0.0000000000000D+00 -0.0000000000000D+00
2  1.0000000000000D-02 -2.1608041669042D-02 -1.8293137269937D-02
3  2.0000000000000D-02 -4.3200275282516D-02 -3.6568286390869D-02
4  3.0000000000000D-02 -6.4760927522182D-02 -5.4807463751742D-02
5  4.0000000000000D-02 -8.6274294462163D-02 -7.2992694916426D-02
6  5.0000000000000D-02 -1.0772477605938D-01 -9.1106019457879D-02
7  6.0000000000000D-02 -1.2909691039714D-01 -1.0912949608588D-01
8  7.0000000000000D-02 -1.5037540759937D-01 -1.2704520816216D-01
9  8.0000000000000D-02 -1.7154518333364D-01 -1.4483526969334D-01
10  9.0000000000000D-02 -1.9259139181987D-01 -1.6248183188763D-01
11  1.0000000000000D-01 -2.1349945826375D-01 -1.7996709035669D-01
12  1.1000000000000D-01 -2.3425511063154D-01 -1.9727329303767D-01
13  1.2000000000000D-01 -2.5484441068502D-01 -2.1438274890443D-01
14  1.3000000000000D-01 -2.7525378419154D-01 -2.3127783752869D-01
15  1.4000000000000D-01 -2.9547005023946D-01 -2.4794101954858D-01
16  1.5000000000000D-01 -3.1548044955297D-01 -2.6435484808241D-01
17  1.6000000000000D-01 -3.3527267176290D-01 -2.8050198113702D-01
18  1.7000000000000D-01 -3.5483488150598D-01 -2.9636519502085D-01
19  1.8000000000000D-01 -3.7415574332935D-01 -3.1192739880239D-01
20  1.9000000000000D-01 -3.9322444525275D-01 -3.2717164979041D-01
21  2.0000000000000D-01 -4.1203072101158D-01 -3.4208117008636D-01
22  2.1000000000000D-01 -4.3056487076029D-01 -3.5663936411587D-01
23  2.2000000000000D-01 -4.4881778031384D-01 -3.7082983720236D-01
24  2.3000000000000D-01 -4.6678093876592D-01 -3.8463641510339D-01
25  2.4000000000000D-01 -4.8444645443542D-01 -3.9804316448021D-01
26  2.5000000000000D-01 -5.0180706900522D-01 -4.1103441417026D-01
27  2.6000000000000D-01 -5.1885617002647D-01 -4.2359477745081D-01
28  2.7000000000000D-01 -5.3558780132630D-01 -4.3570917480282D-01
29  2.8000000000000D-01 -5.5199667165028D-01 -4.4736285749837D-01
30  2.9000000000000D-01 -5.6807816128398D-01 -4.5854143173299D-01
31  3.0000000000000D-01 -5.8382832659935D-01 -4.6923088315763D-01
32  3.1000000000000D-01 -5.9924390257153D-01 -4.7941760187143D-01
33  3.2000000000000D-01 -6.1432230312844D-01 -4.8908840760290D-01
34  3.3000000000000D-01 -6.2906161931640D-01 -4.9823057487856D-01
35  3.4000000000000D-01 -6.4346061537229D-01 -5.0683185851471D-01
36  3.5000000000000D-01 -6.5751872247780D-01 -5.1488051878684D-01
37  3.6000000000000D-01 -6.7123603030704D-01 -5.2236534631429D-01
38  3.7000000000000D-01 -6.8461327634275D-01 -5.2927568633336D-01
39  3.8000000000000D-01 -6.9765183287270D-01 -5.3560146342610D-01
40  3.9000000000000D-01 -7.1035369179887D-01 -5.4133320409748D-01
41  4.0000000000000D-01 -7.2272144717610D-01 -5.4646205954839D-01
42  4.1000000000000D-01 -7.3475827550796D-01 -5.5097982725159D-01
43  4.2000000000000D-01 -7.4646791384416D-01 -5.5487897140380D-01
44  4.3000000000000D-01 -7.5785463565050D-01 -5.5815264224878D-01
45  4.4000000000000D-01 -7.6892322468452D-01 -5.6079469379599D-01
46  4.5000000000000D-01 -7.7967894659743D-01 -5.6279970040528D-01
47  4.6000000000000D-01 -7.9012751864017D-01 -5.6416297152423D-01
48  4.7000000000000D-01 -8.0027507735075D-01 -5.6488056480912D-01
49  4.8000000000000D-01 -8.1012814438810D-01 -5.6494929738647D-01
50  4.9000000000000D-01 -8.1969359096466D-01 -5.6436675494790D-01
51  5.0000000000000D-01 -8.2897860067145D-01 -5.6313129903195D-01
52  5.1000000000000D-01 -8.3799062738832D-01 -5.6124207394213D-01
53  5.2000000000000D-01 -8.4673735815818D-01 -5.5869900755838D-01
54  5.3000000000000D-01 -8.5522667141296D-01 -5.5550281282857D-01
55  5.4000000000000D-01 -8.6346658725978D-01 -5.5165498871216D-01
56  5.5000000000000D-01 -8.7146523470332D-01 -5.4715781252561D-01
57  5.6000000000000D-01 -8.7923079226492D-01 -5.4201433853985D-01
58  5.7000000000000D-01 -8.8677145686045D-01 -5.3622838578808D-01
59  5.8000000000000D-01 -8.9409538166320D-01 -5.2980453089080D-01
60  5.9000000000000D-01 -9.0121064737952D-01 -5.2274809260404D-01
61  6.0000000000000D-01 -9.0812519185834D-01 -5.1506511905800D-01
62  6.1000000000000D-01 -9.1484678965505D-01 -5.0676236921720D-01
63  6.2000000000000D-01 -9.2138297908628D-01 -4.9784729400469D-01
64  6.3000000000000D-01 -9.2774102933015D-01 -4.8832801474759D-01
65  6.4000000000000D-01 -9.3392790393363D-01 -4.7821330190414D-01
66  6.5000000000000D-01 -9.3995018339852D-01 -4.6751254562616D-01
67  6.6000000000000D-01 -9.4581404900298D-01 -4.5623573250936D-01
68  6.7000000000000D-01 -9.5152523709339D-01 -4.4439341815266D-01
69  6.8000000000000D-01 -9.5708898086017D-01 -4.3199669330328D-01
70  6.9000000000000D-01 -9.6250997629228D-01 -4.1905715364321D-01
71  7.0000000000000D-01 -9.6779234946498D-01 -4.0558686945696D-01
72  7.1000000000000D-01 -9.7293961676235D-01 -3.9159835183337D-01
73  7.2000000000000D-01 -9.7795465392234D-01 -3.7710452061265D-01
74  7.3000000000000D-01 -9.8283964270080D-01 -3.6211866003193D-01
75  7.4000000000000D-01 -9.8759606375795D-01 -3.4665439330187D-01
76  7.5000000000000D-01 -9.9222466175255D-01 -3.3072564404970D-01
77  7.6000000000000D-01 -9.9672542074760D-01 -3.1434660070545D-01
78  7.7000000000000D-01 -1.0010975427144D+00 -2.9753168103046D-01
79  7.8000000000000D-01 -1.0053394292941D+00 -2.8029549699376D-01
80  7.9000000000000D-01 -1.0094486669642D+00 -2.6265282019993D-01
81  8.0000000000000D-01 -1.0134220174562D+00 -2.4461854953345D-01
82  8.1000000000000D-01 -1.0172554059329D+00 -2.2620767497659D-01
83  8.2000000000000D-01 -1.0209439185558D+00 -2.0743524653869D-01
84  8.3000000000000D-01 -1.0244818053882D+00 -1.8831634646966D-01
85  8.4000000000000D-01 -1.0278624825679D+00 -1.6886605891398D-01
86  8.5000000000000D-01 -1.0310785402931D+00 -1.4909944265796D-01
87  8.6000000000000D-01 -1.0341217549061D+00 -1.2903150571546D-01
88  8.7000000000000D-01 -1.0369831051112D+00 -1.0867718190595D-01
89  8.8000000000000D-01 -1.0396527923527D+00 -8.8051309568787D-02
90  8.9000000000000D-01 -1.0421202666668D+00 -6.7168615775815D-02
91  9.0000000000000D-01 -1.0443742515386D+00 -4.6043692612984D-02
92  9.1000000000000D-01 -1.0464027790931D+00 -2.4690985768431D-02
93  9.2000000000000D-01 -1.0481932277533D+00 -3.1247852605762D-03
94  9.3000000000000D-01 -1.0497323624492D+00  1.8640785011793D-02
95  9.4000000000000D-01 -1.0510063794928D+00  4.0591773563668D-02
96  9.5000000000000D-01 -1.0520009552663D+00  6.2714404874433D-02
97  9.6000000000000D-01 -1.0527012985671D+00  8.4995080179267D-02
98  9.7000000000000D-01 -1.0530922064173D+00  1.0742037551246D-01
99  9.8000000000000D-01 -1.0531581231025D+00  1.2997703704358D-01
100  9.9000000000000D-01 -1.0528831902057D+00  1.5265196457519D-01
101  1.0000000000000D+00 -1.0522513367437D+00  1.7543222821521D-01
102  1.0100000000000D+00 -1.0512463386046D+00  1.9830503682653D-01
103  1.0200000000000D+00 -1.0498518831791D+00  2.2125772150701D-01
104  1.0300000000000D+00 -1.0480516452184D+00  2.4427772191486D-01
105  1.0400000000000D+00 -1.0458293606802D+00  2.6735256702135D-01
106  1.0500000000000D+00 -1.0431688534838D+00  2.9046984745581D-01
107  1.0600000000000D+00 -1.0400542455284D+00  3.1361721842005D-01
108  1.0700000000000D+00 -1.0364699358799D+00  3.3678234624339D-01
109  1.0800000000000D+00 -1.0324006946139D+00  3.5995288956413D-01
110  1.0900000000000D+00 -1.0278317272327D+00  3.8311647407488D-01
111  1.1000000000000D+00 -1.0227487190856D+00  4.0626067071521D-01
112  1.1100000000000D+00 -1.0171381327137D+00  4.2937295519008D-01
113  1.1200000000000D+00 -1.0109870613230D+00  4.5244067964463D-01
114  1.1300000000000D+00 -1.0042833555844D+00  4.7545104764051D-01
115  1.1400000000000D+00 -9.9701558885644D-01  4.9839110345402D-01
116  1.1500000000000D+00 -9.8917355875867D-01  5.2124764574227D-01
117  1.1600000000000D+00 -9.8074794522050D-01  5.4400724433321D-01
118  1.1700000000000D+00 -9.7173040954311D-01  5.6665621931454D-01
119  1.1800000000000D+00 -9.6211377262099D-01  5.8918060000761D-01
120  1.1900000000000D+00 -9.5189230518067D-01  6.1156605023015D-01
121  1.2000000000000D+00 -9.4106141237833D-01  6.3379791409570D-01
122  1.2100000000000D+00 -9.2961755516248D-01  6.5586123107975D-01
123  1.2200000000000D+00 -9.1755911803263D-01  6.7774054663978D-01
124  1.2300000000000D+00 -9.0488572435269D-01  6.9942004399231D-01
125  1.2400000000000D+00 -8.9159819694136D-01  7.2088355422254D-01
126  1.2500000000000D+00 -8.7769930492149D-01  7.4211439133500D-01
127  1.2600000000000D+00 -8.6319336005868D-01  7.6309544012300D-01
128  1.2700000000000D+00 -8.4808588721151D-01  7.8380922792268D-01
129  1.2800000000000D+00 -8.3238445920218D-01  8.0423774964774D-01
130  1.2900000000000D+00 -8.1609830561113D-01  8.2436256660289D-01
131  1.3000000000000D+00 -7.9923784076676D-01  8.4416489855120D-01
132  1.3100000000000D+00 -7.8181572880756D-01  8.6362543253303D-01
133  1.3200000000000D+00 -7.6384617097316D-01  8.8272449100603D-01
134  1.3300000000000D+00 -7.4534451534928D-01  9.0144207467846D-01
135  1.3400000000000D+00 -7.2632861926304D-01  9.1975771003642D-01
136  1.3500000000000D+00 -7.0681742839008D-01  9.3765067679288D-01
137  1.3600000000000D+00 -6.8683146508003D-01  9.5509992416414D-01
138  1.3700000000000D+00 -6.6639330972152D-01  9.7208414874759D-01
139  1.3800000000000D+00 -6.4552649646058D-01  9.8858182299452D-01
140  1.3900000000000D+00 -6.2425652125810D-01  1.0045712470944D+00
141  1.4000000000000D+00 -6.0261019510123D-01  1.0200306502557D+00
142  1.4100000000000D+00 -5.8061548993555D-01  1.0349380557188D+00
143  1.4200000000000D+00 -5.5830216457506D-01  1.0492717058452D+00
144  1.4300000000000D+00 -5.3570079263184D-01  1.0630096620336D+00
145  1.4400000000000D+00 -5.1284344856511D-01  1.0761302783248D+00
146  1.4500000000000D+00 -4.8976314609368D-01  1.0886120996761D+00
147  1.4600000000000D+00 -4.6649397401260D-01  1.1004336978523D+00
148  1.4700000000000D+00 -4.4307092004896D-01  1.1115744899678D+00
149  1.4800000000000D+00 -4.1952988243946D-01  1.1220135622446D+00
150  1.4900000000000D+00 -3.9590734662610D-01  1.1317313624066D+00
151  1.5000000000000D+00 -3.7224057383247D-01  1.1407081954215D+00
152  1.5100000000000D+00 -3.4856725417398D-01  1.1489254578872D+00
153  1.5200000000000D+00 -3.2492542385146D-01  1.1563652135758D+00
154  1.5300000000000D+00 -3.0135369493492D-01  1.1630100348913D+00
155  1.5400000000000D+00 -2.7789026150338D-01  1.1688441629565D+00
156  1.5500000000000D+00 -2.5457433527285D-01  1.1738516103136D+00
157  1.5600000000000D+00 -2.3144368596078D-01  1.1780191419327D+00
158  1.5700000000000D+00 -2.0853767863229D-01  1.1813325908923D+00
159  1.5800000000000D+00 -1.8589330512067D-01  1.1837813359151D+00
160  1.5900000000000D+00 -1.6354919052462D-01  1.1853538202386D+00
161  1.6000000000000D+00 -1.4154147965865D-01  1.1860418654853D+00
162  1.6100000000000D+00 -1.1990738888504D-01  1.1858369722080D+00
163  1.6200000000000D+00 -9.8681784343118D-02  1.1847336587625D+00
164  1.6300000000000D+00 -7.7899965424828D-02  1.1827267192620D+00
165  1.6400000000000D+00 -5.7595060121347D-02  1.1798136186247D+00
166  1.6500000000000D+00 -3.7800004775881D-02  1.1759926036852D+00
167  1.6600000000000D+00 -1.8545707988839D-02  1.1712643178292D+00
168  1.6700000000000D+00  1.3763172208854D-04  1.1656305400885D+00
169  1.6800000000000D+00  1.8221819528183D-02  1.1590952901807D+00
170  1.6900000000000D+00  3.5679691799700D-02  1.1516638795563D+00
171  1.7000000000000D+00  5.2486264185129D-02  1.1433438494069D+00
172  1.7100000000000D+00  6.8617623954200D-02  1.1341439690709D+00
173  1.7200000000000D+00  8.4052482716163D-02  1.1240753714209D+00
174  1.7300000000000D+00  9.8770314618149D-02  1.1131501444597D+00
175  1.7400000000000D+00  1.1275398379410D-01  1.1013829810690D+00
176  1.7500000000000D+00  1.2598641457707D-01  1.0887891010344D+00
177  1.7600000000000D+00  1.3845502750250D-01  1.0753865912765D+00
178  1.7700000000000D+00  1.5014620362538D-01  1.0611935932971D+00
179  1.7800000000000D+00  1.6105223950209D-01  1.0462312506923D+00
180  1.7900000000000D+00  1.7116294862772D-01  1.0305204235710D+00
181  1.8000000000000D+00  1.8047569903887D-01  1.0140847654576D+00
182  1.8100000000000D+00  1.8898371727342D-01  9.9694768913367D-01
183  1.8200000000000D+00  1.9668905764832D-01  9.7913458325183D-01
184  1.8300000000000D+00  2.0358961785586D-01  9.6067126837550D-01
185  1.8400000000000D+00  2.0969066558168D-01  9.4158407965559D-01
186  1.8500000000000D+00  2.1499543604512D-01  9.2190044859680D-01
187  1.8600000000000D+00  2.1951192401642D-01  9.0164751272957D-01
188  1.8700000000000D+00  2.2324864739684D-01  8.8085268274309D-01
189  1.8800000000000D+00  2.2621617863970D-01  8.5954459483469D-01
190  1.8900000000000D+00  2.2842832675733D-01  8.3775268666289D-01
191  1.9000000000000D+00  2.2989813591453D-01  8.1550693373124D-01
192  1.9100000000000D+00  2.3064458493826D-01  7.9284140841019D-01
193  1.9200000000000D+00  2.3068363856390D-01  7.6978864233393D-01
194  1.9300000000000D+00  2.3003810377910D-01  7.4638586856824D-01
195  1.9400000000000D+00  2.2872868718700D-01  7.2266944646130D-01
196  1.9500000000000D+00  2.2677999595770D-01  6.9867831227146D-01
197  1.9600000000000D+00  2.2421767961440D-01  6.7445247294732D-01
198  1.9700000000000D+00  2.2106815899026D-01  6.5003267743562D-01
199  1.9800000000000D+00  2.1736121177883D-01  6.2546158832825D-01
200  1.9900000000000D+00  2.1312543166765D-01  6.0078216956965D-01
201  2.0000000000000D+00  2.0839329696528D-01  5.7603859078368D-01
202  2.0100000000000D+00  2.0319679421359D-01  5.5127602675852D-01
203  2.0200000000000D+00  1.9756952709506D-01  5.2653977047346D-01
204  2.0300000000000D+00  1.9154623210303D-01  5.0187591520787D-01
205  2.0400000000000D+00  1.8516222053062D-01  4.7733162723090D-01
206  2.0500000000000D+00  1.7845348213000D-01  4.5295244670766D-01
207  2.0600000000000D+00  1.7145737573790D-01  4.2878698369083D-01
208  2.0700000000000D+00  1.6421052916601D-01  4.0488065567268D-01
209  2.0800000000000D+00  1.5675086550647D-01  3.8128064096057D-01
210  2.0900000000000D+00  1.4911677229265D-01  3.5803442184057D-01
211  2.1000000000000D+00  1.4134489559589D-01  3.3518553205398D-01
212  2.1100000000000D+00  1.3347535114149D-01  3.1278284949757D-01
213  2.1200000000000D+00  1.2554402622733D-01  2.9086794399900D-01
214  2.1300000000000D+00  1.1758901403249D-01  2.6948531595678D-01
215  2.1400000000000D+00  1.0964874295046D-01  2.4867960911807D-01
216  2.1500000000000D+00  1.0175701833393D-01  2.2848821346068D-01
217  2.1600000000000D+00  9.3953194363949D-02  2.0895611593323D-01
218  2.1700000000000D+00  8.6269803288576D-02  1.9011836154123D-01
219  2.1800000000000D+00  7.8740668707479D-02  1.7201141141873D-01
220  2.1900000000000D+00  7.1402483393066D-02  1.5467533763861D-01
221  2.2000000000000D+00  6.4282226184449D-02  1.3813671374880D-01
222  2.2100000000000D+00  5.7414143812482D-02  1.2243153403321D-01
223  2.2200000000000D+00  5.0826527251949D-02  1.0758760750126D-01
224  2.2300000000000D+00  4.4543883901247D-02  9.3627429568984D-02
225  2.2400000000000D+00  3.8598950694197D-02  8.0583935230518D-02
226  2.2500000000000D+00  3.3009743654642D-02  6.8470650152722D-02
227  2.2600000000000D+00  2.7799865178297D-02  5.7308019303751D-02
228  2.2700000000000D+00  2.2994179163114D-02  4.7117816398098D-02
229  2.2800000000000D+00  1.8604608023054D-02  3.7904947241232D-02
230  2.2900000000000D+00  1.4652326337940D-02  2.9685817018315D-02
231  2.3000000000000D+00  1.1151108772940D-02  2.2467156233685D-02
232  2.3100000000000D+00  8.1085092295553D-03  1.6247515460347D-02
233  2.3200000000000D+00  5.5417394933618D-03  1.1037338298669D-02
234  2.3300000000000D+00  3.4528848060918D-03  6.8277402404807D-03
235  2.3400000000000D+00  1.8459942576576D-03  3.6126667821654D-03
236  2.3500000000000D+00  8.2237944941917D-04  1.5662021663063D-03
237  2.3600000000000D+00  2.0248419037106D-04  3.3806611900250D-04
238  2.3700000000000D+00 -9.7625527923125D-05 -2.4407270376099D-04
239  2.3800000000000D+00 -1.6297702934616D-04 -3.5505459544688D-04
240  2.3900000000000D+00 -8.4231756734332D-05 -1.7861262546514D-04
241  2.4000000000000D+00  2.0983119390281D-06  6.0655878626432D-06
242  2.4100000000000D+00  3.9114326952855D-06  1.1306773907534D-05
243  2.4200000000000D+00  1.7947794356265D-06  5.1881668108413D-06
244  2.4300000000000D+00  0.0000000000000D+00  0.0000000000000D+00
245  2.4400000000000D+00  0.0000000000000D+00  0.0000000000000D+00
246  2.4500000000000D+00  0.0000000000000D+00  0.0000000000000D+00
247  2.4600000000000D+00  0.0000000000000D+00  0.0000000000000D+00
248  2.4700000000000D+00  0.0000000000000D+00  0.0000000000000D+00
249  2.4800000000000D+00  0.0000000000000D+00  0.0000000000000D+00
250  2.4900000000000D+00  0.0000000000000D+00  0.0000000000000D+00
251  2.5000000000000D+00  0.0000000000000D+00  0.0000000000000D+00
252  2.5100000000000D+00  0.0000000000000D+00  0.0000000000000D+00
253  2.5200000000000D+00  0.0000000000000D+00  0.0000000000000D+00
254  2.5300000000000D+00  0.0000000000000D+00  0.0000000000000D+00
255  2.5400000000000D+00  0.0000000000000D+00  0.0000000000000D+00
256  2.5500000000000D+00  0.0000000000000D+00  0.0000000000000D+00
257  2.5600000000000D+00  0.0000000000000D+00  0.0000000000000D+00
258  2.5700000000000D+00  0.0000000000000D+00  0.0000000000000D+00
259  2.5800000000000D+00  0.0000000000000D+00  0.0000000000000D+00
260  2.5900000000000D+00  0.0000000000000D+00  0.0000000000000D+00
261  2.6000000000000D+00  0.0000000000000D+00  0.0000000000000D+00
262  2.6100000000000D+00  0.0000000000000D+00  0.0000000000000D+00
263  2.6200000000000D+00  0.0000000000000D+00  0.0000000000000D+00
264  2.6300000000000D+00  0.0000000000000D+00  0.0000000000000D+00
265  2.6400000000000D+00  0.0000000000000D+00  0.0000000000000D+00
266  2.6500000000000D+00  0.0000000000000D+00  0.0000000000000D+00
267  2.6600000000000D+00  0.0000000000000D+00  0.0000000000000D+00
268  2.6700000000000D+00  0.0000000000000D+00  0.0000000000000D+00
269  2.6800000000000D+00  0.0000000000000D+00  0.0000000000000D+00
270  2.6900000000000D+00  0.0000000000000D+00  0.0000000000000D+00
271  2.7000000000000D+00  0.0000000000000D+00  0.0000000000000D+00
272  2.7100000000000D+00  0.0000000000000D+00  0.0000000000000D+00
273  2.7200000000000D+00  0.0000000000000D+00  0.0000000000000D+00
274  2.7300000000000D+00  0.0000000000000D+00  0.0000000000000D+00
275  2.7400000000000D+00  0.0000000000000D+00  0.0000000000000D+00
276  2.7500000000000D+00  0.0000000000000D+00  0.0000000000000D+00
277  2.7600000000000D+00  0.0000000000000D+00  0.0000000000000D+00
278  2.7700000000000D+00  0.0000000000000D+00  0.0000000000000D+00
279  2.7800000000000D+00  0.0000000000000D+00  0.0000000000000D+00
280  2.7900000000000D+00  0.0000000000000D+00  0.0000000000000D+00
281  2.8000000000000D+00  0.0000000000000D+00  0.0000000000000D+00
282  2.8100000000000D+00  0.0000000000000D+00  0.0000000000000D+00
283  2.8200000000000D+00  0.0000000000000D+00  0.0000000000000D+00
284  2.8300000000000D+00  0.0000000000000D+00  0.0000000000000D+00
285  2.8400000000000D+00  0.0000000000000D+00  0.0000000000000D+00
286  2.8500000000000D+00  0.0000000000000D+00  0.0000000000000D+00
287  2.8600000000000D+00  0.0000000000000D+00  0.0000000000000D+00
288  2.8700000000000D+00  0.0000000000000D+00  0.0000000000000D+00
289  2.8800000000000D+00  0.0000000000000D+00  0.0000000000000D+00
290  2.8900000000000D+00  0.0000000000000D+00  0.0000000000000D+00
291  2.9000000000000D+00  0.0000000000000D+00  0.0000000000000D+00
292  2.9100000000000D+00  0.0000000000000D+00  0.0000000000000D+00
293  2.9200000000000D+00  0.0000000000000D+00  0.0000000000000D+00
294  2.9300000000000D+00  0.0000000000000D+00  0.0000000000000D+00
295  2.9400000000000D+00  0.0000000000000D+00  0.0000000000000D+00
296  2.9500000000000D+00  0.0000000000000D+00  0.0000000000000D+00
297  2.9600000000000D+00  0.0000000000000D+00  0.0000000000000D+00
298  2.9700000000000D+00  0.0000000000000D+00  0.0000000000000D+00
299  2.9800000000000D+00  0.0000000000000D+00  0.0000000000000D+00
300  2.9900000000000D+00  0.0000000000000D+00  0.0000000000000D+00
301  3.0000000000000D+00  0.0000000000000D+00  0.0000000000000D+00
302  3.0100000000000D+00  0.0000000000000D+00  0.0000000000000D+00
303  3.0200000000000D+00  0.0000000000000D+00  0.0000000000000D+00
304  3.0300000000000D+00  0.0000000000000D+00  0.0000000000000D+00
305  3.0400000000000D+00  0.0000000000000D+00  0.0000000000000D+00
306  3.0500000000000D+00  0.0000000000000D+00  0.0000000000000D+00
307  3.0600000000000D+00  0.0000000000000D+00  0.0000000000000D+00
308  3.0700000000000D+00  0.0000000000000D+00  0.0000000000000D+00
309  3.0800000000000D+00  0.0000000000000D+00  0.0000000000000D+00
310  3.0900000000000D+00  0.0000000000000D+00  0.0000000000000D+00
311  3.1000000000000D+00  0.0000000000000D+00  0.0000000000000D+00
312  3.1100000000000D+00  0.0000000000000D+00  0.0000000000000D+00
313  3.1200000000000D+00  0.0000000000000D+00  0.0000000000000D+00
314  3.1300000000000D+00  0.0000000000000D+00  0.0000000000000D+00
315  3.1400000000000D+00  0.0000000000000D+00  0.0000000000000D+00
316  3.1500000000000D+00  0.0000000000000D+00  0.0000000000000D+00
317  3.1600000000000D+00  0.0000000000000D+00  0.0000000000000D+00
318  3.1700000000000D+00  0.0000000000000D+00  0.0000000000000D+00
319  3.1800000000000D+00  0.0000000000000D+00  0.0000000000000D+00
320  3.1900000000000D+00  0.0000000000000D+00  0.0000000000000D+00
321  3.2000000000000D+00  0.0000000000000D+00  0.0000000000000D+00
322  3.2100000000000D+00  0.0000000000000D+00  0.0000000000000D+00
323  3.2200000000000D+00  0.0000000000000D+00  0.0000000000000D+00
324  3.2300000000000D+00  0.0000000000000D+00  0.0000000000000D+00
325  3.2400000000000D+00  0.0000000000000D+00  0.0000000000000D+00
326  3.2500000000000D+00  0.0000000000000D+00  0.0000000000000D+00
327  3.2600000000000D+00  0.0000000000000D+00  0.0000000000000D+00
328  3.2700000000000D+00  0.0000000000000D+00  0.0000000000000D+00
329  3.2800000000000D+00  0.0000000000000D+00  0.0000000000000D+00
330  3.2900000000000D+00  0.0000000000000D+00  0.0000000000000D+00
331  3.3000000000000D+00  0.0000000000000D+00  0.0000000000000D+00
332  3.3100000000000D+00  0.0000000000000D+00  0.0000000000000D+00
333  3.3200000000000D+00  0.0000000000000D+00  0.0000000000000D+00
334  3.3300000000000D+00  0.0000000000000D+00  0.0000000000000D+00
335  3.3400000000000D+00  0.0000000000000D+00  0.0000000000000D+00
336  3.3500000000000D+00  0.0000000000000D+00  0.0000000000000D+00
337  3.3600000000000D+00  0.0000000000000D+00  0.0000000000000D+00
338  3.3700000000000D+00  0.0000000000000D+00  0.0000000000000D+00
339  3.3800000000000D+00  0.0000000000000D+00  0.0000000000000D+00
340  3.3900000000000D+00  0.0000000000000D+00  0.0000000000000D+00
341  3.4000000000000D+00  0.0000000000000D+00  0.0000000000000D+00
342  3.4100000000000D+00  0.0000000000000D+00  0.0000000000000D+00
343  3.4200000000000D+00  0.0000000000000D+00  0.0000000000000D+00
344  3.4300000000000D+00  0.0000000000000D+00  0.0000000000000D+00
345  3.4400000000000D+00  0.0000000000000D+00  0.0000000000000D+00
346  3.4500000000000D+00  0.0000000000000D+00  0.0000000000000D+00
347  3.4600000000000D+00  0.0000000000000D+00  0.0000000000000D+00
348  3.4700000000000D+00  0.0000000000000D+00  0.0000000000000D+00
349  3.4800000000000D+00  0.0000000000000D+00  0.0000000000000D+00
350  3.4900000000000D+00  0.0000000000000D+00  0.0000000000000D+00
351  3.5000000000000D+00  0.0000000000000D+00  0.0000000000000D+00
352  3.5100000000000D+00  0.0000000000000D+00  0.0000000000000D+00
353  3.5200000000000D+00  0.0000000000000D+00  0.0000000000000D+00
354  3.5300000000000D+00  0.0000000000000D+00  0.0000000000000D+00
355  3.5400000000000D+00  0.0000000000000D+00  0.0000000000000D+00
356  3.5500000000000D+00  0.0000000000000D+00  0.0000000000000D+00
357  3.5600000000000D+00  0.0000000000000D+00  0.0000000000000D+00
358  3.5700000000000D+00  0.0000000000000D+00  0.0000000000000D+00
359  3.5800000000000D+00  0.0000000000000D+00  0.0000000000000D+00
360  3.5900000000000D+00  0.0000000000000D+00  0.0000000000000D+00
361  3.6000000000000D+00  0.0000000000000D+00  0.0000000000000D+00
362  3.6100000000000D+00  0.0000000000000D+00  0.0000000000000D+00
363  3.6200000000000D+00  0.0000000000000D+00  0.0000000000000D+00
364  3.6300000000000D+00  0.0000000000000D+00  0.0000000000000D+00
365  3.6400000000000D+00  0.0000000000000D+00  0.0000000000000D+00
366  3.6500000000000D+00  0.0000000000000D+00  0.0000000000000D+00
367  3.6600000000000D+00  0.0000000000000D+00  0.0000000000000D+00
368  3.6700000000000D+00  0.0000000000000D+00  0.0000000000000D+00
369  3.6800000000000D+00  0.0000000000000D+00  0.0000000000000D+00
370  3.6900000000000D+00  0.0000000000000D+00  0.0000000000000D+00
371  3.7000000000000D+00  0.0000000000000D+00  0.0000000000000D+00
372  3.7100000000000D+00  0.0000000000000D+00  0.0000000000000D+00
373  3.7200000000000D+00  0.0000000000000D+00  0.0000000000000D+00
374  3.7300000000000D+00  0.0000000000000D+00  0.0000000000000D+00
375  3.7400000000000D+00  0.0000000000000D+00  0.0000000000000D+00
376  3.7500000000000D+00  0.0000000000000D+00  0.0000000000000D+00
377  3.7600000000000D+00  0.0000000000000D+00  0.0000000000000D+00
378  3.7700000000000D+00  0.0000000000000D+00  0.0000000000000D+00
379  3.7800000000000D+00  0.0000000000000D+00  0.0000000000000D+00
380  3.7900000000000D+00  0.0000000000000D+00  0.0000000000000D+00
381  3.8000000000000D+00  0.0000000000000D+00  0.0000000000000D+00
382  3.8100000000000D+00  0.0000000000000D+00  0.0000000000000D+00
383  3.8200000000000D+00  0.0000000000000D+00  0.0000000000000D+00
384  3.8300000000000D+00  0.0000000000000D+00  0.0000000000000D+00
385  3.8400000000000D+00  0.0000000000000D+00  0.0000000000000D+00
386  3.8500000000000D+00  0.0000000000000D+00  0.0000000000000D+00
387  3.8600000000000D+00  0.0000000000000D+00  0.0000000000000D+00
388  3.8700000000000D+00  0.0000000000000D+00  0.0000000000000D+00
389  3.8800000000000D+00  0.0000000000000D+00  0.0000000000000D+00
390  3.8900000000000D+00  0.0000000000000D+00  0.0000000000000D+00
391  3.9000000000000D+00  0.0000000000000D+00  0.0000000000000D+00
392  3.9100000000000D+00  0.0000000000000D+00  0.0000000000000D+00
393  3.9200000000000D+00  0.0000000000000D+00  0.0000000000000D+00
394  3.9300000000000D+00  0.0000000000000D+00  0.0000000000000D+00
395  3.9400000000000D+00  0.0000000000000D+00  0.0000000000000D+00
396  3.9500000000000D+00  0.0000000000000D+00  0.0000000000000D+00
397  3.9600000000000D+00  0.0000000000000D+00  0.0000000000000D+00
398  3.9700000000000D+00  0.0000000000000D+00  0.0000000000000D+00
399  3.9800000000000D+00  0.0000000000000D+00  0.0000000000000D+00
400  3.9900000000000D+00  0.0000000000000D+00  0.0000000000000D+00
401  4.0000000000000D+00  0.0000000000000D+00  0.0000000000000D+00
402  4.0100000000000D+00  0.0000000000000D+00  0.0000000000000D+00
403  4.0200000000000D+00  0.0000000000000D+00  0.0000000000000D+00
404  4.0300000000000D+00  0.0000000000000D+00  0.0000000000000D+00
405  4.0400000000000D+00  0.0000000000000D+00  0.0000000000000D+00
406  4.0500000000000D+00  0.0000000000000D+00  0.0000000000000D+00
407  4.0600000000000D+00  0.0000000000000D+00  0.0000000000000D+00
408  4.0700000000000D+00  0.0000000000000D+00  0.0000000000000D+00
409  4.0800000000000D+00  0.0000000000000D+00  0.0000000000000D+00
410  4.0900000000000D+00  0.0000000000000D+00  0.0000000000000D+00
411  4.1000000000000D+00  0.0000000000000D+00  0.0000000000000D+00
412  4.1100000000000D+00  0.0000000000000D+00  0.0000000000000D+00
413  4.1200000000000D+00  0.0000000000000D+00  0.0000000000000D+00
414  4.1300000000000D+00  0.0000000000000D+00  0.0000000000000D+00
415  4.1400000000000D+00  0.0000000000000D+00  0.0000000000000D+00
416  4.1500000000000D+00  0.0000000000000D+00  0.0000000000000D+00
417  4.1600000000000D+00  0.0000000000000D+00  0.0000000000000D+00
418  4.1700000000000D+00  0.0000000000000D+00  0.0000000000000D+00
419  4.1800000000000D+00  0.0000000000000D+00  0.0000000000000D+00
420  4.1900000000000D+00  0.0000000000000D+00  0.0000000000000D+00
421  4.2000000000000D+00  0.0000000000000D+00  0.0000000000000D+00
422  4.2100000000000D+00  0.0000000000000D+00  0.0000000000000D+00
423  4.2200000000000D+00  0.0000000000000D+00  0.0000000000000D+00
424  4.2300000000000D+00  0.0000000000000D+00  0.0000000000000D+00
425  4.2400000000000D+00  0.0000000000000D+00  0.0000000000000D+00
426  4.2500000000000D+00  0.0000000000000D+00  0.0000000000000D+00
427  4.2600000000000D+00  0.0000000000000D+00  0.0000000000000D+00
428  4.2700000000000D+00  0.0000000000000D+00  0.0000000000000D+00
429  4.2800000000000D+00  0.0000000000000D+00  0.0000000000000D+00
430  4.2900000000000D+00  0.0000000000000D+00  0.0000000000000D+00
431  4.3000000000000D+00  0.0000000000000D+00  0.0000000000000D+00
432  4.3100000000000D+00  0.0000000000000D+00  0.0000000000000D+00
433  4.3200000000000D+00  0.0000000000000D+00  0.0000000000000D+00
434  4.3300000000000D+00  0.0000000000000D+00  0.0000000000000D+00
435  4.3400000000000D+00  0.0000000000000D+00  0.0000000000000D+00
436  4.3500000000000D+00  0.0000000000000D+00  0.0000000000000D+00
437  4.3600000000000D+00  0.0000000000000D+00  0.0000000000000D+00
438  4.3700000000000D+00  0.0000000000000D+00  0.0000000000000D+00
439  4.3800000000000D+00  0.0000000000000D+00  0.0000000000000D+00
440  4.3900000000000D+00  0.0000000000000D+00  0.0000000000000D+00
441  4.4000000000000D+00  0.0000000000000D+00  0.0000000000000D+00
442  4.4100000000000D+00  0.0000000000000D+00  0.0000000000000D+00
443  4.4200000000000D+00  0.0000000000000D+00  0.0000000000000D+00
444  4.4300000000000D+00  0.0000000000000D+00  0.0000000000000D+00