Re    ONCVPSP-3.2.3  r_core=   1.60865   1.60865   1.60865   2.01786
75.0000     15.0000      170222    zatom,zion,pspd
8      11   3     4   600     0    pspcod,pspxc,lmax,lloc,mmax,r2well
5.99000000  4.00000000  0.00000000    rchrg fchrg qchrg
2     4     4     4    nproj
3     1           extension_switch
4     4     4    nprojso
0                        -8.4387021259081D-01  6.3939583517096D+00
1  0.0000000000000D+00  2.9053661143585D-09  2.0921975263377D-10
2  1.0000000000000D-02 -6.2393139238064D-02  5.4089398812259D-02
3  2.0000000000000D-02 -1.2428946334466D-01  1.0812405567851D-01
4  3.0000000000000D-02 -1.8519746785036D-01  1.6204900324634D-01
5  4.0000000000000D-02 -2.4463620658534D-01  2.1580882768157D-01
6  5.0000000000000D-02 -3.0214041401584D-01  2.6934745620116D-01
7  6.0000000000000D-02 -3.5726544148973D-01  3.2260795738460D-01
8  7.0000000000000D-02 -4.0959194881068D-01  3.7553235827481D-01
9  8.0000000000000D-02 -4.5873029546552D-01  4.2806148207048D-01
10  9.0000000000000D-02 -5.0432457939840D-01  4.8013480995487D-01
11  1.0000000000000D-01 -5.4605627541512D-01  5.3169037030416D-01
12  1.1000000000000D-01 -5.8364743006472D-01  5.8266465817538D-01
13  1.2000000000000D-01 -6.1686337512694D-01  6.3299258759362D-01
14  1.3000000000000D-01 -6.4551492757280D-01  6.8260747874457D-01
15  1.4000000000000D-01 -6.6946004999395D-01  7.3144108173693D-01
16  1.5000000000000D-01 -6.8860495194478D-01  7.7942363813430D-01
17  1.6000000000000D-01 -7.0290461933250D-01  8.2648398097395D-01
18  1.7000000000000D-01 -7.1236276584816D-01  8.7254967349510D-01
19  1.8000000000000D-01 -7.1703120737509D-01  9.1754718629867D-01
20  1.9000000000000D-01 -7.1700866725813D-01  9.6140211215894D-01
21  2.0000000000000D-01 -7.1243902718706D-01  1.0040394172119D+00
22  2.1000000000000D-01 -7.0350904515917D-01  1.0453837267602D+00
23  2.2000000000000D-01 -6.9044556845862D-01  1.0853596434673D+00
24  2.3000000000000D-01 -6.7351227574860D-01  1.1238920952677D+00
25  2.4000000000000D-01 -6.5300598814087D-01  1.1609067099043D+00
26  2.5000000000000D-01 -6.2925259441883D-01  1.1963302126174D+00
27  2.6000000000000D-01 -6.0260264037764D-01  1.2300908431665D+00
28  2.7000000000000D-01 -5.7342663645199D-01  1.2621187880576D+00
29  2.8000000000000D-01 -5.4211014137550D-01  1.2923466235930D+00
30  2.9000000000000D-01 -5.0904868251000D-01  1.3207097651484D+00
31  3.0000000000000D-01 -4.7464257566264D-01  1.3471469179243D+00
32  3.1000000000000D-01 -4.3929170864174D-01  1.3716005243155D+00
33  3.2000000000000D-01 -4.0339035347133D-01  1.3940172029914D+00
34  3.3000000000000D-01 -3.6732207207452D-01  1.4143481747907D+00
35  3.4000000000000D-01 -3.3145477934626D-01  1.4325496705949D+00
36  3.5000000000000D-01 -2.9613602587226D-01  1.4485833164689D+00
37  3.6000000000000D-01 -2.6168856012823D-01  1.4624164915320D+00
38  3.7000000000000D-01 -2.2840622683607D-01  1.4740226542530D+00
39  3.8000000000000D-01 -1.9655025429570D-01  1.4833816331452D+00
40  3.9000000000000D-01 -1.6634597899175D-01  1.4904798781665D+00
41  4.0000000000000D-01 -1.3798005064583D-01  1.4953106695080D+00
42  4.1000000000000D-01 -1.1159815520176D-01  1.4978742808678D+00
43  4.2000000000000D-01 -8.7303287058858D-02  1.4981780947643D+00
44  4.3000000000000D-01 -6.5154595276144D-02  1.4962366679273D+00
45  4.4000000000000D-01 -4.5166821533633D-02  1.4920717453152D+00
46  4.5000000000000D-01 -2.7310340436454D-02  1.4857122218454D+00
47  4.6000000000000D-01 -1.1511805366595D-02  1.4771940514656D+00
48  4.7000000000000D-01  2.3446043875845D-03  1.4665601037575D+00
49  4.8000000000000D-01  1.4415346974099D-02  1.4538599688166D+00
50  4.9000000000000D-01  2.4895110938303D-02  1.4391497117142D+00
51  5.0000000000000D-01  3.4013864171723D-02  1.4224915783843D+00
52  5.1000000000000D-01  4.2033392181736D-02  1.4039536553140D+00
53  5.2000000000000D-01  4.9243365634041D-02  1.3836094859147D+00
54  5.3000000000000D-01  5.5956983306854D-02  1.3615376469332D+00
55  5.4000000000000D-01  6.2506242285189D-02  1.3378212886982D+00
56  5.5000000000000D-01  6.9236892330424D-02  1.3125476434057D+00
57  5.6000000000000D-01  7.6503135820821D-02  1.2858075059997D+00
58  5.7000000000000D-01  8.4662138428857D-02  1.2576946925165D+00
59  5.8000000000000D-01  9.4068418699571D-02  1.2283054810135D+00
60  5.9000000000000D-01  1.0506818691363D-01  1.1977380404067D+00
61  6.0000000000000D-01  1.1799370499298D-01  1.1660918526781D+00
62  6.1000000000000D-01  1.3315773973499D-01  1.1334671339967D+00
63  6.2000000000000D-01  1.5084818131621D-01  1.0999642603139D+00
64  6.3000000000000D-01  1.7132289778750D-01  1.0656832029477D+00
65  6.4000000000000D-01  1.9480489419253D-01  1.0307229795666D+00
66  6.5000000000000D-01  2.2147784201374D-01  9.9518112580961D-01
67  6.6000000000000D-01  2.5148204087278D-01  9.5915319255424D-01
68  6.7000000000000D-01  2.8491086986260D-01  9.2273227355454D-01
69  6.8000000000000D-01  3.2180778061382D-01  8.8600856783072D-01
70  6.9000000000000D-01  3.6216387818663D-01  8.4906898079813D-01
71  7.0000000000000D-01  4.0591612929898D-01  8.1199676768360D-01
72  7.1000000000000D-01  4.5294623023452D-01  7.7487122229514D-01
73  7.2000000000000D-01  5.0308015917811D-01  7.3776741369362D-01
74  7.3000000000000D-01  5.5608842968091D-01  7.0075597276342D-01
75  7.4000000000000D-01  6.1168705368851D-01  6.6390293010689D-01
76  7.5000000000000D-01  6.6953921405902D-01  6.2726960609503D-01
77  7.6000000000000D-01  7.2925763790506D-01  5.9091255330385D-01
78  7.7000000000000D-01  7.9040765350206D-01  5.5488355095856D-01
79  7.8000000000000D-01  8.5251090504319D-01  5.1922965040529D-01
80  7.9000000000000D-01  9.1504969121331D-01  4.8399327003382D-01
81  8.0000000000000D-01  9.7747188562040D-01  4.4921233750035D-01
82  8.1000000000000D-01  1.0391963895560D+00  4.1492047654649D-01
83  8.2000000000000D-01  1.0996190605049D+00  3.8114723518911D-01
84  8.3000000000000D-01  1.1581190533628D+00  3.4791835157173D-01
85  8.4000000000000D-01  1.2140655055374D+00  3.1525605332740D-01
86  8.5000000000000D-01  1.2668244920702D+00  2.8317938591051D-01
87  8.6000000000000D-01  1.3157661727057D+00  2.5170456501676D-01
88  8.7000000000000D-01  1.3602720494944D+00  2.2084534792998D-01
89  8.8000000000000D-01  1.3997422511096D+00  1.9061341841554D-01
90  8.9000000000000D-01  1.4336027586141D+00  1.6101877962643D-01
91  9.0000000000000D-01  1.4613124869643D+00  1.3207014940051D-01
92  9.1000000000000D-01  1.4823701370992D+00  1.0377535230904D-01
93  9.2000000000000D-01  1.4963207350387D+00  7.6141702866647D-02
94  9.3000000000000D-01  1.5027617769928D+00  4.9176374432126D-02
95  9.4000000000000D-01  1.5013489030486D+00  2.2886748515830D-02
96  9.5000000000000D-01  1.4918010265401D+00 -2.7192605363277D-03
97  9.6000000000000D-01  1.4739048516316D+00 -2.7632910196521D-02
98  9.7000000000000D-01  1.4475187178754D+00 -5.1844368088174D-02
99  9.8000000000000D-01  1.4125757176987D+00 -7.5342487901432D-02
100  9.9000000000000D-01  1.3690860404704D+00 -9.8114626317005D-02
101  1.0000000000000D+00  1.3171385052651D+00 -1.2014650383394D-01
102  1.0100000000000D+00  1.2569012533859D+00 -1.4142211183039D-01
103  1.0200000000000D+00  1.1886215810944D+00 -1.6192366758745D-01
104  1.0300000000000D+00  1.1126249029465D+00 -1.8163161836610D-01
105  1.0400000000000D+00  1.0293128454158D+00 -2.0052469502707D-01
106  1.0500000000000D+00  9.3916048145055D-01 -2.1858001496978D-01
107  1.0600000000000D+00  8.4271272597182D-01 -2.3577323355421D-01
108  1.0700000000000D+00  7.4057992240956D-01 -2.5207874250640D-01
109  1.0800000000000D+00  6.3343266042545D-01 -2.6746991314400D-01
110  1.0900000000000D+00  5.2199587315290D-01 -2.8191938171613D-01
111  1.1000000000000D+00  4.0704227244935D-01 -2.9539937347374D-01
112  1.1100000000000D+00  2.8938518799278D-01 -3.0788206159503D-01
113  1.1200000000000D+00  1.6987088398601D-01 -3.1933995655585D-01
114  1.1300000000000D+00  4.9370433590250D-02 -3.2974632110334D-01
115  1.1400000000000D+00 -7.1228762740435D-02 -3.3907560557912D-01
116  1.1500000000000D+00 -1.9103172356615D-01 -3.4730389797186D-01
117  1.1600000000000D+00 -3.0914480252934D-01 -3.5440938283789D-01
118  1.1700000000000D+00 -4.2468467654587D-01 -3.6037280303075D-01
119  1.1800000000000D+00 -5.3678730620827D-01 -3.6517791801215D-01
120  1.1900000000000D+00 -6.4461676812548D-01 -3.6881195247392D-01
121  1.2000000000000D+00 -7.4737386032676D-01 -3.7126602907405D-01
122  1.2100000000000D+00 -8.4430438184520D-01 -3.7253557907883D-01
123  1.2200000000000D+00 -9.3470699184374D-01 -3.7262072495589D-01
124  1.2300000000000D+00 -1.0179405580933D+00 -3.7152662924435D-01
125  1.2400000000000D+00 -1.0934309079712D+00 -3.6926380423665D-01
126  1.2500000000000D+00 -1.1606769016920D+00 -3.6584837741938D-01
127  1.2600000000000D+00 -1.2192557571440D+00 -3.6130230824196D-01
128  1.2700000000000D+00 -1.2688275604931D+00 -3.5565355209029D-01
129  1.2800000000000D+00 -1.3091389047133D+00 -3.4893616785558D-01
130  1.2900000000000D+00 -1.3400256141028D+00 -3.4119036652217D-01
131  1.3000000000000D+00 -1.3614145156867D+00 -3.3246249838327D-01
132  1.3100000000000D+00 -1.3733242296850D+00 -3.2280497722534D-01
133  1.3200000000000D+00 -1.3758649714186D+00 -3.1227614114245D-01
134  1.3300000000000D+00 -1.3692373542099D+00 -3.0094004945788D-01
135  1.3400000000000D+00 -1.3537302022886D+00 -2.8886621650152D-01
136  1.3500000000000D+00 -1.3297174008282D+00 -2.7612928418157D-01
137  1.3600000000000D+00 -1.2976538000851D+00 -2.6280863462169D-01
138  1.3700000000000D+00 -1.2580702258727D+00 -2.4898794644877D-01
139  1.3800000000000D+00 -1.2115676472019D+00 -2.3475469822603D-01
140  1.3900000000000D+00 -1.1588105531330D+00 -2.2019962260501D-01
141  1.4000000000000D+00 -1.1005196250226D+00 -2.0541611701286D-01
142  1.4100000000000D+00 -1.0374637704773D+00 -1.9049961538583D-01
143  1.4200000000000D+00 -9.7045161286798D-01 -1.7554692727032D-01
144  1.4300000000000D+00 -9.0032253231336D-01 -1.6065555074200D-01
145  1.4400000000000D+00 -8.2793734938252D-01 -1.4592296529583D-01
146  1.4500000000000D+00 -7.5416876665207D-01 -1.3144591241311D-01
147  1.4600000000000D+00 -6.7989166610942D-01 -1.1731967039589D-01
148  1.4700000000000D+00 -6.0597337968617D-01 -1.0363733131535D-01
149  1.4800000000000D+00 -5.3326403701602D-01 -9.0489087042221D-02
150  1.4900000000000D+00 -4.6258710952362D-01 -7.7961532335549D-02
151  1.5000000000000D+00 -3.9473024645431D-01 -6.6136991360294D-02
152  1.5100000000000D+00 -3.3043652709752D-01 -5.5092875957350D-02
153  1.5200000000000D+00 -2.7039621098003D-01 -4.4901081095459D-02
154  1.5300000000000D+00 -2.1523910029109D-01 -3.5627425145854D-02
155  1.5400000000000D+00 -1.6552759471801D-01 -2.7331140304682D-02
156  1.5500000000000D+00 -1.2175052102831D-01 -2.0064418644549D-02
157  1.5600000000000D+00 -8.4344711791927D-02 -1.3876435190656D-02
158  1.5700000000000D+00 -5.3560421275580D-02 -8.7916397628971D-03
159  1.5800000000000D+00 -2.9524876398571D-02 -4.8212415206687D-03
160  1.5900000000000D+00 -1.2947912808171D-02 -2.0752814773579D-03
161  1.6000000000000D+00 -3.9171376704923D-03 -5.6876055140049D-04
162  1.6100000000000D+00 -3.4746723820907D-04  1.5115374906883D-05
163  1.6200000000000D+00  2.8323234341677D-04  7.8931724999089D-05
164  1.6300000000000D+00 -5.1553020088410D-05 -1.2298843170530D-05
165  1.6400000000000D+00 -1.2092018774128D-04 -2.7085923630961D-05
166  1.6500000000000D+00  9.3562500746829D-06  2.4139965909684D-06
167  1.6600000000000D+00  1.9573813224439D-05  4.8476694685554D-06
168  1.6700000000000D+00  8.2372353409384D-07  3.3480577936864D-08
169  1.6800000000000D+00  1.5257057901937D-06  6.2012932134442D-08
170  1.6900000000000D+00  0.0000000000000D+00  0.0000000000000D+00
171  1.7000000000000D+00  0.0000000000000D+00  0.0000000000000D+00
172  1.7100000000000D+00  0.0000000000000D+00  0.0000000000000D+00
173  1.7200000000000D+00  0.0000000000000D+00  0.0000000000000D+00
174  1.7300000000000D+00  0.0000000000000D+00  0.0000000000000D+00
175  1.7400000000000D+00  0.0000000000000D+00  0.0000000000000D+00
176  1.7500000000000D+00  0.0000000000000D+00  0.0000000000000D+00
177  1.7600000000000D+00  0.0000000000000D+00  0.0000000000000D+00
178  1.7700000000000D+00  0.0000000000000D+00  0.0000000000000D+00
179  1.7800000000000D+00  0.0000000000000D+00  0.0000000000000D+00
180  1.7900000000000D+00  0.0000000000000D+00  0.0000000000000D+00
181  1.8000000000000D+00  0.0000000000000D+00  0.0000000000000D+00
182  1.8100000000000D+00  0.0000000000000D+00  0.0000000000000D+00
183  1.8200000000000D+00  0.0000000000000D+00  0.0000000000000D+00
184  1.8300000000000D+00  0.0000000000000D+00  0.0000000000000D+00
185  1.8400000000000D+00  0.0000000000000D+00  0.0000000000000D+00
186  1.8500000000000D+00  0.0000000000000D+00  0.0000000000000D+00
187  1.8600000000000D+00  0.0000000000000D+00  0.0000000000000D+00
188  1.8700000000000D+00  0.0000000000000D+00  0.0000000000000D+00
189  1.8800000000000D+00  0.0000000000000D+00  0.0000000000000D+00
190  1.8900000000000D+00  0.0000000000000D+00  0.0000000000000D+00
191  1.9000000000000D+00  0.0000000000000D+00  0.0000000000000D+00
192  1.9100000000000D+00  0.0000000000000D+00  0.0000000000000D+00
193  1.9200000000000D+00  0.0000000000000D+00  0.0000000000000D+00
194  1.9300000000000D+00  0.0000000000000D+00  0.0000000000000D+00
195  1.9400000000000D+00  0.0000000000000D+00  0.0000000000000D+00
196  1.9500000000000D+00  0.0000000000000D+00  0.0000000000000D+00
197  1.9600000000000D+00  0.0000000000000D+00  0.0000000000000D+00
198  1.9700000000000D+00  0.0000000000000D+00  0.0000000000000D+00
199  1.9800000000000D+00  0.0000000000000D+00  0.0000000000000D+00
200  1.9900000000000D+00  0.0000000000000D+00  0.0000000000000D+00
201  2.0000000000000D+00  0.0000000000000D+00  0.0000000000000D+00
202  2.0100000000000D+00  0.0000000000000D+00  0.0000000000000D+00
203  2.0200000000000D+00  0.0000000000000D+00  0.0000000000000D+00
204  2.0300000000000D+00  0.0000000000000D+00  0.0000000000000D+00
205  2.0400000000000D+00  0.0000000000000D+00  0.0000000000000D+00
206  2.0500000000000D+00  0.0000000000000D+00  0.0000000000000D+00
207  2.0600000000000D+00  0.0000000000000D+00  0.0000000000000D+00
208  2.0700000000000D+00  0.0000000000000D+00  0.0000000000000D+00
209  2.0800000000000D+00  0.0000000000000D+00  0.0000000000000D+00
210  2.0900000000000D+00  0.0000000000000D+00  0.0000000000000D+00
211  2.1000000000000D+00  0.0000000000000D+00  0.0000000000000D+00
212  2.1100000000000D+00  0.0000000000000D+00  0.0000000000000D+00
213  2.1200000000000D+00  0.0000000000000D+00  0.0000000000000D+00
214  2.1300000000000D+00  0.0000000000000D+00  0.0000000000000D+00
215  2.1400000000000D+00  0.0000000000000D+00  0.0000000000000D+00
216  2.1500000000000D+00  0.0000000000000D+00  0.0000000000000D+00
217  2.1600000000000D+00  0.0000000000000D+00  0.0000000000000D+00
218  2.1700000000000D+00  0.0000000000000D+00  0.0000000000000D+00
219  2.1800000000000D+00  0.0000000000000D+00  0.0000000000000D+00
220  2.1900000000000D+00  0.0000000000000D+00  0.0000000000000D+00
221  2.2000000000000D+00  0.0000000000000D+00  0.0000000000000D+00
222  2.2100000000000D+00  0.0000000000000D+00  0.0000000000000D+00
223  2.2200000000000D+00  0.0000000000000D+00  0.0000000000000D+00
224  2.2300000000000D+00  0.0000000000000D+00  0.0000000000000D+00
225  2.2400000000000D+00  0.0000000000000D+00  0.0000000000000D+00
226  2.2500000000000D+00  0.0000000000000D+00  0.0000000000000D+00
227  2.2600000000000D+00  0.0000000000000D+00  0.0000000000000D+00
228  2.2700000000000D+00  0.0000000000000D+00  0.0000000000000D+00
229  2.2800000000000D+00  0.0000000000000D+00  0.0000000000000D+00
230  2.2900000000000D+00  0.0000000000000D+00  0.0000000000000D+00
231  2.3000000000000D+00  0.0000000000000D+00  0.0000000000000D+00
232  2.3100000000000D+00  0.0000000000000D+00  0.0000000000000D+00
233  2.3200000000000D+00  0.0000000000000D+00  0.0000000000000D+00
234  2.3300000000000D+00  0.0000000000000D+00  0.0000000000000D+00
235  2.3400000000000D+00  0.0000000000000D+00  0.0000000000000D+00
236  2.3500000000000D+00  0.0000000000000D+00  0.0000000000000D+00
237  2.3600000000000D+00  0.0000000000000D+00  0.0000000000000D+00
238  2.3700000000000D+00  0.0000000000000D+00  0.0000000000000D+00
239  2.3800000000000D+00  0.0000000000000D+00  0.0000000000000D+00
240  2.3900000000000D+00  0.0000000000000D+00  0.0000000000000D+00
241  2.4000000000000D+00  0.0000000000000D+00  0.0000000000000D+00
242  2.4100000000000D+00  0.0000000000000D+00  0.0000000000000D+00
243  2.4200000000000D+00  0.0000000000000D+00  0.0000000000000D+00
244  2.4300000000000D+00  0.0000000000000D+00  0.0000000000000D+00
245  2.4400000000000D+00  0.0000000000000D+00  0.0000000000000D+00
246  2.4500000000000D+00  0.0000000000000D+00  0.0000000000000D+00
247  2.4600000000000D+00  0.0000000000000D+00  0.0000000000000D+00
248  2.4700000000000D+00  0.0000000000000D+00  0.0000000000000D+00
249  2.4800000000000D+00  0.0000000000000D+00  0.0000000000000D+00
250  2.4900000000000D+00  0.0000000000000D+00  0.0000000000000D+00
251  2.5000000000000D+00  0.0000000000000D+00  0.0000000000000D+00
252  2.5100000000000D+00  0.0000000000000D+00  0.0000000000000D+00
253  2.5200000000000D+00  0.0000000000000D+00  0.0000000000000D+00
254  2.5300000000000D+00  0.0000000000000D+00  0.0000000000000D+00
255  2.5400000000000D+00  0.0000000000000D+00  0.0000000000000D+00
256  2.5500000000000D+00  0.0000000000000D+00  0.0000000000000D+00
257  2.5600000000000D+00  0.0000000000000D+00  0.0000000000000D+00
258  2.5700000000000D+00  0.0000000000000D+00  0.0000000000000D+00
259  2.5800000000000D+00  0.0000000000000D+00  0.0000000000000D+00
260  2.5900000000000D+00  0.0000000000000D+00  0.0000000000000D+00
261  2.6000000000000D+00  0.0000000000000D+00  0.0000000000000D+00
262  2.6100000000000D+00  0.0000000000000D+00  0.0000000000000D+00
263  2.6200000000000D+00  0.0000000000000D+00  0.0000000000000D+00
264  2.6300000000000D+00  0.0000000000000D+00  0.0000000000000D+00
265  2.6400000000000D+00  0.0000000000000D+00  0.0000000000000D+00
266  2.6500000000000D+00  0.0000000000000D+00  0.0000000000000D+00
267  2.6600000000000D+00  0.0000000000000D+00  0.0000000000000D+00
268  2.6700000000000D+00  0.0000000000000D+00  0.0000000000000D+00
269  2.6800000000000D+00  0.0000000000000D+00  0.0000000000000D+00
270  2.6900000000000D+00  0.0000000000000D+00  0.0000000000000D+00
271  2.7000000000000D+00  0.0000000000000D+00  0.0000000000000D+00
272  2.7100000000000D+00  0.0000000000000D+00  0.0000000000000D+00
273  2.7200000000000D+00  0.0000000000000D+00  0.0000000000000D+00
274  2.7300000000000D+00  0.0000000000000D+00  0.0000000000000D+00
275  2.7400000000000D+00  0.0000000000000D+00  0.0000000000000D+00
276  2.7500000000000D+00  0.0000000000000D+00  0.0000000000000D+00
277  2.7600000000000D+00  0.0000000000000D+00  0.0000000000000D+00
278  2.7700000000000D+00  0.0000000000000D+00  0.0000000000000D+00
279  2.7800000000000D+00  0.0000000000000D+00  0.0000000000000D+00
280  2.7900000000000D+00  0.0000000000000D+00  0.0000000000000D+00
281  2.8000000000000D+00  0.0000000000000D+00  0.0000000000000D+00
282  2.8100000000000D+00  0.0000000000000D+00  0.0000000000000D+00
283  2.8200000000000D+00  0.0000000000000D+00  0.0000000000000D+00
284  2.8300000000000D+00  0.0000000000000D+00  0.0000000000000D+00
285  2.8400000000000D+00  0.0000000000000D+00  0.0000000000000D+00
286  2.8500000000000D+00  0.0000000000000D+00  0.0000000000000D+00
287  2.8600000000000D+00  0.0000000000000D+00  0.0000000000000D+00
288  2.8700000000000D+00  0.0000000000000D+00  0.0000000000000D+00
289  2.8800000000000D+00  0.0000000000000D+00  0.0000000000000D+00
290  2.8900000000000D+00  0.0000000000000D+00  0.0000000000000D+00
291  2.9000000000000D+00  0.0000000000000D+00  0.0000000000000D+00
292  2.9100000000000D+00  0.0000000000000D+00  0.0000000000000D+00
293  2.9200000000000D+00  0.0000000000000D+00  0.0000000000000D+00
294  2.9300000000000D+00  0.0000000000000D+00  0.0000000000000D+00
295  2.9400000000000D+00  0.0000000000000D+00  0.0000000000000D+00
296  2.9500000000000D+00  0.0000000000000D+00  0.0000000000000D+00
297  2.9600000000000D+00  0.0000000000000D+00  0.0000000000000D+00
298  2.9700000000000D+00  0.0000000000000D+00  0.0000000000000D+00
299  2.9800000000000D+00  0.0000000000000D+00  0.0000000000000D+00
300  2.9900000000000D+00  0.0000000000000D+00  0.0000000000000D+00
301  3.0000000000000D+00  0.0000000000000D+00  0.0000000000000D+00
302  3.0100000000000D+00  0.0000000000000D+00  0.0000000000000D+00
303  3.0200000000000D+00  0.0000000000000D+00  0.0000000000000D+00
304  3.0300000000000D+00  0.0000000000000D+00  0.0000000000000D+00
305  3.0400000000000D+00  0.0000000000000D+00  0.0000000000000D+00
306  3.0500000000000D+00  0.0000000000000D+00  0.0000000000000D+00
307  3.0600000000000D+00  0.0000000000000D+00  0.0000000000000D+00
308  3.0700000000000D+00  0.0000000000000D+00  0.0000000000000D+00
309  3.0800000000000D+00  0.0000000000000D+00  0.0000000000000D+00
310  3.0900000000000D+00  0.0000000000000D+00  0.0000000000000D+00
311  3.1000000000000D+00  0.0000000000000D+00  0.0000000000000D+00
312  3.1100000000000D+00  0.0000000000000D+00  0.0000000000000D+00
313  3.1200000000000D+00  0.0000000000000D+00  0.0000000000000D+00
314  3.1300000000000D+00  0.0000000000000D+00  0.0000000000000D+00
315  3.1400000000000D+00  0.0000000000000D+00  0.0000000000000D+00
316  3.1500000000000D+00  0.0000000000000D+00  0.0000000000000D+00
317  3.1600000000000D+00  0.0000000000000D+00  0.0000000000000D+00
318  3.1700000000000D+00  0.0000000000000D+00  0.0000000000000D+00
319  3.1800000000000D+00  0.0000000000000D+00  0.0000000000000D+00
320  3.1900000000000D+00  0.0000000000000D+00  0.0000000000000D+00
321  3.2000000000000D+00  0.0000000000000D+00  0.0000000000000D+00
322  3.2100000000000D+00  0.0000000000000D+00  0.0000000000000D+00
323  3.2200000000000D+00  0.0000000000000D+00  0.0000000000000D+00
324  3.2300000000000D+00  0.0000000000000D+00  0.0000000000000D+00
325  3.2400000000000D+00  0.0000000000000D+00  0.0000000000000D+00
326  3.2500000000000D+00  0.0000000000000D+00  0.0000000000000D+00
327  3.2600000000000D+00  0.0000000000000D+00  0.0000000000000D+00
328  3.2700000000000D+00  0.0000000000000D+00  0.0000000000000D+00
329  3.2800000000000D+00  0.0000000000000D+00  0.0000000000000D+00
330  3.2900000000000D+00  0.0000000000000D+00  0.0000000000000D+00
331  3.3000000000000D+00  0.0000000000000D+00  0.0000000000000D+00
332  3.3100000000000D+00  0.0000000000000D+00  0.0000000000000D+00
333  3.3200000000000D+00  0.0000000000000D+00  0.0000000000000D+00
334  3.3300000000000D+00  0.0000000000000D+00  0.0000000000000D+00
335  3.3400000000000D+00  0.0000000000000D+00  0.0000000000000D+00
336  3.3500000000000D+00  0.0000000000000D+00  0.0000000000000D+00
337  3.3600000000000D+00  0.0000000000000D+00  0.0000000000000D+00
338  3.3700000000000D+00  0.0000000000000D+00  0.0000000000000D+00
339  3.3800000000000D+00  0.0000000000000D+00  0.0000000000000D+00
340  3.3900000000000D+00  0.0000000000000D+00  0.0000000000000D+00
341  3.4000000000000D+00  0.0000000000000D+00  0.0000000000000D+00
342  3.4100000000000D+00  0.0000000000000D+00  0.0000000000000D+00
343  3.4200000000000D+00  0.0000000000000D+00  0.0000000000000D+00
344  3.4300000000000D+00  0.0000000000000D+00  0.0000000000000D+00
345  3.4400000000000D+00  0.0000000000000D+00  0.0000000000000D+00
346  3.4500000000000D+00  0.0000000000000D+00  0.0000000000000D+00
347  3.4600000000000D+00  0.0000000000000D+00  0.0000000000000D+00
348  3.4700000000000D+00  0.0000000000000D+00  0.0000000000000D+00
349  3.4800000000000D+00  0.0000000000000D+00  0.0000000000000D+00
350  3.4900000000000D+00  0.0000000000000D+00  0.0000000000000D+00
351  3.5000000000000D+00  0.0000000000000D+00  0.0000000000000D+00
352  3.5100000000000D+00  0.0000000000000D+00  0.0000000000000D+00
353  3.5200000000000D+00  0.0000000000000D+00  0.0000000000000D+00
354  3.5300000000000D+00  0.0000000000000D+00  0.0000000000000D+00
355  3.5400000000000D+00  0.0000000000000D+00  0.0000000000000D+00
356  3.5500000000000D+00  0.0000000000000D+00  0.0000000000000D+00
357  3.5600000000000D+00  0.0000000000000D+00  0.0000000000000D+00
358  3.5700000000000D+00  0.0000000000000D+00  0.0000000000000D+00
359  3.5800000000000D+00  0.0000000000000D+00  0.0000000000000D+00
360  3.5900000000000D+00  0.0000000000000D+00  0.0000000000000D+00
361  3.6000000000000D+00  0.0000000000000D+00  0.0000000000000D+00
362  3.6100000000000D+00  0.0000000000000D+00  0.0000000000000D+00
363  3.6200000000000D+00  0.0000000000000D+00  0.0000000000000D+00
364  3.6300000000000D+00  0.0000000000000D+00  0.0000000000000D+00
365  3.6400000000000D+00  0.0000000000000D+00  0.0000000000000D+00
366  3.6500000000000D+00  0.0000000000000D+00  0.0000000000000D+00
367  3.6600000000000D+00  0.0000000000000D+00  0.0000000000000D+00
368  3.6700000000000D+00  0.0000000000000D+00  0.0000000000000D+00
369  3.6800000000000D+00  0.0000000000000D+00  0.0000000000000D+00
370  3.6900000000000D+00  0.0000000000000D+00  0.0000000000000D+00
371  3.7000000000000D+00  0.0000000000000D+00  0.0000000000000D+00
372  3.7100000000000D+00  0.0000000000000D+00  0.0000000000000D+00
373  3.7200000000000D+00  0.0000000000000D+00  0.0000000000000D+00
374  3.7300000000000D+00  0.0000000000000D+00  0.0000000000000D+00
375  3.7400000000000D+00  0.0000000000000D+00  0.0000000000000D+00
376  3.7500000000000D+00  0.0000000000000D+00  0.0000000000000D+00
377  3.7600000000000D+00  0.0000000000000D+00  0.0000000000000D+00
378  3.7700000000000D+00  0.0000000000000D+00  0.0000000000000D+00
379  3.7800000000000D+00  0.0000000000000D+00  0.0000000000000D+00
380  3.7900000000000D+00  0.0000000000000D+00  0.0000000000000D+00
381  3.8000000000000D+00  0.0000000000000D+00  0.0000000000000D+00
382  3.8100000000000D+00  0.0000000000000D+00  0.0000000000000D+00
383  3.8200000000000D+00  0.0000000000000D+00  0.0000000000000D+00
384  3.8300000000000D+00  0.0000000000000D+00  0.0000000000000D+00
385  3.8400000000000D+00  0.0000000000000D+00  0.0000000000000D+00
386  3.8500000000000D+00  0.0000000000000D+00  0.0000000000000D+00
387  3.8600000000000D+00  0.0000000000000D+00  0.0000000000000D+00
388  3.8700000000000D+00  0.0000000000000D+00  0.0000000000000D+00
389  3.8800000000000D+00  0.0000000000000D+00  0.0000000000000D+00
390  3.8900000000000D+00  0.0000000000000D+00  0.0000000000000D+00
391  3.9000000000000D+00  0.0000000000000D+00  0.0000000000000D+00
392  3.9100000000000D+00  0.0000000000000D+00  0.0000000000000D+00
393  3.9200000000000D+00  0.0000000000000D+00  0.0000000000000D+00
394  3.9300000000000D+00  0.0000000000000D+00  0.0000000000000D+00
395  3.9400000000000D+00  0.0000000000000D+00  0.0000000000000D+00
396  3.9500000000000D+00  0.0000000000000D+00  0.0000000000000D+00
397  3.9600000000000D+00  0.0000000000000D+00  0.0000000000000D+00
398  3.9700000000000D+00  0.0000000000000D+00  0.0000000000000D+00
399  3.9800000000000D+00  0.0000000000000D+00  0.0000000000000D+00
400  3.9900000000000D+00  0.0000000000000D+00  0.0000000000000D+00
401  4.0000000000000D+00  0.0000000000000D+00  0.0000000000000D+00
402  4.0100000000000D+00  0.0000000000000D+00  0.0000000000000D+00
403  4.0200000000000D+00  0.0000000000000D+00  0.0000000000000D+00
404  4.0300000000000D+00  0.0000000000000D+00  0.0000000000000D+00
405  4.0400000000000D+00  0.0000000000000D+00  0.0000000000000D+00
406  4.0500000000000D+00  0.0000000000000D+00  0.0000000000000D+00
407  4.0600000000000D+00  0.0000000000000D+00  0.0000000000000D+00
408  4.0700000000000D+00  0.0000000000000D+00  0.0000000000000D+00
409  4.0800000000000D+00  0.0000000000000D+00  0.0000000000000D+00
410  4.0900000000000D+00  0.0000000000000D+00  0.0000000000000D+00
411  4.1000000000000D+00  0.0000000000000D+00  0.0000000000000D+00
412  4.1100000000000D+00  0.0000000000000D+00  0.0000000000000D+00
413  4.1200000000000D+00  0.0000000000000D+00  0.0000000000000D+00
414  4.1300000000000D+00  0.0000000000000D+00  0.0000000000000D+00
415  4.1400000000000D+00  0.0000000000000D+00  0.0000000000000D+00
416  4.1500000000000D+00  0.0000000000000D+00  0.0000000000000D+00
417  4.1600000000000D+00  0.0000000000000D+00  0.0000000000000D+00
418  4.1700000000000D+00  0.0000000000000D+00  0.0000000000000D+00
419  4.1800000000000D+00  0.0000000000000D+00  0.0000000000000D+00
420  4.1900000000000D+00  0.0000000000000D+00  0.0000000000000D+00
421  4.2000000000000D+00  0.0000000000000D+00  0.0000000000000D+00
422  4.2100000000000D+00  0.0000000000000D+00  0.0000000000000D+00
423  4.2200000000000D+00  0.0000000000000D+00  0.0000000000000D+00
424  4.2300000000000D+00  0.0000000000000D+00  0.0000000000000D+00
425  4.2400000000000D+00  0.0000000000000D+00  0.0000000000000D+00
426  4.2500000000000D+00  0.0000000000000D+00  0.0000000000000D+00
427  4.2600000000000D+00  0.0000000000000D+00  0.0000000000000D+00
428  4.2700000000000D+00  0.0000000000000D+00  0.0000000000000D+00
429  4.2800000000000D+00  0.0000000000000D+00  0.0000000000000D+00
430  4.2900000000000D+00  0.0000000000000D+00  0.0000000000000D+00
431  4.3000000000000D+00  0.0000000000000D+00  0.0000000000000D+00
432  4.3100000000000D+00  0.0000000000000D+00  0.0000000000000D+00
433  4.3200000000000D+00  0.0000000000000D+00  0.0000000000000D+00
434  4.3300000000000D+00  0.0000000000000D+00  0.0000000000000D+00
435  4.3400000000000D+00  0.0000000000000D+00  0.0000000000000D+00
436  4.3500000000000D+00  0.0000000000000D+00  0.0000000000000D+00
437  4.3600000000000D+00  0.0000000000000D+00  0.0000000000000D+00
438  4.3700000000000D+00  0.0000000000000D+00  0.0000000000000D+00
439  4.3800000000000D+00  0.0000000000000D+00  0.0000000000000D+00
440  4.3900000000000D+00  0.0000000000000D+00  0.0000000000000D+00
441  4.4000000000000D+00  0.0000000000000D+00  0.0000000000000D+00
442  4.4100000000000D+00  0.0000000000000D+00  0.0000000000000D+00
443  4.4200000000000D+00  0.0000000000000D+00  0.0000000000000D+00