Sn    ONCVPSP  r_core=  2.27  2.56  1.86
     50.0000     14.0000      141003    zatom,zion,pspd
     8     2     2     4   601     0    pspcod,pspxc,lmax,lloc,mmax,r2well
  6.00000000  0.00000000  0.00000000    rchrg fchrg qchrg
     2     2     2     0     0    nproj
     0                 extension_switch
   0                         5.8699633321201D+00  8.0622995556313D-01
     1  0.0000000000000D+00  0.0000000000000D+00  0.0000000000000D+00
     2  1.0000000000000D-02 -1.5120154366949D-02  3.1924181880392D-03
     3  2.0000000000000D-02 -3.0251696602885D-02  6.3423598950767D-03
     4  3.0000000000000D-02 -4.5405961723995D-02  9.4075312111902D-03
     5  4.0000000000000D-02 -6.0594179190516D-02  1.2346002752870D-02
     6  5.0000000000000D-02 -7.5827420502464D-02  1.5116390388741D-02
     7  6.0000000000000D-02 -9.1116547242795D-02  1.7678034125040D-02
     8  7.0000000000000D-02 -1.0647215971500D-01  1.9991174546904D-02
     9  8.0000000000000D-02 -1.2190454632129D-01  2.2017126215965D-02
    10  9.0000000000000D-02 -1.3742363382437D-01  2.3718447438403D-02
    11  1.0000000000000D-01 -1.5303893863496D-01  2.5059105822132D-02
    12  1.1000000000000D-01 -1.6875951926355D-01  2.6004639058860D-02
    13  1.2000000000000D-01 -1.8459393007132D-01  2.6522310381051D-02
    14  1.3000000000000D-01 -2.0055017644994D-01  2.6581258166401D-02
    15  1.4000000000000D-01 -2.1663567157127D-01  2.6152639129361D-02
    16  1.5000000000000D-01 -2.3285719480243D-01  2.5209764695930D-02
    17  1.6000000000000D-01 -2.4922085195218D-01  2.3728229929534D-02
    18  1.7000000000000D-01 -2.6573203739926D-01  2.1686034763820D-02
    19  1.8000000000000D-01 -2.8239539828864D-01  1.9063696859199D-02
    20  1.9000000000000D-01 -2.9921480082527D-01  1.5844355918988D-02
    21  2.0000000000000D-01 -3.1619329884599D-01  1.2013868821313D-02
    22  2.1000000000000D-01 -3.3333310463816D-01  7.5608956039345D-03
    23  2.2000000000000D-01 -3.5063556225187D-01  2.4769754723420D-03
    24  2.3000000000000D-01 -3.6810112326221D-01 -3.2434070736483D-03
    25  2.4000000000000D-01 -3.8572932513258D-01 -9.6027664933600D-03
    26  2.5000000000000D-01 -4.0351877207067D-01 -1.6600570580376D-02
    27  2.6000000000000D-01 -4.2146711887903D-01 -2.4233206393006D-02
    28  2.7000000000000D-01 -4.3957105716553D-01 -3.2493956001244D-02
    29  2.8000000000000D-01 -4.5782630465267D-01 -4.1372984092164D-02
    30  2.9000000000000D-01 -4.7622759718246D-01 -5.0857336316996D-02
    31  3.0000000000000D-01 -4.9476868359169D-01 -6.0930948853392D-02
    32  3.1000000000000D-01 -5.1344232349368D-01 -7.1574669225574D-02
    33  3.2000000000000D-01 -5.3224028799000D-01 -8.2766288284350D-02
    34  3.3000000000000D-01 -5.5115336310423D-01 -9.4480583289501D-02
    35  3.4000000000000D-01 -5.7017135647459D-01 -1.0668937222150D-01
    36  3.5000000000000D-01 -5.8928310659696D-01 -1.1936157895012D-01
    37  3.6000000000000D-01 -6.0847649517432D-01 -1.3246330895551D-01
    38  3.7000000000000D-01 -6.2773846225405D-01 -1.4595793662784D-01
    39  3.8000000000000D-01 -6.4705502419392D-01 -1.5980620133384D-01
    40  3.9000000000000D-01 -6.6641129437715D-01 -1.7396631454335D-01
    41  4.0000000000000D-01 -6.8579150695008D-01 -1.8839407816479D-01
    42  4.1000000000000D-01 -7.0517904288531D-01 -2.0304300955053D-01
    43  4.2000000000000D-01 -7.2455645891597D-01 -2.1786447756231D-01
    44  4.3000000000000D-01 -7.4390551901059D-01 -2.3280784697806D-01
    45  4.4000000000000D-01 -7.6320722835933D-01 -2.4782063123857D-01
    46  4.5000000000000D-01 -7.8244186979261D-01 -2.6284865307749D-01
    47  4.6000000000000D-01 -8.0158904253885D-01 -2.7783621251392D-01
    48  4.7000000000000D-01 -8.2062770262388D-01 -2.9272625887718D-01
    49  4.8000000000000D-01 -8.3953620716458D-01 -3.0746057747710D-01
    50  4.9000000000000D-01 -8.5829235940172D-01 -3.2197997545099D-01
    51  5.0000000000000D-01 -8.7687345537231D-01 -3.3622447165602D-01
    52  5.1000000000000D-01 -8.9525633049686D-01 -3.5013348311336D-01
    53  5.2000000000000D-01 -9.1341741664913D-01 -3.6364605375985D-01
    54  5.3000000000000D-01 -9.3133278928981D-01 -3.7670103537463D-01
    55  5.4000000000000D-01 -9.4897821860051D-01 -3.8923728400320D-01
    56  5.5000000000000D-01 -9.6632923681865D-01 -4.0119391967759D-01
    57  5.6000000000000D-01 -9.8336117478240D-01 -4.1251045444891D-01
    58  5.7000000000000D-01 -1.0000492442147D+00 -4.2312710534576D-01
    59  5.8000000000000D-01 -1.0163685667606D+00 -4.3298488636586D-01
    60  5.9000000000000D-01 -1.0322942660492D+00 -4.4202595023169D-01
    61  6.0000000000000D-01 -1.0478014920666D+00 -4.5019365715694D-01
    62  6.1000000000000D-01 -1.0628655146970D+00 -4.5743291103197D-01
    63  6.2000000000000D-01 -1.0774617616305D+00 -4.6369027486555D-01
    64  6.3000000000000D-01 -1.0915658793661D+00 -4.6891417273456D-01
    65  6.4000000000000D-01 -1.1051538173818D+00 -4.7305517159891D-01
    66  6.5000000000000D-01 -1.1182018604032D+00 -4.7606606622747D-01
    67  6.6000000000000D-01 -1.1306866924021D+00 -4.7790207915990D-01
    68  6.7000000000000D-01 -1.1425854850783D+00 -4.7852113952381D-01
    69  6.8000000000000D-01 -1.1538759257085D+00 -4.7788394177563D-01
    70  6.9000000000000D-01 -1.1645362824556D+00 -4.7595413419393D-01
    71  7.0000000000000D-01 -1.1745454616862D+00 -4.7269847365201D-01
    72  7.1000000000000D-01 -1.1838830866825D+00 -4.6808704397328D-01
    73  7.2000000000000D-01 -1.1925295255645D+00 -4.6209330074827D-01
    74  7.3000000000000D-01 -1.2004659546625D+00 -4.5469422934815D-01
    75  7.4000000000000D-01 -1.2076744114478D+00 -4.4587046215872D-01
    76  7.5000000000000D-01 -1.2141378425826D+00 -4.3560637526110D-01
    77  7.6000000000000D-01 -1.2198401566506D+00 -4.2389019334273D-01
    78  7.7000000000000D-01 -1.2247662826566D+00 -4.1071410282273D-01
    79  7.8000000000000D-01 -1.2289021974935D+00 -3.9607426937764D-01
    80  7.9000000000000D-01 -1.2322349763322D+00 -3.7997091676212D-01
    81  8.0000000000000D-01 -1.2347528338785D+00 -3.6240837230282D-01
    82  8.1000000000000D-01 -1.2364451632710D+00 -3.4339509938667D-01
    83  8.2000000000000D-01 -1.2373025725133D+00 -3.2294371676238D-01
    84  8.3000000000000D-01 -1.2373169183440D+00 -3.0107100451503D-01
    85  8.4000000000000D-01 -1.2364813374514D+00 -2.7779789661450D-01
    86  8.5000000000000D-01 -1.2347902749422D+00 -2.5314945997945D-01
    87  8.6000000000000D-01 -1.2322395099832D+00 -2.2715486003922D-01
    88  8.7000000000000D-01 -1.2288261785345D+00 -1.9984731281766D-01
    89  8.8000000000000D-01 -1.2245487931016D+00 -1.7126402360668D-01
    90  8.9000000000000D-01 -1.2194072594370D+00 -1.4144611234315D-01
    91  9.0000000000000D-01 -1.2134028901272D+00 -1.1043852585261D-01
    92  9.1000000000000D-01 -1.2065384150106D+00 -7.8289937178269D-02
    93  9.2000000000000D-01 -1.1988179883755D+00 -4.5052632274464D-02
    94  9.3000000000000D-01 -1.1902471929026D+00 -1.0782384411777D-02
    95  9.4000000000000D-01 -1.1808330357889D+00  2.4461684135247D-02
    96  9.5000000000000D-01 -1.1705839489869D+00  6.0617243043974D-02
    97  9.6000000000000D-01 -1.1595098034593D+00  9.7618919150967D-02
    98  9.7000000000000D-01 -1.1476218715885D+00  1.3539847573714D-01
    99  9.8000000000000D-01 -1.1349328249030D+00  1.7388498881422D-01
   100  9.9000000000000D-01 -1.1214567181147D+00  2.1300503788580D-01
   101  1.0000000000000D+00 -1.1072089699001D+00  2.5268290506501D-01
   102  1.0100000000000D+00 -1.0922063394732D+00  2.9284077737011D-01
   103  1.0200000000000D+00 -1.0764668909566D+00  3.3339889136475D-01
   104  1.0300000000000D+00 -1.0600100099110D+00  3.7427596124616D-01
   105  1.0400000000000D+00 -1.0428563198267D+00  4.1538923626870D-01
   106  1.0500000000000D+00 -1.0250276643419D+00  4.5665477991604D-01
   107  1.0600000000000D+00 -1.0065470696483D+00  4.9798770397634D-01
   108  1.0700000000000D+00 -9.8743870416062D-01  5.3930223710609D-01
   109  1.0800000000000D+00 -9.6772784810525D-01  5.8051241184842D-01
   110  1.0900000000000D+00 -9.4744082455510D-01  6.2153202577477D-01
   111  1.1000000000000D+00 -9.2660495747719D-01  6.6227487822688D-01
   112  1.1100000000000D+00 -9.0524853283313D-01  7.0265490072454D-01
   113  1.1200000000000D+00 -8.8340074459000D-01  7.4258658597114D-01
   114  1.1300000000000D+00 -8.6109159870179D-01  7.8198559381066D-01
   115  1.1400000000000D+00 -8.3835189152804D-01  8.2076842344408D-01
   116  1.1500000000000D+00 -8.1521317593636D-01  8.5885256257639D-01
   117  1.1600000000000D+00 -7.9170765723784D-01  8.9615721645857D-01
   118  1.1700000000000D+00 -7.6786807783785D-01  9.3260379005812D-01
   119  1.1800000000000D+00 -7.4372773921688D-01  9.6811538421924D-01
   120  1.1900000000000D+00 -7.1932052295578D-01  1.0026165927895D+00
   121  1.2000000000000D+00 -6.9468051843036D-01  1.0360357517396D+00
   122  1.2100000000000D+00 -6.6984218347848D-01  1.0683034494471D+00
   123  1.2200000000000D+00 -6.4484035724435D-01  1.0993524246416D+00
   124  1.2300000000000D+00 -6.1970996255106D-01  1.1291191168531D+00
   125  1.2400000000000D+00 -5.9448592661251D-01  1.1575436745722D+00
   126  1.2500000000000D+00 -5.6920341038214D-01  1.1845686554576D+00
   127  1.2600000000000D+00 -5.4389750524186D-01  1.2101404761224D+00
   128  1.2700000000000D+00 -5.1860294926914D-01  1.2342103292590D+00
   129  1.2800000000000D+00 -4.9335460336539D-01  1.2567319120754D+00
   130  1.2900000000000D+00 -4.6818700596364D-01  1.2776633347367D+00
   131  1.3000000000000D+00 -4.4313406543436D-01  1.2969679447757D+00
   132  1.3100000000000D+00 -4.1822975313972D-01  1.3146115321313D+00
   133  1.3200000000000D+00 -3.9350728036819D-01  1.3305653812350D+00
   134  1.3300000000000D+00 -3.6899912991262D-01  1.3448056808094D+00
   135  1.3400000000000D+00 -3.4473783591784D-01  1.3573109291093D+00
   136  1.3500000000000D+00 -3.2075446740188D-01  1.3680667185603D+00
   137  1.3600000000000D+00 -2.9707966147586D-01  1.3770620377516D+00
   138  1.3700000000000D+00 -2.7374369450146D-01  1.3842892985775D+00
   139  1.3800000000000D+00 -2.5077498410248D-01  1.3897481514157D+00
   140  1.3900000000000D+00 -2.2820198608681D-01  1.3934401521027D+00
   141  1.4000000000000D+00 -2.0605160231156D-01  1.3953729508813D+00
   142  1.4100000000000D+00 -1.8434955812696D-01  1.3955587752165D+00
   143  1.4200000000000D+00 -1.6312140713841D-01  1.3940123762093D+00
   144  1.4300000000000D+00 -1.4239009709222D-01  1.3907558751865D+00
   145  1.4400000000000D+00 -1.2217874439350D-01  1.3858128624132D+00
   146  1.4500000000000D+00 -1.0250832112085D-01  1.3792129417270D+00
   147  1.4600000000000D+00 -8.3398734805908D-02  1.3709891583960D+00
   148  1.4700000000000D+00 -6.4869099789370D-02  1.3611778963260D+00
   149  1.4800000000000D+00 -4.6935934328054D-02  1.3498209174509D+00
   150  1.4900000000000D+00 -2.9616159425484D-02  1.3369614234908D+00
   151  1.5000000000000D+00 -1.2923251973953D-02  1.3226484676399D+00
   152  1.5100000000000D+00  3.1290533246058D-03  1.3069325203724D+00
   153  1.5200000000000D+00  1.8529602666763D-02  1.2898683816785D+00
   154  1.5300000000000D+00  3.3268200077358D-02  1.2715131286362D+00
   155  1.5400000000000D+00  4.7336094896897D-02  1.2519268554397D+00
   156  1.5500000000000D+00  6.0726633066779D-02  1.2311720769237D+00
   157  1.5600000000000D+00  7.3433570267169D-02  1.2093136936346D+00
   158  1.5700000000000D+00  8.5453721662528D-02  1.1864184159588D+00
   159  1.5800000000000D+00  9.6783451610383D-02  1.1625553810303D+00
   160  1.5900000000000D+00  1.0742284512830D-01  1.1377942974453D+00
   161  1.6000000000000D+00  1.1737117120380D-01  1.1122076818368D+00
   162  1.6100000000000D+00  1.2663137376258D-01  1.0858673012645D+00
   163  1.6200000000000D+00  1.3520583533261D-01  1.0588478648888D+00
   164  1.6300000000000D+00  1.4310011425828D-01  1.0312224003753D+00
   165  1.6400000000000D+00  1.5031962146460D-01  1.0030666559735D+00
   166  1.6500000000000D+00  1.5687247146483D-01  9.7445395453350D-01
   167  1.6600000000000D+00  1.6276691121295D-01  9.4546002078658D-01
   168  1.6700000000000D+00  1.6801352091470D-01  9.1615742046236D-01
   169  1.6800000000000D+00  1.7262316523276D-01  8.8662088258566D-01
   170  1.6900000000000D+00  1.7660875816516D-01  8.5692107722672D-01
   171  1.7000000000000D+00  1.7998354914603D-01  8.2713087772705D-01
   172  1.7100000000000D+00  1.8276260468738D-01  7.9731784042944D-01
   173  1.7200000000000D+00  1.8496132249868D-01  7.6755225001282D-01
   174  1.7300000000000D+00  1.8659668387159D-01  7.3789726506441D-01
   175  1.7400000000000D+00  1.8768600560883D-01  7.0841998123587D-01
   176  1.7500000000000D+00  1.8824788361870D-01  6.7917783267508D-01
   177  1.7600000000000D+00  1.8830134195130D-01  6.5023425058552D-01
   178  1.7700000000000D+00  1.8786622480750D-01  6.2163961302912D-01
   179  1.7800000000000D+00  1.8696307642591D-01  5.9345330974811D-01
   180  1.7900000000000D+00  1.8561259186065D-01  5.6571791662917D-01
   181  1.8000000000000D+00  1.8383657245646D-01  5.3848685367241D-01
   182  1.8100000000000D+00  1.8165627435926D-01  5.1179593657842D-01
   183  1.8200000000000D+00  1.7909429333513D-01  4.8568995911792D-01
   184  1.8300000000000D+00  1.7617232003800D-01  4.6019908528359D-01
   185  1.8400000000000D+00  1.7291316288224D-01  4.3535757588912D-01
   186  1.8500000000000D+00  1.6933889560830D-01  4.1119042855133D-01
   187  1.8600000000000D+00  1.6547183136176D-01  3.8771963537900D-01
   188  1.8700000000000D+00  1.6133451061237D-01  3.6496587948308D-01
   189  1.8800000000000D+00  1.5694862214280D-01  3.4294125163731D-01
   190  1.8900000000000D+00  1.5233717684935D-01  3.2166220270380D-01
   191  1.9000000000000D+00  1.4752140537187D-01  3.0113444467195D-01
   192  1.9100000000000D+00  1.4252468363331D-01  2.8137019946865D-01
   193  1.9200000000000D+00  1.3736796638105D-01  2.6237074019150D-01
   194  1.9300000000000D+00  1.3207405974723D-01  2.4414150278495D-01
   195  1.9400000000000D+00  1.2666431099323D-01  2.2668204933268D-01
   196  1.9500000000000D+00  1.2116028486375D-01  2.0999058309307D-01
   197  1.9600000000000D+00  1.1558390261313D-01  1.9406503778665D-01
   198  1.9700000000000D+00  1.0995502504249D-01  1.7889727534421D-01
   199  1.9800000000000D+00  1.0429622867895D-01  1.6448317444014D-01
   200  1.9900000000000D+00  9.8625990294863D-02  1.5081045909880D-01
   201  2.0000000000000D+00  9.2965562645356D-02  1.3786991795288D-01
   202  2.0100000000000D+00  8.7333897542159D-02  1.2564860344603D-01
   203  2.0200000000000D+00  8.1749759611542D-02  1.1413218300963D-01
   204  2.0300000000000D+00  7.6232904644820D-02  1.0330658599274D-01
   205  2.0400000000000D+00  7.0799497352223D-02  9.3154161937807D-02
   206  2.0500000000000D+00  6.5468978944072D-02  8.3658382262279D-02
   207  2.0600000000000D+00  6.0256537357837D-02  7.4800393477894D-02
   208  2.0700000000000D+00  5.5178804344091D-02  6.6560935056946D-02
   209  2.0800000000000D+00  5.0251979152139D-02  5.8920275766526D-02
   210  2.0900000000000D+00  4.5489040526991D-02  5.1857949532874D-02
   211  2.1000000000000D+00  4.0906526506994D-02  4.5352478768457D-02
   212  2.1100000000000D+00  3.6515464991839D-02  3.9383260540133D-02
   213  2.1200000000000D+00  3.2329085880770D-02  3.3928358104722D-02
   214  2.1300000000000D+00  2.8359783497816D-02  2.8965859299935D-02
   215  2.1400000000000D+00  2.4616371396384D-02  2.4475208689814D-02
   216  2.1500000000000D+00  2.1111419676019D-02  2.0432988632400D-02
   217  2.1600000000000D+00  1.7851804537968D-02  1.6819500678520D-02
   218  2.1700000000000D+00  1.4845953002307D-02  1.3613322418882D-02
   219  2.1800000000000D+00  1.2102598289379D-02  1.0792397606542D-02
   220  2.1900000000000D+00  9.6254645110735D-03  8.3388106856651D-03
   221  2.2000000000000D+00  7.4220934484406D-03  6.2304566856966D-03
   222  2.2100000000000D+00  5.4956335957295D-03  4.4494397937660D-03
   223  2.2200000000000D+00  3.8483032391212D-03  2.9784047478652D-03
   224  2.2300000000000D+00  2.4855549873510D-03  1.7959136287370D-03
   225  2.2400000000000D+00  1.4053309084733D-03  8.8880080758036D-04
   226  2.2500000000000D+00  6.2752201859099D-04  2.4721478198239D-04
   227  2.2600000000000D+00  1.4902905125349D-04 -1.4679356043184D-04
   228  2.2700000000000D+00 -1.0723562151637D-04 -3.3648166111555D-04
   229  2.2800000000000D+00 -1.7378225354324D-04 -3.2339528407687D-04
   230  2.2900000000000D+00 -1.1588153291705D-04 -1.8364597152104D-04
   231  2.3000000000000D+00 -6.1419778601742D-06 -8.9849302741010D-06
   232  2.3100000000000D+00  9.7554946691392D-06  2.3316970375966D-05
   233  2.3200000000000D+00  7.0878299022299D-06  1.6940885671640D-05
   234  2.3300000000000D+00  0.0000000000000D+00  0.0000000000000D+00
   235  2.3400000000000D+00  0.0000000000000D+00  0.0000000000000D+00
   236  2.3500000000000D+00  0.0000000000000D+00  0.0000000000000D+00
   237  2.3600000000000D+00  0.0000000000000D+00  0.0000000000000D+00
   238  2.3700000000000D+00  0.0000000000000D+00  0.0000000000000D+00
   239  2.3800000000000D+00  0.0000000000000D+00  0.0000000000000D+00
   240  2.3900000000000D+00  0.0000000000000D+00  0.0000000000000D+00
   241  2.4000000000000D+00  0.0000000000000D+00  0.0000000000000D+00
   242  2.4100000000000D+00  0.0000000000000D+00  0.0000000000000D+00
   243  2.4200000000000D+00  0.0000000000000D+00  0.0000000000000D+00
   244  2.4300000000000D+00  0.0000000000000D+00  0.0000000000000D+00
   245  2.4400000000000D+00  0.0000000000000D+00  0.0000000000000D+00
   246  2.4500000000000D+00  0.0000000000000D+00  0.0000000000000D+00
   247  2.4600000000000D+00  0.0000000000000D+00  0.0000000000000D+00
   248  2.4700000000000D+00  0.0000000000000D+00  0.0000000000000D+00
   249  2.4800000000000D+00  0.0000000000000D+00  0.0000000000000D+00
   250  2.4900000000000D+00  0.0000000000000D+00  0.0000000000000D+00
   251  2.5000000000000D+00  0.0000000000000D+00  0.0000000000000D+00
   252  2.5100000000000D+00  0.0000000000000D+00  0.0000000000000D+00
   253  2.5200000000000D+00  0.0000000000000D+00  0.0000000000000D+00
   254  2.5300000000000D+00  0.0000000000000D+00  0.0000000000000D+00
   255  2.5400000000000D+00  0.0000000000000D+00  0.0000000000000D+00
   256  2.5500000000000D+00  0.0000000000000D+00  0.0000000000000D+00
   257  2.5600000000000D+00  0.0000000000000D+00  0.0000000000000D+00
   258  2.5700000000000D+00  0.0000000000000D+00  0.0000000000000D+00
   259  2.5800000000000D+00  0.0000000000000D+00  0.0000000000000D+00
   260  2.5900000000000D+00  0.0000000000000D+00  0.0000000000000D+00
   261  2.6000000000000D+00  0.0000000000000D+00  0.0000000000000D+00
   262  2.6100000000000D+00  0.0000000000000D+00  0.0000000000000D+00
   263  2.6200000000000D+00  0.0000000000000D+00  0.0000000000000D+00
   264  2.6300000000000D+00  0.0000000000000D+00  0.0000000000000D+00
   265  2.6400000000000D+00  0.0000000000000D+00  0.0000000000000D+00
   266  2.6500000000000D+00  0.0000000000000D+00  0.0000000000000D+00
   267  2.6600000000000D+00  0.0000000000000D+00  0.0000000000000D+00
   268  2.6700000000000D+00  0.0000000000000D+00  0.0000000000000D+00
   269  2.6800000000000D+00  0.0000000000000D+00  0.0000000000000D+00
   270  2.6900000000000D+00  0.0000000000000D+00  0.0000000000000D+00
   271  2.7000000000000D+00  0.0000000000000D+00  0.0000000000000D+00
   272  2.7100000000000D+00  0.0000000000000D+00  0.0000000000000D+00
   273  2.7200000000000D+00  0.0000000000000D+00  0.0000000000000D+00
   274  2.7300000000000D+00  0.0000000000000D+00  0.0000000000000D+00
   275  2.7400000000000D+00  0.0000000000000D+00  0.0000000000000D+00
   276  2.7500000000000D+00  0.0000000000000D+00  0.0000000000000D+00
   277  2.7600000000000D+00  0.0000000000000D+00  0.0000000000000D+00
   278  2.7700000000000D+00  0.0000000000000D+00  0.0000000000000D+00
   279  2.7800000000000D+00  0.0000000000000D+00  0.0000000000000D+00
   280  2.7900000000000D+00  0.0000000000000D+00  0.0000000000000D+00
   281  2.8000000000000D+00  0.0000000000000D+00  0.0000000000000D+00
   282  2.8100000000000D+00  0.0000000000000D+00  0.0000000000000D+00
   283  2.8200000000000D+00  0.0000000000000D+00  0.0000000000000D+00
   284  2.8300000000000D+00  0.0000000000000D+00  0.0000000000000D+00
   285  2.8400000000000D+00  0.0000000000000D+00  0.0000000000000D+00
   286  2.8500000000000D+00  0.0000000000000D+00  0.0000000000000D+00
   287  2.8600000000000D+00  0.0000000000000D+00  0.0000000000000D+00
   288  2.8700000000000D+00  0.0000000000000D+00  0.0000000000000D+00
   289  2.8800000000000D+00  0.0000000000000D+00  0.0000000000000D+00
   290  2.8900000000000D+00  0.0000000000000D+00  0.0000000000000D+00
   291  2.9000000000000D+00  0.0000000000000D+00  0.0000000000000D+00
   292  2.9100000000000D+00  0.0000000000000D+00  0.0000000000000D+00
   293  2.9200000000000D+00  0.0000000000000D+00  0.0000000000000D+00
   294  2.9300000000000D+00  0.0000000000000D+00  0.0000000000000D+00
   295  2.9400000000000D+00  0.0000000000000D+00  0.0000000000000D+00
   296  2.9500000000000D+00  0.0000000000000D+00  0.0000000000000D+00
   297  2.9600000000000D+00  0.0000000000000D+00  0.0000000000000D+00
   298  2.9700000000000D+00  0.0000000000000D+00  0.0000000000000D+00
   299  2.9800000000000D+00  0.0000000000000D+00  0.0000000000000D+00
   300  2.9900000000000D+00  0.0000000000000D+00  0.0000000000000D+00
   301  3.0000000000000D+00  0.0000000000000D+00  0.0000000000000D+00
   302  3.0100000000000D+00  0.0000000000000D+00  0.0000000000000D+00
   303  3.0200000000000D+00  0.0000000000000D+00  0.0000000000000D+00
   304  3.0300000000000D+00  0.0000000000000D+00  0.0000000000000D+00
   305  3.0400000000000D+00  0.0000000000000D+00  0.0000000000000D+00
   306  3.0500000000000D+00  0.0000000000000D+00  0.0000000000000D+00
   307  3.0600000000000D+00  0.0000000000000D+00  0.0000000000000D+00
   308  3.0700000000000D+00  0.0000000000000D+00  0.0000000000000D+00
   309  3.0800000000000D+00  0.0000000000000D+00  0.0000000000000D+00
   310  3.0900000000000D+00  0.0000000000000D+00  0.0000000000000D+00
   311  3.1000000000000D+00  0.0000000000000D+00  0.0000000000000D+00
   312  3.1100000000000D+00  0.0000000000000D+00  0.0000000000000D+00
   313  3.1200000000000D+00  0.0000000000000D+00  0.0000000000000D+00
   314  3.1300000000000D+00  0.0000000000000D+00  0.0000000000000D+00
   315  3.1400000000000D+00  0.0000000000000D+00  0.0000000000000D+00
   316  3.1500000000000D+00  0.0000000000000D+00  0.0000000000000D+00
   317  3.1600000000000D+00  0.0000000000000D+00  0.0000000000000D+00
   318  3.1700000000000D+00  0.0000000000000D+00  0.0000000000000D+00
   319  3.1800000000000D+00  0.0000000000000D+00  0.0000000000000D+00
   320  3.1900000000000D+00  0.0000000000000D+00  0.0000000000000D+00
   321  3.2000000000000D+00  0.0000000000000D+00  0.0000000000000D+00
   322  3.2100000000000D+00  0.0000000000000D+00  0.0000000000000D+00
   323  3.2200000000000D+00  0.0000000000000D+00  0.0000000000000D+00
   324  3.2300000000000D+00  0.0000000000000D+00  0.0000000000000D+00
   325  3.2400000000000D+00  0.0000000000000D+00  0.0000000000000D+00
   326  3.2500000000000D+00  0.0000000000000D+00  0.0000000000000D+00
   327  3.2600000000000D+00  0.0000000000000D+00  0.0000000000000D+00
   328  3.2700000000000D+00  0.0000000000000D+00  0.0000000000000D+00
   329  3.2800000000000D+00  0.0000000000000D+00  0.0000000000000D+00
   330  3.2900000000000D+00  0.0000000000000D+00  0.0000000000000D+00
   331  3.3000000000000D+00  0.0000000000000D+00  0.0000000000000D+00
   332  3.3100000000000D+00  0.0000000000000D+00  0.0000000000000D+00
   333  3.3200000000000D+00  0.0000000000000D+00  0.0000000000000D+00
   334  3.3300000000000D+00  0.0000000000000D+00  0.0000000000000D+00
   335  3.3400000000000D+00  0.0000000000000D+00  0.0000000000000D+00
   336  3.3500000000000D+00  0.0000000000000D+00  0.0000000000000D+00
   337  3.3600000000000D+00  0.0000000000000D+00  0.0000000000000D+00
   338  3.3700000000000D+00  0.0000000000000D+00  0.0000000000000D+00
   339  3.3800000000000D+00  0.0000000000000D+00  0.0000000000000D+00
   340  3.3900000000000D+00  0.0000000000000D+00  0.0000000000000D+00
   341  3.4000000000000D+00  0.0000000000000D+00  0.0000000000000D+00
   342  3.4100000000000D+00  0.0000000000000D+00  0.0000000000000D+00
   343  3.4200000000000D+00  0.0000000000000D+00  0.0000000000000D+00
   344  3.4300000000000D+00  0.0000000000000D+00  0.0000000000000D+00
   345  3.4400000000000D+00  0.0000000000000D+00  0.0000000000000D+00
   346  3.4500000000000D+00  0.0000000000000D+00  0.0000000000000D+00
   347  3.4600000000000D+00  0.0000000000000D+00  0.0000000000000D+00
   348  3.4700000000000D+00  0.0000000000000D+00  0.0000000000000D+00
   349  3.4800000000000D+00  0.0000000000000D+00  0.0000000000000D+00
   350  3.4900000000000D+00  0.0000000000000D+00  0.0000000000000D+00
   351  3.5000000000000D+00  0.0000000000000D+00  0.0000000000000D+00
   352  3.5100000000000D+00  0.0000000000000D+00  0.0000000000000D+00
   353  3.5200000000000D+00  0.0000000000000D+00  0.0000000000000D+00
   354  3.5300000000000D+00  0.0000000000000D+00  0.0000000000000D+00
   355  3.5400000000000D+00  0.0000000000000D+00  0.0000000000000D+00
   356  3.5500000000000D+00  0.0000000000000D+00  0.0000000000000D+00
   357  3.5600000000000D+00  0.0000000000000D+00  0.0000000000000D+00
   358  3.5700000000000D+00  0.0000000000000D+00  0.0000000000000D+00
   359  3.5800000000000D+00  0.0000000000000D+00  0.0000000000000D+00
   360  3.5900000000000D+00  0.0000000000000D+00  0.0000000000000D+00
   361  3.6000000000000D+00  0.0000000000000D+00  0.0000000000000D+00
   362  3.6100000000000D+00  0.0000000000000D+00  0.0000000000000D+00
   363  3.6200000000000D+00  0.0000000000000D+00  0.0000000000000D+00
   364  3.6300000000000D+00  0.0000000000000D+00  0.0000000000000D+00
   365  3.6400000000000D+00  0.0000000000000D+00  0.0000000000000D+00
   366  3.6500000000000D+00  0.0000000000000D+00  0.0000000000000D+00
   367  3.6600000000000D+00  0.0000000000000D+00  0.0000000000000D+00
   368  3.6700000000000D+00  0.0000000000000D+00  0.0000000000000D+00
   369  3.6800000000000D+00  0.0000000000000D+00  0.0000000000000D+00
   370  3.6900000000000D+00  0.0000000000000D+00  0.0000000000000D+00
   371  3.7000000000000D+00  0.0000000000000D+00  0.0000000000000D+00
   372  3.7100000000000D+00  0.0000000000000D+00  0.0000000000000D+00
   373  3.7200000000000D+00  0.0000000000000D+00  0.0000000000000D+00
   374  3.7300000000000D+00  0.0000000000000D+00  0.0000000000000D+00
   375  3.7400000000000D+00  0.0000000000000D+00  0.0000000000000D+00
   376  3.7500000000000D+00  0.0000000000000D+00  0.0000000000000D+00
   377  3.7600000000000D+00  0.0000000000000D+00  0.0000000000000D+00
   378  3.7700000000000D+00  0.0000000000000D+00  0.0000000000000D+00
   379  3.7800000000000D+00  0.0000000000000D+00  0.0000000000000D+00
   380  3.7900000000000D+00  0.0000000000000D+00  0.0000000000000D+00
   381  3.8000000000000D+00  0.0000000000000D+00  0.0000000000000D+00
   382  3.8100000000000D+00  0.0000000000000D+00  0.0000000000000D+00
   383  3.8200000000000D+00  0.0000000000000D+00  0.0000000000000D+00
   384  3.8300000000000D+00  0.0000000000000D+00  0.0000000000000D+00
   385  3.8400000000000D+00  0.0000000000000D+00  0.0000000000000D+00
   386  3.8500000000000D+00  0.0000000000000D+00  0.0000000000000D+00
   387  3.8600000000000D+00  0.0000000000000D+00  0.0000000000000D+00
   388  3.8700000000000D+00  0.0000000000000D+00  0.0000000000000D+00
   389  3.8800000000000D+00  0.0000000000000D+00  0.0000000000000D+00
   390  3.8900000000000D+00  0.0000000000000D+00  0.0000000000000D+00
   391  3.9000000000000D+00  0.0000000000000D+00  0.0000000000000D+00
   392  3.9100000000000D+00  0.0000000000000D+00  0.0000000000000D+00
   393  3.9200000000000D+00  0.0000000000000D+00  0.0000000000000D+00
   394  3.9300000000000D+00  0.0000000000000D+00  0.0000000000000D+00
   395  3.9400000000000D+00  0.0000000000000D+00  0.0000000000000D+00
   396  3.9500000000000D+00  0.0000000000000D+00  0.0000000000000D+00
   397  3.9600000000000D+00  0.0000000000000D+00  0.0000000000000D+00
   398  3.9700000000000D+00  0.0000000000000D+00  0.0000000000000D+00
   399  3.9800000000000D+00  0.0000000000000D+00  0.0000000000000D+00
   400  3.9900000000000D+00  0.0000000000000D+00  0.0000000000000D+00
   401  4.0000000000000D+00  0.0000000000000D+00  0.0000000000000D+00
   402  4.0100000000000D+00  0.0000000000000D+00  0.0000000000000D+00
   403  4.0200000000000D+00  0.0000000000000D+00  0.0000000000000D+00
   404  4.0300000000000D+00  0.0000000000000D+00  0.0000000000000D+00
   405  4.0400000000000D+00  0.0000000000000D+00  0.0000000000000D+00
   406  4.0500000000000D+00  0.0000000000000D+00  0.0000000000000D+00
   407  4.0600000000000D+00  0.0000000000000D+00  0.0000000000000D+00
   408  4.0700000000000D+00  0.0000000000000D+00  0.0000000000000D+00
   409  4.0800000000000D+00  0.0000000000000D+00  0.0000000000000D+00
   410  4.0900000000000D+00  0.0000000000000D+00  0.0000000000000D+00
   411  4.1000000000000D+00  0.0000000000000D+00  0.0000000000000D+00
   412  4.1100000000000D+00  0.0000000000000D+00  0.0000000000000D+00
   413  4.1200000000000D+00  0.0000000000000D+00  0.0000000000000D+00
   414  4.1300000000000D+00  0.0000000000000D+00  0.0000000000000D+00
   415  4.1400000000000D+00  0.0000000000000D+00  0.0000000000000D+00
   416  4.1500000000000D+00  0.0000000000000D+00  0.0000000000000D+00
   417  4.1600000000000D+00  0.0000000000000D+00  0.0000000000000D+00
   418  4.1700000000000D+00  0.0000000000000D+00  0.0000000000000D+00
   419  4.1800000000000D+00  0.0000000000000D+00  0.0000000000000D+00
   420  4.1900000000000D+00  0.0000000000000D+00  0.0000000000000D+00
   421  4.2000000000000D+00  0.0000000000000D+00  0.0000000000000D+00
   422  4.2100000000000D+00  0.0000000000000D+00  0.0000000000000D+00
   423  4.2200000000000D+00  0.0000000000000D+00  0.0000000000000D+00