W     ONCVPSP  r_core=  1.46  1.52  1.36  1.71
74.0000     28.0000      160330    zatom,zion,pspd
8      11   3     4   600     0    pspcod,pspxc,lmax,lloc,mmax,r2well
5.99000000  5.00000000  0.00000000    rchrg fchrg qchrg
2     4     4     2    nproj
2                 extension_switch
4     4     3    nprojso
0                         1.3302738849194D+00  1.5832569350299D+01
1  0.0000000000000D+00 -5.9709262534291D-10  2.0787865873118D-10
2  1.0000000000000D-02 -1.3678364762543D-02  5.8873357653153D-02
3  2.0000000000000D-02 -2.7406010146838D-02  1.1769587315868D-01
4  3.0000000000000D-02 -4.1230792056224D-02  1.7641630066135D-01
5  4.0000000000000D-02 -5.5197733233273D-02  2.3498259246934D-01
6  5.0000000000000D-02 -6.9347647217091D-02  2.9334151202944D-01
7  6.0000000000000D-02 -8.3715810520291D-02  3.5143826342624D-01
8  7.0000000000000D-02 -9.8330698393200D-02  4.0921614266770D-01
9  8.0000000000000D-02 -1.1321279894574D-01  4.6661621581145D-01
10  9.0000000000000D-02 -1.2837351966009D-01  5.2357702872966D-01
11  1.0000000000000D-01 -1.4381419945599D-01  5.8003435300710D-01
12  1.1000000000000D-01 -1.5952523847314D-01  6.3592097211968D-01
13  1.2000000000000D-01 -1.7548535661854D-01  6.9116651165282D-01
14  1.3000000000000D-01 -1.9166099070222D-01  7.4569731689235D-01
15  1.4000000000000D-01 -2.0800583866077D-01  7.9943638066102D-01
16  1.5000000000000D-01 -2.2446055795714D-01  8.5230332378236D-01
17  1.6000000000000D-01 -2.4095262375889D-01  9.0421443003774D-01
18  1.7000000000000D-01 -2.5739635094735D-01  9.5508273694334D-01
19  1.8000000000000D-01 -2.7369308241208D-01  1.0048181831190D+00
20  1.9000000000000D-01 -2.8973154445038D-01  1.0533278124532D+00
21  2.0000000000000D-01 -3.0538836843612D-01  1.1005160346929D+00
22  2.1000000000000D-01 -3.2052877626034D-01  1.1462849415117D+00
23  2.2000000000000D-01 -3.3500742539123D-01  1.1905346765339D+00
24  2.3000000000000D-01 -3.4866940777059D-01  1.2331638572269D+00
25  2.4000000000000D-01 -3.6135139516948D-01  1.2740700460223D+00
26  2.5000000000000D-01 -3.7288292208530D-01  1.3131502674898D+00
27  2.6000000000000D-01 -3.8308779578744D-01  1.3503015678793D+00
28  2.7000000000000D-01 -3.9178562172525D-01  1.3854216128602D+00
29  2.8000000000000D-01 -3.9879343121175D-01  1.4184093188389D+00
30  2.9000000000000D-01 -4.0392739710414D-01  1.4491655128198D+00
31  3.0000000000000D-01 -4.0700462212783D-01  1.4775936154038D+00
32  3.1000000000000D-01 -4.0784498354623D-01  1.5036003411892D+00
33  3.2000000000000D-01 -4.0627301707564D-01  1.5270964105609D+00
34  3.3000000000000D-01 -4.0211982228817D-01  1.5479972666258D+00
35  3.4000000000000D-01 -3.9522497124974D-01  1.5662237908773D+00
36  3.5000000000000D-01 -3.8543840180416D-01  1.5817030110542D+00
37  3.6000000000000D-01 -3.7262227675030D-01  1.5943687945995D+00
38  3.7000000000000D-01 -3.5665279016588D-01  1.6041625211223D+00
39  3.8000000000000D-01 -3.3742190231378D-01  1.6110337273270D+00
40  3.9000000000000D-01 -3.1483898492494D-01  1.6149407179918D+00
41  4.0000000000000D-01 -2.8883235918380D-01  1.6158511367581D+00
42  4.1000000000000D-01 -2.5935070944906D-01  1.6137424907292D+00
43  4.2000000000000D-01 -2.2636435661463D-01  1.6086026231765D+00
44  4.3000000000000D-01 -1.8986637605377D-01  1.6004301289968D+00
45  4.4000000000000D-01 -1.4987354628152D-01  1.5892347079750D+00
46  4.5000000000000D-01 -1.0642711580993D-01  1.5750374513574D+00
47  4.6000000000000D-01 -5.9593377147769D-02  1.5578710577461D+00
48  4.7000000000000D-01 -9.4640384977174D-03  1.5377799748680D+00
49  4.8000000000000D-01  4.3843614581220D-02  1.5148204643556D+00
50  4.9000000000000D-01  1.0018677346680D-01  1.4890605872972D+00
51  5.0000000000000D-01  1.5939738074688D-01  1.4605801089559D+00
52  5.1000000000000D-01  2.2128262653745D-01  1.4294703217316D+00
53  5.2000000000000D-01  2.8562566689819D-01  1.3958337861221D+00
54  5.3000000000000D-01  3.5218656235860D-01  1.3597839901416D+00
55  5.4000000000000D-01  4.2070343251215D-01  1.3214449283576D+00
56  5.5000000000000D-01  4.9089382059018D-01  1.2809506024092D+00
57  5.6000000000000D-01  5.6245625990583D-01  1.2384444455655D+00
58  5.7000000000000D-01  6.3507203208148D-01  1.1940786745635D+00
59  5.8000000000000D-01  7.0840710506474D-01  1.1480135726282D+00
60  5.9000000000000D-01  7.8211423710650D-01  1.1004167082073D+00
61  6.0000000000000D-01  8.5583523115407D-01  1.0514620945594D+00
62  6.1000000000000D-01  9.2920332250262D-01  1.0013292958944D+00
63  6.2000000000000D-01  1.0018456810829D+00  9.5020248628382D-01
64  6.3000000000000D-01  1.0733860084464D+00  8.9826946802946D-01
65  6.4000000000000D-01  1.1434472083600D+00  8.4572065659161D-01
66  6.5000000000000D-01  1.2116541089588D+00  7.9274803953424D-01
67  6.6000000000000D-01  1.2776362136266D+00  7.3954411723835D-01
68  6.7000000000000D-01  1.3410304572054D+00  6.8630083336048D-01
69  6.8000000000000D-01  1.4014839437750D+00  6.3320850317097D-01
70  6.9000000000000D-01  1.4586566420990D+00  5.8045474799398D-01
71  7.0000000000000D-01  1.5122240149126D+00  5.2822344398388D-01
72  7.1000000000000D-01  1.5618795585356D+00  4.7669369341316D-01
73  7.2000000000000D-01  1.6073372298141D+00  4.2603882651348D-01
74  7.3000000000000D-01  1.6483337381506D+00  3.7642544170436D-01
75  7.4000000000000D-01  1.6846306813450D+00  3.2801249176477D-01
76  7.5000000000000D-01  1.7160165051541D+00  2.8095042315430D-01
77  7.6000000000000D-01  1.7423082678502D+00  2.3538037527394D-01
78  7.7000000000000D-01  1.7633531926420D+00  1.9143344597639D-01
79  7.8000000000000D-01  1.7790299925682D+00  1.4923002909404D-01
80  7.9000000000000D-01  1.7892499543881D+00  1.0887922915971D-01
81  8.0000000000000D-01  1.7939577700658D+00  7.0478357845485D-02
82  8.1000000000000D-01  1.7931321066298D+00  3.4112515956544D-02
83  8.2000000000000D-01  1.7867859074960D+00 -1.4573591228969D-04
84  8.3000000000000D-01  1.7749664207295D+00 -3.2236615710581D-02
85  8.4000000000000D-01  1.7577549521770D+00 -6.2113265694652D-02
86  8.5000000000000D-01  1.7352663439001D+00 -8.9741804858262D-02
87  8.6000000000000D-01  1.7076481808502D+00 -1.1510128808314D-01
88  8.7000000000000D-01  1.6750797312402D+00 -1.3818357287420D-01
89  8.8000000000000D-01  1.6377706285390D+00 -1.5899309535150D-01
90  8.9000000000000D-01  1.5959593054385D+00 -1.7754655796412D-01
91  9.0000000000000D-01  1.5499111924804D+00 -1.9387253216266D-01
92  9.1000000000000D-01  1.4999166962632D+00 -2.0801098000904D-01
93  9.2000000000000D-01  1.4462889742579D+00 -2.2001269940755D-01
94  9.3000000000000D-01  1.3893615252098D+00 -2.2993869830155D-01
95  9.4000000000000D-01  1.3294856158995D+00 -2.3785950379370D-01
96  9.5000000000000D-01  1.2670275666068D+00 -2.4385441269550D-01
97  9.6000000000000D-01  1.2023659190248D+00 -2.4801069050839D-01
98  9.7000000000000D-01  1.1358885115206D+00 -2.5042272626011D-01
99  9.8000000000000D-01  1.0679894875577D+00 -2.5119115096962D-01
100  9.9000000000000D-01  9.9906626376887D-01 -2.5042192778979D-01
101  1.0000000000000D+00  9.2951648457584D-01 -2.4822542207252D-01
102  1.0100000000000D+00  8.5973499040565D-01 -2.4471545971576D-01
103  1.0200000000000D+00  7.9011082640548D-01 -2.4000838217835D-01
104  1.0300000000000D+00  7.2102431821027D-01 -2.3422210650569D-01
105  1.0400000000000D+00  6.5284424061471D-01 -2.2747519856626D-01
106  1.0500000000000D+00  5.8592510409357D-01 -2.1988596748355D-01
107  1.0600000000000D+00  5.2060458294133D-01 -2.1157158895342D-01
108  1.0700000000000D+00  4.5720110733038D-01 -2.0264726474955D-01
109  1.0800000000000D+00  3.9601163997416D-01 -1.9322542528340D-01
110  1.0900000000000D+00  3.3730965624007D-01 -1.8341498157898D-01
111  1.1000000000000D+00  2.8134334433822D-01 -1.7332063240042D-01
112  1.1100000000000D+00  2.2833404011489D-01 -1.6304223167600D-01
113  1.1200000000000D+00  1.7847490825031D-01 -1.5267422057991D-01
114  1.1300000000000D+00  1.3192987973469D-01 -1.4230512807879D-01
115  1.1400000000000D+00  8.8832852053863D-02 -1.3201714274933D-01
116  1.1500000000000D+00  4.9287156327962D-02 -1.2188575803153D-01
117  1.1600000000000D+00  1.3365292276301D-02 -1.1197949208922D-01
118  1.1700000000000D+00 -1.8891069923285D-02 -1.0235968291727D-01
119  1.1800000000000D+00 -4.7470825937212D-02 -9.3080358108343D-02
120  1.1900000000000D+00 -7.2392918848750D-02 -8.4188178075250D-02
121  1.2000000000000D+00 -9.3705575996661D-02 -7.5722450657745D-02
122  1.2100000000000D+00 -1.1148531347205D-01 -6.7715214320999D-02
123  1.2200000000000D+00 -1.2583572390062D-01 -6.0191386169189D-02
124  1.2300000000000D+00 -1.3688606531130D-01 -5.3168970326857D-02
125  1.2400000000000D+00 -1.4478967007367D-01 -4.6659321884465D-02
126  1.2500000000000D+00 -1.4972219676915D-01 -4.0667460400375D-02
127  1.2600000000000D+00 -1.5187974860496D-01 -3.5192426704329D-02
128  1.2700000000000D+00 -1.5147688317056D-01 -3.0227676381922D-02
129  1.2800000000000D+00 -1.4874454094965D-01 -2.5761502480918D-02
130  1.2900000000000D+00 -1.4392792027715D-01 -2.1777479858197D-02
131  1.3000000000000D+00 -1.3728432706114D-01 -1.8254923396304D-02
132  1.3100000000000D+00 -1.2908102904667D-01 -1.5169351801458D-02
133  1.3200000000000D+00 -1.1959315415756D-01 -1.2492946509907D-02
134  1.3300000000000D+00 -1.0910159218648D-01 -1.0195013281500D-02
135  1.3400000000000D+00 -9.7891216800089D-02 -8.2423727994695D-03
136  1.3500000000000D+00 -8.6248321856066D-02 -6.5999316252665D-03
137  1.3600000000000D+00 -7.4460606810413D-02 -5.2306698025439D-03
138  1.3700000000000D+00 -6.2814298095012D-02 -4.0962807889501D-03
139  1.3800000000000D+00 -5.1584221390077D-02 -3.1593836587608D-03
140  1.3900000000000D+00 -4.1024776520922D-02 -2.3856123347197D-03
141  1.4000000000000D+00 -3.1359940416832D-02 -1.7459655642772D-03
142  1.4100000000000D+00 -2.2782688495461D-02 -1.2170457231322D-03
143  1.4200000000000D+00 -1.5458947493169D-02 -7.8160865572703D-04
144  1.4300000000000D+00 -9.4981049564979D-03 -4.2847490559350D-04
145  1.4400000000000D+00 -4.9696304819491D-03 -1.5442255468142D-04
146  1.4500000000000D+00 -2.0962880198443D-03  4.1547817064953D-05
147  1.4600000000000D+00 -7.4334825874838D-04  1.4382183622212D-04
148  1.4700000000000D+00 -2.1271192331069D-04  1.1465430697503D-04
149  1.4800000000000D+00 -1.7030183625975D-05  1.6648712975372D-05
150  1.4900000000000D+00  1.2910348074488D-05 -1.8527645982398D-05
151  1.5000000000000D+00 -2.4527940777978D-07  2.0124653951524D-07
152  1.5100000000000D+00 -4.1252478228665D-06  3.8276837915219D-06
153  1.5200000000000D+00  5.5605761544349D-07 -1.8233223061485D-07
154  1.5300000000000D+00  1.0715097870136D-06 -3.5134986764999D-07
155  1.5400000000000D+00  0.0000000000000D+00  0.0000000000000D+00
156  1.5500000000000D+00  0.0000000000000D+00  0.0000000000000D+00
157  1.5600000000000D+00  0.0000000000000D+00  0.0000000000000D+00
158  1.5700000000000D+00  0.0000000000000D+00  0.0000000000000D+00
159  1.5800000000000D+00  0.0000000000000D+00  0.0000000000000D+00
160  1.5900000000000D+00  0.0000000000000D+00  0.0000000000000D+00
161  1.6000000000000D+00  0.0000000000000D+00  0.0000000000000D+00
162  1.6100000000000D+00  0.0000000000000D+00  0.0000000000000D+00
163  1.6200000000000D+00  0.0000000000000D+00  0.0000000000000D+00
164  1.6300000000000D+00  0.0000000000000D+00  0.0000000000000D+00
165  1.6400000000000D+00  0.0000000000000D+00  0.0000000000000D+00
166  1.6500000000000D+00  0.0000000000000D+00  0.0000000000000D+00
167  1.6600000000000D+00  0.0000000000000D+00  0.0000000000000D+00
168  1.6700000000000D+00  0.0000000000000D+00  0.0000000000000D+00
169  1.6800000000000D+00  0.0000000000000D+00  0.0000000000000D+00
170  1.6900000000000D+00  0.0000000000000D+00  0.0000000000000D+00
171  1.7000000000000D+00  0.0000000000000D+00  0.0000000000000D+00
172  1.7100000000000D+00  0.0000000000000D+00  0.0000000000000D+00
173  1.7200000000000D+00  0.0000000000000D+00  0.0000000000000D+00
174  1.7300000000000D+00  0.0000000000000D+00  0.0000000000000D+00
175  1.7400000000000D+00  0.0000000000000D+00  0.0000000000000D+00
176  1.7500000000000D+00  0.0000000000000D+00  0.0000000000000D+00
177  1.7600000000000D+00  0.0000000000000D+00  0.0000000000000D+00
178  1.7700000000000D+00  0.0000000000000D+00  0.0000000000000D+00
179  1.7800000000000D+00  0.0000000000000D+00  0.0000000000000D+00
180  1.7900000000000D+00  0.0000000000000D+00  0.0000000000000D+00
181  1.8000000000000D+00  0.0000000000000D+00  0.0000000000000D+00
182  1.8100000000000D+00  0.0000000000000D+00  0.0000000000000D+00
183  1.8200000000000D+00  0.0000000000000D+00  0.0000000000000D+00
184  1.8300000000000D+00  0.0000000000000D+00  0.0000000000000D+00
185  1.8400000000000D+00  0.0000000000000D+00  0.0000000000000D+00
186  1.8500000000000D+00  0.0000000000000D+00  0.0000000000000D+00
187  1.8600000000000D+00  0.0000000000000D+00  0.0000000000000D+00
188  1.8700000000000D+00  0.0000000000000D+00  0.0000000000000D+00
189  1.8800000000000D+00  0.0000000000000D+00  0.0000000000000D+00
190  1.8900000000000D+00  0.0000000000000D+00  0.0000000000000D+00
191  1.9000000000000D+00  0.0000000000000D+00  0.0000000000000D+00
192  1.9100000000000D+00  0.0000000000000D+00  0.0000000000000D+00
193  1.9200000000000D+00  0.0000000000000D+00  0.0000000000000D+00
194  1.9300000000000D+00  0.0000000000000D+00  0.0000000000000D+00
195  1.9400000000000D+00  0.0000000000000D+00  0.0000000000000D+00
196  1.9500000000000D+00  0.0000000000000D+00  0.0000000000000D+00
197  1.9600000000000D+00  0.0000000000000D+00  0.0000000000000D+00
198  1.9700000000000D+00  0.0000000000000D+00  0.0000000000000D+00
199  1.9800000000000D+00  0.0000000000000D+00  0.0000000000000D+00
200  1.9900000000000D+00  0.0000000000000D+00  0.0000000000000D+00
201  2.0000000000000D+00  0.0000000000000D+00  0.0000000000000D+00
202  2.0100000000000D+00  0.0000000000000D+00  0.0000000000000D+00
203  2.0200000000000D+00  0.0000000000000D+00  0.0000000000000D+00
204  2.0300000000000D+00  0.0000000000000D+00  0.0000000000000D+00
205  2.0400000000000D+00  0.0000000000000D+00  0.0000000000000D+00
206  2.0500000000000D+00  0.0000000000000D+00  0.0000000000000D+00
207  2.0600000000000D+00  0.0000000000000D+00  0.0000000000000D+00
208  2.0700000000000D+00  0.0000000000000D+00  0.0000000000000D+00
209  2.0800000000000D+00  0.0000000000000D+00  0.0000000000000D+00
210  2.0900000000000D+00  0.0000000000000D+00  0.0000000000000D+00
211  2.1000000000000D+00  0.0000000000000D+00  0.0000000000000D+00
212  2.1100000000000D+00  0.0000000000000D+00  0.0000000000000D+00
213  2.1200000000000D+00  0.0000000000000D+00  0.0000000000000D+00
214  2.1300000000000D+00  0.0000000000000D+00  0.0000000000000D+00
215  2.1400000000000D+00  0.0000000000000D+00  0.0000000000000D+00
216  2.1500000000000D+00  0.0000000000000D+00  0.0000000000000D+00
217  2.1600000000000D+00  0.0000000000000D+00  0.0000000000000D+00
218  2.1700000000000D+00  0.0000000000000D+00  0.0000000000000D+00
219  2.1800000000000D+00  0.0000000000000D+00  0.0000000000000D+00
220  2.1900000000000D+00  0.0000000000000D+00  0.0000000000000D+00
221  2.2000000000000D+00  0.0000000000000D+00  0.0000000000000D+00
222  2.2100000000000D+00  0.0000000000000D+00  0.0000000000000D+00
223  2.2200000000000D+00  0.0000000000000D+00  0.0000000000000D+00
224  2.2300000000000D+00  0.0000000000000D+00  0.0000000000000D+00
225  2.2400000000000D+00  0.0000000000000D+00  0.0000000000000D+00
226  2.2500000000000D+00  0.0000000000000D+00  0.0000000000000D+00
227  2.2600000000000D+00  0.0000000000000D+00  0.0000000000000D+00
228  2.2700000000000D+00  0.0000000000000D+00  0.0000000000000D+00
229  2.2800000000000D+00  0.0000000000000D+00  0.0000000000000D+00
230  2.2900000000000D+00  0.0000000000000D+00  0.0000000000000D+00
231  2.3000000000000D+00  0.0000000000000D+00  0.0000000000000D+00
232  2.3100000000000D+00  0.0000000000000D+00  0.0000000000000D+00
233  2.3200000000000D+00  0.0000000000000D+00  0.0000000000000D+00
234  2.3300000000000D+00  0.0000000000000D+00  0.0000000000000D+00
235  2.3400000000000D+00  0.0000000000000D+00  0.0000000000000D+00
236  2.3500000000000D+00  0.0000000000000D+00  0.0000000000000D+00
237  2.3600000000000D+00  0.0000000000000D+00  0.0000000000000D+00
238  2.3700000000000D+00  0.0000000000000D+00  0.0000000000000D+00
239  2.3800000000000D+00  0.0000000000000D+00  0.0000000000000D+00
240  2.3900000000000D+00  0.0000000000000D+00  0.0000000000000D+00
241  2.4000000000000D+00  0.0000000000000D+00  0.0000000000000D+00
242  2.4100000000000D+00  0.0000000000000D+00  0.0000000000000D+00
243  2.4200000000000D+00  0.0000000000000D+00  0.0000000000000D+00
244  2.4300000000000D+00  0.0000000000000D+00  0.0000000000000D+00
245  2.4400000000000D+00  0.0000000000000D+00  0.0000000000000D+00
246  2.4500000000000D+00  0.0000000000000D+00  0.0000000000000D+00
247  2.4600000000000D+00  0.0000000000000D+00  0.0000000000000D+00
248  2.4700000000000D+00  0.0000000000000D+00  0.0000000000000D+00
249  2.4800000000000D+00  0.0000000000000D+00  0.0000000000000D+00
250  2.4900000000000D+00  0.0000000000000D+00  0.0000000000000D+00
251  2.5000000000000D+00  0.0000000000000D+00  0.0000000000000D+00
252  2.5100000000000D+00  0.0000000000000D+00  0.0000000000000D+00
253  2.5200000000000D+00  0.0000000000000D+00  0.0000000000000D+00
254  2.5300000000000D+00  0.0000000000000D+00  0.0000000000000D+00
255  2.5400000000000D+00  0.0000000000000D+00  0.0000000000000D+00
256  2.5500000000000D+00  0.0000000000000D+00  0.0000000000000D+00
257  2.5600000000000D+00  0.0000000000000D+00  0.0000000000000D+00
258  2.5700000000000D+00  0.0000000000000D+00  0.0000000000000D+00
259  2.5800000000000D+00  0.0000000000000D+00  0.0000000000000D+00
260  2.5900000000000D+00  0.0000000000000D+00  0.0000000000000D+00
261  2.6000000000000D+00  0.0000000000000D+00  0.0000000000000D+00
262  2.6100000000000D+00  0.0000000000000D+00  0.0000000000000D+00
263  2.6200000000000D+00  0.0000000000000D+00  0.0000000000000D+00
264  2.6300000000000D+00  0.0000000000000D+00  0.0000000000000D+00
265  2.6400000000000D+00  0.0000000000000D+00  0.0000000000000D+00
266  2.6500000000000D+00  0.0000000000000D+00  0.0000000000000D+00
267  2.6600000000000D+00  0.0000000000000D+00  0.0000000000000D+00
268  2.6700000000000D+00  0.0000000000000D+00  0.0000000000000D+00
269  2.6800000000000D+00  0.0000000000000D+00  0.0000000000000D+00
270  2.6900000000000D+00  0.0000000000000D+00  0.0000000000000D+00
271  2.7000000000000D+00  0.0000000000000D+00  0.0000000000000D+00
272  2.7100000000000D+00  0.0000000000000D+00  0.0000000000000D+00
273  2.7200000000000D+00  0.0000000000000D+00  0.0000000000000D+00
274  2.7300000000000D+00  0.0000000000000D+00  0.0000000000000D+00
275  2.7400000000000D+00  0.0000000000000D+00  0.0000000000000D+00
276  2.7500000000000D+00  0.0000000000000D+00  0.0000000000000D+00
277  2.7600000000000D+00  0.0000000000000D+00  0.0000000000000D+00
278  2.7700000000000D+00  0.0000000000000D+00  0.0000000000000D+00
279  2.7800000000000D+00  0.0000000000000D+00  0.0000000000000D+00
280  2.7900000000000D+00  0.0000000000000D+00  0.0000000000000D+00
281  2.8000000000000D+00  0.0000000000000D+00  0.0000000000000D+00
282  2.8100000000000D+00  0.0000000000000D+00  0.0000000000000D+00
283  2.8200000000000D+00  0.0000000000000D+00  0.0000000000000D+00
284  2.8300000000000D+00  0.0000000000000D+00  0.0000000000000D+00
285  2.8400000000000D+00  0.0000000000000D+00  0.0000000000000D+00
286  2.8500000000000D+00  0.0000000000000D+00  0.0000000000000D+00
287  2.8600000000000D+00  0.0000000000000D+00  0.0000000000000D+00
288  2.8700000000000D+00  0.0000000000000D+00  0.0000000000000D+00
289  2.8800000000000D+00  0.0000000000000D+00  0.0000000000000D+00
290  2.8900000000000D+00  0.0000000000000D+00  0.0000000000000D+00
291  2.9000000000000D+00  0.0000000000000D+00  0.0000000000000D+00
292  2.9100000000000D+00  0.0000000000000D+00  0.0000000000000D+00
293  2.9200000000000D+00  0.0000000000000D+00  0.0000000000000D+00
294  2.9300000000000D+00  0.0000000000000D+00  0.0000000000000D+00
295  2.9400000000000D+00  0.0000000000000D+00  0.0000000000000D+00
296  2.9500000000000D+00  0.0000000000000D+00  0.0000000000000D+00
297  2.9600000000000D+00  0.0000000000000D+00  0.0000000000000D+00
298  2.9700000000000D+00  0.0000000000000D+00  0.0000000000000D+00
299  2.9800000000000D+00  0.0000000000000D+00  0.0000000000000D+00
300  2.9900000000000D+00  0.0000000000000D+00  0.0000000000000D+00
301  3.0000000000000D+00  0.0000000000000D+00  0.0000000000000D+00
302  3.0100000000000D+00  0.0000000000000D+00  0.0000000000000D+00
303  3.0200000000000D+00  0.0000000000000D+00  0.0000000000000D+00
304  3.0300000000000D+00  0.0000000000000D+00  0.0000000000000D+00
305  3.0400000000000D+00  0.0000000000000D+00  0.0000000000000D+00
306  3.0500000000000D+00  0.0000000000000D+00  0.0000000000000D+00
307  3.0600000000000D+00  0.0000000000000D+00  0.0000000000000D+00
308  3.0700000000000D+00  0.0000000000000D+00  0.0000000000000D+00
309  3.0800000000000D+00  0.0000000000000D+00  0.0000000000000D+00
310  3.0900000000000D+00  0.0000000000000D+00  0.0000000000000D+00
311  3.1000000000000D+00  0.0000000000000D+00  0.0000000000000D+00
312  3.1100000000000D+00  0.0000000000000D+00  0.0000000000000D+00
313  3.1200000000000D+00  0.0000000000000D+00  0.0000000000000D+00
314  3.1300000000000D+00  0.0000000000000D+00  0.0000000000000D+00
315  3.1400000000000D+00  0.0000000000000D+00  0.0000000000000D+00
316  3.1500000000000D+00  0.0000000000000D+00  0.0000000000000D+00
317  3.1600000000000D+00  0.0000000000000D+00  0.0000000000000D+00
318  3.1700000000000D+00  0.0000000000000D+00  0.0000000000000D+00
319  3.1800000000000D+00  0.0000000000000D+00  0.0000000000000D+00
320  3.1900000000000D+00  0.0000000000000D+00  0.0000000000000D+00
321  3.2000000000000D+00  0.0000000000000D+00  0.0000000000000D+00
322  3.2100000000000D+00  0.0000000000000D+00  0.0000000000000D+00
323  3.2200000000000D+00  0.0000000000000D+00  0.0000000000000D+00
324  3.2300000000000D+00  0.0000000000000D+00  0.0000000000000D+00
325  3.2400000000000D+00  0.0000000000000D+00  0.0000000000000D+00
326  3.2500000000000D+00  0.0000000000000D+00  0.0000000000000D+00
327  3.2600000000000D+00  0.0000000000000D+00  0.0000000000000D+00
328  3.2700000000000D+00  0.0000000000000D+00  0.0000000000000D+00
329  3.2800000000000D+00  0.0000000000000D+00  0.0000000000000D+00
330  3.2900000000000D+00  0.0000000000000D+00  0.0000000000000D+00
331  3.3000000000000D+00  0.0000000000000D+00  0.0000000000000D+00
332  3.3100000000000D+00  0.0000000000000D+00  0.0000000000000D+00
333  3.3200000000000D+00  0.0000000000000D+00  0.0000000000000D+00
334  3.3300000000000D+00  0.0000000000000D+00  0.0000000000000D+00
335  3.3400000000000D+00  0.0000000000000D+00  0.0000000000000D+00
336  3.3500000000000D+00  0.0000000000000D+00  0.0000000000000D+00
337  3.3600000000000D+00  0.0000000000000D+00  0.0000000000000D+00
338  3.3700000000000D+00  0.0000000000000D+00  0.0000000000000D+00
339  3.3800000000000D+00  0.0000000000000D+00  0.0000000000000D+00
340  3.3900000000000D+00  0.0000000000000D+00  0.0000000000000D+00
341  3.4000000000000D+00  0.0000000000000D+00  0.0000000000000D+00
342  3.4100000000000D+00  0.0000000000000D+00  0.0000000000000D+00
343  3.4200000000000D+00  0.0000000000000D+00  0.0000000000000D+00
344  3.4300000000000D+00  0.0000000000000D+00  0.0000000000000D+00
345  3.4400000000000D+00  0.0000000000000D+00  0.0000000000000D+00
346  3.4500000000000D+00  0.0000000000000D+00  0.0000000000000D+00
347  3.4600000000000D+00  0.0000000000000D+00  0.0000000000000D+00
348  3.4700000000000D+00  0.0000000000000D+00  0.0000000000000D+00
349  3.4800000000000D+00  0.0000000000000D+00  0.0000000000000D+00
350  3.4900000000000D+00  0.0000000000000D+00  0.0000000000000D+00
351  3.5000000000000D+00  0.0000000000000D+00  0.0000000000000D+00
352  3.5100000000000D+00  0.0000000000000D+00  0.0000000000000D+00
353  3.5200000000000D+00  0.0000000000000D+00  0.0000000000000D+00
354  3.5300000000000D+00  0.0000000000000D+00  0.0000000000000D+00
355  3.5400000000000D+00  0.0000000000000D+00  0.0000000000000D+00
356  3.5500000000000D+00  0.0000000000000D+00  0.0000000000000D+00
357  3.5600000000000D+00  0.0000000000000D+00  0.0000000000000D+00
358  3.5700000000000D+00  0.0000000000000D+00  0.0000000000000D+00
359  3.5800000000000D+00  0.0000000000000D+00  0.0000000000000D+00
360  3.5900000000000D+00  0.0000000000000D+00  0.0000000000000D+00
361  3.6000000000000D+00  0.0000000000000D+00  0.0000000000000D+00
362  3.6100000000000D+00  0.0000000000000D+00  0.0000000000000D+00
363  3.6200000000000D+00  0.0000000000000D+00  0.0000000000000D+00
364  3.6300000000000D+00  0.0000000000000D+00  0.0000000000000D+00
365  3.6400000000000D+00  0.0000000000000D+00  0.0000000000000D+00
366  3.6500000000000D+00  0.0000000000000D+00  0.0000000000000D+00
367  3.6600000000000D+00  0.0000000000000D+00  0.0000000000000D+00
368  3.6700000000000D+00  0.0000000000000D+00  0.0000000000000D+00
369  3.6800000000000D+00  0.0000000000000D+00  0.0000000000000D+00
370  3.6900000000000D+00  0.0000000000000D+00  0.0000000000000D+00
371  3.7000000000000D+00  0.0000000000000D+00  0.0000000000000D+00
372  3.7100000000000D+00  0.0000000000000D+00  0.0000000000000D+00
373  3.7200000000000D+00  0.0000000000000D+00  0.0000000000000D+00
374  3.7300000000000D+00  0.0000000000000D+00  0.0000000000000D+00
375  3.7400000000000D+00  0.0000000000000D+00  0.0000000000000D+00
376  3.7500000000000D+00  0.0000000000000D+00  0.0000000000000D+00
377  3.7600000000000D+00  0.0000000000000D+00  0.0000000000000D+00
378  3.7700000000000D+00  0.0000000000000D+00  0.0000000000000D+00
379  3.7800000000000D+00  0.0000000000000D+00  0.0000000000000D+00
380  3.7900000000000D+00  0.0000000000000D+00  0.0000000000000D+00
381  3.8000000000000D+00  0.0000000000000D+00  0.0000000000000D+00
382  3.8100000000000D+00  0.0000000000000D+00  0.0000000000000D+00
383  3.8200000000000D+00  0.0000000000000D+00  0.0000000000000D+00
384  3.8300000000000D+00  0.0000000000000D+00  0.0000000000000D+00
385  3.8400000000000D+00  0.0000000000000D+00  0.0000000000000D+00
386  3.8500000000000D+00  0.0000000000000D+00  0.0000000000000D+00
387  3.8600000000000D+00  0.0000000000000D+00  0.0000000000000D+00
388  3.8700000000000D+00  0.0000000000000D+00  0.0000000000000D+00
389  3.8800000000000D+00  0.0000000000000D+00  0.0000000000000D+00
390  3.8900000000000D+00  0.0000000000000D+00  0.0000000000000D+00
391  3.9000000000000D+00  0.0000000000000D+00  0.0000000000000D+00
392  3.9100000000000D+00  0.0000000000000D+00  0.0000000000000D+00
393  3.9200000000000D+00  0.0000000000000D+00  0.0000000000000D+00
394  3.9300000000000D+00  0.0000000000000D+00  0.0000000000000D+00
395  3.9400000000000D+00  0.0000000000000D+00  0.0000000000000D+00
396  3.9500000000000D+00  0.0000000000000D+00  0.0000000000000D+00
397  3.9600000000000D+00  0.0000000000000D+00  0.0000000000000D+00
398  3.9700000000000D+00  0.0000000000000D+00  0.0000000000000D+00
399  3.9800000000000D+00  0.0000000000000D+00  0.0000000000000D+00
400  3.9900000000000D+00  0.0000000000000D+00  0.0000000000000D+00
401  4.0000000000000D+00  0.0000000000000D+00  0.0000000000000D+00
402  4.0100000000000D+00  0.0000000000000D+00  0.0000000000000D+00
403  4.0200000000000D+00  0.0000000000000D+00  0.0000000000000D+00
404  4.0300000000000D+00  0.0000000000000D+00  0.0000000000000D+00
405  4.0400000000000D+00  0.0000000000000D+00  0.0000000000000D+00
406  4.0500000000000D+00  0.0000000000000D+00  0.0000000000000D+00
407  4.0600000000000D+00  0.0000000000000D+00  0.0000000000000D+00
408  4.0700000000000D+00  0.0000000000000D+00  0.0000000000000D+00
409  4.0800000000000D+00  0.0000000000000D+00  0.0000000000000D+00
410  4.0900000000000D+00  0.0000000000000D+00  0.0000000000000D+00
411  4.1000000000000D+00  0.0000000000000D+00  0.0000000000000D+00
412  4.1100000000000D+00  0.0000000000000D+00  0.0000000000000D+00
413  4.1200000000000D+00  0.0000000000000D+00  0.0000000000000D+00
414  4.1300000000000D+00  0.0000000000000D+00  0.0000000000000D+00
415  4.1400000000000D+00  0.0000000000000D+00  0.0000000000000D+00
416  4.1500000000000D+00  0.0000000000000D+00  0.0000000000000D+00
417  4.1600000000000D+00  0.0000000000000D+00  0.0000000000000D+00
418  4.1700000000000D+00  0.0000000000000D+00  0.0000000000000D+00
419  4.1800000000000D+00  0.0000000000000D+00  0.0000000000000D+00
420  4.1900000000000D+00  0.0000000000000D+00  0.0000000000000D+00
421  4.2000000000000D+00  0.0000000000000D+00  0.0000000000000D+00
422  4.2100000000000D+00  0.0000000000000D+00  0.0000000000000D+00
423  4.2200000000000D+00  0.0000000000000D+00  0.0000000000000D+00
424  4.2300000000000D+00  0.0000000000000D+00  0.0000000000000D+00
425  4.2400000000000D+00  0.0000000000000D+00  0.0000000000000D+00
426  4.2500000000000D+00  0.0000000000000D+00  0.0000000000000D+00
427  4.2600000000000D+00  0.0000000000000D+00  0.0000000000000D+00
428  4.2700000000000D+00  0.0000000000000D+00  0.0000000000000D+00
429  4.2800000000000D+00  0.0000000000000D+00  0.0000000000000D+00
430  4.2900000000000D+00  0.0000000000000D+00  0.0000000000000D+00
431  4.3000000000000D+00  0.0000000000000D+00  0.0000000000000D+00
432  4.3100000000000D+00  0.0000000000000D+00  0.0000000000000D+00
433  4.3200000000000D+00  0.0000000000000D+00  0.0000000000000D+00
434  4.3300000000000D+00  0.0000000000000D+00  0.0000000000000D+00
435  4.3400000000000D+00  0.0000000000000D+00  0.0000000000000D+00
436  4.3500000000000D+00  0.0000000000000D+00  0.0000000000000D+00
437  4.3600000000000D+00  0.0000000000000D+00  0.0000000000000D+00
438  4.3700000000000D+00  0.0000000000000D+00  0.0000000000000D+00
439  4.3800000000000D+00  0.0000000000000D+00  0.0000000000000D+00
440  4.3900000000000D+00  0.0000000000000D+00  0.0000000000000D+00
441  4.4000000000000D+00  0.0000000000000D+00  0.0000000000000D+00
442  4.4100000000000D+00  0.0000000000000D+00  0.0000000000000D+00
443  4.4200000000000D+00  0.0000000000000D+00  0.0000000000000D+00