W     ONCVPSP  r_core=  2.63  2.22  2.22
74.0000     12.0000      150617    zatom,zion,pspd
8      11   2     4   600     0    pspcod,pspxc,lmax,lloc,mmax,r2well
5.99000000  5.00000000  0.00000000    rchrg fchrg qchrg
2     2     2     0     0    nproj
1                 extension_switch
0                         3.9333203643693D+00  4.6396210899580D-01
1  0.0000000000000D+00 -1.3639367413276D-12  1.9966805986371D-12
2  1.0000000000000D-02  1.9941509654672D-02 -2.1525081664436D-02
3  2.0000000000000D-02  3.9858384612429D-02 -4.3006374120278D-02
4  3.0000000000000D-02  5.9726054691522D-02 -6.4400194256428D-02
5  4.0000000000000D-02  7.9520078575420D-02 -8.5663070900272D-02
6  5.0000000000000D-02  9.9216207832949D-02 -1.0675185014610D-01
7  6.0000000000000D-02  1.1879045044446D-01 -1.2762379991599D-01
8  7.0000000000000D-02  1.3821913367094D-01 -1.4823671349962D-01
9  8.0000000000000D-02  1.5747896610437D-01 -1.6854901182150D-01
10  9.0000000000000D-02  1.7654709873938D-01 -1.8851984418669D-01
11  1.0000000000000D-01  1.9540118490825D-01 -2.0810918725895D-01
12  1.1000000000000D-01  2.1401943892372D-01 -2.2727794202888D-01
13  1.2000000000000D-01  2.3238069327679D-01 -2.4598802853365D-01
14  1.3000000000000D-01  2.5046445423970D-01 -2.6420247809411D-01
15  1.4000000000000D-01  2.6825095572779D-01 -2.8188552284054D-01
16  1.5000000000000D-01  2.8572121127749D-01 -2.9900268230333D-01
17  1.6000000000000D-01  3.0285706400178D-01 -3.1552084685098D-01
18  1.7000000000000D-01  3.1964123438881D-01 -3.3140835776437D-01
19  1.8000000000000D-01  3.3605736581413D-01 -3.4663508374280D-01
20  1.9000000000000D-01  3.5209006764160D-01 -3.6117249364509D-01
21  2.0000000000000D-01  3.6772495579384D-01 -3.7499372527644D-01
22  2.1000000000000D-01  3.8294869067807D-01 -3.8807365004021D-01
23  2.2000000000000D-01  3.9774901235951D-01 -4.0038893328262D-01
24  2.3000000000000D-01  4.1211477288027D-01 -4.1191809016706D-01
25  2.4000000000000D-01  4.2603596562835D-01 -4.2264153692488D-01
26  2.5000000000000D-01  4.3950375166779D-01 -4.3254163733885D-01
27  2.6000000000000D-01  4.5251048294805D-01 -4.4160274432645D-01
28  2.7000000000000D-01  4.6504972231778D-01 -4.4981123650046D-01
29  2.8000000000000D-01  4.7711626027569D-01 -4.5715554959561D-01
30  2.9000000000000D-01  4.8870612839848D-01 -4.6362620266181D-01
31  3.0000000000000D-01  4.9981660939408D-01 -4.6921581893561D-01
32  3.1000000000000D-01  5.1044624373605D-01 -4.7391914131463D-01
33  3.2000000000000D-01  5.2059483284334D-01 -4.7773304237133D-01
34  3.3000000000000D-01  5.3026343877808D-01 -4.8065652885567D-01
35  3.4000000000000D-01  5.3945438044233D-01 -4.8269074064918D-01
36  3.5000000000000D-01  5.4817122626362D-01 -4.8383894414615D-01
37  3.6000000000000D-01  5.5641878336773D-01 -4.8410652005100D-01
38  3.7000000000000D-01  5.6420308324594D-01 -4.8350094559479D-01
39  3.8000000000000D-01  5.7153136393330D-01 -4.8203177118756D-01
40  3.9000000000000D-01  5.7841204872303D-01 -4.7971059153692D-01
41  4.0000000000000D-01  5.8485472145152D-01 -4.7655101127788D-01
42  4.1000000000000D-01  5.9087009839746D-01 -4.7256860517251D-01
43  4.2000000000000D-01  5.9646999684761D-01 -4.6778087295257D-01
44  4.3000000000000D-01  6.0166730039091D-01 -4.6220718889244D-01
45  4.4000000000000D-01  6.0647592101166D-01 -4.5586874621369D-01
46  4.5000000000000D-01  6.1091075806143D-01 -4.4878849643685D-01
47  4.6000000000000D-01  6.1498765419832D-01 -4.4099108381016D-01
48  4.7000000000000D-01  6.1872334839102D-01 -4.3250277495879D-01
49  4.8000000000000D-01  6.2213542609356D-01 -4.2335138391173D-01
50  4.9000000000000D-01  6.2524226670557D-01 -4.1356619267758D-01
51  5.0000000000000D-01  6.2806298844076D-01 -4.0317786755298D-01
52  5.1000000000000D-01  6.3061739073472D-01 -3.9221837136143D-01
53  5.2000000000000D-01  6.3292589433111D-01 -3.8072087183210D-01
54  5.3000000000000D-01  6.3500947919257D-01 -3.6871964634120D-01
55  5.4000000000000D-01  6.3688962039059D-01 -3.5624998325019D-01
56  5.5000000000000D-01  6.3858822213524D-01 -3.4334808008662D-01
57  5.6000000000000D-01  6.4012755011263D-01 -3.3005093882460D-01
58  5.7000000000000D-01  6.4153016230423D-01 -3.1639625853234D-01
59  5.8000000000000D-01  6.4281883846831D-01 -3.0242232566411D-01
60  5.9000000000000D-01  6.4401650846942D-01 -2.8816790228360D-01
61  6.0000000000000D-01  6.4514617964681D-01 -2.7367211251394D-01
62  6.1000000000000D-01  6.4623086341787D-01 -2.5897432751846D-01
63  6.2000000000000D-01  6.4729350131645D-01 -2.4411404932275D-01
64  6.3000000000000D-01  6.4835689067029D-01 -2.2913079379597D-01
65  6.4000000000000D-01  6.4944361012465D-01 -2.1406397311479D-01
66  6.5000000000000D-01  6.5057594522236D-01 -1.9895277803839D-01
67  6.6000000000000D-01  6.5177581425258D-01 -1.8383606032741D-01
68  6.7000000000000D-01  6.5306469458231D-01 -1.6875221564288D-01
69  6.8000000000000D-01  6.5446354968583D-01 -1.5373906726341D-01
70  6.9000000000000D-01  6.5599275708788D-01 -1.3883375096092D-01
71  7.0000000000000D-01  6.5767203743620D-01 -1.2407260137543D-01
72  7.1000000000000D-01  6.5952038491840D-01 -1.0949104022879D-01
73  7.2000000000000D-01  6.6155599923705D-01 -9.5123466716660D-02
74  7.3000000000000D-01  6.6379621935476D-01 -8.1003150414663D-02
75  7.4000000000000D-01  6.6625745921861D-01 -6.7162127032214D-02
76  7.5000000000000D-01  6.6895514567003D-01 -5.3631097342271D-02
77  7.6000000000000D-01  6.7190365874262D-01 -4.0439329610522D-02
78  7.7000000000000D-01  6.7511627454577D-01 -2.7614565840733D-02
79  7.8000000000000D-01  6.7860511092690D-01 -1.5182932145465D-02
80  7.9000000000000D-01  6.8238107609956D-01 -3.1688535430099D-03
81  8.0000000000000D-01  6.8645382041829D-01  8.4050265280161D-03
82  8.1000000000000D-01  6.9083169147386D-01  1.9517921695952D-02
83  8.2000000000000D-01  6.9552169267562D-01  3.0150972875583D-02
84  8.3000000000000D-01  7.0052944547888D-01  4.0287312963563D-02
85  8.4000000000000D-01  7.0585915540687D-01  4.9912125765904D-02
86  8.5000000000000D-01  7.1151358200760D-01  5.9012698928994D-02
87  8.6000000000000D-01  7.1749401287576D-01  6.7578470660210D-02
88  8.7000000000000D-01  7.2380024185991D-01  7.5601070040721D-02
89  8.8000000000000D-01  7.3043055156392D-01  8.3074350749709D-02
90  8.9000000000000D-01  7.3738170024063D-01  8.9994418037328D-02
91  9.0000000000000D-01  7.4464891316360D-01  9.6359648802152D-02
92  9.1000000000000D-01  7.5222587855102D-01  1.0217070464781D-01
93  9.2000000000000D-01  7.6010474810285D-01  1.0743053781375D-01
94  9.3000000000000D-01  7.6827614219953D-01  1.1214438989551D-01
95  9.4000000000000D-01  7.7672915979736D-01  1.1631978329058D-01
96  9.5000000000000D-01  7.8545139304189D-01  1.1996650532802D-01
97  9.6000000000000D-01  7.9442894660733D-01  1.2309658506117D-01
98  9.7000000000000D-01  8.0364646175516D-01  1.2572426272619D-01
99  9.8000000000000D-01  8.1308714509185D-01  1.2786595189070D-01
100  9.9000000000000D-01  8.2273280199071D-01  1.2954019434051D-01
101  1.0000000000000D+00  8.3256387462859D-01  1.3076760777479D-01
102  1.0100000000000D+00  8.4255948457404D-01  1.3157082640371D-01
103  1.0200000000000D+00  8.5269747984841D-01  1.3197443456571D-01
104  1.0300000000000D+00  8.6295448636817D-01  1.3200489350363D-01
105  1.0400000000000D+00  8.7330596366111D-01  1.3169046146348D-01
106  1.0500000000000D+00  8.8372626473592D-01  1.3106110730116D-01
107  1.0600000000000D+00  8.9418869997040D-01  1.3014841780539D-01
108  1.0700000000000D+00  9.0466560486950D-01  1.2898549896736D-01
109  1.0800000000000D+00  9.1512841153167D-01  1.2760687144879D-01
110  1.0900000000000D+00  9.2554772364874D-01  1.2604836052109D-01
111  1.1000000000000D+00  9.3589339485105D-01  1.2434698077001D-01
112  1.1100000000000D+00  9.4613461019861D-01  1.2254081587847D-01
113  1.1200000000000D+00  9.5623997060542D-01  1.2066889382166D-01
114  1.1300000000000D+00  9.6617757997568D-01  1.1877105782258D-01
115  1.1400000000000D+00  9.7591513481667D-01  1.1688783343876D-01
116  1.1500000000000D+00  9.8542001608499D-01  1.1506029216358D-01
117  1.1600000000000D+00  9.9465938301208D-01  1.1332991194393D-01
118  1.1700000000000D+00  1.0036002686484D+00  1.1173843502544D-01
119  1.1800000000000D+00  1.0122096768546D+00  1.1032772355586D-01
120  1.1900000000000D+00  1.0204546804618D+00  1.0913961338514D-01
121  1.2000000000000D+00  1.0283025203184D+00  1.0821576651200D-01
122  1.2100000000000D+00  1.0357207049319D+00  1.0759752263581D-01
123  1.2200000000000D+00  1.0426771104119D+00  1.0732575028269D-01
124  1.2300000000000D+00  1.0491400804145D+00  1.0744069797896D-01
125  1.2400000000000D+00  1.0550785257874D+00  1.0798184594975D-01
126  1.2500000000000D+00  1.0604620236107D+00  1.0898775882714D-01
127  1.2600000000000D+00  1.0652609153279D+00  1.1049593985064D-01
128  1.2700000000000D+00  1.0694464036618D+00  1.1254268704558D-01
129  1.2800000000000D+00  1.0729906480098D+00  1.1516295186395D-01
130  1.2900000000000D+00  1.0758668580163D+00  1.1839020076577D-01
131  1.3000000000000D+00  1.0780493850196D+00  1.2225628022130D-01
132  1.3100000000000D+00  1.0795138110764D+00  1.2679128560422D-01
133  1.3200000000000D+00  1.0802370352741D+00  1.3202343443266D-01
134  1.3300000000000D+00  1.0801973570388D+00  1.3797894442342D-01
135  1.3400000000000D+00  1.0793745561615D+00  1.4468191679380D-01
136  1.3500000000000D+00  1.0777499692723D+00  1.5215422523895D-01
137  1.3600000000000D+00  1.0753065624884D+00  1.6041541101734D-01
138  1.3700000000000D+00  1.0720289999927D+00  1.6948258452511D-01
139  1.3800000000000D+00  1.0679037082901D+00  1.7937033375626D-01
140  1.3900000000000D+00  1.0629189359047D+00  1.9009064002138D-01
141  1.4000000000000D+00  1.0570648083129D+00  2.0165280124026D-01
142  1.4100000000000D+00  1.0503333778767D+00  2.1406336318068D-01
143  1.4200000000000D+00  1.0427186686066D+00  2.2732605890194D-01
144  1.4300000000000D+00  1.0342167155638D+00  2.4144175670025D-01
145  1.4400000000000D+00  1.0248255987208D+00  2.5640841683040D-01
146  1.4500000000000D+00  1.0145454711716D+00  2.7222105716909D-01
147  1.4600000000000D+00  1.0033785814982D+00  2.8887172811257D-01
148  1.4700000000000D+00  9.9132929023696D-01  3.0634949678724D-01
149  1.4800000000000D+00  9.7840408030387D-01  3.2464044078317D-01
150  1.4900000000000D+00  9.6461156130971D-01  3.4372765150466D-01
151  1.5000000000000D+00  9.4996246772373D-01  3.6359124718774D-01
152  1.5100000000000D+00  9.3446965078685D-01  3.8420839572700D-01
153  1.5200000000000D+00  9.1814806423542D-01  4.0555334719223D-01
154  1.5300000000000D+00  9.0101474372355D-01  4.2759747619949D-01
155  1.5400000000000D+00  8.8308878006687D-01  4.5030933391496D-01
156  1.5500000000000D+00  8.6439128624862D-01  4.7365470976936D-01
157  1.5600000000000D+00  8.4494535830784D-01  4.9759670266650D-01
158  1.5700000000000D+00  8.2477603014634D-01  5.2209580160584D-01
159  1.5800000000000D+00  8.0391022235234D-01  5.4710997553898D-01
160  1.5900000000000D+00  7.8237668517930D-01  5.7259477221297D-01
161  1.6000000000000D+00  7.6020593575405D-01  5.9850342585869D-01
162  1.6100000000000D+00  7.3743018975166D-01  6.2478697331584D-01
163  1.6200000000000D+00  7.1408328759154D-01  6.5139437848437D-01
164  1.6300000000000D+00  6.9020061548200D-01  6.7827266454740D-01
165  1.6400000000000D+00  6.6581902135614D-01  7.0536705387397D-01
166  1.6500000000000D+00  6.4097672610313D-01  7.3262111492214D-01
167  1.6600000000000D+00  6.1571323013687D-01  7.5997691605124D-01
168  1.6700000000000D+00  5.9006921576555D-01  7.8737518546799D-01
169  1.6800000000000D+00  5.6408644541819D-01  8.1475547719152D-01
170  1.6900000000000D+00  5.3780765622816D-01  8.4205634220427D-01
171  1.7000000000000D+00  5.1127645106137D-01  8.6921550462077D-01
172  1.7100000000000D+00  4.8453718650621D-01  8.9617004201642D-01
173  1.7200000000000D+00  4.5763485794989D-01  9.2285656968589D-01
174  1.7300000000000D+00  4.3061498226714D-01  9.4921142796270D-01
175  1.7400000000000D+00  4.0352347828551D-01  9.7517087230256D-01
176  1.7500000000000D+00  3.7640654554515D-01  1.0006712652796D+00
177  1.7600000000000D+00  3.4931054157188D-01  1.0256492701075D+00
178  1.7700000000000D+00  3.2228185814883D-01  1.0500420448908D+00
179  1.7800000000000D+00  2.9536679687118D-01  1.0737874371120D+00
180  1.7900000000000D+00  2.6861144442298D-01  1.0968241776370D+00
181  1.8000000000000D+00  2.4206154792466D-01  1.1190920736414D+00
182  1.8100000000000D+00  2.1576239074266D-01  1.1405321998195D+00
183  1.8200000000000D+00  1.8975866915752D-01  1.1610870872046D+00
184  1.8300000000000D+00  1.6409437025068D-01  1.1807009090101D+00
185  1.8400000000000D+00  1.3881265141660D-01  1.1993196628139D+00
186  1.8500000000000D+00  1.1395572186935D-01  1.2168913484729D+00
187  1.8600000000000D+00  8.9564726497577D-02  1.2333661411911D+00
188  1.8700000000000D+00  6.5679632512014D-02  1.2486965589923D+00
189  1.8800000000000D+00  4.2339119101537D-02  1.2628376242690D+00
190  1.8900000000000D+00  1.9580470684752D-02  1.2757470184053D+00
191  1.9000000000000D+00 -2.5605262014479D-03  1.2873852294531D+00
192  1.9100000000000D+00 -2.4049681692560D-02  1.2977156916940D+00
193  1.9200000000000D+00 -4.4854497077899D-02  1.3067049171523D+00
194  1.9300000000000D+00 -6.4944254391320D-02  1.3143226180799D+00
195  1.9400000000000D+00 -8.4290100953664D-02  1.3205418201751D+00
196  1.9500000000000D+00 -1.0286512861783D-01  1.3253389661411D+00
197  1.9600000000000D+00 -1.2064444717817D-01  1.3286940086825D+00
198  1.9700000000000D+00 -1.3760525221967D-01  1.3305904934559D+00
199  1.9800000000000D+00 -1.5372688642678D-01  1.3310156303085D+00
200  1.9900000000000D+00 -1.6899089493290D-01  1.3299603538469D+00
201  2.0000000000000D+00 -1.8338107384723D-01  1.3274193718774D+00
202  2.0100000000000D+00 -1.9688351214752D-01  1.3233912020758D+00
203  2.0200000000000D+00 -2.0948662680059D-01  1.3178781966827D+00
204  2.0300000000000D+00 -2.2118119050614D-01  1.3108865542174D+00
205  2.0400000000000D+00 -2.3196035280903D-01  1.3024263195190D+00
206  2.0500000000000D+00 -2.4181965339336D-01  1.2925113701167D+00
207  2.0600000000000D+00 -2.5075702847340D-01  1.2811593905226D+00
208  2.0700000000000D+00 -2.5877280966207D-01  1.2683918334222D+00
209  2.0800000000000D+00 -2.6586971520701D-01  1.2542338676060D+00
210  2.0900000000000D+00 -2.7205283435826D-01  1.2387143139733D+00
211  2.1000000000000D+00 -2.7732960359244D-01  1.2218655674713D+00
212  2.1100000000000D+00 -2.8170977607692D-01  1.2037235073511D+00
213  2.1200000000000D+00 -2.8520538353046D-01  1.1843273943394D+00
214  2.1300000000000D+00 -2.8783069067705D-01  1.1637197550925D+00
215  2.1400000000000D+00 -2.8960214314712D-01  1.1419462554077D+00
216  2.1500000000000D+00 -2.9053830741861D-01  1.1190555582118D+00
217  2.1600000000000D+00 -2.9065980512532D-01  1.0950991786456D+00
218  2.1700000000000D+00 -2.8998923985651D-01  1.0701313199936D+00
219  2.1800000000000D+00 -2.8855111405385D-01  1.0442086638418D+00
220  2.1900000000000D+00 -2.8637175380105D-01  1.0173902958356D+00
221  2.2000000000000D+00 -2.8347920635407D-01  9.8973741328132D-01
222  2.2100000000000D+00 -2.7990314001570D-01  9.6131308105427D-01
223  2.2200000000000D+00 -2.7567473874751D-01  9.3218197039418D-01
224  2.2300000000000D+00 -2.7082661726046D-01  9.0241046162073D-01
225  2.2400000000000D+00 -2.6539271215529D-01  8.7206652686946D-01
226  2.2500000000000D+00 -2.5940818932034D-01  8.4121970388349D-01
227  2.2600000000000D+00 -2.5290934390966D-01  8.0994099513722D-01
228  2.2700000000000D+00 -2.4593351969419D-01  7.7830308203163D-01
229  2.2800000000000D+00 -2.3851897825296D-01  7.4637988022164D-01
230  2.2900000000000D+00 -2.3070478918820D-01  7.1424638261264D-01
231  2.3000000000000D+00 -2.2253071157351D-01  6.8197839887420D-01
232  2.3100000000000D+00 -2.1403707874439D-01  6.4965242737029D-01
233  2.3200000000000D+00 -2.0526467684179D-01  6.1734541573347D-01
234  2.3300000000000D+00 -1.9625462375280D-01  5.8513455390465D-01
235  2.3400000000000D+00 -1.8704824738183D-01  5.5309707041436D-01
236  2.3500000000000D+00 -1.7768696306984D-01  5.2131002244217D-01
237  2.3600000000000D+00 -1.6821215047750D-01  4.8985008335978D-01
238  2.3700000000000D+00 -1.5866503074738D-01  4.5879333237605D-01
239  2.3800000000000D+00 -1.4908654385106D-01  4.2821504337778D-01
240  2.3900000000000D+00 -1.3951722720108D-01  3.9818947841647D-01
241  2.4000000000000D+00 -1.2999709511473D-01  3.6878968140311D-01
242  2.4100000000000D+00 -1.2056551970641D-01  3.4008727487851D-01
243  2.4200000000000D+00 -1.1126111384525D-01  3.1215225966780D-01
244  2.4300000000000D+00 -1.0212161600995D-01  2.8505281824966D-01
245  2.4400000000000D+00 -9.3183777577131D-02  2.5885512221928D-01
246  2.4500000000000D+00 -8.4483253293324D-02  2.3362314518649D-01
247  2.4600000000000D+00 -7.6054494379434D-02  2.0941848020909D-01
248  2.4700000000000D+00 -6.7930645152818D-02  1.8630016321920D-01
249  2.4800000000000D+00 -6.0143443752480D-02  1.6432450339487D-01
250  2.4900000000000D+00 -5.2723126206700D-02  1.4354491928985D-01
251  2.5000000000000D+00 -4.5698335027897D-02  1.2401178264100D-01
252  2.5100000000000D+00 -3.9096032724174D-02  1.0577227050639D-01
253  2.5200000000000D+00 -3.2941419271149D-02  8.8870224197576D-02
254  2.5300000000000D+00 -2.7257854993474D-02  7.3346017385969D-02
255  2.5400000000000D+00 -2.2069644685974D-02  5.9244003293131D-02
256  2.5500000000000D+00 -1.7393850519509D-02  4.6590875601494D-02
257  2.5600000000000D+00 -1.3241705790172D-02  3.5399473106247D-02
258  2.5700000000000D+00 -9.6177678449488D-03  2.5666624733091D-02
259  2.5800000000000D+00 -6.5481980673116D-03  1.7448055294136D-02
260  2.5900000000000D+00 -4.0808572309978D-03  1.0858672724969D-02
261  2.6000000000000D+00 -2.2438213433768D-03  5.9627893234380D-03
262  2.6100000000000D+00 -1.0143526673433D-03  2.6919142743324D-03
263  2.6200000000000D+00 -2.8609998536482D-04  7.5784559811585D-04
264  2.6300000000000D+00  5.6307175170090D-05 -1.4986934779901D-04
265  2.6400000000000D+00  1.4057434043362D-04 -3.7270316052597D-04
266  2.6500000000000D+00  8.4414067855742D-05 -2.2358251237092D-04
267  2.6600000000000D+00 -6.6462064230639D-06  1.7634662803679D-05
268  2.6700000000000D+00 -4.1995460573308D-05  1.1139428940635D-04
269  2.6800000000000D+00 -3.5714056403970D-05  9.4709481310389D-05
270  2.6900000000000D+00 -2.7882331318289D-06  7.3925528455703D-06
271  2.7000000000000D+00  6.6669248355486D-06 -1.7742501728324D-05
272  2.7100000000000D+00  7.4230895931131D-06 -1.9754174433029D-05
273  2.7200000000000D+00  2.1859518798981D-06 -5.8170519193177D-06
274  2.7300000000000D+00  1.0890870420442D-08 -2.7543370129845D-08
275  2.7400000000000D+00  1.5798358926263D-08 -3.9954570254865D-08
276  2.7500000000000D+00  7.8688840431660D-09 -1.9900667012155D-08
277  2.7600000000000D+00  0.0000000000000D+00  0.0000000000000D+00
278  2.7700000000000D+00  0.0000000000000D+00  0.0000000000000D+00
279  2.7800000000000D+00  0.0000000000000D+00  0.0000000000000D+00
280  2.7900000000000D+00  0.0000000000000D+00  0.0000000000000D+00
281  2.8000000000000D+00  0.0000000000000D+00  0.0000000000000D+00
282  2.8100000000000D+00  0.0000000000000D+00  0.0000000000000D+00
283  2.8200000000000D+00  0.0000000000000D+00  0.0000000000000D+00
284  2.8300000000000D+00  0.0000000000000D+00  0.0000000000000D+00
285  2.8400000000000D+00  0.0000000000000D+00  0.0000000000000D+00
286  2.8500000000000D+00  0.0000000000000D+00  0.0000000000000D+00
287  2.8600000000000D+00  0.0000000000000D+00  0.0000000000000D+00
288  2.8700000000000D+00  0.0000000000000D+00  0.0000000000000D+00
289  2.8800000000000D+00  0.0000000000000D+00  0.0000000000000D+00
290  2.8900000000000D+00  0.0000000000000D+00  0.0000000000000D+00
291  2.9000000000000D+00  0.0000000000000D+00  0.0000000000000D+00
292  2.9100000000000D+00  0.0000000000000D+00  0.0000000000000D+00
293  2.9200000000000D+00  0.0000000000000D+00  0.0000000000000D+00
294  2.9300000000000D+00  0.0000000000000D+00  0.0000000000000D+00
295  2.9400000000000D+00  0.0000000000000D+00  0.0000000000000D+00
296  2.9500000000000D+00  0.0000000000000D+00  0.0000000000000D+00
297  2.9600000000000D+00  0.0000000000000D+00  0.0000000000000D+00
298  2.9700000000000D+00  0.0000000000000D+00  0.0000000000000D+00
299  2.9800000000000D+00  0.0000000000000D+00  0.0000000000000D+00
300  2.9900000000000D+00  0.0000000000000D+00  0.0000000000000D+00
301  3.0000000000000D+00  0.0000000000000D+00  0.0000000000000D+00
302  3.0100000000000D+00  0.0000000000000D+00  0.0000000000000D+00
303  3.0200000000000D+00  0.0000000000000D+00  0.0000000000000D+00
304  3.0300000000000D+00  0.0000000000000D+00  0.0000000000000D+00
305  3.0400000000000D+00  0.0000000000000D+00  0.0000000000000D+00
306  3.0500000000000D+00  0.0000000000000D+00  0.0000000000000D+00
307  3.0600000000000D+00  0.0000000000000D+00  0.0000000000000D+00
308  3.0700000000000D+00  0.0000000000000D+00  0.0000000000000D+00
309  3.0800000000000D+00  0.0000000000000D+00  0.0000000000000D+00
310  3.0900000000000D+00  0.0000000000000D+00  0.0000000000000D+00
311  3.1000000000000D+00  0.0000000000000D+00  0.0000000000000D+00
312  3.1100000000000D+00  0.0000000000000D+00  0.0000000000000D+00
313  3.1200000000000D+00  0.0000000000000D+00  0.0000000000000D+00
314  3.1300000000000D+00  0.0000000000000D+00  0.0000000000000D+00
315  3.1400000000000D+00  0.0000000000000D+00  0.0000000000000D+00
316  3.1500000000000D+00  0.0000000000000D+00  0.0000000000000D+00
317  3.1600000000000D+00  0.0000000000000D+00  0.0000000000000D+00
318  3.1700000000000D+00  0.0000000000000D+00  0.0000000000000D+00
319  3.1800000000000D+00  0.0000000000000D+00  0.0000000000000D+00
320  3.1900000000000D+00  0.0000000000000D+00  0.0000000000000D+00
321  3.2000000000000D+00  0.0000000000000D+00  0.0000000000000D+00
322  3.2100000000000D+00  0.0000000000000D+00  0.0000000000000D+00
323  3.2200000000000D+00  0.0000000000000D+00  0.0000000000000D+00
324  3.2300000000000D+00  0.0000000000000D+00  0.0000000000000D+00
325  3.2400000000000D+00  0.0000000000000D+00  0.0000000000000D+00
326  3.2500000000000D+00  0.0000000000000D+00  0.0000000000000D+00
327  3.2600000000000D+00  0.0000000000000D+00  0.0000000000000D+00
328  3.2700000000000D+00  0.0000000000000D+00  0.0000000000000D+00
329  3.2800000000000D+00  0.0000000000000D+00  0.0000000000000D+00
330  3.2900000000000D+00  0.0000000000000D+00  0.0000000000000D+00
331  3.3000000000000D+00  0.0000000000000D+00  0.0000000000000D+00
332  3.3100000000000D+00  0.0000000000000D+00  0.0000000000000D+00
333  3.3200000000000D+00  0.0000000000000D+00  0.0000000000000D+00
334  3.3300000000000D+00  0.0000000000000D+00  0.0000000000000D+00
335  3.3400000000000D+00  0.0000000000000D+00  0.0000000000000D+00
336  3.3500000000000D+00  0.0000000000000D+00  0.0000000000000D+00
337  3.3600000000000D+00  0.0000000000000D+00  0.0000000000000D+00
338  3.3700000000000D+00  0.0000000000000D+00  0.0000000000000D+00
339  3.3800000000000D+00  0.0000000000000D+00  0.0000000000000D+00
340  3.3900000000000D+00  0.0000000000000D+00  0.0000000000000D+00
341  3.4000000000000D+00  0.0000000000000D+00  0.0000000000000D+00
342  3.4100000000000D+00  0.0000000000000D+00  0.0000000000000D+00
343  3.4200000000000D+00  0.0000000000000D+00  0.0000000000000D+00
344  3.4300000000000D+00  0.0000000000000D+00  0.0000000000000D+00
345  3.4400000000000D+00  0.0000000000000D+00  0.0000000000000D+00
346  3.4500000000000D+00  0.0000000000000D+00  0.0000000000000D+00
347  3.4600000000000D+00  0.0000000000000D+00  0.0000000000000D+00
348  3.4700000000000D+00  0.0000000000000D+00  0.0000000000000D+00
349  3.4800000000000D+00  0.0000000000000D+00  0.0000000000000D+00
350  3.4900000000000D+00  0.0000000000000D+00  0.0000000000000D+00
351  3.5000000000000D+00  0.0000000000000D+00  0.0000000000000D+00
352  3.5100000000000D+00  0.0000000000000D+00  0.0000000000000D+00
353  3.5200000000000D+00  0.0000000000000D+00  0.0000000000000D+00
354  3.5300000000000D+00  0.0000000000000D+00  0.0000000000000D+00
355  3.5400000000000D+00  0.0000000000000D+00  0.0000000000000D+00
356  3.5500000000000D+00  0.0000000000000D+00  0.0000000000000D+00
357  3.5600000000000D+00  0.0000000000000D+00  0.0000000000000D+00
358  3.5700000000000D+00  0.0000000000000D+00  0.0000000000000D+00
359  3.5800000000000D+00  0.0000000000000D+00  0.0000000000000D+00
360  3.5900000000000D+00  0.0000000000000D+00  0.0000000000000D+00
361  3.6000000000000D+00  0.0000000000000D+00  0.0000000000000D+00
362  3.6100000000000D+00  0.0000000000000D+00  0.0000000000000D+00
363  3.6200000000000D+00  0.0000000000000D+00  0.0000000000000D+00
364  3.6300000000000D+00  0.0000000000000D+00  0.0000000000000D+00
365  3.6400000000000D+00  0.0000000000000D+00  0.0000000000000D+00
366  3.6500000000000D+00  0.0000000000000D+00  0.0000000000000D+00
367  3.6600000000000D+00  0.0000000000000D+00  0.0000000000000D+00
368  3.6700000000000D+00  0.0000000000000D+00  0.0000000000000D+00
369  3.6800000000000D+00  0.0000000000000D+00  0.0000000000000D+00
370  3.6900000000000D+00  0.0000000000000D+00  0.0000000000000D+00
371  3.7000000000000D+00  0.0000000000000D+00  0.0000000000000D+00
372  3.7100000000000D+00  0.0000000000000D+00  0.0000000000000D+00
373  3.7200000000000D+00  0.0000000000000D+00  0.0000000000000D+00
374  3.7300000000000D+00  0.0000000000000D+00  0.0000000000000D+00
375  3.7400000000000D+00  0.0000000000000D+00  0.0000000000000D+00
376  3.7500000000000D+00  0.0000000000000D+00  0.0000000000000D+00
377  3.7600000000000D+00  0.0000000000000D+00  0.0000000000000D+00
378  3.7700000000000D+00  0.0000000000000D+00  0.0000000000000D+00
379  3.7800000000000D+00  0.0000000000000D+00  0.0000000000000D+00
380  3.7900000000000D+00  0.0000000000000D+00  0.0000000000000D+00
381  3.8000000000000D+00  0.0000000000000D+00  0.0000000000000D+00
382  3.8100000000000D+00  0.0000000000000D+00  0.0000000000000D+00
383  3.8200000000000D+00  0.0000000000000D+00  0.0000000000000D+00
384  3.8300000000000D+00  0.0000000000000D+00  0.0000000000000D+00
385  3.8400000000000D+00  0.0000000000000D+00  0.0000000000000D+00
386  3.8500000000000D+00  0.0000000000000D+00  0.0000000000000D+00
387  3.8600000000000D+00  0.0000000000000D+00  0.0000000000000D+00
388  3.8700000000000D+00  0.0000000000000D+00  0.0000000000000D+00
389  3.8800000000000D+00  0.0000000000000D+00  0.0000000000000D+00
390  3.8900000000000D+00  0.0000000000000D+00  0.0000000000000D+00
391  3.9000000000000D+00  0.0000000000000D+00  0.0000000000000D+00
392  3.9100000000000D+00  0.0000000000000D+00  0.0000000000000D+00
393  3.9200000000000D+00  0.0000000000000D+00  0.0000000000000D+00
394  3.9300000000000D+00  0.0000000000000D+00  0.0000000000000D+00
395  3.9400000000000D+00  0.0000000000000D+00  0.0000000000000D+00
396  3.9500000000000D+00  0.0000000000000D+00  0.0000000000000D+00
397  3.9600000000000D+00  0.0000000000000D+00  0.0000000000000D+00
398  3.9700000000000D+00  0.0000000000000D+00  0.0000000000000D+00
399  3.9800000000000D+00  0.0000000000000D+00  0.0000000000000D+00
400  3.9900000000000D+00  0.0000000000000D+00  0.0000000000000D+00
401  4.0000000000000D+00  0.0000000000000D+00  0.0000000000000D+00
402  4.0100000000000D+00  0.0000000000000D+00  0.0000000000000D+00
403  4.0200000000000D+00  0.0000000000000D+00  0.0000000000000D+00
404  4.0300000000000D+00  0.0000000000000D+00  0.0000000000000D+00
405  4.0400000000000D+00  0.0000000000000D+00  0.0000000000000D+00
406  4.0500000000000D+00  0.0000000000000D+00  0.0000000000000D+00
407  4.0600000000000D+00  0.0000000000000D+00  0.0000000000000D+00
408  4.0700000000000D+00  0.0000000000000D+00  0.0000000000000D+00
409  4.0800000000000D+00  0.0000000000000D+00  0.0000000000000D+00
410  4.0900000000000D+00  0.0000000000000D+00  0.0000000000000D+00
411  4.1000000000000D+00  0.0000000000000D+00  0.0000000000000D+00
412  4.1100000000000D+00  0.0000000000000D+00  0.0000000000000D+00
413  4.1200000000000D+00  0.0000000000000D+00  0.0000000000000D+00
414  4.1300000000000D+00  0.0000000000000D+00  0.0000000000000D+00
415  4.1400000000000D+00  0.0000000000000D+00  0.0000000000000D+00
416  4.1500000000000D+00  0.0000000000000D+00  0.0000000000000D+00
417  4.1600000000000D+00  0.0000000000000D+00  0.0000000000000D+00
418  4.1700000000000D+00  0.0000000000000D+00  0.0000000000000D+00
419  4.1800000000000D+00  0.0000000000000D+00  0.0000000000000D+00
420  4.1900000000000D+00  0.0000000000000D+00  0.0000000000000D+00
421  4.2000000000000D+00  0.0000000000000D+00  0.0000000000000D+00
422  4.2100000000000D+00  0.0000000000000D+00  0.0000000000000D+00
423  4.2200000000000D+00  0.0000000000000D+00  0.0000000000000D+00
424  4.2300000000000D+00  0.0000000000000D+00  0.0000000000000D+00
425  4.2400000000000D+00  0.0000000000000D+00  0.0000000000000D+00
426  4.2500000000000D+00  0.0000000000000D+00  0.0000000000000D+00
427  4.2600000000000D+00  0.0000000000000D+00  0.0000000000000D+00
428  4.2700000000000D+00  0.0000000000000D+00  0.0000000000000D+00
429  4.2800000000000D+00  0.0000000000000D+00  0.0000000000000D+00
430  4.2900000000000D+00  0.0000000000000D+00  0.0000000000000D+00
431  4.3000000000000D+00  0.0000000000000D+00  0.0000000000000D+00
432  4.3100000000000D+00  0.0000000000000D+00  0.0000000000000D+00
433  4.3200000000000D+00  0.0000000000000D+00  0.0000000000000D+00
434  4.3300000000000D+00  0.0000000000000D+00  0.0000000000000D+00
435  4.3400000000000D+00  0.0000000000000D+00  0.0000000000000D+00
436  4.3500000000000D+00  0.0000000000000D+00  0.0000000000000D+00
437  4.3600000000000D+00  0.0000000000000D+00  0.0000000000000D+00
438  4.3700000000000D+00  0.0000000000000D+00  0.0000000000000D+00
439  4.3800000000000D+00  0.0000000000000D+00  0.0000000000000D+00
440  4.3900000000000D+00  0.0000000000000D+00  0.0000000000000D+00
441  4.4000000000000D+00  0.0000000000000D+00  0.0000000000000D+00
442  4.4100000000000D+00  0.0000000000000D+00  0.0000000000000D+00
443  4.4200000000000D+00  0.0000000000000D+00  0.0000000000000D+00
444  4.4300000000000D+00  0.0000000000000D+00  0.0000000000000D+00