W     ONCVPSP  r_core=  1.61  1.61  1.61  2.28
74.0000     14.0000      160719    zatom,zion,pspd
8      11   3     4   600     0    pspcod,pspxc,lmax,lloc,mmax,r2well
5.99000000  4.50000000  0.00000000    rchrg fchrg qchrg
2     2     2     2     0    nproj
1                 extension_switch
0                         1.2798372929164D+01  1.7740247921324D+00
1  0.0000000000000D+00 -1.1737233407416D-10  4.9461990059285D-10
2  1.0000000000000D-02  5.3050657124347D-02 -2.2645151270221D-02
3  2.0000000000000D-02  1.0603056792854D-01 -4.5166792274573D-02
4  3.0000000000000D-02  1.5886918325556D-01 -6.7442373507211D-02
5  4.0000000000000D-02  2.1149634601182D-01 -8.9351255856332D-02
6  5.0000000000000D-02  2.6384248157205D-01 -1.1077563811282D-01
7  6.0000000000000D-02  3.1583878151588D-01 -1.3160145160627D-01
8  7.0000000000000D-02  3.6741737861253D-01 -1.5171921159635D-01
9  8.0000000000000D-02  4.1851151108724D-01 -1.7102481554199D-01
10  9.0000000000000D-02  4.6905567434741D-01 -1.8942027898023D-01
11  1.0000000000000D-01  5.1898575851671D-01 -2.0681440046457D-01
12  1.1000000000000D-01  5.6823917031851D-01 -2.2312334783266D-01
13  1.2000000000000D-01  6.1675493806611D-01 -2.3827115898663D-01
14  1.3000000000000D-01  6.6447379875123D-01 -2.5219015136763D-01
15  1.4000000000000D-01  7.1133826647452D-01 -2.6482123537942D-01
16  1.5000000000000D-01  7.5729268172700D-01 -2.7611412815224D-01
17  1.6000000000000D-01  8.0228324130815D-01 -2.8602746522769D-01
18  1.7000000000000D-01  8.4625800895124D-01 -2.9452880897387D-01
19  1.8000000000000D-01  8.8916690701526D-01 -3.0159455379584D-01
20  1.9000000000000D-01  9.3096168989349D-01 -3.0720972947598D-01
21  2.0000000000000D-01  9.7159590007662D-01 -3.1136770524707D-01
22  2.1000000000000D-01  1.0110248080903D+00 -3.1406979845545D-01
23  2.2000000000000D-01  1.0492053377993D+00 -3.1532479289704D-01
24  2.3000000000000D-01  1.0860959788300D+00 -3.1514837309110D-01
25  2.4000000000000D-01  1.1216566881037D+00 -3.1356248188213D-01
26  2.5000000000000D-01  1.1558487826986D+00 -3.1059460981390D-01
27  2.6000000000000D-01  1.1886348264516D+00 -3.0627702568988D-01
28  2.7000000000000D-01  1.2199785128872D+00 -3.0064595860622D-01
29  2.8000000000000D-01  1.2498445471989D+00 -2.9374074250672D-01
30  2.9000000000000D-01  1.2781985301184D+00 -2.8560293495170D-01
31  3.0000000000000D-01  1.3050068465827D+00 -2.7627542230426D-01
32  3.1000000000000D-01  1.3302365621419D+00 -2.6580152390988D-01
33  3.2000000000000D-01  1.3538553300524D+00 -2.5422410806975D-01
34  3.3000000000000D-01  1.3758313119531D+00 -2.4158473267993D-01
35  3.4000000000000D-01  1.3961331149397D+00 -2.2792282332136D-01
36  3.5000000000000D-01  1.4147297477257D+00 -2.1327490133853D-01
37  3.6000000000000D-01  1.4315905984096D+00 -1.9767387403446D-01
38  3.7000000000000D-01  1.4466854361601D+00 -1.8114839853880D-01
39  3.8000000000000D-01  1.4599844388802D+00 -1.6372233017610D-01
40  3.9000000000000D-01  1.4714582486241D+00 -1.4541426527752D-01
41  4.0000000000000D-01  1.4810780562151D+00 -1.2623718734763D-01
42  4.1000000000000D-01  1.4888157161580D+00 -1.0619822432848D-01
43  4.2000000000000D-01  1.4946438925450D+00 -8.5298523403394D-02
44  4.3000000000000D-01  1.4985362362469D+00 -6.3533248369217D-02
45  4.4000000000000D-01  1.5004675932348D+00 -4.0891703088176D-02
46  4.5000000000000D-01  1.5004142434299D+00 -1.7357582927995D-02
47  4.6000000000000D-01  1.4983541690045D+00  7.0906455726988D-03
48  4.7000000000000D-01  1.4942673505854D+00  3.2479238298973D-02
49  4.8000000000000D-01  1.4881360893302D+00  5.8838543650527D-02
50  4.9000000000000D-01  1.4799453523778D+00  8.6202254126840D-02
51  5.0000000000000D-01  1.4696831387069D+00  1.1460654615278D-01
52  5.1000000000000D-01  1.4573408619962D+00  1.4408911660435D-01
53  5.2000000000000D-01  1.4429137466516D+00  1.7468812615099D-01
54  5.3000000000000D-01  1.4264012327778D+00  2.0644106110672D-01
55  5.4000000000000D-01  1.4078073855101D+00  2.3938352695834D-01
56  5.5000000000000D-01  1.3871413038088D+00  2.7354798808892D-01
57  5.6000000000000D-01  1.3644175235483D+00  3.0896246942235D-01
58  5.7000000000000D-01  1.3396564095169D+00  3.4564923675864D-01
59  5.8000000000000D-01  1.3128845307846D+00  3.8362347342990D-01
60  5.9000000000000D-01  1.2841350137973D+00  4.2289197157257D-01
61  6.0000000000000D-01  1.2534478675243D+00  4.6345185676084D-01
62  6.1000000000000D-01  1.2208702750206D+00  5.0528936497539D-01
63  6.2000000000000D-01  1.1864568458713D+00  5.4837869087317D-01
64  6.3000000000000D-01  1.1502698241632D+00  5.9268092607903D-01
65  6.4000000000000D-01  1.1123792468773D+00  6.3814310572492D-01
66  6.5000000000000D-01  1.0728630479175D+00  6.8469738073007D-01
67  6.6000000000000D-01  1.0318071033819D+00  7.3226033233070D-01
68  6.7000000000000D-01  9.8930521414507D-01  7.8073244414968D-01
69  6.8000000000000D-01  9.4545902234172D-01  8.2999774565194D-01
70  6.9000000000000D-01  9.0037785893116D-01  8.7992363916129D-01
71  7.0000000000000D-01  8.5417852016237D-01  9.3036092074613D-01
72  7.1000000000000D-01  8.0698497145413D-01  9.8114400322490D-01
73  7.2000000000000D-01  7.5892797793802D-01  1.0320913473270D+00
74  7.3000000000000D-01  7.1014466168666D-01  1.0830061046788D+00
75  7.4000000000000D-01  6.6077798644947D-01  1.1336769738074D+00
76  7.5000000000000D-01  6.1097617153738D-01  1.1838792677897D+00
77  7.6000000000000D-01  5.6089203732835D-01  1.2333761895520D+00
78  7.7000000000000D-01  5.1068228569551D-01  1.2819203081696D+00
79  7.8000000000000D-01  4.6050671948187D-01  1.3292552268709D+00
80  7.9000000000000D-01  4.1052740594435D-01  1.3751174308479D+00
81  8.0000000000000D-01  3.6090778986594D-01  1.4192383004245D+00
82  8.1000000000000D-01  3.1181176276377D-01  1.4613462727143D+00
83  8.2000000000000D-01  2.6340269530567D-01  1.5011691325959D+00
84  8.3000000000000D-01  2.1584244067129D-01  1.5384364117118D+00
85  8.4000000000000D-01  1.6929031715030D-01  1.5728818722676D+00
86  8.5000000000000D-01  1.2390207875062D-01  1.6042460507097D+00
87  8.6000000000000D-01  7.9828882985607D-02  1.6322788349138D+00
88  8.7000000000000D-01  3.7216265314991D-02  1.6567420473497D+00
89  8.8000000000000D-01 -3.7968700759898D-03  1.6774120058151D+00
90  8.9000000000000D-01 -4.3079233367016D-02  1.6940820327793D+00
91  9.0000000000000D-01 -8.0508096266618D-02  1.7065648841472D+00
92  9.1000000000000D-01 -1.1597019355740D-01  1.7146950683676D+00
93  9.2000000000000D-01 -1.4936256954221D-01  1.7183310272633D+00
94  9.3000000000000D-01 -1.8059336023041D-01  1.7173571507558D+00
95  9.4000000000000D-01 -2.0958250253329D-01  1.7116855988096D+00
96  9.5000000000000D-01 -2.3626236226209D-01  1.7012579053750D+00
97  9.6000000000000D-01 -2.6057827335580D-01  1.6860463409171D+00
98  9.7000000000000D-01 -2.8248898149094D-01  1.6660550122195D+00
99  9.8000000000000D-01 -3.0196698603298D-01  1.6413206805298D+00
100  9.9000000000000D-01 -3.1899877518155D-01  1.6119132817645D+00
101  1.0000000000000D+00 -3.3358495012128D-01  1.5779361353669D+00
102  1.0100000000000D+00 -3.4574023500552D-01  1.5395258314768D+00
103  1.0200000000000D+00 -3.5549337069983D-01  1.4968517894065D+00
104  1.0300000000000D+00 -3.6288689124829D-01  1.4501154835789D+00
105  1.0400000000000D+00 -3.6797678324062D-01  1.3995493368001D+00
106  1.0500000000000D+00 -3.7083202935034D-01  1.3454152840969D+00
107  1.0600000000000D+00 -3.7153403846620D-01  1.2880030138993D+00
108  1.0700000000000D+00 -3.7017596598862D-01  1.2276278968982D+00
109  1.0800000000000D+00 -3.6686192892561D-01  1.1646286162005D+00
110  1.0900000000000D+00 -3.6170612148582D-01  1.0993645157011D+00
111  1.1000000000000D+00 -3.5483183792113D-01  1.0322126868666D+00
112  1.1100000000000D+00 -3.4637041024181D-01  9.6356481683770D-01
113  1.1200000000000D+00 -3.3646006936731D-01  8.9382382367951D-01
114  1.1300000000000D+00 -3.2524473889621D-01  8.2340030654541D-01
115  1.1400000000000D+00 -3.1287277155565D-01  7.5270884124841D-01
116  1.1500000000000D+00 -2.9949563880696D-01  6.8216415303223D-01
117  1.1600000000000D+00 -2.8526658459699D-01  6.1217719992361D-01
118  1.1700000000000D+00 -2.7033925451737D-01  5.4315120089606D-01
119  1.1800000000000D+00 -2.5486631194912D-01  4.7547764403971D-01
120  1.1900000000000D+00 -2.3899805273941D-01  4.0953230982205D-01
121  1.2000000000000D+00 -2.2288102991952D-01  3.4567134438193D-01
122  1.2100000000000D+00 -2.0665669989467D-01  2.8422741752645D-01
123  1.2200000000000D+00 -1.9046009987834D-01  2.2550599286099D-01
124  1.2300000000000D+00 -1.7441856669034D-01  1.6978174224697D-01
125  1.2400000000000D+00 -1.5865055145848D-01  1.1729533032022D-01
126  1.2500000000000D+00 -1.4326437989539D-01  6.8249883592308D-02
127  1.2600000000000D+00 -1.2835711466556D-01  2.2807793653832D-02
128  1.2700000000000D+00 -1.1401476967310D-01 -1.8906108063482D-02
129  1.2800000000000D+00 -1.0031278425343D-01 -5.6800815359872D-02
130  1.2900000000000D+00 -8.7316715654926D-02 -9.0814953328833D-02
131  1.3000000000000D+00 -7.5081831396214D-02 -1.2091816122343D-01
132  1.3100000000000D+00 -6.3652982798879D-02 -1.4711131018342D-01
133  1.3200000000000D+00 -5.3064602154214D-02 -1.6942625890535D-01
134  1.3300000000000D+00 -4.3340784041903D-02 -1.8792539109293D-01
135  1.3400000000000D+00 -3.4495464158697D-02 -2.0270084925545D-01
136  1.3500000000000D+00 -2.6532698669974D-02 -2.1387344917955D-01
137  1.3600000000000D+00 -1.9447035063307D-02 -2.2159131238066D-01
138  1.3700000000000D+00 -1.3223973362874D-02 -2.2602821533372D-01
139  1.3800000000000D+00 -7.8405164846246D-03 -2.2738165601349D-01
140  1.3900000000000D+00 -3.2657970414973D-03 -2.2587068564955D-01
141  1.4000000000000D+00  5.3822526779321D-04 -2.2173352246837D-01
142  1.4100000000000D+00  3.6159990276737D-03 -2.1522495491392D-01
143  1.4200000000000D+00  6.0175613747510D-03 -2.0661357597863D-01
144  1.4300000000000D+00  7.7976709263803D-03 -1.9617887323292D-01
145  1.4400000000000D+00  9.0149026942569D-03 -1.8420820418642D-01
146  1.4500000000000D+00  9.7307153344276D-03 -1.7099369048173D-01
147  1.4600000000000D+00  1.0008500253639D-02 -1.5682906149915D-01
148  1.4700000000000D+00  9.9126235503252D-03 -1.4200648280408D-01
149  1.4800000000000D+00  9.5074707000801D-03 -1.2681340133899D-01
150  1.4900000000000D+00  8.8565049173226D-03 -1.1152944262666D-01
151  1.5000000000000D+00  8.0213486335290D-03 -9.6423390454488D-02
152  1.5100000000000D+00  7.0608994657657D-03 -8.1750285690439D-02
153  1.5200000000000D+00  6.0304877616924D-03 -6.7748666978963D-02
154  1.5300000000000D+00  4.9810892175872D-03 -5.4637997535948D-02
155  1.5400000000000D+00  3.9585967492198D-03 -4.2616290972973D-02
156  1.5500000000000D+00  3.0031594370522D-03 -3.1857959880078D-02
157  1.5600000000000D+00  2.1491229417996D-03 -2.2517267359469D-02
158  1.5700000000000D+00  1.4223007163719D-03 -1.4703963865511D-02
159  1.5800000000000D+00  8.3857327629532D-04 -8.4766307935095D-03
160  1.5900000000000D+00  4.2162096984358D-04 -4.0040885901613D-03
161  1.6000000000000D+00  1.8622963418812D-04 -1.4005812723804D-03
162  1.6100000000000D+00  8.0109210137920D-05 -2.6524907001696D-04
163  1.6200000000000D+00  2.6666429952565D-05  3.9275596333632D-05
164  1.6300000000000D+00  6.0331703228208D-07  3.1001132279514D-06
165  1.6400000000000D+00 -3.2639184308262D-06 -2.6996297680312D-05
166  1.6500000000000D+00  9.9771372268590D-09  3.3438533249097D-08
167  1.6600000000000D+00  9.2752522146556D-07  3.9714766773595D-06
168  1.6700000000000D+00 -9.8287783927982D-09  2.7572511977987D-08
169  1.6800000000000D+00 -2.0671052916640D-07  5.7988168149082D-07
170  1.6900000000000D+00  0.0000000000000D+00  0.0000000000000D+00
171  1.7000000000000D+00  0.0000000000000D+00  0.0000000000000D+00
172  1.7100000000000D+00  0.0000000000000D+00  0.0000000000000D+00
173  1.7200000000000D+00  0.0000000000000D+00  0.0000000000000D+00
174  1.7300000000000D+00  0.0000000000000D+00  0.0000000000000D+00
175  1.7400000000000D+00  0.0000000000000D+00  0.0000000000000D+00
176  1.7500000000000D+00  0.0000000000000D+00  0.0000000000000D+00
177  1.7600000000000D+00  0.0000000000000D+00  0.0000000000000D+00
178  1.7700000000000D+00  0.0000000000000D+00  0.0000000000000D+00
179  1.7800000000000D+00  0.0000000000000D+00  0.0000000000000D+00
180  1.7900000000000D+00  0.0000000000000D+00  0.0000000000000D+00
181  1.8000000000000D+00  0.0000000000000D+00  0.0000000000000D+00
182  1.8100000000000D+00  0.0000000000000D+00  0.0000000000000D+00
183  1.8200000000000D+00  0.0000000000000D+00  0.0000000000000D+00
184  1.8300000000000D+00  0.0000000000000D+00  0.0000000000000D+00
185  1.8400000000000D+00  0.0000000000000D+00  0.0000000000000D+00
186  1.8500000000000D+00  0.0000000000000D+00  0.0000000000000D+00
187  1.8600000000000D+00  0.0000000000000D+00  0.0000000000000D+00
188  1.8700000000000D+00  0.0000000000000D+00  0.0000000000000D+00
189  1.8800000000000D+00  0.0000000000000D+00  0.0000000000000D+00
190  1.8900000000000D+00  0.0000000000000D+00  0.0000000000000D+00
191  1.9000000000000D+00  0.0000000000000D+00  0.0000000000000D+00
192  1.9100000000000D+00  0.0000000000000D+00  0.0000000000000D+00
193  1.9200000000000D+00  0.0000000000000D+00  0.0000000000000D+00
194  1.9300000000000D+00  0.0000000000000D+00  0.0000000000000D+00
195  1.9400000000000D+00  0.0000000000000D+00  0.0000000000000D+00
196  1.9500000000000D+00  0.0000000000000D+00  0.0000000000000D+00
197  1.9600000000000D+00  0.0000000000000D+00  0.0000000000000D+00
198  1.9700000000000D+00  0.0000000000000D+00  0.0000000000000D+00
199  1.9800000000000D+00  0.0000000000000D+00  0.0000000000000D+00
200  1.9900000000000D+00  0.0000000000000D+00  0.0000000000000D+00
201  2.0000000000000D+00  0.0000000000000D+00  0.0000000000000D+00
202  2.0100000000000D+00  0.0000000000000D+00  0.0000000000000D+00
203  2.0200000000000D+00  0.0000000000000D+00  0.0000000000000D+00
204  2.0300000000000D+00  0.0000000000000D+00  0.0000000000000D+00
205  2.0400000000000D+00  0.0000000000000D+00  0.0000000000000D+00
206  2.0500000000000D+00  0.0000000000000D+00  0.0000000000000D+00
207  2.0600000000000D+00  0.0000000000000D+00  0.0000000000000D+00
208  2.0700000000000D+00  0.0000000000000D+00  0.0000000000000D+00
209  2.0800000000000D+00  0.0000000000000D+00  0.0000000000000D+00
210  2.0900000000000D+00  0.0000000000000D+00  0.0000000000000D+00
211  2.1000000000000D+00  0.0000000000000D+00  0.0000000000000D+00
212  2.1100000000000D+00  0.0000000000000D+00  0.0000000000000D+00
213  2.1200000000000D+00  0.0000000000000D+00  0.0000000000000D+00
214  2.1300000000000D+00  0.0000000000000D+00  0.0000000000000D+00
215  2.1400000000000D+00  0.0000000000000D+00  0.0000000000000D+00
216  2.1500000000000D+00  0.0000000000000D+00  0.0000000000000D+00
217  2.1600000000000D+00  0.0000000000000D+00  0.0000000000000D+00
218  2.1700000000000D+00  0.0000000000000D+00  0.0000000000000D+00
219  2.1800000000000D+00  0.0000000000000D+00  0.0000000000000D+00
220  2.1900000000000D+00  0.0000000000000D+00  0.0000000000000D+00
221  2.2000000000000D+00  0.0000000000000D+00  0.0000000000000D+00
222  2.2100000000000D+00  0.0000000000000D+00  0.0000000000000D+00
223  2.2200000000000D+00  0.0000000000000D+00  0.0000000000000D+00
224  2.2300000000000D+00  0.0000000000000D+00  0.0000000000000D+00
225  2.2400000000000D+00  0.0000000000000D+00  0.0000000000000D+00
226  2.2500000000000D+00  0.0000000000000D+00  0.0000000000000D+00
227  2.2600000000000D+00  0.0000000000000D+00  0.0000000000000D+00
228  2.2700000000000D+00  0.0000000000000D+00  0.0000000000000D+00
229  2.2800000000000D+00  0.0000000000000D+00  0.0000000000000D+00
230  2.2900000000000D+00  0.0000000000000D+00  0.0000000000000D+00
231  2.3000000000000D+00  0.0000000000000D+00  0.0000000000000D+00
232  2.3100000000000D+00  0.0000000000000D+00  0.0000000000000D+00
233  2.3200000000000D+00  0.0000000000000D+00  0.0000000000000D+00
234  2.3300000000000D+00  0.0000000000000D+00  0.0000000000000D+00
235  2.3400000000000D+00  0.0000000000000D+00  0.0000000000000D+00
236  2.3500000000000D+00  0.0000000000000D+00  0.0000000000000D+00
237  2.3600000000000D+00  0.0000000000000D+00  0.0000000000000D+00
238  2.3700000000000D+00  0.0000000000000D+00  0.0000000000000D+00
239  2.3800000000000D+00  0.0000000000000D+00  0.0000000000000D+00
240  2.3900000000000D+00  0.0000000000000D+00  0.0000000000000D+00
241  2.4000000000000D+00  0.0000000000000D+00  0.0000000000000D+00
242  2.4100000000000D+00  0.0000000000000D+00  0.0000000000000D+00
243  2.4200000000000D+00  0.0000000000000D+00  0.0000000000000D+00
244  2.4300000000000D+00  0.0000000000000D+00  0.0000000000000D+00
245  2.4400000000000D+00  0.0000000000000D+00  0.0000000000000D+00
246  2.4500000000000D+00  0.0000000000000D+00  0.0000000000000D+00
247  2.4600000000000D+00  0.0000000000000D+00  0.0000000000000D+00
248  2.4700000000000D+00  0.0000000000000D+00  0.0000000000000D+00
249  2.4800000000000D+00  0.0000000000000D+00  0.0000000000000D+00
250  2.4900000000000D+00  0.0000000000000D+00  0.0000000000000D+00
251  2.5000000000000D+00  0.0000000000000D+00  0.0000000000000D+00
252  2.5100000000000D+00  0.0000000000000D+00  0.0000000000000D+00
253  2.5200000000000D+00  0.0000000000000D+00  0.0000000000000D+00
254  2.5300000000000D+00  0.0000000000000D+00  0.0000000000000D+00
255  2.5400000000000D+00  0.0000000000000D+00  0.0000000000000D+00
256  2.5500000000000D+00  0.0000000000000D+00  0.0000000000000D+00
257  2.5600000000000D+00  0.0000000000000D+00  0.0000000000000D+00
258  2.5700000000000D+00  0.0000000000000D+00  0.0000000000000D+00
259  2.5800000000000D+00  0.0000000000000D+00  0.0000000000000D+00
260  2.5900000000000D+00  0.0000000000000D+00  0.0000000000000D+00
261  2.6000000000000D+00  0.0000000000000D+00  0.0000000000000D+00
262  2.6100000000000D+00  0.0000000000000D+00  0.0000000000000D+00
263  2.6200000000000D+00  0.0000000000000D+00  0.0000000000000D+00
264  2.6300000000000D+00  0.0000000000000D+00  0.0000000000000D+00
265  2.6400000000000D+00  0.0000000000000D+00  0.0000000000000D+00
266  2.6500000000000D+00  0.0000000000000D+00  0.0000000000000D+00
267  2.6600000000000D+00  0.0000000000000D+00  0.0000000000000D+00
268  2.6700000000000D+00  0.0000000000000D+00  0.0000000000000D+00
269  2.6800000000000D+00  0.0000000000000D+00  0.0000000000000D+00
270  2.6900000000000D+00  0.0000000000000D+00  0.0000000000000D+00
271  2.7000000000000D+00  0.0000000000000D+00  0.0000000000000D+00
272  2.7100000000000D+00  0.0000000000000D+00  0.0000000000000D+00
273  2.7200000000000D+00  0.0000000000000D+00  0.0000000000000D+00
274  2.7300000000000D+00  0.0000000000000D+00  0.0000000000000D+00
275  2.7400000000000D+00  0.0000000000000D+00  0.0000000000000D+00
276  2.7500000000000D+00  0.0000000000000D+00  0.0000000000000D+00
277  2.7600000000000D+00  0.0000000000000D+00  0.0000000000000D+00
278  2.7700000000000D+00  0.0000000000000D+00  0.0000000000000D+00
279  2.7800000000000D+00  0.0000000000000D+00  0.0000000000000D+00
280  2.7900000000000D+00  0.0000000000000D+00  0.0000000000000D+00
281  2.8000000000000D+00  0.0000000000000D+00  0.0000000000000D+00
282  2.8100000000000D+00  0.0000000000000D+00  0.0000000000000D+00
283  2.8200000000000D+00  0.0000000000000D+00  0.0000000000000D+00
284  2.8300000000000D+00  0.0000000000000D+00  0.0000000000000D+00
285  2.8400000000000D+00  0.0000000000000D+00  0.0000000000000D+00
286  2.8500000000000D+00  0.0000000000000D+00  0.0000000000000D+00
287  2.8600000000000D+00  0.0000000000000D+00  0.0000000000000D+00
288  2.8700000000000D+00  0.0000000000000D+00  0.0000000000000D+00
289  2.8800000000000D+00  0.0000000000000D+00  0.0000000000000D+00
290  2.8900000000000D+00  0.0000000000000D+00  0.0000000000000D+00
291  2.9000000000000D+00  0.0000000000000D+00  0.0000000000000D+00
292  2.9100000000000D+00  0.0000000000000D+00  0.0000000000000D+00
293  2.9200000000000D+00  0.0000000000000D+00  0.0000000000000D+00
294  2.9300000000000D+00  0.0000000000000D+00  0.0000000000000D+00
295  2.9400000000000D+00  0.0000000000000D+00  0.0000000000000D+00
296  2.9500000000000D+00  0.0000000000000D+00  0.0000000000000D+00
297  2.9600000000000D+00  0.0000000000000D+00  0.0000000000000D+00
298  2.9700000000000D+00  0.0000000000000D+00  0.0000000000000D+00
299  2.9800000000000D+00  0.0000000000000D+00  0.0000000000000D+00
300  2.9900000000000D+00  0.0000000000000D+00  0.0000000000000D+00
301  3.0000000000000D+00  0.0000000000000D+00  0.0000000000000D+00
302  3.0100000000000D+00  0.0000000000000D+00  0.0000000000000D+00
303  3.0200000000000D+00  0.0000000000000D+00  0.0000000000000D+00
304  3.0300000000000D+00  0.0000000000000D+00  0.0000000000000D+00
305  3.0400000000000D+00  0.0000000000000D+00  0.0000000000000D+00
306  3.0500000000000D+00  0.0000000000000D+00  0.0000000000000D+00
307  3.0600000000000D+00  0.0000000000000D+00  0.0000000000000D+00
308  3.0700000000000D+00  0.0000000000000D+00  0.0000000000000D+00
309  3.0800000000000D+00  0.0000000000000D+00  0.0000000000000D+00
310  3.0900000000000D+00  0.0000000000000D+00  0.0000000000000D+00
311  3.1000000000000D+00  0.0000000000000D+00  0.0000000000000D+00
312  3.1100000000000D+00  0.0000000000000D+00  0.0000000000000D+00
313  3.1200000000000D+00  0.0000000000000D+00  0.0000000000000D+00
314  3.1300000000000D+00  0.0000000000000D+00  0.0000000000000D+00
315  3.1400000000000D+00  0.0000000000000D+00  0.0000000000000D+00
316  3.1500000000000D+00  0.0000000000000D+00  0.0000000000000D+00
317  3.1600000000000D+00  0.0000000000000D+00  0.0000000000000D+00
318  3.1700000000000D+00  0.0000000000000D+00  0.0000000000000D+00
319  3.1800000000000D+00  0.0000000000000D+00  0.0000000000000D+00
320  3.1900000000000D+00  0.0000000000000D+00  0.0000000000000D+00
321  3.2000000000000D+00  0.0000000000000D+00  0.0000000000000D+00
322  3.2100000000000D+00  0.0000000000000D+00  0.0000000000000D+00
323  3.2200000000000D+00  0.0000000000000D+00  0.0000000000000D+00
324  3.2300000000000D+00  0.0000000000000D+00  0.0000000000000D+00
325  3.2400000000000D+00  0.0000000000000D+00  0.0000000000000D+00
326  3.2500000000000D+00  0.0000000000000D+00  0.0000000000000D+00
327  3.2600000000000D+00  0.0000000000000D+00  0.0000000000000D+00
328  3.2700000000000D+00  0.0000000000000D+00  0.0000000000000D+00
329  3.2800000000000D+00  0.0000000000000D+00  0.0000000000000D+00
330  3.2900000000000D+00  0.0000000000000D+00  0.0000000000000D+00
331  3.3000000000000D+00  0.0000000000000D+00  0.0000000000000D+00
332  3.3100000000000D+00  0.0000000000000D+00  0.0000000000000D+00
333  3.3200000000000D+00  0.0000000000000D+00  0.0000000000000D+00
334  3.3300000000000D+00  0.0000000000000D+00  0.0000000000000D+00
335  3.3400000000000D+00  0.0000000000000D+00  0.0000000000000D+00
336  3.3500000000000D+00  0.0000000000000D+00  0.0000000000000D+00
337  3.3600000000000D+00  0.0000000000000D+00  0.0000000000000D+00
338  3.3700000000000D+00  0.0000000000000D+00  0.0000000000000D+00
339  3.3800000000000D+00  0.0000000000000D+00  0.0000000000000D+00
340  3.3900000000000D+00  0.0000000000000D+00  0.0000000000000D+00
341  3.4000000000000D+00  0.0000000000000D+00  0.0000000000000D+00
342  3.4100000000000D+00  0.0000000000000D+00  0.0000000000000D+00
343  3.4200000000000D+00  0.0000000000000D+00  0.0000000000000D+00
344  3.4300000000000D+00  0.0000000000000D+00  0.0000000000000D+00
345  3.4400000000000D+00  0.0000000000000D+00  0.0000000000000D+00
346  3.4500000000000D+00  0.0000000000000D+00  0.0000000000000D+00
347  3.4600000000000D+00  0.0000000000000D+00  0.0000000000000D+00
348  3.4700000000000D+00  0.0000000000000D+00  0.0000000000000D+00
349  3.4800000000000D+00  0.0000000000000D+00  0.0000000000000D+00
350  3.4900000000000D+00  0.0000000000000D+00  0.0000000000000D+00
351  3.5000000000000D+00  0.0000000000000D+00  0.0000000000000D+00
352  3.5100000000000D+00  0.0000000000000D+00  0.0000000000000D+00
353  3.5200000000000D+00  0.0000000000000D+00  0.0000000000000D+00
354  3.5300000000000D+00  0.0000000000000D+00  0.0000000000000D+00
355  3.5400000000000D+00  0.0000000000000D+00  0.0000000000000D+00
356  3.5500000000000D+00  0.0000000000000D+00  0.0000000000000D+00
357  3.5600000000000D+00  0.0000000000000D+00  0.0000000000000D+00
358  3.5700000000000D+00  0.0000000000000D+00  0.0000000000000D+00
359  3.5800000000000D+00  0.0000000000000D+00  0.0000000000000D+00
360  3.5900000000000D+00  0.0000000000000D+00  0.0000000000000D+00
361  3.6000000000000D+00  0.0000000000000D+00  0.0000000000000D+00
362  3.6100000000000D+00  0.0000000000000D+00  0.0000000000000D+00
363  3.6200000000000D+00  0.0000000000000D+00  0.0000000000000D+00
364  3.6300000000000D+00  0.0000000000000D+00  0.0000000000000D+00
365  3.6400000000000D+00  0.0000000000000D+00  0.0000000000000D+00
366  3.6500000000000D+00  0.0000000000000D+00  0.0000000000000D+00
367  3.6600000000000D+00  0.0000000000000D+00  0.0000000000000D+00
368  3.6700000000000D+00  0.0000000000000D+00  0.0000000000000D+00
369  3.6800000000000D+00  0.0000000000000D+00  0.0000000000000D+00
370  3.6900000000000D+00  0.0000000000000D+00  0.0000000000000D+00
371  3.7000000000000D+00  0.0000000000000D+00  0.0000000000000D+00
372  3.7100000000000D+00  0.0000000000000D+00  0.0000000000000D+00
373  3.7200000000000D+00  0.0000000000000D+00  0.0000000000000D+00
374  3.7300000000000D+00  0.0000000000000D+00  0.0000000000000D+00
375  3.7400000000000D+00  0.0000000000000D+00  0.0000000000000D+00
376  3.7500000000000D+00  0.0000000000000D+00  0.0000000000000D+00
377  3.7600000000000D+00  0.0000000000000D+00  0.0000000000000D+00
378  3.7700000000000D+00  0.0000000000000D+00  0.0000000000000D+00
379  3.7800000000000D+00  0.0000000000000D+00  0.0000000000000D+00
380  3.7900000000000D+00  0.0000000000000D+00  0.0000000000000D+00
381  3.8000000000000D+00  0.0000000000000D+00  0.0000000000000D+00
382  3.8100000000000D+00  0.0000000000000D+00  0.0000000000000D+00
383  3.8200000000000D+00  0.0000000000000D+00  0.0000000000000D+00
384  3.8300000000000D+00  0.0000000000000D+00  0.0000000000000D+00
385  3.8400000000000D+00  0.0000000000000D+00  0.0000000000000D+00
386  3.8500000000000D+00  0.0000000000000D+00  0.0000000000000D+00
387  3.8600000000000D+00  0.0000000000000D+00  0.0000000000000D+00
388  3.8700000000000D+00  0.0000000000000D+00  0.0000000000000D+00
389  3.8800000000000D+00  0.0000000000000D+00  0.0000000000000D+00
390  3.8900000000000D+00  0.0000000000000D+00  0.0000000000000D+00
391  3.9000000000000D+00  0.0000000000000D+00  0.0000000000000D+00
392  3.9100000000000D+00  0.0000000000000D+00  0.0000000000000D+00
393  3.9200000000000D+00  0.0000000000000D+00  0.0000000000000D+00
394  3.9300000000000D+00  0.0000000000000D+00  0.0000000000000D+00
395  3.9400000000000D+00  0.0000000000000D+00  0.0000000000000D+00
396  3.9500000000000D+00  0.0000000000000D+00  0.0000000000000D+00
397  3.9600000000000D+00  0.0000000000000D+00  0.0000000000000D+00
398  3.9700000000000D+00  0.0000000000000D+00  0.0000000000000D+00
399  3.9800000000000D+00  0.0000000000000D+00  0.0000000000000D+00
400  3.9900000000000D+00  0.0000000000000D+00  0.0000000000000D+00
401  4.0000000000000D+00  0.0000000000000D+00  0.0000000000000D+00
402  4.0100000000000D+00  0.0000000000000D+00  0.0000000000000D+00
403  4.0200000000000D+00  0.0000000000000D+00  0.0000000000000D+00
404  4.0300000000000D+00  0.0000000000000D+00  0.0000000000000D+00
405  4.0400000000000D+00  0.0000000000000D+00  0.0000000000000D+00
406  4.0500000000000D+00  0.0000000000000D+00  0.0000000000000D+00
407  4.0600000000000D+00  0.0000000000000D+00  0.0000000000000D+00
408  4.0700000000000D+00  0.0000000000000D+00  0.0000000000000D+00
409  4.0800000000000D+00  0.0000000000000D+00  0.0000000000000D+00
410  4.0900000000000D+00  0.0000000000000D+00  0.0000000000000D+00
411  4.1000000000000D+00  0.0000000000000D+00  0.0000000000000D+00
412  4.1100000000000D+00  0.0000000000000D+00  0.0000000000000D+00
413  4.1200000000000D+00  0.0000000000000D+00  0.0000000000000D+00
414  4.1300000000000D+00  0.0000000000000D+00  0.0000000000000D+00
415  4.1400000000000D+00  0.0000000000000D+00  0.0000000000000D+00
416  4.1500000000000D+00  0.0000000000000D+00  0.0000000000000D+00
417  4.1600000000000D+00  0.0000000000000D+00  0.0000000000000D+00
418  4.1700000000000D+00  0.0000000000000D+00  0.0000000000000D+00
419  4.1800000000000D+00  0.0000000000000D+00  0.0000000000000D+00
420  4.1900000000000D+00  0.0000000000000D+00  0.0000000000000D+00
421  4.2000000000000D+00  0.0000000000000D+00  0.0000000000000D+00
422  4.2100000000000D+00  0.0000000000000D+00  0.0000000000000D+00
423  4.2200000000000D+00  0.0000000000000D+00  0.0000000000000D+00
424  4.2300000000000D+00  0.0000000000000D+00  0.0000000000000D+00
425  4.2400000000000D+00  0.0000000000000D+00  0.0000000000000D+00
426  4.2500000000000D+00  0.0000000000000D+00  0.0000000000000D+00
427  4.2600000000000D+00  0.0000000000000D+00  0.0000000000000D+00
428  4.2700000000000D+00  0.0000000000000D+00  0.0000000000000D+00
429  4.2800000000000D+00  0.0000000000000D+00  0.0000000000000D+00
430  4.2900000000000D+00  0.0000000000000D+00  0.0000000000000D+00
431  4.3000000000000D+00  0.0000000000000D+00  0.0000000000000D+00
432  4.3100000000000D+00  0.0000000000000D+00  0.0000000000000D+00
433  4.3200000000000D+00  0.0000000000000D+00  0.0000000000000D+00
434  4.3300000000000D+00  0.0000000000000D+00  0.0000000000000D+00
435  4.3400000000000D+00  0.0000000000000D+00  0.0000000000000D+00
436  4.3500000000000D+00  0.0000000000000D+00  0.0000000000000D+00
437  4.3600000000000D+00  0.0000000000000D+00  0.0000000000000D+00
438  4.3700000000000D+00  0.0000000000000D+00  0.0000000000000D+00
439  4.3800000000000D+00  0.0000000000000D+00  0.0000000000000D+00
440  4.3900000000000D+00  0.0000000000000D+00  0.0000000000000D+00
441  4.4000000000000D+00  0.0000000000000D+00  0.0000000000000D+00
442  4.4100000000000D+00  0.0000000000000D+00  0.0000000000000D+00
443  4.4200000000000D+00  0.0000000000000D+00  0.0000000000000D+00