W     ONCVPSP  r_core=  1.46  1.52  1.36
74.0000     14.0000      160330    zatom,zion,pspd
8      11   2     4   600     0    pspcod,pspxc,lmax,lloc,mmax,r2well
5.99000000  4.50000000  0.00000000    rchrg fchrg qchrg
2     2     2     0     0    nproj
0                 extension_switch
0                         1.5801815295648D+01  1.5873453321463D+00
1  0.0000000000000D+00  2.3929780379461D-10 -5.8435911665100D-10
2  1.0000000000000D-02  5.0874397040820D-02 -9.2300920533847D-03
3  2.0000000000000D-02  1.0174287892941D-01 -1.8546755760543D-02
4  3.0000000000000D-02  1.5259887287867D-01 -2.8034934091880D-02
5  4.0000000000000D-02  2.0343449787642D-01 -3.7776329616859D-02
6  5.0000000000000D-02  2.5423992812359D-01 -4.7847826569130D-02
7  6.0000000000000D-02  3.0500277736289D-01 -5.8319963214566D-02
8  7.0000000000000D-02  3.5570751077911D-01 -6.9255470600241D-02
9  8.0000000000000D-02  4.0633489091275D-01 -8.0707893178040D-02
10  9.0000000000000D-02  4.5686146373319D-01 -9.2720306074507D-02
11  1.0000000000000D-01  5.0725909066790D-01 -1.0532414292458D-01
12  1.1000000000000D-01  5.5749453198327D-01 -1.1853814720686D-01
13  1.2000000000000D-01  6.0752908646347D-01 -1.3236745892056D-01
14  1.3000000000000D-01  6.5731829183998D-01 -1.4680284723695D-01
15  1.4000000000000D-01  7.0681168988995D-01 -1.6182009845096D-01
16  1.5000000000000D-01  7.5595265955035D-01 -1.7737956716134D-01
17  1.6000000000000D-01  8.0467832079176D-01 -1.9342589713237D-01
18  1.7000000000000D-01  8.5291951136558D-01 -2.0988791674697D-01
19  1.8000000000000D-01  9.0060083788570D-01 -2.2667871236401D-01
20  1.9000000000000D-01  9.4764080203662D-01 -2.4369588125363D-01
21  2.0000000000000D-01  9.9395200201944D-01 -2.6082196411726D-01
22  2.1000000000000D-01  1.0394414086605D+00 -2.7792505551742D-01
23  2.2000000000000D-01  1.0840107149208D+00 -2.9485958886064D-01
24  2.3000000000000D-01  1.1275567568638D+00 -3.1146729090881D-01
25  2.4000000000000D-01  1.1699720034694D+00 -3.2757829915471D-01
26  2.5000000000000D-01  1.2111451120280D+00 -3.4301243380022D-01
27  2.6000000000000D-01  1.2509615452222D+00 -3.5758061453482D-01
28  2.7000000000000D-01  1.2893042453974D+00 -3.7108641084286D-01
29  2.8000000000000D-01  1.3260543609575D+00 -3.8332771318090D-01
30  2.9000000000000D-01  1.3610920192923D+00 -3.9409851107845D-01
31  3.0000000000000D-01  1.3942971401547D+00 -4.0319076303478D-01
32  3.1000000000000D-01  1.4255502829703D+00 -4.1039634202661D-01
33  3.2000000000000D-01  1.4547335211746D+00 -4.1550903951418D-01
34  3.3000000000000D-01  1.4817313363443D+00 -4.1832661004796D-01
35  3.4000000000000D-01  1.5064315246171D+00 -4.1865283794399D-01
36  3.5000000000000D-01  1.5287261076872D+00 -4.1629960701920D-01
37  3.6000000000000D-01  1.5485122405225D+00 -4.1108895406624D-01
38  3.7000000000000D-01  1.5656931078675D+00 -4.0285508660534D-01
39  3.8000000000000D-01  1.5801788015942D+00 -3.9144634548234D-01
40  3.9000000000000D-01  1.5918871710179D+00 -3.7672709308889D-01
41  4.0000000000000D-01  1.6007446384278D+00 -3.5857950836516D-01
42  4.1000000000000D-01  1.6066869722788D+00 -3.3690527030428D-01
43  4.2000000000000D-01  1.6096600107590D+00 -3.1162711241075D-01
44  4.3000000000000D-01  1.6096203287765D+00 -2.8269023146751D-01
45  4.4000000000000D-01  1.6065358418089D+00 -2.5006353503200D-01
46  4.5000000000000D-01  1.6003863405137D+00 -2.1374071330451D-01
47  4.6000000000000D-01  1.5911639505163D+00 -1.7374112238251D-01
48  4.7000000000000D-01  1.5788735123577D+00 -1.3011046742327D-01
49  4.8000000000000D-01  1.5635328772092D+00 -8.2921275871587D-02
50  4.9000000000000D-01  1.5451731146186D+00 -3.2273152656539D-02
51  5.0000000000000D-01  1.5238386292612D+00  2.1707188891373D-02
52  5.1000000000000D-01  1.4995871844032D+00  7.8866124722875D-02
53  5.2000000000000D-01  1.4724898305492D+00  1.3902354867494D-01
54  5.3000000000000D-01  1.4426307385293D+00  2.0197353227586D-01
55  5.4000000000000D-01  1.4101069370847D+00  2.6748521395008D-01
56  5.5000000000000D-01  1.3750279558091D+00  3.3530391373320D-01
57  5.6000000000000D-01  1.3375153751160D+00  4.0515246752646D-01
58  5.7000000000000D-01  1.2977022856964D+00  4.7673277286044D-01
59  5.8000000000000D-01  1.2557326607137D+00  5.4972753613252D-01
60  5.9000000000000D-01  1.2117606447502D+00  6.2380220933168D-01
61  6.0000000000000D-01  1.1659497642448D+00  6.9860710241050D-01
62  6.1000000000000D-01  1.1184720648648D+00  7.7377965570148D-01
63  6.2000000000000D-01  1.0695071819048D+00  8.4894685514294D-01
64  6.3000000000000D-01  1.0192413504143D+00  9.2372777158133D-01
65  6.4000000000000D-01  9.6786636230484D-01  9.9773620407117D-01
66  6.5000000000000D-01  9.1557847817887D-01  1.0705834059243D+00
67  6.6000000000000D-01  8.6257730204766D-01  1.1418808712635D+00
68  6.7000000000000D-01  8.0906462746285D-01  1.2112431590407D+00
69  6.8000000000000D-01  7.5524326386727D-01  1.2782907308849D+00
70  6.9000000000000D-01  7.0131585217831D-01  1.3426527787627D+00
71  7.0000000000000D-01  6.4748367874420D-01  1.4039700182724D+00
72  7.1000000000000D-01  5.9394549686029D-01  1.4618974234500D+00
73  7.2000000000000D-01  5.4089636499861D-01  1.5161068792475D+00
74  7.3000000000000D-01  4.8852651078780D-01  1.5662897283519D+00
75  7.4000000000000D-01  4.3702022958383D-01  1.6121591897421D+00
76  7.5000000000000D-01  3.8655482619586D-01  1.6534526273207D+00
77  7.6000000000000D-01  3.3729960797841D-01  1.6899336481167D+00
78  7.7000000000000D-01  2.8941493707367D-01  1.7213940109045D+00
79  7.8000000000000D-01  2.4305134908938D-01  1.7476553276299D+00
80  7.9000000000000D-01  1.9834874493654D-01  1.7685705417455D+00
81  8.0000000000000D-01  1.5543566192346D-01  1.7840251694424D+00
82  8.1000000000000D-01  1.1442862952649D-01  1.7939382917792D+00
83  8.2000000000000D-01  7.5431614528909D-02  1.7982632878531D+00
84  8.3000000000000D-01  3.8535559450563D-02  1.7969883014061D+00
85  8.4000000000000D-01  3.8180173877604D-03  1.7901364355852D+00
86  8.5000000000000D-01 -2.8657114447062D-02  1.7777656729645D+00
87  8.6000000000000D-01 -5.8839761044369D-02  1.7599685203564D+00
88  8.7000000000000D-01 -8.6693735191939D-02  1.7368713803773D+00
89  8.8000000000000D-01 -1.1219670262130D-01  1.7086336541506D+00
90  8.9000000000000D-01 -1.3534004783573D-01  1.6754465819129D+00
91  9.0000000000000D-01 -1.5612864258763D-01  1.6375318306127D+00
92  9.1000000000000D-01 -1.7458051978687D-01  1.5951398398241D+00
93  9.2000000000000D-01 -1.9072645640487D-01  1.5485479394235D+00
94  9.3000000000000D-01 -2.0460946968170D-01  1.4980582544720D+00
95  9.4000000000000D-01 -2.1628423164283D-01  1.4439954145938D+00
96  9.5000000000000D-01 -2.2581640756857D-01  1.3867040867964D+00
97  9.6000000000000D-01 -2.3328192464787D-01  1.3265463521708D+00
98  9.7000000000000D-01 -2.3876617756307D-01  1.2638989481829D+00
99  9.8000000000000D-01 -2.4236317819573D-01  1.1991503993129D+00
100  9.9000000000000D-01 -2.4417465701588D-01  1.1326980596270D+00
101  1.0000000000000D+00 -2.4430912400708D-01  1.0649450914460D+00
102  1.0100000000000D+00 -2.4288089719050D-01  9.9629740460868D-01
103  1.0200000000000D+00 -2.4000910693356D-01  9.2716058089567D-01
104  1.0300000000000D+00 -2.3581668427459D-01  8.5793680803522D-01
105  1.0400000000000D+00 -2.3042934145010D-01  7.8902184726297D-01
106  1.0500000000000D+00 -2.2397455268294D-01  7.2080205774388D-01
107  1.0600000000000D+00 -2.1658054308367D-01  6.5365150025875D-01
108  1.0700000000000D+00 -2.0837529321910D-01  5.8792914137531D-01
109  1.0800000000000D+00 -1.9948556654725D-01  5.2397617799726D-01
110  1.0900000000000D+00 -1.9003596649397D-01  4.6211350064867D-01
111  1.1000000000000D+00 -1.8014802940876D-01  4.0263931197233D-01
112  1.1100000000000D+00 -1.6993935911421D-01  3.4582691513043D-01
113  1.1200000000000D+00 -1.5952280806548D-01  2.9192268445079D-01
114  1.1300000000000D+00 -1.4900570963834D-01  2.4114422900341D-01
115  1.1400000000000D+00 -1.3848916515468D-01  1.9367875681024D-01
116  1.1500000000000D+00 -1.2806738866594D-01  1.4968164549196D-01
117  1.1600000000000D+00 -1.1782711160061D-01  1.0927522222869D-01
118  1.1700000000000D+00 -1.0784704889172D-01  7.2547754341673D-02
119  1.1800000000000D+00 -9.8197427062204D-02  3.9552648218986D-02
120  1.1900000000000D+00 -8.8939574171488D-02  1.0307852528513D-02
121  1.2000000000000D+00 -8.0125570717928D-02 -1.5204540841217D-02
122  1.2100000000000D+00 -7.1797959909985D-02 -3.7038506791311D-02
123  1.2200000000000D+00 -6.3989512834929D-02 -5.5284128550231D-02
124  1.2300000000000D+00 -5.6723045054531D-02 -7.0067483108232D-02
125  1.2400000000000D+00 -5.0011349820288D-02 -8.1550083514111D-02
126  1.2500000000000D+00 -4.3856994416408D-02 -8.9929000248177D-02
127  1.2600000000000D+00 -3.8252202743844D-02 -9.5436710670713D-02
128  1.2700000000000D+00 -3.3180794377463D-02 -9.8331403200022D-02
129  1.2800000000000D+00 -2.8620384563554D-02 -9.8886743893506D-02
130  1.2900000000000D+00 -2.4544773105865D-02 -9.7381311897413D-02
131  1.3000000000000D+00 -2.0924438278175D-02 -9.4097093936927D-02
132  1.3100000000000D+00 -1.7727327167734D-02 -8.9316655198616D-02
133  1.3200000000000D+00 -1.4919687530787D-02 -8.3320104735137D-02
134  1.3300000000000D+00 -1.2466864518271D-02 -7.6382260671860D-02
135  1.3400000000000D+00 -1.0334080351301D-02 -6.8769898405058D-02
136  1.3500000000000D+00 -8.4871971853211D-03 -6.0739071313127D-02
137  1.3600000000000D+00 -6.8934449028977D-03 -5.2532574792293D-02
138  1.3700000000000D+00 -5.5221138327153D-03 -4.4377545418221D-02
139  1.3800000000000D+00 -4.3452099907709D-03 -3.6483197103757D-02
140  1.3900000000000D+00 -3.3380562304341D-03 -2.9038758129115D-02
141  1.4000000000000D+00 -2.4798371826675D-03 -2.2211611966810D-02
142  1.4100000000000D+00 -1.7540859177573D-03 -1.6145642838471D-02
143  1.4200000000000D+00 -1.1493668297787D-03 -1.0963663724584D-02
144  1.4300000000000D+00 -6.5830975890798D-04 -6.7465313359931D-03
145  1.4400000000000D+00 -2.7984472083760D-04 -3.5446017215227D-03
146  1.4500000000000D+00 -1.9211360898191D-05 -1.5180364804495D-03
147  1.4600000000000D+00  1.1279165575572D-04 -5.6610427454006D-04
148  1.4700000000000D+00  1.0037826217336D-04 -1.7785418824941D-04
149  1.4800000000000D+00  1.4957498919101D-05 -1.5852715209785D-05
150  1.4900000000000D+00 -1.6811572563616D-05  1.3290186619133D-05
151  1.5000000000000D+00  1.7971092832692D-07 -2.1994505196394D-07
152  1.5100000000000D+00  3.4329414633027D-06 -3.7946269604090D-06
153  1.5200000000000D+00 -1.5363162055526D-07  4.3959861952997D-07
154  1.5300000000000D+00 -2.9604447533451D-07  8.4709607440295D-07
155  1.5400000000000D+00  0.0000000000000D+00  0.0000000000000D+00
156  1.5500000000000D+00  0.0000000000000D+00  0.0000000000000D+00
157  1.5600000000000D+00  0.0000000000000D+00  0.0000000000000D+00
158  1.5700000000000D+00  0.0000000000000D+00  0.0000000000000D+00
159  1.5800000000000D+00  0.0000000000000D+00  0.0000000000000D+00
160  1.5900000000000D+00  0.0000000000000D+00  0.0000000000000D+00
161  1.6000000000000D+00  0.0000000000000D+00  0.0000000000000D+00
162  1.6100000000000D+00  0.0000000000000D+00  0.0000000000000D+00
163  1.6200000000000D+00  0.0000000000000D+00  0.0000000000000D+00
164  1.6300000000000D+00  0.0000000000000D+00  0.0000000000000D+00
165  1.6400000000000D+00  0.0000000000000D+00  0.0000000000000D+00
166  1.6500000000000D+00  0.0000000000000D+00  0.0000000000000D+00
167  1.6600000000000D+00  0.0000000000000D+00  0.0000000000000D+00
168  1.6700000000000D+00  0.0000000000000D+00  0.0000000000000D+00
169  1.6800000000000D+00  0.0000000000000D+00  0.0000000000000D+00
170  1.6900000000000D+00  0.0000000000000D+00  0.0000000000000D+00
171  1.7000000000000D+00  0.0000000000000D+00  0.0000000000000D+00
172  1.7100000000000D+00  0.0000000000000D+00  0.0000000000000D+00
173  1.7200000000000D+00  0.0000000000000D+00  0.0000000000000D+00
174  1.7300000000000D+00  0.0000000000000D+00  0.0000000000000D+00
175  1.7400000000000D+00  0.0000000000000D+00  0.0000000000000D+00
176  1.7500000000000D+00  0.0000000000000D+00  0.0000000000000D+00
177  1.7600000000000D+00  0.0000000000000D+00  0.0000000000000D+00
178  1.7700000000000D+00  0.0000000000000D+00  0.0000000000000D+00
179  1.7800000000000D+00  0.0000000000000D+00  0.0000000000000D+00
180  1.7900000000000D+00  0.0000000000000D+00  0.0000000000000D+00
181  1.8000000000000D+00  0.0000000000000D+00  0.0000000000000D+00
182  1.8100000000000D+00  0.0000000000000D+00  0.0000000000000D+00
183  1.8200000000000D+00  0.0000000000000D+00  0.0000000000000D+00
184  1.8300000000000D+00  0.0000000000000D+00  0.0000000000000D+00
185  1.8400000000000D+00  0.0000000000000D+00  0.0000000000000D+00
186  1.8500000000000D+00  0.0000000000000D+00  0.0000000000000D+00
187  1.8600000000000D+00  0.0000000000000D+00  0.0000000000000D+00
188  1.8700000000000D+00  0.0000000000000D+00  0.0000000000000D+00
189  1.8800000000000D+00  0.0000000000000D+00  0.0000000000000D+00
190  1.8900000000000D+00  0.0000000000000D+00  0.0000000000000D+00
191  1.9000000000000D+00  0.0000000000000D+00  0.0000000000000D+00
192  1.9100000000000D+00  0.0000000000000D+00  0.0000000000000D+00
193  1.9200000000000D+00  0.0000000000000D+00  0.0000000000000D+00
194  1.9300000000000D+00  0.0000000000000D+00  0.0000000000000D+00
195  1.9400000000000D+00  0.0000000000000D+00  0.0000000000000D+00
196  1.9500000000000D+00  0.0000000000000D+00  0.0000000000000D+00
197  1.9600000000000D+00  0.0000000000000D+00  0.0000000000000D+00
198  1.9700000000000D+00  0.0000000000000D+00  0.0000000000000D+00
199  1.9800000000000D+00  0.0000000000000D+00  0.0000000000000D+00
200  1.9900000000000D+00  0.0000000000000D+00  0.0000000000000D+00
201  2.0000000000000D+00  0.0000000000000D+00  0.0000000000000D+00
202  2.0100000000000D+00  0.0000000000000D+00  0.0000000000000D+00
203  2.0200000000000D+00  0.0000000000000D+00  0.0000000000000D+00
204  2.0300000000000D+00  0.0000000000000D+00  0.0000000000000D+00
205  2.0400000000000D+00  0.0000000000000D+00  0.0000000000000D+00
206  2.0500000000000D+00  0.0000000000000D+00  0.0000000000000D+00
207  2.0600000000000D+00  0.0000000000000D+00  0.0000000000000D+00
208  2.0700000000000D+00  0.0000000000000D+00  0.0000000000000D+00
209  2.0800000000000D+00  0.0000000000000D+00  0.0000000000000D+00
210  2.0900000000000D+00  0.0000000000000D+00  0.0000000000000D+00
211  2.1000000000000D+00  0.0000000000000D+00  0.0000000000000D+00
212  2.1100000000000D+00  0.0000000000000D+00  0.0000000000000D+00
213  2.1200000000000D+00  0.0000000000000D+00  0.0000000000000D+00
214  2.1300000000000D+00  0.0000000000000D+00  0.0000000000000D+00
215  2.1400000000000D+00  0.0000000000000D+00  0.0000000000000D+00
216  2.1500000000000D+00  0.0000000000000D+00  0.0000000000000D+00
217  2.1600000000000D+00  0.0000000000000D+00  0.0000000000000D+00
218  2.1700000000000D+00  0.0000000000000D+00  0.0000000000000D+00
219  2.1800000000000D+00  0.0000000000000D+00  0.0000000000000D+00
220  2.1900000000000D+00  0.0000000000000D+00  0.0000000000000D+00
221  2.2000000000000D+00  0.0000000000000D+00  0.0000000000000D+00
222  2.2100000000000D+00  0.0000000000000D+00  0.0000000000000D+00
223  2.2200000000000D+00  0.0000000000000D+00  0.0000000000000D+00
224  2.2300000000000D+00  0.0000000000000D+00  0.0000000000000D+00
225  2.2400000000000D+00  0.0000000000000D+00  0.0000000000000D+00
226  2.2500000000000D+00  0.0000000000000D+00  0.0000000000000D+00
227  2.2600000000000D+00  0.0000000000000D+00  0.0000000000000D+00
228  2.2700000000000D+00  0.0000000000000D+00  0.0000000000000D+00
229  2.2800000000000D+00  0.0000000000000D+00  0.0000000000000D+00
230  2.2900000000000D+00  0.0000000000000D+00  0.0000000000000D+00
231  2.3000000000000D+00  0.0000000000000D+00  0.0000000000000D+00
232  2.3100000000000D+00  0.0000000000000D+00  0.0000000000000D+00
233  2.3200000000000D+00  0.0000000000000D+00  0.0000000000000D+00
234  2.3300000000000D+00  0.0000000000000D+00  0.0000000000000D+00
235  2.3400000000000D+00  0.0000000000000D+00  0.0000000000000D+00
236  2.3500000000000D+00  0.0000000000000D+00  0.0000000000000D+00
237  2.3600000000000D+00  0.0000000000000D+00  0.0000000000000D+00
238  2.3700000000000D+00  0.0000000000000D+00  0.0000000000000D+00
239  2.3800000000000D+00  0.0000000000000D+00  0.0000000000000D+00
240  2.3900000000000D+00  0.0000000000000D+00  0.0000000000000D+00
241  2.4000000000000D+00  0.0000000000000D+00  0.0000000000000D+00
242  2.4100000000000D+00  0.0000000000000D+00  0.0000000000000D+00
243  2.4200000000000D+00  0.0000000000000D+00  0.0000000000000D+00
244  2.4300000000000D+00  0.0000000000000D+00  0.0000000000000D+00
245  2.4400000000000D+00  0.0000000000000D+00  0.0000000000000D+00
246  2.4500000000000D+00  0.0000000000000D+00  0.0000000000000D+00
247  2.4600000000000D+00  0.0000000000000D+00  0.0000000000000D+00
248  2.4700000000000D+00  0.0000000000000D+00  0.0000000000000D+00
249  2.4800000000000D+00  0.0000000000000D+00  0.0000000000000D+00
250  2.4900000000000D+00  0.0000000000000D+00  0.0000000000000D+00
251  2.5000000000000D+00  0.0000000000000D+00  0.0000000000000D+00
252  2.5100000000000D+00  0.0000000000000D+00  0.0000000000000D+00
253  2.5200000000000D+00  0.0000000000000D+00  0.0000000000000D+00
254  2.5300000000000D+00  0.0000000000000D+00  0.0000000000000D+00
255  2.5400000000000D+00  0.0000000000000D+00  0.0000000000000D+00
256  2.5500000000000D+00  0.0000000000000D+00  0.0000000000000D+00
257  2.5600000000000D+00  0.0000000000000D+00  0.0000000000000D+00
258  2.5700000000000D+00  0.0000000000000D+00  0.0000000000000D+00
259  2.5800000000000D+00  0.0000000000000D+00  0.0000000000000D+00
260  2.5900000000000D+00  0.0000000000000D+00  0.0000000000000D+00
261  2.6000000000000D+00  0.0000000000000D+00  0.0000000000000D+00
262  2.6100000000000D+00  0.0000000000000D+00  0.0000000000000D+00
263  2.6200000000000D+00  0.0000000000000D+00  0.0000000000000D+00
264  2.6300000000000D+00  0.0000000000000D+00  0.0000000000000D+00
265  2.6400000000000D+00  0.0000000000000D+00  0.0000000000000D+00
266  2.6500000000000D+00  0.0000000000000D+00  0.0000000000000D+00
267  2.6600000000000D+00  0.0000000000000D+00  0.0000000000000D+00
268  2.6700000000000D+00  0.0000000000000D+00  0.0000000000000D+00
269  2.6800000000000D+00  0.0000000000000D+00  0.0000000000000D+00
270  2.6900000000000D+00  0.0000000000000D+00  0.0000000000000D+00
271  2.7000000000000D+00  0.0000000000000D+00  0.0000000000000D+00
272  2.7100000000000D+00  0.0000000000000D+00  0.0000000000000D+00
273  2.7200000000000D+00  0.0000000000000D+00  0.0000000000000D+00
274  2.7300000000000D+00  0.0000000000000D+00  0.0000000000000D+00
275  2.7400000000000D+00  0.0000000000000D+00  0.0000000000000D+00
276  2.7500000000000D+00  0.0000000000000D+00  0.0000000000000D+00
277  2.7600000000000D+00  0.0000000000000D+00  0.0000000000000D+00
278  2.7700000000000D+00  0.0000000000000D+00  0.0000000000000D+00
279  2.7800000000000D+00  0.0000000000000D+00  0.0000000000000D+00
280  2.7900000000000D+00  0.0000000000000D+00  0.0000000000000D+00
281  2.8000000000000D+00  0.0000000000000D+00  0.0000000000000D+00
282  2.8100000000000D+00  0.0000000000000D+00  0.0000000000000D+00
283  2.8200000000000D+00  0.0000000000000D+00  0.0000000000000D+00
284  2.8300000000000D+00  0.0000000000000D+00  0.0000000000000D+00
285  2.8400000000000D+00  0.0000000000000D+00  0.0000000000000D+00
286  2.8500000000000D+00  0.0000000000000D+00  0.0000000000000D+00
287  2.8600000000000D+00  0.0000000000000D+00  0.0000000000000D+00
288  2.8700000000000D+00  0.0000000000000D+00  0.0000000000000D+00
289  2.8800000000000D+00  0.0000000000000D+00  0.0000000000000D+00
290  2.8900000000000D+00  0.0000000000000D+00  0.0000000000000D+00
291  2.9000000000000D+00  0.0000000000000D+00  0.0000000000000D+00
292  2.9100000000000D+00  0.0000000000000D+00  0.0000000000000D+00
293  2.9200000000000D+00  0.0000000000000D+00  0.0000000000000D+00
294  2.9300000000000D+00  0.0000000000000D+00  0.0000000000000D+00
295  2.9400000000000D+00  0.0000000000000D+00  0.0000000000000D+00
296  2.9500000000000D+00  0.0000000000000D+00  0.0000000000000D+00
297  2.9600000000000D+00  0.0000000000000D+00  0.0000000000000D+00
298  2.9700000000000D+00  0.0000000000000D+00  0.0000000000000D+00
299  2.9800000000000D+00  0.0000000000000D+00  0.0000000000000D+00
300  2.9900000000000D+00  0.0000000000000D+00  0.0000000000000D+00
301  3.0000000000000D+00  0.0000000000000D+00  0.0000000000000D+00
302  3.0100000000000D+00  0.0000000000000D+00  0.0000000000000D+00
303  3.0200000000000D+00  0.0000000000000D+00  0.0000000000000D+00
304  3.0300000000000D+00  0.0000000000000D+00  0.0000000000000D+00
305  3.0400000000000D+00  0.0000000000000D+00  0.0000000000000D+00
306  3.0500000000000D+00  0.0000000000000D+00  0.0000000000000D+00
307  3.0600000000000D+00  0.0000000000000D+00  0.0000000000000D+00
308  3.0700000000000D+00  0.0000000000000D+00  0.0000000000000D+00
309  3.0800000000000D+00  0.0000000000000D+00  0.0000000000000D+00
310  3.0900000000000D+00  0.0000000000000D+00  0.0000000000000D+00
311  3.1000000000000D+00  0.0000000000000D+00  0.0000000000000D+00
312  3.1100000000000D+00  0.0000000000000D+00  0.0000000000000D+00
313  3.1200000000000D+00  0.0000000000000D+00  0.0000000000000D+00
314  3.1300000000000D+00  0.0000000000000D+00  0.0000000000000D+00
315  3.1400000000000D+00  0.0000000000000D+00  0.0000000000000D+00
316  3.1500000000000D+00  0.0000000000000D+00  0.0000000000000D+00
317  3.1600000000000D+00  0.0000000000000D+00  0.0000000000000D+00
318  3.1700000000000D+00  0.0000000000000D+00  0.0000000000000D+00
319  3.1800000000000D+00  0.0000000000000D+00  0.0000000000000D+00
320  3.1900000000000D+00  0.0000000000000D+00  0.0000000000000D+00
321  3.2000000000000D+00  0.0000000000000D+00  0.0000000000000D+00
322  3.2100000000000D+00  0.0000000000000D+00  0.0000000000000D+00
323  3.2200000000000D+00  0.0000000000000D+00  0.0000000000000D+00
324  3.2300000000000D+00  0.0000000000000D+00  0.0000000000000D+00
325  3.2400000000000D+00  0.0000000000000D+00  0.0000000000000D+00
326  3.2500000000000D+00  0.0000000000000D+00  0.0000000000000D+00
327  3.2600000000000D+00  0.0000000000000D+00  0.0000000000000D+00
328  3.2700000000000D+00  0.0000000000000D+00  0.0000000000000D+00
329  3.2800000000000D+00  0.0000000000000D+00  0.0000000000000D+00
330  3.2900000000000D+00  0.0000000000000D+00  0.0000000000000D+00
331  3.3000000000000D+00  0.0000000000000D+00  0.0000000000000D+00
332  3.3100000000000D+00  0.0000000000000D+00  0.0000000000000D+00
333  3.3200000000000D+00  0.0000000000000D+00  0.0000000000000D+00
334  3.3300000000000D+00  0.0000000000000D+00  0.0000000000000D+00
335  3.3400000000000D+00  0.0000000000000D+00  0.0000000000000D+00
336  3.3500000000000D+00  0.0000000000000D+00  0.0000000000000D+00
337  3.3600000000000D+00  0.0000000000000D+00  0.0000000000000D+00
338  3.3700000000000D+00  0.0000000000000D+00  0.0000000000000D+00
339  3.3800000000000D+00  0.0000000000000D+00  0.0000000000000D+00
340  3.3900000000000D+00  0.0000000000000D+00  0.0000000000000D+00
341  3.4000000000000D+00  0.0000000000000D+00  0.0000000000000D+00
342  3.4100000000000D+00  0.0000000000000D+00  0.0000000000000D+00
343  3.4200000000000D+00  0.0000000000000D+00  0.0000000000000D+00
344  3.4300000000000D+00  0.0000000000000D+00  0.0000000000000D+00
345  3.4400000000000D+00  0.0000000000000D+00  0.0000000000000D+00
346  3.4500000000000D+00  0.0000000000000D+00  0.0000000000000D+00
347  3.4600000000000D+00  0.0000000000000D+00  0.0000000000000D+00
348  3.4700000000000D+00  0.0000000000000D+00  0.0000000000000D+00
349  3.4800000000000D+00  0.0000000000000D+00  0.0000000000000D+00
350  3.4900000000000D+00  0.0000000000000D+00  0.0000000000000D+00
351  3.5000000000000D+00  0.0000000000000D+00  0.0000000000000D+00
352  3.5100000000000D+00  0.0000000000000D+00  0.0000000000000D+00
353  3.5200000000000D+00  0.0000000000000D+00  0.0000000000000D+00
354  3.5300000000000D+00  0.0000000000000D+00  0.0000000000000D+00
355  3.5400000000000D+00  0.0000000000000D+00  0.0000000000000D+00
356  3.5500000000000D+00  0.0000000000000D+00  0.0000000000000D+00
357  3.5600000000000D+00  0.0000000000000D+00  0.0000000000000D+00
358  3.5700000000000D+00  0.0000000000000D+00  0.0000000000000D+00
359  3.5800000000000D+00  0.0000000000000D+00  0.0000000000000D+00
360  3.5900000000000D+00  0.0000000000000D+00  0.0000000000000D+00
361  3.6000000000000D+00  0.0000000000000D+00  0.0000000000000D+00
362  3.6100000000000D+00  0.0000000000000D+00  0.0000000000000D+00
363  3.6200000000000D+00  0.0000000000000D+00  0.0000000000000D+00
364  3.6300000000000D+00  0.0000000000000D+00  0.0000000000000D+00
365  3.6400000000000D+00  0.0000000000000D+00  0.0000000000000D+00
366  3.6500000000000D+00  0.0000000000000D+00  0.0000000000000D+00
367  3.6600000000000D+00  0.0000000000000D+00  0.0000000000000D+00
368  3.6700000000000D+00  0.0000000000000D+00  0.0000000000000D+00
369  3.6800000000000D+00  0.0000000000000D+00  0.0000000000000D+00
370  3.6900000000000D+00  0.0000000000000D+00  0.0000000000000D+00
371  3.7000000000000D+00  0.0000000000000D+00  0.0000000000000D+00
372  3.7100000000000D+00  0.0000000000000D+00  0.0000000000000D+00
373  3.7200000000000D+00  0.0000000000000D+00  0.0000000000000D+00
374  3.7300000000000D+00  0.0000000000000D+00  0.0000000000000D+00
375  3.7400000000000D+00  0.0000000000000D+00  0.0000000000000D+00
376  3.7500000000000D+00  0.0000000000000D+00  0.0000000000000D+00
377  3.7600000000000D+00  0.0000000000000D+00  0.0000000000000D+00
378  3.7700000000000D+00  0.0000000000000D+00  0.0000000000000D+00
379  3.7800000000000D+00  0.0000000000000D+00  0.0000000000000D+00
380  3.7900000000000D+00  0.0000000000000D+00  0.0000000000000D+00
381  3.8000000000000D+00  0.0000000000000D+00  0.0000000000000D+00
382  3.8100000000000D+00  0.0000000000000D+00  0.0000000000000D+00
383  3.8200000000000D+00  0.0000000000000D+00  0.0000000000000D+00
384  3.8300000000000D+00  0.0000000000000D+00  0.0000000000000D+00
385  3.8400000000000D+00  0.0000000000000D+00  0.0000000000000D+00
386  3.8500000000000D+00  0.0000000000000D+00  0.0000000000000D+00
387  3.8600000000000D+00  0.0000000000000D+00  0.0000000000000D+00
388  3.8700000000000D+00  0.0000000000000D+00  0.0000000000000D+00
389  3.8800000000000D+00  0.0000000000000D+00  0.0000000000000D+00
390  3.8900000000000D+00  0.0000000000000D+00  0.0000000000000D+00
391  3.9000000000000D+00  0.0000000000000D+00  0.0000000000000D+00
392  3.9100000000000D+00  0.0000000000000D+00  0.0000000000000D+00
393  3.9200000000000D+00  0.0000000000000D+00  0.0000000000000D+00
394  3.9300000000000D+00  0.0000000000000D+00  0.0000000000000D+00
395  3.9400000000000D+00  0.0000000000000D+00  0.0000000000000D+00
396  3.9500000000000D+00  0.0000000000000D+00  0.0000000000000D+00
397  3.9600000000000D+00  0.0000000000000D+00  0.0000000000000D+00
398  3.9700000000000D+00  0.0000000000000D+00  0.0000000000000D+00
399  3.9800000000000D+00  0.0000000000000D+00  0.0000000000000D+00
400  3.9900000000000D+00  0.0000000000000D+00  0.0000000000000D+00
401  4.0000000000000D+00  0.0000000000000D+00  0.0000000000000D+00
402  4.0100000000000D+00  0.0000000000000D+00  0.0000000000000D+00
403  4.0200000000000D+00  0.0000000000000D+00  0.0000000000000D+00
404  4.0300000000000D+00  0.0000000000000D+00  0.0000000000000D+00
405  4.0400000000000D+00  0.0000000000000D+00  0.0000000000000D+00
406  4.0500000000000D+00  0.0000000000000D+00  0.0000000000000D+00
407  4.0600000000000D+00  0.0000000000000D+00  0.0000000000000D+00
408  4.0700000000000D+00  0.0000000000000D+00  0.0000000000000D+00
409  4.0800000000000D+00  0.0000000000000D+00  0.0000000000000D+00
410  4.0900000000000D+00  0.0000000000000D+00  0.0000000000000D+00
411  4.1000000000000D+00  0.0000000000000D+00  0.0000000000000D+00
412  4.1100000000000D+00  0.0000000000000D+00  0.0000000000000D+00
413  4.1200000000000D+00  0.0000000000000D+00  0.0000000000000D+00
414  4.1300000000000D+00  0.0000000000000D+00  0.0000000000000D+00
415  4.1400000000000D+00  0.0000000000000D+00  0.0000000000000D+00
416  4.1500000000000D+00  0.0000000000000D+00  0.0000000000000D+00
417  4.1600000000000D+00  0.0000000000000D+00  0.0000000000000D+00
418  4.1700000000000D+00  0.0000000000000D+00  0.0000000000000D+00
419  4.1800000000000D+00  0.0000000000000D+00  0.0000000000000D+00
420  4.1900000000000D+00  0.0000000000000D+00  0.0000000000000D+00
421  4.2000000000000D+00  0.0000000000000D+00  0.0000000000000D+00
422  4.2100000000000D+00  0.0000000000000D+00  0.0000000000000D+00
423  4.2200000000000D+00  0.0000000000000D+00  0.0000000000000D+00
424  4.2300000000000D+00  0.0000000000000D+00  0.0000000000000D+00
425  4.2400000000000D+00  0.0000000000000D+00  0.0000000000000D+00
426  4.2500000000000D+00  0.0000000000000D+00  0.0000000000000D+00
427  4.2600000000000D+00  0.0000000000000D+00  0.0000000000000D+00
428  4.2700000000000D+00  0.0000000000000D+00  0.0000000000000D+00
429  4.2800000000000D+00  0.0000000000000D+00  0.0000000000000D+00
430  4.2900000000000D+00  0.0000000000000D+00  0.0000000000000D+00
431  4.3000000000000D+00  0.0000000000000D+00  0.0000000000000D+00
432  4.3100000000000D+00  0.0000000000000D+00  0.0000000000000D+00
433  4.3200000000000D+00  0.0000000000000D+00  0.0000000000000D+00
434  4.3300000000000D+00  0.0000000000000D+00  0.0000000000000D+00
435  4.3400000000000D+00  0.0000000000000D+00  0.0000000000000D+00
436  4.3500000000000D+00  0.0000000000000D+00  0.0000000000000D+00
437  4.3600000000000D+00  0.0000000000000D+00  0.0000000000000D+00
438  4.3700000000000D+00  0.0000000000000D+00  0.0000000000000D+00
439  4.3800000000000D+00  0.0000000000000D+00  0.0000000000000D+00
440  4.3900000000000D+00  0.0000000000000D+00  0.0000000000000D+00
441  4.4000000000000D+00  0.0000000000000D+00  0.0000000000000D+00
442  4.4100000000000D+00  0.0000000000000D+00  0.0000000000000D+00
443  4.4200000000000D+00  0.0000000000000D+00  0.0000000000000D+00
444  4.4300000000000D+00  0.0000000000000D+00  0.0000000000000D+00