Ne    ONCVPSP  r_core=  1.31  1.71
10.0000      8.0000      161003    zatom,zion,pspd
8 -116133   1     4   400     0    pspcod,pspxc,lmax,lloc,mmax,r2well
3.99000000  0.00000000  0.00000000    rchrg fchrg qchrg
2     2     0     0     0    nproj
1                 extension_switch
0                         2.4413520466037D+00 -4.8544648858215D-01
1  0.0000000000000D+00  1.1000960142837D-09  4.4375389474105D-10
2  1.0000000000000D-02  8.2909316781733D-02  1.0681423343321D-02
3  2.0000000000000D-02  1.6565303237080D-01  2.1471540769609D-02
4  3.0000000000000D-02  2.4806477045996D-01  3.2477991030941D-02
5  4.0000000000000D-02  3.2997662457696D-01  4.3806312804734D-02
6  5.0000000000000D-02  4.1121844287878D-01  5.5558921010118D-02
7  6.0000000000000D-02  4.9161717200701D-01  6.7834114430640D-02
8  7.0000000000000D-02  5.7099627838350D-01  8.0725124552269D-02
9  8.0000000000000D-02  6.4917526422569D-01  9.4319215081947D-02
10  9.0000000000000D-02  7.2596929421115D-01  1.0869684106647D-01
11  1.0000000000000D-01  8.0118894713938D-01  1.2393087589042D-01
12  1.1000000000000D-01  8.7464010514412D-01  1.4008591370230D-01
13  1.2000000000000D-01  9.4612399102390D-01  1.5721765400769D-01
14  1.3000000000000D-01  1.0154373621079D+00  1.7537237428680D-01
15  1.4000000000000D-01  1.0823728667839D+00  1.9458649555014D-01
16  1.5000000000000D-01  1.1467195674157D+00  2.1488624475131D-01
17  1.6000000000000D-01  1.2082636308962D+00  2.3628741694050D-01
18  1.7000000000000D-01  1.2667891855555D+00  2.5879523897839D-01
19  1.8000000000000D-01  1.3220793405952D+00  2.8240433554871D-01
20  1.9000000000000D-01  1.3739173616955D+00  3.0709879712117D-01
21  2.0000000000000D-01  1.4220879939544D+00  3.3285234843697D-01
22  2.1000000000000D-01  1.4663789209242D+00  3.5962861502803D-01
23  2.2000000000000D-01  1.5065823462163D+00  3.8738148425083D-01
24  2.3000000000000D-01  1.5424966820014D+00  4.1605555632680D-01
25  2.4000000000000D-01  1.5739283267544D+00  4.4558667994614D-01
26  2.5000000000000D-01  1.6006935128125D+00  4.7590256611850D-01
27  2.6000000000000D-01  1.6226202027597D+00  5.0692347315481D-01
28  2.7000000000000D-01  1.6395500123333D+00  5.3856295494578D-01
29  2.8000000000000D-01  1.6513401364991D+00  5.7072866407389D-01
30  2.9000000000000D-01  1.6578652545680D+00  6.0332320076340D-01
31  3.0000000000000D-01  1.6590193897476D+00  6.3624499824226D-01
32  3.1000000000000D-01  1.6547176983422D+00  6.6938923476660D-01
33  3.2000000000000D-01  1.6448981639467D+00  7.0264876234518D-01
34  3.3000000000000D-01  1.6295231724136D+00  7.3591504210042D-01
35  3.4000000000000D-01  1.6085809441263D+00  7.6907907621555D-01
36  3.5000000000000D-01  1.5820868011573D+00  8.0203232654296D-01
37  3.6000000000000D-01  1.5500842482403D+00  8.3466761018645D-01
38  3.7000000000000D-01  1.5126458481084D+00  8.6687996271565D-01
39  3.8000000000000D-01  1.4698738736514D+00  8.9856746012137D-01
40  3.9000000000000D-01  1.4219007214801D+00  9.2963199116992D-01
41  4.0000000000000D-01  1.3688890738573D+00  9.5997997245661D-01
42  4.1000000000000D-01  1.3110317985187D+00  9.8952299918577D-01
43  4.2000000000000D-01  1.2485515786431D+00  1.0181784255085D+00
44  4.3000000000000D-01  1.1817002681140D+00  1.0458698691205D+00
45  4.4000000000000D-01  1.1107579701960D+00  1.0725276357503D+00
46  4.5000000000000D-01  1.0360318408190D+00  1.0980890601437D+00
47  4.6000000000000D-01  9.5785462075905D-01  1.1224987611572D+00
48  4.7000000000000D-01  8.7658290411567D-01  1.1457088096095D+00
49  4.8000000000000D-01  7.9259515355643D-01  1.1676788085795D+00
50  4.9000000000000D-01  7.0628947580564D-01  1.1883758868858D+00
51  5.0000000000000D-01  6.1808117375238D-01  1.2077746075077D+00
52  5.1000000000000D-01  5.2840009431351D-01  1.2258567937164D+00
53  5.2000000000000D-01  4.3768779377180D-01  1.2426112766468D+00
54  5.3000000000000D-01  3.4639454468807D-01  1.2580335689625D+00
55  5.4000000000000D-01  2.5497621062826D-01  1.2721254701225D+00
56  5.5000000000000D-01  1.6389101682512D-01  1.2848946095519D+00
57  5.6000000000000D-01  7.3596246480731D-02  1.2963539347233D+00
58  5.7000000000000D-01 -1.5455106303783D-02  1.3065211517872D+00
59  5.8000000000000D-01 -1.0281769503958D-01  1.3154181269128D+00
60  5.9000000000000D-01 -1.8805715826513D-01  1.3230702569320D+00
61  6.0000000000000D-01 -2.7075340307959D-01  1.3295058182029D+00
62  6.1000000000000D-01 -3.5050380212426D-01  1.3347553028199D+00
63  6.2000000000000D-01 -4.2692627181666D-01  1.3388507513994D+00
64  6.3000000000000D-01 -4.9966220048849D-01  1.3418250916587D+00
65  6.4000000000000D-01 -5.6837919627488D-01  1.3437114918765D+00
66  6.5000000000000D-01 -6.3277362614923D-01  1.3445427380880D+00
67  6.6000000000000D-01 -6.9257291938417D-01  1.3443506435187D+00
68  6.7000000000000D-01 -7.4753761091170D-01  1.3431654983092D+00
69  6.8000000000000D-01 -7.9746310254536D-01  1.3410155670311D+00
70  6.9000000000000D-01 -8.4218112279317D-01  1.3379266408503D+00
71  7.0000000000000D-01 -8.8156086898633D-01  1.3339216504592D+00
72  7.1000000000000D-01 -9.1550981865141D-01  1.3290203450977D+00
73  7.2000000000000D-01 -9.4397420043869D-01  1.3232390421067D+00
74  7.3000000000000D-01 -9.6693911843706D-01  1.3165904505239D+00
75  7.4000000000000D-01 -9.8442832731605D-01  1.3090835712624D+00
76  7.5000000000000D-01 -9.9650365940752D-01  1.3007236753980D+00
77  7.6000000000000D-01 -1.0032641085341D+00  1.2915123610648D+00
78  7.7000000000000D-01 -1.0048445790347D+00  1.2814476884203D+00
79  7.8000000000000D-01 -1.0014143120555D+00  1.2705243911037D+00
80  7.9000000000000D-01 -9.9317500464015D-01  1.2587341615985D+00
81  8.0000000000000D-01 -9.8035864049846D-01  1.2460660069199D+00
82  8.1000000000000D-01 -9.6322505447283D-01  1.2325066701018D+00
83  8.2000000000000D-01 -9.4205925564663D-01  1.2180411120686D+00
84  8.3000000000000D-01 -9.1716853669502D-01  1.2026530476445D+00
85  8.4000000000000D-01 -8.8887939944609D-01  1.1863255287058D+00
86  8.5000000000000D-01 -8.5753432866450D-01  1.1690415668087D+00
87  8.6000000000000D-01 -8.2348844776600D-01  1.1507847870542D+00
88  8.7000000000000D-01 -7.8710609149928D-01  1.1315401044755D+00
89  8.8000000000000D-01 -7.4875733157225D-01  1.1112944138661D+00
90  8.9000000000000D-01 -7.0881449174096D-01  1.0900372837127D+00
91  9.0000000000000D-01 -6.6764868901252D-01  1.0677616447560D+00
92  9.1000000000000D-01 -6.2562643733343D-01  1.0444644636814D+00
93  9.2000000000000D-01 -5.8310634944425D-01  1.0201473925376D+00
94  9.3000000000000D-01 -5.4043597148469D-01  9.9481738469605D-01
95  9.4000000000000D-01 -4.9794878344123D-01  9.6848726849588D-01
96  9.5000000000000D-01 -4.5596139666128D-01  9.4117627015858D-01
97  9.6000000000000D-01 -4.1477097740466D-01  9.1291047811531D-01
98  9.7000000000000D-01 -3.7465292286745D-01  8.8372324153159D-01
99  9.8000000000000D-01 -3.3585881321584D-01  8.5365549656514D-01
100  9.9000000000000D-01 -2.9861465999792D-01  8.2275601472808D-01
101  1.0000000000000D+00 -2.6311946792722D-01  7.9108156862529D-01
102  1.0100000000000D+00 -2.2954412341735D-01  7.5869701131575D-01
103  1.0200000000000D+00 -1.9803061949778D-01  7.2567526656467D-01
104  1.0300000000000D+00 -1.6869162277662D-01  6.9209722834250D-01
105  1.0400000000000D+00 -1.4161038430984D-01  6.5805156897841D-01
106  1.0500000000000D+00 -1.1684099211903D-01  6.2363445652028D-01
107  1.0600000000000D+00 -9.4408959119073D-02  5.8894918296630D-01
108  1.0700000000000D+00 -7.4312136384740D-02  5.5410570611014D-01
109  1.0800000000000D+00 -5.6521937754557D-02  5.1922010885087D-01
110  1.0900000000000D+00 -4.0984858255183D-02  4.8441398081555D-01
111  1.1000000000000D+00 -2.7624265345036D-02  4.4981372813352D-01
112  1.1100000000000D+00 -1.6342438565543D-02  4.1554981817668D-01
113  1.1200000000000D+00 -7.0228304594484D-03  3.8175596686350D-01
114  1.1300000000000D+00  4.6748123976686D-04  3.4856827694785D-01
115  1.1400000000000D+00  6.2751820516461D-03  3.1612433626519D-01
116  1.1500000000000D+00  1.0557984273572D-02  2.8456228564991D-01
117  1.1600000000000D+00  1.3481801115410D-02  2.5401986655599D-01
118  1.1700000000000D+00  1.5217868220202D-02  2.2463345878370D-01
119  1.1800000000000D+00  1.5939850114144D-02  1.9653711894424D-01
120  1.1900000000000D+00  1.5820969499090D-02  1.6986163041666D-01
121  1.2000000000000D+00  1.5031196827602D-02  1.4473357542611D-01
122  1.2100000000000D+00  1.3734537327916D-02  1.2127443980343D-01
123  1.2200000000000D+00  1.2086451651622D-02  9.9599760714710D-02
124  1.2300000000000D+00  1.0231444461134D-02  7.9818327126109D-02
125  1.2400000000000D+00  8.3008535661087D-03  6.2031442285536D-02
126  1.2500000000000D+00  6.4108709039489D-03  4.6332257133310D-02
127  1.2600000000000D+00  4.6608224727758D-03  3.2805182359694D-02
128  1.2700000000000D+00  3.1324901404564D-03  2.1529959478124D-02
129  1.2800000000000D+00  1.8854860947472D-03  1.2560161897792D-02
130  1.2900000000000D+00  9.5461244157554D-04  5.9193685475047D-03
131  1.3000000000000D+00  4.0105518793598D-04  1.8441123241330D-03
132  1.3100000000000D+00  1.6968033494839D-04  1.2633762773800D-04
133  1.3200000000000D+00  5.3461227614581D-05 -1.4667219492743D-04
134  1.3300000000000D+00 -5.4814318089141D-06  2.4788682155202D-05
135  1.3400000000000D+00 -4.8305849770405D-06  2.8707727565909D-05
136  1.3500000000000D+00  2.2542861599486D-06 -8.4609067007114D-06
137  1.3600000000000D+00 -1.4961954440541D-08  1.2848293001228D-09
138  1.3700000000000D+00 -3.6637619226602D-07  3.1461856708728D-08
139  1.3800000000000D+00  0.0000000000000D+00  0.0000000000000D+00
140  1.3900000000000D+00  0.0000000000000D+00  0.0000000000000D+00
141  1.4000000000000D+00  0.0000000000000D+00  0.0000000000000D+00
142  1.4100000000000D+00  0.0000000000000D+00  0.0000000000000D+00
143  1.4200000000000D+00  0.0000000000000D+00  0.0000000000000D+00
144  1.4300000000000D+00  0.0000000000000D+00  0.0000000000000D+00
145  1.4400000000000D+00  0.0000000000000D+00  0.0000000000000D+00
146  1.4500000000000D+00  0.0000000000000D+00  0.0000000000000D+00
147  1.4600000000000D+00  0.0000000000000D+00  0.0000000000000D+00
148  1.4700000000000D+00  0.0000000000000D+00  0.0000000000000D+00
149  1.4800000000000D+00  0.0000000000000D+00  0.0000000000000D+00
150  1.4900000000000D+00  0.0000000000000D+00  0.0000000000000D+00
151  1.5000000000000D+00  0.0000000000000D+00  0.0000000000000D+00
152  1.5100000000000D+00  0.0000000000000D+00  0.0000000000000D+00
153  1.5200000000000D+00  0.0000000000000D+00  0.0000000000000D+00
154  1.5300000000000D+00  0.0000000000000D+00  0.0000000000000D+00
155  1.5400000000000D+00  0.0000000000000D+00  0.0000000000000D+00
156  1.5500000000000D+00  0.0000000000000D+00  0.0000000000000D+00
157  1.5600000000000D+00  0.0000000000000D+00  0.0000000000000D+00
158  1.5700000000000D+00  0.0000000000000D+00  0.0000000000000D+00
159  1.5800000000000D+00  0.0000000000000D+00  0.0000000000000D+00
160  1.5900000000000D+00  0.0000000000000D+00  0.0000000000000D+00
161  1.6000000000000D+00  0.0000000000000D+00  0.0000000000000D+00
162  1.6100000000000D+00  0.0000000000000D+00  0.0000000000000D+00
163  1.6200000000000D+00  0.0000000000000D+00  0.0000000000000D+00
164  1.6300000000000D+00  0.0000000000000D+00  0.0000000000000D+00
165  1.6400000000000D+00  0.0000000000000D+00  0.0000000000000D+00
166  1.6500000000000D+00  0.0000000000000D+00  0.0000000000000D+00
167  1.6600000000000D+00  0.0000000000000D+00  0.0000000000000D+00
168  1.6700000000000D+00  0.0000000000000D+00  0.0000000000000D+00
169  1.6800000000000D+00  0.0000000000000D+00  0.0000000000000D+00
170  1.6900000000000D+00  0.0000000000000D+00  0.0000000000000D+00
171  1.7000000000000D+00  0.0000000000000D+00  0.0000000000000D+00
172  1.7100000000000D+00  0.0000000000000D+00  0.0000000000000D+00
173  1.7200000000000D+00  0.0000000000000D+00  0.0000000000000D+00
174  1.7300000000000D+00  0.0000000000000D+00  0.0000000000000D+00
175  1.7400000000000D+00  0.0000000000000D+00  0.0000000000000D+00
176  1.7500000000000D+00  0.0000000000000D+00  0.0000000000000D+00
177  1.7600000000000D+00  0.0000000000000D+00  0.0000000000000D+00
178  1.7700000000000D+00  0.0000000000000D+00  0.0000000000000D+00
179  1.7800000000000D+00  0.0000000000000D+00  0.0000000000000D+00
180  1.7900000000000D+00  0.0000000000000D+00  0.0000000000000D+00
181  1.8000000000000D+00  0.0000000000000D+00  0.0000000000000D+00
182  1.8100000000000D+00  0.0000000000000D+00  0.0000000000000D+00
183  1.8200000000000D+00  0.0000000000000D+00  0.0000000000000D+00
184  1.8300000000000D+00  0.0000000000000D+00  0.0000000000000D+00
185  1.8400000000000D+00  0.0000000000000D+00  0.0000000000000D+00
186  1.8500000000000D+00  0.0000000000000D+00  0.0000000000000D+00
187  1.8600000000000D+00  0.0000000000000D+00  0.0000000000000D+00
188  1.8700000000000D+00  0.0000000000000D+00  0.0000000000000D+00
189  1.8800000000000D+00  0.0000000000000D+00  0.0000000000000D+00
190  1.8900000000000D+00  0.0000000000000D+00  0.0000000000000D+00
191  1.9000000000000D+00  0.0000000000000D+00  0.0000000000000D+00
192  1.9100000000000D+00  0.0000000000000D+00  0.0000000000000D+00
193  1.9200000000000D+00  0.0000000000000D+00  0.0000000000000D+00
194  1.9300000000000D+00  0.0000000000000D+00  0.0000000000000D+00
195  1.9400000000000D+00  0.0000000000000D+00  0.0000000000000D+00
196  1.9500000000000D+00  0.0000000000000D+00  0.0000000000000D+00
197  1.9600000000000D+00  0.0000000000000D+00  0.0000000000000D+00
198  1.9700000000000D+00  0.0000000000000D+00  0.0000000000000D+00
199  1.9800000000000D+00  0.0000000000000D+00  0.0000000000000D+00
200  1.9900000000000D+00  0.0000000000000D+00  0.0000000000000D+00
201  2.0000000000000D+00  0.0000000000000D+00  0.0000000000000D+00
202  2.0100000000000D+00  0.0000000000000D+00  0.0000000000000D+00
203  2.0200000000000D+00  0.0000000000000D+00  0.0000000000000D+00
204  2.0300000000000D+00  0.0000000000000D+00  0.0000000000000D+00
205  2.0400000000000D+00  0.0000000000000D+00  0.0000000000000D+00
206  2.0500000000000D+00  0.0000000000000D+00  0.0000000000000D+00
207  2.0600000000000D+00  0.0000000000000D+00  0.0000000000000D+00
208  2.0700000000000D+00  0.0000000000000D+00  0.0000000000000D+00
209  2.0800000000000D+00  0.0000000000000D+00  0.0000000000000D+00
210  2.0900000000000D+00  0.0000000000000D+00  0.0000000000000D+00
211  2.1000000000000D+00  0.0000000000000D+00  0.0000000000000D+00
212  2.1100000000000D+00  0.0000000000000D+00  0.0000000000000D+00
213  2.1200000000000D+00  0.0000000000000D+00  0.0000000000000D+00
214  2.1300000000000D+00  0.0000000000000D+00  0.0000000000000D+00
215  2.1400000000000D+00  0.0000000000000D+00  0.0000000000000D+00
216  2.1500000000000D+00  0.0000000000000D+00  0.0000000000000D+00
217  2.1600000000000D+00  0.0000000000000D+00  0.0000000000000D+00
218  2.1700000000000D+00  0.0000000000000D+00  0.0000000000000D+00
219  2.1800000000000D+00  0.0000000000000D+00  0.0000000000000D+00
220  2.1900000000000D+00  0.0000000000000D+00  0.0000000000000D+00
221  2.2000000000000D+00  0.0000000000000D+00  0.0000000000000D+00
222  2.2100000000000D+00  0.0000000000000D+00  0.0000000000000D+00
223  2.2200000000000D+00  0.0000000000000D+00  0.0000000000000D+00
224  2.2300000000000D+00  0.0000000000000D+00  0.0000000000000D+00
225  2.2400000000000D+00  0.0000000000000D+00  0.0000000000000D+00
226  2.2500000000000D+00  0.0000000000000D+00  0.0000000000000D+00
227  2.2600000000000D+00  0.0000000000000D+00  0.0000000000000D+00
228  2.2700000000000D+00  0.0000000000000D+00  0.0000000000000D+00
229  2.2800000000000D+00  0.0000000000000D+00  0.0000000000000D+00
230  2.2900000000000D+00  0.0000000000000D+00  0.0000000000000D+00
231  2.3000000000000D+00  0.0000000000000D+00  0.0000000000000D+00
232  2.3100000000000D+00  0.0000000000000D+00  0.0000000000000D+00
233  2.3200000000000D+00  0.0000000000000D+00  0.0000000000000D+00
234  2.3300000000000D+00  0.0000000000000D+00  0.0000000000000D+00
235  2.3400000000000D+00  0.0000000000000D+00  0.0000000000000D+00
236  2.3500000000000D+00  0.0000000000000D+00  0.0000000000000D+00
237  2.3600000000000D+00  0.0000000000000D+00  0.0000000000000D+00
238  2.3700000000000D+00  0.0000000000000D+00  0.0000000000000D+00
239  2.3800000000000D+00  0.0000000000000D+00  0.0000000000000D+00
240  2.3900000000000D+00  0.0000000000000D+00  0.0000000000000D+00
241  2.4000000000000D+00  0.0000000000000D+00  0.0000000000000D+00
242  2.4100000000000D+00  0.0000000000000D+00  0.0000000000000D+00
243  2.4200000000000D+00  0.0000000000000D+00  0.0000000000000D+00
244  2.4300000000000D+00  0.0000000000000D+00  0.0000000000000D+00
245  2.4400000000000D+00  0.0000000000000D+00  0.0000000000000D+00
246  2.4500000000000D+00  0.0000000000000D+00  0.0000000000000D+00
247  2.4600000000000D+00  0.0000000000000D+00  0.0000000000000D+00
248  2.4700000000000D+00  0.0000000000000D+00  0.0000000000000D+00
249  2.4800000000000D+00  0.0000000000000D+00  0.0000000000000D+00
250  2.4900000000000D+00  0.0000000000000D+00  0.0000000000000D+00
251  2.5000000000000D+00  0.0000000000000D+00  0.0000000000000D+00
252  2.5100000000000D+00  0.0000000000000D+00  0.0000000000000D+00
253  2.5200000000000D+00  0.0000000000000D+00  0.0000000000000D+00
254  2.5300000000000D+00  0.0000000000000D+00  0.0000000000000D+00
255  2.5400000000000D+00  0.0000000000000D+00  0.0000000000000D+00
256  2.5500000000000D+00  0.0000000000000D+00  0.0000000000000D+00
257  2.5600000000000D+00  0.0000000000000D+00  0.0000000000000D+00
258  2.5700000000000D+00  0.0000000000000D+00  0.0000000000000D+00
259  2.5800000000000D+00  0.0000000000000D+00  0.0000000000000D+00
260  2.5900000000000D+00  0.0000000000000D+00  0.0000000000000D+00
261  2.6000000000000D+00  0.0000000000000D+00  0.0000000000000D+00
262  2.6100000000000D+00  0.0000000000000D+00  0.0000000000000D+00
263  2.6200000000000D+00  0.0000000000000D+00  0.0000000000000D+00
264  2.6300000000000D+00  0.0000000000000D+00  0.0000000000000D+00
265  2.6400000000000D+00  0.0000000000000D+00  0.0000000000000D+00
266  2.6500000000000D+00  0.0000000000000D+00  0.0000000000000D+00
267  2.6600000000000D+00  0.0000000000000D+00  0.0000000000000D+00
268  2.6700000000000D+00  0.0000000000000D+00  0.0000000000000D+00
269  2.6800000000000D+00  0.0000000000000D+00  0.0000000000000D+00
270  2.6900000000000D+00  0.0000000000000D+00  0.0000000000000D+00
271  2.7000000000000D+00  0.0000000000000D+00  0.0000000000000D+00
272  2.7100000000000D+00  0.0000000000000D+00  0.0000000000000D+00
273  2.7200000000000D+00  0.0000000000000D+00  0.0000000000000D+00
274  2.7300000000000D+00  0.0000000000000D+00  0.0000000000000D+00
275  2.7400000000000D+00  0.0000000000000D+00  0.0000000000000D+00
276  2.7500000000000D+00  0.0000000000000D+00  0.0000000000000D+00
277  2.7600000000000D+00  0.0000000000000D+00  0.0000000000000D+00
278  2.7700000000000D+00  0.0000000000000D+00  0.0000000000000D+00
279  2.7800000000000D+00  0.0000000000000D+00  0.0000000000000D+00
280  2.7900000000000D+00  0.0000000000000D+00  0.0000000000000D+00
281  2.8000000000000D+00  0.0000000000000D+00  0.0000000000000D+00
282  2.8100000000000D+00  0.0000000000000D+00  0.0000000000000D+00
283  2.8200000000000D+00  0.0000000000000D+00  0.0000000000000D+00
284  2.8300000000000D+00  0.0000000000000D+00  0.0000000000000D+00
285  2.8400000000000D+00  0.0000000000000D+00  0.0000000000000D+00
286  2.8500000000000D+00  0.0000000000000D+00  0.0000000000000D+00
287  2.8600000000000D+00  0.0000000000000D+00  0.0000000000000D+00
288  2.8700000000000D+00  0.0000000000000D+00  0.0000000000000D+00
289  2.8800000000000D+00  0.0000000000000D+00  0.0000000000000D+00
290  2.8900000000000D+00  0.0000000000000D+00  0.0000000000000D+00
291  2.9000000000000D+00  0.0000000000000D+00  0.0000000000000D+00
292  2.9100000000000D+00  0.0000000000000D+00  0.0000000000000D+00
293  2.9200000000000D+00  0.0000000000000D+00  0.0000000000000D+00
294  2.9300000000000D+00  0.0000000000000D+00  0.0000000000000D+00
295  2.9400000000000D+00  0.0000000000000D+00  0.0000000000000D+00
296  2.9500000000000D+00  0.0000000000000D+00  0.0000000000000D+00
297  2.9600000000000D+00  0.0000000000000D+00  0.0000000000000D+00
298  2.9700000000000D+00  0.0000000000000D+00  0.0000000000000D+00
299  2.9800000000000D+00  0.0000000000000D+00  0.0000000000000D+00
300  2.9900000000000D+00  0.0000000000000D+00  0.0000000000000D+00
301  3.0000000000000D+00  0.0000000000000D+00  0.0000000000000D+00
302  3.0100000000000D+00  0.0000000000000D+00  0.0000000000000D+00
303  3.0200000000000D+00  0.0000000000000D+00  0.0000000000000D+00
304  3.0300000000000D+00  0.0000000000000D+00  0.0000000000000D+00
305  3.0400000000000D+00  0.0000000000000D+00  0.0000000000000D+00
306  3.0500000000000D+00  0.0000000000000D+00  0.0000000000000D+00
307  3.0600000000000D+00  0.0000000000000D+00  0.0000000000000D+00
308  3.0700000000000D+00  0.0000000000000D+00  0.0000000000000D+00
309  3.0800000000000D+00  0.0000000000000D+00  0.0000000000000D+00
310  3.0900000000000D+00  0.0000000000000D+00  0.0000000000000D+00
311  3.1000000000000D+00  0.0000000000000D+00  0.0000000000000D+00
312  3.1100000000000D+00  0.0000000000000D+00  0.0000000000000D+00
313  3.1200000000000D+00  0.0000000000000D+00  0.0000000000000D+00
314  3.1300000000000D+00  0.0000000000000D+00  0.0000000000000D+00
315  3.1400000000000D+00  0.0000000000000D+00  0.0000000000000D+00
316  3.1500000000000D+00  0.0000000000000D+00  0.0000000000000D+00
317  3.1600000000000D+00  0.0000000000000D+00  0.0000000000000D+00
318  3.1700000000000D+00  0.0000000000000D+00  0.0000000000000D+00
319  3.1800000000000D+00  0.0000000000000D+00  0.0000000000000D+00
320  3.1900000000000D+00  0.0000000000000D+00  0.0000000000000D+00
321  3.2000000000000D+00  0.0000000000000D+00  0.0000000000000D+00
322  3.2100000000000D+00  0.0000000000000D+00  0.0000000000000D+00
323  3.2200000000000D+00  0.0000000000000D+00  0.0000000000000D+00
324  3.2300000000000D+00  0.0000000000000D+00  0.0000000000000D+00
325  3.2400000000000D+00  0.0000000000000D+00  0.0000000000000D+00
326  3.2500000000000D+00  0.0000000000000D+00  0.0000000000000D+00
327  3.2600000000000D+00  0.0000000000000D+00  0.0000000000000D+00
328  3.2700000000000D+00  0.0000000000000D+00  0.0000000000000D+00
329  3.2800000000000D+00  0.0000000000000D+00  0.0000000000000D+00
330  3.2900000000000D+00  0.0000000000000D+00  0.0000000000000D+00
331  3.3000000000000D+00  0.0000000000000D+00  0.0000000000000D+00
332  3.3100000000000D+00  0.0000000000000D+00  0.0000000000000D+00
333  3.3200000000000D+00  0.0000000000000D+00  0.0000000000000D+00
334  3.3300000000000D+00  0.0000000000000D+00  0.0000000000000D+00
335  3.3400000000000D+00  0.0000000000000D+00  0.0000000000000D+00
336  3.3500000000000D+00  0.0000000000000D+00  0.0000000000000D+00
337  3.3600000000000D+00  0.0000000000000D+00  0.0000000000000D+00
338  3.3700000000000D+00  0.0000000000000D+00  0.0000000000000D+00
339  3.3800000000000D+00  0.0000000000000D+00  0.0000000000000D+00
340  3.3900000000000D+00  0.0000000000000D+00  0.0000000000000D+00
341  3.4000000000000D+00  0.0000000000000D+00  0.0000000000000D+00
342  3.4100000000000D+00  0.0000000000000D+00  0.0000000000000D+00
343  3.4200000000000D+00  0.0000000000000D+00  0.0000000000000D+00
344  3.4300000000000D+00  0.0000000000000D+00  0.0000000000000D+00
345  3.4400000000000D+00  0.0000000000000D+00  0.0000000000000D+00
346  3.4500000000000D+00  0.0000000000000D+00  0.0000000000000D+00
347  3.4600000000000D+00  0.0000000000000D+00  0.0000000000000D+00
348  3.4700000000000D+00  0.0000000000000D+00  0.0000000000000D+00
349  3.4800000000000D+00  0.0000000000000D+00  0.0000000000000D+00
350  3.4900000000000D+00  0.0000000000000D+00  0.0000000000000D+00
351  3.5000000000000D+00  0.0000000000000D+00  0.0000000000000D+00
352  3.5100000000000D+00  0.0000000000000D+00  0.0000000000000D+00
353  3.5200000000000D+00  0.0000000000000D+00  0.0000000000000D+00
354  3.5300000000000D+00  0.0000000000000D+00  0.0000000000000D+00
355  3.5400000000000D+00  0.0000000000000D+00  0.0000000000000D+00
356  3.5500000000000D+00  0.0000000000000D+00  0.0000000000000D+00
357  3.5600000000000D+00  0.0000000000000D+00  0.0000000000000D+00
358  3.5700000000000D+00  0.0000000000000D+00  0.0000000000000D+00
359  3.5800000000000D+00  0.0000000000000D+00  0.0000000000000D+00
360  3.5900000000000D+00  0.0000000000000D+00  0.0000000000000D+00
361  3.6000000000000D+00  0.0000000000000D+00  0.0000000000000D+00
362  3.6100000000000D+00  0.0000000000000D+00  0.0000000000000D+00
363  3.6200000000000D+00  0.0000000000000D+00  0.0000000000000D+00
364  3.6300000000000D+00  0.0000000000000D+00  0.0000000000000D+00
365  3.6400000000000D+00  0.0000000000000D+00  0.0000000000000D+00
366  3.6500000000000D+00  0.0000000000000D+00  0.0000000000000D+00
367  3.6600000000000D+00  0.0000000000000D+00  0.0000000000000D+00
368  3.6700000000000D+00  0.0000000000000D+00  0.0000000000000D+00
369  3.6800000000000D+00  0.0000000000000D+00  0.0000000000000D+00
370  3.6900000000000D+00  0.0000000000000D+00  0.0000000000000D+00
371  3.7000000000000D+00  0.0000000000000D+00  0.0000000000000D+00
372  3.7100000000000D+00  0.0000000000000D+00  0.0000000000000D+00
373  3.7200000000000D+00  0.0000000000000D+00  0.0000000000000D+00
374  3.7300000000000D+00  0.0000000000000D+00  0.0000000000000D+00
375  3.7400000000000D+00  0.0000000000000D+00  0.0000000000000D+00
376  3.7500000000000D+00  0.0000000000000D+00  0.0000000000000D+00
377  3.7600000000000D+00  0.0000000000000D+00  0.0000000000000D+00
378  3.7700000000000D+00  0.0000000000000D+00  0.0000000000000D+00
379  3.7800000000000D+00  0.0000000000000D+00  0.0000000000000D+00
380  3.7900000000000D+00  0.0000000000000D+00  0.0000000000000D+00
381  3.8000000000000D+00  0.0000000000000D+00  0.0000000000000D+00
382  3.8100000000000D+00  0.0000000000000D+00  0.0000000000000D+00
383  3.8200000000000D+00  0.0000000000000D+00  0.0000000000000D+00
384  3.8300000000000D+00  0.0000000000000D+00  0.0000000000000D+00
385  3.8400000000000D+00  0.0000000000000D+00  0.0000000000000D+00
386  3.8500000000000D+00  0.0000000000000D+00  0.0000000000000D+00
387  3.8600000000000D+00  0.0000000000000D+00  0.0000000000000D+00
388  3.8700000000000D+00  0.0000000000000D+00  0.0000000000000D+00
389  3.8800000000000D+00  0.0000000000000D+00  0.0000000000000D+00
390  3.8900000000000D+00  0.0000000000000D+00  0.0000000000000D+00
391  3.9000000000000D+00  0.0000000000000D+00  0.0000000000000D+00
392  3.9100000000000D+00  0.0000000000000D+00  0.0000000000000D+00
393  3.9200000000000D+00  0.0000000000000D+00  0.0000000000000D+00
394  3.9300000000000D+00  0.0000000000000D+00  0.0000000000000D+00
395  3.9400000000000D+00  0.0000000000000D+00  0.0000000000000D+00
396  3.9500000000000D+00  0.0000000000000D+00  0.0000000000000D+00
397  3.9600000000000D+00  0.0000000000000D+00  0.0000000000000D+00
398  3.9700000000000D+00  0.0000000000000D+00  0.0000000000000D+00
399  3.9800000000000D+00  0.0000000000000D+00  0.0000000000000D+00
400  3.9900000000000D+00  0.0000000000000D+00  0.0000000000000D+00
1                        -5.3733147106909D+00 -1.6726736760820D+00
1  0.0000000000000D+00  1.4487940014352D-10 -1.5451334656191D-10
2  1.0000000000000D-02  1.6479764143573D-03 -7.0602268003296D-04
3  2.0000000000000D-02  6.5853671741465D-03 -2.8189944913182D-03
4  3.0000000000000D-02  1.4792580939437D-02 -6.3236503576683D-03
5  4.0000000000000D-02  2.6237045770781D-02 -1.1194627109206D-02
6  5.0000000000000D-02  4.0873329315960D-02 -1.7396581148892D-02
7  6.0000000000000D-02  5.8643306563519D-02 -2.4884352646902D-02
8  7.0000000000000D-02  7.9476374655511D-02 -3.3603175724249D-02
9  8.0000000000000D-02  1.0328971410701D-01 -4.3488933932504D-02
10  9.0000000000000D-02  1.2998859563546D-01 -5.4468460182120D-02
11  1.0000000000000D-01  1.5946673165891D-01 -6.6459880117659D-02
12  1.1000000000000D-01  1.9160667137843D-01 -7.9372997783274D-02
13  1.2000000000000D-01  2.2628023821715D-01 -9.3109722267804D-02
14  1.3000000000000D-01  2.6334900824615D-01 -1.0756453386429D-01
15  1.4000000000000D-01  3.0266482808669D-01 -1.2262498812533D-01
16  1.5000000000000D-01  3.4407037063816D-01 -1.3817225604255D-01
17  1.6000000000000D-01  3.8739972684369D-01 -1.5408169842679D-01
18  1.7000000000000D-01  4.3247903156926D-01 -1.7022347241519D-01
19  1.8000000000000D-01  4.7912712153843D-01 -1.8646316788321D-01
20  1.9000000000000D-01  5.2715622313493D-01 -2.0266247139383D-01
21  2.0000000000000D-01  5.7637266775740D-01 -2.1867985517337D-01
22  2.1000000000000D-01  6.2657763228815D-01 -2.3437128846514D-01
23  2.2000000000000D-01  6.7756790211854D-01 -2.4959096847716D-01
24  2.3000000000000D-01  7.2913665406024D-01 -2.6419206801214D-01
25  2.4000000000000D-01  7.8107425636404D-01 -2.7802749674458D-01
26  2.5000000000000D-01  8.3316908296616D-01 -2.9095067299477D-01
27  2.6000000000000D-01  8.8520833898825D-01 -3.0281630274154D-01
28  2.7000000000000D-01  9.3697889443077D-01 -3.1348116251743D-01
29  2.8000000000000D-01  9.8826812292209D-01 -3.2280488274110D-01
30  2.9000000000000D-01  1.0388647423171D+00 -3.3065072796426D-01
31  3.0000000000000D-01  1.0885596538813D+00 -3.3688637044515D-01
32  3.1000000000000D-01  1.1371467767498D+00 -3.4138465340765D-01
33  3.2000000000000D-01  1.1844238743129D+00 -3.4402434030698D-01
34  3.3000000000000D-01  1.2301933691605D+00 -3.4469084639924D-01
35  3.4000000000000D-01  1.2742631432036D+00 -3.4327694890481D-01
36  3.5000000000000D-01  1.3164473195972D+00 -3.3968347206464D-01
37  3.6000000000000D-01  1.3565670231058D+00 -3.3381994341578D-01
38  3.7000000000000D-01  1.3944511155853D+00 -3.2560521765779D-01
39  3.8000000000000D-01  1.4299369033039D+00 -3.1496806454650D-01
40  3.9000000000000D-01  1.4628708128870D+00 -3.0184771733550D-01
41  4.0000000000000D-01  1.4931090327519D+00 -2.8619437839080D-01
42  4.1000000000000D-01  1.5205181169940D+00 -2.6796967872857D-01
43  4.2000000000000D-01  1.5449755487983D+00 -2.4714708837240D-01