P     ONCVPSP-3.2.3  r_core=   1.46089   1.55067   1.70594
15.0000      5.0000      170222    zatom,zion,pspd
8      11   2     4   600     0    pspcod,pspxc,lmax,lloc,mmax,r2well
5.99000000  5.00000000  0.00000000    rchrg fchrg qchrg
2     3     2     0    nproj
3     1           extension_switch
4     3     0    nprojso
0                         9.6190008312876D-01  6.5138969909728D+00
1  0.0000000000000D+00  3.2578592989996D-08 -1.2556910455874D-08
2  1.0000000000000D-02 -2.9289391191341D-02  4.5317968187589D-02
3  2.0000000000000D-02 -5.7675248838483D-02  9.0267486788467D-02
4  3.0000000000000D-02 -8.4273959863294D-02  1.3448779287494D-01
5  4.0000000000000D-02 -1.0824133398603D-01  1.7763333561772D-01
6  5.0000000000000D-02 -1.2879127836152D-01  2.1938098258969D-01
7  6.0000000000000D-02 -1.4521325192688D-01  2.5943675555866D-01
8  7.0000000000000D-02 -1.5688813189487D-01  2.9754195403955D-01
9  8.0000000000000D-02 -1.6330215740583D-01  3.3347853743377D-01
10  9.0000000000000D-02 -1.6405865482454D-01  3.6707365179779D-01
11  1.0000000000000D-01 -1.5888729474080D-01  3.9820320484928D-01
12  1.1000000000000D-01 -1.4765068148291D-01  4.2679441238179D-01
13  1.2000000000000D-01 -1.3034813085773D-01  4.5282726042304D-01
14  1.3000000000000D-01 -1.0711654977768D-01  4.7633484981097D-01
15  1.4000000000000D-01 -7.8228391252928D-02  4.9740261292227D-01
16  1.5000000000000D-01 -4.4086718702403D-02  5.1616641560413D-01
17  1.6000000000000D-01 -5.2174734438713D-03  5.3280958045916D-01
18  1.7000000000000D-01  3.7740902657414D-02  5.4755889004456D-01
19  1.8000000000000D-01  8.4050282253708D-02  5.6067964981564D-01
20  1.9000000000000D-01  1.3288784711520D-01  5.7246991033502D-01
21  2.0000000000000D-01  1.8336295818156D-01  5.8325396597936D-01
22  2.1000000000000D-01  2.3453555716326D-01  5.9337526274120D-01
23  2.2000000000000D-01  2.8543572288861D-01  6.0318886042587D-01
24  2.3000000000000D-01  3.3508398029148D-01  6.1305360431737D-01
25  2.4000000000000D-01  3.8251194277151D-01  6.2332416802597D-01
26  2.5000000000000D-01  4.2678286000797D-01  6.3434313258880D-01
27  2.6000000000000D-01  4.6701164337351D-01  6.4643326689436D-01
28  2.7000000000000D-01  5.0238394990420D-01  6.5989017113059D-01
29  2.8000000000000D-01  5.3217392319056D-01  6.7497543827080D-01
30  2.9000000000000D-01  5.5576021524057D-01  6.9191047873350D-01
31  3.0000000000000D-01  5.7263994684163D-01  7.1087114047068D-01
32  3.1000000000000D-01  5.8244030456867D-01  7.3198324110032D-01
33  3.2000000000000D-01  5.8492751955642D-01  7.5531911061019D-01
34  3.3000000000000D-01  5.8001302555365D-01  7.8089522297355D-01
35  3.4000000000000D-01  5.6775665056886D-01  8.0867097313521D-01
36  3.5000000000000D-01  5.4836675647327D-01  8.3854863267901D-01
37  3.6000000000000D-01  5.2219730304826D-01  8.7037449354034D-01
38  3.7000000000000D-01  4.8974187590596D-01  9.0394118485677D-01
39  3.8000000000000D-01  4.5162478020499D-01  9.3899112394572D-01
40  3.9000000000000D-01  4.0858936286701D-01  9.7522103894670D-01
41  4.0000000000000D-01  3.6148378383157D-01  1.0122874783445D+00
42  4.1000000000000D-01  3.1124451059092D-01  1.0498132018535D+00
43  4.2000000000000D-01  2.5887785871225D-01  1.0873943284182D+00
44  4.3000000000000D-01  2.0543994327571D-01  1.1246081007628D+00
45  4.4000000000000D-01  1.5201544124738D-01  1.1610211123402D+00
46  4.5000000000000D-01  9.9695592016093D-02  1.1961978319819D+00
47  4.6000000000000D-01  4.9555882057115D-02  1.2297092542646D+00
48  4.7000000000000D-01  2.6338695145372D-03  1.2611414997502D+00
49  4.8000000000000D-01 -4.0092394836710D-02  1.2901041889259D+00
50  4.9000000000000D-01 -7.7724902351053D-02  1.3162384168984D+00
51  5.0000000000000D-01 -1.0946474677472D-01  1.3392241626337D+00
52  5.1000000000000D-01 -1.3462930630009D-01  1.3587869766815D+00
53  5.2000000000000D-01 -1.5266717856861D-01  1.3747038046881D+00
54  5.3000000000000D-01 -1.6317054233630D-01  1.3868078203392D+00
55  5.4000000000000D-01 -1.6588466900163D-01  1.3949921603846D+00
56  5.5000000000000D-01 -1.6071436269612D-01  1.3992124757341D+00
57  5.6000000000000D-01 -1.4772716788229D-01  1.3994882357832D+00
58  5.7000000000000D-01 -1.2715324766293D-01  1.3959027478602D+00
59  5.8000000000000D-01 -9.9381902374333D-02  1.3886018792354D+00
60  5.9000000000000D-01 -6.4954765984675D-02  1.3777914953072D+00
61  6.0000000000000D-01 -2.4555785136955D-02  1.3637336535198D+00
62  6.1000000000000D-01  2.1001848001753D-02  1.3467416181414D+00
63  6.2000000000000D-01  7.0791575077746D-02  1.3271737852728D+00
64  6.3000000000000D-01  1.2379186969370D-01  1.3054266303769D+00
65  6.4000000000000D-01  1.7890680749720D-01  1.2819268112832D+00
66  6.5000000000000D-01  2.3498841403391D-01  1.2571225779219D+00
67  6.6000000000000D-01  2.9086035631046D-01  1.2314746554864D+00
68  6.7000000000000D-01  3.4534251259689D-01  1.2054467799230D+00
69  6.8000000000000D-01  3.9727593241660D-01  1.1794960734488D+00
70  6.9000000000000D-01  4.4554768563786D-01  1.1540634529348D+00
71  7.0000000000000D-01  4.8911509646198D-01  1.1295642653159D+00
72  7.1000000000000D-01  5.2702886487860D-01  1.1063793417016D+00
73  7.2000000000000D-01  5.5845459491181D-01  1.0848466555457D+00
74  7.3000000000000D-01  5.8269227548960D-01  1.0652537601471D+00
75  7.4000000000000D-01  5.9919329543829D-01  1.0478311671511D+00
76  7.5000000000000D-01  6.0757461844922D-01  1.0327468107672D+00
77  7.6000000000000D-01  6.0762979616669D-01  1.0201017223960D+00
78  7.7000000000000D-01  5.9933655632218D-01  1.0099270178404D+00
79  7.8000000000000D-01  5.8286076802078D-01  1.0021822742756D+00
80  7.9000000000000D-01  5.5855665546541D-01  9.9675534760516D-01
81  8.0000000000000D-01  5.2696320408600D-01  9.9346365292358D-01
82  8.1000000000000D-01  4.8879677751023D-01  9.9205690218925D-01
83  8.2000000000000D-01  4.4494003867474D-01  9.9222126443683D-01
84  8.3000000000000D-01  3.9642734217893D-01  9.9358488546701D-01
85  8.4000000000000D-01  3.4442683627521D-01  9.9572467651390D-01
86  8.5000000000000D-01  2.9021958025550D-01  9.9817425544385D-01
87  8.6000000000000D-01  2.3517604508651D-01  1.0004329001053D+00
88  8.7000000000000D-01  1.8073042071132D-01  1.0019753520095D+00
89  8.8000000000000D-01  1.2835320133164D-01  1.0022622900148D+00
90  8.9000000000000D-01  7.9522559217596D-02  1.0007512785015D+00
91  9.0000000000000D-01  3.5695047320712D-02  9.9690798297310D-01
92  9.1000000000000D-01 -1.7238094682781D-03  9.9021743837519D-01
93  9.2000000000000D-01 -3.1408465641068D-02  9.8019515184753D-01
94  9.3000000000000D-01 -5.2141282160230D-02  9.6639782223792D-01
95  9.4000000000000D-01 -6.2838875419804D-02  9.4843346352338D-01
96  9.5000000000000D-01 -6.2576357811176D-02  9.2597072821548D-01
97  9.6000000000000D-01 -5.0608974238959D-02  8.9874723997905D-01
98  9.7000000000000D-01 -2.6390682129070D-02  8.6657676115023D-01
99  9.8000000000000D-01  1.0410723781843D-02  8.2935504135170D-01
100  9.9000000000000D-01  5.9902279275195D-02  7.8706421682999D-01
101  1.0000000000000D+00  1.2195858044504D-01  7.3977565616627D-01
102  1.0100000000000D+00  1.9621877045820D-01  6.8765117646664D-01
103  1.0200000000000D+00  2.8208790002574D-01  6.3094258410627D-01
104  1.0300000000000D+00  3.7874269497174D-01  5.6998952604452D-01
105  1.0400000000000D+00  4.8514168509828D-01  5.0521566808533D-01
106  1.0500000000000D+00  6.0003956207865D-01  4.3712324962222D-01
107  1.0600000000000D+00  7.2200555386186D-01  3.6628609520400D-01
108  1.0700000000000D+00  8.4944552630321D-01  2.9334119273285D-01
109  1.0800000000000D+00  9.8062744744434D-01  2.1897897703263D-01
110  1.0900000000000D+00  1.1137097862537D+00  1.4393248198126D-01
111  1.1000000000000D+00  1.2467723561100D+00  6.8965548071834D-02
112  1.1100000000000D+00  1.3778490611779D+00 -5.1397076475554D-03
113  1.1200000000000D+00  1.5049619655239D+00 -7.7595937525357D-02
114  1.1300000000000D+00  1.6261560739234D+00 -1.4762389145440D-01
115  1.1400000000000D+00  1.7395341937891D+00 -2.1446578594800D-01
116  1.1500000000000D+00  1.8432912379505D+00 -2.7739846900326D-01
117  1.1600000000000D+00  1.9357473355857D+00 -3.3574613841493D-01
118  1.1700000000000D+00  2.0153791372336D+00 -3.8889237820726D-01
119  1.1800000000000D+00  2.0808487154611D+00 -4.3629128375409D-01
120  1.1900000000000D+00  2.1310295154528D+00 -4.7747746619731D-01
121  1.2000000000000D+00  2.1650288600416D+00 -5.1207474594107D-01
122  1.2100000000000D+00  2.1822065558921D+00 -5.3980336108103D-01
123  1.2200000000000D+00  2.1821892281936D+00 -5.6048554740823D-01
124  1.2300000000000D+00  2.1648800945574D+00 -5.7404937847929D-01
125  1.2400000000000D+00  2.1304639575220D+00 -5.8053078051010D-01
126  1.2500000000000D+00  2.0794072637893D+00 -5.8007366311160D-01
127  1.2600000000000D+00  2.0124532148701D+00 -5.7292815913069D-01
128  1.2700000000000D+00  1.9306119725657D+00 -5.5944698935161D-01
129  1.2800000000000D+00  1.8351460602303D+00 -5.4007998980775D-01
130  1.2900000000000D+00  1.7275512306395D+00 -5.1536690450276D-01
131  1.3000000000000D+00  1.6095330917566D+00 -4.8592855419494D-01
132  1.3100000000000D+00  1.4829798473513D+00 -4.5245651702524D-01
133  1.3200000000000D+00  1.3499316628363D+00 -4.1570151557110D-01
134  1.3300000000000D+00  1.2125471416483D+00 -3.7646069532714D-01
135  1.3400000000000D+00  1.0730674914147D+00 -3.3556401558981D-01
136  1.3500000000000D+00  9.3377902677856D-01 -2.9385999972383D-01
137  1.3600000000000D+00  7.9697462640426D-01 -2.5220108051246D-01
138  1.3700000000000D+00  6.6491485459083D-01 -2.1142881195859D-01
139  1.3800000000000D+00  5.3978939659518D-01 -1.7235919552339D-01
140  1.3900000000000D+00  4.2367952349334D-01 -1.3576839423524D-01
141  1.4000000000000D+00  3.1852222479322D-01 -1.0237907864275D-01
142  1.4100000000000D+00  2.2608124753045D-01 -7.2849136770584D-02
143  1.4200000000000D+00  1.4795014960221D-01 -4.7770912467061D-02
144  1.4300000000000D+00  8.5091504423529D-02 -2.7520382000080D-02
145  1.4400000000000D+00  3.9050650363551D-02 -1.2649156243319D-02
146  1.4500000000000D+00  1.1766987295018D-02 -3.8228440983758D-03
147  1.4600000000000D+00  4.5618272255320D-04 -1.5864030798975D-04
148  1.4700000000000D+00 -1.2548081330015D-03  4.0179852984047D-04
149  1.4800000000000D+00  1.4768369126706D-04 -4.7431113603898D-05
150  1.4900000000000D+00  3.4935815042830D-04 -1.1237960656262D-04
151  1.5000000000000D+00 -5.2122577828039D-05  1.6696149695408D-05
152  1.5100000000000D+00 -4.7778638017737D-05  1.5316137801593D-05
153  1.5200000000000D+00 -4.4579299315033D-08  4.1157328963172D-08
154  1.5300000000000D+00 -1.8079113012314D-08  1.6691334611427D-08
155  1.5400000000000D+00  0.0000000000000D+00  0.0000000000000D+00
156  1.5500000000000D+00  0.0000000000000D+00  0.0000000000000D+00
157  1.5600000000000D+00  0.0000000000000D+00  0.0000000000000D+00
158  1.5700000000000D+00  0.0000000000000D+00  0.0000000000000D+00
159  1.5800000000000D+00  0.0000000000000D+00  0.0000000000000D+00
160  1.5900000000000D+00  0.0000000000000D+00  0.0000000000000D+00
161  1.6000000000000D+00  0.0000000000000D+00  0.0000000000000D+00
162  1.6100000000000D+00  0.0000000000000D+00  0.0000000000000D+00
163  1.6200000000000D+00  0.0000000000000D+00  0.0000000000000D+00
164  1.6300000000000D+00  0.0000000000000D+00  0.0000000000000D+00
165  1.6400000000000D+00  0.0000000000000D+00  0.0000000000000D+00
166  1.6500000000000D+00  0.0000000000000D+00  0.0000000000000D+00
167  1.6600000000000D+00  0.0000000000000D+00  0.0000000000000D+00
168  1.6700000000000D+00  0.0000000000000D+00  0.0000000000000D+00
169  1.6800000000000D+00  0.0000000000000D+00  0.0000000000000D+00
170  1.6900000000000D+00  0.0000000000000D+00  0.0000000000000D+00
171  1.7000000000000D+00  0.0000000000000D+00  0.0000000000000D+00
172  1.7100000000000D+00  0.0000000000000D+00  0.0000000000000D+00
173  1.7200000000000D+00  0.0000000000000D+00  0.0000000000000D+00
174  1.7300000000000D+00  0.0000000000000D+00  0.0000000000000D+00
175  1.7400000000000D+00  0.0000000000000D+00  0.0000000000000D+00
176  1.7500000000000D+00  0.0000000000000D+00  0.0000000000000D+00
177  1.7600000000000D+00  0.0000000000000D+00  0.0000000000000D+00
178  1.7700000000000D+00  0.0000000000000D+00  0.0000000000000D+00
179  1.7800000000000D+00  0.0000000000000D+00  0.0000000000000D+00
180  1.7900000000000D+00  0.0000000000000D+00  0.0000000000000D+00
181  1.8000000000000D+00  0.0000000000000D+00  0.0000000000000D+00
182  1.8100000000000D+00  0.0000000000000D+00  0.0000000000000D+00
183  1.8200000000000D+00  0.0000000000000D+00  0.0000000000000D+00
184  1.8300000000000D+00  0.0000000000000D+00  0.0000000000000D+00
185  1.8400000000000D+00  0.0000000000000D+00  0.0000000000000D+00
186  1.8500000000000D+00  0.0000000000000D+00  0.0000000000000D+00
187  1.8600000000000D+00  0.0000000000000D+00  0.0000000000000D+00
188  1.8700000000000D+00  0.0000000000000D+00  0.0000000000000D+00
189  1.8800000000000D+00  0.0000000000000D+00  0.0000000000000D+00
190  1.8900000000000D+00  0.0000000000000D+00  0.0000000000000D+00
191  1.9000000000000D+00  0.0000000000000D+00  0.0000000000000D+00
192  1.9100000000000D+00  0.0000000000000D+00  0.0000000000000D+00
193  1.9200000000000D+00  0.0000000000000D+00  0.0000000000000D+00
194  1.9300000000000D+00  0.0000000000000D+00  0.0000000000000D+00
195  1.9400000000000D+00  0.0000000000000D+00  0.0000000000000D+00
196  1.9500000000000D+00  0.0000000000000D+00  0.0000000000000D+00
197  1.9600000000000D+00  0.0000000000000D+00  0.0000000000000D+00
198  1.9700000000000D+00  0.0000000000000D+00  0.0000000000000D+00
199  1.9800000000000D+00  0.0000000000000D+00  0.0000000000000D+00
200  1.9900000000000D+00  0.0000000000000D+00  0.0000000000000D+00
201  2.0000000000000D+00  0.0000000000000D+00  0.0000000000000D+00
202  2.0100000000000D+00  0.0000000000000D+00  0.0000000000000D+00
203  2.0200000000000D+00  0.0000000000000D+00  0.0000000000000D+00
204  2.0300000000000D+00  0.0000000000000D+00  0.0000000000000D+00
205  2.0400000000000D+00  0.0000000000000D+00  0.0000000000000D+00
206  2.0500000000000D+00  0.0000000000000D+00  0.0000000000000D+00
207  2.0600000000000D+00  0.0000000000000D+00  0.0000000000000D+00
208  2.0700000000000D+00  0.0000000000000D+00  0.0000000000000D+00
209  2.0800000000000D+00  0.0000000000000D+00  0.0000000000000D+00
210  2.0900000000000D+00  0.0000000000000D+00  0.0000000000000D+00
211  2.1000000000000D+00  0.0000000000000D+00  0.0000000000000D+00
212  2.1100000000000D+00  0.0000000000000D+00  0.0000000000000D+00
213  2.1200000000000D+00  0.0000000000000D+00  0.0000000000000D+00
214  2.1300000000000D+00  0.0000000000000D+00  0.0000000000000D+00
215  2.1400000000000D+00  0.0000000000000D+00  0.0000000000000D+00
216  2.1500000000000D+00  0.0000000000000D+00  0.0000000000000D+00
217  2.1600000000000D+00  0.0000000000000D+00  0.0000000000000D+00
218  2.1700000000000D+00  0.0000000000000D+00  0.0000000000000D+00
219  2.1800000000000D+00  0.0000000000000D+00  0.0000000000000D+00
220  2.1900000000000D+00  0.0000000000000D+00  0.0000000000000D+00
221  2.2000000000000D+00  0.0000000000000D+00  0.0000000000000D+00
222  2.2100000000000D+00  0.0000000000000D+00  0.0000000000000D+00
223  2.2200000000000D+00  0.0000000000000D+00  0.0000000000000D+00
224  2.2300000000000D+00  0.0000000000000D+00  0.0000000000000D+00
225  2.2400000000000D+00  0.0000000000000D+00  0.0000000000000D+00
226  2.2500000000000D+00  0.0000000000000D+00  0.0000000000000D+00
227  2.2600000000000D+00  0.0000000000000D+00  0.0000000000000D+00
228  2.2700000000000D+00  0.0000000000000D+00  0.0000000000000D+00
229  2.2800000000000D+00  0.0000000000000D+00  0.0000000000000D+00
230  2.2900000000000D+00  0.0000000000000D+00  0.0000000000000D+00
231  2.3000000000000D+00  0.0000000000000D+00  0.0000000000000D+00
232  2.3100000000000D+00  0.0000000000000D+00  0.0000000000000D+00
233  2.3200000000000D+00  0.0000000000000D+00  0.0000000000000D+00
234  2.3300000000000D+00  0.0000000000000D+00  0.0000000000000D+00
235  2.3400000000000D+00  0.0000000000000D+00  0.0000000000000D+00
236  2.3500000000000D+00  0.0000000000000D+00  0.0000000000000D+00
237  2.3600000000000D+00  0.0000000000000D+00  0.0000000000000D+00
238  2.3700000000000D+00  0.0000000000000D+00  0.0000000000000D+00
239  2.3800000000000D+00  0.0000000000000D+00  0.0000000000000D+00
240  2.3900000000000D+00  0.0000000000000D+00  0.0000000000000D+00
241  2.4000000000000D+00  0.0000000000000D+00  0.0000000000000D+00
242  2.4100000000000D+00  0.0000000000000D+00  0.0000000000000D+00
243  2.4200000000000D+00  0.0000000000000D+00  0.0000000000000D+00
244  2.4300000000000D+00  0.0000000000000D+00  0.0000000000000D+00
245  2.4400000000000D+00  0.0000000000000D+00  0.0000000000000D+00
246  2.4500000000000D+00  0.0000000000000D+00  0.0000000000000D+00
247  2.4600000000000D+00  0.0000000000000D+00  0.0000000000000D+00
248  2.4700000000000D+00  0.0000000000000D+00  0.0000000000000D+00
249  2.4800000000000D+00  0.0000000000000D+00  0.0000000000000D+00
250  2.4900000000000D+00  0.0000000000000D+00  0.0000000000000D+00
251  2.5000000000000D+00  0.0000000000000D+00  0.0000000000000D+00
252  2.5100000000000D+00  0.0000000000000D+00  0.0000000000000D+00
253  2.5200000000000D+00  0.0000000000000D+00  0.0000000000000D+00
254  2.5300000000000D+00  0.0000000000000D+00  0.0000000000000D+00
255  2.5400000000000D+00  0.0000000000000D+00  0.0000000000000D+00
256  2.5500000000000D+00  0.0000000000000D+00  0.0000000000000D+00
257  2.5600000000000D+00  0.0000000000000D+00  0.0000000000000D+00
258  2.5700000000000D+00  0.0000000000000D+00  0.0000000000000D+00
259  2.5800000000000D+00  0.0000000000000D+00  0.0000000000000D+00
260  2.5900000000000D+00  0.0000000000000D+00  0.0000000000000D+00
261  2.6000000000000D+00  0.0000000000000D+00  0.0000000000000D+00
262  2.6100000000000D+00  0.0000000000000D+00  0.0000000000000D+00
263  2.6200000000000D+00  0.0000000000000D+00  0.0000000000000D+00
264  2.6300000000000D+00  0.0000000000000D+00  0.0000000000000D+00
265  2.6400000000000D+00  0.0000000000000D+00  0.0000000000000D+00
266  2.6500000000000D+00  0.0000000000000D+00  0.0000000000000D+00
267  2.6600000000000D+00  0.0000000000000D+00  0.0000000000000D+00
268  2.6700000000000D+00  0.0000000000000D+00  0.0000000000000D+00
269  2.6800000000000D+00  0.0000000000000D+00  0.0000000000000D+00
270  2.6900000000000D+00  0.0000000000000D+00  0.0000000000000D+00
271  2.7000000000000D+00  0.0000000000000D+00  0.0000000000000D+00
272  2.7100000000000D+00  0.0000000000000D+00  0.0000000000000D+00
273  2.7200000000000D+00  0.0000000000000D+00  0.0000000000000D+00
274  2.7300000000000D+00  0.0000000000000D+00  0.0000000000000D+00
275  2.7400000000000D+00  0.0000000000000D+00  0.0000000000000D+00
276  2.7500000000000D+00  0.0000000000000D+00  0.0000000000000D+00
277  2.7600000000000D+00  0.0000000000000D+00  0.0000000000000D+00
278  2.7700000000000D+00  0.0000000000000D+00  0.0000000000000D+00
279  2.7800000000000D+00  0.0000000000000D+00  0.0000000000000D+00
280  2.7900000000000D+00  0.0000000000000D+00  0.0000000000000D+00
281  2.8000000000000D+00  0.0000000000000D+00  0.0000000000000D+00
282  2.8100000000000D+00  0.0000000000000D+00  0.0000000000000D+00
283  2.8200000000000D+00  0.0000000000000D+00  0.0000000000000D+00
284  2.8300000000000D+00  0.0000000000000D+00  0.0000000000000D+00
285  2.8400000000000D+00  0.0000000000000D+00  0.0000000000000D+00
286  2.8500000000000D+00  0.0000000000000D+00  0.0000000000000D+00
287  2.8600000000000D+00  0.0000000000000D+00  0.0000000000000D+00
288  2.8700000000000D+00  0.0000000000000D+00  0.0000000000000D+00
289  2.8800000000000D+00  0.0000000000000D+00  0.0000000000000D+00
290  2.8900000000000D+00  0.0000000000000D+00  0.0000000000000D+00
291  2.9000000000000D+00  0.0000000000000D+00  0.0000000000000D+00
292  2.9100000000000D+00  0.0000000000000D+00  0.0000000000000D+00
293  2.9200000000000D+00  0.0000000000000D+00  0.0000000000000D+00
294  2.9300000000000D+00  0.0000000000000D+00  0.0000000000000D+00
295  2.9400000000000D+00  0.0000000000000D+00  0.0000000000000D+00
296  2.9500000000000D+00  0.0000000000000D+00  0.0000000000000D+00
297  2.9600000000000D+00  0.0000000000000D+00  0.0000000000000D+00
298  2.9700000000000D+00  0.0000000000000D+00  0.0000000000000D+00
299  2.9800000000000D+00  0.0000000000000D+00  0.0000000000000D+00
300  2.9900000000000D+00  0.0000000000000D+00  0.0000000000000D+00
301  3.0000000000000D+00  0.0000000000000D+00  0.0000000000000D+00
302  3.0100000000000D+00  0.0000000000000D+00  0.0000000000000D+00
303  3.0200000000000D+00  0.0000000000000D+00  0.0000000000000D+00
304  3.0300000000000D+00  0.0000000000000D+00  0.0000000000000D+00
305  3.0400000000000D+00  0.0000000000000D+00  0.0000000000000D+00
306  3.0500000000000D+00  0.0000000000000D+00  0.0000000000000D+00
307  3.0600000000000D+00  0.0000000000000D+00  0.0000000000000D+00
308  3.0700000000000D+00  0.0000000000000D+00  0.0000000000000D+00
309  3.0800000000000D+00  0.0000000000000D+00  0.0000000000000D+00
310  3.0900000000000D+00  0.0000000000000D+00  0.0000000000000D+00
311  3.1000000000000D+00  0.0000000000000D+00  0.0000000000000D+00
312  3.1100000000000D+00  0.0000000000000D+00  0.0000000000000D+00
313  3.1200000000000D+00  0.0000000000000D+00  0.0000000000000D+00
314  3.1300000000000D+00  0.0000000000000D+00  0.0000000000000D+00
315  3.1400000000000D+00  0.0000000000000D+00  0.0000000000000D+00
316  3.1500000000000D+00  0.0000000000000D+00  0.0000000000000D+00
317  3.1600000000000D+00  0.0000000000000D+00  0.0000000000000D+00
318  3.1700000000000D+00  0.0000000000000D+00  0.0000000000000D+00
319  3.1800000000000D+00  0.0000000000000D+00  0.0000000000000D+00
320  3.1900000000000D+00  0.0000000000000D+00  0.0000000000000D+00
321  3.2000000000000D+00  0.0000000000000D+00  0.0000000000000D+00
322  3.2100000000000D+00  0.0000000000000D+00  0.0000000000000D+00
323  3.2200000000000D+00  0.0000000000000D+00  0.0000000000000D+00
324  3.2300000000000D+00  0.0000000000000D+00  0.0000000000000D+00
325  3.2400000000000D+00  0.0000000000000D+00  0.0000000000000D+00
326  3.2500000000000D+00  0.0000000000000D+00  0.0000000000000D+00
327  3.2600000000000D+00  0.0000000000000D+00  0.0000000000000D+00
328  3.2700000000000D+00  0.0000000000000D+00  0.0000000000000D+00
329  3.2800000000000D+00  0.0000000000000D+00  0.0000000000000D+00
330  3.2900000000000D+00  0.0000000000000D+00  0.0000000000000D+00
331  3.3000000000000D+00  0.0000000000000D+00  0.0000000000000D+00
332  3.3100000000000D+00  0.0000000000000D+00  0.0000000000000D+00
333  3.3200000000000D+00  0.0000000000000D+00  0.0000000000000D+00
334  3.3300000000000D+00  0.0000000000000D+00  0.0000000000000D+00
335  3.3400000000000D+00  0.0000000000000D+00  0.0000000000000D+00
336  3.3500000000000D+00  0.0000000000000D+00  0.0000000000000D+00
337  3.3600000000000D+00  0.0000000000000D+00  0.0000000000000D+00
338  3.3700000000000D+00  0.0000000000000D+00  0.0000000000000D+00
339  3.3800000000000D+00  0.0000000000000D+00  0.0000000000000D+00
340  3.3900000000000D+00  0.0000000000000D+00  0.0000000000000D+00
341  3.4000000000000D+00  0.0000000000000D+00  0.0000000000000D+00
342  3.4100000000000D+00  0.0000000000000D+00  0.0000000000000D+00
343  3.4200000000000D+00  0.0000000000000D+00  0.0000000000000D+00
344  3.4300000000000D+00  0.0000000000000D+00  0.0000000000000D+00
345  3.4400000000000D+00  0.0000000000000D+00  0.0000000000000D+00
346  3.4500000000000D+00  0.0000000000000D+00  0.0000000000000D+00
347  3.4600000000000D+00  0.0000000000000D+00  0.0000000000000D+00
348  3.4700000000000D+00  0.0000000000000D+00  0.0000000000000D+00
349  3.4800000000000D+00  0.0000000000000D+00  0.0000000000000D+00
350  3.4900000000000D+00  0.0000000000000D+00  0.0000000000000D+00
351  3.5000000000000D+00  0.0000000000000D+00  0.0000000000000D+00
352  3.5100000000000D+00  0.0000000000000D+00  0.0000000000000D+00
353  3.5200000000000D+00  0.0000000000000D+00  0.0000000000000D+00
354  3.5300000000000D+00  0.0000000000000D+00  0.0000000000000D+00
355  3.5400000000000D+00  0.0000000000000D+00  0.0000000000000D+00
356  3.5500000000000D+00  0.0000000000000D+00  0.0000000000000D+00
357  3.5600000000000D+00  0.0000000000000D+00  0.0000000000000D+00
358  3.5700000000000D+00  0.0000000000000D+00  0.0000000000000D+00
359  3.5800000000000D+00  0.0000000000000D+00  0.0000000000000D+00
360  3.5900000000000D+00  0.0000000000000D+00  0.0000000000000D+00
361  3.6000000000000D+00  0.0000000000000D+00  0.0000000000000D+00
362  3.6100000000000D+00  0.0000000000000D+00  0.0000000000000D+00
363  3.6200000000000D+00  0.0000000000000D+00  0.0000000000000D+00
364  3.6300000000000D+00  0.0000000000000D+00  0.0000000000000D+00
365  3.6400000000000D+00  0.0000000000000D+00  0.0000000000000D+00
366  3.6500000000000D+00  0.0000000000000D+00  0.0000000000000D+00
367  3.6600000000000D+00  0.0000000000000D+00  0.0000000000000D+00
368  3.6700000000000D+00  0.0000000000000D+00  0.0000000000000D+00
369  3.6800000000000D+00  0.0000000000000D+00  0.0000000000000D+00
370  3.6900000000000D+00  0.0000000000000D+00  0.0000000000000D+00
371  3.7000000000000D+00  0.0000000000000D+00  0.0000000000000D+00
372  3.7100000000000D+00  0.0000000000000D+00  0.0000000000000D+00
373  3.7200000000000D+00  0.0000000000000D+00  0.0000000000000D+00
374  3.7300000000000D+00  0.0000000000000D+00  0.0000000000000D+00
375  3.7400000000000D+00  0.0000000000000D+00  0.0000000000000D+00
376  3.7500000000000D+00  0.0000000000000D+00  0.0000000000000D+00
377  3.7600000000000D+00  0.0000000000000D+00  0.0000000000000D+00
378  3.7700000000000D+00  0.0000000000000D+00  0.0000000000000D+00
379  3.7800000000000D+00  0.0000000000000D+00  0.0000000000000D+00
380  3.7900000000000D+00  0.0000000000000D+00  0.0000000000000D+00
381  3.8000000000000D+00  0.0000000000000D+00  0.0000000000000D+00
382  3.8100000000000D+00  0.0000000000000D+00  0.0000000000000D+00
383  3.8200000000000D+00  0.0000000000000D+00  0.0000000000000D+00
384  3.8300000000000D+00  0.0000000000000D+00  0.0000000000000D+00
385  3.8400000000000D+00  0.0000000000000D+00  0.0000000000000D+00
386  3.8500000000000D+00  0.0000000000000D+00  0.0000000000000D+00
387  3.8600000000000D+00  0.0000000000000D+00  0.0000000000000D+00
388  3.8700000000000D+00  0.0000000000000D+00  0.0000000000000D+00
389  3.8800000000000D+00  0.0000000000000D+00  0.0000000000000D+00
390  3.8900000000000D+00  0.0000000000000D+00  0.0000000000000D+00
391  3.9000000000000D+00  0.0000000000000D+00  0.0000000000000D+00
392  3.9100000000000D+00  0.0000000000000D+00  0.0000000000000D+00
393  3.9200000000000D+00  0.0000000000000D+00  0.0000000000000D+00
394  3.9300000000000D+00  0.0000000000000D+00  0.0000000000000D+00
395  3.9400000000000D+00  0.0000000000000D+00  0.0000000000000D+00
396  3.9500000000000D+00  0.0000000000000D+00  0.0000000000000D+00
397  3.9600000000000D+00  0.0000000000000D+00  0.0000000000000D+00
398  3.9700000000000D+00  0.0000000000000D+00  0.0000000000000D+00
399  3.9800000000000D+00  0.0000000000000D+00  0.0000000000000D+00
400  3.9900000000000D+00  0.0000000000000D+00  0.0000000000000D+00
401  4.0000000000000D+00  0.0000000000000D+00  0.0000000000000D+00
402  4.0100000000000D+00  0.0000000000000D+00  0.0000000000000D+00
403  4.0200000000000D+00  0.0000000000000D+00  0.0000000000000D+00
404  4.0300000000000D+00  0.0000000000000D+00  0.0000000000000D+00
405  4.0400000000000D+00  0.0000000000000D+00  0.0000000000000D+00
406  4.0500000000000D+00  0.0000000000000D+00  0.0000000000000D+00
407  4.0600000000000D+00  0.0000000000000D+00  0.0000000000000D+00
408  4.0700000000000D+00  0.0000000000000D+00  0.0000000000000D+00
409  4.0800000000000D+00  0.0000000000000D+00  0.0000000000000D+00
410  4.0900000000000D+00  0.0000000000000D+00  0.0000000000000D+00
411  4.1000000000000D+00  0.0000000000000D+00  0.0000000000000D+00
412  4.1100000000000D+00  0.0000000000000D+00  0.0000000000000D+00
413  4.1200000000000D+00  0.0000000000000D+00  0.0000000000000D+00
414  4.1300000000000D+00  0.0000000000000D+00  0.0000000000000D+00
415  4.1400000000000D+00  0.0000000000000D+00  0.0000000000000D+00
416  4.1500000000000D+00  0.0000000000000D+00  0.0000000000000D+00
417  4.1600000000000D+00  0.0000000000000D+00  0.0000000000000D+00
418  4.1700000000000D+00  0.0000000000000D+00  0.0000000000000D+00
419  4.1800000000000D+00  0.0000000000000D+00  0.0000000000000D+00
420  4.1900000000000D+00  0.0000000000000D+00  0.0000000000000D+00
421  4.2000000000000D+00  0.0000000000000D+00  0.0000000000000D+00
422  4.2100000000000D+00  0.0000000000000D+00  0.0000000000000D+00
423  4.2200000000000D+00  0.0000000000000D+00  0.0000000000000D+00
424  4.2300000000000D+00  0.0000000000000D+00  0.0000000000000D+00
425  4.2400000000000D+00  0.0000000000000D+00  0.0000000000000D+00
426  4.2500000000000D+00  0.0000000000000D+00  0.0000000000000D+00
427  4.2600000000000D+00  0.0000000000000D+00  0.0000000000000D+00
428  4.2700000000000D+00  0.0000000000000D+00  0.0000000000000D+00
429  4.2800000000000D+00  0.0000000000000D+00  0.0000000000000D+00
430  4.2900000000000D+00  0.0000000000000D+00  0.0000000000000D+00
431  4.3000000000000D+00  0.0000000000000D+00  0.0000000000000D+00
432  4.3100000000000D+00  0.0000000000000D+00  0.0000000000000D+00
433  4.3200000000000D+00  0.0000000000000D+00  0.0000000000000D+00
434  4.3300000000000D+00  0.0000000000000D+00  0.0000000000000D+00
435  4.3400000000000D+00  0.0000000000000D+00  0.0000000000000D+00
436  4.3500000000000D+00  0.0000000000000D+00  0.0000000000000D+00
437  4.3600000000000D+00  0.0000000000000D+00  0.0000000000000D+00
438  4.3700000000000D+00  0.0000000000000D+00  0.0000000000000D+00
439  4.3800000000000D+00  0.0000000000000D+00  0.0000000000000D+00
440  4.3900000000000D+00  0.0000000000000D+00  0.0000000000000D+00
441  4.4000000000000D+00  0.0000000000000D+00  0.0000000000000D+00
442  4.4100000000000D+00  0.0000000000000D+00  0.0000000000000D+00
443  4.4200000000000D+00  0.0000000000000D+00  0.0000000000000D+00