H     ONCVPSP  r_core=  1.01  0.71
1.0000      1.0000      150901    zatom,zion,pspd
8   -1013   1     1   300     0    pspcod,pspxc,lmax,lloc,mmax,r2well
2.99000000  0.00000000  0.00000000    rchrg fchrg qchrg
2     0     0     0     0    nproj
0                 extension_switch
0                         1.0241927216491D+02 -6.4674458234126D+00
1  0.0000000000000D+00  6.8696063661999D-06 -7.0724521363807D-06
2  1.0000000000000D-02 -3.5542492515253D-01  4.0068834369867D-01
3  2.0000000000000D-02 -6.9660192229811D-01  7.9040101150483D-01
4  3.0000000000000D-02 -1.0098793543928D+00  1.1586486299107D+00
5  4.0000000000000D-02 -1.2827672207162D+00  1.4958850230524D+00
6  5.0000000000000D-02 -1.5044429271195D+00  1.7939076830497D+00
7  6.0000000000000D-02 -1.6661732195748D+00  2.0461793022783D+00
8  7.0000000000000D-02 -1.7616339535316D+00  2.2480539704777D+00
9  8.0000000000000D-02 -1.7871162411907D+00  2.3968987120490D+00
10  9.0000000000000D-02 -1.7416146426690D+00  2.4921083588193D+00
11  1.0000000000000D-01 -1.6267998070247D+00  2.5350186546322D+00
12  1.1000000000000D-01 -1.4468838071520D+00  2.5287284258170D+00
13  1.2000000000000D-01 -1.2083909994463D+00  2.4778462533201D+00
14  1.3000000000000D-01 -9.1985041156333D-01  2.3881801648836D+00
15  1.4000000000000D-01 -5.9142742971290D-01  2.2663904227477D+00
16  1.5000000000000D-01 -2.3451307031166D-01  2.1196256494864D+00
17  1.6000000000000D-01  1.3871137789354D-01  1.9551615424162D+00
18  1.7000000000000D-01  5.1571777899928D-01  1.7800595522738D+00
19  1.8000000000000D-01  8.8406774206156D-01  1.6008604240919D+00
20  1.9000000000000D-01  1.2318293265537D+00  1.4233246672411D+00
21  2.0000000000000D-01  1.5479626429047D+00  1.2522290377054D+00
22  2.1000000000000D-01  1.8226648257099D+00  1.0912251219964D+00
23  2.2000000000000D-01  2.0476663553504D+00  9.4276319764829D-01
24  2.3000000000000D-01  2.2164720098271D+00  8.0808175522975D-01
25  2.4000000000000D-01  2.3245409005291D+00  6.8726041796926D-01
26  2.5000000000000D-01  2.3694011782834D+00  5.7933149270262D-01
27  2.6000000000000D-01  2.3506962032710D+00  4.8244304027092D-01
28  2.7000000000000D-01  2.2701603679073D+00  3.9406419392875D-01
29  2.8000000000000D-01  2.1315244391816D+00  3.1122153808534D-01
30  2.9000000000000D-01  1.9403523011344D+00  2.3075377522654D-01
31  3.0000000000000D-01  1.7038133291781D+00  1.4957077179418D-01
32  3.1000000000000D-01  1.4303972500947D+00  6.4902515393893D-02
33  3.2000000000000D-01  1.1295810996085D+00 -2.5476335292898D-02
34  3.3000000000000D-01  8.1146058474835D-01 -1.2305966688270D-01
35  3.4000000000000D-01  4.8636054521160D-01 -2.2847242966433D-01
36  3.5000000000000D-01  1.6444102118956D-01 -3.4139132549740D-01
37  3.6000000000000D-01 -1.4468357644018D-01 -4.6052912523463D-01
38  3.7000000000000D-01 -4.3229473244839D-01 -5.8368412362785D-01
39  3.8000000000000D-01 -6.9087323857658D-01 -7.0785201718337D-01
40  3.9000000000000D-01 -9.1434176202664D-01 -8.2939332509020D-01
41  4.0000000000000D-01 -1.0982358977129D+00 -9.4424571172584D-01
42  4.1000000000000D-01 -1.2397971186451D+00 -1.0481675335976D+00
43  4.2000000000000D-01 -1.3379855738542D+00 -1.1369968831315D+00
44  4.3000000000000D-01 -1.3934152902440D+00 -1.2069094997724D+00
45  4.4000000000000D-01 -1.4082186369551D+00 -1.2546592148639D+00
46  4.5000000000000D-01 -1.3858505748934D+00 -1.2777860254234D+00
47  4.6000000000000D-01 -1.3308459879001D+00 -1.2747792875926D+00
48  4.7000000000000D-01 -1.2485451274940D+00 -1.2451866447205D+00
49  4.8000000000000D-01 -1.1448028622798D+00 -1.1896628804786D+00
50  4.9000000000000D-01 -1.0256970690930D+00 -1.1099566318481D+00
51  5.0000000000000D-01 -8.9725027833146D-01 -1.0088365533010D+00
52  5.1000000000000D-01 -7.6517678349926D-01 -8.8996187997750D-01
53  5.2000000000000D-01 -6.3466505991135D-01 -7.5770523555071D-01
54  5.3000000000000D-01 -5.1020272190118D-01 -6.1693786644622D-01
55  5.4000000000000D-01 -3.9544856446787D-01 -4.7278920480344D-01
56  5.5000000000000D-01 -2.9315363763698D-01 -3.3039374444205D-01
57  5.6000000000000D-01 -2.0513090494874D-01 -1.9463866538956D-01
58  5.7000000000000D-01 -1.3227090497771D-01 -6.9925476779820D-02
59  5.8000000000000D-01 -7.4599029531489D-02  4.0041803404909D-02
60  5.9000000000000D-01 -3.1368556421568D-02  1.3243073132382D-01
61  6.0000000000000D-01 -1.1824570970140D-03  2.0540740963439D-01
62  6.1000000000000D-01  1.7863774853151D-02  2.5820929213862D-01
63  6.2000000000000D-01  2.8026448384039D-02  2.9115945366857D-01
64  6.3000000000000D-01  3.1753404618103D-02  3.0562098115364D-01
65  6.4000000000000D-01  3.1527141154910D-02  3.0389331938871D-01
66  6.5000000000000D-01  2.9718736712876D-02  2.8905561734196D-01
67  6.6000000000000D-01  2.8459091198148D-02  2.6476519192912D-01
68  6.7000000000000D-01  2.9532845005647D-02  2.3502194520714D-01
69  6.8000000000000D-01  3.4298975182971D-02  2.0391178130133D-01
70  6.9000000000000D-01  4.3632901652453D-02  1.7532647210114D-01
71  7.0000000000000D-01  5.8016622865659D-02  1.5295364711306D-01
72  7.1000000000000D-01  7.6443582726420D-02  1.3757990329892D-01
73  7.2000000000000D-01  9.4558017452273D-02  1.2186109891117D-01
74  7.3000000000000D-01  1.1069151011416D-01  1.0328493753462D-01
75  7.4000000000000D-01  1.2485052105038D-01  8.2917290754219D-02
76  7.5000000000000D-01  1.3689549679359D-01  6.1436377640252D-02
77  7.6000000000000D-01  1.4674753369157D-01  3.9560433946516D-02
78  7.7000000000000D-01  1.5435626576422D-01  1.7958874924418D-02
79  7.8000000000000D-01  1.5970359619293D-01 -2.7570829083604D-03
80  7.9000000000000D-01  1.6280457529269D-01 -2.2046516850187D-02
81  8.0000000000000D-01  1.6370764103368D-01 -3.9448735674705D-02
82  8.1000000000000D-01  1.6249423039430D-01 -5.4590839886941D-02
83  8.2000000000000D-01  1.5927775865055D-01 -6.7192794620239D-02
84  8.3000000000000D-01  1.5420197664122D-01 -7.7069963668608D-02
85  8.4000000000000D-01  1.4743872881851D-01 -8.4133111807162D-02
86  8.5000000000000D-01  1.3918514724250D-01 -8.8385940163873D-02
87  8.6000000000000D-01  1.2966032835262D-01 -8.9920274741330D-02
88  8.7000000000000D-01  1.1910155011432D-01 -8.8909080083026D-02
89  8.8000000000000D-01  1.0776009677510D-01 -8.5597517449030D-02
90  8.9000000000000D-01  9.5896766775933D-02 -8.0292308730196D-02
91  9.0000000000000D-01  8.3777146183166D-02 -7.3349702832070D-02
92  9.1000000000000D-01  7.1666735192775D-02 -6.5162369682536D-02
93  9.2000000000000D-01  5.9826018708661D-02 -5.6145567801100D-02
94  9.3000000000000D-01  4.8505573637789D-02 -4.6722944117393D-02
95  9.4000000000000D-01  3.7941305343466D-02 -3.7312329221533D-02
96  9.5000000000000D-01  2.8349903673100D-02 -2.8311887491673D-02
97  9.6000000000000D-01  1.9924605045105D-02 -2.0086969229268D-02
98  9.7000000000000D-01  1.2831341699547D-02 -1.2957992826644D-02
99  9.8000000000000D-01  7.2078271162551D-03 -7.1916040872217D-03
100  9.9000000000000D-01  3.1354714860792D-03 -2.9730459425698D-03
101  1.0000000000000D+00  7.4918328729421D-04 -4.7320213314861D-04
102  1.0100000000000D+00 -4.5237776734415D-05  3.2552947667689D-04
103  1.0200000000000D+00 -2.1715343363879D-05  5.6748565846329D-05
104  1.0300000000000D+00  1.7203628974162D-05 -4.0284677421893D-05
105  1.0400000000000D+00 -4.1932548562890D-06  1.1157876633720D-05
106  1.0500000000000D+00  8.2607101425776D-08 -7.6944818546452D-07
107  1.0600000000000D+00  0.0000000000000D+00  0.0000000000000D+00
108  1.0700000000000D+00  0.0000000000000D+00  0.0000000000000D+00
109  1.0800000000000D+00  0.0000000000000D+00  0.0000000000000D+00
110  1.0900000000000D+00  0.0000000000000D+00  0.0000000000000D+00
111  1.1000000000000D+00  0.0000000000000D+00  0.0000000000000D+00
112  1.1100000000000D+00  0.0000000000000D+00  0.0000000000000D+00
113  1.1200000000000D+00  0.0000000000000D+00  0.0000000000000D+00
114  1.1300000000000D+00  0.0000000000000D+00  0.0000000000000D+00
115  1.1400000000000D+00  0.0000000000000D+00  0.0000000000000D+00
116  1.1500000000000D+00  0.0000000000000D+00  0.0000000000000D+00
117  1.1600000000000D+00  0.0000000000000D+00  0.0000000000000D+00
118  1.1700000000000D+00  0.0000000000000D+00  0.0000000000000D+00
119  1.1800000000000D+00  0.0000000000000D+00  0.0000000000000D+00
120  1.1900000000000D+00  0.0000000000000D+00  0.0000000000000D+00
121  1.2000000000000D+00  0.0000000000000D+00  0.0000000000000D+00
122  1.2100000000000D+00  0.0000000000000D+00  0.0000000000000D+00
123  1.2200000000000D+00  0.0000000000000D+00  0.0000000000000D+00
124  1.2300000000000D+00  0.0000000000000D+00  0.0000000000000D+00
125  1.2400000000000D+00  0.0000000000000D+00  0.0000000000000D+00
126  1.2500000000000D+00  0.0000000000000D+00  0.0000000000000D+00
127  1.2600000000000D+00  0.0000000000000D+00  0.0000000000000D+00
128  1.2700000000000D+00  0.0000000000000D+00  0.0000000000000D+00
129  1.2800000000000D+00  0.0000000000000D+00  0.0000000000000D+00
130  1.2900000000000D+00  0.0000000000000D+00  0.0000000000000D+00
131  1.3000000000000D+00  0.0000000000000D+00  0.0000000000000D+00
132  1.3100000000000D+00  0.0000000000000D+00  0.0000000000000D+00
133  1.3200000000000D+00  0.0000000000000D+00  0.0000000000000D+00
134  1.3300000000000D+00  0.0000000000000D+00  0.0000000000000D+00
135  1.3400000000000D+00  0.0000000000000D+00  0.0000000000000D+00
136  1.3500000000000D+00  0.0000000000000D+00  0.0000000000000D+00
137  1.3600000000000D+00  0.0000000000000D+00  0.0000000000000D+00
138  1.3700000000000D+00  0.0000000000000D+00  0.0000000000000D+00
139  1.3800000000000D+00  0.0000000000000D+00  0.0000000000000D+00
140  1.3900000000000D+00  0.0000000000000D+00  0.0000000000000D+00
141  1.4000000000000D+00  0.0000000000000D+00  0.0000000000000D+00
142  1.4100000000000D+00  0.0000000000000D+00  0.0000000000000D+00
143  1.4200000000000D+00  0.0000000000000D+00  0.0000000000000D+00
144  1.4300000000000D+00  0.0000000000000D+00  0.0000000000000D+00
145  1.4400000000000D+00  0.0000000000000D+00  0.0000000000000D+00
146  1.4500000000000D+00  0.0000000000000D+00  0.0000000000000D+00
147  1.4600000000000D+00  0.0000000000000D+00  0.0000000000000D+00
148  1.4700000000000D+00  0.0000000000000D+00  0.0000000000000D+00
149  1.4800000000000D+00  0.0000000000000D+00  0.0000000000000D+00
150  1.4900000000000D+00  0.0000000000000D+00  0.0000000000000D+00
151  1.5000000000000D+00  0.0000000000000D+00  0.0000000000000D+00
152  1.5100000000000D+00  0.0000000000000D+00  0.0000000000000D+00
153  1.5200000000000D+00  0.0000000000000D+00  0.0000000000000D+00
154  1.5300000000000D+00  0.0000000000000D+00  0.0000000000000D+00
155  1.5400000000000D+00  0.0000000000000D+00  0.0000000000000D+00
156  1.5500000000000D+00  0.0000000000000D+00  0.0000000000000D+00
157  1.5600000000000D+00  0.0000000000000D+00  0.0000000000000D+00
158  1.5700000000000D+00  0.0000000000000D+00  0.0000000000000D+00
159  1.5800000000000D+00  0.0000000000000D+00  0.0000000000000D+00
160  1.5900000000000D+00  0.0000000000000D+00  0.0000000000000D+00
161  1.6000000000000D+00  0.0000000000000D+00  0.0000000000000D+00
162  1.6100000000000D+00  0.0000000000000D+00  0.0000000000000D+00
163  1.6200000000000D+00  0.0000000000000D+00  0.0000000000000D+00
164  1.6300000000000D+00  0.0000000000000D+00  0.0000000000000D+00
165  1.6400000000000D+00  0.0000000000000D+00  0.0000000000000D+00
166  1.6500000000000D+00  0.0000000000000D+00  0.0000000000000D+00
167  1.6600000000000D+00  0.0000000000000D+00  0.0000000000000D+00
168  1.6700000000000D+00  0.0000000000000D+00  0.0000000000000D+00
169  1.6800000000000D+00  0.0000000000000D+00  0.0000000000000D+00
170  1.6900000000000D+00  0.0000000000000D+00  0.0000000000000D+00
171  1.7000000000000D+00  0.0000000000000D+00  0.0000000000000D+00
172  1.7100000000000D+00  0.0000000000000D+00  0.0000000000000D+00
173  1.7200000000000D+00  0.0000000000000D+00  0.0000000000000D+00
174  1.7300000000000D+00  0.0000000000000D+00  0.0000000000000D+00
175  1.7400000000000D+00  0.0000000000000D+00  0.0000000000000D+00
176  1.7500000000000D+00  0.0000000000000D+00  0.0000000000000D+00
177  1.7600000000000D+00  0.0000000000000D+00  0.0000000000000D+00
178  1.7700000000000D+00  0.0000000000000D+00  0.0000000000000D+00
179  1.7800000000000D+00  0.0000000000000D+00  0.0000000000000D+00
180  1.7900000000000D+00  0.0000000000000D+00  0.0000000000000D+00
181  1.8000000000000D+00  0.0000000000000D+00  0.0000000000000D+00
182  1.8100000000000D+00  0.0000000000000D+00  0.0000000000000D+00
183  1.8200000000000D+00  0.0000000000000D+00  0.0000000000000D+00
184  1.8300000000000D+00  0.0000000000000D+00  0.0000000000000D+00
185  1.8400000000000D+00  0.0000000000000D+00  0.0000000000000D+00
186  1.8500000000000D+00  0.0000000000000D+00  0.0000000000000D+00
187  1.8600000000000D+00  0.0000000000000D+00  0.0000000000000D+00
188  1.8700000000000D+00  0.0000000000000D+00  0.0000000000000D+00
189  1.8800000000000D+00  0.0000000000000D+00  0.0000000000000D+00
190  1.8900000000000D+00  0.0000000000000D+00  0.0000000000000D+00
191  1.9000000000000D+00  0.0000000000000D+00  0.0000000000000D+00
192  1.9100000000000D+00  0.0000000000000D+00  0.0000000000000D+00
193  1.9200000000000D+00  0.0000000000000D+00  0.0000000000000D+00
194  1.9300000000000D+00  0.0000000000000D+00  0.0000000000000D+00
195  1.9400000000000D+00  0.0000000000000D+00  0.0000000000000D+00
196  1.9500000000000D+00  0.0000000000000D+00  0.0000000000000D+00
197  1.9600000000000D+00  0.0000000000000D+00  0.0000000000000D+00
198  1.9700000000000D+00  0.0000000000000D+00  0.0000000000000D+00
199  1.9800000000000D+00  0.0000000000000D+00  0.0000000000000D+00
200  1.9900000000000D+00  0.0000000000000D+00  0.0000000000000D+00
201  2.0000000000000D+00  0.0000000000000D+00  0.0000000000000D+00
202  2.0100000000000D+00  0.0000000000000D+00  0.0000000000000D+00
203  2.0200000000000D+00  0.0000000000000D+00  0.0000000000000D+00
204  2.0300000000000D+00  0.0000000000000D+00  0.0000000000000D+00
205  2.0400000000000D+00  0.0000000000000D+00  0.0000000000000D+00
206  2.0500000000000D+00  0.0000000000000D+00  0.0000000000000D+00
207  2.0600000000000D+00  0.0000000000000D+00  0.0000000000000D+00
208  2.0700000000000D+00  0.0000000000000D+00  0.0000000000000D+00
209  2.0800000000000D+00  0.0000000000000D+00  0.0000000000000D+00
210  2.0900000000000D+00  0.0000000000000D+00  0.0000000000000D+00
211  2.1000000000000D+00  0.0000000000000D+00  0.0000000000000D+00
212  2.1100000000000D+00  0.0000000000000D+00  0.0000000000000D+00
213  2.1200000000000D+00  0.0000000000000D+00  0.0000000000000D+00
214  2.1300000000000D+00  0.0000000000000D+00  0.0000000000000D+00
215  2.1400000000000D+00  0.0000000000000D+00  0.0000000000000D+00
216  2.1500000000000D+00  0.0000000000000D+00  0.0000000000000D+00
217  2.1600000000000D+00  0.0000000000000D+00  0.0000000000000D+00
218  2.1700000000000D+00  0.0000000000000D+00  0.0000000000000D+00
219  2.1800000000000D+00  0.0000000000000D+00  0.0000000000000D+00
220  2.1900000000000D+00  0.0000000000000D+00  0.0000000000000D+00
221  2.2000000000000D+00  0.0000000000000D+00  0.0000000000000D+00
222  2.2100000000000D+00  0.0000000000000D+00  0.0000000000000D+00
223  2.2200000000000D+00  0.0000000000000D+00  0.0000000000000D+00
224  2.2300000000000D+00  0.0000000000000D+00  0.0000000000000D+00
225  2.2400000000000D+00  0.0000000000000D+00  0.0000000000000D+00
226  2.2500000000000D+00  0.0000000000000D+00  0.0000000000000D+00
227  2.2600000000000D+00  0.0000000000000D+00  0.0000000000000D+00
228  2.2700000000000D+00  0.0000000000000D+00  0.0000000000000D+00
229  2.2800000000000D+00  0.0000000000000D+00  0.0000000000000D+00
230  2.2900000000000D+00  0.0000000000000D+00  0.0000000000000D+00
231  2.3000000000000D+00  0.0000000000000D+00  0.0000000000000D+00
232  2.3100000000000D+00  0.0000000000000D+00  0.0000000000000D+00
233  2.3200000000000D+00  0.0000000000000D+00  0.0000000000000D+00
234  2.3300000000000D+00  0.0000000000000D+00  0.0000000000000D+00
235  2.3400000000000D+00  0.0000000000000D+00  0.0000000000000D+00
236  2.3500000000000D+00  0.0000000000000D+00  0.0000000000000D+00
237  2.3600000000000D+00  0.0000000000000D+00  0.0000000000000D+00
238  2.3700000000000D+00  0.0000000000000D+00  0.0000000000000D+00
239  2.3800000000000D+00  0.0000000000000D+00  0.0000000000000D+00
240  2.3900000000000D+00  0.0000000000000D+00  0.0000000000000D+00
241  2.4000000000000D+00  0.0000000000000D+00  0.0000000000000D+00
242  2.4100000000000D+00  0.0000000000000D+00  0.0000000000000D+00
243  2.4200000000000D+00  0.0000000000000D+00  0.0000000000000D+00
244  2.4300000000000D+00  0.0000000000000D+00  0.0000000000000D+00
245  2.4400000000000D+00  0.0000000000000D+00  0.0000000000000D+00
246  2.4500000000000D+00  0.0000000000000D+00  0.0000000000000D+00
247  2.4600000000000D+00  0.0000000000000D+00  0.0000000000000D+00
248  2.4700000000000D+00  0.0000000000000D+00  0.0000000000000D+00
249  2.4800000000000D+00  0.0000000000000D+00  0.0000000000000D+00
250  2.4900000000000D+00  0.0000000000000D+00  0.0000000000000D+00
251  2.5000000000000D+00  0.0000000000000D+00  0.0000000000000D+00
252  2.5100000000000D+00  0.0000000000000D+00  0.0000000000000D+00
253  2.5200000000000D+00  0.0000000000000D+00  0.0000000000000D+00
254  2.5300000000000D+00  0.0000000000000D+00  0.0000000000000D+00
255  2.5400000000000D+00  0.0000000000000D+00  0.0000000000000D+00
256  2.5500000000000D+00  0.0000000000000D+00  0.0000000000000D+00
257  2.5600000000000D+00  0.0000000000000D+00  0.0000000000000D+00
258  2.5700000000000D+00  0.0000000000000D+00  0.0000000000000D+00
259  2.5800000000000D+00  0.0000000000000D+00  0.0000000000000D+00
260  2.5900000000000D+00  0.0000000000000D+00  0.0000000000000D+00
261  2.6000000000000D+00  0.0000000000000D+00  0.0000000000000D+00
262  2.6100000000000D+00  0.0000000000000D+00  0.0000000000000D+00
263  2.6200000000000D+00  0.0000000000000D+00  0.0000000000000D+00
264  2.6300000000000D+00  0.0000000000000D+00  0.0000000000000D+00
265  2.6400000000000D+00  0.0000000000000D+00  0.0000000000000D+00
266  2.6500000000000D+00  0.0000000000000D+00  0.0000000000000D+00
267  2.6600000000000D+00  0.0000000000000D+00  0.0000000000000D+00
268  2.6700000000000D+00  0.0000000000000D+00  0.0000000000000D+00
269  2.6800000000000D+00  0.0000000000000D+00  0.0000000000000D+00
270  2.6900000000000D+00  0.0000000000000D+00  0.0000000000000D+00
271  2.7000000000000D+00  0.0000000000000D+00  0.0000000000000D+00
272  2.7100000000000D+00  0.0000000000000D+00  0.0000000000000D+00
273  2.7200000000000D+00  0.0000000000000D+00  0.0000000000000D+00
274  2.7300000000000D+00  0.0000000000000D+00  0.0000000000000D+00
275  2.7400000000000D+00  0.0000000000000D+00  0.0000000000000D+00
276  2.7500000000000D+00  0.0000000000000D+00  0.0000000000000D+00
277  2.7600000000000D+00  0.0000000000000D+00  0.0000000000000D+00
278  2.7700000000000D+00  0.0000000000000D+00  0.0000000000000D+00
279  2.7800000000000D+00  0.0000000000000D+00  0.0000000000000D+00
280  2.7900000000000D+00  0.0000000000000D+00  0.0000000000000D+00
281  2.8000000000000D+00  0.0000000000000D+00  0.0000000000000D+00
282  2.8100000000000D+00  0.0000000000000D+00  0.0000000000000D+00
283  2.8200000000000D+00  0.0000000000000D+00  0.0000000000000D+00
284  2.8300000000000D+00  0.0000000000000D+00  0.0000000000000D+00
285  2.8400000000000D+00  0.0000000000000D+00  0.0000000000000D+00
286  2.8500000000000D+00  0.0000000000000D+00  0.0000000000000D+00
287  2.8600000000000D+00  0.0000000000000D+00  0.0000000000000D+00
288  2.8700000000000D+00  0.0000000000000D+00  0.0000000000000D+00
289  2.8800000000000D+00  0.0000000000000D+00  0.0000000000000D+00
290  2.8900000000000D+00  0.0000000000000D+00  0.0000000000000D+00
291  2.9000000000000D+00  0.0000000000000D+00  0.0000000000000D+00
292  2.9100000000000D+00  0.0000000000000D+00  0.0000000000000D+00
293  2.9200000000000D+00  0.0000000000000D+00  0.0000000000000D+00
294  2.9300000000000D+00  0.0000000000000D+00  0.0000000000000D+00
295  2.9400000000000D+00  0.0000000000000D+00  0.0000000000000D+00
296  2.9500000000000D+00  0.0000000000000D+00  0.0000000000000D+00
297  2.9600000000000D+00  0.0000000000000D+00  0.0000000000000D+00
298  2.9700000000000D+00  0.0000000000000D+00  0.0000000000000D+00
299  2.9800000000000D+00  0.0000000000000D+00  0.0000000000000D+00
300  2.9900000000000D+00  0.0000000000000D+00  0.0000000000000D+00
1
1  0.0000000000000D+00  4.0632265708359D+00
2  1.0000000000000D-02  4.0044078631288D+00
3  2.0000000000000D-02  3.8293762479941D+00
4  3.0000000000000D-02  3.5423757858954D+00
5  4.0000000000000D-02  3.1503135123897D+00
6  5.0000000000000D-02  2.6625266325189D+00
7  6.0000000000000D-02  2.0904720424917D+00
8  7.0000000000000D-02  1.4473565326863D+00
9  8.0000000000000D-02  7.4772602600333D-01
10  9.0000000000000D-02  7.0328061685051D-03
11  1.0000000000000D-01 -7.5880107381730D-01
12  1.1000000000000D-01 -1.5338079030554D+00
13  1.2000000000000D-01 -2.3023723346673D+00
14  1.3000000000000D-01 -3.0495928401567D+00
15  1.4000000000000D-01 -3.7615993434402D+00
16  1.5000000000000D-01 -4.4258228066892D+00
17  1.6000000000000D-01 -5.0312151455248D+00
18  1.7000000000000D-01 -5.5684199026014D+00
19  1.8000000000000D-01 -6.0298955537146D+00
20  1.9000000000000D-01 -6.4099941774675D+00
21  2.0000000000000D-01 -6.7049985612467D+00
22  2.1000000000000D-01 -6.9131207535335D+00
23  2.2000000000000D-01 -7.0344647376469D+00
24  2.3000000000000D-01 -7.0709554346289D+00
25  2.4000000000000D-01 -7.0262357787629D+00
26  2.5000000000000D-01 -6.9055332701292D+00
27  2.6000000000000D-01 -6.7154972949129D+00
28  2.7000000000000D-01 -6.4640086873863D+00
29  2.8000000000000D-01 -6.1599635240322D+00
30  2.9000000000000D-01 -5.8130339864651D+00
31  3.0000000000000D-01 -5.4334102585941D+00
32  3.1000000000000D-01 -5.0315287444937D+00
33  3.2000000000000D-01 -4.6177932773724D+00
34  3.3000000000000D-01 -4.2022972783603D+00
35  3.4000000000000D-01 -3.7945558441483D+00
36  3.5000000000000D-01 -3.4032573284784D+00
37  3.6000000000000D-01 -3.0360439961492D+00
38  3.7000000000000D-01 -2.6993306817371D+00
39  3.8000000000000D-01 -2.3981690579199D+00
40  3.9000000000000D-01 -2.1361631651533D+00
41  4.0000000000000D-01 -1.9154394049979D+00
42  4.1000000000000D-01 -1.7366714436666D+00
43  4.2000000000000D-01 -1.5991576388317D+00
44  4.3000000000000D-01 -1.5009459293842D+00
45  4.4000000000000D-01 -1.4389988316717D+00
46  4.5000000000000D-01 -1.4093894374883D+00
47  4.6000000000000D-01 -1.4075182149041D+00
48  4.7000000000000D-01 -1.4283400074476D+00
49  4.8000000000000D-01 -1.4665908766830D+00
50  4.9000000000000D-01 -1.5170052485686D+00
51  5.0000000000000D-01 -1.5745150786052D+00
52  5.1000000000000D-01 -1.6344243015206D+00
53  5.2000000000000D-01 -1.6925535360855D+00
54  5.3000000000000D-01 -1.7453517484765D+00
55  5.4000000000000D-01 -1.7899732412084D+00
56  5.5000000000000D-01 -1.8243198572928D+00
57  5.6000000000000D-01 -1.8470496279562D+00
58  5.7000000000000D-01 -1.8575542346103D+00
59  5.8000000000000D-01 -1.8559085909385D+00
60  5.9000000000000D-01 -1.8427965978219D+00
61  6.0000000000000D-01 -1.8194176837077D+00
62  6.1000000000000D-01 -1.7873791343576D+00
63  6.2000000000000D-01 -1.7485794380901D+00
64  6.3000000000000D-01 -1.7050879312651D+00
65  6.4000000000000D-01 -1.6590259194078D+00
66  6.5000000000000D-01 -1.6124541721335D+00
67  6.6000000000000D-01 -1.5672712415839D+00
68  6.7000000000000D-01 -1.5251264462869D+00
69  6.8000000000000D-01 -1.4873506090809D+00
70  6.9000000000000D-01 -1.4549000975976D+00
71  7.0000000000000D-01 -1.4284247730622D+00
72  7.1000000000000D-01 -1.4072989868591D+00
73  7.2000000000000D-01 -1.3879326486516D+00
74  7.3000000000000D-01 -1.3689945434767D+00
75  7.4000000000000D-01 -1.3505869604620D+00
76  7.5000000000000D-01 -1.3326636913949D+00
77  7.6000000000000D-01 -1.3152072168089D+00
78  7.7000000000000D-01 -1.2981991067538D+00
79  7.8000000000000D-01 -1.2816219274874D+00
80  7.9000000000000D-01 -1.2654591971112D+00
81  8.0000000000000D-01 -1.2496953243844D+00
82  8.1000000000000D-01 -1.2343155512692D+00
83  8.2000000000000D-01 -1.2193058989157D+00
84  8.3000000000000D-01 -1.2046531168317D+00
85  8.4000000000000D-01 -1.1903446350198D+00
86  8.5000000000000D-01 -1.1763685188931D+00
87  8.6000000000000D-01 -1.1627134268097D+00
88  8.7000000000000D-01 -1.1493685700883D+00
89  8.8000000000000D-01 -1.1363236753871D+00
90  8.9000000000000D-01 -1.1235689493477D+00
91  9.0000000000000D-01 -1.1110950454158D+00
92  9.1000000000000D-01 -1.0988930327670D+00
93  9.2000000000000D-01 -1.0869543672701D+00
94  9.3000000000000D-01 -1.0752708644323D+00
95  9.4000000000000D-01 -1.0638346742715D+00
96  9.5000000000000D-01 -1.0526382580667D+00
97  9.6000000000000D-01 -1.0416743669374D+00
98  9.7000000000000D-01 -1.0309360222047D+00
99  9.8000000000000D-01 -1.0204164974704D+00
100  9.9000000000000D-01 -1.0101093024553D+00
101  1.0000000000000D+00 -1.0000081683033D+00
102  1.0100000000000D+00 -9.9010703452556D-01
103  1.0200000000000D+00 -9.8040004179584D-01
104  1.0300000000000D+00 -9.7088153551210D-01
105  1.0400000000000D+00 -9.6154607637725D-01
106  1.0500000000000D+00 -9.5238843546981D-01
107  1.0600000000000D+00 -9.4340358140283D-01
108  1.0700000000000D+00 -9.3458666906236D-01
109  1.0800000000000D+00 -9.2593303350401D-01
110  1.0900000000000D+00 -9.1743818088676D-01
111  1.1000000000000D+00 -9.0909778074807D-01
112  1.1100000000000D+00 -9.0090765869353D-01
113  1.1200000000000D+00 -8.9286378941176D-01
114  1.1300000000000D+00 -8.8496229008046D-01
115  1.1400000000000D+00 -8.7719941411669D-01
116  1.1500000000000D+00 -8.6957154525344D-01
117  1.1600000000000D+00 -8.6207519192256D-01
118  1.1700000000000D+00 -8.5470698192582D-01
119  1.1800000000000D+00 -8.4746365737676D-01
120  1.1900000000000D+00 -8.4034206989773D-01
121  1.2000000000000D+00 -8.3333917605703D-01
122  1.2100000000000D+00 -8.2645203303231D-01
123  1.2200000000000D+00 -8.1967779448719D-01
124  1.2300000000000D+00 -8.1301370664909D-01
125  1.2400000000000D+00 -8.0645710457687D-01
126  1.2500000000000D+00 -8.0000540860748D-01
127  1.2600000000000D+00 -7.9365612097199D-01
128  1.2700000000000D+00 -7.8740682257138D-01
129  1.2800000000000D+00 -7.8125516990350D-01
130  1.2900000000000D+00 -7.7519889213292D-01
131  1.3000000000000D+00 -7.6923578829618D-01
132  1.3100000000000D+00 -7.6336372463475D-01
133  1.3200000000000D+00 -7.5758063204952D-01
134  1.3300000000000D+00 -7.5188450366997D-01
135  1.3400000000000D+00 -7.4627339253215D-01
136  1.3500000000000D+00 -7.4074540935997D-01
137  1.3600000000000D+00 -7.3529872044435D-01
138  1.3700000000000D+00 -7.2993154561511D-01
139  1.3800000000000D+00 -7.2464215630132D-01
140  1.3900000000000D+00 -7.1942887367508D-01
141  1.4000000000000D+00 -7.1429006687503D-01
142  1.4100000000000D+00 -7.0922415130544D-01
143  1.4200000000000D+00 -7.0422958700705D-01
144  1.4300000000000D+00 -6.9930487709649D-01
145  1.4400000000000D+00 -6.9444856627043D-01
146  1.4500000000000D+00 -6.8965923937193D-01
147  1.4600000000000D+00 -6.8493552001548D-01
148  1.4700000000000D+00 -6.8027606926823D-01
149  1.4800000000000D+00 -6.7567958438481D-01
150  1.4900000000000D+00 -6.7114479759282D-01
151  1.5000000000000D+00 -6.6667047492722D-01
152  1.5100000000000D+00 -6.6225541511077D-01
153  1.5200000000000D+00 -6.5789844847883D-01
154  1.5300000000000D+00 -6.5359843594627D-01
155  1.5400000000000D+00 -6.4935426801458D-01
156  1.5500000000000D+00 -6.4516486381754D-01
157  1.5600000000000D+00 -6.4102917020341D-01
158  1.5700000000000D+00 -6.3694616085244D-01
159  1.5800000000000D+00 -6.3291483542762D-01
160  1.5900000000000D+00 -6.2893421875773D-01
161  1.6000000000000D+00 -6.2500336005081D-01
162  1.6100000000000D+00 -6.2112133213714D-01
163  1.6200000000000D+00 -6.1728723074002D-01
164  1.6300000000000D+00 -6.1350017377370D-01
165  1.6400000000000D+00 -6.0975930066668D-01
166  1.6500000000000D+00 -6.0606377170987D-01
167  1.6600000000000D+00 -6.0241276742810D-01
168  1.6700000000000D+00 -5.9880548797444D-01
169  1.6800000000000D+00 -5.9524115254589D-01
170  1.6900000000000D+00 -5.9171899882006D-01
171  1.7000000000000D+00 -5.8823828241157D-01
172  1.7100000000000D+00 -5.8479827634758D-01
173  1.7200000000000D+00 -5.8139827056160D-01
174  1.7300000000000D+00 -5.7803757140494D-01
175  1.7400000000000D+00 -5.7471550117480D-01
176  1.7500000000000D+00 -5.7143139765882D-01
177  1.7600000000000D+00 -5.6818461369490D-01
178  1.7700000000000D+00 -5.6497451674611D-01
179  1.7800000000000D+00 -5.6180048848982D-01
180  1.7900000000000D+00 -5.5866192442076D-01
181  1.8000000000000D+00 -5.5555823346703D-01
182  1.8100000000000D+00 -5.5248883761921D-01
183  1.8200000000000D+00 -5.4945317157132D-01
184  1.8300000000000D+00 -5.4645068237387D-01
185  1.8400000000000D+00 -5.4348082909800D-01
186  1.8500000000000D+00 -5.4054308251065D-01
187  1.8600000000000D+00 -5.3763692476010D-01
188  1.8700000000000D+00 -5.3476184907173D-01
189  1.8800000000000D+00 -5.3191735945334D-01
190  1.8900000000000D+00 -5.2910297040996D-01
191  1.9000000000000D+00 -5.2631820666758D-01
192  1.9100000000000D+00 -5.2356260290557D-01
193  1.9200000000000D+00 -5.2083570349754D-01
194  1.9300000000000D+00 -5.1813706226009D-01
195  1.9400000000000D+00 -5.1546624220955D-01
196  1.9500000000000D+00 -5.1282281532600D-01
197  1.9600000000000D+00 -5.1020636232464D-01
198  1.9700000000000D+00 -5.0761647243410D-01
199  1.9800000000000D+00 -5.0505274318141D-01
200  1.9900000000000D+00 -5.0251478018356D-01
201  2.0000000000000D+00 -5.0000219694516D-01
202  2.0100000000000D+00 -4.9751461466235D-01
203  2.0200000000000D+00 -4.9505166203231D-01
204  2.0300000000000D+00 -4.9261297506854D-01
205  2.0400000000000D+00 -4.9019819692159D-01
206  2.0500000000000D+00 -4.8780697770487D-01
207  2.0600000000000D+00 -4.8543897432580D-01
208  2.0700000000000D+00 -4.8309385032154D-01
209  2.0800000000000D+00 -4.8077127569977D-01
210  2.0900000000000D+00 -4.7847092678379D-01
211  2.1000000000000D+00 -4.7619248606217D-01
212  2.1100000000000D+00 -4.7393564204272D-01