H     ONCVPSP  r_core=  1.01  0.71
1.0000      1.0000      151027    zatom,zion,pspd
8   -1013   1     1   300     0    pspcod,pspxc,lmax,lloc,mmax,r2well
2.99000000  0.00000000  0.00000000    rchrg fchrg qchrg
2     0     0     0     0    nproj
0                 extension_switch
0                         6.3715531567263D+01 -9.4834977878377D+00
1  0.0000000000000D+00  7.9261848102696D-06 -6.9633321926332D-06
2  1.0000000000000D-02 -3.7713746592027D-01  3.6561929274821D-01
3  2.0000000000000D-02 -7.3947513742568D-01  7.2162124610230D-01
4  3.0000000000000D-02 -1.0728406759071D+00  1.0588220142810D+00
5  4.0000000000000D-02 -1.3642825823510D+00  1.3688770626186D+00
6  5.0000000000000D-02 -1.6025981730859D+00  1.6446340407452D+00
7  6.0000000000000D-02 -1.7787699481910D+00  1.8804119627762D+00
8  7.0000000000000D-02 -1.8862910782658D+00  2.0721920355112D+00
9  8.0000000000000D-02 -1.9213686614418D+00  2.2177124389783D+00
10  9.0000000000000D-02 -1.8830014931765D+00  2.3164664590158D+00
11  1.0000000000000D-01 -1.7729365813521D+00  2.3696099187179D+00
12  1.1000000000000D-01 -1.5955149304947D+00  2.3797893194450D+00
13  1.2000000000000D-01 -1.3574218365372D+00  2.3509061418810D+00
14  1.3000000000000D-01 -1.0673599382351D+00  2.2878352376945D+00
15  1.4000000000000D-01 -7.3566463491625D-01  2.1961162105039D+00
16  1.5000000000000D-01 -3.7388143498284D-01  2.0816363279492D+00
17  1.6000000000000D-01  5.6763242350502D-03  1.9503220963359D+00
18  1.7000000000000D-01  3.9037278076004D-01  1.8078544684360D+00
19  1.8000000000000D-01  7.6768347024635D-01  1.6594200335956D+00
20  1.9000000000000D-01  1.1256057250800D+00  1.5095077036145D+00
21  2.0000000000000D-01  1.4530355216366D+00  1.3617575443435D+00
22  2.1000000000000D-01  1.7401025733561D+00  1.2188656347764D+00
23  2.2000000000000D-01  1.9784569566906D+00  1.0825462293952D+00
24  2.3000000000000D-01  2.1615017319115D+00  9.5355007946771D-01
25  2.4000000000000D-01  2.2845669621829D+00  8.3173553279447D-01
26  2.5000000000000D-01  2.3450213642232D+00  7.1618696866369D-01
27  2.6000000000000D-01  2.3423186860520D+00  6.0537323312995D-01
28  2.7000000000000D-01  2.2779769470566D+00  4.9733703764527D-01
29  2.8000000000000D-01  2.1554900188686D+00  3.8990481891919D-01
30  2.9000000000000D-01  1.9801727586168D+00  2.8090540778985D-01
31  3.0000000000000D-01  1.7589430570617D+00  1.6838512378483D-01
32  3.1000000000000D-01  1.5000466886258D+00  5.0806717472619D-02
33  3.2000000000000D-01  1.2127336245998D+00 -7.2779962590282D-02
34  3.3000000000000D-01  9.0689729451294D-01 -2.0260651227135D-01
35  3.4000000000000D-01  5.9269089189979D-01 -3.3810269987896D-01
36  3.5000000000000D-01  2.8013692372332D-01 -4.7786766725392D-01
37  3.6000000000000D-01 -2.1252494559403D-02 -6.1969859323416D-01
38  3.7000000000000D-01 -3.0282683817133D-01 -7.6067610674192D-01
39  3.8000000000000D-01 -5.5710304740083D-01 -8.9730190703650D-01
40  3.9000000000000D-01 -7.7801143049795D-01 -1.0256804096932D+00
41  4.0000000000000D-01 -9.6107024450342D-01 -1.1417331122782D+00
42  4.1000000000000D-01 -1.1034817823279D+00 -1.2414320489468D+00
43  4.2000000000000D-01 -1.2041475076132D+00 -1.3210373883367D+00
44  4.3000000000000D-01 -1.2636046147447D+00 -1.3773240300260D+00
45  4.4000000000000D-01 -1.2838909304441D+00 -1.4077829615024D+00
46  4.5000000000000D-01 -1.2683489415560D+00 -1.4107850304574D+00
47  4.6000000000000D-01 -1.2213826476182D+00 -1.3856974587942D+00
48  4.7000000000000D-01 -1.1481827314442D+00 -1.3329466127059D+00
49  4.8000000000000D-01 -1.0544361770444D+00 -1.2540239676969D+00
50  4.9000000000000D-01 -9.4603601745529D-01 -1.1514356048401D+00
51  5.0000000000000D-01 -8.2880553020567D-01 -1.0285987248250D+00
52  5.1000000000000D-01 -7.0824913440734D-01 -8.8969140702852D-01
53  5.2000000000000D-01 -5.8933972151478D-01 -7.3946406973780D-01
54  5.3000000000000D-01 -4.7634940429894D-01 -5.8302275790557D-01
55  5.4000000000000D-01 -3.7272789136050D-01 -4.2559549256641D-01
56  5.5000000000000D-01 -2.8103004677879D-01 -2.7229347915426D-01
57  5.6000000000000D-01 -2.0289178951202D-01 -1.2787902686906D-01
58  5.7000000000000D-01 -1.3905138226233D-01  3.4483937886260D-03
59  5.8000000000000D-01 -8.9411407706072D-02  1.1823739666846D-01
60  5.9000000000000D-01 -5.3135324067084D-02  2.1393197071058D-01
61  6.0000000000000D-01 -2.8771450603934D-02  2.8897324761161D-01
62  6.1000000000000D-01 -1.4396535981584D-02  3.4285025559624D-01
63  6.2000000000000D-01 -7.7707137842865D-03  3.7609654586186D-01
64  6.3000000000000D-01 -6.4956371159026D-03  3.9023223355262D-01
65  6.4000000000000D-01 -8.1679041924368D-03  3.8765378088752D-01
66  6.5000000000000D-01 -1.0520523043650D-02  3.7147666566946D-01
67  6.6000000000000D-01 -1.1546101068336D-02  3.4533876872734D-01
68  6.7000000000000D-01 -9.5966385383809D-03  3.1317468903506D-01
69  6.8000000000000D-01 -3.4562079622370D-03  2.7897311054536D-01
70  6.9000000000000D-01  7.6084530350664D-03  2.4651454616956D-01
71  7.0000000000000D-01  2.3938158487980D-02  2.1936475223878D-01
72  7.1000000000000D-01  4.4458147775172D-02  1.9834788145425D-01
73  7.2000000000000D-01  6.4921056472906D-02  1.7659838055978D-01
74  7.3000000000000D-01  8.3652388107415D-02  1.5186937953693D-01
75  7.4000000000000D-01  1.0058467472057D-01  1.2533420276275D-01
76  7.5000000000000D-01  1.1550662592719D-01  9.7772041857861D-02
77  7.6000000000000D-01  1.2827094042610D-01  6.9993509354362D-02
78  7.7000000000000D-01  1.3876366643727D-01  4.2751161377725D-02
79  7.8000000000000D-01  1.4690898000302D-01  1.6729090183732D-02
80  7.9000000000000D-01  1.5267091979061D-01 -7.4700399396322D-03
81  8.0000000000000D-01  1.5605431139675D-01 -2.9335554460701D-02
82  8.1000000000000D-01  1.5710487571767D-01 -4.8456711976906D-02
83  8.2000000000000D-01  1.5590851343514D-01 -6.4527917482983D-02
84  8.3000000000000D-01  1.5258977469574D-01 -7.7351156986818D-02
85  8.4000000000000D-01  1.4730953989575D-01 -8.6835668186543D-02
86  8.5000000000000D-01  1.4026195378519D-01 -9.2994923958884D-02
87  8.6000000000000D-01  1.3167067054085D-01 -9.5941064909033D-02
88  8.7000000000000D-01  1.2178448171747D-01 -9.5876972951288D-02
89  8.8000000000000D-01  1.1087241177948D-01 -9.3086228668705D-02
90  8.9000000000000D-01  9.9218376984770D-02 -8.7921239993604D-02
91  9.0000000000000D-01  8.7115512514146D-02 -8.0789867646755D-02
92  9.1000000000000D-01  7.4860279730760D-02 -7.2140903009672D-02
93  9.2000000000000D-01  6.2746470173842D-02 -6.2448776087628D-02
94  9.3000000000000D-01  5.1059225245244D-02 -5.2197884534348D-02
95  9.4000000000000D-01  4.0069190489704D-02 -4.1866939121715D-02
96  9.5000000000000D-01  3.0026920923966D-02 -3.1913716581743D-02
97  9.6000000000000D-01  2.1157648929081D-02 -2.2760597049919D-02
98  9.7000000000000D-01  1.3656519374016D-02 -1.4781242347318D-02
99  9.8000000000000D-01  7.6870435000546D-03 -8.2912510638149D-03
100  9.9000000000000D-01  3.3504730287837D-03 -3.5134775690033D-03
101  1.0000000000000D+00  8.0329210327519D-04 -6.7378898927336D-04
102  1.0100000000000D+00 -4.6529329256786D-05  2.5243056259541D-04
103  1.0200000000000D+00 -2.3030227490492D-05  5.0308570194420D-05
104  1.0300000000000D+00  1.8264014536351D-05 -3.6491369831187D-05
105  1.0400000000000D+00 -4.4379153054018D-06  9.8343346686669D-06
106  1.0500000000000D+00  8.3770853628718D-08 -5.8565778084254D-07
107  1.0600000000000D+00  0.0000000000000D+00  0.0000000000000D+00
108  1.0700000000000D+00  0.0000000000000D+00  0.0000000000000D+00
109  1.0800000000000D+00  0.0000000000000D+00  0.0000000000000D+00
110  1.0900000000000D+00  0.0000000000000D+00  0.0000000000000D+00
111  1.1000000000000D+00  0.0000000000000D+00  0.0000000000000D+00
112  1.1100000000000D+00  0.0000000000000D+00  0.0000000000000D+00
113  1.1200000000000D+00  0.0000000000000D+00  0.0000000000000D+00
114  1.1300000000000D+00  0.0000000000000D+00  0.0000000000000D+00
115  1.1400000000000D+00  0.0000000000000D+00  0.0000000000000D+00
116  1.1500000000000D+00  0.0000000000000D+00  0.0000000000000D+00
117  1.1600000000000D+00  0.0000000000000D+00  0.0000000000000D+00
118  1.1700000000000D+00  0.0000000000000D+00  0.0000000000000D+00
119  1.1800000000000D+00  0.0000000000000D+00  0.0000000000000D+00
120  1.1900000000000D+00  0.0000000000000D+00  0.0000000000000D+00
121  1.2000000000000D+00  0.0000000000000D+00  0.0000000000000D+00
122  1.2100000000000D+00  0.0000000000000D+00  0.0000000000000D+00
123  1.2200000000000D+00  0.0000000000000D+00  0.0000000000000D+00
124  1.2300000000000D+00  0.0000000000000D+00  0.0000000000000D+00
125  1.2400000000000D+00  0.0000000000000D+00  0.0000000000000D+00
126  1.2500000000000D+00  0.0000000000000D+00  0.0000000000000D+00
127  1.2600000000000D+00  0.0000000000000D+00  0.0000000000000D+00
128  1.2700000000000D+00  0.0000000000000D+00  0.0000000000000D+00
129  1.2800000000000D+00  0.0000000000000D+00  0.0000000000000D+00
130  1.2900000000000D+00  0.0000000000000D+00  0.0000000000000D+00
131  1.3000000000000D+00  0.0000000000000D+00  0.0000000000000D+00
132  1.3100000000000D+00  0.0000000000000D+00  0.0000000000000D+00
133  1.3200000000000D+00  0.0000000000000D+00  0.0000000000000D+00
134  1.3300000000000D+00  0.0000000000000D+00  0.0000000000000D+00
135  1.3400000000000D+00  0.0000000000000D+00  0.0000000000000D+00
136  1.3500000000000D+00  0.0000000000000D+00  0.0000000000000D+00
137  1.3600000000000D+00  0.0000000000000D+00  0.0000000000000D+00
138  1.3700000000000D+00  0.0000000000000D+00  0.0000000000000D+00
139  1.3800000000000D+00  0.0000000000000D+00  0.0000000000000D+00
140  1.3900000000000D+00  0.0000000000000D+00  0.0000000000000D+00
141  1.4000000000000D+00  0.0000000000000D+00  0.0000000000000D+00
142  1.4100000000000D+00  0.0000000000000D+00  0.0000000000000D+00
143  1.4200000000000D+00  0.0000000000000D+00  0.0000000000000D+00
144  1.4300000000000D+00  0.0000000000000D+00  0.0000000000000D+00
145  1.4400000000000D+00  0.0000000000000D+00  0.0000000000000D+00
146  1.4500000000000D+00  0.0000000000000D+00  0.0000000000000D+00
147  1.4600000000000D+00  0.0000000000000D+00  0.0000000000000D+00
148  1.4700000000000D+00  0.0000000000000D+00  0.0000000000000D+00
149  1.4800000000000D+00  0.0000000000000D+00  0.0000000000000D+00
150  1.4900000000000D+00  0.0000000000000D+00  0.0000000000000D+00
151  1.5000000000000D+00  0.0000000000000D+00  0.0000000000000D+00
152  1.5100000000000D+00  0.0000000000000D+00  0.0000000000000D+00
153  1.5200000000000D+00  0.0000000000000D+00  0.0000000000000D+00
154  1.5300000000000D+00  0.0000000000000D+00  0.0000000000000D+00
155  1.5400000000000D+00  0.0000000000000D+00  0.0000000000000D+00
156  1.5500000000000D+00  0.0000000000000D+00  0.0000000000000D+00
157  1.5600000000000D+00  0.0000000000000D+00  0.0000000000000D+00
158  1.5700000000000D+00  0.0000000000000D+00  0.0000000000000D+00
159  1.5800000000000D+00  0.0000000000000D+00  0.0000000000000D+00
160  1.5900000000000D+00  0.0000000000000D+00  0.0000000000000D+00
161  1.6000000000000D+00  0.0000000000000D+00  0.0000000000000D+00
162  1.6100000000000D+00  0.0000000000000D+00  0.0000000000000D+00
163  1.6200000000000D+00  0.0000000000000D+00  0.0000000000000D+00
164  1.6300000000000D+00  0.0000000000000D+00  0.0000000000000D+00
165  1.6400000000000D+00  0.0000000000000D+00  0.0000000000000D+00
166  1.6500000000000D+00  0.0000000000000D+00  0.0000000000000D+00
167  1.6600000000000D+00  0.0000000000000D+00  0.0000000000000D+00
168  1.6700000000000D+00  0.0000000000000D+00  0.0000000000000D+00
169  1.6800000000000D+00  0.0000000000000D+00  0.0000000000000D+00
170  1.6900000000000D+00  0.0000000000000D+00  0.0000000000000D+00
171  1.7000000000000D+00  0.0000000000000D+00  0.0000000000000D+00
172  1.7100000000000D+00  0.0000000000000D+00  0.0000000000000D+00
173  1.7200000000000D+00  0.0000000000000D+00  0.0000000000000D+00
174  1.7300000000000D+00  0.0000000000000D+00  0.0000000000000D+00
175  1.7400000000000D+00  0.0000000000000D+00  0.0000000000000D+00
176  1.7500000000000D+00  0.0000000000000D+00  0.0000000000000D+00
177  1.7600000000000D+00  0.0000000000000D+00  0.0000000000000D+00
178  1.7700000000000D+00  0.0000000000000D+00  0.0000000000000D+00
179  1.7800000000000D+00  0.0000000000000D+00  0.0000000000000D+00
180  1.7900000000000D+00  0.0000000000000D+00  0.0000000000000D+00
181  1.8000000000000D+00  0.0000000000000D+00  0.0000000000000D+00
182  1.8100000000000D+00  0.0000000000000D+00  0.0000000000000D+00
183  1.8200000000000D+00  0.0000000000000D+00  0.0000000000000D+00
184  1.8300000000000D+00  0.0000000000000D+00  0.0000000000000D+00
185  1.8400000000000D+00  0.0000000000000D+00  0.0000000000000D+00
186  1.8500000000000D+00  0.0000000000000D+00  0.0000000000000D+00
187  1.8600000000000D+00  0.0000000000000D+00  0.0000000000000D+00
188  1.8700000000000D+00  0.0000000000000D+00  0.0000000000000D+00
189  1.8800000000000D+00  0.0000000000000D+00  0.0000000000000D+00
190  1.8900000000000D+00  0.0000000000000D+00  0.0000000000000D+00
191  1.9000000000000D+00  0.0000000000000D+00  0.0000000000000D+00
192  1.9100000000000D+00  0.0000000000000D+00  0.0000000000000D+00
193  1.9200000000000D+00  0.0000000000000D+00  0.0000000000000D+00
194  1.9300000000000D+00  0.0000000000000D+00  0.0000000000000D+00
195  1.9400000000000D+00  0.0000000000000D+00  0.0000000000000D+00
196  1.9500000000000D+00  0.0000000000000D+00  0.0000000000000D+00
197  1.9600000000000D+00  0.0000000000000D+00  0.0000000000000D+00
198  1.9700000000000D+00  0.0000000000000D+00  0.0000000000000D+00
199  1.9800000000000D+00  0.0000000000000D+00  0.0000000000000D+00
200  1.9900000000000D+00  0.0000000000000D+00  0.0000000000000D+00
201  2.0000000000000D+00  0.0000000000000D+00  0.0000000000000D+00
202  2.0100000000000D+00  0.0000000000000D+00  0.0000000000000D+00
203  2.0200000000000D+00  0.0000000000000D+00  0.0000000000000D+00
204  2.0300000000000D+00  0.0000000000000D+00  0.0000000000000D+00
205  2.0400000000000D+00  0.0000000000000D+00  0.0000000000000D+00
206  2.0500000000000D+00  0.0000000000000D+00  0.0000000000000D+00
207  2.0600000000000D+00  0.0000000000000D+00  0.0000000000000D+00
208  2.0700000000000D+00  0.0000000000000D+00  0.0000000000000D+00
209  2.0800000000000D+00  0.0000000000000D+00  0.0000000000000D+00
210  2.0900000000000D+00  0.0000000000000D+00  0.0000000000000D+00
211  2.1000000000000D+00  0.0000000000000D+00  0.0000000000000D+00
212  2.1100000000000D+00  0.0000000000000D+00  0.0000000000000D+00
213  2.1200000000000D+00  0.0000000000000D+00  0.0000000000000D+00
214  2.1300000000000D+00  0.0000000000000D+00  0.0000000000000D+00
215  2.1400000000000D+00  0.0000000000000D+00  0.0000000000000D+00
216  2.1500000000000D+00  0.0000000000000D+00  0.0000000000000D+00
217  2.1600000000000D+00  0.0000000000000D+00  0.0000000000000D+00
218  2.1700000000000D+00  0.0000000000000D+00  0.0000000000000D+00
219  2.1800000000000D+00  0.0000000000000D+00  0.0000000000000D+00
220  2.1900000000000D+00  0.0000000000000D+00  0.0000000000000D+00
221  2.2000000000000D+00  0.0000000000000D+00  0.0000000000000D+00
222  2.2100000000000D+00  0.0000000000000D+00  0.0000000000000D+00
223  2.2200000000000D+00  0.0000000000000D+00  0.0000000000000D+00
224  2.2300000000000D+00  0.0000000000000D+00  0.0000000000000D+00
225  2.2400000000000D+00  0.0000000000000D+00  0.0000000000000D+00
226  2.2500000000000D+00  0.0000000000000D+00  0.0000000000000D+00
227  2.2600000000000D+00  0.0000000000000D+00  0.0000000000000D+00
228  2.2700000000000D+00  0.0000000000000D+00  0.0000000000000D+00
229  2.2800000000000D+00  0.0000000000000D+00  0.0000000000000D+00
230  2.2900000000000D+00  0.0000000000000D+00  0.0000000000000D+00
231  2.3000000000000D+00  0.0000000000000D+00  0.0000000000000D+00
232  2.3100000000000D+00  0.0000000000000D+00  0.0000000000000D+00
233  2.3200000000000D+00  0.0000000000000D+00  0.0000000000000D+00
234  2.3300000000000D+00  0.0000000000000D+00  0.0000000000000D+00
235  2.3400000000000D+00  0.0000000000000D+00  0.0000000000000D+00
236  2.3500000000000D+00  0.0000000000000D+00  0.0000000000000D+00
237  2.3600000000000D+00  0.0000000000000D+00  0.0000000000000D+00
238  2.3700000000000D+00  0.0000000000000D+00  0.0000000000000D+00
239  2.3800000000000D+00  0.0000000000000D+00  0.0000000000000D+00
240  2.3900000000000D+00  0.0000000000000D+00  0.0000000000000D+00
241  2.4000000000000D+00  0.0000000000000D+00  0.0000000000000D+00
242  2.4100000000000D+00  0.0000000000000D+00  0.0000000000000D+00
243  2.4200000000000D+00  0.0000000000000D+00  0.0000000000000D+00
244  2.4300000000000D+00  0.0000000000000D+00  0.0000000000000D+00
245  2.4400000000000D+00  0.0000000000000D+00  0.0000000000000D+00
246  2.4500000000000D+00  0.0000000000000D+00  0.0000000000000D+00
247  2.4600000000000D+00  0.0000000000000D+00  0.0000000000000D+00
248  2.4700000000000D+00  0.0000000000000D+00  0.0000000000000D+00
249  2.4800000000000D+00  0.0000000000000D+00  0.0000000000000D+00
250  2.4900000000000D+00  0.0000000000000D+00  0.0000000000000D+00
251  2.5000000000000D+00  0.0000000000000D+00  0.0000000000000D+00
252  2.5100000000000D+00  0.0000000000000D+00  0.0000000000000D+00
253  2.5200000000000D+00  0.0000000000000D+00  0.0000000000000D+00
254  2.5300000000000D+00  0.0000000000000D+00  0.0000000000000D+00
255  2.5400000000000D+00  0.0000000000000D+00  0.0000000000000D+00
256  2.5500000000000D+00  0.0000000000000D+00  0.0000000000000D+00
257  2.5600000000000D+00  0.0000000000000D+00  0.0000000000000D+00
258  2.5700000000000D+00  0.0000000000000D+00  0.0000000000000D+00
259  2.5800000000000D+00  0.0000000000000D+00  0.0000000000000D+00
260  2.5900000000000D+00  0.0000000000000D+00  0.0000000000000D+00
261  2.6000000000000D+00  0.0000000000000D+00  0.0000000000000D+00
262  2.6100000000000D+00  0.0000000000000D+00  0.0000000000000D+00
263  2.6200000000000D+00  0.0000000000000D+00  0.0000000000000D+00
264  2.6300000000000D+00  0.0000000000000D+00  0.0000000000000D+00
265  2.6400000000000D+00  0.0000000000000D+00  0.0000000000000D+00
266  2.6500000000000D+00  0.0000000000000D+00  0.0000000000000D+00
267  2.6600000000000D+00  0.0000000000000D+00  0.0000000000000D+00
268  2.6700000000000D+00  0.0000000000000D+00  0.0000000000000D+00
269  2.6800000000000D+00  0.0000000000000D+00  0.0000000000000D+00
270  2.6900000000000D+00  0.0000000000000D+00  0.0000000000000D+00
271  2.7000000000000D+00  0.0000000000000D+00  0.0000000000000D+00
272  2.7100000000000D+00  0.0000000000000D+00  0.0000000000000D+00
273  2.7200000000000D+00  0.0000000000000D+00  0.0000000000000D+00
274  2.7300000000000D+00  0.0000000000000D+00  0.0000000000000D+00
275  2.7400000000000D+00  0.0000000000000D+00  0.0000000000000D+00
276  2.7500000000000D+00  0.0000000000000D+00  0.0000000000000D+00
277  2.7600000000000D+00  0.0000000000000D+00  0.0000000000000D+00
278  2.7700000000000D+00  0.0000000000000D+00  0.0000000000000D+00
279  2.7800000000000D+00  0.0000000000000D+00  0.0000000000000D+00
280  2.7900000000000D+00  0.0000000000000D+00  0.0000000000000D+00
281  2.8000000000000D+00  0.0000000000000D+00  0.0000000000000D+00
282  2.8100000000000D+00  0.0000000000000D+00  0.0000000000000D+00
283  2.8200000000000D+00  0.0000000000000D+00  0.0000000000000D+00
284  2.8300000000000D+00  0.0000000000000D+00  0.0000000000000D+00
285  2.8400000000000D+00  0.0000000000000D+00  0.0000000000000D+00
286  2.8500000000000D+00  0.0000000000000D+00  0.0000000000000D+00
287  2.8600000000000D+00  0.0000000000000D+00  0.0000000000000D+00
288  2.8700000000000D+00  0.0000000000000D+00  0.0000000000000D+00
289  2.8800000000000D+00  0.0000000000000D+00  0.0000000000000D+00
290  2.8900000000000D+00  0.0000000000000D+00  0.0000000000000D+00
291  2.9000000000000D+00  0.0000000000000D+00  0.0000000000000D+00
292  2.9100000000000D+00  0.0000000000000D+00  0.0000000000000D+00
293  2.9200000000000D+00  0.0000000000000D+00  0.0000000000000D+00
294  2.9300000000000D+00  0.0000000000000D+00  0.0000000000000D+00
295  2.9400000000000D+00  0.0000000000000D+00  0.0000000000000D+00
296  2.9500000000000D+00  0.0000000000000D+00  0.0000000000000D+00
297  2.9600000000000D+00  0.0000000000000D+00  0.0000000000000D+00
298  2.9700000000000D+00  0.0000000000000D+00  0.0000000000000D+00
299  2.9800000000000D+00  0.0000000000000D+00  0.0000000000000D+00
300  2.9900000000000D+00  0.0000000000000D+00  0.0000000000000D+00
1
1  0.0000000000000D+00  6.0191207311908D+00
2  1.0000000000000D-02  5.9481988239730D+00
3  2.0000000000000D-02  5.7371679231420D+00
4  3.0000000000000D-02  5.3911938410257D+00
5  4.0000000000000D-02  4.9186741590539D+00
6  5.0000000000000D-02  4.3309421007215D+00
7  6.0000000000000D-02  3.6418735144972D+00
8  7.0000000000000D-02  2.8674216046825D+00
9  8.0000000000000D-02  2.0251040482289D+00
10  9.0000000000000D-02  1.1334675818788D+00
11  1.0000000000000D-01  2.1155368410503D-01
12  1.1000000000000D-01 -7.2161400449569D-01
13  1.2000000000000D-01 -1.6475038807883D+00
14  1.3000000000000D-01 -2.5485000468989D+00
15  1.4000000000000D-01 -3.4082677774563D+00
16  1.5000000000000D-01 -4.2120571909927D+00
17  1.6000000000000D-01 -4.9469449122988D+00
18  1.7000000000000D-01 -5.6020160485228D+00
19  1.8000000000000D-01 -6.1684904532819D+00
20  1.9000000000000D-01 -6.6397980761079D+00
21  2.0000000000000D-01 -7.0116083135319D+00
22  2.1000000000000D-01 -7.2818178599854D+00
23  2.2000000000000D-01 -7.4505007887691D+00
24  2.3000000000000D-01 -7.5198236658518D+00
25  2.4000000000000D-01 -7.4939275922850D+00
26  2.5000000000000D-01 -7.3787783447789D+00
27  2.6000000000000D-01 -7.1819853710426D+00
28  2.7000000000000D-01 -6.9125903945701D+00
29  2.8000000000000D-01 -6.5808268484752D+00
30  2.9000000000000D-01 -6.1978522967756D+00
31  3.0000000000000D-01 -5.7754573668628D+00
32  3.1000000000000D-01 -5.3257564045209D+00
33  3.2000000000000D-01 -4.8608669142971D+00
34  3.3000000000000D-01 -4.3925866602123D+00
35  3.4000000000000D-01 -3.9320788448724D+00
36  3.5000000000000D-01 -3.4895768276919D+00
37  3.6000000000000D-01 -3.0741201826427D+00
38  3.7000000000000D-01 -2.6933333903858D+00
39  3.8000000000000D-01 -2.3532570530919D+00
40  3.9000000000000D-01 -2.0582392595871D+00
41  4.0000000000000D-01 -1.8108917652878D+00
42  4.1000000000000D-01 -1.6121122262625D+00
43  4.2000000000000D-01 -1.4611701401612D+00
44  4.3000000000000D-01 -1.3558507193694D+00
45  4.4000000000000D-01 -1.2926479510150D+00
46  4.5000000000000D-01 -1.2669958215648D+00
47  4.6000000000000D-01 -1.2735252503022D+00
48  4.7000000000000D-01 -1.3063337367688D+00
49  4.8000000000000D-01 -1.3592550385915D+00
50  4.9000000000000D-01 -1.4261172369848D+00
51  5.0000000000000D-01 -1.5009791456514D+00
52  5.1000000000000D-01 -1.5783369811667D+00
53  5.2000000000000D-01 -1.6532953492247D+00
54  5.3000000000000D-01 -1.7216987456287D+00
55  5.4000000000000D-01 -1.7802217992718D+00
56  5.5000000000000D-01 -1.8264183090454D+00
57  5.6000000000000D-01 -1.8587307006440D+00
58  5.7000000000000D-01 -1.8764628453821D+00
59  5.8000000000000D-01 -1.8797202390023D+00
60  5.9000000000000D-01 -1.8693223660343D+00
61  6.0000000000000D-01 -1.8466926858606D+00
62  6.1000000000000D-01 -1.8137320981484D+00
63  6.2000000000000D-01 -1.7726819815801D+00
64  6.3000000000000D-01 -1.7259829581532D+00
65  6.4000000000000D-01 -1.6761354093976D+00
66  6.5000000000000D-01 -1.6255674573348D+00
67  6.6000000000000D-01 -1.5765156138510D+00
68  6.7000000000000D-01 -1.5309226066328D+00
69  6.8000000000000D-01 -1.4903560205458D+00
70  6.9000000000000D-01 -1.4559425980638D+00
71  7.0000000000000D-01 -1.4284471050215D+00
72  7.1000000000000D-01 -1.4071430411333D+00
73  7.2000000000000D-01 -1.3878094039700D+00
74  7.3000000000000D-01 -1.3688787479905D+00
75  7.4000000000000D-01 -1.3504834071326D+00
76  7.5000000000000D-01 -1.3325713839922D+00
77  7.6000000000000D-01 -1.3151255761857D+00
78  7.7000000000000D-01 -1.2981274956031D+00
79  7.8000000000000D-01 -1.2815596633220D+00
80  7.9000000000000D-01 -1.2654055650840D+00
81  8.0000000000000D-01 -1.2496495897657D+00
82  8.1000000000000D-01 -1.2342769714048D+00
83  8.2000000000000D-01 -1.2192737345037D+00
84  8.3000000000000D-01 -1.2046266423683D+00
85  8.4000000000000D-01 -1.1903231482820D+00
86  8.5000000000000D-01 -1.1763513493460D+00
87  8.6000000000000D-01 -1.1626999428440D+00
88  8.7000000000000D-01 -1.1493581850174D+00
89  8.8000000000000D-01 -1.1363158521555D+00
90  8.9000000000000D-01 -1.1235632039225D+00
91  9.0000000000000D-01 -1.1110909488610D+00
92  9.1000000000000D-01 -1.0988902120176D+00
93  9.2000000000000D-01 -1.0869525046494D+00
94  9.3000000000000D-01 -1.0752696959744D+00
95  9.4000000000000D-01 -1.0638339869301D+00
96  9.5000000000000D-01 -1.0526378859110D+00
97  9.6000000000000D-01 -1.0416741864508D+00
98  9.7000000000000D-01 -1.0309359468142D+00
99  9.8000000000000D-01 -1.0204164714462D+00
100  9.9000000000000D-01 -1.0101092943420D+00
101  1.0000000000000D+00 -1.0000081640117D+00
102  1.0100000000000D+00 -9.9010703025405D-01
103  1.0200000000000D+00 -9.8040003766214D-01
104  1.0300000000000D+00 -9.7088153161303D-01
105  1.0400000000000D+00 -9.6154607241957D-01
106  1.0500000000000D+00 -9.5238843133443D-01
107  1.0600000000000D+00 -9.4340357718429D-01
108  1.0700000000000D+00 -9.3458666474387D-01
109  1.0800000000000D+00 -9.2593302908856D-01
110  1.0900000000000D+00 -9.1743817638083D-01
111  1.1000000000000D+00 -9.0909777615553D-01
112  1.1100000000000D+00 -9.0090765401853D-01
113  1.1200000000000D+00 -8.9286378465825D-01
114  1.1300000000000D+00 -8.8496228525225D-01
115  1.1400000000000D+00 -8.7719940921742D-01
116  1.1500000000000D+00 -8.6957154028661D-01
117  1.1600000000000D+00 -8.6207518689153D-01
118  1.1700000000000D+00 -8.5470697683381D-01
119  1.1800000000000D+00 -8.4746365222686D-01
120  1.1900000000000D+00 -8.4034206469291D-01
121  1.2000000000000D+00 -8.3333917080014D-01
122  1.2100000000000D+00 -8.2645202772608D-01
123  1.2200000000000D+00 -8.1967778913424D-01
124  1.2300000000000D+00 -8.1301370125193D-01
125  1.2400000000000D+00 -8.0645709913793D-01
126  1.2500000000000D+00 -8.0000540312908D-01
127  1.2600000000000D+00 -7.9365611545633D-01
128  1.2700000000000D+00 -7.8740681702061D-01
129  1.2800000000000D+00 -7.8125516431966D-01
130  1.2900000000000D+00 -7.7519888651798D-01
131  1.3000000000000D+00 -7.6923578265201D-01
132  1.3100000000000D+00 -7.6336371896316D-01
133  1.3200000000000D+00 -7.5758062635225D-01
134  1.3300000000000D+00 -7.5188449794867D-01
135  1.3400000000000D+00 -7.4627338678840D-01
136  1.3500000000000D+00 -7.4074540359531D-01
137  1.3600000000000D+00 -7.3529871466023D-01
138  1.3700000000000D+00 -7.2993153981294D-01
139  1.3800000000000D+00 -7.2464215048244D-01
140  1.3900000000000D+00 -7.1942886784077D-01
141  1.4000000000000D+00 -7.1429006102653D-01
142  1.4100000000000D+00 -7.0922414544392D-01
143  1.4200000000000D+00 -7.0422958113364D-01
144  1.4300000000000D+00 -6.9930487121227D-01
145  1.4400000000000D+00 -6.9444856037644D-01
146  1.4500000000000D+00 -6.8965923346916D-01
147  1.4600000000000D+00 -6.8493551410487D-01
148  1.4700000000000D+00 -6.8027606335069D-01
149  1.4800000000000D+00 -6.7567957846121D-01
150  1.4900000000000D+00 -6.7114479166398D-01
151  1.5000000000000D+00 -6.6667046899393D-01
152  1.5100000000000D+00 -6.6225540917379D-01
153  1.5200000000000D+00 -6.5789844253888D-01
154  1.5300000000000D+00 -6.5359843000404D-01
155  1.5400000000000D+00 -6.4935426207073D-01
156  1.5500000000000D+00 -6.4516485787269D-01
157  1.5600000000000D+00 -6.4102916425817D-01
158  1.5700000000000D+00 -6.3694615490738D-01
159  1.5800000000000D+00 -6.3291482948328D-01
160  1.5900000000000D+00 -6.2893421281463D-01
161  1.6000000000000D+00 -6.2500335410945D-01
162  1.6100000000000D+00 -6.2112132619797D-01
163  1.6200000000000D+00 -6.1728722480351D-01
164  1.6300000000000D+00 -6.1350016784026D-01
165  1.6400000000000D+00 -6.0975929473672D-01
166  1.6500000000000D+00 -6.0606376578377D-01
167  1.6600000000000D+00 -6.0241276150624D-01
168  1.6700000000000D+00 -5.9880548205715D-01
169  1.6800000000000D+00 -5.9524114663350D-01
170  1.6900000000000D+00 -5.9171899291289D-01
171  1.7000000000000D+00 -5.8823827650990D-01
172  1.7100000000000D+00 -5.8479827045170D-01
173  1.7200000000000D+00 -5.8139826467177D-01
174  1.7300000000000D+00 -5.7803756552141D-01
175  1.7400000000000D+00 -5.7471549529780D-01
176  1.7500000000000D+00 -5.7143139178858D-01
177  1.7600000000000D+00 -5.6818460783161D-01
178  1.7700000000000D+00 -5.6497451088998D-01
179  1.7800000000000D+00 -5.6180048264104D-01
180  1.7900000000000D+00 -5.5866191857949D-01
181  1.8000000000000D+00 -5.5555822763344D-01
182  1.8100000000000D+00 -5.5248883179344D-01
183  1.8200000000000D+00 -5.4945316575352D-01
184  1.8300000000000D+00 -5.4645067656418D-01
185  1.8400000000000D+00 -5.4348082329653D-01
186  1.8500000000000D+00 -5.4054307671751D-01
187  1.8600000000000D+00 -5.3763691897541D-01
188  1.8700000000000D+00 -5.3476184329557D-01
189  1.8800000000000D+00 -5.3191735368582D-01
190  1.8900000000000D+00 -5.2910296465114D-01
191  1.9000000000000D+00 -5.2631820091756D-01
192  1.9100000000000D+00 -5.2356259716440D-01
193  1.9200000000000D+00 -5.2083569776529D-01
194  1.9300000000000D+00 -5.1813705653682D-01
195  1.9400000000000D+00 -5.1546623649530D-01
196  1.9500000000000D+00 -5.1282280962082D-01
197  1.9600000000000D+00 -5.1020635662857D-01
198  1.9700000000000D+00 -5.0761646674718D-01
199  1.9800000000000D+00 -5.0505273750366D-01
200  1.9900000000000D+00 -5.0251477451501D-01
201  2.0000000000000D+00 -5.0000219128584D-01
202  2.0100000000000D+00 -4.9751460901227D-01
203  2.0200000000000D+00 -4.9505165639148D-01
204  2.0300000000000D+00 -4.9261296943697D-01
205  2.0400000000000D+00 -4.9019819129929D-01
206  2.0500000000000D+00 -4.8780697209184D-01
207  2.0600000000000D+00 -4.8543896872203D-01
208  2.0700000000000D+00 -4.8309384472704D-01
209  2.0800000000000D+00 -4.8077127011453D-01
210  2.0900000000000D+00 -4.7847092120780D-01
211  2.1000000000000D+00 -4.7619248049542D-01
212  2.1100000000000D+00 -4.7393563648519D-01