Pt    ONCVPSP  r_core=  1.41  1.46  1.41  1.20
78.0000     32.0000      160106    zatom,zion,pspd
8      11   3     4   500     0    pspcod,pspxc,lmax,lloc,mmax,r2well
4.99000000  0.15000000  0.00000000    rchrg fchrg qchrg
2     2     2     1     0    nproj
1                 extension_switch
0                         1.6029728613156D+01  1.7701346496998D+00
1  0.0000000000000D+00 -5.1733595185510D-10  2.5968766026452D-10
2  1.0000000000000D-02  7.2435525637159D-02 -2.1471060624023D-02
3  2.0000000000000D-02  1.4472960308777D-01 -4.2875265264606D-02
4  3.0000000000000D-02  2.1674112357344D-01 -6.4145541454548D-02
5  4.0000000000000D-02  2.8832965132655D-01 -8.5214372391839D-02
6  5.0000000000000D-02  3.5935574773485D-01 -1.0601355930173D-01
7  6.0000000000000D-02  4.2968128325619D-01 -1.2647397879985D-01
8  7.0000000000000D-02  4.9916973483925D-01 -1.4652534038567D-01
9  8.0000000000000D-02  5.6768646710375D-01 -1.6609594945540D-01
10  9.0000000000000D-02  6.3509899605761D-01 -1.8511248144228D-01
11  1.0000000000000D-01  7.0127723465128D-01 -2.0349977286037D-01
12  1.1000000000000D-01  7.6609371997940D-01 -2.2118063513655D-01
13  1.2000000000000D-01  8.2942382243071D-01 -2.3807569715612D-01
14  1.3000000000000D-01  8.9114593754851D-01 -2.5410328241475D-01
15  1.4000000000000D-01  9.5114166179045D-01 -2.6917932655696D-01
16  1.5000000000000D-01  1.0092959537600D+00 -2.8321734088596D-01
17  1.6000000000000D-01  1.0654972828169D+00 -2.9612842714846D-01
18  1.7000000000000D-01  1.1196377672563D+00 -3.0782134852961D-01
19  1.8000000000000D-01  1.1716133044701D+00 -3.1820266133815D-01
20  1.9000000000000D-01  1.2213236956681D+00 -3.2717691132096D-01
21  2.0000000000000D-01  1.2686727678361D+00 -3.3464689792294D-01
22  2.1000000000000D-01  1.3135684956460D+00 -3.4051400910590D-01
23  2.2000000000000D-01  1.3559231260018D+00 -3.4467862856494D-01
24  2.3000000000000D-01  1.3956533078142D+00 -3.4704061633812D-01
25  2.4000000000000D-01  1.4326802294412D+00 -3.4749986290420D-01
26  2.5000000000000D-01  1.4669297660150D+00 -3.4595691591055D-01
27  2.6000000000000D-01  1.4983326386027D+00 -3.4231367768072D-01
28  2.7000000000000D-01  1.5268245868255D+00 -3.3647417062709D-01
29  2.8000000000000D-01  1.5523465561829D+00 -3.2834536665213D-01
30  2.9000000000000D-01  1.5748449009179D+00 -3.1783807557113D-01
31  3.0000000000000D-01  1.5942716028034D+00 -3.0486788654557D-01
32  3.1000000000000D-01  1.6105845057523D+00 -2.8935615548972D-01
33  3.2000000000000D-01  1.6237475656496D+00 -2.7123103041907D-01
34  3.3000000000000D-01  1.6337311142892D+00 -2.5042850575941D-01
35  3.4000000000000D-01  1.6405121357780D+00 -2.2689349574501D-01
36  3.5000000000000D-01  1.6440745532455D+00 -2.0058091621528D-01
37  3.6000000000000D-01  1.6444095231948D+00 -1.7145676338522D-01
38  3.7000000000000D-01  1.6415157343364D+00 -1.3949917752890D-01
39  3.8000000000000D-01  1.6353997072886D+00 -1.0469947898808D-01
40  3.9000000000000D-01  1.6260760910983D+00 -6.7063163512233D-02
41  4.0000000000000D-01  1.6135679521589D+00 -2.6610843661109D-02
42  4.1000000000000D-01  1.5979070507656D+00  1.6620877133635D-02
43  4.2000000000000D-01  1.5791341002774D+00  6.2578611237804D-02
44  4.3000000000000D-01  1.5572990036460D+00  1.1119148743674D-01
45  4.4000000000000D-01  1.5324610619271D+00  1.6237055840404D-01
46  4.5000000000000D-01  1.5046891493290D+00  2.1600832741961D-01
47  4.6000000000000D-01  1.4740618493577D+00  2.7197840608435D-01
48  4.7000000000000D-01  1.4406675467151D+00  3.3013531395873D-01
49  4.8000000000000D-01  1.4046044697752D+00  3.9031443007113D-01
50  4.9000000000000D-01  1.3659806787229D+00  4.5233210510263D-01
51  5.0000000000000D-01  1.3249139947760D+00  5.1598594176456D-01
52  5.1000000000000D-01  1.2815318663312D+00  5.8105524945309D-01
53  5.2000000000000D-01  1.2359711683701D+00  6.4730167770088D-01
54  5.3000000000000D-01  1.1883779320333D+00  7.1447003126139D-01
55  5.4000000000000D-01  1.1389070019088D+00  7.8228926787632D-01
56  5.5000000000000D-01  1.0877216192825D+00  8.5047367789808D-01
57  5.6000000000000D-01  1.0349929303575D+00  9.1872424299717D-01
58  5.7000000000000D-01  9.8089941925199D-01  9.8673016918873D-01
59  5.8000000000000D-01  9.2562626642954D-01  1.0541705873897D+00
60  5.9000000000000D-01  8.6936463408619D-01  1.1207164126924D+00
61  6.0000000000000D-01  8.1231088090995D-01  1.1860323515272D+00
62  6.1000000000000D-01  7.5466570952333D-01  1.2497790439228D+00
63  6.2000000000000D-01  6.9663325081187D-01  1.3116153261704D+00
64  6.3000000000000D-01  6.3842009021993D-01  1.3712005973872D+00
65  6.4000000000000D-01  5.8023424193910D-01  1.4281972717882D+00
66  6.5000000000000D-01  5.2228407772725D-01  1.4822732969166D+00
67  6.6000000000000D-01  4.6477721785152D-01  1.5331047166964D+00
68  6.7000000000000D-01  4.0791939234210D-01  1.5803782569723D+00
69  6.8000000000000D-01  3.5191328136814D-01  1.6237939101972D+00
70  6.9000000000000D-01  2.9695734408393D-01  1.6630674951599D+00
71  7.0000000000000D-01  2.4324464573998D-01  1.6979331671115D+00
72  7.1000000000000D-01  1.9096169320029D-01  1.7281458533722D+00
73  7.2000000000000D-01  1.4028728924637D-01  1.7534835894852D+00
74  7.3000000000000D-01  9.1391416173924D-02  1.7737497312470D+00
75  7.4000000000000D-01  4.4434159197458D-02  1.7887750184834D+00
76  7.5000000000000D-01 -4.3531993347300D-04  1.7984194672565D+00
77  7.6000000000000D-01 -4.3079748934214D-02  1.8025740682801D+00
78  7.7000000000000D-01 -8.3374640783910D-02  1.8011622706954D+00
79  7.8000000000000D-01 -1.2120910997757D-01  1.7941412319763D+00
80  7.9000000000000D-01 -1.5648660047399D-01  1.7815028166161D+00
81  8.0000000000000D-01 -1.8912551728018D-01  1.7632743283468D+00
82  8.1000000000000D-01 -2.1905975441439D-01  1.7395189629652D+00
83  8.2000000000000D-01 -2.4623911288618D-01  1.7103359713347D+00
84  8.3000000000000D-01 -2.7062960331303D-01  1.6758605248013D+00
85  8.4000000000000D-01 -2.9221362884814D-01  1.6362632780464D+00
86  8.5000000000000D-01 -3.1099004521008D-01  1.5917496272925D+00
87  8.6000000000000D-01 -3.2697409576881D-01  1.5425586647259D+00
88  8.7000000000000D-01 -3.4019722083969D-01  1.4889618329779D+00
89  8.8000000000000D-01 -3.5070674155190D-01  1.4312612864720D+00
90  8.9000000000000D-01 -3.5856541987502D-01  1.3697879693598D+00
91  9.0000000000000D-01 -3.6385089759082D-01  1.3048994225964D+00
92  9.1000000000000D-01 -3.6665501817073D-01  1.2369773354045D+00
93  9.2000000000000D-01 -3.6708303664692D-01  1.1664248589165D+00
94  9.3000000000000D-01 -3.6525272363067D-01  1.0936637021154D+00
95  9.4000000000000D-01 -3.6129337062120D-01  1.0191310322973D+00
96  9.5000000000000D-01 -3.5534470464607D-01  9.4327620411441D-01
97  9.6000000000000D-01 -3.4755572106923D-01  8.6655734279066D-01
98  9.7000000000000D-01 -3.3808344408064D-01  7.8943780832413D-01
99  9.8000000000000D-01 -3.2709162493661D-01  7.1238256835883D-01
100  9.9000000000000D-01 -3.1474938842818D-01  6.3585450792110D-01
101  1.0000000000000D+00 -3.0122983834402D-01  5.6031070436661D-01
102  1.0100000000000D+00 -2.8670863281117D-01  4.8619869563072D-01
103  1.0200000000000D+00 -2.7136254037898D-01  4.1395276925725D-01
104  1.0300000000000D+00 -2.5536798754011D-01  3.4399029868231D-01
105  1.0400000000000D+00 -2.3889960804831D-01  2.7670815183673D-01
106  1.0500000000000D+00 -2.2212880393361D-01  2.1247919543495D-01
107  1.0600000000000D+00 -2.0522232751668D-01  1.5164891626745D-01
108  1.0700000000000D+00 -1.8834089294508D-01  9.4532178316811D-02
109  1.0800000000000D+00 -1.7163782494359D-01  4.1410131951239D-02
110  1.0900000000000D+00 -1.5525775143962D-01 -7.4727116366695D-03
111  1.1000000000000D+00 -1.3933534570989D-01 -5.1911230543862D-02
112  1.1100000000000D+00 -1.2399412251832D-01 -9.1742259999519D-02
113  1.1200000000000D+00 -1.0934529142442D-01 -1.2684697473410D-01
114  1.1300000000000D+00 -9.5486669215079D-02 -1.5715308606112D-01
115  1.1400000000000D+00 -8.2501652050051D-02 -1.8263685756861D-01
116  1.1500000000000D+00 -7.0458246765272D-02 -2.0332494641664D-01
117  1.1600000000000D+00 -5.9408159162674D-02 -2.1929608151581D-01
118  1.1700000000000D+00 -4.9385930674896D-02 -2.3068261226342D-01
119  1.1800000000000D+00 -4.0408126215580D-02 -2.3767191483636D-01
120  1.1900000000000D+00 -3.2472673042822D-02 -2.4050731425438D-01
121  1.2000000000000D+00 -2.5557977253996D-02 -2.3948981542495D-01
122  1.2100000000000D+00 -1.9621843287460D-02 -2.3498067895134D-01
123  1.2200000000000D+00 -1.4606120177992D-02 -2.2738294798662D-01
124  1.2300000000000D+00 -1.0442383267131D-02 -2.1712038337027D-01
125  1.2400000000000D+00 -7.0575647748206D-03 -2.0461759503085D-01
126  1.2500000000000D+00 -4.3745774789144D-03 -1.9029900777658D-01
127  1.2600000000000D+00 -2.3138254427370D-03 -1.7458458773083D-01
128  1.2700000000000D+00 -7.9467854099227D-04 -1.5788569704675D-01
129  1.2800000000000D+00  2.6309976008117D-04 -1.4060115247802D-01
130  1.2900000000000D+00  9.3797860484199D-04 -1.2311347535472D-01
131  1.3000000000000D+00  1.3053309599107D-03 -1.0578528437603D-01
132  1.3100000000000D+00  1.4361696533859D-03 -8.8955887914062D-02
133  1.3200000000000D+00  1.3959608719827D-03 -7.2938106471254D-02
134  1.3300000000000D+00  1.2435262562113D-03 -5.8015352283498D-02
135  1.3400000000000D+00  1.0300445382467D-03 -4.4438991883342D-02
136  1.3500000000000D+00  7.9816346651586D-04 -3.2426018683649D-02
137  1.3600000000000D+00  5.8140663245938D-04 -2.2160972804405D-02
138  1.3700000000000D+00  4.0283070318355D-04 -1.3778768838019D-02
139  1.3800000000000D+00  2.7225020872286D-04 -7.3391024472591D-03
140  1.3900000000000D+00  2.0305494264895D-04 -3.0577471921570D-03
141  1.4000000000000D+00  1.8814813682697D-04 -9.5371222218424D-04
142  1.4100000000000D+00  1.3144983772490D-04 -1.9890767959253D-04
143  1.4200000000000D+00  2.4822706833320D-05 -9.9766258496308D-06
144  1.4300000000000D+00 -1.7384011800875D-05 -6.6704728008273D-07
145  1.4400000000000D+00  5.4491802004226D-08 -3.1237675593348D-08
146  1.4500000000000D+00  3.6334332805784D-06 -1.4517085116722D-06
147  1.4600000000000D+00 -2.5600661297393D-07  6.2494727776978D-07
148  1.4700000000000D+00 -3.3898746154483D-07  8.2751491779668D-07
149  1.4800000000000D+00  0.0000000000000D+00  0.0000000000000D+00
150  1.4900000000000D+00  0.0000000000000D+00  0.0000000000000D+00
151  1.5000000000000D+00  0.0000000000000D+00  0.0000000000000D+00
152  1.5100000000000D+00  0.0000000000000D+00  0.0000000000000D+00
153  1.5200000000000D+00  0.0000000000000D+00  0.0000000000000D+00
154  1.5300000000000D+00  0.0000000000000D+00  0.0000000000000D+00
155  1.5400000000000D+00  0.0000000000000D+00  0.0000000000000D+00
156  1.5500000000000D+00  0.0000000000000D+00  0.0000000000000D+00
157  1.5600000000000D+00  0.0000000000000D+00  0.0000000000000D+00
158  1.5700000000000D+00  0.0000000000000D+00  0.0000000000000D+00
159  1.5800000000000D+00  0.0000000000000D+00  0.0000000000000D+00
160  1.5900000000000D+00  0.0000000000000D+00  0.0000000000000D+00
161  1.6000000000000D+00  0.0000000000000D+00  0.0000000000000D+00
162  1.6100000000000D+00  0.0000000000000D+00  0.0000000000000D+00
163  1.6200000000000D+00  0.0000000000000D+00  0.0000000000000D+00
164  1.6300000000000D+00  0.0000000000000D+00  0.0000000000000D+00
165  1.6400000000000D+00  0.0000000000000D+00  0.0000000000000D+00
166  1.6500000000000D+00  0.0000000000000D+00  0.0000000000000D+00
167  1.6600000000000D+00  0.0000000000000D+00  0.0000000000000D+00
168  1.6700000000000D+00  0.0000000000000D+00  0.0000000000000D+00
169  1.6800000000000D+00  0.0000000000000D+00  0.0000000000000D+00
170  1.6900000000000D+00  0.0000000000000D+00  0.0000000000000D+00
171  1.7000000000000D+00  0.0000000000000D+00  0.0000000000000D+00
172  1.7100000000000D+00  0.0000000000000D+00  0.0000000000000D+00
173  1.7200000000000D+00  0.0000000000000D+00  0.0000000000000D+00
174  1.7300000000000D+00  0.0000000000000D+00  0.0000000000000D+00
175  1.7400000000000D+00  0.0000000000000D+00  0.0000000000000D+00
176  1.7500000000000D+00  0.0000000000000D+00  0.0000000000000D+00
177  1.7600000000000D+00  0.0000000000000D+00  0.0000000000000D+00
178  1.7700000000000D+00  0.0000000000000D+00  0.0000000000000D+00
179  1.7800000000000D+00  0.0000000000000D+00  0.0000000000000D+00
180  1.7900000000000D+00  0.0000000000000D+00  0.0000000000000D+00
181  1.8000000000000D+00  0.0000000000000D+00  0.0000000000000D+00
182  1.8100000000000D+00  0.0000000000000D+00  0.0000000000000D+00
183  1.8200000000000D+00  0.0000000000000D+00  0.0000000000000D+00
184  1.8300000000000D+00  0.0000000000000D+00  0.0000000000000D+00
185  1.8400000000000D+00  0.0000000000000D+00  0.0000000000000D+00
186  1.8500000000000D+00  0.0000000000000D+00  0.0000000000000D+00
187  1.8600000000000D+00  0.0000000000000D+00  0.0000000000000D+00
188  1.8700000000000D+00  0.0000000000000D+00  0.0000000000000D+00
189  1.8800000000000D+00  0.0000000000000D+00  0.0000000000000D+00
190  1.8900000000000D+00  0.0000000000000D+00  0.0000000000000D+00
191  1.9000000000000D+00  0.0000000000000D+00  0.0000000000000D+00
192  1.9100000000000D+00  0.0000000000000D+00  0.0000000000000D+00
193  1.9200000000000D+00  0.0000000000000D+00  0.0000000000000D+00
194  1.9300000000000D+00  0.0000000000000D+00  0.0000000000000D+00
195  1.9400000000000D+00  0.0000000000000D+00  0.0000000000000D+00
196  1.9500000000000D+00  0.0000000000000D+00  0.0000000000000D+00
197  1.9600000000000D+00  0.0000000000000D+00  0.0000000000000D+00
198  1.9700000000000D+00  0.0000000000000D+00  0.0000000000000D+00
199  1.9800000000000D+00  0.0000000000000D+00  0.0000000000000D+00
200  1.9900000000000D+00  0.0000000000000D+00  0.0000000000000D+00
201  2.0000000000000D+00  0.0000000000000D+00  0.0000000000000D+00
202  2.0100000000000D+00  0.0000000000000D+00  0.0000000000000D+00
203  2.0200000000000D+00  0.0000000000000D+00  0.0000000000000D+00
204  2.0300000000000D+00  0.0000000000000D+00  0.0000000000000D+00
205  2.0400000000000D+00  0.0000000000000D+00  0.0000000000000D+00
206  2.0500000000000D+00  0.0000000000000D+00  0.0000000000000D+00
207  2.0600000000000D+00  0.0000000000000D+00  0.0000000000000D+00
208  2.0700000000000D+00  0.0000000000000D+00  0.0000000000000D+00
209  2.0800000000000D+00  0.0000000000000D+00  0.0000000000000D+00
210  2.0900000000000D+00  0.0000000000000D+00  0.0000000000000D+00
211  2.1000000000000D+00  0.0000000000000D+00  0.0000000000000D+00
212  2.1100000000000D+00  0.0000000000000D+00  0.0000000000000D+00
213  2.1200000000000D+00  0.0000000000000D+00  0.0000000000000D+00
214  2.1300000000000D+00  0.0000000000000D+00  0.0000000000000D+00
215  2.1400000000000D+00  0.0000000000000D+00  0.0000000000000D+00
216  2.1500000000000D+00  0.0000000000000D+00  0.0000000000000D+00
217  2.1600000000000D+00  0.0000000000000D+00  0.0000000000000D+00
218  2.1700000000000D+00  0.0000000000000D+00  0.0000000000000D+00
219  2.1800000000000D+00  0.0000000000000D+00  0.0000000000000D+00
220  2.1900000000000D+00  0.0000000000000D+00  0.0000000000000D+00
221  2.2000000000000D+00  0.0000000000000D+00  0.0000000000000D+00
222  2.2100000000000D+00  0.0000000000000D+00  0.0000000000000D+00
223  2.2200000000000D+00  0.0000000000000D+00  0.0000000000000D+00
224  2.2300000000000D+00  0.0000000000000D+00  0.0000000000000D+00
225  2.2400000000000D+00  0.0000000000000D+00  0.0000000000000D+00
226  2.2500000000000D+00  0.0000000000000D+00  0.0000000000000D+00
227  2.2600000000000D+00  0.0000000000000D+00  0.0000000000000D+00
228  2.2700000000000D+00  0.0000000000000D+00  0.0000000000000D+00
229  2.2800000000000D+00  0.0000000000000D+00  0.0000000000000D+00
230  2.2900000000000D+00  0.0000000000000D+00  0.0000000000000D+00
231  2.3000000000000D+00  0.0000000000000D+00  0.0000000000000D+00
232  2.3100000000000D+00  0.0000000000000D+00  0.0000000000000D+00
233  2.3200000000000D+00  0.0000000000000D+00  0.0000000000000D+00
234  2.3300000000000D+00  0.0000000000000D+00  0.0000000000000D+00
235  2.3400000000000D+00  0.0000000000000D+00  0.0000000000000D+00
236  2.3500000000000D+00  0.0000000000000D+00  0.0000000000000D+00
237  2.3600000000000D+00  0.0000000000000D+00  0.0000000000000D+00
238  2.3700000000000D+00  0.0000000000000D+00  0.0000000000000D+00
239  2.3800000000000D+00  0.0000000000000D+00  0.0000000000000D+00
240  2.3900000000000D+00  0.0000000000000D+00  0.0000000000000D+00
241  2.4000000000000D+00  0.0000000000000D+00  0.0000000000000D+00
242  2.4100000000000D+00  0.0000000000000D+00  0.0000000000000D+00
243  2.4200000000000D+00  0.0000000000000D+00  0.0000000000000D+00
244  2.4300000000000D+00  0.0000000000000D+00  0.0000000000000D+00
245  2.4400000000000D+00  0.0000000000000D+00  0.0000000000000D+00
246  2.4500000000000D+00  0.0000000000000D+00  0.0000000000000D+00
247  2.4600000000000D+00  0.0000000000000D+00  0.0000000000000D+00
248  2.4700000000000D+00  0.0000000000000D+00  0.0000000000000D+00
249  2.4800000000000D+00  0.0000000000000D+00  0.0000000000000D+00
250  2.4900000000000D+00  0.0000000000000D+00  0.0000000000000D+00
251  2.5000000000000D+00  0.0000000000000D+00  0.0000000000000D+00
252  2.5100000000000D+00  0.0000000000000D+00  0.0000000000000D+00
253  2.5200000000000D+00  0.0000000000000D+00  0.0000000000000D+00
254  2.5300000000000D+00  0.0000000000000D+00  0.0000000000000D+00
255  2.5400000000000D+00  0.0000000000000D+00  0.0000000000000D+00
256  2.5500000000000D+00  0.0000000000000D+00  0.0000000000000D+00
257  2.5600000000000D+00  0.0000000000000D+00  0.0000000000000D+00
258  2.5700000000000D+00  0.0000000000000D+00  0.0000000000000D+00
259  2.5800000000000D+00  0.0000000000000D+00  0.0000000000000D+00
260  2.5900000000000D+00  0.0000000000000D+00  0.0000000000000D+00
261  2.6000000000000D+00  0.0000000000000D+00  0.0000000000000D+00
262  2.6100000000000D+00  0.0000000000000D+00  0.0000000000000D+00
263  2.6200000000000D+00  0.0000000000000D+00  0.0000000000000D+00
264  2.6300000000000D+00  0.0000000000000D+00  0.0000000000000D+00
265  2.6400000000000D+00  0.0000000000000D+00  0.0000000000000D+00
266  2.6500000000000D+00  0.0000000000000D+00  0.0000000000000D+00
267  2.6600000000000D+00  0.0000000000000D+00  0.0000000000000D+00
268  2.6700000000000D+00  0.0000000000000D+00  0.0000000000000D+00
269  2.6800000000000D+00  0.0000000000000D+00  0.0000000000000D+00
270  2.6900000000000D+00  0.0000000000000D+00  0.0000000000000D+00
271  2.7000000000000D+00  0.0000000000000D+00  0.0000000000000D+00
272  2.7100000000000D+00  0.0000000000000D+00  0.0000000000000D+00
273  2.7200000000000D+00  0.0000000000000D+00  0.0000000000000D+00
274  2.7300000000000D+00  0.0000000000000D+00  0.0000000000000D+00
275  2.7400000000000D+00  0.0000000000000D+00  0.0000000000000D+00
276  2.7500000000000D+00  0.0000000000000D+00  0.0000000000000D+00
277  2.7600000000000D+00  0.0000000000000D+00  0.0000000000000D+00
278  2.7700000000000D+00  0.0000000000000D+00  0.0000000000000D+00
279  2.7800000000000D+00  0.0000000000000D+00  0.0000000000000D+00
280  2.7900000000000D+00  0.0000000000000D+00  0.0000000000000D+00
281  2.8000000000000D+00  0.0000000000000D+00  0.0000000000000D+00
282  2.8100000000000D+00  0.0000000000000D+00  0.0000000000000D+00
283  2.8200000000000D+00  0.0000000000000D+00  0.0000000000000D+00
284  2.8300000000000D+00  0.0000000000000D+00  0.0000000000000D+00
285  2.8400000000000D+00  0.0000000000000D+00  0.0000000000000D+00
286  2.8500000000000D+00  0.0000000000000D+00  0.0000000000000D+00
287  2.8600000000000D+00  0.0000000000000D+00  0.0000000000000D+00
288  2.8700000000000D+00  0.0000000000000D+00  0.0000000000000D+00
289  2.8800000000000D+00  0.0000000000000D+00  0.0000000000000D+00
290  2.8900000000000D+00  0.0000000000000D+00  0.0000000000000D+00
291  2.9000000000000D+00  0.0000000000000D+00  0.0000000000000D+00
292  2.9100000000000D+00  0.0000000000000D+00  0.0000000000000D+00
293  2.9200000000000D+00  0.0000000000000D+00  0.0000000000000D+00
294  2.9300000000000D+00  0.0000000000000D+00  0.0000000000000D+00
295  2.9400000000000D+00  0.0000000000000D+00  0.0000000000000D+00
296  2.9500000000000D+00  0.0000000000000D+00  0.0000000000000D+00
297  2.9600000000000D+00  0.0000000000000D+00  0.0000000000000D+00
298  2.9700000000000D+00  0.0000000000000D+00  0.0000000000000D+00
299  2.9800000000000D+00  0.0000000000000D+00  0.0000000000000D+00
300  2.9900000000000D+00  0.0000000000000D+00  0.0000000000000D+00
301  3.0000000000000D+00  0.0000000000000D+00  0.0000000000000D+00
302  3.0100000000000D+00  0.0000000000000D+00  0.0000000000000D+00
303  3.0200000000000D+00  0.0000000000000D+00  0.0000000000000D+00
304  3.0300000000000D+00  0.0000000000000D+00  0.0000000000000D+00
305  3.0400000000000D+00  0.0000000000000D+00  0.0000000000000D+00
306  3.0500000000000D+00  0.0000000000000D+00  0.0000000000000D+00
307  3.0600000000000D+00  0.0000000000000D+00  0.0000000000000D+00
308  3.0700000000000D+00  0.0000000000000D+00  0.0000000000000D+00
309  3.0800000000000D+00  0.0000000000000D+00  0.0000000000000D+00
310  3.0900000000000D+00  0.0000000000000D+00  0.0000000000000D+00
311  3.1000000000000D+00  0.0000000000000D+00  0.0000000000000D+00
312  3.1100000000000D+00  0.0000000000000D+00  0.0000000000000D+00
313  3.1200000000000D+00  0.0000000000000D+00  0.0000000000000D+00
314  3.1300000000000D+00  0.0000000000000D+00  0.0000000000000D+00
315  3.1400000000000D+00  0.0000000000000D+00  0.0000000000000D+00
316  3.1500000000000D+00  0.0000000000000D+00  0.0000000000000D+00
317  3.1600000000000D+00  0.0000000000000D+00  0.0000000000000D+00
318  3.1700000000000D+00  0.0000000000000D+00  0.0000000000000D+00
319  3.1800000000000D+00  0.0000000000000D+00  0.0000000000000D+00
320  3.1900000000000D+00  0.0000000000000D+00  0.0000000000000D+00
321  3.2000000000000D+00  0.0000000000000D+00  0.0000000000000D+00
322  3.2100000000000D+00  0.0000000000000D+00  0.0000000000000D+00
323  3.2200000000000D+00  0.0000000000000D+00  0.0000000000000D+00
324  3.2300000000000D+00  0.0000000000000D+00  0.0000000000000D+00
325  3.2400000000000D+00  0.0000000000000D+00  0.0000000000000D+00
326  3.2500000000000D+00  0.0000000000000D+00  0.0000000000000D+00
327  3.2600000000000D+00  0.0000000000000D+00  0.0000000000000D+00
328  3.2700000000000D+00  0.0000000000000D+00  0.0000000000000D+00
329  3.2800000000000D+00  0.0000000000000D+00  0.0000000000000D+00
330  3.2900000000000D+00  0.0000000000000D+00  0.0000000000000D+00
331  3.3000000000000D+00  0.0000000000000D+00  0.0000000000000D+00
332  3.3100000000000D+00  0.0000000000000D+00  0.0000000000000D+00
333  3.3200000000000D+00  0.0000000000000D+00  0.0000000000000D+00
334  3.3300000000000D+00  0.0000000000000D+00  0.0000000000000D+00
335  3.3400000000000D+00  0.0000000000000D+00  0.0000000000000D+00
336  3.3500000000000D+00  0.0000000000000D+00  0.0000000000000D+00
337  3.3600000000000D+00  0.0000000000000D+00  0.0000000000000D+00
338  3.3700000000000D+00  0.0000000000000D+00  0.0000000000000D+00
339  3.3800000000000D+00  0.0000000000000D+00  0.0000000000000D+00
340  3.3900000000000D+00  0.0000000000000D+00  0.0000000000000D+00
341  3.4000000000000D+00  0.0000000000000D+00  0.0000000000000D+00
342  3.4100000000000D+00  0.0000000000000D+00  0.0000000000000D+00
343  3.4200000000000D+00  0.0000000000000D+00  0.0000000000000D+00
344  3.4300000000000D+00  0.0000000000000D+00  0.0000000000000D+00
345  3.4400000000000D+00  0.0000000000000D+00  0.0000000000000D+00
346  3.4500000000000D+00  0.0000000000000D+00  0.0000000000000D+00
347  3.4600000000000D+00  0.0000000000000D+00  0.0000000000000D+00
348  3.4700000000000D+00  0.0000000000000D+00  0.0000000000000D+00
349  3.4800000000000D+00  0.0000000000000D+00  0.0000000000000D+00
350  3.4900000000000D+00  0.0000000000000D+00  0.0000000000000D+00
351  3.5000000000000D+00  0.0000000000000D+00  0.0000000000000D+00
352  3.5100000000000D+00  0.0000000000000D+00  0.0000000000000D+00
353  3.5200000000000D+00  0.0000000000000D+00  0.0000000000000D+00
354  3.5300000000000D+00  0.0000000000000D+00  0.0000000000000D+00
355  3.5400000000000D+00  0.0000000000000D+00  0.0000000000000D+00
356  3.5500000000000D+00  0.0000000000000D+00  0.0000000000000D+00
357  3.5600000000000D+00  0.0000000000000D+00  0.0000000000000D+00
358  3.5700000000000D+00  0.0000000000000D+00  0.0000000000000D+00
359  3.5800000000000D+00  0.0000000000000D+00  0.0000000000000D+00
360  3.5900000000000D+00  0.0000000000000D+00  0.0000000000000D+00
361  3.6000000000000D+00  0.0000000000000D+00  0.0000000000000D+00
362  3.6100000000000D+00  0.0000000000000D+00  0.0000000000000D+00
363  3.6200000000000D+00  0.0000000000000D+00  0.0000000000000D+00
364  3.6300000000000D+00  0.0000000000000D+00  0.0000000000000D+00
365  3.6400000000000D+00  0.0000000000000D+00  0.0000000000000D+00
366  3.6500000000000D+00  0.0000000000000D+00  0.0000000000000D+00
367  3.6600000000000D+00  0.0000000000000D+00  0.0000000000000D+00
368  3.6700000000000D+00  0.0000000000000D+00  0.0000000000000D+00
369  3.6800000000000D+00  0.0000000000000D+00  0.0000000000000D+00
370  3.6900000000000D+00  0.0000000000000D+00  0.0000000000000D+00
371  3.7000000000000D+00  0.0000000000000D+00  0.0000000000000D+00
372  3.7100000000000D+00  0.0000000000000D+00  0.0000000000000D+00
373  3.7200000000000D+00  0.0000000000000D+00  0.0000000000000D+00
374  3.7300000000000D+00  0.0000000000000D+00  0.0000000000000D+00
375  3.7400000000000D+00  0.0000000000000D+00  0.0000000000000D+00
376  3.7500000000000D+00  0.0000000000000D+00  0.0000000000000D+00
377  3.7600000000000D+00  0.0000000000000D+00  0.0000000000000D+00
378  3.7700000000000D+00  0.0000000000000D+00  0.0000000000000D+00
379  3.7800000000000D+00  0.0000000000000D+00  0.0000000000000D+00
380  3.7900000000000D+00  0.0000000000000D+00  0.0000000000000D+00
381  3.8000000000000D+00  0.0000000000000D+00  0.0000000000000D+00
382  3.8100000000000D+00  0.0000000000000D+00  0.0000000000000D+00
383  3.8200000000000D+00  0.0000000000000D+00  0.0000000000000D+00
384  3.8300000000000D+00  0.0000000000000D+00  0.0000000000000D+00
385  3.8400000000000D+00  0.0000000000000D+00  0.0000000000000D+00
386  3.8500000000000D+00  0.0000000000000D+00  0.0000000000000D+00
387  3.8600000000000D+00  0.0000000000000D+00  0.0000000000000D+00
388  3.8700000000000D+00  0.0000000000000D+00  0.0000000000000D+00
389  3.8800000000000D+00  0.0000000000000D+00  0.0000000000000D+00
390  3.8900000000000D+00  0.0000000000000D+00  0.0000000000000D+00
391  3.9000000000000D+00  0.0000000000000D+00  0.0000000000000D+00
392  3.9100000000000D+00  0.0000000000000D+00  0.0000000000000D+00
393  3.9200000000000D+00  0.0000000000000D+00  0.0000000000000D+00
394  3.9300000000000D+00  0.0000000000000D+00  0.0000000000000D+00
395  3.9400000000000D+00  0.0000000000000D+00  0.0000000000000D+00
396  3.9500000000000D+00  0.0000000000000D+00  0.0000000000000D+00
397  3.9600000000000D+00  0.0000000000000D+00  0.0000000000000D+00
398  3.9700000000000D+00  0.0000000000000D+00  0.0000000000000D+00
399  3.9800000000000D+00  0.0000000000000D+00  0.0000000000000D+00
400  3.9900000000000D+00  0.0000000000000D+00  0.0000000000000D+00
401  4.0000000000000D+00  0.0000000000000D+00  0.0000000000000D+00
402  4.0100000000000D+00  0.0000000000000D+00  0.0000000000000D+00
403  4.0200000000000D+00  0.0000000000000D+00  0.0000000000000D+00
404  4.0300000000000D+00  0.0000000000000D+00  0.0000000000000D+00
405  4.0400000000000D+00  0.0000000000000D+00  0.0000000000000D+00
406  4.0500000000000D+00  0.0000000000000D+00  0.0000000000000D+00
407  4.0600000000000D+00  0.0000000000000D+00  0.0000000000000D+00
408  4.0700000000000D+00  0.0000000000000D+00  0.0000000000000D+00
409  4.0800000000000D+00  0.0000000000000D+00  0.0000000000000D+00
410  4.0900000000000D+00  0.0000000000000D+00  0.0000000000000D+00
411  4.1000000000000D+00  0.0000000000000D+00  0.0000000000000D+00
412  4.1100000000000D+00  0.0000000000000D+00  0.0000000000000D+00
413  4.1200000000000D+00  0.0000000000000D+00  0.0000000000000D+00
414  4.1300000000000D+00  0.0000000000000D+00  0.0000000000000D+00
415  4.1400000000000D+00  0.0000000000000D+00  0.0000000000000D+00
416  4.1500000000000D+00  0.0000000000000D+00  0.0000000000000D+00
417  4.1600000000000D+00  0.0000000000000D+00  0.0000000000000D+00
418  4.1700000000000D+00  0.0000000000000D+00  0.0000000000000D+00
419  4.1800000000000D+00  0.0000000000000D+00  0.0000000000000D+00
420  4.1900000000000D+00  0.0000000000000D+00  0.0000000000000D+00
421  4.2000000000000D+00  0.0000000000000D+00  0.0000000000000D+00
422  4.2100000000000D+00  0.0000000000000D+00  0.0000000000000D+00
423  4.2200000000000D+00  0.0000000000000D+00  0.0000000000000D+00
424  4.2300000000000D+00  0.0000000000000D+00  0.0000000000000D+00
425  4.2400000000000D+00  0.0000000000000D+00  0.0000000000000D+00
426  4.2500000000000D+00  0.0000000000000D+00  0.0000000000000D+00
427  4.2600000000000D+00  0.0000000000000D+00  0.0000000000000D+00
428  4.2700000000000D+00  0.0000000000000D+00  0.0000000000000D+00
429  4.2800000000000D+00  0.0000000000000D+00  0.0000000000000D+00
430  4.2900000000000D+00  0.0000000000000D+00  0.0000000000000D+00
431  4.3000000000000D+00  0.0000000000000D+00  0.0000000000000D+00
432  4.3100000000000D+00  0.0000000000000D+00  0.0000000000000D+00
433  4.3200000000000D+00  0.0000000000000D+00  0.0000000000000D+00
434  4.3300000000000D+00  0.0000000000000D+00  0.0000000000000D+00
435  4.3400000000000D+00  0.0000000000000D+00  0.0000000000000D+00
436  4.3500000000000D+00  0.0000000000000D+00  0.0000000000000D+00
437  4.3600000000000D+00  0.0000000000000D+00  0.0000000000000D+00
438  4.3700000000000D+00  0.0000000000000D+00  0.0000000000000D+00
439  4.3800000000000D+00  0.0000000000000D+00  0.0000000000000D+00
440  4.3900000000000D+00  0.0000000000000D+00  0.0000000000000D+00
441  4.4000000000000D+00  0.0000000000000D+00  0.0000000000000D+00
442  4.4100000000000D+00  0.0000000000000D+00  0.0000000000000D+00
443  4.4200000000000D+00  0.0000000000000D+00  0.0000000000000D+00