Au    ONCVPSP  r_core=  2.61  1.92  1.92
79.0000     17.0000      141225    zatom,zion,pspd
8    11     2     4   501     0    pspcod,pspxc,lmax,lloc,mmax,r2well
5.00000000  0.20000000  0.00000000    rchrg fchrg qchrg
2     2     2     0     0    nproj
0                 extension_switch
0                         5.1724508184543D+00  7.0566347907918D-01
1  0.0000000000000D+00 -0.0000000000000D+00  0.0000000000000D+00
2  1.0000000000000D-02 -1.3692343321311D-02  3.5788038646156D-03
3  2.0000000000000D-02 -2.7384791783359D-02  7.1370622502002D-03
4  3.0000000000000D-02 -4.1077468540779D-02  1.0654226820344D-02
5  4.0000000000000D-02 -5.4770532078756D-02  1.4109746575269D-02
6  5.0000000000000D-02 -6.8464192524520D-02  1.7483071850647D-02
7  6.0000000000000D-02 -8.2158726748334D-02  2.0753662321875D-02
8  7.0000000000000D-02 -9.5854492067405D-02  2.3900999170848D-02
9  8.0000000000000D-02 -1.0955193838405D-01  2.6904601537377D-02
10  9.0000000000000D-02 -1.2325161860782D-01  2.9744047342124D-02
11  1.0000000000000D-01 -1.3695419723030D-01  3.2398998533160D-02
12  1.1000000000000D-01 -1.5066045694012D-01  3.4849230772206D-02
13  1.2000000000000D-01 -1.6437130318523D-01  3.7074667542723D-02
14  1.3000000000000D-01 -1.7808776660886D-01  3.9055418625110D-02
15  1.4000000000000D-01 -1.9181100330507D-01  4.0771822857401D-02
16  1.5000000000000D-01 -2.0554229285824D-01  4.2204495050475D-02
17  1.6000000000000D-01 -2.1928303415077D-01  4.3334376923073D-02
18  1.7000000000000D-01 -2.3303473894202D-01  4.4142791842168D-02
19  1.8000000000000D-01 -2.4679902323856D-01  4.4611503188313D-02
20  1.9000000000000D-01 -2.6057759649024D-01  4.4722776104755D-02
21  2.0000000000000D-01 -2.7437224867747D-01  4.4459442289306D-02
22  2.1000000000000D-01 -2.8818483534667D-01  4.3804967646204D-02
23  2.2000000000000D-01 -3.0201726069743D-01  4.2743522355026D-02
24  2.3000000000000D-01 -3.1587145880045D-01  4.1260053144565D-02
25  2.4000000000000D-01 -3.2974937308854D-01  3.9340357260355D-02
26  2.5000000000000D-01 -3.4365293424409D-01  3.6971157793717D-02
27  2.6000000000000D-01 -3.5758403655603D-01  3.4140180206663D-02
28  2.7000000000000D-01 -3.7154451302239D-01  3.0836229144664D-02
29  2.8000000000000D-01 -3.8553610927548D-01  2.7049265455422D-02
30  2.9000000000000D-01 -3.9956045647334D-01  2.2770483032470D-02
31  3.0000000000000D-01 -4.1361904338336D-01  1.7992384843618D-02
32  3.1000000000000D-01 -4.2771318781712D-01  1.2708857769486D-02
33  3.2000000000000D-01 -4.4184400762585D-01  6.9152457203536D-03
34  3.3000000000000D-01 -4.5601239168265D-01  6.0841994115983D-04
35  3.4000000000000D-01 -4.7021896977983D-01 -6.2131504767331D-03
36  3.5000000000000D-01 -4.8446408453472D-01 -1.3549336357058D-02
37  3.6000000000000D-01 -4.9874776112084D-01 -2.1398282965911D-02
38  3.7000000000000D-01 -5.1306968011261D-01 -2.9756355403393D-02
39  3.8000000000000D-01 -5.2742914889235D-01 -3.8618082843149D-02
40  3.9000000000000D-01 -5.4182507482556D-01 -4.7976109960715D-02
41  4.0000000000000D-01 -5.5625593977804D-01 -5.7821154175444D-02
42  4.1000000000000D-01 -5.7071977530393D-01 -6.8141967171552D-02
43  4.2000000000000D-01 -5.8521413939667D-01 -7.8925302821414D-02
44  4.3000000000000D-01 -5.9973609479562D-01 -9.0155891449704D-02
45  4.4000000000000D-01 -6.1428218899137D-01 -1.0181642075094D-01
46  4.5000000000000D-01 -6.2884843606846D-01 -1.1388752366408D-01
47  4.6000000000000D-01 -6.4343030052244D-01 -1.2634777349927D-01
48  4.7000000000000D-01 -6.5802268318623D-01 -1.3917368659320D-01
49  4.8000000000000D-01 -6.7261990948580D-01 -1.5233973282861D-01
50  4.9000000000000D-01 -6.8721572041146D-01 -1.6581835423003D-01
51  5.0000000000000D-01 -7.0180326315560D-01 -1.7957998912839D-01
52  5.1000000000000D-01 -7.1637508863678D-01 -1.9359310950775D-01
53  5.2000000000000D-01 -7.3092314985288D-01 -2.0782426282046D-01
54  5.3000000000000D-01 -7.4543879890466D-01 -2.2223812238386D-01
55  5.4000000000000D-01 -7.5991279345154D-01 -2.3679754844595D-01
56  5.5000000000000D-01 -7.7433530111167D-01 -2.5146365420839D-01
57  5.6000000000000D-01 -7.8869590671371D-01 -2.6619588612480D-01
58  5.7000000000000D-01 -8.0298362550902D-01 -2.8095210116661D-01
59  5.8000000000000D-01 -8.1718691423596D-01 -2.9568867095466D-01
60  5.9000000000000D-01 -8.3129368929474D-01 -3.1036056855968D-01
61  6.0000000000000D-01 -8.4529134436896D-01 -3.2492149029732D-01
62  6.1000000000000D-01 -8.5916677216973D-01 -3.3932396638728D-01
63  6.2000000000000D-01 -8.7290638724265D-01 -3.5351947193283D-01
64  6.3000000000000D-01 -8.8649615414951D-01 -3.6745859106226D-01
65  6.4000000000000D-01 -8.9992161320952D-01 -3.8109111601772D-01
66  6.5000000000000D-01 -9.1316791130077D-01 -3.9436620209353D-01
67  6.6000000000000D-01 -9.2621983835192D-01 -4.0723254518686D-01
68  6.7000000000000D-01 -9.3906185746009D-01 -4.1963849993477D-01
69  6.8000000000000D-01 -9.5167813969571D-01 -4.3153223416694D-01
70  6.9000000000000D-01 -9.6405260941732D-01 -4.4286193751955D-01
71  7.0000000000000D-01 -9.7616898013098D-01 -4.5357596319805D-01
72  7.1000000000000D-01 -9.8801079424163D-01 -4.6362299220297D-01
73  7.2000000000000D-01 -9.9956146650589D-01 -4.7295221399271D-01
74  7.3000000000000D-01 -1.0108043236406D+00 -4.8151348344214D-01
75  7.4000000000000D-01 -1.0217226598907D+00 -4.8925755412677D-01
76  7.5000000000000D-01 -1.0322997746106D+00 -4.9613621664401D-01
77  7.6000000000000D-01 -1.0425190181598D+00 -5.0210247783198D-01
78  7.7000000000000D-01 -1.0523638396292D+00 -5.0711074555639D-01
79  7.8000000000000D-01 -1.0618178337766D+00 -5.1111700671728D-01
80  7.9000000000000D-01 -1.0708647881278D+00 -5.1407900343726D-01
81  8.0000000000000D-01 -1.0794887300735D+00 -5.1595640672674D-01
82  8.1000000000000D-01 -1.0876739737995D+00 -5.1671098692265D-01
83  8.2000000000000D-01 -1.0954051668888D+00 -5.1630678020048D-01
84  8.3000000000000D-01 -1.1026673364363D+00 -5.1471025046370D-01
85  8.4000000000000D-01 -1.1094459345239D+00 -5.1189044592112D-01
86  8.5000000000000D-01 -1.1157268829037D+00 -5.0781914966801D-01
87  8.6000000000000D-01 -1.1214966167433D+00 -5.0247102359491D-01
88  8.7000000000000D-01 -1.1267421272880D+00 -4.9582374495537D-01
89  8.8000000000000D-01 -1.1314510033006D+00 -4.8785813493201D-01
90  8.9000000000000D-01 -1.1356114711401D+00 -4.7855827854993D-01
91  9.0000000000000D-01 -1.1392124333449D+00 -4.6791163529869D-01
92  9.1000000000000D-01 -1.1422435055884D+00 -4.5590913983731D-01
93  9.2000000000000D-01 -1.1446950518779D+00 -4.4254529217700D-01
94  9.3000000000000D-01 -1.1465582178718D+00 -4.2781823676138D-01
95  9.4000000000000D-01 -1.1478249621945D+00 -4.1172982989838D-01
96  9.5000000000000D-01 -1.1484880856350D+00 -3.9428569504444D-01
97  9.6000000000000D-01 -1.1485412581204D+00 -3.7549526550217D-01
98  9.7000000000000D-01 -1.1479790335282D+00 -3.5537178321941D-01
99  9.8000000000000D-01 -1.1467968845266D+00 -3.3393235927762D-01
100  9.9000000000000D-01 -1.1449912459067D+00 -3.1119804475936D-01
101  1.0000000000000D+00 -1.1425594923748D+00 -2.8719369414167D-01
102  1.0100000000000D+00 -1.1394999682851D+00 -2.6194798859771D-01
103  1.0200000000000D+00 -1.1358119997267D+00 -2.3549339656088D-01
104  1.0300000000000D+00 -1.1314958996949D+00 -2.0786611043033D-01
105  1.0400000000000D+00 -1.1265529527696D+00 -1.7910593724167D-01
106  1.0500000000000D+00 -1.1209855202349D+00 -1.4925644688900D-01
107  1.0600000000000D+00 -1.1147969346382D+00 -1.1836461126131D-01
108  1.0700000000000D+00 -1.1079915319733D+00 -8.6480781136319D-02
109  1.0800000000000D+00 -1.1005746378502D+00 -5.3658552759557D-02
110  1.0900000000000D+00 -1.0925525578742D+00 -1.9954655750343D-02
111  1.1000000000000D+00 -1.0839326544005D+00  1.4571125516635D-02
112  1.1100000000000D+00 -1.0747232245659D+00  4.9856264870483D-02
113  1.1200000000000D+00 -1.0649335211951D+00  8.5835607432596D-02
114  1.1300000000000D+00 -1.0545736986479D+00  1.2244148257783D-01
115  1.1400000000000D+00 -1.0436549293077D+00  1.5960402331152D-01
116  1.1500000000000D+00 -1.0321892366315D+00  1.9725135173312D-01
117  1.1600000000000D+00 -1.0201895066040D+00  2.3530973758926D-01
118  1.1700000000000D+00 -1.0076694697828D+00  2.7370371822588D-01
119  1.1800000000000D+00 -9.9464372021482D-01  3.1235678769416D-01
120  1.1900000000000D+00 -9.8112759904477D-01  3.5119125457959D-01
121  1.2000000000000D+00 -9.6713719120760D-01  3.9012826591506D-01
122  1.2100000000000D+00 -9.5268932092265D-01  4.2908875770340D-01
123  1.2200000000000D+00 -9.3780146309583D-01  4.6799344852333D-01
124  1.2300000000000D+00 -9.2249172809714D-01  5.0676258162812D-01
125  1.2400000000000D+00 -9.0677882830231D-01  5.4531673683940D-01
126  1.2500000000000D+00 -8.9068197698583D-01  5.8357758875652D-01
127  1.2600000000000D+00 -8.7422091246715D-01  6.2146689049207D-01
128  1.2700000000000D+00 -8.5741583979387D-01  6.5890740770522D-01
129  1.2800000000000D+00 -8.4028726401050D-01  6.9582426665021D-01
130  1.2900000000000D+00 -8.2285612247388D-01  7.3214305696474D-01
131  1.3000000000000D+00 -8.0514363898571D-01  7.6779145366847D-01
132  1.3100000000000D+00 -7.8717113582101D-01  8.0270038381959D-01
133  1.3200000000000D+00 -7.6896030797350D-01  8.3680140408943D-01
134  1.3300000000000D+00 -7.5053284148622D-01  8.7002992868239D-01
135  1.3400000000000D+00 -7.3191039772173D-01  9.0232472460567D-01
136  1.3500000000000D+00 -7.1311498940340D-01  9.3362519542935D-01
137  1.3600000000000D+00 -6.9416813009382D-01  9.6387726751279D-01
138  1.3700000000000D+00 -6.7509145851387D-01  9.9302857826317D-01
139  1.3800000000000D+00 -6.5590659795270D-01  1.0210296800559D+00
140  1.3900000000000D+00 -6.3663447831659D-01  1.0478377406334D+00
141  1.4000000000000D+00 -6.1729634260845D-01  1.0734104173408D+00
142  1.4100000000000D+00 -5.9791261093808D-01  1.0977123619401D+00
143  1.4200000000000D+00 -5.7850346787058D-01  1.1207113901116D+00
144  1.4300000000000D+00 -5.5908898648365D-01  1.1423781492643D+00
145  1.4400000000000D+00 -5.3968803640098D-01  1.1626909780535D+00
146  1.4500000000000D+00 -5.2031988936400D-01  1.1816282285630D+00
147  1.4600000000000D+00 -5.0100234546796D-01  1.1991766709984D+00
148  1.4700000000000D+00 -4.8175318407666D-01  1.2153246252996D+00
149  1.4800000000000D+00 -4.6258941424412D-01  1.2300653919278D+00
150  1.4900000000000D+00 -4.4352702482339D-01  1.2433973110500D+00
151  1.5000000000000D+00 -4.2458211633176D-01  1.2553201524829D+00
152  1.5100000000000D+00 -4.0576889348045D-01  1.2658409431345D+00
153  1.5200000000000D+00 -3.8710217180689D-01  1.2749664263189D+00
154  1.5300000000000D+00 -3.6859471061121D-01  1.2827100509658D+00
155  1.5400000000000D+00 -3.5025959382565D-01  1.2890855534287D+00
156  1.5500000000000D+00 -3.3210843646762D-01  1.2941110011205D+00
157  1.5600000000000D+00 -3.1415253783755D-01  1.2978055484541D+00
158  1.5700000000000D+00 -2.9640237418078D-01  1.3001908706009D+00
159  1.5800000000000D+00 -2.7886762129943D-01  1.3012891308296D+00
160  1.5900000000000D+00 -2.6155763735163D-01  1.3011242355572D+00
161  1.6000000000000D+00 -2.4448077837824D-01  1.2997187504994D+00
162  1.6100000000000D+00 -2.2764528494230D-01  1.2970962136380D+00
163  1.6200000000000D+00 -2.1105895738762D-01  1.2932802177584D+00
164  1.6300000000000D+00 -1.9472954178681D-01  1.2882949322825D+00
165  1.6400000000000D+00 -1.7866490580267D-01  1.2821676770630D+00
166  1.6500000000000D+00 -1.6287286253756D-01  1.2749262118684D+00
167  1.6600000000000D+00 -1.4736127339426D-01  1.2666011401462D+00
168  1.6700000000000D+00 -1.3213797662863D-01  1.2572236069427D+00
169  1.6800000000000D+00 -1.1721073352468D-01  1.2468269367296D+00
170  1.6900000000000D+00 -1.0258734542676D-01  1.2354453077724D+00
171  1.7000000000000D+00 -8.8275388433882D-02  1.2231142973887D+00
172  1.7100000000000D+00 -7.4282554318649D-02  1.2098707358581D+00
173  1.7200000000000D+00 -6.0616150346643D-02  1.1957520221487D+00
174  1.7300000000000D+00 -4.7283671947277D-02  1.1807972108886D+00
175  1.7400000000000D+00 -3.4292079168394D-02  1.1650451374754D+00
176  1.7500000000000D+00 -2.1648569076849D-02  1.1485366031963D+00
177  1.7600000000000D+00 -9.3596855759352D-03  1.1313115516863D+00
178  1.7700000000000D+00  2.5677911137785D-03  1.1134119984904D+00
179  1.7800000000000D+00  1.4127788628396D-02  1.0948787351511D+00
180  1.7900000000000D+00  2.5314079169527D-02  1.0757543987672D+00
181  1.8000000000000D+00  3.6121100729205D-02  1.0560804470664D+00
182  1.8100000000000D+00  4.6543329785028D-02  1.0358994946990D+00
183  1.8200000000000D+00  5.6575735966511D-02  1.0152535573767D+00
184  1.8300000000000D+00  6.6213664082914D-02  9.9418452551160D-01
185  1.8400000000000D+00  7.5452622022362D-02  9.7273493173778D-01
186  1.8500000000000D+00  8.4288991408628D-02  9.5094523652891D-01
187  1.8600000000000D+00  9.2718818277500D-02  9.2885848437616D-01
188  1.8700000000000D+00  1.0073964440568D-01  9.0651315735816D-01
189  1.8800000000000D+00  1.0834816717396D-01  8.8395236188173D-01
190  1.8900000000000D+00  1.1554296978073D-01  8.6121301653781D-01
191  1.9000000000000D+00  1.2232189674365D-01  8.3833629613918D-01
192  1.9100000000000D+00  1.2868419644129D-01  8.1535902275642D-01
193  1.9200000000000D+00  1.3462916398052D-01  7.9231915696128D-01
194  1.9300000000000D+00  1.4015663688803D-01  7.6925373679720D-01
195  1.9400000000000D+00  1.4526752939736D-01  7.4619671256114D-01
196  1.9500000000000D+00  1.4996222558407D-01  7.2318554489669D-01
197  1.9600000000000D+00  1.5424319275537D-01  7.0025031060320D-01
198  1.9700000000000D+00  1.5811187584900D-01  6.7742675607708D-01
199  1.9800000000000D+00  1.6157167795005D-01  6.5474357327445D-01
200  1.9900000000000D+00  1.6462574806010D-01  6.3223194596705D-01
201  2.0000000000000D+00  1.6727797468164D-01  6.0992113233860D-01
202  2.0100000000000D+00  1.6953342418541D-01  5.8783655533270D-01
203  2.0200000000000D+00  1.7139644977736D-01  5.6600827361529D-01
204  2.0300000000000D+00  1.7287371677567D-01  5.4445706426593D-01
205  2.0400000000000D+00  1.7397097879587D-01  5.2320947618142D-01
206  2.0500000000000D+00  1.7469547332600D-01  5.0228627565754D-01
207  2.0600000000000D+00  1.7505486816299D-01  4.8170766774531D-01
208  2.0700000000000D+00  1.7505676665013D-01  4.6149567530183D-01
209  2.0800000000000D+00  1.7471051224457D-01  4.4166470984083D-01
210  2.0900000000000D+00  1.7402473912038D-01  4.2223477886330D-01
211  2.1000000000000D+00  1.7300957077375D-01  4.0321888535944D-01
212  2.1100000000000D+00  1.7167532276101D-01  3.8463077742285D-01
213  2.1200000000000D+00  1.7003244529571D-01  3.6648513196710D-01
214  2.1300000000000D+00  1.6809269574364D-01  3.4878968673968D-01
215  2.1400000000000D+00  1.6586746917911D-01  3.3155719742362D-01
216  2.1500000000000D+00  1.6336916070953D-01  3.1479423739870D-01
217  2.1600000000000D+00  1.6061048998818D-01  2.9850730499737D-01
218  2.1700000000000D+00  1.5760428785536D-01  2.8270485633036D-01
219  2.1800000000000D+00  1.5436419988743D-01  2.6738814853642D-01
220  2.1900000000000D+00  1.5090396659422D-01  2.5256254801188D-01
221  2.2000000000000D+00  1.4723768257666D-01  2.3822972796750D-01
222  2.2100000000000D+00  1.4337977534170D-01  2.2438911851982D-01
223  2.2200000000000D+00  1.3934510908846D-01  2.1104355600966D-01
224  2.2300000000000D+00  1.3514840444996D-01  1.9818913204853D-01
225  2.2400000000000D+00  1.3080493443911D-01  1.8582425589177D-01
226  2.2500000000000D+00  1.2633020480479D-01  1.7394689103376D-01
227  2.2600000000000D+00  1.2173930540579D-01  1.6255108516780D-01
228  2.2700000000000D+00  1.1704832602185D-01  1.5163321367518D-01
229  2.2800000000000D+00  1.1227272588101D-01  1.4118710965667D-01
230  2.2900000000000D+00  1.0742788159055D-01  1.3120544113724D-01
231  2.3000000000000D+00  1.0253054970326D-01  1.2168234818936D-01
232  2.3100000000000D+00  9.7595499773957D-02  1.1260887697899D-01
233  2.3200000000000D+00  9.2638476160058D-02  1.0397655267737D-01
234  2.3300000000000D+00  8.7676099493330D-02  9.5777035683508D-02
235  2.3400000000000D+00  8.2722467581170D-02  8.8000231421706D-02
236  2.3500000000000D+00  7.7793556390800D-02  8.0636361971248D-02
237  2.3600000000000D+00  7.2904951308871D-02  7.3675327111454D-02
238  2.3700000000000D+00  6.8070227694435D-02  6.7106586268923D-02
239  2.3800000000000D+00  6.3305253066629D-02  6.0919137110748D-02
240  2.3900000000000D+00  5.8624080700564D-02  5.5102195014600D-02
241  2.4000000000000D+00  5.4039570156048D-02  4.9645042684516D-02
242  2.4100000000000D+00  4.9567202172587D-02  4.4535758282605D-02
243  2.4200000000000D+00  4.5219108615970D-02  3.9763809991893D-02
244  2.4300000000000D+00  4.1007209159524D-02  3.5318588956368D-02
245  2.4400000000000D+00  3.6946286693993D-02  3.1187640108105D-02
246  2.4500000000000D+00  3.3046280757015D-02  2.7361428046772D-02
247  2.4600000000000D+00  2.9317917492668D-02  2.3829771837530D-02
248  2.4700000000000D+00  2.5774951116559D-02  2.0580129667186D-02
249  2.4800000000000D+00  2.2424979010695D-02  1.7604487736143D-02
250  2.4900000000000D+00  1.9277257578104D-02  1.4893447435892D-02
251  2.5000000000000D+00  1.6344173350042D-02  1.2434862954495D-02
252  2.5100000000000D+00  1.3630951051064D-02  1.0222543641462D-02
253  2.5200000000000D+00  1.1145089498336D-02  8.2482503005459D-03
254  2.5300000000000D+00  8.8972694776860D-03  6.5007293455730D-03
255  2.5400000000000D+00  6.8904269661782D-03  4.9756994584845D-03
256  2.5500000000000D+00  5.1300175151738D-03  3.6664592353914D-03
257  2.5600000000000D+00  3.6246865314533D-03  2.5631358809232D-03
258  2.5700000000000D+00  2.3752701531244D-03  1.6632488320373D-03
259  2.5800000000000D+00  1.3849136564556D-03  9.6198563967261D-04
260  2.5900000000000D+00  7.1345934203415D-04  4.8727870999291D-04
261  2.6000000000000D+00  2.7912504573460D-04  1.8391212208543D-04
262  2.6100000000000D+00  3.1024730607497D-05  1.4664156613523D-05
263  2.6200000000000D+00 -7.5164372593090D-05 -5.6990884946250D-05
264  2.6300000000000D+00 -8.0238139121152D-05 -5.8566756904375D-05
265  2.6400000000000D+00 -2.5957789246774D-05 -1.8737088226855D-05
266  2.6500000000000D+00  1.8896260677117D-07  4.2275214963613D-07
267  2.6600000000000D+00  2.4349386210581D-07  5.4475091864651D-07
268  2.6700000000000D+00  1.0818488235298D-07  2.4203408470247D-07
269  2.6800000000000D+00  0.0000000000000D+00  0.0000000000000D+00
270  2.6900000000000D+00  0.0000000000000D+00  0.0000000000000D+00
271  2.7000000000000D+00  0.0000000000000D+00  0.0000000000000D+00
272  2.7100000000000D+00  0.0000000000000D+00  0.0000000000000D+00
273  2.7200000000000D+00  0.0000000000000D+00  0.0000000000000D+00
274  2.7300000000000D+00  0.0000000000000D+00  0.0000000000000D+00
275  2.7400000000000D+00  0.0000000000000D+00  0.0000000000000D+00
276  2.7500000000000D+00  0.0000000000000D+00  0.0000000000000D+00
277  2.7600000000000D+00  0.0000000000000D+00  0.0000000000000D+00
278  2.7700000000000D+00  0.0000000000000D+00  0.0000000000000D+00
279  2.7800000000000D+00  0.0000000000000D+00  0.0000000000000D+00
280  2.7900000000000D+00  0.0000000000000D+00  0.0000000000000D+00
281  2.8000000000000D+00  0.0000000000000D+00  0.0000000000000D+00
282  2.8100000000000D+00  0.0000000000000D+00  0.0000000000000D+00
283  2.8200000000000D+00  0.0000000000000D+00  0.0000000000000D+00
284  2.8300000000000D+00  0.0000000000000D+00  0.0000000000000D+00
285  2.8400000000000D+00  0.0000000000000D+00  0.0000000000000D+00
286  2.8500000000000D+00  0.0000000000000D+00  0.0000000000000D+00
287  2.8600000000000D+00  0.0000000000000D+00  0.0000000000000D+00
288  2.8700000000000D+00  0.0000000000000D+00  0.0000000000000D+00
289  2.8800000000000D+00  0.0000000000000D+00  0.0000000000000D+00
290  2.8900000000000D+00  0.0000000000000D+00  0.0000000000000D+00
291  2.9000000000000D+00  0.0000000000000D+00  0.0000000000000D+00
292  2.9100000000000D+00  0.0000000000000D+00  0.0000000000000D+00
293  2.9200000000000D+00  0.0000000000000D+00  0.0000000000000D+00
294  2.9300000000000D+00  0.0000000000000D+00  0.0000000000000D+00
295  2.9400000000000D+00  0.0000000000000D+00  0.0000000000000D+00
296  2.9500000000000D+00  0.0000000000000D+00  0.0000000000000D+00
297  2.9600000000000D+00  0.0000000000000D+00  0.0000000000000D+00
298  2.9700000000000D+00  0.0000000000000D+00  0.0000000000000D+00
299  2.9800000000000D+00  0.0000000000000D+00  0.0000000000000D+00
300  2.9900000000000D+00  0.0000000000000D+00  0.0000000000000D+00
301  3.0000000000000D+00  0.0000000000000D+00  0.0000000000000D+00
302  3.0100000000000D+00  0.0000000000000D+00  0.0000000000000D+00
303  3.0200000000000D+00  0.0000000000000D+00  0.0000000000000D+00
304  3.0300000000000D+00  0.0000000000000D+00  0.0000000000000D+00
305  3.0400000000000D+00  0.0000000000000D+00  0.0000000000000D+00
306  3.0500000000000D+00  0.0000000000000D+00  0.0000000000000D+00
307  3.0600000000000D+00  0.0000000000000D+00  0.0000000000000D+00
308  3.0700000000000D+00  0.0000000000000D+00  0.0000000000000D+00
309  3.0800000000000D+00  0.0000000000000D+00  0.0000000000000D+00
310  3.0900000000000D+00  0.0000000000000D+00  0.0000000000000D+00
311  3.1000000000000D+00  0.0000000000000D+00  0.0000000000000D+00
312  3.1100000000000D+00  0.0000000000000D+00  0.0000000000000D+00
313  3.1200000000000D+00  0.0000000000000D+00  0.0000000000000D+00
314  3.1300000000000D+00  0.0000000000000D+00  0.0000000000000D+00
315  3.1400000000000D+00  0.0000000000000D+00  0.0000000000000D+00
316  3.1500000000000D+00  0.0000000000000D+00  0.0000000000000D+00
317  3.1600000000000D+00  0.0000000000000D+00  0.0000000000000D+00
318  3.1700000000000D+00  0.0000000000000D+00  0.0000000000000D+00
319  3.1800000000000D+00  0.0000000000000D+00  0.0000000000000D+00
320  3.1900000000000D+00  0.0000000000000D+00  0.0000000000000D+00
321  3.2000000000000D+00  0.0000000000000D+00  0.0000000000000D+00
322  3.2100000000000D+00  0.0000000000000D+00  0.0000000000000D+00
323  3.2200000000000D+00  0.0000000000000D+00  0.0000000000000D+00
324  3.2300000000000D+00  0.0000000000000D+00  0.0000000000000D+00
325  3.2400000000000D+00  0.0000000000000D+00  0.0000000000000D+00
326  3.2500000000000D+00  0.0000000000000D+00  0.0000000000000D+00
327  3.2600000000000D+00  0.0000000000000D+00  0.0000000000000D+00
328  3.2700000000000D+00  0.0000000000000D+00  0.0000000000000D+00
329  3.2800000000000D+00  0.0000000000000D+00  0.0000000000000D+00
330  3.2900000000000D+00  0.0000000000000D+00  0.0000000000000D+00
331  3.3000000000000D+00  0.0000000000000D+00  0.0000000000000D+00
332  3.3100000000000D+00  0.0000000000000D+00  0.0000000000000D+00
333  3.3200000000000D+00  0.0000000000000D+00  0.0000000000000D+00
334  3.3300000000000D+00  0.0000000000000D+00  0.0000000000000D+00
335  3.3400000000000D+00  0.0000000000000D+00  0.0000000000000D+00
336  3.3500000000000D+00  0.0000000000000D+00  0.0000000000000D+00
337  3.3600000000000D+00  0.0000000000000D+00  0.0000000000000D+00
338  3.3700000000000D+00  0.0000000000000D+00  0.0000000000000D+00
339  3.3800000000000D+00  0.0000000000000D+00  0.0000000000000D+00
340  3.3900000000000D+00  0.0000000000000D+00  0.0000000000000D+00
341  3.4000000000000D+00  0.0000000000000D+00  0.0000000000000D+00
342  3.4100000000000D+00  0.0000000000000D+00  0.0000000000000D+00
343  3.4200000000000D+00  0.0000000000000D+00  0.0000000000000D+00
344  3.4300000000000D+00  0.0000000000000D+00  0.0000000000000D+00
345  3.4400000000000D+00  0.0000000000000D+00  0.0000000000000D+00
346  3.4500000000000D+00  0.0000000000000D+00  0.0000000000000D+00
347  3.4600000000000D+00  0.0000000000000D+00  0.0000000000000D+00
348  3.4700000000000D+00  0.0000000000000D+00  0.0000000000000D+00
349  3.4800000000000D+00  0.0000000000000D+00  0.0000000000000D+00
350  3.4900000000000D+00  0.0000000000000D+00  0.0000000000000D+00
351  3.5000000000000D+00  0.0000000000000D+00  0.0000000000000D+00
352  3.5100000000000D+00  0.0000000000000D+00  0.0000000000000D+00
353  3.5200000000000D+00  0.0000000000000D+00  0.0000000000000D+00
354  3.5300000000000D+00  0.0000000000000D+00  0.0000000000000D+00
355  3.5400000000000D+00  0.0000000000000D+00  0.0000000000000D+00
356  3.5500000000000D+00  0.0000000000000D+00  0.0000000000000D+00
357  3.5600000000000D+00  0.0000000000000D+00  0.0000000000000D+00
358  3.5700000000000D+00  0.0000000000000D+00  0.0000000000000D+00
359  3.5800000000000D+00  0.0000000000000D+00  0.0000000000000D+00
360  3.5900000000000D+00  0.0000000000000D+00  0.0000000000000D+00
361  3.6000000000000D+00  0.0000000000000D+00  0.0000000000000D+00
362  3.6100000000000D+00  0.0000000000000D+00  0.0000000000000D+00
363  3.6200000000000D+00  0.0000000000000D+00  0.0000000000000D+00
364  3.6300000000000D+00  0.0000000000000D+00  0.0000000000000D+00
365  3.6400000000000D+00  0.0000000000000D+00  0.0000000000000D+00
366  3.6500000000000D+00  0.0000000000000D+00  0.0000000000000D+00
367  3.6600000000000D+00  0.0000000000000D+00  0.0000000000000D+00
368  3.6700000000000D+00  0.0000000000000D+00  0.0000000000000D+00
369  3.6800000000000D+00  0.0000000000000D+00  0.0000000000000D+00
370  3.6900000000000D+00  0.0000000000000D+00  0.0000000000000D+00
371  3.7000000000000D+00  0.0000000000000D+00  0.0000000000000D+00
372  3.7100000000000D+00  0.0000000000000D+00  0.0000000000000D+00
373  3.7200000000000D+00  0.0000000000000D+00  0.0000000000000D+00
374  3.7300000000000D+00  0.0000000000000D+00  0.0000000000000D+00
375  3.7400000000000D+00  0.0000000000000D+00  0.0000000000000D+00
376  3.7500000000000D+00  0.0000000000000D+00  0.0000000000000D+00
377  3.7600000000000D+00  0.0000000000000D+00  0.0000000000000D+00
378  3.7700000000000D+00  0.0000000000000D+00  0.0000000000000D+00
379  3.7800000000000D+00  0.0000000000000D+00  0.0000000000000D+00
380  3.7900000000000D+00  0.0000000000000D+00  0.0000000000000D+00
381  3.8000000000000D+00  0.0000000000000D+00  0.0000000000000D+00
382  3.8100000000000D+00  0.0000000000000D+00  0.0000000000000D+00
383  3.8200000000000D+00  0.0000000000000D+00  0.0000000000000D+00
384  3.8300000000000D+00  0.0000000000000D+00  0.0000000000000D+00
385  3.8400000000000D+00  0.0000000000000D+00  0.0000000000000D+00
386  3.8500000000000D+00  0.0000000000000D+00  0.0000000000000D+00
387  3.8600000000000D+00  0.0000000000000D+00  0.0000000000000D+00
388  3.8700000000000D+00  0.0000000000000D+00  0.0000000000000D+00
389  3.8800000000000D+00  0.0000000000000D+00  0.0000000000000D+00
390  3.8900000000000D+00  0.0000000000000D+00  0.0000000000000D+00
391  3.9000000000000D+00  0.0000000000000D+00  0.0000000000000D+00
392  3.9100000000000D+00  0.0000000000000D+00  0.0000000000000D+00
393  3.9200000000000D+00  0.0000000000000D+00  0.0000000000000D+00
394  3.9300000000000D+00  0.0000000000000D+00  0.0000000000000D+00
395  3.9400000000000D+00  0.0000000000000D+00  0.0000000000000D+00
396  3.9500000000000D+00  0.0000000000000D+00  0.0000000000000D+00
397  3.9600000000000D+00  0.0000000000000D+00  0.0000000000000D+00
398  3.9700000000000D+00  0.0000000000000D+00  0.0000000000000D+00
399  3.9800000000000D+00  0.0000000000000D+00  0.0000000000000D+00
400  3.9900000000000D+00  0.0000000000000D+00  0.0000000000000D+00
401  4.0000000000000D+00  0.0000000000000D+00  0.0000000000000D+00
402  4.0100000000000D+00  0.0000000000000D+00  0.0000000000000D+00
403  4.0200000000000D+00  0.0000000000000D+00  0.0000000000000D+00
404  4.0300000000000D+00  0.0000000000000D+00  0.0000000000000D+00
405  4.0400000000000D+00  0.0000000000000D+00  0.0000000000000D+00
406  4.0500000000000D+00  0.0000000000000D+00  0.0000000000000D+00
407  4.0600000000000D+00  0.0000000000000D+00  0.0000000000000D+00
408  4.0700000000000D+00  0.0000000000000D+00  0.0000000000000D+00
409  4.0800000000000D+00  0.0000000000000D+00  0.0000000000000D+00
410  4.0900000000000D+00  0.0000000000000D+00  0.0000000000000D+00
411  4.1000000000000D+00  0.0000000000000D+00  0.0000000000000D+00
412  4.1100000000000D+00  0.0000000000000D+00  0.0000000000000D+00
413  4.1200000000000D+00  0.0000000000000D+00  0.0000000000000D+00
414  4.1300000000000D+00  0.0000000000000D+00  0.0000000000000D+00
415  4.1400000000000D+00  0.0000000000000D+00  0.0000000000000D+00
416  4.1500000000000D+00  0.0000000000000D+00  0.0000000000000D+00
417  4.1600000000000D+00  0.0000000000000D+00  0.0000000000000D+00
418  4.1700000000000D+00  0.0000000000000D+00  0.0000000000000D+00
419  4.1800000000000D+00  0.0000000000000D+00  0.0000000000000D+00
420  4.1900000000000D+00  0.0000000000000D+00  0.0000000000000D+00
421  4.2000000000000D+00  0.0000000000000D+00  0.0000000000000D+00
422  4.2100000000000D+00  0.0000000000000D+00  0.0000000000000D+00
423  4.2200000000000D+00  0.0000000000000D+00  0.0000000000000D+00
424  4.2300000000000D+00  0.0000000000000D+00  0.0000000000000D+00
425  4.2400000000000D+00  0.0000000000000D+00  0.0000000000000D+00
426  4.2500000000000D+00  0.0000000000000D+00  0.0000000000000D+00
427  4.2600000000000D+00  0.0000000000000D+00  0.0000000000000D+00
428  4.2700000000000D+00  0.0000000000000D+00  0.0000000000000D+00
429  4.2800000000000D+00  0.0000000000000D+00  0.0000000000000D+00
430  4.2900000000000D+00  0.0000000000000D+00  0.0000000000000D+00
431  4.3000000000000D+00  0.0000000000000D+00  0.0000000000000D+00
432  4.3100000000000D+00  0.0000000000000D+00  0.0000000000000D+00
433  4.3200000000000D+00  0.0000000000000D+00  0.0000000000000D+00
434  4.3300000000000D+00  0.0000000000000D+00  0.0000000000000D+00
435  4.3400000000000D+00  0.0000000000000D+00  0.0000000000000D+00
436  4.3500000000000D+00  0.0000000000000D+00  0.0000000000000D+00
437  4.3600000000000D+00  0.0000000000000D+00  0.0000000000000D+00
438  4.3700000000000D+00  0.0000000000000D+00  0.0000000000000D+00
439  4.3800000000000D+00  0.0000000000000D+00  0.0000000000000D+00
440  4.3900000000000D+00  0.0000000000000D+00  0.0000000000000D+00
441  4.4000000000000D+00  0.0000000000000D+00  0.0000000000000D+00
442  4.4100000000000D+00  0.0000000000000D+00  0.0000000000000D+00
443  4.4200000000000D+00  0.0000000000000D+00  0.0000000000000D+00
444  4.4300000000000D+00  0.0000000000000D+00  0.0000000000000D+00