Au    ONCVPSP  r_core=  2.21  2.52  2.40  3.01
79.0000     19.0000      140903    zatom,zion,pspd
8    11     3     4   501     0    pspcod,pspxc,lmax,lloc,mmax,r2well
5.00000000  0.30000000  0.00000000    rchrg fchrg qchrg
2     2     2     2     0    nproj
0                 extension_switch
0                        -3.3317504599828D+00 -1.5977251514513D-01
1  0.0000000000000D+00 -0.0000000000000D+00  0.0000000000000D+00
2  1.0000000000000D-02 -3.2758834170367D-02  1.7745938977601D-02
3  2.0000000000000D-02 -6.5490223872158D-02  3.5482507072216D-02
4  3.0000000000000D-02 -9.8166765151823D-02  5.3200180085742D-02
5  4.0000000000000D-02 -1.3076113480458D-01  7.0889130450313D-02
6  5.0000000000000D-02 -1.6324613021141D-01  8.8539081866342D-02
7  6.0000000000000D-02 -1.9559470870313D-01  1.0613916961875D-01
8  7.0000000000000D-02 -2.2778002637789D-01  1.2367780751090D-01
9  8.0000000000000D-02 -2.5977547630058D-01  1.4114256231282D-01
10  9.0000000000000D-02 -2.9155472601435D-01  1.5852003657486D-01
11  1.0000000000000D-01 -3.2309175429788D-01  1.7579576060526D-01
12  1.1000000000000D-01 -3.5436088710283D-01  1.9295409436128D-01
13  1.2000000000000D-01 -3.8533683261018D-01  2.0997813994206D-01
14  1.3000000000000D-01 -4.1599471534445D-01  2.2684966531844D-01
15  1.4000000000000D-01 -4.4631010929408D-01  2.4354903985750D-01
16  1.5000000000000D-01 -4.7625906997485D-01  2.6005518216791D-01
17  1.6000000000000D-01 -5.0581816540029D-01  2.7634552067401D-01
18  1.7000000000000D-01 -5.3496450588948D-01  2.9239596732703D-01
19  1.8000000000000D-01 -5.6367577269278D-01  3.0818090470812D-01
20  1.9000000000000D-01 -5.9193024538971D-01  3.2367318677695D-01
21  2.0000000000000D-01 -6.1970682798585D-01  3.3884415344009D-01
22  2.1000000000000D-01 -6.4698507373555D-01  3.5366365897394D-01
23  2.2000000000000D-01 -6.7374520859704D-01  3.6810011434785D-01
24  2.3000000000000D-01 -6.9996815335237D-01  3.8212054338110D-01
25  2.4000000000000D-01 -7.2563554430559D-01  3.9569065257680D-01
26  2.5000000000000D-01 -7.5072975256851D-01  4.0877491438046D-01
27  2.6000000000000D-01 -7.7523390198199D-01  4.2133666381535D-01
28  2.7000000000000D-01 -7.9913188550286D-01  4.3333820776747D-01
29  2.8000000000000D-01 -8.2240838016603D-01  4.4474094669672D-01
30  2.9000000000000D-01 -8.4504886061875D-01  4.5550550841854D-01
31  3.0000000000000D-01 -8.6703961116614D-01  4.6559189323465D-01
32  3.1000000000000D-01 -8.8836773635074D-01  4.7495962987145D-01
33  3.2000000000000D-01 -9.0902117005312D-01  4.8356794143670D-01
34  3.3000000000000D-01 -9.2898868302188D-01  4.9137591934988D-01
35  3.4000000000000D-01 -9.4825988943645D-01  4.9834271111211D-01
36  3.5000000000000D-01 -9.6682525112569D-01  5.0442770583729D-01
37  3.6000000000000D-01 -9.8467608147096D-01  5.0959073999779D-01
38  3.7000000000000D-01 -1.0018045468257D+00  5.1379229453404D-01
39  3.8000000000000D-01 -1.0182036673621D+00  5.1699370894199D-01
40  3.9000000000000D-01 -1.0338673161765D+00  5.1915739435478D-01
41  4.0000000000000D-01 -1.0487902170218D+00  5.2024704743283D-01
42  4.1000000000000D-01 -1.0629679408701D+00  5.2022786955845D-01
43  4.2000000000000D-01 -1.0763969011335D+00  5.1906678576817D-01
44  4.3000000000000D-01 -1.0890743476265D+00  5.1673266332772D-01
45  4.4000000000000D-01 -1.1009983593057D+00  5.1319652889891D-01
46  4.5000000000000D-01 -1.1121678358236D+00  5.0843178321934D-01
47  4.6000000000000D-01 -1.1225824879284D+00  5.0241441215780D-01
48  4.7000000000000D-01 -1.1322428267541D+00  4.9512319292052D-01
49  4.8000000000000D-01 -1.1411501520699D+00  4.8653989312653D-01
50  4.9000000000000D-01 -1.1493065397080D+00  4.7664945771272D-01
51  5.0000000000000D-01 -1.1567148271415D+00  4.6544021776914D-01
52  5.1000000000000D-01 -1.1633785992204D+00  4.5290404459360D-01
53  5.2000000000000D-01 -1.1693021732332D+00  4.3903650510651D-01
54  5.3000000000000D-01 -1.1744905806221D+00  4.2383706115931D-01
55  5.4000000000000D-01 -1.1789495513836D+00  4.0730916918170D-01
56  5.5000000000000D-01 -1.1826854959065D+00  3.8946042146096D-01
57  5.6000000000000D-01 -1.1857054843655D+00  3.7030268882937D-01
58  5.7000000000000D-01 -1.1880172310332D+00  3.4985216850651D-01
59  5.8000000000000D-01 -1.1896290692095D+00  3.2812953924987D-01
60  5.9000000000000D-01 -1.1905499362130D+00  3.0515996194687D-01
61  6.0000000000000D-01 -1.1907893475515D+00  2.8097318777108D-01
62  6.1000000000000D-01 -1.1903573773794D+00  2.5560357097533D-01
63  6.2000000000000D-01 -1.1892646397516D+00  2.2909006344588D-01
64  6.3000000000000D-01 -1.1875222574315D+00  2.0147628265770D-01
65  6.4000000000000D-01 -1.1851418490916D+00  1.7281041956639D-01
66  6.5000000000000D-01 -1.1821355030263D+00  1.4314523147854D-01
67  6.6000000000000D-01 -1.1785157479930D+00  1.1253801056490D-01
68  6.7000000000000D-01 -1.1742955379950D+00  8.1050467062158D-02
69  6.8000000000000D-01 -1.1694882292496D+00  4.8748644342513D-02
70  6.9000000000000D-01 -1.1641075479381D+00  1.5702826315828D-02
71  7.0000000000000D-01 -1.1581675719495D+00 -1.8012615245935D-02
72  7.1000000000000D-01 -1.1516827084480D+00 -5.2319372540992D-02
73  7.2000000000000D-01 -1.1446676689650D+00 -8.7135369138408D-02
74  7.3000000000000D-01 -1.1371374490251D+00 -1.2237494368425D-01
75  7.4000000000000D-01 -1.1291072954102D+00 -1.5794906768452D-01
76  7.5000000000000D-01 -1.1205926898308D+00 -1.9376556776411D-01
77  7.6000000000000D-01 -1.1116093256593D+00 -2.2972936416548D-01
78  7.7000000000000D-01 -1.1021730839703D+00 -2.6574272923374D-01
79  7.8000000000000D-01 -1.0923000107827D+00 -3.0170556037839D-01
80  7.9000000000000D-01 -1.0820062945799D+00 -3.3751566763203D-01
81  8.0000000000000D-01 -1.0713082441371D+00 -3.7306907487721D-01
82  8.1000000000000D-01 -1.0602222666808D+00 -4.0826033375439D-01
83  8.2000000000000D-01 -1.0487648464054D+00 -4.4298284920902D-01
84  8.3000000000000D-01 -1.0369525233698D+00 -4.7712921558514D-01
85  8.4000000000000D-01 -1.0248018727945D+00 -5.1059156212570D-01
86  8.5000000000000D-01 -1.0123294847795D+00 -5.4326190669396D-01
87  8.6000000000000D-01 -9.9955194446080D-01 -5.7503251648621D-01
88  8.7000000000000D-01 -9.8648581262459D-01 -6.0579627446227D-01
89  8.8000000000000D-01 -9.7314760679503D-01 -6.3544705017485D-01
90  8.9000000000000D-01 -9.5955378281254D-01 -6.6388007363301D-01
91  9.0000000000000D-01 -9.4572071691882D-01 -6.9099231078701D-01
92  9.1000000000000D-01 -9.3166468836466D-01 -7.1668283917188D-01
93  9.2000000000000D-01 -9.1740186255615D-01 -7.4085322219717D-01
94  9.3000000000000D-01 -9.0294827475522D-01 -7.6340788052072D-01
95  9.4000000000000D-01 -8.8831981435009D-01 -7.8425445889840D-01
96  9.5000000000000D-01 -8.7353220971089D-01 -8.0330418686375D-01
97  9.6000000000000D-01 -8.5860101364548D-01 -8.2047223156560D-01
98  9.7000000000000D-01 -8.4354159486570D-01 -8.3567796145208D-01
99  9.8000000000000D-01 -8.2836911796349D-01 -8.4884536919842D-01
100  9.9000000000000D-01 -8.1309851765042D-01 -8.5990359898366D-01
101  1.0000000000000D+00 -7.9774450821335D-01 -8.6878693692460D-01
102  1.0100000000000D+00 -7.8232156380761D-01 -8.7543522135736D-01
103  1.0200000000000D+00 -7.6684390755814D-01 -8.7979411909962D-01
104  1.0300000000000D+00 -7.5132550383062D-01 -8.8181534169915D-01
105  1.0400000000000D+00 -7.3578006251439D-01 -8.8145664925134D-01
106  1.0500000000000D+00 -7.2022096921542D-01 -8.7868308241502D-01
107  1.0600000000000D+00 -7.0466133924973D-01 -8.7346613695903D-01
108  1.0700000000000D+00 -6.8911399022123D-01 -8.6578425679841D-01
109  1.0800000000000D+00 -6.7359144153670D-01 -8.5562287216198D-01
110  1.0900000000000D+00 -6.5810591223572D-01 -8.4297445630203D-01
111  1.1000000000000D+00 -6.4266925165820D-01 -8.2783970705095D-01
112  1.1100000000000D+00 -6.2729300821242D-01 -8.1022636189466D-01
113  1.1200000000000D+00 -6.1198840090569D-01 -7.9014964987624D-01
114  1.1300000000000D+00 -5.9676635227376D-01 -7.6763172335365D-01
115  1.1400000000000D+00 -5.8163736008815D-01 -7.4270370160179D-01
116  1.1500000000000D+00 -5.6661161344517D-01 -7.1540365304468D-01
117  1.1600000000000D+00 -5.5169896590184D-01 -6.8577696668214D-01
118  1.1700000000000D+00 -5.3690893708547D-01 -6.5387627243787D-01
119  1.1800000000000D+00 -5.2225062027561D-01 -6.1976262820413D-01
120  1.1900000000000D+00 -5.0773279065313D-01 -5.8350372075527D-01
121  1.2000000000000D+00 -4.9336390508990D-01 -5.4517385135864D-01
122  1.2100000000000D+00 -4.7915199610414D-01 -5.0485513232241D-01
123  1.2200000000000D+00 -4.6510473975733D-01 -4.6263624114393D-01
124  1.2300000000000D+00 -4.5122949656077D-01 -4.1861186615985D-01
125  1.2400000000000D+00 -4.3753324187274D-01 -3.7288331010942D-01
126  1.2500000000000D+00 -4.2402254944091D-01 -3.2555807408311D-01
127  1.2600000000000D+00 -4.1070369111279D-01 -2.7674885508137D-01
128  1.2700000000000D+00 -3.9758256971359D-01 -2.2657396134694D-01
129  1.2800000000000D+00 -3.8466467382283D-01 -1.7515676591997D-01
130  1.2900000000000D+00 -3.7195520529441D-01 -1.2262505706514D-01
131  1.3000000000000D+00 -3.5945898989121D-01 -6.9111141648851D-02
132  1.3100000000000D+00 -3.4718045795619D-01 -1.4750794992891D-02
133  1.3200000000000D+00 -3.3512376803364D-01  4.0316385354766D-02
134  1.3300000000000D+00 -3.2329267653415D-01  9.5948002162815D-02
135  1.3400000000000D+00 -3.1169059154016D-01  1.5199967929655D-01
136  1.3500000000000D+00 -3.0032065938810D-01  2.0832349496014D-01
137  1.3600000000000D+00 -2.8918558998669D-01  2.6477182274120D-01
138  1.3700000000000D+00 -2.7828782502070D-01  3.2119507621486D-01
139  1.3800000000000D+00 -2.6762949147844D-01  3.7744208638724D-01
140  1.3900000000000D+00 -2.5721233453880D-01  4.3336424656741D-01
141  1.4000000000000D+00 -2.4703786288389D-01  4.8881004758366D-01
142  1.4100000000000D+00 -2.3710721137658D-01  5.4363167300637D-01
143  1.4200000000000D+00 -2.2742123924527D-01  5.9768205934403D-01
144  1.4300000000000D+00 -2.1798052427333D-01  6.5081380058428D-01
145  1.4400000000000D+00 -2.0878530585748D-01  7.0288686240584D-01
146  1.4500000000000D+00 -1.9983559665284D-01  7.5375776129807D-01
147  1.4600000000000D+00 -1.9113107748915D-01  8.0329272518481D-01
148  1.4700000000000D+00 -1.8267119323031D-01  8.5135784945212D-01
149  1.4800000000000D+00 -1.7445510882737D-01  8.9782429190128D-01
150  1.4900000000000D+00 -1.6648173326260D-01  9.4257106705843D-01
151  1.5000000000000D+00 -1.5874973020008D-01  9.8547565663746D-01
152  1.5100000000000D+00 -1.5125751584236D-01  1.0264312584565D+00
153  1.5200000000000D+00 -1.4400327043639D-01  1.0653255079292D+00
154  1.5300000000000D+00 -1.3698495467299D-01  1.1020642261828D+00
155  1.5400000000000D+00 -1.3020029929599D-01  1.1365504314587D+00
156  1.5500000000000D+00 -1.2364683323994D-01  1.1687010353799D+00
157  1.5600000000000D+00 -1.1732187982999D-01  1.1984369192506D+00
158  1.5700000000000D+00 -1.1122255900757D-01  1.2256872500817D+00
159  1.5800000000000D+00 -1.0534582957836D-01  1.2503918777685D+00
160  1.5900000000000D+00 -9.9688427681871D-02  1.2724934613144D+00
161  1.6000000000000D+00 -9.4246989510812D-02  1.2919514486213D+00
162  1.6100000000000D+00 -8.9017895494727D-02  1.3087232031011D+00
163  1.6200000000000D+00 -8.3997499612227D-02  1.3227879802564D+00
164  1.6300000000000D+00 -7.9181857638262D-02  1.3341189507629D+00
165  1.6400000000000D+00 -7.4567080001441D-02  1.3427150165716D+00
166  1.6500000000000D+00 -7.0148931721870D-02  1.3485660808266D+00
167  1.6600000000000D+00 -6.5923316453191D-02  1.3516901983137D+00
168  1.6700000000000D+00 -6.1885745098228D-02  1.3520947027630D+00
169  1.6800000000000D+00 -5.8031949166939D-02  1.3498160049571D+00
170  1.6900000000000D+00 -5.4357224871900D-02  1.3448793055379D+00
171  1.7000000000000D+00 -5.0857163594262D-02  1.3373382979794D+00
172  1.7100000000000D+00 -4.7526889365292D-02  1.3272361961205D+00
173  1.7200000000000D+00 -4.4361882098348D-02  1.3146426606256D+00
174  1.7300000000000D+00 -4.1357139772726D-02  1.2996187422375D+00
175  1.7400000000000D+00 -3.8508055176015D-02  1.2822485639843D+00
176  1.7500000000000D+00 -3.5809550685309D-02  1.2626104673680D+00
177  1.7600000000000D+00 -3.3256950925165D-02  1.2408014241348D+00
178  1.7700000000000D+00 -3.0845158118647D-02  1.2169160818558D+00
179  1.7800000000000D+00 -2.8569441390094D-02  1.1910626499432D+00
180  1.7900000000000D+00 -2.6424743624253D-02  1.1633505696402D+00
181  1.8000000000000D+00 -2.4406284365189D-02  1.1338978154876D+00
182  1.8100000000000D+00 -2.2509113016368D-02  1.1028264850049D+00
183  1.8200000000000D+00 -2.0728399186465D-02  1.0702631247320D+00
184  1.8300000000000D+00 -1.9059368202233D-02  1.0363396473413D+00
185  1.8400000000000D+00 -1.7497134993210D-02  1.0011903685194D+00
186  1.8500000000000D+00 -1.6037170569935D-02  9.6495345349473D-01
187  1.8600000000000D+00 -1.4674529902569D-02  9.2777060464291D-01
188  1.8700000000000D+00 -1.3404973728361D-02  8.8978227801498D-01
189  1.8800000000000D+00 -1.2223559513358D-02  8.5113681990514D-01
190  1.8900000000000D+00 -1.1126247564780D-02  8.1197460642430D-01
191  1.9000000000000D+00 -1.0108373147901D-02  7.7244585765139D-01
192  1.9100000000000D+00 -9.1658733159647D-03  7.3269219469981D-01
193  1.9200000000000D+00 -8.2945162597488D-03  6.9285991395185D-01
194  1.9300000000000D+00 -7.4901765756009D-03  6.5309304307731D-01
195  1.9400000000000D+00 -6.7491374891139D-03  6.1352791883804D-01
196  1.9500000000000D+00 -6.0671876108717D-03  5.7431242060263D-01
197  1.9600000000000D+00 -5.4410873250405D-03  5.3556983615606D-01
198  1.9700000000000D+00 -4.8668236922452D-03  4.9744456879406D-01
199  1.9800000000000D+00 -4.3412948210568D-03  4.6005370956771D-01
200  1.9900000000000D+00 -3.8610525318273D-03  4.2352509378876D-01
201  2.0000000000000D+00 -3.4228786879264D-03  3.8797782455698D-01
202  2.0100000000000D+00 -3.0240356779627D-03  3.5351436134087D-01
203  2.0200000000000D+00 -2.6611617242165D-03  3.2025845342163D-01
204  2.0300000000000D+00 -2.3320799568490D-03  2.8828904875888D-01
205  2.0400000000000D+00 -2.0338431918114D-03  2.5771367384064D-01
206  2.0500000000000D+00 -1.7642343978568D-03  2.2860941193992D-01
207  2.0600000000000D+00 -1.5210882240610D-03  2.0105044826042D-01
208  2.0700000000000D+00 -1.3019824172607D-03  1.7512025263065D-01
209  2.0800000000000D+00 -1.1054667638018D-03  1.5085938532299D-01
210  2.0900000000000D+00 -9.2933755097704D-04  1.2834019883609D-01
211  2.1000000000000D+00 -7.7229235809135D-04  1.0759309978796D-01
212  2.1100000000000D+00 -6.3290863905311D-04  8.8652752474469D-02
213  2.1200000000000D+00 -5.0962149073500D-04  7.1558847879997D-02
214  2.1300000000000D+00 -4.0177142861066D-04  5.6307423996000D-02
215  2.1400000000000D+00 -3.0800330348599D-04  4.2925880910272D-02
216  2.1500000000000D+00 -2.2778207564142D-04  3.1401143851636D-02
217  2.1600000000000D+00 -1.6056092592748D-04  2.1719278204434D-02
218  2.1700000000000D+00 -1.0550344084672D-04  1.3878724260101D-02
219  2.1800000000000D+00 -6.2755589290823D-05  7.8295889492182D-03
220  2.1900000000000D+00 -3.3535188451000D-05  3.7294948821558D-03
221  2.2000000000000D+00 -1.5999474476703D-05  1.3252260232437D-03
222  2.2100000000000D+00 -6.4755605772234D-06  1.1784177355542D-04
223  2.2200000000000D+00 -1.2931435652282D-06 -3.1914815202146D-04
224  2.2300000000000D+00  2.5085953913568D-07 -2.2446087053520D-04
225  2.2400000000000D+00  1.9815010491167D-07 -2.6439975737726D-06
226  2.2500000000000D+00  4.0615290170561D-07 -5.4194636291968D-06
227  2.2600000000000D+00  1.5259449749591D-07 -2.0361305452252D-06
228  2.2700000000000D+00  0.0000000000000D+00  0.0000000000000D+00
229  2.2800000000000D+00  0.0000000000000D+00  0.0000000000000D+00
230  2.2900000000000D+00  0.0000000000000D+00  0.0000000000000D+00
231  2.3000000000000D+00  0.0000000000000D+00  0.0000000000000D+00
232  2.3100000000000D+00  0.0000000000000D+00  0.0000000000000D+00
233  2.3200000000000D+00  0.0000000000000D+00  0.0000000000000D+00
234  2.3300000000000D+00  0.0000000000000D+00  0.0000000000000D+00
235  2.3400000000000D+00  0.0000000000000D+00  0.0000000000000D+00
236  2.3500000000000D+00  0.0000000000000D+00  0.0000000000000D+00
237  2.3600000000000D+00  0.0000000000000D+00  0.0000000000000D+00
238  2.3700000000000D+00  0.0000000000000D+00  0.0000000000000D+00
239  2.3800000000000D+00  0.0000000000000D+00  0.0000000000000D+00
240  2.3900000000000D+00  0.0000000000000D+00  0.0000000000000D+00
241  2.4000000000000D+00  0.0000000000000D+00  0.0000000000000D+00
242  2.4100000000000D+00  0.0000000000000D+00  0.0000000000000D+00
243  2.4200000000000D+00  0.0000000000000D+00  0.0000000000000D+00
244  2.4300000000000D+00  0.0000000000000D+00  0.0000000000000D+00
245  2.4400000000000D+00  0.0000000000000D+00  0.0000000000000D+00
246  2.4500000000000D+00  0.0000000000000D+00  0.0000000000000D+00
247  2.4600000000000D+00  0.0000000000000D+00  0.0000000000000D+00
248  2.4700000000000D+00  0.0000000000000D+00  0.0000000000000D+00
249  2.4800000000000D+00  0.0000000000000D+00  0.0000000000000D+00
250  2.4900000000000D+00  0.0000000000000D+00  0.0000000000000D+00
251  2.5000000000000D+00  0.0000000000000D+00  0.0000000000000D+00
252  2.5100000000000D+00  0.0000000000000D+00  0.0000000000000D+00
253  2.5200000000000D+00  0.0000000000000D+00  0.0000000000000D+00
254  2.5300000000000D+00  0.0000000000000D+00  0.0000000000000D+00
255  2.5400000000000D+00  0.0000000000000D+00  0.0000000000000D+00
256  2.5500000000000D+00  0.0000000000000D+00  0.0000000000000D+00
257  2.5600000000000D+00  0.0000000000000D+00  0.0000000000000D+00
258  2.5700000000000D+00  0.0000000000000D+00  0.0000000000000D+00
259  2.5800000000000D+00  0.0000000000000D+00  0.0000000000000D+00
260  2.5900000000000D+00  0.0000000000000D+00  0.0000000000000D+00
261  2.6000000000000D+00  0.0000000000000D+00  0.0000000000000D+00
262  2.6100000000000D+00  0.0000000000000D+00  0.0000000000000D+00
263  2.6200000000000D+00  0.0000000000000D+00  0.0000000000000D+00
264  2.6300000000000D+00  0.0000000000000D+00  0.0000000000000D+00
265  2.6400000000000D+00  0.0000000000000D+00  0.0000000000000D+00
266  2.6500000000000D+00  0.0000000000000D+00  0.0000000000000D+00
267  2.6600000000000D+00  0.0000000000000D+00  0.0000000000000D+00
268  2.6700000000000D+00  0.0000000000000D+00  0.0000000000000D+00
269  2.6800000000000D+00  0.0000000000000D+00  0.0000000000000D+00
270  2.6900000000000D+00  0.0000000000000D+00  0.0000000000000D+00
271  2.7000000000000D+00  0.0000000000000D+00  0.0000000000000D+00
272  2.7100000000000D+00  0.0000000000000D+00  0.0000000000000D+00
273  2.7200000000000D+00  0.0000000000000D+00  0.0000000000000D+00
274  2.7300000000000D+00  0.0000000000000D+00  0.0000000000000D+00
275  2.7400000000000D+00  0.0000000000000D+00  0.0000000000000D+00
276  2.7500000000000D+00  0.0000000000000D+00  0.0000000000000D+00
277  2.7600000000000D+00  0.0000000000000D+00  0.0000000000000D+00
278  2.7700000000000D+00  0.0000000000000D+00  0.0000000000000D+00
279  2.7800000000000D+00  0.0000000000000D+00  0.0000000000000D+00
280  2.7900000000000D+00  0.0000000000000D+00  0.0000000000000D+00
281  2.8000000000000D+00  0.0000000000000D+00  0.0000000000000D+00
282  2.8100000000000D+00  0.0000000000000D+00  0.0000000000000D+00
283  2.8200000000000D+00  0.0000000000000D+00  0.0000000000000D+00
284  2.8300000000000D+00  0.0000000000000D+00  0.0000000000000D+00
285  2.8400000000000D+00  0.0000000000000D+00  0.0000000000000D+00
286  2.8500000000000D+00  0.0000000000000D+00  0.0000000000000D+00
287  2.8600000000000D+00  0.0000000000000D+00  0.0000000000000D+00
288  2.8700000000000D+00  0.0000000000000D+00  0.0000000000000D+00
289  2.8800000000000D+00  0.0000000000000D+00  0.0000000000000D+00
290  2.8900000000000D+00  0.0000000000000D+00  0.0000000000000D+00
291  2.9000000000000D+00  0.0000000000000D+00  0.0000000000000D+00
292  2.9100000000000D+00  0.0000000000000D+00  0.0000000000000D+00
293  2.9200000000000D+00  0.0000000000000D+00  0.0000000000000D+00
294  2.9300000000000D+00  0.0000000000000D+00  0.0000000000000D+00
295  2.9400000000000D+00  0.0000000000000D+00  0.0000000000000D+00
296  2.9500000000000D+00  0.0000000000000D+00  0.0000000000000D+00
297  2.9600000000000D+00  0.0000000000000D+00  0.0000000000000D+00
298  2.9700000000000D+00  0.0000000000000D+00  0.0000000000000D+00
299  2.9800000000000D+00  0.0000000000000D+00  0.0000000000000D+00
300  2.9900000000000D+00  0.0000000000000D+00  0.0000000000000D+00
301  3.0000000000000D+00  0.0000000000000D+00  0.0000000000000D+00
302  3.0100000000000D+00  0.0000000000000D+00  0.0000000000000D+00
303  3.0200000000000D+00  0.0000000000000D+00  0.0000000000000D+00
304  3.0300000000000D+00  0.0000000000000D+00  0.0000000000000D+00
305  3.0400000000000D+00  0.0000000000000D+00  0.0000000000000D+00
306  3.0500000000000D+00  0.0000000000000D+00  0.0000000000000D+00
307  3.0600000000000D+00  0.0000000000000D+00  0.0000000000000D+00
308  3.0700000000000D+00  0.0000000000000D+00  0.0000000000000D+00
309  3.0800000000000D+00  0.0000000000000D+00  0.0000000000000D+00
310  3.0900000000000D+00  0.0000000000000D+00  0.0000000000000D+00
311  3.1000000000000D+00  0.0000000000000D+00  0.0000000000000D+00
312  3.1100000000000D+00  0.0000000000000D+00  0.0000000000000D+00
313  3.1200000000000D+00  0.0000000000000D+00  0.0000000000000D+00
314  3.1300000000000D+00  0.0000000000000D+00  0.0000000000000D+00
315  3.1400000000000D+00  0.0000000000000D+00  0.0000000000000D+00
316  3.1500000000000D+00  0.0000000000000D+00  0.0000000000000D+00
317  3.1600000000000D+00  0.0000000000000D+00  0.0000000000000D+00
318  3.1700000000000D+00  0.0000000000000D+00  0.0000000000000D+00
319  3.1800000000000D+00  0.0000000000000D+00  0.0000000000000D+00
320  3.1900000000000D+00  0.0000000000000D+00  0.0000000000000D+00
321  3.2000000000000D+00  0.0000000000000D+00  0.0000000000000D+00
322  3.2100000000000D+00  0.0000000000000D+00  0.0000000000000D+00
323  3.2200000000000D+00  0.0000000000000D+00  0.0000000000000D+00
324  3.2300000000000D+00  0.0000000000000D+00  0.0000000000000D+00
325  3.2400000000000D+00  0.0000000000000D+00  0.0000000000000D+00
326  3.2500000000000D+00  0.0000000000000D+00  0.0000000000000D+00
327  3.2600000000000D+00  0.0000000000000D+00  0.0000000000000D+00
328  3.2700000000000D+00  0.0000000000000D+00  0.0000000000000D+00
329  3.2800000000000D+00  0.0000000000000D+00  0.0000000000000D+00
330  3.2900000000000D+00  0.0000000000000D+00  0.0000000000000D+00
331  3.3000000000000D+00  0.0000000000000D+00  0.0000000000000D+00
332  3.3100000000000D+00  0.0000000000000D+00  0.0000000000000D+00
333  3.3200000000000D+00  0.0000000000000D+00  0.0000000000000D+00
334  3.3300000000000D+00  0.0000000000000D+00  0.0000000000000D+00
335  3.3400000000000D+00  0.0000000000000D+00  0.0000000000000D+00
336  3.3500000000000D+00  0.0000000000000D+00  0.0000000000000D+00
337  3.3600000000000D+00  0.0000000000000D+00  0.0000000000000D+00
338  3.3700000000000D+00  0.0000000000000D+00  0.0000000000000D+00
339  3.3800000000000D+00  0.0000000000000D+00  0.0000000000000D+00
340  3.3900000000000D+00  0.0000000000000D+00  0.0000000000000D+00
341  3.4000000000000D+00  0.0000000000000D+00  0.0000000000000D+00
342  3.4100000000000D+00  0.0000000000000D+00  0.0000000000000D+00
343  3.4200000000000D+00  0.0000000000000D+00  0.0000000000000D+00
344  3.4300000000000D+00  0.0000000000000D+00  0.0000000000000D+00
345  3.4400000000000D+00  0.0000000000000D+00  0.0000000000000D+00
346  3.4500000000000D+00  0.0000000000000D+00  0.0000000000000D+00
347  3.4600000000000D+00  0.0000000000000D+00  0.0000000000000D+00
348  3.4700000000000D+00  0.0000000000000D+00  0.0000000000000D+00
349  3.4800000000000D+00  0.0000000000000D+00  0.0000000000000D+00
350  3.4900000000000D+00  0.0000000000000D+00  0.0000000000000D+00
351  3.5000000000000D+00  0.0000000000000D+00  0.0000000000000D+00
352  3.5100000000000D+00  0.0000000000000D+00  0.0000000000000D+00
353  3.5200000000000D+00  0.0000000000000D+00  0.0000000000000D+00
354  3.5300000000000D+00  0.0000000000000D+00  0.0000000000000D+00
355  3.5400000000000D+00  0.0000000000000D+00  0.0000000000000D+00
356  3.5500000000000D+00  0.0000000000000D+00  0.0000000000000D+00
357  3.5600000000000D+00  0.0000000000000D+00  0.0000000000000D+00
358  3.5700000000000D+00  0.0000000000000D+00  0.0000000000000D+00
359  3.5800000000000D+00  0.0000000000000D+00  0.0000000000000D+00
360  3.5900000000000D+00  0.0000000000000D+00  0.0000000000000D+00
361  3.6000000000000D+00  0.0000000000000D+00  0.0000000000000D+00
362  3.6100000000000D+00  0.0000000000000D+00  0.0000000000000D+00
363  3.6200000000000D+00  0.0000000000000D+00  0.0000000000000D+00
364  3.6300000000000D+00  0.0000000000000D+00  0.0000000000000D+00
365  3.6400000000000D+00  0.0000000000000D+00  0.0000000000000D+00
366  3.6500000000000D+00  0.0000000000000D+00  0.0000000000000D+00
367  3.6600000000000D+00  0.0000000000000D+00  0.0000000000000D+00
368  3.6700000000000D+00  0.0000000000000D+00  0.0000000000000D+00
369  3.6800000000000D+00  0.0000000000000D+00  0.0000000000000D+00
370  3.6900000000000D+00  0.0000000000000D+00  0.0000000000000D+00
371  3.7000000000000D+00  0.0000000000000D+00  0.0000000000000D+00
372  3.7100000000000D+00  0.0000000000000D+00  0.0000000000000D+00
373  3.7200000000000D+00  0.0000000000000D+00  0.0000000000000D+00
374  3.7300000000000D+00  0.0000000000000D+00  0.0000000000000D+00
375  3.7400000000000D+00  0.0000000000000D+00  0.0000000000000D+00
376  3.7500000000000D+00  0.0000000000000D+00  0.0000000000000D+00
377  3.7600000000000D+00  0.0000000000000D+00  0.0000000000000D+00
378  3.7700000000000D+00  0.0000000000000D+00  0.0000000000000D+00
379  3.7800000000000D+00  0.0000000000000D+00  0.0000000000000D+00
380  3.7900000000000D+00  0.0000000000000D+00  0.0000000000000D+00
381  3.8000000000000D+00  0.0000000000000D+00  0.0000000000000D+00
382  3.8100000000000D+00  0.0000000000000D+00  0.0000000000000D+00
383  3.8200000000000D+00  0.0000000000000D+00  0.0000000000000D+00
384  3.8300000000000D+00  0.0000000000000D+00  0.0000000000000D+00
385  3.8400000000000D+00  0.0000000000000D+00  0.0000000000000D+00
386  3.8500000000000D+00  0.0000000000000D+00  0.0000000000000D+00
387  3.8600000000000D+00  0.0000000000000D+00  0.0000000000000D+00
388  3.8700000000000D+00  0.0000000000000D+00  0.0000000000000D+00
389  3.8800000000000D+00  0.0000000000000D+00  0.0000000000000D+00
390  3.8900000000000D+00  0.0000000000000D+00  0.0000000000000D+00
391  3.9000000000000D+00  0.0000000000000D+00  0.0000000000000D+00
392  3.9100000000000D+00  0.0000000000000D+00  0.0000000000000D+00
393  3.9200000000000D+00  0.0000000000000D+00  0.0000000000000D+00
394  3.9300000000000D+00  0.0000000000000D+00  0.0000000000000D+00
395  3.9400000000000D+00  0.0000000000000D+00  0.0000000000000D+00
396  3.9500000000000D+00  0.0000000000000D+00  0.0000000000000D+00
397  3.9600000000000D+00  0.0000000000000D+00  0.0000000000000D+00
398  3.9700000000000D+00  0.0000000000000D+00  0.0000000000000D+00
399  3.9800000000000D+00  0.0000000000000D+00  0.0000000000000D+00
400  3.9900000000000D+00  0.0000000000000D+00  0.0000000000000D+00
401  4.0000000000000D+00  0.0000000000000D+00  0.0000000000000D+00
402  4.0100000000000D+00  0.0000000000000D+00  0.0000000000000D+00
403  4.0200000000000D+00  0.0000000000000D+00  0.0000000000000D+00
404  4.0300000000000D+00  0.0000000000000D+00  0.0000000000000D+00
405  4.0400000000000D+00  0.0000000000000D+00  0.0000000000000D+00
406  4.0500000000000D+00  0.0000000000000D+00  0.0000000000000D+00
407  4.0600000000000D+00  0.0000000000000D+00  0.0000000000000D+00
408  4.0700000000000D+00  0.0000000000000D+00  0.0000000000000D+00
409  4.0800000000000D+00  0.0000000000000D+00  0.0000000000000D+00
410  4.0900000000000D+00  0.0000000000000D+00  0.0000000000000D+00
411  4.1000000000000D+00  0.0000000000000D+00  0.0000000000000D+00
412  4.1100000000000D+00  0.0000000000000D+00  0.0000000000000D+00
413  4.1200000000000D+00  0.0000000000000D+00  0.0000000000000D+00
414  4.1300000000000D+00  0.0000000000000D+00  0.0000000000000D+00
415  4.1400000000000D+00  0.0000000000000D+00  0.0000000000000D+00
416  4.1500000000000D+00  0.0000000000000D+00  0.0000000000000D+00
417  4.1600000000000D+00  0.0000000000000D+00  0.0000000000000D+00
418  4.1700000000000D+00  0.0000000000000D+00  0.0000000000000D+00
419  4.1800000000000D+00  0.0000000000000D+00  0.0000000000000D+00
420  4.1900000000000D+00  0.0000000000000D+00  0.0000000000000D+00
421  4.2000000000000D+00  0.0000000000000D+00  0.0000000000000D+00
422  4.2100000000000D+00  0.0000000000000D+00  0.0000000000000D+00
423  4.2200000000000D+00  0.0000000000000D+00  0.0000000000000D+00
424  4.2300000000000D+00  0.0000000000000D+00  0.0000000000000D+00
425  4.2400000000000D+00  0.0000000000000D+00  0.0000000000000D+00
426  4.2500000000000D+00  0.0000000000000D+00  0.0000000000000D+00
427  4.2600000000000D+00  0.0000000000000D+00  0.0000000000000D+00
428  4.2700000000000D+00  0.0000000000000D+00  0.0000000000000D+00
429  4.2800000000000D+00  0.0000000000000D+00  0.0000000000000D+00
430  4.2900000000000D+00  0.0000000000000D+00  0.0000000000000D+00
431  4.3000000000000D+00  0.0000000000000D+00  0.0000000000000D+00
432  4.3100000000000D+00  0.0000000000000D+00  0.0000000000000D+00
433  4.3200000000000D+00  0.0000000000000D+00  0.0000000000000D+00
434  4.3300000000000D+00  0.0000000000000D+00  0.0000000000000D+00
435  4.3400000000000D+00  0.0000000000000D+00  0.0000000000000D+00
436  4.3500000000000D+00  0.0000000000000D+00  0.0000000000000D+00
437  4.3600000000000D+00  0.0000000000000D+00  0.0000000000000D+00
438  4.3700000000000D+00  0.0000000000000D+00  0.0000000000000D+00
439  4.3800000000000D+00  0.0000000000000D+00  0.0000000000000D+00
440  4.3900000000000D+00  0.0000000000000D+00  0.0000000000000D+00
441  4.4000000000000D+00  0.0000000000000D+00  0.0000000000000D+00
442  4.4100000000000D+00  0.0000000000000D+00  0.0000000000000D+00
443  4.4200000000000D+00  0.0000000000000D+00  0.0000000000000D+00