<?xml version="1.0" encoding="UTF-8" ?>
<psml version="1.0" energy_unit="hartree" length_unit="bohr"
 uuid="02bd13f0-2457-11e7-51b2-84fdfcf9c06b">
<provenance creator="ONCVPSP-3.2.3+psml-51" date="2017-04-18">
<input-file name="oncvpsp-input">
<![CDATA[# atsym z nc nv iexc psfile
Cl 17 3 2 4 psp8
# n l f
1 0 2.0
2 0 2.0
2 1 6.0
3 0 2.0
3 1 5.0
# lmax
2
# l rc ep ncon nbas qcut
0 1.55 0.0 4 9 6.8
1 1.35 0.0 4 8 8.0
2 1.75 0.1 4 9 6.8
# lloc lpopt rc5 dvloc0
4 5 1.3 0.0
# l nproj debl
0 2 2.0
1 2 2.0
2 2 1.5
# icmod fcfact rcfact
3 8.0 1.23
# epsh1 epsh2 depsh
-15.0 12.0 0.02
# rlmax drl
6.0 0.01
 0
]]>
</input-file>
</provenance>
<header atomic-label="Cl" atomic-number="17" z-pseudo="7"
 flavor="Hamann&apos;s oncvpsp" relativity="scalar" polarized="no"
 core-corrections="yes">
<exchange-correlation>
<annotation oncvpsp-xc-code="4" oncvpsp-xc-type="GGA -- Perdew-Burke-Ernzerhof" />
<libxc-info number-of-functionals="2">
<functional name="Perdew, Burke &amp; Ernzerhof (GGA)" type="exchange" id="101" />
<functional name="Perdew, Burke &amp; Ernzerhof (GGA)" type="correlation"
 id="130" />
</libxc-info>
</exchange-correlation>
<valence-configuration total-valence-charge="7">
<shell n="3" l="s" occupation="2" />
<shell n="3" l="p" occupation="5" />
</valence-configuration>
</header>
<grid npts="600">
<annotation type="linear with r=0" oncvpsp-nrl="600"
 oncvpsp-drl="0.100000000000E-01" />
<grid-data>
  0.000000000000E+00  1.000000000000E-02  2.000000000000E-02  3.000000000000E-02
  4.000000000000E-02  5.000000000000E-02  6.000000000000E-02  7.000000000000E-02
  8.000000000000E-02  9.000000000000E-02  1.000000000000E-01  1.100000000000E-01
  1.200000000000E-01  1.300000000000E-01  1.400000000000E-01  1.500000000000E-01
  1.600000000000E-01  1.700000000000E-01  1.800000000000E-01  1.900000000000E-01
  2.000000000000E-01  2.100000000000E-01  2.200000000000E-01  2.300000000000E-01
  2.400000000000E-01  2.500000000000E-01  2.600000000000E-01  2.700000000000E-01
  2.800000000000E-01  2.900000000000E-01  3.000000000000E-01  3.100000000000E-01
  3.200000000000E-01  3.300000000000E-01  3.400000000000E-01  3.500000000000E-01
  3.600000000000E-01  3.700000000000E-01  3.800000000000E-01  3.900000000000E-01
  4.000000000000E-01  4.100000000000E-01  4.200000000000E-01  4.300000000000E-01
  4.400000000000E-01  4.500000000000E-01  4.600000000000E-01  4.700000000000E-01
  4.800000000000E-01  4.900000000000E-01  5.000000000000E-01  5.100000000000E-01
  5.200000000000E-01  5.300000000000E-01  5.400000000000E-01  5.500000000000E-01
  5.600000000000E-01  5.700000000000E-01  5.800000000000E-01  5.900000000000E-01
  6.000000000000E-01  6.100000000000E-01  6.200000000000E-01  6.300000000000E-01
  6.400000000000E-01  6.500000000000E-01  6.600000000000E-01  6.700000000000E-01
  6.800000000000E-01  6.900000000000E-01  7.000000000000E-01  7.100000000000E-01
  7.200000000000E-01  7.300000000000E-01  7.400000000000E-01  7.500000000000E-01
  7.600000000000E-01  7.700000000000E-01  7.800000000000E-01  7.900000000000E-01
  8.000000000000E-01  8.100000000000E-01  8.200000000000E-01  8.300000000000E-01
  8.400000000000E-01  8.500000000000E-01  8.600000000000E-01  8.700000000000E-01
  8.800000000000E-01  8.900000000000E-01  9.000000000000E-01  9.100000000000E-01
  9.200000000000E-01  9.300000000000E-01  9.400000000000E-01  9.500000000000E-01
  9.600000000000E-01  9.700000000000E-01  9.800000000000E-01  9.900000000000E-01
  1.000000000000E+00  1.010000000000E+00  1.020000000000E+00  1.030000000000E+00
  1.040000000000E+00  1.050000000000E+00  1.060000000000E+00  1.070000000000E+00
  1.080000000000E+00  1.090000000000E+00  1.100000000000E+00  1.110000000000E+00
  1.120000000000E+00  1.130000000000E+00  1.140000000000E+00  1.150000000000E+00
  1.160000000000E+00  1.170000000000E+00  1.180000000000E+00  1.190000000000E+00
  1.200000000000E+00  1.210000000000E+00  1.220000000000E+00  1.230000000000E+00
  1.240000000000E+00  1.250000000000E+00  1.260000000000E+00  1.270000000000E+00
  1.280000000000E+00  1.290000000000E+00  1.300000000000E+00  1.310000000000E+00
  1.320000000000E+00  1.330000000000E+00  1.340000000000E+00  1.350000000000E+00
  1.360000000000E+00  1.370000000000E+00  1.380000000000E+00  1.390000000000E+00
  1.400000000000E+00  1.410000000000E+00  1.420000000000E+00  1.430000000000E+00
  1.440000000000E+00  1.450000000000E+00  1.460000000000E+00  1.470000000000E+00
  1.480000000000E+00  1.490000000000E+00  1.500000000000E+00  1.510000000000E+00
  1.520000000000E+00  1.530000000000E+00  1.540000000000E+00  1.550000000000E+00
  1.560000000000E+00  1.570000000000E+00  1.580000000000E+00  1.590000000000E+00
  1.600000000000E+00  1.610000000000E+00  1.620000000000E+00  1.630000000000E+00
  1.640000000000E+00  1.650000000000E+00  1.660000000000E+00  1.670000000000E+00
  1.680000000000E+00  1.690000000000E+00  1.700000000000E+00  1.710000000000E+00
  1.720000000000E+00  1.730000000000E+00  1.740000000000E+00  1.750000000000E+00
  1.760000000000E+00  1.770000000000E+00  1.780000000000E+00  1.790000000000E+00
  1.800000000000E+00  1.810000000000E+00  1.820000000000E+00  1.830000000000E+00
  1.840000000000E+00  1.850000000000E+00  1.860000000000E+00  1.870000000000E+00
  1.880000000000E+00  1.890000000000E+00  1.900000000000E+00  1.910000000000E+00
  1.920000000000E+00  1.930000000000E+00  1.940000000000E+00  1.950000000000E+00
  1.960000000000E+00  1.970000000000E+00  1.980000000000E+00  1.990000000000E+00
  2.000000000000E+00  2.010000000000E+00  2.020000000000E+00  2.030000000000E+00
  2.040000000000E+00  2.050000000000E+00  2.060000000000E+00  2.070000000000E+00
  2.080000000000E+00  2.090000000000E+00  2.100000000000E+00  2.110000000000E+00
  2.120000000000E+00  2.130000000000E+00  2.140000000000E+00  2.150000000000E+00
  2.160000000000E+00  2.170000000000E+00  2.180000000000E+00  2.190000000000E+00
  2.200000000000E+00  2.210000000000E+00  2.220000000000E+00  2.230000000000E+00
  2.240000000000E+00  2.250000000000E+00  2.260000000000E+00  2.270000000000E+00
  2.280000000000E+00  2.290000000000E+00  2.300000000000E+00  2.310000000000E+00
  2.320000000000E+00  2.330000000000E+00  2.340000000000E+00  2.350000000000E+00
  2.360000000000E+00  2.370000000000E+00  2.380000000000E+00  2.390000000000E+00
  2.400000000000E+00  2.410000000000E+00  2.420000000000E+00  2.430000000000E+00
  2.440000000000E+00  2.450000000000E+00  2.460000000000E+00  2.470000000000E+00
  2.480000000000E+00  2.490000000000E+00  2.500000000000E+00  2.510000000000E+00
  2.520000000000E+00  2.530000000000E+00  2.540000000000E+00  2.550000000000E+00
  2.560000000000E+00  2.570000000000E+00  2.580000000000E+00  2.590000000000E+00
  2.600000000000E+00  2.610000000000E+00  2.620000000000E+00  2.630000000000E+00
  2.640000000000E+00  2.650000000000E+00  2.660000000000E+00  2.670000000000E+00
  2.680000000000E+00  2.690000000000E+00  2.700000000000E+00  2.710000000000E+00
  2.720000000000E+00  2.730000000000E+00  2.740000000000E+00  2.750000000000E+00
  2.760000000000E+00  2.770000000000E+00  2.780000000000E+00  2.790000000000E+00
  2.800000000000E+00  2.810000000000E+00  2.820000000000E+00  2.830000000000E+00
  2.840000000000E+00  2.850000000000E+00  2.860000000000E+00  2.870000000000E+00
  2.880000000000E+00  2.890000000000E+00  2.900000000000E+00  2.910000000000E+00
  2.920000000000E+00  2.930000000000E+00  2.940000000000E+00  2.950000000000E+00
  2.960000000000E+00  2.970000000000E+00  2.980000000000E+00  2.990000000000E+00
  3.000000000000E+00  3.010000000000E+00  3.020000000000E+00  3.030000000000E+00
  3.040000000000E+00  3.050000000000E+00  3.060000000000E+00  3.070000000000E+00
  3.080000000000E+00  3.090000000000E+00  3.100000000000E+00  3.110000000000E+00
  3.120000000000E+00  3.130000000000E+00  3.140000000000E+00  3.150000000000E+00
  3.160000000000E+00  3.170000000000E+00  3.180000000000E+00  3.190000000000E+00
  3.200000000000E+00  3.210000000000E+00  3.220000000000E+00  3.230000000000E+00
  3.240000000000E+00  3.250000000000E+00  3.260000000000E+00  3.270000000000E+00
  3.280000000000E+00  3.290000000000E+00  3.300000000000E+00  3.310000000000E+00
  3.320000000000E+00  3.330000000000E+00  3.340000000000E+00  3.350000000000E+00
  3.360000000000E+00  3.370000000000E+00  3.380000000000E+00  3.390000000000E+00
  3.400000000000E+00  3.410000000000E+00  3.420000000000E+00  3.430000000000E+00
  3.440000000000E+00  3.450000000000E+00  3.460000000000E+00  3.470000000000E+00
  3.480000000000E+00  3.490000000000E+00  3.500000000000E+00  3.510000000000E+00
  3.520000000000E+00  3.530000000000E+00  3.540000000000E+00  3.550000000000E+00
  3.560000000000E+00  3.570000000000E+00  3.580000000000E+00  3.590000000000E+00
  3.600000000000E+00  3.610000000000E+00  3.620000000000E+00  3.630000000000E+00
  3.640000000000E+00  3.650000000000E+00  3.660000000000E+00  3.670000000000E+00
  3.680000000000E+00  3.690000000000E+00  3.700000000000E+00  3.710000000000E+00
  3.720000000000E+00  3.730000000000E+00  3.740000000000E+00  3.750000000000E+00
  3.760000000000E+00  3.770000000000E+00  3.780000000000E+00  3.790000000000E+00
  3.800000000000E+00  3.810000000000E+00  3.820000000000E+00  3.830000000000E+00
  3.840000000000E+00  3.850000000000E+00  3.860000000000E+00  3.870000000000E+00
  3.880000000000E+00  3.890000000000E+00  3.900000000000E+00  3.910000000000E+00
  3.920000000000E+00  3.930000000000E+00  3.940000000000E+00  3.950000000000E+00
  3.960000000000E+00  3.970000000000E+00  3.980000000000E+00  3.990000000000E+00
  4.000000000000E+00  4.010000000000E+00  4.020000000000E+00  4.030000000000E+00
  4.040000000000E+00  4.050000000000E+00  4.060000000000E+00  4.070000000000E+00
  4.080000000000E+00  4.090000000000E+00  4.100000000000E+00  4.110000000000E+00
  4.120000000000E+00  4.130000000000E+00  4.140000000000E+00  4.150000000000E+00
  4.160000000000E+00  4.170000000000E+00  4.180000000000E+00  4.190000000000E+00
  4.200000000000E+00  4.210000000000E+00  4.220000000000E+00  4.230000000000E+00
  4.240000000000E+00  4.250000000000E+00  4.260000000000E+00  4.270000000000E+00
  4.280000000000E+00  4.290000000000E+00  4.300000000000E+00  4.310000000000E+00
  4.320000000000E+00  4.330000000000E+00  4.340000000000E+00  4.350000000000E+00
  4.360000000000E+00  4.370000000000E+00  4.380000000000E+00  4.390000000000E+00
  4.400000000000E+00  4.410000000000E+00  4.420000000000E+00  4.430000000000E+00
  4.440000000000E+00  4.450000000000E+00  4.460000000000E+00  4.470000000000E+00
  4.480000000000E+00  4.490000000000E+00  4.500000000000E+00  4.510000000000E+00
  4.520000000000E+00  4.530000000000E+00  4.540000000000E+00  4.550000000000E+00
  4.560000000000E+00  4.570000000000E+00  4.580000000000E+00  4.590000000000E+00
  4.600000000000E+00  4.610000000000E+00  4.620000000000E+00  4.630000000000E+00
  4.640000000000E+00  4.650000000000E+00  4.660000000000E+00  4.670000000000E+00
  4.680000000000E+00  4.690000000000E+00  4.700000000000E+00  4.710000000000E+00
  4.720000000000E+00  4.730000000000E+00  4.740000000000E+00  4.750000000000E+00
  4.760000000000E+00  4.770000000000E+00  4.780000000000E+00  4.790000000000E+00
  4.800000000000E+00  4.810000000000E+00  4.820000000000E+00  4.830000000000E+00
  4.840000000000E+00  4.850000000000E+00  4.860000000000E+00  4.870000000000E+00
  4.880000000000E+00  4.890000000000E+00  4.900000000000E+00  4.910000000000E+00
  4.920000000000E+00  4.930000000000E+00  4.940000000000E+00  4.950000000000E+00
  4.960000000000E+00  4.970000000000E+00  4.980000000000E+00  4.990000000000E+00
  5.000000000000E+00  5.010000000000E+00  5.020000000000E+00  5.030000000000E+00
  5.040000000000E+00  5.050000000000E+00  5.060000000000E+00  5.070000000000E+00
  5.080000000000E+00  5.090000000000E+00  5.100000000000E+00  5.110000000000E+00
  5.120000000000E+00  5.130000000000E+00  5.140000000000E+00  5.150000000000E+00
  5.160000000000E+00  5.170000000000E+00  5.180000000000E+00  5.190000000000E+00
  5.200000000000E+00  5.210000000000E+00  5.220000000000E+00  5.230000000000E+00
  5.240000000000E+00  5.250000000000E+00  5.260000000000E+00  5.270000000000E+00
  5.280000000000E+00  5.290000000000E+00  5.300000000000E+00  5.310000000000E+00
  5.320000000000E+00  5.330000000000E+00  5.340000000000E+00  5.350000000000E+00
  5.360000000000E+00  5.370000000000E+00  5.380000000000E+00  5.390000000000E+00
  5.400000000000E+00  5.410000000000E+00  5.420000000000E+00  5.430000000000E+00
  5.440000000000E+00  5.450000000000E+00  5.460000000000E+00  5.470000000000E+00
  5.480000000000E+00  5.490000000000E+00  5.500000000000E+00  5.510000000000E+00
  5.520000000000E+00  5.530000000000E+00  5.540000000000E+00  5.550000000000E+00
  5.560000000000E+00  5.570000000000E+00  5.580000000000E+00  5.590000000000E+00
  5.600000000000E+00  5.610000000000E+00  5.620000000000E+00  5.630000000000E+00
  5.640000000000E+00  5.650000000000E+00  5.660000000000E+00  5.670000000000E+00
  5.680000000000E+00  5.690000000000E+00  5.700000000000E+00  5.710000000000E+00
  5.720000000000E+00  5.730000000000E+00  5.740000000000E+00  5.750000000000E+00
  5.760000000000E+00  5.770000000000E+00  5.780000000000E+00  5.790000000000E+00
  5.800000000000E+00  5.810000000000E+00  5.820000000000E+00  5.830000000000E+00
  5.840000000000E+00  5.850000000000E+00  5.860000000000E+00  5.870000000000E+00
  5.880000000000E+00  5.890000000000E+00  5.900000000000E+00  5.910000000000E+00
  5.920000000000E+00  5.930000000000E+00  5.940000000000E+00  5.950000000000E+00
  5.960000000000E+00  5.970000000000E+00  5.980000000000E+00  5.990000000000E+00
</grid-data>
</grid>
<semilocal-potentials set="scalar_relativistic">
<slps n="3" l="s" rc="1.56008580902" flavor="Hamann&apos;s oncvpsp">
<radfunc>
<data>
  2.957555319362E+01  2.952373613371E+01  2.936906807257E+01  2.911388060297E+01
  2.876196232223E+01  2.831842355965E+01  2.778951822319E+01  2.718243511838E+01
  2.650507109254E+01  2.576579839375E+01  2.497323767748E+01  2.413604636679E+01
  2.326272985250E+01  2.236148059486E+01  2.144004781306E+01  2.050563832281E+01
  1.956484733288E+01  1.862361670171E+01  1.768721728709E+01  1.676025155675E+01
  1.584667250009E+01  1.494981501257E+01  1.407243623821E+01  1.321676178019E+01
  1.238453516774E+01  1.157706845320E+01  1.079529227521E+01  1.003980414187E+01
  9.310914050493E+00  8.608686864697E+00  7.932981115792E+00  7.283484088899E+00
  6.659743200295E+00  6.061193778903E+00  5.487183438060E+00  4.936993270542E+00
  4.409856125953E+00  3.904972240197E+00  3.421522485793E+00  2.958679503014E+00
  2.515616957453E+00  2.091517152238E+00  1.685577203881E+00  1.297013971026E+00
  9.250679059606E-01  5.690059801182E-01  2.281238173396E-01 -9.825284729418E-02
 -4.107672799547E-01 -7.100313417309E-01 -9.966254851248E-01 -1.271099085282E+00
 -1.533971046554E+00 -1.785730633968E+00 -2.026838484259E+00 -2.257727758835E+00
 -2.478805405021E+00 -2.690453496726E+00 -2.893030629447E+00 -3.086873347713E+00
 -3.272297585962E+00 -3.449600106233E+00 -3.619059918244E+00 -3.780939669343E+00
 -3.935486993539E+00 -4.082935810465E+00 -4.223507566630E+00 -4.357412412807E+00
 -4.484850312884E+00 -4.606012080968E+00 -4.721080344943E+00 -4.830230436255E+00
 -4.933631207032E+00 -5.031445777047E+00 -5.123832214341E+00 -5.210944154310E+00
 -5.292931362926E+00 -5.369940250225E+00 -5.442114340239E+00 -5.509594703098E+00
 -5.572520354110E+00 -5.631028623129E+00 -5.685255495471E+00 -5.735335923426E+00
 -5.781404104668E+00 -5.823593721391E+00 -5.862038131595E+00 -5.896870502259E+00
 -5.928223873155E+00 -5.956231140281E+00 -5.981024949409E+00 -6.002737492981E+00
 -6.021500207716E+00 -6.037443375325E+00 -6.050695634423E+00 -6.061383417542E+00
 -6.069630332443E+00 -6.075556511345E+00 -6.079277954540E+00 -6.080905896023E+00
 -6.080546217932E+00 -6.078298938254E+00 -6.074257792001E+00 -6.068509921094E+00
 -6.061135682447E+00 -6.052208578094E+00 -6.041795305815E+00 -6.029955924529E+00
 -6.016744124677E+00 -6.002207591805E+00 -5.986388449994E+00 -5.969323771312E+00
 -5.951046137520E+00 -5.931584241153E+00 -5.910963513990E+00 -5.889206772132E+00
 -5.866334867839E+00 -5.842367339676E+00 -5.817323053198E+00 -5.791220825235E+00
 -5.764080025513E+00 -5.735921149931E+00 -5.706766360249E+00 -5.676639985166E+00
 -5.645568978406E+00 -5.613583329615E+00 -5.580716424137E+00 -5.547005348213E+00
 -5.512491136000E+00 -5.477218961337E+00 -5.441238255999E+00 -5.404602738675E+00
 -5.367370528770E+00 -5.329603967922E+00 -5.291369672113E+00 -5.252736048088E+00
 -5.213772174943E+00 -5.174546883696E+00 -5.135132978824E+00 -5.095611562990E+00
 -5.056068145781E+00 -5.016590210517E+00 -4.977263157113E+00 -4.938171930694E+00
 -4.899402742506E+00 -4.861040311582E+00 -4.823166924271E+00 -4.785862259156E+00
 -4.749202540393E+00 -4.713259725745E+00 -4.678100826988E+00 -4.643788971681E+00
 -4.610375509076E+00 -4.577895972043E+00 -4.546427998272E+00 -4.516028561327E+00
 -4.486575185074E+00 -4.457851496849E+00 -4.429618011106E+00 -4.401700232266E+00
 -4.374113522112E+00 -4.346902155547E+00 -4.320044394162E+00 -4.293524137031E+00
 -4.267338123996E+00 -4.241479896871E+00 -4.215942340769E+00 -4.190718643417E+00
 -4.165802343809E+00 -4.141187102784E+00 -4.116866701359E+00 -4.092835093057E+00
 -4.069086402893E+00 -4.045614921625E+00 -4.022415107176E+00 -3.999481585115E+00
 -3.976809147776E+00 -3.954392752840E+00 -3.932227521392E+00 -3.910308735388E+00
 -3.888631834644E+00 -3.867192413328E+00 -3.845986216042E+00 -3.825009133501E+00
 -3.804257197871E+00 -3.783726577806E+00 -3.763413573216E+00 -3.743314609828E+00
 -3.723426233576E+00 -3.703745104857E+00 -3.684267992688E+00 -3.664991768805E+00
 -3.645913401810E+00 -3.627029951340E+00 -3.608338562279E+00 -3.589836459044E+00
 -3.571520940067E+00 -3.553389372456E+00 -3.535439186828E+00 -3.517667872398E+00
 -3.500072972266E+00 -3.482652079050E+00 -3.465402830754E+00 -3.448322906969E+00
 -3.431410025399E+00 -3.414661938669E+00 -3.398076431537E+00 -3.381651318360E+00
 -3.365384440948E+00 -3.349273666726E+00 -3.333316887186E+00 -3.317512016710E+00
 -3.301856991609E+00 -3.286349769502E+00 -3.270988328923E+00 -3.255770669158E+00
 -3.240694810332E+00 -3.225758793650E+00 -3.210960681824E+00 -3.196298559648E+00
 -3.181770534676E+00 -3.167374737990E+00 -3.153109325043E+00 -3.138972476536E+00
 -3.124962399296E+00 -3.111077327200E+00 -3.097315522001E+00 -3.083675274133E+00
 -3.070154903489E+00 -3.056752760030E+00 -3.043467224392E+00 -3.030296708345E+00
 -3.017239655087E+00 -3.004294539526E+00 -2.991459868333E+00 -2.978734179880E+00
 -2.966116044137E+00 -2.953604062311E+00 -2.941196866435E+00 -2.928893118862E+00
 -2.916691511569E+00 -2.904590765417E+00 -2.892589629320E+00 -2.880686879297E+00
 -2.868881317486E+00 -2.857171771098E+00 -2.845557091324E+00 -2.834036152206E+00
 -2.822607849512E+00 -2.811271099608E+00 -2.800024838313E+00 -2.788868019805E+00
 -2.777799615580E+00 -2.766818613397E+00 -2.755924016320E+00 -2.745114841859E+00
 -2.734390121085E+00 -2.723748897893E+00 -2.713190228366E+00 -2.702713180140E+00
 -2.692316831905E+00 -2.682000273022E+00 -2.671762603157E+00 -2.661602932012E+00
 -2.651520379189E+00 -2.641514074060E+00 -2.631583155713E+00 -2.621726772993E+00
 -2.611944084572E+00 -2.602234259046E+00 -2.592596475092E+00 -2.583029921641E+00
 -2.573533798084E+00 -2.564107314452E+00 -2.554749691614E+00 -2.545460161507E+00
 -2.536237967289E+00 -2.527082363483E+00 -2.517992616131E+00 -2.508968002916E+00
 -2.500007813167E+00 -2.491111347888E+00 -2.482277919816E+00 -2.473506853268E+00
 -2.464797484078E+00 -2.456149159377E+00 -2.447561237464E+00 -2.439033087242E+00
 -2.430564088591E+00 -2.422153633017E+00 -2.413801121030E+00 -2.405505962911E+00
 -2.397267575674E+00 -2.389085385454E+00 -2.380958835234E+00 -2.372887367404E+00
 -2.364870417280E+00 -2.356907449062E+00 -2.348997883343E+00 -2.341141333313E+00
 -2.333337370275E+00 -2.325585586351E+00 -2.317885492252E+00 -2.310236347651E+00
 -2.302637491995E+00 -2.295088176603E+00 -2.287587952239E+00 -2.280136428939E+00
 -2.272733218378E+00 -2.265378002942E+00 -2.258070261053E+00 -2.250809536849E+00
 -2.243595359041E+00 -2.236427266302E+00 -2.229304831824E+00 -2.222227619748E+00
 -2.215195200752E+00 -2.208207150352E+00 -2.201263049583E+00 -2.194362485392E+00
 -2.187505050800E+00 -2.180690342268E+00 -2.173917961616E+00 -2.167187515693E+00
 -2.160498616135E+00 -2.153850879497E+00 -2.147243926983E+00 -2.140677384431E+00
 -2.134150882244E+00 -2.127664055314E+00 -2.121216542962E+00 -2.114807988866E+00
 -2.108438040996E+00 -2.102106351553E+00 -2.095812576901E+00 -2.089556377506E+00
 -2.083337417879E+00 -2.077155366511E+00 -2.071009895816E+00 -2.064900682074E+00
 -2.058827405371E+00 -2.052789749549E+00 -2.046787402146E+00 -2.040820054343E+00
 -2.034887400911E+00 -2.028989140164E+00 -2.023124973898E+00 -2.017294607350E+00
 -2.011497749144E+00 -2.005734111243E+00 -2.000003408903E+00 -1.994305360623E+00
 -1.988639688101E+00 -1.983006116190E+00 -1.977404372850E+00 -1.971834189107E+00
 -1.966295299010E+00 -1.960787439586E+00 -1.955310350800E+00 -1.949863775516E+00
 -1.944447459453E+00 -1.939061151149E+00 -1.933704601919E+00 -1.928377565820E+00
 -1.923079799609E+00 -1.917811062711E+00 -1.912571117178E+00 -1.907359727657E+00
 -1.902176661353E+00 -1.897021687993E+00 -1.891894579794E+00 -1.886795111430E+00
 -1.881723059995E+00 -1.876678204975E+00 -1.871660328216E+00 -1.866669213888E+00
 -1.861704648458E+00 -1.856766420658E+00 -1.851854321457E+00 -1.846968144028E+00
 -1.842107683724E+00 -1.837272738043E+00 -1.832463106605E+00 -1.827678591123E+00
 -1.822918995374E+00 -1.818184125176E+00 -1.813473788357E+00 -1.808787794732E+00
 -1.804125956075E+00 -1.799488086099E+00 -1.794874000425E+00 -1.790283516560E+00
 -1.785716453874E+00 -1.781172633575E+00 -1.776651878686E+00 -1.772154014022E+00
 -1.767678866170E+00 -1.763226263459E+00 -1.758796035948E+00 -1.754388015398E+00
 -1.750002035252E+00 -1.745637930615E+00 -1.741295538231E+00 -1.736974696467E+00
 -1.732675245288E+00 -1.728397026242E+00 -1.724139882436E+00 -1.719903658519E+00
 -1.715688200665E+00 -1.711493356550E+00 -1.707318975337E+00 -1.703164907657E+00
 -1.699031005592E+00 -1.694917122656E+00 -1.690823113777E+00 -1.686748835284E+00
 -1.682694144885E+00 -1.678658901653E+00 -1.674642966013E+00 -1.670646199718E+00
 -1.666668465839E+00 -1.662709628751E+00 -1.658769554110E+00 -1.654848108845E+00
 -1.650945161141E+00 -1.647060580421E+00 -1.643194237337E+00 -1.639346003750E+00
 -1.635515752722E+00 -1.631703358495E+00 -1.627908696483E+00 -1.624131643255E+00
 -1.620372076525E+00 -1.616629875135E+00 -1.612904919043E+00 -1.609197089313E+00
 -1.605506268098E+00 -1.601832338632E+00 -1.598175185214E+00 -1.594534693198E+00
 -1.590910748978E+00 -1.587303239982E+00 -1.583712054655E+00 -1.580137082448E+00
 -1.576578213810E+00 -1.573035340175E+00 -1.569508353949E+00 -1.565997148502E+00
 -1.562501618156E+00 -1.559021658174E+00 -1.555557164751E+00 -1.552108035001E+00
 -1.548674166950E+00 -1.545255459525E+00 -1.541851812542E+00 -1.538463126698E+00
 -1.535089303562E+00 -1.531730245565E+00 -1.528385855988E+00 -1.525056038958E+00
 -1.521740699432E+00 -1.518439743195E+00 -1.515153076847E+00 -1.511880607793E+00
 -1.508622244239E+00 -1.505377895178E+00 -1.502147470387E+00 -1.498930880414E+00
 -1.495728036573E+00 -1.492538850932E+00 -1.489363236309E+00 -1.486201106264E+00
 -1.483052375086E+00 -1.479916957793E+00 -1.476794770116E+00 -1.473685728499E+00
 -1.470589750086E+00 -1.467506752718E+00 -1.464436654921E+00 -1.461379375904E+00
 -1.458334835547E+00 -1.455302954398E+00 -1.452283653664E+00 -1.449276855203E+00
 -1.446282481522E+00 -1.443300455764E+00 -1.440330701707E+00 -1.437373143754E+00
 -1.434427706927E+00 -1.431494316862E+00 -1.428572899803E+00 -1.425663382594E+00
 -1.422765692674E+00 -1.419879758070E+00 -1.417005507393E+00 -1.414142869830E+00
 -1.411291775140E+00 -1.408452153646E+00 -1.405623936233E+00 -1.402807054337E+00
 -1.400001439946E+00 -1.397207025588E+00 -1.394423744330E+00 -1.391651529771E+00
 -1.388890316038E+00 -1.386140037778E+00 -1.383400630156E+00 -1.380672028849E+00
 -1.377954170038E+00 -1.375246990409E+00 -1.372550427141E+00 -1.369864417909E+00
 -1.367188900870E+00 -1.364523814668E+00 -1.361869098421E+00 -1.359224691722E+00
 -1.356590534631E+00 -1.353966567672E+00 -1.351352731828E+00 -1.348748968540E+00
 -1.346155219694E+00 -1.343571427627E+00 -1.340997535115E+00 -1.338433485373E+00
 -1.335879222049E+00 -1.333334689221E+00 -1.330799831391E+00 -1.328274593484E+00
 -1.325758920840E+00 -1.323252759215E+00 -1.320756054773E+00 -1.318268754082E+00
 -1.315790804115E+00 -1.313322152241E+00 -1.310862746223E+00 -1.308412534215E+00
 -1.305971464759E+00 -1.303539486779E+00 -1.301116549578E+00 -1.298702602839E+00
 -1.296297596612E+00 -1.293901481321E+00 -1.291514207755E+00 -1.289135727064E+00
 -1.286765990758E+00 -1.284404950703E+00 -1.282052559117E+00 -1.279708768569E+00
 -1.277373531973E+00 -1.275046802586E+00 -1.272728534005E+00 -1.270418680165E+00
 -1.268117195333E+00 -1.265824034109E+00 -1.263539151418E+00 -1.261262502512E+00
 -1.258994042964E+00 -1.256733728667E+00 -1.254481515830E+00 -1.252237360974E+00
 -1.250001220932E+00 -1.247773052844E+00 -1.245552814155E+00 -1.243340462613E+00
 -1.241135956266E+00 -1.238939253458E+00 -1.236750312827E+00 -1.234569093305E+00
 -1.232395554110E+00 -1.230229654750E+00 -1.228071355015E+00 -1.225920614977E+00
 -1.223777394989E+00 -1.221641655677E+00 -1.219513357945E+00 -1.217392462968E+00
 -1.215278932189E+00 -1.213172727321E+00 -1.211073810339E+00 -1.208982143484E+00
 -1.206897689254E+00 -1.204820410408E+00 -1.202750269959E+00 -1.200687231175E+00
 -1.198631257576E+00 -1.196582312928E+00 -1.194540361249E+00 -1.192505366800E+00
 -1.190477294084E+00 -1.188456107847E+00 -1.186441773074E+00 -1.184434254985E+00
 -1.182433519037E+00 -1.180439530919E+00 -1.178452256552E+00 -1.176471662084E+00
 -1.174497713894E+00 -1.172530378581E+00 -1.170569622972E+00 -1.168615414114E+00
</data>
</radfunc>
</slps>
<slps n="3" l="p" rc="1.35201757277" flavor="Hamann&apos;s oncvpsp">
<radfunc>
<data>
 -4.230016627909E+00 -4.230487827277E+00 -4.231902953456E+00 -4.234266577617E+00
 -4.237586222863E+00 -4.241872226034E+00 -4.247137545851E+00 -4.253397520911E+00
 -4.260669581070E+00 -4.268972916334E+00 -4.278328107982E+00 -4.288756727117E+00
 -4.300280906305E+00 -4.312922890254E+00 -4.326704571782E+00 -4.341647019418E+00
 -4.357770003077E+00 -4.375091524197E+00 -4.393627356579E+00 -4.413390603975E+00
 -4.434391280167E+00 -4.456635916885E+00 -4.480127204479E+00 -4.504863669779E+00
 -4.530839394969E+00 -4.558043780744E+00 -4.586461356395E+00 -4.616071638779E+00
 -4.646849041489E+00 -4.678762834890E+00 -4.711777157001E+00 -4.745851074556E+00
 -4.780938693020E+00 -4.816989313664E+00 -4.853947635356E+00 -4.891753998158E+00
 -4.930344665432E+00 -4.969652140731E+00 -5.009605515502E+00 -5.050130843270E+00
 -5.091151535886E+00 -5.132588777225E+00 -5.174361949691E+00 -5.216389068881E+00
 -5.258587221803E+00 -5.300873004178E+00 -5.343162952530E+00 -5.385373966905E+00
 -5.427423720423E+00 -5.469231052007E+00 -5.510716339055E+00 -5.551801847124E+00
 -5.592412053648E+00 -5.632473944149E+00 -5.671917277955E+00 -5.710674822548E+00
 -5.748682554869E+00 -5.785879828567E+00 -5.822209506500E+00 -5.857618057993E+00
 -5.892055620709E+00 -5.925476027239E+00 -5.957836796812E+00 -5.989099092914E+00
 -6.019227647856E+00 -6.048190655849E+00 -6.075959636518E+00 -6.102509271352E+00
 -6.127817216160E+00 -6.151863893283E+00 -6.174632267974E+00 -6.196107614139E+00
 -6.216277275362E+00 -6.235130427782E+00 -6.252657852045E+00 -6.268851721888E+00
 -6.283705417081E+00 -6.297213368264E+00 -6.309370940576E+00 -6.320174361861E+00
 -6.329620699633E+00 -6.337707888816E+00 -6.344434809579E+00 -6.349801411694E+00
 -6.353808878487E+00 -6.356459820360E+00 -6.357758484856E+00 -6.357710968005E+00
 -6.356325410222E+00 -6.353612159716E+00 -6.349583887565E+00 -6.344255640891E+00
 -6.337644824501E+00 -6.329771106117E+00 -6.320656245875E+00 -6.310323856541E+00
 -6.298799106181E+00 -6.286108379552E+00 -6.272278917518E+00 -6.257338455221E+00
 -6.241314879290E+00 -6.224235922392E+00 -6.206128909824E+00 -6.187020568314E+00
 -6.166936902270E+00 -6.145903137651E+00 -6.123943729147E+00 -6.101082422855E+00
 -6.077342363565E+00 -6.052746234577E+00 -6.027316417318E+00 -6.001075158461E+00
 -5.974044733144E+00 -5.946247594732E+00 -5.917706503265E+00 -5.888444626756E+00
 -5.858485611075E+00 -5.827853616452E+00 -5.796573319802E+00 -5.764669883425E+00
 -5.732168891826E+00 -5.699096259376E+00 -5.665478112122E+00 -5.631340647517E+00
 -5.596709976540E+00 -5.561611952672E+00 -5.526071992419E+00 -5.490114892266E+00
 -5.453764646025E+00 -5.417044273140E+00 -5.379975646314E+00 -5.342577386543E+00
 -5.304874375681E+00 -5.266892356472E+00 -5.228582095446E+00 -5.190046373515E+00
 -5.151590810691E+00 -5.113548390437E+00 -5.076128536672E+00 -5.039274663145E+00
 -5.002935782651E+00 -4.967126037192E+00 -4.931834459963E+00 -4.897048964040E+00
 -4.862760450003E+00 -4.828959500139E+00 -4.795636274560E+00 -4.762781100315E+00
 -4.730384391955E+00 -4.698436599520E+00 -4.666928271217E+00 -4.635850079423E+00
 -4.605192794350E+00 -4.574947359774E+00 -4.545104769391E+00 -4.515656555088E+00
 -4.486595563202E+00 -4.457915768880E+00 -4.429612715917E+00 -4.401681529297E+00
 -4.374115093971E+00 -4.346905455038E+00 -4.320044360803E+00 -4.293524086061E+00
 -4.267338123996E+00 -4.241479896871E+00 -4.215942340769E+00 -4.190718643417E+00
 -4.165802343809E+00 -4.141187102784E+00 -4.116866701359E+00 -4.092835093057E+00
 -4.069086402893E+00 -4.045614921625E+00 -4.022415107176E+00 -3.999481585115E+00
 -3.976809147776E+00 -3.954392752840E+00 -3.932227521392E+00 -3.910308735388E+00
 -3.888631834644E+00 -3.867192413328E+00 -3.845986216042E+00 -3.825009133501E+00
 -3.804257197871E+00 -3.783726577806E+00 -3.763413573216E+00 -3.743314609828E+00
 -3.723426233576E+00 -3.703745104857E+00 -3.684267992688E+00 -3.664991768805E+00
 -3.645913401810E+00 -3.627029951340E+00 -3.608338562279E+00 -3.589836459044E+00