Ir    ONCVPSP  r_core=  1.41  1.36  1.46  1.77
77.0000     31.0000      140820    zatom,zion,pspd
8    11     3     4   601     0    pspcod,pspxc,lmax,lloc,mmax,r2well
6.00000000  0.50000000  0.00000000    rchrg fchrg qchrg
2     2     2     2     0    nproj
0                 extension_switch
0                         1.6951698488532D+01  1.8133391924008D+00
1  0.0000000000000D+00 -0.0000000000000D+00  0.0000000000000D+00
2  1.0000000000000D-02 -6.2231605063873D-02  7.7856642114837D-03
3  2.0000000000000D-02 -1.2441666494439D-01  1.5662429741962D-02
4  3.0000000000000D-02 -1.8650795803229D-01  2.3719344538689D-02
5  4.0000000000000D-02 -2.4845691916931D-01  3.2041374098590D-02
6  5.0000000000000D-02 -3.1021299103820D-01  4.0707420737409D-02
7  6.0000000000000D-02 -3.7172300309202D-01  4.9788414788119D-02
8  7.0000000000000D-02 -4.3293058677260D-01  5.9345500597671D-02
9  8.0000000000000D-02 -4.9377563540923D-01  6.9428339268845D-02
10  9.0000000000000D-02 -5.5419381673678D-01  8.0073548929237D-02
11  1.0000000000000D-01 -6.1411614544645D-01  9.1303301954008D-02
12  1.1000000000000D-01 -6.7346862258247D-01  1.0312409702802D-01
13  1.2000000000000D-01 -7.3217194791005D-01  1.1552572215118D-01
14  1.3000000000000D-01 -7.9014131065160D-01  1.2848042281959D-01
15  1.4000000000000D-01 -8.4728626319293D-01  1.4194228757586D-01
16  1.5000000000000D-01 -9.0351068147623D-01  1.5584686078918D-01
17  1.6000000000000D-01 -9.5871281496596D-01  1.7011099048321D-01
18  1.7000000000000D-01 -1.0127854280615D+00  1.8463291626877D-01
19  1.8000000000000D-01 -1.0656160339270D+00  1.9929260029484D-01
20  1.9000000000000D-01 -1.1170872208191D+00  2.1395230148589D-01
21  2.0000000000000D-01 -1.1670770695124D+00  2.2845739032726D-01
22  2.1000000000000D-01 -1.2154596607015D+00  2.4263740049830D-01
23  2.2000000000000D-01 -1.2621056681356D+00  2.5630730810865D-01
24  2.3000000000000D-01 -1.3068830348742D+00  2.6926903074560D-01
25  2.4000000000000D-01 -1.3496577260900D+00  2.8131313078883D-01
26  2.5000000000000D-01 -1.3902945560192D+00  2.9222071539041D-01
27  2.6000000000000D-01 -1.4286580760977D+00  3.0176550271319D-01
28  2.7000000000000D-01 -1.4646135266488D+00  3.0971605675626D-01
29  2.8000000000000D-01 -1.4980278318331D+00  3.1583814323080D-01
30  2.9000000000000D-01 -1.5287706397353D+00  3.1989720761379D-01
31  3.0000000000000D-01 -1.5567153928271D+00  3.2166093949746D-01
32  3.1000000000000D-01 -1.5817404199364D+00  3.2090190011558D-01
33  3.2000000000000D-01 -1.6037300350332D+00  3.1740017622590D-01
34  3.3000000000000D-01 -1.6225756444562D+00  3.1094606195798D-01
35  3.4000000000000D-01 -1.6381768448612D+00  3.0134272506041D-01
36  3.5000000000000D-01 -1.6504424720970D+00  2.8840876015801D-01
37  3.6000000000000D-01 -1.6592916733610D+00  2.7198079995105D-01
38  3.7000000000000D-01 -1.6646548771911D+00  2.5191588299555D-01
39  3.8000000000000D-01 -1.6664747251972D+00  2.2809372839302D-01
40  3.9000000000000D-01 -1.6647069901672D+00  2.0041897605167D-01
41  4.0000000000000D-01 -1.6593213389091D+00  1.6882305005340D-01
42  4.1000000000000D-01 -1.6503020618343D+00  1.3326593727248D-01
43  4.2000000000000D-01 -1.6376486979693D+00  9.3737708638960D-02
44  4.3000000000000D-01 -1.6213765584607D+00  5.0259789377994D-02
45  4.4000000000000D-01 -1.6015171414862D+00  2.8859603688605D-03
46  4.5000000000000D-01 -1.5781184321738D+00 -4.8296925348975D-02
47  4.6000000000000D-01 -1.5512450818785D+00 -1.0316852487599D-01
48  4.7000000000000D-01 -1.5209784620958D+00 -1.6157489801565D-01
49  4.8000000000000D-01 -1.4874165784454D+00 -2.2332874463685D-01
50  4.9000000000000D-01 -1.4506739023274D+00 -2.8820984882940D-01
51  5.0000000000000D-01 -1.4108810099676D+00 -3.5596599374057D-01
52  5.1000000000000D-01 -1.3681841076617D+00 -4.2631415550348D-01
53  5.2000000000000D-01 -1.3227444544181D+00 -4.9894194917291D-01
54  5.3000000000000D-01 -1.2747376417012D+00 -5.7350942700614D-01
55  5.4000000000000D-01 -1.2243527346459D+00 -6.4965120015216D-01
56  5.5000000000000D-01 -1.1717913155443D+00 -7.2697881073146D-01
57  5.6000000000000D-01 -1.1172664117649D+00 -8.0508336465446D-01
58  5.7000000000000D-01 -1.0610013154599D+00 -8.8353842990920D-01
59  5.8000000000000D-01 -1.0032283127828D+00 -9.6190313872531D-01
60  5.9000000000000D-01 -9.4418729544790D-01 -1.0397255674085D+00
61  6.0000000000000D-01 -8.8412443525431D-01 -1.1165459398165D+00
62  6.1000000000000D-01 -8.2329043617464D-01 -1.1919008517369D+00
63  6.2000000000000D-01 -7.6193939086578D-01 -1.2653259885901D+00
64  6.3000000000000D-01 -7.0032672352509D-01 -1.3363610531573D+00
65  6.4000000000000D-01 -6.3870783219658D-01 -1.4045529556209D+00
66  6.5000000000000D-01 -5.7733667706252D-01 -1.4694591178925D+00
67  6.6000000000000D-01 -5.1646358364563D-01 -1.5306526288593D+00
68  6.7000000000000D-01 -4.5633401721342D-01 -1.5877250247576D+00
69  6.8000000000000D-01 -3.9718702796275D-01 -1.6402898295598D+00
70  6.9000000000000D-01 -3.3925381629141D-01 -1.6879857733814D+00
71  7.0000000000000D-01 -2.8275558718990D-01 -1.7304816219592D+00
72  7.1000000000000D-01 -2.2790282683740D-01 -1.7674776157462D+00
73  7.2000000000000D-01 -1.7489376270737D-01 -1.7987087810479D+00
74  7.3000000000000D-01 -1.2391312205120D-01 -1.8239474830182D+00
75  7.4000000000000D-01 -7.5131177128860D-02 -1.8430052710010D+00
76  7.5000000000000D-01 -2.8702207315241D-02 -1.8557359601913D+00
77  7.6000000000000D-01  1.5235967378091D-02 -1.8620362254832D+00
78  7.7000000000000D-01  5.6562777617338D-02 -1.8618468713006D+00
79  7.8000000000000D-01  9.5175573048711D-02 -1.8551537486550D+00
80  7.9000000000000D-01  1.3099009772808D-01 -1.8419881687988D+00
81  8.0000000000000D-01  1.6394081603416D-01 -1.8224269127043D+00
82  8.1000000000000D-01  1.9398108646321D-01 -1.7965918330312D+00
83  8.2000000000000D-01  2.2108318218052D-01 -1.7646490493592D+00
84  8.3000000000000D-01  2.4523815867578D-01 -1.7268077415459D+00
85  8.4000000000000D-01  2.6645557032289D-01 -1.6833185500954D+00
86  8.5000000000000D-01  2.8476303906932D-01 -1.6344715963536D+00
87  8.6000000000000D-01  3.0020567986926D-01 -1.5805941391762D+00
88  8.7000000000000D-01  3.1284538882387D-01 -1.5220478884128D+00
89  8.8000000000000D-01  3.2276000129940D-01 -1.4592259991327D+00
90  8.9000000000000D-01  3.3004232855677D-01 -1.3925497739486D+00
91  9.0000000000000D-01  3.3479908264414D-01 -1.3224651040882D+00
92  9.1000000000000D-01  3.3714970047062D-01 -1.2494386829816D+00
93  9.2000000000000D-01  3.3722507908513D-01 -1.1739540290495D+00
94  9.3000000000000D-01  3.3516623521371D-01 -1.0965073570279D+00
95  9.4000000000000D-01  3.3112290303403D-01 -1.0176033394749D+00
96  9.5000000000000D-01  3.2525208495233D-01 -9.3775080194436D-01
97  9.6000000000000D-01  3.1771668963966D-01 -8.5745893945602D-01
98  9.7000000000000D-01  3.0868386829670D-01 -7.7723207707411D-01
99  9.8000000000000D-01  2.9832339241552D-01 -6.9756517188880D-01
100  9.9000000000000D-01  2.8680635294995D-01 -6.1894051350960D-01
101  1.0000000000000D+00  2.7430362384613D-01 -5.4182336245705D-01
102  1.0100000000000D+00  2.6098443623796D-01 -4.6665812916953D-01
103  1.0200000000000D+00  2.4701501259046D-01 -3.9386479001637D-01
104  1.0300000000000D+00  2.3255807666505D-01 -3.2383822054484D-01
105  1.0400000000000D+00  2.1776930358768D-01 -2.5693730625881D-01
106  1.0500000000000D+00  2.0279808008329D-01 -1.9348881402087D-01
107  1.0600000000000D+00  1.8778606814114D-01 -1.3378354725727D-01
108  1.0700000000000D+00  1.7286624375943D-01 -7.8074189600679D-02
109  1.0800000000000D+00  1.5816334288208D-01 -2.6577367573199D-02
110  1.0900000000000D+00  1.4378938050859D-01  2.0539041941906D-02
111  1.1000000000000D+00  1.2984624052737D-01  6.3146960345688D-02
112  1.1100000000000D+00  1.1642473752348D-01  1.0116019189637D-01
113  1.1200000000000D+00  1.0360519614412D-01  1.3453213486560D-01
114  1.1300000000000D+00  9.1454576302454D-02  1.6326301557933D-01
115  1.1400000000000D+00  8.0027325039760D-02  1.8739615056154D-01
116  1.1500000000000D+00  6.9366941545937D-02  2.0701284718015D-01
117  1.1600000000000D+00  5.9506728179986D-02  2.2223001251451D-01
118  1.1700000000000D+00  5.0465973262948D-02  2.3320850726517D-01
119  1.1800000000000D+00  4.2253519030035D-02  2.4014254461494D-01
120  1.1900000000000D+00  3.4868845625954D-02  2.4325642175995D-01
121  1.2000000000000D+00  2.8301834615748D-02  2.4280450137191D-01
122  1.2100000000000D+00  2.2530916506579D-02  2.3907208882035D-01
123  1.2200000000000D+00  1.7527740924307D-02  2.3236466604166D-01
124  1.2300000000000D+00  1.3257217896926D-02  2.2300835216245D-01
125  1.2400000000000D+00  9.6751818850345D-03  2.1134853565573D-01
126  1.2500000000000D+00  6.7329822027355D-03  1.9774172838231D-01
127  1.2600000000000D+00  4.3772615878908D-03  1.8255724577190D-01
128  1.2700000000000D+00  2.5495722664749D-03  1.6616903813102D-01
129  1.2800000000000D+00  1.1890729964692D-03  1.4895316123981D-01
130  1.2900000000000D+00  2.3208106200780D-04  1.3129209821461D-01
131  1.3000000000000D+00 -3.8637278481190D-04  1.1355774914856D-01
132  1.3100000000000D+00 -7.3141621139510D-04  9.6116512136212D-02
133  1.3200000000000D+00 -8.7065294010333D-04  7.9339808352604D-02
134  1.3300000000000D+00 -8.6345972201150D-04  6.3551510877038D-02
135  1.3400000000000D+00 -7.6518859874131D-04  4.9058122900515D-02
136  1.3500000000000D+00 -6.2432463899924D-04  3.6132828673363D-02
137  1.3600000000000D+00 -4.7392269876005D-04  2.4980147106536D-02
138  1.3700000000000D+00 -3.4443085328519D-04  1.5793491024756D-02
139  1.3800000000000D+00 -2.5014711215060D-04  8.6958900616473D-03
140  1.3900000000000D+00 -1.9450028671533D-04  3.7645260421665D-03
141  1.4000000000000D+00 -1.8426120089676D-04  1.2683843310154D-03
142  1.4100000000000D+00 -1.4660904006509D-04  2.6393275775655D-04
143  1.4200000000000D+00 -4.0128331163534D-05 -1.7012971301334D-05
144  1.4300000000000D+00  1.1040650052217D-05 -2.9366398694529D-05
145  1.4400000000000D+00  2.3522917506058D-06 -6.2567273727033D-06
146  1.4500000000000D+00  0.0000000000000D+00  0.0000000000000D+00
147  1.4600000000000D+00  0.0000000000000D+00  0.0000000000000D+00
148  1.4700000000000D+00  0.0000000000000D+00  0.0000000000000D+00
149  1.4800000000000D+00  0.0000000000000D+00  0.0000000000000D+00
150  1.4900000000000D+00  0.0000000000000D+00  0.0000000000000D+00
151  1.5000000000000D+00  0.0000000000000D+00  0.0000000000000D+00
152  1.5100000000000D+00  0.0000000000000D+00  0.0000000000000D+00
153  1.5200000000000D+00  0.0000000000000D+00  0.0000000000000D+00
154  1.5300000000000D+00  0.0000000000000D+00  0.0000000000000D+00
155  1.5400000000000D+00  0.0000000000000D+00  0.0000000000000D+00
156  1.5500000000000D+00  0.0000000000000D+00  0.0000000000000D+00
157  1.5600000000000D+00  0.0000000000000D+00  0.0000000000000D+00
158  1.5700000000000D+00  0.0000000000000D+00  0.0000000000000D+00
159  1.5800000000000D+00  0.0000000000000D+00  0.0000000000000D+00
160  1.5900000000000D+00  0.0000000000000D+00  0.0000000000000D+00
161  1.6000000000000D+00  0.0000000000000D+00  0.0000000000000D+00
162  1.6100000000000D+00  0.0000000000000D+00  0.0000000000000D+00
163  1.6200000000000D+00  0.0000000000000D+00  0.0000000000000D+00
164  1.6300000000000D+00  0.0000000000000D+00  0.0000000000000D+00
165  1.6400000000000D+00  0.0000000000000D+00  0.0000000000000D+00
166  1.6500000000000D+00  0.0000000000000D+00  0.0000000000000D+00
167  1.6600000000000D+00  0.0000000000000D+00  0.0000000000000D+00
168  1.6700000000000D+00  0.0000000000000D+00  0.0000000000000D+00
169  1.6800000000000D+00  0.0000000000000D+00  0.0000000000000D+00
170  1.6900000000000D+00  0.0000000000000D+00  0.0000000000000D+00
171  1.7000000000000D+00  0.0000000000000D+00  0.0000000000000D+00
172  1.7100000000000D+00  0.0000000000000D+00  0.0000000000000D+00
173  1.7200000000000D+00  0.0000000000000D+00  0.0000000000000D+00
174  1.7300000000000D+00  0.0000000000000D+00  0.0000000000000D+00
175  1.7400000000000D+00  0.0000000000000D+00  0.0000000000000D+00
176  1.7500000000000D+00  0.0000000000000D+00  0.0000000000000D+00
177  1.7600000000000D+00  0.0000000000000D+00  0.0000000000000D+00
178  1.7700000000000D+00  0.0000000000000D+00  0.0000000000000D+00
179  1.7800000000000D+00  0.0000000000000D+00  0.0000000000000D+00
180  1.7900000000000D+00  0.0000000000000D+00  0.0000000000000D+00
181  1.8000000000000D+00  0.0000000000000D+00  0.0000000000000D+00
182  1.8100000000000D+00  0.0000000000000D+00  0.0000000000000D+00
183  1.8200000000000D+00  0.0000000000000D+00  0.0000000000000D+00
184  1.8300000000000D+00  0.0000000000000D+00  0.0000000000000D+00
185  1.8400000000000D+00  0.0000000000000D+00  0.0000000000000D+00
186  1.8500000000000D+00  0.0000000000000D+00  0.0000000000000D+00
187  1.8600000000000D+00  0.0000000000000D+00  0.0000000000000D+00
188  1.8700000000000D+00  0.0000000000000D+00  0.0000000000000D+00
189  1.8800000000000D+00  0.0000000000000D+00  0.0000000000000D+00
190  1.8900000000000D+00  0.0000000000000D+00  0.0000000000000D+00
191  1.9000000000000D+00  0.0000000000000D+00  0.0000000000000D+00
192  1.9100000000000D+00  0.0000000000000D+00  0.0000000000000D+00
193  1.9200000000000D+00  0.0000000000000D+00  0.0000000000000D+00
194  1.9300000000000D+00  0.0000000000000D+00  0.0000000000000D+00
195  1.9400000000000D+00  0.0000000000000D+00  0.0000000000000D+00
196  1.9500000000000D+00  0.0000000000000D+00  0.0000000000000D+00
197  1.9600000000000D+00  0.0000000000000D+00  0.0000000000000D+00
198  1.9700000000000D+00  0.0000000000000D+00  0.0000000000000D+00
199  1.9800000000000D+00  0.0000000000000D+00  0.0000000000000D+00
200  1.9900000000000D+00  0.0000000000000D+00  0.0000000000000D+00
201  2.0000000000000D+00  0.0000000000000D+00  0.0000000000000D+00
202  2.0100000000000D+00  0.0000000000000D+00  0.0000000000000D+00
203  2.0200000000000D+00  0.0000000000000D+00  0.0000000000000D+00
204  2.0300000000000D+00  0.0000000000000D+00  0.0000000000000D+00
205  2.0400000000000D+00  0.0000000000000D+00  0.0000000000000D+00
206  2.0500000000000D+00  0.0000000000000D+00  0.0000000000000D+00
207  2.0600000000000D+00  0.0000000000000D+00  0.0000000000000D+00
208  2.0700000000000D+00  0.0000000000000D+00  0.0000000000000D+00
209  2.0800000000000D+00  0.0000000000000D+00  0.0000000000000D+00
210  2.0900000000000D+00  0.0000000000000D+00  0.0000000000000D+00
211  2.1000000000000D+00  0.0000000000000D+00  0.0000000000000D+00
212  2.1100000000000D+00  0.0000000000000D+00  0.0000000000000D+00
213  2.1200000000000D+00  0.0000000000000D+00  0.0000000000000D+00
214  2.1300000000000D+00  0.0000000000000D+00  0.0000000000000D+00
215  2.1400000000000D+00  0.0000000000000D+00  0.0000000000000D+00
216  2.1500000000000D+00  0.0000000000000D+00  0.0000000000000D+00
217  2.1600000000000D+00  0.0000000000000D+00  0.0000000000000D+00
218  2.1700000000000D+00  0.0000000000000D+00  0.0000000000000D+00
219  2.1800000000000D+00  0.0000000000000D+00  0.0000000000000D+00
220  2.1900000000000D+00  0.0000000000000D+00  0.0000000000000D+00
221  2.2000000000000D+00  0.0000000000000D+00  0.0000000000000D+00
222  2.2100000000000D+00  0.0000000000000D+00  0.0000000000000D+00
223  2.2200000000000D+00  0.0000000000000D+00  0.0000000000000D+00
224  2.2300000000000D+00  0.0000000000000D+00  0.0000000000000D+00
225  2.2400000000000D+00  0.0000000000000D+00  0.0000000000000D+00
226  2.2500000000000D+00  0.0000000000000D+00  0.0000000000000D+00
227  2.2600000000000D+00  0.0000000000000D+00  0.0000000000000D+00
228  2.2700000000000D+00  0.0000000000000D+00  0.0000000000000D+00
229  2.2800000000000D+00  0.0000000000000D+00  0.0000000000000D+00
230  2.2900000000000D+00  0.0000000000000D+00  0.0000000000000D+00
231  2.3000000000000D+00  0.0000000000000D+00  0.0000000000000D+00
232  2.3100000000000D+00  0.0000000000000D+00  0.0000000000000D+00
233  2.3200000000000D+00  0.0000000000000D+00  0.0000000000000D+00
234  2.3300000000000D+00  0.0000000000000D+00  0.0000000000000D+00
235  2.3400000000000D+00  0.0000000000000D+00  0.0000000000000D+00
236  2.3500000000000D+00  0.0000000000000D+00  0.0000000000000D+00
237  2.3600000000000D+00  0.0000000000000D+00  0.0000000000000D+00
238  2.3700000000000D+00  0.0000000000000D+00  0.0000000000000D+00
239  2.3800000000000D+00  0.0000000000000D+00  0.0000000000000D+00
240  2.3900000000000D+00  0.0000000000000D+00  0.0000000000000D+00
241  2.4000000000000D+00  0.0000000000000D+00  0.0000000000000D+00
242  2.4100000000000D+00  0.0000000000000D+00  0.0000000000000D+00
243  2.4200000000000D+00  0.0000000000000D+00  0.0000000000000D+00
244  2.4300000000000D+00  0.0000000000000D+00  0.0000000000000D+00
245  2.4400000000000D+00  0.0000000000000D+00  0.0000000000000D+00
246  2.4500000000000D+00  0.0000000000000D+00  0.0000000000000D+00
247  2.4600000000000D+00  0.0000000000000D+00  0.0000000000000D+00
248  2.4700000000000D+00  0.0000000000000D+00  0.0000000000000D+00
249  2.4800000000000D+00  0.0000000000000D+00  0.0000000000000D+00
250  2.4900000000000D+00  0.0000000000000D+00  0.0000000000000D+00
251  2.5000000000000D+00  0.0000000000000D+00  0.0000000000000D+00
252  2.5100000000000D+00  0.0000000000000D+00  0.0000000000000D+00
253  2.5200000000000D+00  0.0000000000000D+00  0.0000000000000D+00
254  2.5300000000000D+00  0.0000000000000D+00  0.0000000000000D+00
255  2.5400000000000D+00  0.0000000000000D+00  0.0000000000000D+00
256  2.5500000000000D+00  0.0000000000000D+00  0.0000000000000D+00
257  2.5600000000000D+00  0.0000000000000D+00  0.0000000000000D+00
258  2.5700000000000D+00  0.0000000000000D+00  0.0000000000000D+00
259  2.5800000000000D+00  0.0000000000000D+00  0.0000000000000D+00
260  2.5900000000000D+00  0.0000000000000D+00  0.0000000000000D+00
261  2.6000000000000D+00  0.0000000000000D+00  0.0000000000000D+00
262  2.6100000000000D+00  0.0000000000000D+00  0.0000000000000D+00
263  2.6200000000000D+00  0.0000000000000D+00  0.0000000000000D+00
264  2.6300000000000D+00  0.0000000000000D+00  0.0000000000000D+00
265  2.6400000000000D+00  0.0000000000000D+00  0.0000000000000D+00
266  2.6500000000000D+00  0.0000000000000D+00  0.0000000000000D+00
267  2.6600000000000D+00  0.0000000000000D+00  0.0000000000000D+00
268  2.6700000000000D+00  0.0000000000000D+00  0.0000000000000D+00
269  2.6800000000000D+00  0.0000000000000D+00  0.0000000000000D+00
270  2.6900000000000D+00  0.0000000000000D+00  0.0000000000000D+00
271  2.7000000000000D+00  0.0000000000000D+00  0.0000000000000D+00
272  2.7100000000000D+00  0.0000000000000D+00  0.0000000000000D+00
273  2.7200000000000D+00  0.0000000000000D+00  0.0000000000000D+00
274  2.7300000000000D+00  0.0000000000000D+00  0.0000000000000D+00
275  2.7400000000000D+00  0.0000000000000D+00  0.0000000000000D+00
276  2.7500000000000D+00  0.0000000000000D+00  0.0000000000000D+00
277  2.7600000000000D+00  0.0000000000000D+00  0.0000000000000D+00
278  2.7700000000000D+00  0.0000000000000D+00  0.0000000000000D+00
279  2.7800000000000D+00  0.0000000000000D+00  0.0000000000000D+00
280  2.7900000000000D+00  0.0000000000000D+00  0.0000000000000D+00
281  2.8000000000000D+00  0.0000000000000D+00  0.0000000000000D+00
282  2.8100000000000D+00  0.0000000000000D+00  0.0000000000000D+00
283  2.8200000000000D+00  0.0000000000000D+00  0.0000000000000D+00
284  2.8300000000000D+00  0.0000000000000D+00  0.0000000000000D+00
285  2.8400000000000D+00  0.0000000000000D+00  0.0000000000000D+00
286  2.8500000000000D+00  0.0000000000000D+00  0.0000000000000D+00
287  2.8600000000000D+00  0.0000000000000D+00  0.0000000000000D+00
288  2.8700000000000D+00  0.0000000000000D+00  0.0000000000000D+00
289  2.8800000000000D+00  0.0000000000000D+00  0.0000000000000D+00
290  2.8900000000000D+00  0.0000000000000D+00  0.0000000000000D+00
291  2.9000000000000D+00  0.0000000000000D+00  0.0000000000000D+00
292  2.9100000000000D+00  0.0000000000000D+00  0.0000000000000D+00
293  2.9200000000000D+00  0.0000000000000D+00  0.0000000000000D+00
294  2.9300000000000D+00  0.0000000000000D+00  0.0000000000000D+00
295  2.9400000000000D+00  0.0000000000000D+00  0.0000000000000D+00
296  2.9500000000000D+00  0.0000000000000D+00  0.0000000000000D+00
297  2.9600000000000D+00  0.0000000000000D+00  0.0000000000000D+00
298  2.9700000000000D+00  0.0000000000000D+00  0.0000000000000D+00
299  2.9800000000000D+00  0.0000000000000D+00  0.0000000000000D+00
300  2.9900000000000D+00  0.0000000000000D+00  0.0000000000000D+00
301  3.0000000000000D+00  0.0000000000000D+00  0.0000000000000D+00
302  3.0100000000000D+00  0.0000000000000D+00  0.0000000000000D+00
303  3.0200000000000D+00  0.0000000000000D+00  0.0000000000000D+00
304  3.0300000000000D+00  0.0000000000000D+00  0.0000000000000D+00
305  3.0400000000000D+00  0.0000000000000D+00  0.0000000000000D+00
306  3.0500000000000D+00  0.0000000000000D+00  0.0000000000000D+00
307  3.0600000000000D+00  0.0000000000000D+00  0.0000000000000D+00
308  3.0700000000000D+00  0.0000000000000D+00  0.0000000000000D+00
309  3.0800000000000D+00  0.0000000000000D+00  0.0000000000000D+00
310  3.0900000000000D+00  0.0000000000000D+00  0.0000000000000D+00
311  3.1000000000000D+00  0.0000000000000D+00  0.0000000000000D+00
312  3.1100000000000D+00  0.0000000000000D+00  0.0000000000000D+00
313  3.1200000000000D+00  0.0000000000000D+00  0.0000000000000D+00
314  3.1300000000000D+00  0.0000000000000D+00  0.0000000000000D+00
315  3.1400000000000D+00  0.0000000000000D+00  0.0000000000000D+00
316  3.1500000000000D+00  0.0000000000000D+00  0.0000000000000D+00
317  3.1600000000000D+00  0.0000000000000D+00  0.0000000000000D+00
318  3.1700000000000D+00  0.0000000000000D+00  0.0000000000000D+00
319  3.1800000000000D+00  0.0000000000000D+00  0.0000000000000D+00
320  3.1900000000000D+00  0.0000000000000D+00  0.0000000000000D+00
321  3.2000000000000D+00  0.0000000000000D+00  0.0000000000000D+00
322  3.2100000000000D+00  0.0000000000000D+00  0.0000000000000D+00
323  3.2200000000000D+00  0.0000000000000D+00  0.0000000000000D+00
324  3.2300000000000D+00  0.0000000000000D+00  0.0000000000000D+00
325  3.2400000000000D+00  0.0000000000000D+00  0.0000000000000D+00
326  3.2500000000000D+00  0.0000000000000D+00  0.0000000000000D+00
327  3.2600000000000D+00  0.0000000000000D+00  0.0000000000000D+00
328  3.2700000000000D+00  0.0000000000000D+00  0.0000000000000D+00
329  3.2800000000000D+00  0.0000000000000D+00  0.0000000000000D+00
330  3.2900000000000D+00  0.0000000000000D+00  0.0000000000000D+00
331  3.3000000000000D+00  0.0000000000000D+00  0.0000000000000D+00
332  3.3100000000000D+00  0.0000000000000D+00  0.0000000000000D+00
333  3.3200000000000D+00  0.0000000000000D+00  0.0000000000000D+00
334  3.3300000000000D+00  0.0000000000000D+00  0.0000000000000D+00
335  3.3400000000000D+00  0.0000000000000D+00  0.0000000000000D+00
336  3.3500000000000D+00  0.0000000000000D+00  0.0000000000000D+00
337  3.3600000000000D+00  0.0000000000000D+00  0.0000000000000D+00
338  3.3700000000000D+00  0.0000000000000D+00  0.0000000000000D+00
339  3.3800000000000D+00  0.0000000000000D+00  0.0000000000000D+00
340  3.3900000000000D+00  0.0000000000000D+00  0.0000000000000D+00
341  3.4000000000000D+00  0.0000000000000D+00  0.0000000000000D+00
342  3.4100000000000D+00  0.0000000000000D+00  0.0000000000000D+00
343  3.4200000000000D+00  0.0000000000000D+00  0.0000000000000D+00
344  3.4300000000000D+00  0.0000000000000D+00  0.0000000000000D+00
345  3.4400000000000D+00  0.0000000000000D+00  0.0000000000000D+00
346  3.4500000000000D+00  0.0000000000000D+00  0.0000000000000D+00
347  3.4600000000000D+00  0.0000000000000D+00  0.0000000000000D+00
348  3.4700000000000D+00  0.0000000000000D+00  0.0000000000000D+00
349  3.4800000000000D+00  0.0000000000000D+00  0.0000000000000D+00
350  3.4900000000000D+00  0.0000000000000D+00  0.0000000000000D+00
351  3.5000000000000D+00  0.0000000000000D+00  0.0000000000000D+00
352  3.5100000000000D+00  0.0000000000000D+00  0.0000000000000D+00
353  3.5200000000000D+00  0.0000000000000D+00  0.0000000000000D+00
354  3.5300000000000D+00  0.0000000000000D+00  0.0000000000000D+00
355  3.5400000000000D+00  0.0000000000000D+00  0.0000000000000D+00
356  3.5500000000000D+00  0.0000000000000D+00  0.0000000000000D+00
357  3.5600000000000D+00  0.0000000000000D+00  0.0000000000000D+00
358  3.5700000000000D+00  0.0000000000000D+00  0.0000000000000D+00
359  3.5800000000000D+00  0.0000000000000D+00  0.0000000000000D+00
360  3.5900000000000D+00  0.0000000000000D+00  0.0000000000000D+00
361  3.6000000000000D+00  0.0000000000000D+00  0.0000000000000D+00
362  3.6100000000000D+00  0.0000000000000D+00  0.0000000000000D+00
363  3.6200000000000D+00  0.0000000000000D+00  0.0000000000000D+00
364  3.6300000000000D+00  0.0000000000000D+00  0.0000000000000D+00
365  3.6400000000000D+00  0.0000000000000D+00  0.0000000000000D+00
366  3.6500000000000D+00  0.0000000000000D+00  0.0000000000000D+00
367  3.6600000000000D+00  0.0000000000000D+00  0.0000000000000D+00
368  3.6700000000000D+00  0.0000000000000D+00  0.0000000000000D+00
369  3.6800000000000D+00  0.0000000000000D+00  0.0000000000000D+00
370  3.6900000000000D+00  0.0000000000000D+00  0.0000000000000D+00
371  3.7000000000000D+00  0.0000000000000D+00  0.0000000000000D+00
372  3.7100000000000D+00  0.0000000000000D+00  0.0000000000000D+00
373  3.7200000000000D+00  0.0000000000000D+00  0.0000000000000D+00
374  3.7300000000000D+00  0.0000000000000D+00  0.0000000000000D+00
375  3.7400000000000D+00  0.0000000000000D+00  0.0000000000000D+00
376  3.7500000000000D+00  0.0000000000000D+00  0.0000000000000D+00
377  3.7600000000000D+00  0.0000000000000D+00  0.0000000000000D+00
378  3.7700000000000D+00  0.0000000000000D+00  0.0000000000000D+00
379  3.7800000000000D+00  0.0000000000000D+00  0.0000000000000D+00
380  3.7900000000000D+00  0.0000000000000D+00  0.0000000000000D+00
381  3.8000000000000D+00  0.0000000000000D+00  0.0000000000000D+00
382  3.8100000000000D+00  0.0000000000000D+00  0.0000000000000D+00
383  3.8200000000000D+00  0.0000000000000D+00  0.0000000000000D+00
384  3.8300000000000D+00  0.0000000000000D+00  0.0000000000000D+00
385  3.8400000000000D+00  0.0000000000000D+00  0.0000000000000D+00
386  3.8500000000000D+00  0.0000000000000D+00  0.0000000000000D+00
387  3.8600000000000D+00  0.0000000000000D+00  0.0000000000000D+00
388  3.8700000000000D+00  0.0000000000000D+00  0.0000000000000D+00
389  3.8800000000000D+00  0.0000000000000D+00  0.0000000000000D+00
390  3.8900000000000D+00  0.0000000000000D+00  0.0000000000000D+00
391  3.9000000000000D+00  0.0000000000000D+00  0.0000000000000D+00
392  3.9100000000000D+00  0.0000000000000D+00  0.0000000000000D+00
393  3.9200000000000D+00  0.0000000000000D+00  0.0000000000000D+00
394  3.9300000000000D+00  0.0000000000000D+00  0.0000000000000D+00
395  3.9400000000000D+00  0.0000000000000D+00  0.0000000000000D+00
396  3.9500000000000D+00  0.0000000000000D+00  0.0000000000000D+00
397  3.9600000000000D+00  0.0000000000000D+00  0.0000000000000D+00
398  3.9700000000000D+00  0.0000000000000D+00  0.0000000000000D+00
399  3.9800000000000D+00  0.0000000000000D+00  0.0000000000000D+00
400  3.9900000000000D+00  0.0000000000000D+00  0.0000000000000D+00
401  4.0000000000000D+00  0.0000000000000D+00  0.0000000000000D+00
402  4.0100000000000D+00  0.0000000000000D+00  0.0000000000000D+00
403  4.0200000000000D+00  0.0000000000000D+00  0.0000000000000D+00
404  4.0300000000000D+00  0.0000000000000D+00  0.0000000000000D+00
405  4.0400000000000D+00  0.0000000000000D+00  0.0000000000000D+00
406  4.0500000000000D+00  0.0000000000000D+00  0.0000000000000D+00
407  4.0600000000000D+00  0.0000000000000D+00  0.0000000000000D+00
408  4.0700000000000D+00  0.0000000000000D+00  0.0000000000000D+00
409  4.0800000000000D+00  0.0000000000000D+00  0.0000000000000D+00
410  4.0900000000000D+00  0.0000000000000D+00  0.0000000000000D+00
411  4.1000000000000D+00  0.0000000000000D+00  0.0000000000000D+00
412  4.1100000000000D+00  0.0000000000000D+00  0.0000000000000D+00
413  4.1200000000000D+00  0.0000000000000D+00  0.0000000000000D+00
414  4.1300000000000D+00  0.0000000000000D+00  0.0000000000000D+00
415  4.1400000000000D+00  0.0000000000000D+00  0.0000000000000D+00
416  4.1500000000000D+00  0.0000000000000D+00  0.0000000000000D+00
417  4.1600000000000D+00  0.0000000000000D+00  0.0000000000000D+00
418  4.1700000000000D+00  0.0000000000000D+00  0.0000000000000D+00
419  4.1800000000000D+00  0.0000000000000D+00  0.0000000000000D+00
420  4.1900000000000D+00  0.0000000000000D+00  0.0000000000000D+00
421  4.2000000000000D+00  0.0000000000000D+00  0.0000000000000D+00
422  4.2100000000000D+00  0.0000000000000D+00  0.0000000000000D+00
423  4.2200000000000D+00  0.0000000000000D+00  0.0000000000000D+00
424  4.2300000000000D+00  0.0000000000000D+00  0.0000000000000D+00
425  4.2400000000000D+00  0.0000000000000D+00  0.0000000000000D+00
426  4.2500000000000D+00  0.0000000000000D+00  0.0000000000000D+00
427  4.2600000000000D+00  0.0000000000000D+00  0.0000000000000D+00
428  4.2700000000000D+00  0.0000000000000D+00  0.0000000000000D+00
429  4.2800000000000D+00  0.0000000000000D+00  0.0000000000000D+00
430  4.2900000000000D+00  0.0000000000000D+00  0.0000000000000D+00
431  4.3000000000000D+00  0.0000000000000D+00  0.0000000000000D+00
432  4.3100000000000D+00  0.0000000000000D+00  0.0000000000000D+00
433  4.3200000000000D+00  0.0000000000000D+00  0.0000000000000D+00
434  4.3300000000000D+00  0.0000000000000D+00  0.0000000000000D+00
435  4.3400000000000D+00  0.0000000000000D+00  0.0000000000000D+00
436  4.3500000000000D+00  0.0000000000000D+00  0.0000000000000D+00
437  4.3600000000000D+00  0.0000000000000D+00  0.0000000000000D+00
438  4.3700000000000D+00  0.0000000000000D+00  0.0000000000000D+00
439  4.3800000000000D+00  0.0000000000000D+00  0.0000000000000D+00
440  4.3900000000000D+00  0.0000000000000D+00  0.0000000000000D+00
441  4.4000000000000D+00  0.0000000000000D+00  0.0000000000000D+00
442  4.4100000000000D+00  0.0000000000000D+00  0.0000000000000D+00
443  4.4200000000000D+00  0.0000000000000D+00  0.0000000000000D+00