Sb    ONCVPSP  r_core=  2.31  2.12  2.60
51.0000      5.0000      140828    zatom,zion,pspd
8    11     2     4   601     0    pspcod,pspxc,lmax,lloc,mmax,r2well
6.00000000  0.50000000  0.00000000    rchrg fchrg qchrg
2     2     2     0     0    nproj
0                 extension_switch
0                         5.0685284089389D+00  6.7357515305215D-01
1  0.0000000000000D+00 -0.0000000000000D+00  0.0000000000000D+00
2  1.0000000000000D-02 -1.7855966893644D-02  6.6566661186178D-03
3  2.0000000000000D-02 -3.5721242868927D-02  1.3261720518201D-02
4  3.0000000000000D-02 -5.3605078679240D-02  1.9763772110494D-02
5  4.0000000000000D-02 -7.1516608610821D-02  2.6111870286136D-02
6  5.0000000000000D-02 -8.9464792722005D-02  3.2255723199912D-02
7  6.0000000000000D-02 -1.0745835964821D-01  3.8145913718515D-02
8  7.0000000000000D-02 -1.2550575015898D-01  4.3734112262326D-02
9  8.0000000000000D-02 -1.4361506165036D-01  4.8973285786120D-02
10  9.0000000000000D-02 -1.6179399375442D-01  5.3817902151331D-02
11  1.0000000000000D-01 -1.8004979524342D-01  5.8224129161676D-02
12  1.1000000000000D-01 -1.9838921240144D-01  6.2150027554221D-02
13  1.2000000000000D-01 -2.1681843903586D-01  6.5555737244176D-02
14  1.3000000000000D-01 -2.3534306829345D-01  6.8403656153781D-02
15  1.4000000000000D-01 -2.5396804643101D-01  7.0658611014986D-02
16  1.5000000000000D-01 -2.7269762872143D-01  7.2288019426966D-02
17  1.6000000000000D-01 -2.9153533759413D-01  7.3262042757401D-02
18  1.7000000000000D-01 -3.1048392321616D-01  7.3553729086256D-02
19  1.8000000000000D-01 -3.2954532657788D-01  7.3139145921555D-02
20  1.9000000000000D-01 -3.4872064528966D-01  7.1997501901196D-02
21  2.0000000000000D-01 -3.6801010208028D-01  7.0111257485754D-02
22  2.1000000000000D-01 -3.8741301631075D-01  6.7466223488826D-02
23  2.2000000000000D-01 -4.0692777837725D-01  6.4051647884928D-02
24  2.3000000000000D-01 -4.2655182724075D-01  5.9860290030317D-02
25  2.4000000000000D-01 -4.4628163112220D-01  5.4888482157056D-02
26  2.5000000000000D-01 -4.6611267151916D-01  4.9136177612125D-02
27  2.6000000000000D-01 -4.8603943035714D-01  4.2606986471063D-02
28  2.7000000000000D-01 -5.0605538073896D-01  3.5308196991745D-02
29  2.8000000000000D-01 -5.2615298089762D-01  2.7250784241020D-02
30  2.9000000000000D-01 -5.4632367169027D-01  1.8449404802262D-02
31  3.0000000000000D-01 -5.6655787759454D-01  8.9223777875820D-03
32  3.1000000000000D-01 -5.8684501109053D-01 -1.3083474859531D-03
33  3.2000000000000D-01 -6.0717348059670D-01 -1.2217237603672D-02
34  3.3000000000000D-01 -6.2753070190087D-01 -2.3775234564182D-02
35  3.4000000000000D-01 -6.4790311296117D-01 -3.5949828283562D-02
36  3.5000000000000D-01 -6.6827619225921D-01 -4.8705142922124D-02
37  3.6000000000000D-01 -6.8863448039801D-01 -6.2002034892741D-02
38  3.7000000000000D-01 -7.0896160516063D-01 -7.5798204442785D-02
39  3.8000000000000D-01 -7.2924030993801D-01 -9.0048319672936D-02
40  3.9000000000000D-01 -7.4945248505815D-01 -1.0470415083530D-01
41  4.0000000000000D-01 -7.6957920249516D-01 -1.1971471739704D-01
42  4.1000000000000D-01 -7.8960075345519D-01 -1.3502644524352D-01
43  4.2000000000000D-01 -8.0949668944721D-01 -1.5058333675073D-01
44  4.3000000000000D-01 -8.2924586533736D-01 -1.6632714694540D-01
45  4.4000000000000D-01 -8.4882648566088D-01 -1.8219757149130D-01
46  4.5000000000000D-01 -8.6821615305756D-01 -1.9813244140829D-01
47  4.6000000000000D-01 -8.8739192044730D-01 -2.1406793130293D-01
48  4.7000000000000D-01 -9.0633034397170D-01 -2.2993876843016D-01
49  4.8000000000000D-01 -9.2500753895408D-01 -2.4567845212723D-01
50  4.9000000000000D-01 -9.4339923758921D-01 -2.6121947807594D-01
51  5.0000000000000D-01 -9.6148084567273D-01 -2.7649355663388D-01
52  5.1000000000000D-01 -9.7922751145262D-01 -2.9143187763026D-01
53  5.2000000000000D-01 -9.9661418231066D-01 -3.0596532355567D-01
54  5.3000000000000D-01 -1.0136156641757D+00 -3.2002469241823D-01
55  5.4000000000000D-01 -1.0302067035588D+00 -3.3354100670946D-01
56  5.5000000000000D-01 -1.0463620329069D+00 -3.4644567580427D-01
57  5.6000000000000D-01 -1.0620564547391D+00 -3.5867080784981D-01
58  5.7000000000000D-01 -1.0772648969847D+00 -3.7014940661061D-01
59  5.8000000000000D-01 -1.0919624910452D+00 -3.8081565367221D-01
60  5.9000000000000D-01 -1.1061246272967D+00 -3.9060510145674D-01
61  6.0000000000000D-01 -1.1197270439289D+00 -3.9945498950250D-01
62  6.1000000000000D-01 -1.1327458592373D+00 -4.0730434609339D-01
63  6.2000000000000D-01 -1.1451576875333D+00 -4.1409439780742D-01
64  6.3000000000000D-01 -1.1569396635636D+00 -4.1976863704297D-01
65  6.4000000000000D-01 -1.1680695193697D+00 -4.2427308119729D-01
66  6.5000000000000D-01 -1.1785256736336D+00 -4.2755657117652D-01
67  6.6000000000000D-01 -1.1882872643411D+00 -4.2957086253593D-01
68  6.7000000000000D-01 -1.1973342082079D+00 -4.3027081199639D-01
69  6.8000000000000D-01 -1.2056473025187D+00 -4.2961470664709D-01
70  6.9000000000000D-01 -1.2132082461843D+00 -4.2756430634399D-01
71  7.0000000000000D-01 -1.2199997054061D+00 -4.2408503971683D-01
72  7.1000000000000D-01 -1.2260053624837D+00 -4.1914613845817D-01
73  7.2000000000000D-01 -1.2312099859207D+00 -4.1272083826362D-01
74  7.3000000000000D-01 -1.2355994756665D+00 -4.0478649113651D-01
75  7.4000000000000D-01 -1.2391608991949D+00 -3.9532464496499D-01
76  7.5000000000000D-01 -1.2418825419566D+00 -3.8432116638973D-01
77  7.6000000000000D-01 -1.2437539491937D+00 -3.7176633075613D-01
78  7.7000000000000D-01 -1.2447659646646D+00 -3.5765489774582D-01
79  7.8000000000000D-01 -1.2449107661610D+00 -3.4198617238244D-01
80  7.9000000000000D-01 -1.2441818921894D+00 -3.2476403548651D-01
81  8.0000000000000D-01 -1.2425742871117D+00 -3.0599702193756D-01
82  8.1000000000000D-01 -1.2400843118165D+00 -2.8569829326139D-01
83  8.2000000000000D-01 -1.2367097678443D+00 -2.6388564566920D-01
84  8.3000000000000D-01 -1.2324499168899D+00 -2.4058149926752D-01
85  8.4000000000000D-01 -1.2273054952729D+00 -2.1581286796836D-01
86  8.5000000000000D-01 -1.2212787246592D+00 -1.8961131401052D-01
87  8.6000000000000D-01 -1.2143733189960D+00 -1.6201288718230D-01
88  8.7000000000000D-01 -1.2065944876316D+00 -1.3305804888742D-01
89  8.8000000000000D-01 -1.1979489346029D+00 -1.0279158125020D-01
90  8.9000000000000D-01 -1.1884448540839D+00 -7.1262481514116D-02
91  9.0000000000000D-01 -1.1780919202316D+00 -3.8523839817325D-02
92  9.1000000000000D-01 -1.1669012749562D+00 -4.6327081518631D-03
93  9.2000000000000D-01 -1.1548855230754D+00  3.0350036203435D-02
94  9.3000000000000D-01 -1.1420586985441D+00  6.6359870867000D-02
95  9.4000000000000D-01 -1.1284362460002D+00  1.0332879460325D-01
96  9.5000000000000D-01 -1.1140349936730D+00  1.4118551340251D-01
97  9.6000000000000D-01 -1.0988731227228D+00  1.7985563806459D-01
98  9.7000000000000D-01 -1.0829701331227D+00  2.1926189249054D-01
99  9.8000000000000D-01 -1.0663468062237D+00  2.5932433177448D-01
100  9.9000000000000D-01 -1.0490251636577D+00  2.9996055884679D-01
101  1.0000000000000D+00 -1.0310284265171D+00  3.4108592510100D-01
102  1.0100000000000D+00 -1.0123809704301D+00  3.8261391479242D-01
103  1.0200000000000D+00 -9.9310826625646D-01  4.2445627383512D-01
104  1.0300000000000D+00 -9.7323683200778D-01  4.6652330152174D-01
105  1.0400000000000D+00 -9.5279417816952D-01  5.0872411083268D-01
106  1.0500000000000D+00 -9.3180876120151D-01  5.5096679978433D-01
107  1.0600000000000D+00 -9.1030991394143D-01  5.9315886380660D-01
108  1.0700000000000D+00 -8.8832776202441D-01  6.3520758884203D-01
109  1.0800000000000D+00 -8.6589318707115D-01  6.7702008325283D-01
110  1.0900000000000D+00 -8.4303775534605D-01  7.1850362947661D-01
111  1.1000000000000D+00 -8.1979370350276D-01  7.5956564273806D-01
112  1.1100000000000D+00 -7.9619373841475D-01  8.0011480085293D-01
113  1.1200000000000D+00 -7.7227105268050D-01  8.4006070528541D-01
114  1.1300000000000D+00 -7.4805925776748D-01  8.7931416092595D-01
115  1.1400000000000D+00 -7.2359239111762D-01  9.1778705303478D-01
116  1.1500000000000D+00 -6.9890462577924D-01  9.5539379835804D-01
117  1.1600000000000D+00 -6.7403032685739D-01  9.9205083679455D-01
118  1.1700000000000D+00 -6.4900402242619D-01  1.0276766911910D+00
119  1.1800000000000D+00 -6.2386042950606D-01  1.0621917985862D+00
120  1.1900000000000D+00 -5.9863393428232D-01  1.0955208470835D+00
121  1.2000000000000D+00 -5.7335895213912D-01  1.1275908978180D+00
122  1.2100000000000D+00 -5.4806990342323D-01  1.1583314949967D+00
123  1.2200000000000D+00 -5.2280074383983D-01  1.1876766499415D+00
124  1.2300000000000D+00 -4.9758507236493D-01  1.2155641559435D+00
125  1.2400000000000D+00 -4.7245634866418D-01  1.2419346262132D+00
126  1.2500000000000D+00 -4.4744748195598D-01  1.2667331474032D+00
127  1.2600000000000D+00 -4.2259063222740D-01  1.2899098489984D+00
128  1.2700000000000D+00 -3.9791772972745D-01  1.3114177877360D+00
129  1.2800000000000D+00 -3.7345997242363D-01  1.3312148665077D+00
130  1.2900000000000D+00 -3.4924753280748D-01  1.3492646716572D+00
131  1.3000000000000D+00 -3.2531031393235D-01  1.3655336553151D+00
132  1.3100000000000D+00 -3.0167713953809D-01  1.3799939983322D+00
133  1.3200000000000D+00 -2.7837572690994D-01  1.3926233996009D+00
134  1.3300000000000D+00 -2.5543352907635D-01  1.4034022622827D+00
135  1.3400000000000D+00 -2.3287635077437D-01  1.4123181241217D+00
136  1.3500000000000D+00 -2.1072912585655D-01  1.4193628518054D+00
137  1.3600000000000D+00 -1.8901638093812D-01  1.4245313773188D+00
138  1.3700000000000D+00 -1.6776042880065D-01  1.4278267827300D+00
139  1.3800000000000D+00 -1.4698333130636D-01  1.4292544343308D+00
140  1.3900000000000D+00 -1.2670572761829D-01  1.4288253658785D+00
141  1.4000000000000D+00 -1.0694661403302D-01  1.4265563936753D+00
142  1.4100000000000D+00 -8.7724840899816D-02  1.4224664453633D+00
143  1.4200000000000D+00 -6.9056656378614D-02  1.4165822889432D+00
144  1.4300000000000D+00 -5.0958023721170D-02  1.4089328263443D+00
145  1.4400000000000D+00 -3.3443312218606D-02  1.3995521867551D+00
146  1.4500000000000D+00 -1.6525208228734D-02  1.3884793045063D+00
147  1.4600000000000D+00 -2.1611941380247D-04  1.3757554877585D+00
148  1.4700000000000D+00  1.5474312535344D-02  1.3614283828253D+00
149  1.4800000000000D+00  3.0536377346169D-02  1.3455471870640D+00
150  1.4900000000000D+00  4.4962742687536D-02  1.3281663062949D+00
151  1.5000000000000D+00  5.8746815269304D-02  1.3093425950935D+00
152  1.5100000000000D+00  7.1883393602958D-02  1.2891364566881D+00
153  1.5200000000000D+00  8.4368992377179D-02  1.2676113091098D+00
154  1.5300000000000D+00  9.6200581595794D-02  1.2448331088448D+00
155  1.5400000000000D+00  1.0737762217995D-01  1.2208705332726D+00
156  1.5500000000000D+00  1.1789936604659D-01  1.1957945680015D+00
157  1.5600000000000D+00  1.2776787477278D-01  1.1696779359953D+00
158  1.5700000000000D+00  1.3698503665375D-01  1.1425957064630D+00
159  1.5800000000000D+00  1.4555504829281D-01  1.1146237886449D+00
160  1.5900000000000D+00  1.5348242159632D-01  1.0858401147608D+00
161  1.6000000000000D+00  1.6077343164087D-01  1.0563229978789D+00
162  1.6100000000000D+00  1.6743502979042D-01  1.0261519853933D+00
163  1.6200000000000D+00  1.7347550500364D-01  9.9540694512962D-01
164  1.6300000000000D+00  1.7890404195380D-01  9.6416785000738D-01
165  1.6400000000000D+00  1.8373086210500D-01  9.3251519894061D-01
166  1.6500000000000D+00  1.8796716643163D-01  9.0052829162841D-01
167  1.6600000000000D+00  1.9162500530822D-01  8.6828726168235D-01
168  1.6700000000000D+00  1.9471737667746D-01  8.3586975233803D-01
169  1.6800000000000D+00  1.9725803082863D-01  8.0335447012307D-01
170  1.6900000000000D+00  1.9926154793395D-01  7.7081655372055D-01
171  1.7000000000000D+00  2.0074322187264D-01  7.3833216551132D-01
172  1.7100000000000D+00  2.0171901102881D-01  7.0597324257100D-01
173  1.7200000000000D+00  2.0220556779979D-01  6.7381224323514D-01
174  1.7300000000000D+00  2.0222004130816D-01  6.4191736789435D-01
175  1.7400000000000D+00  2.0178022742181D-01  6.1035618485076D-01
176  1.7500000000000D+00  2.0090430059077D-01  5.7919278725004D-01
177  1.7600000000000D+00  1.9961095432096D-01  5.4848866641682D-01
178  1.7700000000000D+00  1.9791924966071D-01  5.1830359111663D-01
179  1.7800000000000D+00  1.9584850160189D-01  4.8869182672005D-01
180  1.7900000000000D+00  1.9341854823934D-01  4.5970872325828D-01
181  1.8000000000000D+00  1.9064902280010D-01  4.3140026722522D-01
182  1.8100000000000D+00  1.8756045860547D-01  4.0381736314462D-01
183  1.8200000000000D+00  1.8417248476775D-01  3.7699684252386D-01
184  1.8300000000000D+00  1.8050626807613D-01  3.5098512337565D-01
185  1.8400000000000D+00  1.7658125026649D-01  3.2581029391370D-01
186  1.8500000000000D+00  1.7241874442873D-01  3.0151110086475D-01
187  1.8600000000000D+00  1.6803823904936D-01  2.7811009917386D-01
188  1.8700000000000D+00  1.6346063704634D-01  2.5563580534082D-01
189  1.8800000000000D+00  1.5870562279731D-01  2.3410665805201D-01
190  1.8900000000000D+00  1.5379323511113D-01  2.1353997270751D-01
191  1.9000000000000D+00  1.4874343918045D-01  1.9395054750862D-01
192  1.9100000000000D+00  1.4357499257026D-01  1.7534425420046D-01
193  1.9200000000000D+00  1.3830821754041D-01  1.5773238478939D-01
194  1.9300000000000D+00  1.3296045948642D-01  1.4111065061297D-01
195  1.9400000000000D+00  1.2755171362556D-01  1.2548379252665D-01
196  1.9500000000000D+00  1.2209867574044D-01  1.1084190248119D-01
197  1.9600000000000D+00  1.1661972780709D-01  9.7179158738016D-02
198  1.9700000000000D+00  1.1113182087489D-01  8.4483518610102D-02
199  1.9800000000000D+00  1.0565101056866D-01  7.2738128074297D-02
200  1.9900000000000D+00  1.0019469689758D-01  6.1928695531314D-02
201  2.0000000000000D+00  9.4776616285578D-02  5.2029522491382D-02
202  2.0100000000000D+00  8.9413551293931D-02  4.3020853918683D-02
203  2.0200000000000D+00  8.4118336484230D-02  3.4873043590779D-02
204  2.0300000000000D+00  7.8905201401316D-02  2.7557660388819D-02
205  2.0400000000000D+00  7.3787557507727D-02  2.1043886166489D-02
206  2.0500000000000D+00  6.8776280146333D-02  1.5295512833428D-02
207  2.0600000000000D+00  6.3885403694097D-02  1.0279347394107D-02
208  2.0700000000000D+00  5.9123399977123D-02  5.9547729395705D-03
209  2.0800000000000D+00  5.4501715478356D-02  2.2828336575479D-03
210  2.0900000000000D+00  5.0029597274416D-02 -7.7787333783196D-04
211  2.1000000000000D+00  4.5714462074323D-02 -3.2710232019665D-03
212  2.1100000000000D+00  4.1566539721887D-02 -5.2404752433666D-03
213  2.1200000000000D+00  3.7590321203288D-02 -6.7316232844590D-03
214  2.1300000000000D+00  3.3793175397359D-02 -7.7920415679858D-03
215  2.1400000000000D+00  3.0180645564801D-02 -8.4675955125057D-03
216  2.1500000000000D+00  2.6756592773679D-02 -8.8026473161728D-03
217  2.1600000000000D+00  2.3526974364381D-02 -8.8486055185127D-03
218  2.1700000000000D+00  2.0494232226970D-02 -8.6433493109965D-03
219  2.1800000000000D+00  1.7662315629448D-02 -8.2324517732916D-03
220  2.1900000000000D+00  1.5034580361211D-02 -7.6589379457474D-03
221  2.2000000000000D+00  1.2612651742962D-02 -6.9570459393605D-03
222  2.2100000000000D+00  1.0399735269011D-02 -6.1716652004319D-03
223  2.2200000000000D+00  8.3967902789947D-03 -5.3332562998245D-03
224  2.2300000000000D+00  6.6049508078646D-03 -4.4744741403560D-03
225  2.2400000000000D+00  5.0260538364592D-03 -3.6341296166771D-03
226  2.2500000000000D+00  3.6594488763802D-03 -2.8321082094654D-03
227  2.2600000000000D+00  2.5057835074250D-03 -2.0999536854615D-03
228  2.2700000000000D+00  1.5648639160134D-03 -1.4626399959587D-03
229  2.2800000000000D+00  8.3529263510648D-04 -9.3534585417762D-04
230  2.2900000000000D+00  3.4427554768749D-04 -5.8248615172776D-04
231  2.3000000000000D+00  4.8740908125724D-05 -3.5907343583516D-04
232  2.3100000000000D+00 -9.5491283670515D-05 -2.1827915419698D-04
233  2.3200000000000D+00 -1.1289599493479D-04 -1.0303476820771D-04
234  2.3300000000000D+00 -5.9518803197059D-05 -3.0966950597109D-05
235  2.3400000000000D+00  2.4465106202711D-06  5.6766881247287D-06
236  2.3500000000000D+00  6.3322322664371D-06  1.4692806731378D-05
237  2.3600000000000D+00  3.2103371550998D-06  7.4490102980672D-06
238  2.3700000000000D+00  0.0000000000000D+00  0.0000000000000D+00
239  2.3800000000000D+00  0.0000000000000D+00  0.0000000000000D+00
240  2.3900000000000D+00  0.0000000000000D+00  0.0000000000000D+00
241  2.4000000000000D+00  0.0000000000000D+00  0.0000000000000D+00
242  2.4100000000000D+00  0.0000000000000D+00  0.0000000000000D+00
243  2.4200000000000D+00  0.0000000000000D+00  0.0000000000000D+00
244  2.4300000000000D+00  0.0000000000000D+00  0.0000000000000D+00
245  2.4400000000000D+00  0.0000000000000D+00  0.0000000000000D+00
246  2.4500000000000D+00  0.0000000000000D+00  0.0000000000000D+00
247  2.4600000000000D+00  0.0000000000000D+00  0.0000000000000D+00
248  2.4700000000000D+00  0.0000000000000D+00  0.0000000000000D+00
249  2.4800000000000D+00  0.0000000000000D+00  0.0000000000000D+00
250  2.4900000000000D+00  0.0000000000000D+00  0.0000000000000D+00
251  2.5000000000000D+00  0.0000000000000D+00  0.0000000000000D+00
252  2.5100000000000D+00  0.0000000000000D+00  0.0000000000000D+00
253  2.5200000000000D+00  0.0000000000000D+00  0.0000000000000D+00
254  2.5300000000000D+00  0.0000000000000D+00  0.0000000000000D+00
255  2.5400000000000D+00  0.0000000000000D+00  0.0000000000000D+00
256  2.5500000000000D+00  0.0000000000000D+00  0.0000000000000D+00
257  2.5600000000000D+00  0.0000000000000D+00  0.0000000000000D+00
258  2.5700000000000D+00  0.0000000000000D+00  0.0000000000000D+00
259  2.5800000000000D+00  0.0000000000000D+00  0.0000000000000D+00
260  2.5900000000000D+00  0.0000000000000D+00  0.0000000000000D+00
261  2.6000000000000D+00  0.0000000000000D+00  0.0000000000000D+00
262  2.6100000000000D+00  0.0000000000000D+00  0.0000000000000D+00
263  2.6200000000000D+00  0.0000000000000D+00  0.0000000000000D+00
264  2.6300000000000D+00  0.0000000000000D+00  0.0000000000000D+00
265  2.6400000000000D+00  0.0000000000000D+00  0.0000000000000D+00
266  2.6500000000000D+00  0.0000000000000D+00  0.0000000000000D+00
267  2.6600000000000D+00  0.0000000000000D+00  0.0000000000000D+00
268  2.6700000000000D+00  0.0000000000000D+00  0.0000000000000D+00
269  2.6800000000000D+00  0.0000000000000D+00  0.0000000000000D+00
270  2.6900000000000D+00  0.0000000000000D+00  0.0000000000000D+00
271  2.7000000000000D+00  0.0000000000000D+00  0.0000000000000D+00
272  2.7100000000000D+00  0.0000000000000D+00  0.0000000000000D+00
273  2.7200000000000D+00  0.0000000000000D+00  0.0000000000000D+00
274  2.7300000000000D+00  0.0000000000000D+00  0.0000000000000D+00
275  2.7400000000000D+00  0.0000000000000D+00  0.0000000000000D+00
276  2.7500000000000D+00  0.0000000000000D+00  0.0000000000000D+00
277  2.7600000000000D+00  0.0000000000000D+00  0.0000000000000D+00
278  2.7700000000000D+00  0.0000000000000D+00  0.0000000000000D+00
279  2.7800000000000D+00  0.0000000000000D+00  0.0000000000000D+00
280  2.7900000000000D+00  0.0000000000000D+00  0.0000000000000D+00
281  2.8000000000000D+00  0.0000000000000D+00  0.0000000000000D+00
282  2.8100000000000D+00  0.0000000000000D+00  0.0000000000000D+00
283  2.8200000000000D+00  0.0000000000000D+00  0.0000000000000D+00
284  2.8300000000000D+00  0.0000000000000D+00  0.0000000000000D+00
285  2.8400000000000D+00  0.0000000000000D+00  0.0000000000000D+00
286  2.8500000000000D+00  0.0000000000000D+00  0.0000000000000D+00
287  2.8600000000000D+00  0.0000000000000D+00  0.0000000000000D+00
288  2.8700000000000D+00  0.0000000000000D+00  0.0000000000000D+00
289  2.8800000000000D+00  0.0000000000000D+00  0.0000000000000D+00
290  2.8900000000000D+00  0.0000000000000D+00  0.0000000000000D+00
291  2.9000000000000D+00  0.0000000000000D+00  0.0000000000000D+00
292  2.9100000000000D+00  0.0000000000000D+00  0.0000000000000D+00
293  2.9200000000000D+00  0.0000000000000D+00  0.0000000000000D+00
294  2.9300000000000D+00  0.0000000000000D+00  0.0000000000000D+00
295  2.9400000000000D+00  0.0000000000000D+00  0.0000000000000D+00
296  2.9500000000000D+00  0.0000000000000D+00  0.0000000000000D+00
297  2.9600000000000D+00  0.0000000000000D+00  0.0000000000000D+00
298  2.9700000000000D+00  0.0000000000000D+00  0.0000000000000D+00
299  2.9800000000000D+00  0.0000000000000D+00  0.0000000000000D+00
300  2.9900000000000D+00  0.0000000000000D+00  0.0000000000000D+00
301  3.0000000000000D+00  0.0000000000000D+00  0.0000000000000D+00
302  3.0100000000000D+00  0.0000000000000D+00  0.0000000000000D+00
303  3.0200000000000D+00  0.0000000000000D+00  0.0000000000000D+00
304  3.0300000000000D+00  0.0000000000000D+00  0.0000000000000D+00
305  3.0400000000000D+00  0.0000000000000D+00  0.0000000000000D+00
306  3.0500000000000D+00  0.0000000000000D+00  0.0000000000000D+00
307  3.0600000000000D+00  0.0000000000000D+00  0.0000000000000D+00
308  3.0700000000000D+00  0.0000000000000D+00  0.0000000000000D+00
309  3.0800000000000D+00  0.0000000000000D+00  0.0000000000000D+00
310  3.0900000000000D+00  0.0000000000000D+00  0.0000000000000D+00
311  3.1000000000000D+00  0.0000000000000D+00  0.0000000000000D+00
312  3.1100000000000D+00  0.0000000000000D+00  0.0000000000000D+00
313  3.1200000000000D+00  0.0000000000000D+00  0.0000000000000D+00
314  3.1300000000000D+00  0.0000000000000D+00  0.0000000000000D+00
315  3.1400000000000D+00  0.0000000000000D+00  0.0000000000000D+00
316  3.1500000000000D+00  0.0000000000000D+00  0.0000000000000D+00
317  3.1600000000000D+00  0.0000000000000D+00  0.0000000000000D+00
318  3.1700000000000D+00  0.0000000000000D+00  0.0000000000000D+00
319  3.1800000000000D+00  0.0000000000000D+00  0.0000000000000D+00
320  3.1900000000000D+00  0.0000000000000D+00  0.0000000000000D+00
321  3.2000000000000D+00  0.0000000000000D+00  0.0000000000000D+00
322  3.2100000000000D+00  0.0000000000000D+00  0.0000000000000D+00
323  3.2200000000000D+00  0.0000000000000D+00  0.0000000000000D+00
324  3.2300000000000D+00  0.0000000000000D+00  0.0000000000000D+00
325  3.2400000000000D+00  0.0000000000000D+00  0.0000000000000D+00
326  3.2500000000000D+00  0.0000000000000D+00  0.0000000000000D+00
327  3.2600000000000D+00  0.0000000000000D+00  0.0000000000000D+00
328  3.2700000000000D+00  0.0000000000000D+00  0.0000000000000D+00
329  3.2800000000000D+00  0.0000000000000D+00  0.0000000000000D+00
330  3.2900000000000D+00  0.0000000000000D+00  0.0000000000000D+00
331  3.3000000000000D+00  0.0000000000000D+00  0.0000000000000D+00
332  3.3100000000000D+00  0.0000000000000D+00  0.0000000000000D+00
333  3.3200000000000D+00  0.0000000000000D+00  0.0000000000000D+00
334  3.3300000000000D+00  0.0000000000000D+00  0.0000000000000D+00
335  3.3400000000000D+00  0.0000000000000D+00  0.0000000000000D+00
336  3.3500000000000D+00  0.0000000000000D+00  0.0000000000000D+00
337  3.3600000000000D+00  0.0000000000000D+00  0.0000000000000D+00
338  3.3700000000000D+00  0.0000000000000D+00  0.0000000000000D+00
339  3.3800000000000D+00  0.0000000000000D+00  0.0000000000000D+00
340  3.3900000000000D+00  0.0000000000000D+00  0.0000000000000D+00
341  3.4000000000000D+00  0.0000000000000D+00  0.0000000000000D+00
342  3.4100000000000D+00  0.0000000000000D+00  0.0000000000000D+00
343  3.4200000000000D+00  0.0000000000000D+00  0.0000000000000D+00
344  3.4300000000000D+00  0.0000000000000D+00  0.0000000000000D+00
345  3.4400000000000D+00  0.0000000000000D+00  0.0000000000000D+00
346  3.4500000000000D+00  0.0000000000000D+00  0.0000000000000D+00
347  3.4600000000000D+00  0.0000000000000D+00  0.0000000000000D+00
348  3.4700000000000D+00  0.0000000000000D+00  0.0000000000000D+00
349  3.4800000000000D+00  0.0000000000000D+00  0.0000000000000D+00
350  3.4900000000000D+00  0.0000000000000D+00  0.0000000000000D+00
351  3.5000000000000D+00  0.0000000000000D+00  0.0000000000000D+00
352  3.5100000000000D+00  0.0000000000000D+00  0.0000000000000D+00
353  3.5200000000000D+00  0.0000000000000D+00  0.0000000000000D+00
354  3.5300000000000D+00  0.0000000000000D+00  0.0000000000000D+00
355  3.5400000000000D+00  0.0000000000000D+00  0.0000000000000D+00
356  3.5500000000000D+00  0.0000000000000D+00  0.0000000000000D+00
357  3.5600000000000D+00  0.0000000000000D+00  0.0000000000000D+00
358  3.5700000000000D+00  0.0000000000000D+00  0.0000000000000D+00
359  3.5800000000000D+00  0.0000000000000D+00  0.0000000000000D+00
360  3.5900000000000D+00  0.0000000000000D+00  0.0000000000000D+00
361  3.6000000000000D+00  0.0000000000000D+00  0.0000000000000D+00
362  3.6100000000000D+00  0.0000000000000D+00  0.0000000000000D+00
363  3.6200000000000D+00  0.0000000000000D+00  0.0000000000000D+00
364  3.6300000000000D+00  0.0000000000000D+00  0.0000000000000D+00
365  3.6400000000000D+00  0.0000000000000D+00  0.0000000000000D+00
366  3.6500000000000D+00  0.0000000000000D+00  0.0000000000000D+00
367  3.6600000000000D+00  0.0000000000000D+00  0.0000000000000D+00
368  3.6700000000000D+00  0.0000000000000D+00  0.0000000000000D+00
369  3.6800000000000D+00  0.0000000000000D+00  0.0000000000000D+00
370  3.6900000000000D+00  0.0000000000000D+00  0.0000000000000D+00
371  3.7000000000000D+00  0.0000000000000D+00  0.0000000000000D+00
372  3.7100000000000D+00  0.0000000000000D+00  0.0000000000000D+00
373  3.7200000000000D+00  0.0000000000000D+00  0.0000000000000D+00
374  3.7300000000000D+00  0.0000000000000D+00  0.0000000000000D+00
375  3.7400000000000D+00  0.0000000000000D+00  0.0000000000000D+00
376  3.7500000000000D+00  0.0000000000000D+00  0.0000000000000D+00
377  3.7600000000000D+00  0.0000000000000D+00  0.0000000000000D+00
378  3.7700000000000D+00  0.0000000000000D+00  0.0000000000000D+00
379  3.7800000000000D+00  0.0000000000000D+00  0.0000000000000D+00
380  3.7900000000000D+00  0.0000000000000D+00  0.0000000000000D+00
381  3.8000000000000D+00  0.0000000000000D+00  0.0000000000000D+00
382  3.8100000000000D+00  0.0000000000000D+00  0.0000000000000D+00
383  3.8200000000000D+00  0.0000000000000D+00  0.0000000000000D+00
384  3.8300000000000D+00  0.0000000000000D+00  0.0000000000000D+00
385  3.8400000000000D+00  0.0000000000000D+00  0.0000000000000D+00
386  3.8500000000000D+00  0.0000000000000D+00  0.0000000000000D+00
387  3.8600000000000D+00  0.0000000000000D+00  0.0000000000000D+00
388  3.8700000000000D+00  0.0000000000000D+00  0.0000000000000D+00
389  3.8800000000000D+00  0.0000000000000D+00  0.0000000000000D+00
390  3.8900000000000D+00  0.0000000000000D+00  0.0000000000000D+00
391  3.9000000000000D+00  0.0000000000000D+00  0.0000000000000D+00
392  3.9100000000000D+00  0.0000000000000D+00  0.0000000000000D+00
393  3.9200000000000D+00  0.0000000000000D+00  0.0000000000000D+00
394  3.9300000000000D+00  0.0000000000000D+00  0.0000000000000D+00
395  3.9400000000000D+00  0.0000000000000D+00  0.0000000000000D+00
396  3.9500000000000D+00  0.0000000000000D+00  0.0000000000000D+00
397  3.9600000000000D+00  0.0000000000000D+00  0.0000000000000D+00
398  3.9700000000000D+00  0.0000000000000D+00  0.0000000000000D+00
399  3.9800000000000D+00  0.0000000000000D+00  0.0000000000000D+00
400  3.9900000000000D+00  0.0000000000000D+00  0.0000000000000D+00
401  4.0000000000000D+00  0.0000000000000D+00  0.0000000000000D+00
402  4.0100000000000D+00  0.0000000000000D+00  0.0000000000000D+00
403  4.0200000000000D+00  0.0000000000000D+00  0.0000000000000D+00
404  4.0300000000000D+00  0.0000000000000D+00  0.0000000000000D+00
405  4.0400000000000D+00  0.0000000000000D+00  0.0000000000000D+00
406  4.0500000000000D+00  0.0000000000000D+00  0.0000000000000D+00
407  4.0600000000000D+00  0.0000000000000D+00  0.0000000000000D+00
408  4.0700000000000D+00  0.0000000000000D+00  0.0000000000000D+00
409  4.0800000000000D+00  0.0000000000000D+00  0.0000000000000D+00
410  4.0900000000000D+00  0.0000000000000D+00  0.0000000000000D+00
411  4.1000000000000D+00  0.0000000000000D+00  0.0000000000000D+00
412  4.1100000000000D+00  0.0000000000000D+00  0.0000000000000D+00
413  4.1200000000000D+00  0.0000000000000D+00  0.0000000000000D+00
414  4.1300000000000D+00  0.0000000000000D+00  0.0000000000000D+00
415  4.1400000000000D+00  0.0000000000000D+00  0.0000000000000D+00
416  4.1500000000000D+00  0.0000000000000D+00  0.0000000000000D+00
417  4.1600000000000D+00  0.0000000000000D+00  0.0000000000000D+00
418  4.1700000000000D+00  0.0000000000000D+00  0.0000000000000D+00
419  4.1800000000000D+00  0.0000000000000D+00  0.0000000000000D+00
420  4.1900000000000D+00  0.0000000000000D+00  0.0000000000000D+00
421  4.2000000000000D+00  0.0000000000000D+00  0.0000000000000D+00
422  4.2100000000000D+00  0.0000000000000D+00  0.0000000000000D+00
423  4.2200000000000D+00  0.0000000000000D+00  0.0000000000000D+00
424  4.2300000000000D+00  0.0000000000000D+00  0.0000000000000D+00
425  4.2400000000000D+00  0.0000000000000D+00  0.0000000000000D+00
426  4.2500000000000D+00  0.0000000000000D+00  0.0000000000000D+00
427  4.2600000000000D+00  0.0000000000000D+00  0.0000000000000D+00
428  4.2700000000000D+00  0.0000000000000D+00  0.0000000000000D+00
429  4.2800000000000D+00  0.0000000000000D+00  0.0000000000000D+00
430  4.2900000000000D+00  0.0000000000000D+00  0.0000000000000D+00
431  4.3000000000000D+00  0.0000000000000D+00  0.0000000000000D+00
432  4.3100000000000D+00  0.0000000000000D+00  0.0000000000000D+00
433  4.3200000000000D+00  0.0000000000000D+00  0.0000000000000D+00
434  4.3300000000000D+00  0.0000000000000D+00  0.0000000000000D+00
435  4.3400000000000D+00  0.0000000000000D+00  0.0000000000000D+00
436  4.3500000000000D+00  0.0000000000000D+00  0.0000000000000D+00
437  4.3600000000000D+00  0.0000000000000D+00  0.0000000000000D+00
438  4.3700000000000D+00  0.0000000000000D+00  0.0000000000000D+00
439  4.3800000000000D+00  0.0000000000000D+00  0.0000000000000D+00
440  4.3900000000000D+00  0.0000000000000D+00  0.0000000000000D+00
441  4.4000000000000D+00  0.0000000000000D+00  0.0000000000000D+00
442  4.4100000000000D+00  0.0000000000000D+00  0.0000000000000D+00
443  4.4200000000000D+00  0.0000000000000D+00  0.0000000000000D+00
444  4.4300000000000D+00  0.0000000000000D+00  0.0000000000000D+00