Sb    ONCVPSP  r_core=  2.51  2.15  2.60
51.0000      5.0000      150121    zatom,zion,pspd
8      11   2     4   600     0    pspcod,pspxc,lmax,lloc,mmax,r2well
5.99000000  1.00000000  0.00000000    rchrg fchrg qchrg
2     2     2     0     0    nproj
0                 extension_switch
0                         4.5464697269808D+00  4.9330540672517D-01
1  0.0000000000000D+00  0.0000000000000D+00 -0.0000000000000D+00
2  1.0000000000000D-02  2.0096571564172D-02 -1.3116398536088D-03
3  2.0000000000000D-02  4.0197281607024D-02 -2.6566064670619D-03
4  3.0000000000000D-02  6.0306202476755D-02 -4.0679709743788D-03
5  4.0000000000000D-02  8.0427274663872D-02 -5.5782949447015D-03
6  5.0000000000000D-02  1.0056424187799D-01 -7.2193798056722D-03
7  6.0000000000000D-02  1.2072058732414D-01 -9.0220212820528D-03
8  7.0000000000000D-02  1.4089947156710D-01 -1.1015770470752D-02
9  8.0000000000000D-02  1.6110367236093D-01 -1.3228703125698D-02
10  9.0000000000000D-02  1.8133552681045D-01 -1.5687198676947D-02
11  1.0000000000000D-01  2.0159687621490D-01 -1.8415730439028D-02
12  1.1000000000000D-01  2.2188901392692D-01 -2.1436668386662D-02
13  1.2000000000000D-01  2.4221263654419D-01 -2.4770095806534D-02
14  1.3000000000000D-01  2.6256779872769D-01 -2.8433641030101D-02
15  1.4000000000000D-01  2.8295387190850D-01 -3.2442325320813D-02
16  1.5000000000000D-01  3.0336950715498D-01 -3.6808428007029D-02
17  1.6000000000000D-01  3.2381260237666D-01 -4.1541369582120D-02
18  1.7000000000000D-01  3.4428027411606D-01 -4.6647613750117D-02
19  1.8000000000000D-01  3.6476883403311D-01 -5.2130588836717D-02
20  1.9000000000000D-01  3.8527377027958D-01 -5.7990629298830D-02
21  2.0000000000000D-01  4.0578973377905D-01 -6.4224937402671D-02
22  2.1000000000000D-01  4.2631052961999D-01 -7.0827565764761D-02
23  2.2000000000000D-01  4.4682911345498D-01 -7.7789420358191D-02
24  2.3000000000000D-01  4.6733759301639D-01 -8.5098284293285D-02
25  2.4000000000000D-01  4.8782723470165D-01 -9.2738862119385D-02
26  2.5000000000000D-01  5.0828847517476D-01 -1.0069284427596D-01
27  2.6000000000000D-01  5.2871093788373D-01 -1.0893899136464D-01
28  2.7000000000000D-01  5.4908345439592D-01 -1.1745323743454D-01
29  2.8000000000000D-01  5.6939409041547D-01 -1.2620881194588D-01
30  2.9000000000000D-01  5.8963017632266D-01 -1.3517637941421D-01
31  3.0000000000000D-01  6.0977834193028D-01 -1.4432419536724D-01
32  3.1000000000000D-01  6.2982455542977D-01 -1.5361827855516D-01
33  3.2000000000000D-01  6.4975416618048D-01 -1.6302259769786D-01
34  3.3000000000000D-01  6.6955195084839D-01 -1.7249927056219D-01
35  3.4000000000000D-01  6.8920216282531D-01 -1.8200877512476D-01
36  3.5000000000000D-01  7.0868858530591D-01 -1.9151017434588D-01
37  3.6000000000000D-01  7.2799458554609D-01 -2.0096134360942D-01
38  3.7000000000000D-01  7.4710317274333D-01 -2.1031921161507D-01
39  3.8000000000000D-01  7.6599705766943D-01 -2.1954000633721D-01
40  3.9000000000000D-01  7.8465871275493D-01 -2.2857950052634D-01
41  4.0000000000000D-01  8.0307043444747D-01 -2.3739326454279D-01
42  4.1000000000000D-01  8.2121440580807D-01 -2.4593691771316D-01
43  4.2000000000000D-01  8.3907276074019D-01 -2.5416638395833D-01
44  4.3000000000000D-01  8.5662764621946D-01 -2.6203813650526D-01
45  4.4000000000000D-01  8.7386128556007D-01 -2.6950944428737D-01
46  4.5000000000000D-01  8.9075604007238D-01 -2.7653860899798D-01
47  4.6000000000000D-01  9.0729447184301D-01 -2.8308520371860D-01
48  4.7000000000000D-01  9.2345940224727D-01 -2.8911029124936D-01
49  4.8000000000000D-01  9.3923397024596D-01 -2.9457663849687D-01
50  4.9000000000000D-01  9.5460168808764D-01 -2.9944891722167D-01
51  5.0000000000000D-01  9.6954649122139D-01 -3.0369387902648D-01
52  5.1000000000000D-01  9.8405279874752D-01 -3.0728056689886D-01
53  5.2000000000000D-01  9.9810555272019D-01 -3.1018044121047D-01
54  5.3000000000000D-01  1.0116902584461D+00 -3.1236750742921D-01
55  5.4000000000000D-01  1.0247930435241D+00 -3.1381850778011D-01
56  5.5000000000000D-01  1.0374006729431D+00 -3.1451294624051D-01
57  5.6000000000000D-01  1.0495006004559D+00 -3.1443324228890D-01
58  5.7000000000000D-01  1.0610809860640D+00 -3.1356475647566D-01
59  5.8000000000000D-01  1.0721307308715D+00 -3.1189587329471D-01
60  5.9000000000000D-01  1.0826394879281D+00 -3.0941799522483D-01
61  6.0000000000000D-01  1.0925976948918D+00 -3.0612560387528D-01
62  6.1000000000000D-01  1.1019965624371D+00 -3.0201617276559D-01
63  6.2000000000000D-01  1.1108281142664D+00 -2.9709023416939D-01
64  6.3000000000000D-01  1.1190851647480D+00 -2.9135124900171D-01
65  6.4000000000000D-01  1.1267613273032D+00 -2.8480556558418D-01
66  6.5000000000000D-01  1.1338510215235D+00 -2.7746235888897D-01
67  6.6000000000000D-01  1.1403494502405D+00 -2.6933348774118D-01
68  6.7000000000000D-01  1.1462525895613D+00 -2.6043338431572D-01
69  6.8000000000000D-01  1.1515571871267D+00 -2.5077893669761D-01
70  6.9000000000000D-01  1.1562607300205D+00 -2.4038931344826D-01
71  7.0000000000000D-01  1.1603614266285D+00 -2.2928580586501D-01
72  7.1000000000000D-01  1.1638581816518D+00 -2.1749165514929D-01
73  7.2000000000000D-01  1.1667505715617D+00 -2.0503185778187D-01
74  7.3000000000000D-01  1.1690388128316D+00 -1.9193296237826D-01
75  7.4000000000000D-01  1.1707237291116D+00 -1.7822287055193D-01
76  7.5000000000000D-01  1.1718067185635D+00 -1.6393062184431D-01
77  7.6000000000000D-01  1.1722897188545D+00 -1.4908617567661D-01
78  7.7000000000000D-01  1.1721751710198D+00 -1.3372018999989D-01
79  7.8000000000000D-01  1.1714659825489D+00 -1.1786379838620D-01
80  7.9000000000000D-01  1.1701654912880D+00 -1.0154839957709D-01
81  8.0000000000000D-01  1.1682774248232D+00 -8.4805402625857D-02
82  8.1000000000000D-01  1.1658058656931D+00 -6.7666037357143D-02
83  8.2000000000000D-01  1.1627552148321D+00 -5.0161139503108D-02
84  8.3000000000000D-01  1.1591301558091D+00 -3.2320942982691D-02
85  8.4000000000000D-01  1.1549356205981D+00 -1.4174883362335D-02
86  8.5000000000000D-01  1.1501767569485D+00  4.2485886651405D-03
87  8.6000000000000D-01  1.1448588976581D+00  2.2922182316909D-02
88  8.7000000000000D-01  1.1389875320321D+00  4.1819928883473D-02
89  8.8000000000000D-01  1.1325682797971D+00  6.0917329719584D-02
90  8.9000000000000D-01  1.1256068677140D+00  8.0191488861722D-02
91  9.0000000000000D-01  1.1181091103557D+00  9.9621220453723D-02
92  9.1000000000000D-01  1.1100808933243D+00  1.1918714379918D-01
93  9.2000000000000D-01  1.1015281507497D+00  1.3887182263429D-01
94  9.3000000000000D-01  1.0924568642297D+00  1.5865975927807D-01
95  9.4000000000000D-01  1.0828730524832D+00  1.7853745975897D-01
96  9.5000000000000D-01  1.0727827678706D+00  1.9849345604036D-01
97  9.6000000000000D-01  1.0621920966123D+00  2.1851830790691D-01
98  9.7000000000000D-01  1.0511071627144D+00  2.3860458444668D-01
99  9.8000000000000D-01  1.0395341355639D+00  2.5874682529586D-01
100  9.9000000000000D-01  1.0274792427429D+00  2.7894146984732D-01
101  1.0000000000000D+00  1.0149487857043D+00  2.9918676850943D-01
102  1.0100000000000D+00  1.0019491403637D+00  3.1948281934560D-01
103  1.0200000000000D+00  9.8848680168045D-01  3.3983128253511D-01
104  1.0300000000000D+00  9.7456840020508D-01  3.6023530499657D-01
105  1.0400000000000D+00  9.6020072945780D-01  3.8069937041802D-01
106  1.0500000000000D+00  9.4539077525101D-01  4.0122912655241D-01
107  1.0600000000000D+00  9.3014574267794D-01  4.2183125929280D-01
108  1.0700000000000D+00  9.1447310041864D-01  4.4251325127005D-01
109  1.0800000000000D+00  8.9838061617970D-01  4.6328315309628D-01
110  1.0900000000000D+00  8.8187639228211D-01  4.8414939350560D-01
111  1.1000000000000D+00  8.6496888516077D-01  5.0512064557716D-01
112  1.1100000000000D+00  8.4766698806954D-01  5.2620542300573D-01
113  1.1200000000000D+00  8.2998004998114D-01  5.4741190762052D-01
114  1.1300000000000D+00  8.1191791088594D-01  5.6874774538049D-01
115  1.1400000000000D+00  7.9349090635182D-01  5.9021999741375D-01
116  1.1500000000000D+00  7.7470999813135D-01  6.1183444032225D-01
117  1.1600000000000D+00  7.5558676219636D-01  6.3359556172031D-01
118  1.1700000000000D+00  7.3613340355707D-01  6.5550645221442D-01
119  1.1800000000000D+00  7.1636274736562D-01  6.7756884165873D-01
120  1.1900000000000D+00  6.9628846770280D-01  6.9978177792995D-01
121  1.2000000000000D+00  6.7592492597665D-01  7.2214246509262D-01
122  1.2100000000000D+00  6.5528718059355D-01  7.4464620667483D-01
123  1.2200000000000D+00  6.3439118140825D-01  7.6728522267778D-01
124  1.2300000000000D+00  6.1325370418458D-01  7.9004893502001D-01
125  1.2400000000000D+00  5.9189225594634D-01  8.1292452079775D-01
126  1.2500000000000D+00  5.7032523070221D-01  8.3589591270828D-01
127  1.2600000000000D+00  5.4857194267775D-01  8.5894342431013D-01
128  1.2700000000000D+00  5.2665242566227D-01  8.8204502128247D-01
129  1.2800000000000D+00  5.0458759997502D-01  9.0517516891205D-01
130  1.2900000000000D+00  4.8239929559601D-01  9.2830439422702D-01
131  1.3000000000000D+00  4.6011001940378D-01  9.5140096135926D-01
132  1.3100000000000D+00  4.3774315832088D-01  9.7442922960133D-01
133  1.3200000000000D+00  4.1532288213730D-01  9.9734995661869D-01
134  1.3300000000000D+00  3.9287398958639D-01  1.0201218065222D+00
135  1.3400000000000D+00  3.7042208724666D-01  1.0426991348384D+00
136  1.3500000000000D+00  3.4799336065631D-01  1.0650336950693D+00
137  1.3600000000000D+00  3.2561460863918D-01  1.0870750373922D+00
138  1.3700000000000D+00  3.0331317261730D-01  1.1087687296840D+00
139  1.3800000000000D+00  2.8111686014054D-01  1.1300588539399D+00
140  1.3900000000000D+00  2.5905393672318D-01  1.1508867143615D+00
141  1.4000000000000D+00  2.3715286979924D-01  1.1711915432279D+00
142  1.4100000000000D+00  2.1544265753809D-01  1.1909109645963D+00
143  1.4200000000000D+00  1.9395213751185D-01  1.2099808029810D+00
144  1.4300000000000D+00  1.7271048277925D-01  1.2283358497184D+00
145  1.4400000000000D+00  1.5174685438153D-01  1.2459096826230D+00
146  1.4500000000000D+00  1.3109003968306D-01  1.2626359245438D+00
147  1.4600000000000D+00  1.1076929907548D-01  1.2784466556436D+00
148  1.4700000000000D+00  9.0812679506013D-02  1.2932759269946D+00
149  1.4800000000000D+00  7.1248790435157D-02  1.3070563046068D+00
150  1.4900000000000D+00  5.2105012197230D-02  1.3197228227130D+00
151  1.5000000000000D+00  3.3408527651855D-02  1.3312109638965D+00
152  1.5100000000000D+00  1.5185910921020D-02  1.3414574670669D+00
153  1.5200000000000D+00 -2.5376613904212D-03  1.3504028991646D+00
154  1.5300000000000D+00 -1.9736725185001D-02  1.3579867882057D+00
155  1.5400000000000D+00 -3.6388560335104D-02  1.3641566234492D+00
156  1.5500000000000D+00 -5.2469263614766D-02  1.3688562679080D+00
157  1.5600000000000D+00 -6.7958679742913D-02  1.3720408874198D+00
158  1.5700000000000D+00 -8.2835505345527D-02  1.3736621131010D+00
159  1.5800000000000D+00 -9.7081875513834D-02  1.3736822446380D+00
160  1.5900000000000D+00 -1.1067968961813D-01  1.3720628706075D+00
161  1.6000000000000D+00 -1.2361367444835D-01  1.3687745498615D+00
162  1.6100000000000D+00 -1.3586926382623D-01  1.3637901689912D+00
163  1.6200000000000D+00 -1.4743408514836D-01  1.3570896856124D+00
164  1.6300000000000D+00 -1.5829734908252D-01  1.3486582853991D+00
165  1.6400000000000D+00 -1.6844988646348D-01  1.3384864317857D+00
166  1.6500000000000D+00 -1.7788483724731D-01  1.3265722575605D+00
167  1.6600000000000D+00 -1.8659651798594D-01  1.3129177522698D+00
168  1.6700000000000D+00 -1.9458206211458D-01  1.2975342910003D+00
169  1.6800000000000D+00 -2.0183951910755D-01  1.2804362653588D+00
170  1.6900000000000D+00 -2.0836999587513D-01  1.2616482482475D+00
171  1.7000000000000D+00 -2.1417547227662D-01  1.2411977045908D+00
172  1.7100000000000D+00 -2.1926093171331D-01  1.2191220494641D+00
173  1.7200000000000D+00 -2.2363241648801D-01  1.1954622222141D+00
174  1.7300000000000D+00 -2.2729862422165D-01  1.1702678614778D+00
175  1.7400000000000D+00 -2.3026970848190D-01  1.1435934377474D+00
176  1.7500000000000D+00 -2.3255787100914D-01  1.1155000036425D+00
177  1.7600000000000D+00 -2.3417732137717D-01  1.0860551879602D+00
178  1.7700000000000D+00 -2.3514353120229D-01  1.0553305532032D+00
179  1.7800000000000D+00 -2.3547458326164D-01  1.0234059908709D+00
180  1.7900000000000D+00 -2.3518898925694D-01  9.9036268883686D-01
181  1.8000000000000D+00 -2.3430837132418D-01  9.5629129375259D-01
182  1.8100000000000D+00 -2.3285408536804D-01  9.2128186763231D-01
183  1.8200000000000D+00 -2.3085079012948D-01  8.8543363221972D-01
184  1.8300000000000D+00 -2.2832254651675D-01  8.4884498674515D-01
185  1.8400000000000D+00 -2.2529632300726D-01  8.1162091462475D-01
186  1.8500000000000D+00 -2.2179896452584D-01  7.7386773491709D-01
187  1.8600000000000D+00 -2.1785891900685D-01  7.3569360221829D-01
188  1.8700000000000D+00 -2.1350537905215D-01  6.9721038937308D-01
189  1.8800000000000D+00 -2.0876803750949D-01  6.5852879871189D-01
190  1.8900000000000D+00 -2.0367753381220D-01  6.1976235841769D-01
191  1.9000000000000D+00 -1.9826483350446D-01  5.8102454296864D-01
192  1.9100000000000D+00 -1.9256088303721D-01  5.4242580719070D-01
193  1.9200000000000D+00 -1.8659808206106D-01  5.0408309490969D-01
194  1.9300000000000D+00 -1.8040669482042D-01  4.6610002872595D-01
195  1.9400000000000D+00 -1.7401994542150D-01  4.2859378373019D-01
196  1.9500000000000D+00 -1.6746756899418D-01  3.9166287101483D-01
197  1.9600000000000D+00 -1.6078170359201D-01  3.5541587228562D-01
198  1.9700000000000D+00 -1.5399260717751D-01  3.1995135478400D-01
199  1.9800000000000D+00 -1.4712953987545D-01  2.8536183308863D-01
200  1.9900000000000D+00 -1.4022385747517D-01  2.5174825951624D-01
201  2.0000000000000D+00 -1.3330111461714D-01  2.1918424247574D-01
202  2.0100000000000D+00 -1.2639214030549D-01  1.8776565706075D-01
203  2.0200000000000D+00 -1.1952072132588D-01  1.5755638186170D-01
204  2.0300000000000D+00 -1.1271332563287D-01  1.2863075867450D-01
205  2.0400000000000D+00 -1.0599478887887D-01  1.0105513320260D-01
206  2.0500000000000D+00 -9.9385024986362D-02  7.4873705346754D-02
207  2.0600000000000D+00 -9.2910313205733D-02  5.0156504011553D-02
208  2.0700000000000D+00 -8.6585476476073D-02  2.6924539237844D-02
209  2.0800000000000D+00 -8.0431533148124D-02  5.2235073643123D-03
210  2.0900000000000D+00 -7.4464797609828D-02 -1.4921168240580D-02
211  2.1000000000000D+00 -6.8697673446773D-02 -3.3501111565507D-02
212  2.1100000000000D+00 -6.3148640368035D-02 -5.0484424677161D-02
213  2.1200000000000D+00 -5.7823573931018D-02 -6.5890602526001D-02
214  2.1300000000000D+00 -5.2735084913160D-02 -7.9713496998718D-02
215  2.1400000000000D+00 -4.7890851372751D-02 -9.1967074573609D-02
216  2.1500000000000D+00 -4.3294001785339D-02 -1.0268392981935D-01
217  2.1600000000000D+00 -3.8953903331315D-02 -1.1187438372880D-01
218  2.1700000000000D+00 -3.4868392288058D-02 -1.1959160705854D-01
219  2.1800000000000D+00 -3.1040034465756D-02 -1.2587304988487D-01
220  2.1900000000000D+00 -2.7469533735895D-02 -1.3076324356020D-01
221  2.2000000000000D+00 -2.4152271586538D-02 -1.3432527665284D-01
222  2.2100000000000D+00 -2.1088126032469D-02 -1.3660909433489D-01
223  2.2200000000000D+00 -1.8270676340808D-02 -1.3768455954849D-01
224  2.2300000000000D+00 -1.5693845818827D-02 -1.3762169783427D-01
225  2.2400000000000D+00 -1.3353227391130D-02 -1.3648709353465D-01
226  2.2500000000000D+00 -1.1238505679927D-02 -1.3436321375961D-01
227  2.2600000000000D+00 -9.3420041198899D-03 -1.3132788805014D-01
228  2.2700000000000D+00 -7.6544939576559D-03 -1.2746252139859D-01
229  2.2800000000000D+00 -6.1645788601029D-03 -1.2285298619138D-01
230  2.2900000000000D+00 -4.8622081016968D-03 -1.1758669151018D-01
231  2.3000000000000D+00 -3.7355144627720D-03 -1.1174960696229D-01
232  2.3100000000000D+00 -2.7723677238368D-03 -1.0542938893001D-01
233  2.3200000000000D+00 -1.9605416097425D-03 -9.8721252184630D-02
234  2.3300000000000D+00 -1.2877760977045D-03 -9.1705733571429D-02
235  2.3400000000000D+00 -7.4122718713846D-04 -8.4473199153567D-02
236  2.3500000000000D+00 -3.0774288724611D-04 -7.7116191652247D-02
237  2.3600000000000D+00  2.4111454694178D-05 -6.9708628971546D-02
238  2.3700000000000D+00  2.6767439187556D-04 -6.2340637043016D-02
239  2.3800000000000D+00  4.3520522609940D-04 -5.5093723520723D-02
240  2.3900000000000D+00  5.3685871047715D-04 -4.8032946020072D-02
241  2.4000000000000D+00  5.8586841031011D-04 -4.1244955272056D-02
242  2.4100000000000D+00  5.9211843931687D-04 -3.4793621555827D-02
243  2.4200000000000D+00  5.6405341249049D-04 -2.8732916175014D-02
244  2.4300000000000D+00  5.1408193270847D-04 -2.3142248994810D-02
245  2.4400000000000D+00  4.4870086012682D-04 -1.8063556144873D-02
246  2.4500000000000D+00  3.7421778067945D-04 -1.3537459060341D-02
247  2.4600000000000D+00  3.0143840960988D-04 -9.6321363684022D-03
248  2.4700000000000D+00  2.3298109924911D-04 -6.3657784506170D-03
249  2.4800000000000D+00  1.7261069136825D-04 -3.7634718211905D-03
250  2.4900000000000D+00  1.3598774786163D-04 -2.0309340231094D-03
251  2.5000000000000D+00  1.1050906299651D-04 -9.2309707230043D-04
252  2.5100000000000D+00  8.9624308554576D-05 -2.9045069838681D-04
253  2.5200000000000D+00  5.8201080349391D-05  2.1949801064892D-05
254  2.5300000000000D+00  2.7543425411351D-05  9.0660085686639D-05
255  2.5400000000000D+00  2.4328121416431D-06  1.3845227079743D-05
256  2.5500000000000D+00 -5.3397149303922D-06  1.5052652218545D-05
257  2.5600000000000D+00 -4.9881494932879D-06  1.4061589525915D-05
258  2.5700000000000D+00 -8.4107250047629D-07  2.3709827219787D-06
259  2.5800000000000D+00  0.0000000000000D+00  0.0000000000000D+00
260  2.5900000000000D+00  0.0000000000000D+00  0.0000000000000D+00
261  2.6000000000000D+00  0.0000000000000D+00  0.0000000000000D+00
262  2.6100000000000D+00  0.0000000000000D+00  0.0000000000000D+00
263  2.6200000000000D+00  0.0000000000000D+00  0.0000000000000D+00
264  2.6300000000000D+00  0.0000000000000D+00  0.0000000000000D+00
265  2.6400000000000D+00  0.0000000000000D+00  0.0000000000000D+00
266  2.6500000000000D+00  0.0000000000000D+00  0.0000000000000D+00
267  2.6600000000000D+00  0.0000000000000D+00  0.0000000000000D+00
268  2.6700000000000D+00  0.0000000000000D+00  0.0000000000000D+00
269  2.6800000000000D+00  0.0000000000000D+00  0.0000000000000D+00
270  2.6900000000000D+00  0.0000000000000D+00  0.0000000000000D+00
271  2.7000000000000D+00  0.0000000000000D+00  0.0000000000000D+00
272  2.7100000000000D+00  0.0000000000000D+00  0.0000000000000D+00
273  2.7200000000000D+00  0.0000000000000D+00  0.0000000000000D+00
274  2.7300000000000D+00  0.0000000000000D+00  0.0000000000000D+00
275  2.7400000000000D+00  0.0000000000000D+00  0.0000000000000D+00
276  2.7500000000000D+00  0.0000000000000D+00  0.0000000000000D+00
277  2.7600000000000D+00  0.0000000000000D+00  0.0000000000000D+00
278  2.7700000000000D+00  0.0000000000000D+00  0.0000000000000D+00
279  2.7800000000000D+00  0.0000000000000D+00  0.0000000000000D+00
280  2.7900000000000D+00  0.0000000000000D+00  0.0000000000000D+00
281  2.8000000000000D+00  0.0000000000000D+00  0.0000000000000D+00
282  2.8100000000000D+00  0.0000000000000D+00  0.0000000000000D+00
283  2.8200000000000D+00  0.0000000000000D+00  0.0000000000000D+00
284  2.8300000000000D+00  0.0000000000000D+00  0.0000000000000D+00
285  2.8400000000000D+00  0.0000000000000D+00  0.0000000000000D+00
286  2.8500000000000D+00  0.0000000000000D+00  0.0000000000000D+00
287  2.8600000000000D+00  0.0000000000000D+00  0.0000000000000D+00
288  2.8700000000000D+00  0.0000000000000D+00  0.0000000000000D+00
289  2.8800000000000D+00  0.0000000000000D+00  0.0000000000000D+00
290  2.8900000000000D+00  0.0000000000000D+00  0.0000000000000D+00
291  2.9000000000000D+00  0.0000000000000D+00  0.0000000000000D+00
292  2.9100000000000D+00  0.0000000000000D+00  0.0000000000000D+00
293  2.9200000000000D+00  0.0000000000000D+00  0.0000000000000D+00
294  2.9300000000000D+00  0.0000000000000D+00  0.0000000000000D+00
295  2.9400000000000D+00  0.0000000000000D+00  0.0000000000000D+00
296  2.9500000000000D+00  0.0000000000000D+00  0.0000000000000D+00
297  2.9600000000000D+00  0.0000000000000D+00  0.0000000000000D+00
298  2.9700000000000D+00  0.0000000000000D+00  0.0000000000000D+00
299  2.9800000000000D+00  0.0000000000000D+00  0.0000000000000D+00
300  2.9900000000000D+00  0.0000000000000D+00  0.0000000000000D+00
301  3.0000000000000D+00  0.0000000000000D+00  0.0000000000000D+00
302  3.0100000000000D+00  0.0000000000000D+00  0.0000000000000D+00
303  3.0200000000000D+00  0.0000000000000D+00  0.0000000000000D+00
304  3.0300000000000D+00  0.0000000000000D+00  0.0000000000000D+00
305  3.0400000000000D+00  0.0000000000000D+00  0.0000000000000D+00
306  3.0500000000000D+00  0.0000000000000D+00  0.0000000000000D+00
307  3.0600000000000D+00  0.0000000000000D+00  0.0000000000000D+00
308  3.0700000000000D+00  0.0000000000000D+00  0.0000000000000D+00
309  3.0800000000000D+00  0.0000000000000D+00  0.0000000000000D+00
310  3.0900000000000D+00  0.0000000000000D+00  0.0000000000000D+00
311  3.1000000000000D+00  0.0000000000000D+00  0.0000000000000D+00
312  3.1100000000000D+00  0.0000000000000D+00  0.0000000000000D+00
313  3.1200000000000D+00  0.0000000000000D+00  0.0000000000000D+00
314  3.1300000000000D+00  0.0000000000000D+00  0.0000000000000D+00
315  3.1400000000000D+00  0.0000000000000D+00  0.0000000000000D+00
316  3.1500000000000D+00  0.0000000000000D+00  0.0000000000000D+00
317  3.1600000000000D+00  0.0000000000000D+00  0.0000000000000D+00
318  3.1700000000000D+00  0.0000000000000D+00  0.0000000000000D+00
319  3.1800000000000D+00  0.0000000000000D+00  0.0000000000000D+00
320  3.1900000000000D+00  0.0000000000000D+00  0.0000000000000D+00
321  3.2000000000000D+00  0.0000000000000D+00  0.0000000000000D+00
322  3.2100000000000D+00  0.0000000000000D+00  0.0000000000000D+00
323  3.2200000000000D+00  0.0000000000000D+00  0.0000000000000D+00
324  3.2300000000000D+00  0.0000000000000D+00  0.0000000000000D+00
325  3.2400000000000D+00  0.0000000000000D+00  0.0000000000000D+00
326  3.2500000000000D+00  0.0000000000000D+00  0.0000000000000D+00
327  3.2600000000000D+00  0.0000000000000D+00  0.0000000000000D+00
328  3.2700000000000D+00  0.0000000000000D+00  0.0000000000000D+00
329  3.2800000000000D+00  0.0000000000000D+00  0.0000000000000D+00
330  3.2900000000000D+00  0.0000000000000D+00  0.0000000000000D+00
331  3.3000000000000D+00  0.0000000000000D+00  0.0000000000000D+00
332  3.3100000000000D+00  0.0000000000000D+00  0.0000000000000D+00
333  3.3200000000000D+00  0.0000000000000D+00  0.0000000000000D+00
334  3.3300000000000D+00  0.0000000000000D+00  0.0000000000000D+00
335  3.3400000000000D+00  0.0000000000000D+00  0.0000000000000D+00
336  3.3500000000000D+00  0.0000000000000D+00  0.0000000000000D+00
337  3.3600000000000D+00  0.0000000000000D+00  0.0000000000000D+00
338  3.3700000000000D+00  0.0000000000000D+00  0.0000000000000D+00
339  3.3800000000000D+00  0.0000000000000D+00  0.0000000000000D+00
340  3.3900000000000D+00  0.0000000000000D+00  0.0000000000000D+00
341  3.4000000000000D+00  0.0000000000000D+00  0.0000000000000D+00
342  3.4100000000000D+00  0.0000000000000D+00  0.0000000000000D+00
343  3.4200000000000D+00  0.0000000000000D+00  0.0000000000000D+00
344  3.4300000000000D+00  0.0000000000000D+00  0.0000000000000D+00
345  3.4400000000000D+00  0.0000000000000D+00  0.0000000000000D+00
346  3.4500000000000D+00  0.0000000000000D+00  0.0000000000000D+00
347  3.4600000000000D+00  0.0000000000000D+00  0.0000000000000D+00
348  3.4700000000000D+00  0.0000000000000D+00  0.0000000000000D+00
349  3.4800000000000D+00  0.0000000000000D+00  0.0000000000000D+00
350  3.4900000000000D+00  0.0000000000000D+00  0.0000000000000D+00
351  3.5000000000000D+00  0.0000000000000D+00  0.0000000000000D+00
352  3.5100000000000D+00  0.0000000000000D+00  0.0000000000000D+00
353  3.5200000000000D+00  0.0000000000000D+00  0.0000000000000D+00
354  3.5300000000000D+00  0.0000000000000D+00  0.0000000000000D+00
355  3.5400000000000D+00  0.0000000000000D+00  0.0000000000000D+00
356  3.5500000000000D+00  0.0000000000000D+00  0.0000000000000D+00
357  3.5600000000000D+00  0.0000000000000D+00  0.0000000000000D+00
358  3.5700000000000D+00  0.0000000000000D+00  0.0000000000000D+00
359  3.5800000000000D+00  0.0000000000000D+00  0.0000000000000D+00
360  3.5900000000000D+00  0.0000000000000D+00  0.0000000000000D+00
361  3.6000000000000D+00  0.0000000000000D+00  0.0000000000000D+00
362  3.6100000000000D+00  0.0000000000000D+00  0.0000000000000D+00
363  3.6200000000000D+00  0.0000000000000D+00  0.0000000000000D+00
364  3.6300000000000D+00  0.0000000000000D+00  0.0000000000000D+00
365  3.6400000000000D+00  0.0000000000000D+00  0.0000000000000D+00
366  3.6500000000000D+00  0.0000000000000D+00  0.0000000000000D+00
367  3.6600000000000D+00  0.0000000000000D+00  0.0000000000000D+00
368  3.6700000000000D+00  0.0000000000000D+00  0.0000000000000D+00
369  3.6800000000000D+00  0.0000000000000D+00  0.0000000000000D+00
370  3.6900000000000D+00  0.0000000000000D+00  0.0000000000000D+00
371  3.7000000000000D+00  0.0000000000000D+00  0.0000000000000D+00
372  3.7100000000000D+00  0.0000000000000D+00  0.0000000000000D+00
373  3.7200000000000D+00  0.0000000000000D+00  0.0000000000000D+00
374  3.7300000000000D+00  0.0000000000000D+00  0.0000000000000D+00
375  3.7400000000000D+00  0.0000000000000D+00  0.0000000000000D+00
376  3.7500000000000D+00  0.0000000000000D+00  0.0000000000000D+00
377  3.7600000000000D+00  0.0000000000000D+00  0.0000000000000D+00
378  3.7700000000000D+00  0.0000000000000D+00  0.0000000000000D+00
379  3.7800000000000D+00  0.0000000000000D+00  0.0000000000000D+00
380  3.7900000000000D+00  0.0000000000000D+00  0.0000000000000D+00
381  3.8000000000000D+00  0.0000000000000D+00  0.0000000000000D+00
382  3.8100000000000D+00  0.0000000000000D+00  0.0000000000000D+00
383  3.8200000000000D+00  0.0000000000000D+00  0.0000000000000D+00
384  3.8300000000000D+00  0.0000000000000D+00  0.0000000000000D+00
385  3.8400000000000D+00  0.0000000000000D+00  0.0000000000000D+00
386  3.8500000000000D+00  0.0000000000000D+00  0.0000000000000D+00
387  3.8600000000000D+00  0.0000000000000D+00  0.0000000000000D+00
388  3.8700000000000D+00  0.0000000000000D+00  0.0000000000000D+00
389  3.8800000000000D+00  0.0000000000000D+00  0.0000000000000D+00
390  3.8900000000000D+00  0.0000000000000D+00  0.0000000000000D+00
391  3.9000000000000D+00  0.0000000000000D+00  0.0000000000000D+00
392  3.9100000000000D+00  0.0000000000000D+00  0.0000000000000D+00
393  3.9200000000000D+00  0.0000000000000D+00  0.0000000000000D+00
394  3.9300000000000D+00  0.0000000000000D+00  0.0000000000000D+00
395  3.9400000000000D+00  0.0000000000000D+00  0.0000000000000D+00
396  3.9500000000000D+00  0.0000000000000D+00  0.0000000000000D+00
397  3.9600000000000D+00  0.0000000000000D+00  0.0000000000000D+00
398  3.9700000000000D+00  0.0000000000000D+00  0.0000000000000D+00
399  3.9800000000000D+00  0.0000000000000D+00  0.0000000000000D+00
400  3.9900000000000D+00  0.0000000000000D+00  0.0000000000000D+00
401  4.0000000000000D+00  0.0000000000000D+00  0.0000000000000D+00
402  4.0100000000000D+00  0.0000000000000D+00  0.0000000000000D+00
403  4.0200000000000D+00  0.0000000000000D+00  0.0000000000000D+00
404  4.0300000000000D+00  0.0000000000000D+00  0.0000000000000D+00
405  4.0400000000000D+00  0.0000000000000D+00  0.0000000000000D+00
406  4.0500000000000D+00  0.0000000000000D+00  0.0000000000000D+00
407  4.0600000000000D+00  0.0000000000000D+00  0.0000000000000D+00
408  4.0700000000000D+00  0.0000000000000D+00  0.0000000000000D+00
409  4.0800000000000D+00  0.0000000000000D+00  0.0000000000000D+00
410  4.0900000000000D+00  0.0000000000000D+00  0.0000000000000D+00
411  4.1000000000000D+00  0.0000000000000D+00  0.0000000000000D+00
412  4.1100000000000D+00  0.0000000000000D+00  0.0000000000000D+00
413  4.1200000000000D+00  0.0000000000000D+00  0.0000000000000D+00
414  4.1300000000000D+00  0.0000000000000D+00  0.0000000000000D+00
415  4.1400000000000D+00  0.0000000000000D+00  0.0000000000000D+00
416  4.1500000000000D+00  0.0000000000000D+00  0.0000000000000D+00
417  4.1600000000000D+00  0.0000000000000D+00  0.0000000000000D+00
418  4.1700000000000D+00  0.0000000000000D+00  0.0000000000000D+00
419  4.1800000000000D+00  0.0000000000000D+00  0.0000000000000D+00
420  4.1900000000000D+00  0.0000000000000D+00  0.0000000000000D+00
421  4.2000000000000D+00  0.0000000000000D+00  0.0000000000000D+00
422  4.2100000000000D+00  0.0000000000000D+00  0.0000000000000D+00
423  4.2200000000000D+00  0.0000000000000D+00  0.0000000000000D+00
424  4.2300000000000D+00  0.0000000000000D+00  0.0000000000000D+00
425  4.2400000000000D+00  0.0000000000000D+00  0.0000000000000D+00
426  4.2500000000000D+00  0.0000000000000D+00  0.0000000000000D+00
427  4.2600000000000D+00  0.0000000000000D+00  0.0000000000000D+00
428  4.2700000000000D+00  0.0000000000000D+00  0.0000000000000D+00
429  4.2800000000000D+00  0.0000000000000D+00  0.0000000000000D+00
430  4.2900000000000D+00  0.0000000000000D+00  0.0000000000000D+00
431  4.3000000000000D+00  0.0000000000000D+00  0.0000000000000D+00
432  4.3100000000000D+00  0.0000000000000D+00  0.0000000000000D+00
433  4.3200000000000D+00  0.0000000000000D+00  0.0000000000000D+00
434  4.3300000000000D+00  0.0000000000000D+00  0.0000000000000D+00
435  4.3400000000000D+00  0.0000000000000D+00  0.0000000000000D+00
436  4.3500000000000D+00  0.0000000000000D+00  0.0000000000000D+00
437  4.3600000000000D+00  0.0000000000000D+00  0.0000000000000D+00
438  4.3700000000000D+00  0.0000000000000D+00  0.0000000000000D+00
439  4.3800000000000D+00  0.0000000000000D+00  0.0000000000000D+00
440  4.3900000000000D+00  0.0000000000000D+00  0.0000000000000D+00
441  4.4000000000000D+00  0.0000000000000D+00  0.0000000000000D+00
442  4.4100000000000D+00  0.0000000000000D+00  0.0000000000000D+00
443  4.4200000000000D+00  0.0000000000000D+00  0.0000000000000D+00
444  4.4300000000000D+00  0.0000000000000D+00  0.0000000000000D+00