Rh    ONCVPSP-3.3.0  r_core=   1.40787   1.40787   1.35838
45.0000     17.0000      180420    zatom,zion,pspd
8      11   2     4   600     0    pspcod,pspxc,lmax,lloc,mmax,r2well
5.99000000  7.00000000  0.00000000    rchrg fchrg qchrg
2     4     4     0    nproj
3     1           extension_switch
4     4     0    nprojso
0                         1.5000218954990D+00  1.6274744347261D+01
1  0.0000000000000D+00 -4.0664460687623D-10  1.7561085918771D-10
2  1.0000000000000D-02 -3.6080531172834D-02  7.8949295679756D-02
3  2.0000000000000D-02 -7.1998384523783D-02  1.5773156903367D-01
4  3.0000000000000D-02 -1.0759096806723D-01  2.3618000431054D-01
5  4.0000000000000D-02 -1.4269586823751D-01  3.1412820159806D-01
6  5.0000000000000D-02 -1.7715095586284D-01  3.9141039142123D-01
7  6.0000000000000D-02 -2.1079451196416D-01  4.6786165722948D-01
8  7.0000000000000D-02 -2.4346537950457D-01  5.4331816819358D-01
9  8.0000000000000D-02 -2.7500314680841D-01  6.1761742455793D-01
10  9.0000000000000D-02 -3.0524836786982D-01  6.9059851757799D-01
11  1.0000000000000D-01 -3.3404282418428D-01  7.6210240581961D-01
12  1.1000000000000D-01 -3.6122983207039D-01  8.3197220930888D-01
13  1.2000000000000D-01 -3.8665459871024D-01  9.0005352270232D-01
14  1.3000000000000D-01 -4.1016462933461D-01  9.6619474830030D-01
15  1.4000000000000D-01 -4.3161018712235D-01  1.0302474493566D+00
16  1.5000000000000D-01 -4.5084480648265D-01  1.0920667237476D+00
17  1.6000000000000D-01 -4.6772585945494D-01  1.1515115976614D+00
18  1.7000000000000D-01 -4.8211517400477D-01  1.2084454385535D+00
19  1.8000000000000D-01 -4.9387970202747D-01  1.2627363861967D+00
20  1.9000000000000D-01 -5.0289223390542D-01  1.3142578002386D+00
21  2.0000000000000D-01 -5.0903215551279D-01  1.3628887222637D+00
22  2.1000000000000D-01 -5.1218624263417D-01  1.4085143499598D+00
23  2.2000000000000D-01 -5.1224948687264D-01  1.4510265206015D+00
24  2.3000000000000D-01 -5.0912594628129D-01  1.4903242006990D+00
25  2.4000000000000D-01 -5.0272961316903D-01  1.5263139783208D+00
26  2.5000000000000D-01 -4.9298529081916D-01  1.5589105542946D+00
27  2.6000000000000D-01 -4.7982947022638D-01  1.5880372282087D+00
28  2.7000000000000D-01 -4.6321119741462D-01  1.6136263749094D+00
29  2.8000000000000D-01 -4.4309292145237D-01  1.6356199069897D+00
30  2.9000000000000D-01 -4.1945131294117D-01  1.6539697186206D+00
31  3.0000000000000D-01 -3.9227804252336D-01  1.6686381059745D+00
32  3.1000000000000D-01 -3.6158050884291D-01  1.6795981594417D+00
33  3.2000000000000D-01 -3.2738250539979D-01  1.6868341228443D+00
34  3.3000000000000D-01 -2.8972481587054D-01  1.6903417149066D+00
35  3.4000000000000D-01 -2.4866572772264D-01  1.6901284083545D+00
36  3.5000000000000D-01 -2.0428145433167D-01  1.6862136621787D+00
37  3.6000000000000D-01 -1.5666645631473D-01  1.6786291028187D+00
38  3.7000000000000D-01 -1.0593365341901D-01  1.6674186502921D+00
39  3.8000000000000D-01 -5.2214519047474D-02  1.6526385856222D+00
40  3.9000000000000D-01  4.3409496418557D-03  1.6343575562846D+00
41  4.0000000000000D-01  6.3564392166738D-02  1.6126565168146D+00
42  4.1000000000000D-01  1.2526938072825D-01  1.5876286021785D+00
43  4.2000000000000D-01  1.8925185569596D-01  1.5593789320108D+00
44  4.3000000000000D-01  2.5529070324860D-01  1.5280243443590D+00
45  4.4000000000000D-01  3.2314847655750D-01  1.4936930581382D+00
46  4.5000000000000D-01  3.9257226055522D-01  1.4565242640951D+00
47  4.6000000000000D-01  4.6329467894513D-01  1.4166676446858D+00
48  4.7000000000000D-01  5.3503504069306D-01  1.3742828239000D+00
49  4.8000000000000D-01  6.0750062181382D-01  1.3295387486958D+00
50  4.9000000000000D-01  6.8038807683730D-01  1.2826130043420D+00
51  5.0000000000000D-01  7.5338497292803D-01  1.2336910665946D+00
52  5.1000000000000D-01  8.2617143825052D-01  1.1829654942528D+00
53  5.2000000000000D-01  8.9842191483813D-01  1.1306350662387D+00
54  5.3000000000000D-01  9.6980700494877D-01  1.0769038679224D+00
55  5.4000000000000D-01  1.0399953986932D+00  1.0219803319580D+00
56  5.5000000000000D-01  1.1086558696101D+00  9.6607623941036D-01
57  5.6000000000000D-01  1.1754593238576D+00  9.0940568741480D-01
58  5.7000000000000D-01  1.2400808877975D+00  8.5218403003641D-01
59  5.8000000000000D-01  1.3022020179856D+00  7.9462679936244D-01
60  5.9000000000000D-01  1.3615126169505D+00  7.3694861417212D-01
61  6.0000000000000D-01  1.4177131376681D+00  6.7936208377819D-01
62  6.1000000000000D-01  1.4705166593052D+00  6.2207671482015D-01
63  6.2000000000000D-01  1.5196509166464D+00  5.6529782890642D-01
64  6.3000000000000D-01  1.5648602656153D+00  5.0922549905065D-01
65  6.4000000000000D-01  1.6059075674705D+00  4.5405351282345D-01
66  6.5000000000000D-01  1.6425759745979D+00  3.9996837004467D-01
67  6.6000000000000D-01  1.6746706013339D+00  3.4714832267190D-01
68  6.7000000000000D-01  1.7020200639271D+00  2.9576246430022D-01
69  6.8000000000000D-01  1.7244778745996D+00  2.4596987637544D-01
70  6.9000000000000D-01  1.7419236756666D+00  1.9791883784187D-01
71  7.0000000000000D-01  1.7542643008373D+00  1.5174610449716D-01
72  7.1000000000000D-01  1.7614346521111D+00  1.0757626381841D-01
73  7.2000000000000D-01  1.7633983821308D+00  6.5521170451198D-02
74  7.3000000000000D-01  1.7601483733992D+00  2.5679466931341D-02
75  7.4000000000000D-01  1.7517070074364D+00 -1.1863806463801D-02
76  7.5000000000000D-01  1.7381262187097D+00 -4.7037509553899D-02
77  7.6000000000000D-01  1.7194873300012D+00 -7.9784605353918D-02
78  7.7000000000000D-01  1.6959006677743D+00 -1.1006226678492D-01
79  7.8000000000000D-01  1.6675049580363D+00 -1.3784188615439D-01
80  7.9000000000000D-01  1.6344665051550D+00 -1.6310898738126D-01
81  8.0000000000000D-01  1.5969781580499D+00 -1.8586304176712D-01
82  8.1000000000000D-01  1.5552580701282D+00 -2.0611718894021D-01
83  8.2000000000000D-01  1.5095482612515D+00 -2.2389786541477D-01
84  8.3000000000000D-01  1.4601129918761D+00 -2.3924434400713D-01
85  8.4000000000000D-01  1.4072369612980D+00 -2.5220818812411D-01
86  8.5000000000000D-01  1.3512233436238D+00 -2.6285262567991D-01
87  8.6000000000000D-01  1.2923916766731D+00 -2.7125184809856D-01
88  8.7000000000000D-01  1.2310756204690D+00 -2.7749024051152D-01
89  8.8000000000000D-01  1.1676206032819D+00 -2.8166154985832D-01
90  8.9000000000000D-01  1.1023813743430D+00 -2.8386799813562D-01
91  9.0000000000000D-01  1.0357194833136D+00 -2.8421934851010D-01
92  9.1000000000000D-01  9.6800070739309D-01 -2.8283193240972D-01
93  9.2000000000000D-01  8.9959244753457D-01 -2.7982764602959D-01
94  9.3000000000000D-01  8.3086111563381D-01 -2.7533292493081D-01
95  9.4000000000000D-01  7.6216953473048D-01 -2.6947770556902D-01
96  9.5000000000000D-01  6.9387437422799D-01 -2.6239438266288D-01
97  9.6000000000000D-01  6.2632364188561D-01 -2.5421677129969D-01
98  9.7000000000000D-01  5.5985425385413D-01 -2.4507908257098D-01
99  9.8000000000000D-01  4.9478970336441D-01 -2.3511492135052D-01
100  9.9000000000000D-01  4.3143784775847D-01 -2.2445631454789D-01
101  1.0000000000000D+00  3.7008883246207D-01 -2.1323277781687D-01
102  1.0100000000000D+00  3.1101316920210D-01 -2.0157042826192D-01
103  1.0200000000000D+00  2.5445998429113D-01 -1.8959115017371D-01
104  1.0300000000000D+00  2.0065545115648D-01 -1.7741182024251D-01
105  1.0400000000000D+00  1.4980141942109D-01 -1.6514359802577D-01
106  1.0500000000000D+00  1.0207425106378D-01 -1.5289128679878D-01
107  1.0600000000000D+00  5.7623871893478D-02 -1.4075276907235D-01
108  1.0700000000000D+00  1.6573044558770D-02 -1.2881852031239D-01
109  1.0800000000000D+00 -2.0983132977290D-02 -1.1717120353693D-01
110  1.0900000000000D+00 -5.4977502025309D-02 -1.0588534653604D-01
111  1.1000000000000D+00 -8.5370891299354D-02 -9.5027102718824D-02
112  1.1100000000000D+00 -1.1215194195468D-01 -8.4654095485140D-02
113  1.1200000000000D+00 -1.3533671485804D-01 -7.4815345262840D-02
114  1.1300000000000D+00 -1.5496808802763D-01 -6.5551277336964D-02
115  1.1400000000000D+00 -1.7111495405952D-01 -5.6893807862954D-02
116  1.1500000000000D+00 -1.8387122992779D-01 -4.8866504445735D-02
117  1.1600000000000D+00 -1.9335469344068D-01 -4.1484816913240D-02
118  1.1700000000000D+00 -1.9970566275495D-01 -3.4756373062957D-02
119  1.1800000000000D+00 -2.0308553668044D-01 -2.8681333626629D-02
120  1.1900000000000D+00 -2.0367521582467D-01 -2.3252799753788D-02
121  1.2000000000000D+00 -2.0167342570515D-01 -1.8457265861787D-02
122  1.2100000000000D+00 -1.9729496423422D-01 -1.4275110160443D-02
123  1.2200000000000D+00 -1.9076889704428D-01 -1.0681114711205D-02
124  1.2300000000000D+00 -1.8233672521408D-01 -7.6450063863130D-03
125  1.2400000000000D+00 -1.7225055020323D-01 -5.1320099416378D-03
126  1.2500000000000D+00 -1.6077126134035D-01 -3.1034041898961D-03
127  1.2600000000000D+00 -1.4816677150695D-01 -1.5170720287433D-03
128  1.2700000000000D+00 -1.3471033777884D-01 -3.2803235636151D-04
129  1.2800000000000D+00 -1.2067891483531D-01  5.1103608101693D-04
130  1.2900000000000D+00 -1.0635185713016D-01  1.0493605962551D-03
131  1.3000000000000D+00 -9.2008820384309D-02  1.3374449594664D-03
132  1.3100000000000D+00 -7.7930913932560D-02  1.4272611953939D-03
133  1.3200000000000D+00 -6.4395681888810D-02  1.3709120373344D-03
134  1.3300000000000D+00 -5.1666525046899D-02  1.2179257585021D-03
135  1.3400000000000D+00 -3.9981866843751D-02  1.0123922854917D-03
136  1.3500000000000D+00 -2.9547588433060D-02  7.9090268359820D-04
137  1.3600000000000D+00 -2.0539257179781D-02  5.8256986514035D-04
138  1.3700000000000D+00 -1.3096750489064D-02  4.0822386750942D-04
139  1.3800000000000D+00 -7.2820832699821D-03  2.7704853518556D-04
140  1.3900000000000D+00 -3.2631216290254D-03  1.9967970051489D-04
141  1.4000000000000D+00 -1.1638871477311D-03  1.8084985254210D-04
142  1.4100000000000D+00 -3.4304792426319D-04  1.4115198213259D-04
143  1.4200000000000D+00 -4.9272872290683D-05  4.1255283310756D-05
144  1.4300000000000D+00  1.1589585959680D-05 -1.5283533601410D-05
145  1.4400000000000D+00  1.9701232669074D-06 -4.3650091588219D-06
146  1.4500000000000D+00 -4.0942561464303D-06  3.6789882849321D-06
147  1.4600000000000D+00  2.3289340932345D-07 -7.9723284236302D-08
148  1.4700000000000D+00  1.1833779790490D-06 -4.0508994761493D-07
149  1.4800000000000D+00  0.0000000000000D+00  0.0000000000000D+00
150  1.4900000000000D+00  0.0000000000000D+00  0.0000000000000D+00
151  1.5000000000000D+00  0.0000000000000D+00  0.0000000000000D+00
152  1.5100000000000D+00  0.0000000000000D+00  0.0000000000000D+00
153  1.5200000000000D+00  0.0000000000000D+00  0.0000000000000D+00
154  1.5300000000000D+00  0.0000000000000D+00  0.0000000000000D+00
155  1.5400000000000D+00  0.0000000000000D+00  0.0000000000000D+00
156  1.5500000000000D+00  0.0000000000000D+00  0.0000000000000D+00
157  1.5600000000000D+00  0.0000000000000D+00  0.0000000000000D+00
158  1.5700000000000D+00  0.0000000000000D+00  0.0000000000000D+00
159  1.5800000000000D+00  0.0000000000000D+00  0.0000000000000D+00
160  1.5900000000000D+00  0.0000000000000D+00  0.0000000000000D+00
161  1.6000000000000D+00  0.0000000000000D+00  0.0000000000000D+00
162  1.6100000000000D+00  0.0000000000000D+00  0.0000000000000D+00
163  1.6200000000000D+00  0.0000000000000D+00  0.0000000000000D+00
164  1.6300000000000D+00  0.0000000000000D+00  0.0000000000000D+00
165  1.6400000000000D+00  0.0000000000000D+00  0.0000000000000D+00
166  1.6500000000000D+00  0.0000000000000D+00  0.0000000000000D+00
167  1.6600000000000D+00  0.0000000000000D+00  0.0000000000000D+00
168  1.6700000000000D+00  0.0000000000000D+00  0.0000000000000D+00
169  1.6800000000000D+00  0.0000000000000D+00  0.0000000000000D+00
170  1.6900000000000D+00  0.0000000000000D+00  0.0000000000000D+00
171  1.7000000000000D+00  0.0000000000000D+00  0.0000000000000D+00
172  1.7100000000000D+00  0.0000000000000D+00  0.0000000000000D+00
173  1.7200000000000D+00  0.0000000000000D+00  0.0000000000000D+00
174  1.7300000000000D+00  0.0000000000000D+00  0.0000000000000D+00
175  1.7400000000000D+00  0.0000000000000D+00  0.0000000000000D+00
176  1.7500000000000D+00  0.0000000000000D+00  0.0000000000000D+00
177  1.7600000000000D+00  0.0000000000000D+00  0.0000000000000D+00
178  1.7700000000000D+00  0.0000000000000D+00  0.0000000000000D+00
179  1.7800000000000D+00  0.0000000000000D+00  0.0000000000000D+00
180  1.7900000000000D+00  0.0000000000000D+00  0.0000000000000D+00
181  1.8000000000000D+00  0.0000000000000D+00  0.0000000000000D+00
182  1.8100000000000D+00  0.0000000000000D+00  0.0000000000000D+00
183  1.8200000000000D+00  0.0000000000000D+00  0.0000000000000D+00
184  1.8300000000000D+00  0.0000000000000D+00  0.0000000000000D+00
185  1.8400000000000D+00  0.0000000000000D+00  0.0000000000000D+00
186  1.8500000000000D+00  0.0000000000000D+00  0.0000000000000D+00
187  1.8600000000000D+00  0.0000000000000D+00  0.0000000000000D+00
188  1.8700000000000D+00  0.0000000000000D+00  0.0000000000000D+00
189  1.8800000000000D+00  0.0000000000000D+00  0.0000000000000D+00
190  1.8900000000000D+00  0.0000000000000D+00  0.0000000000000D+00
191  1.9000000000000D+00  0.0000000000000D+00  0.0000000000000D+00
192  1.9100000000000D+00  0.0000000000000D+00  0.0000000000000D+00
193  1.9200000000000D+00  0.0000000000000D+00  0.0000000000000D+00
194  1.9300000000000D+00  0.0000000000000D+00  0.0000000000000D+00
195  1.9400000000000D+00  0.0000000000000D+00  0.0000000000000D+00
196  1.9500000000000D+00  0.0000000000000D+00  0.0000000000000D+00
197  1.9600000000000D+00  0.0000000000000D+00  0.0000000000000D+00
198  1.9700000000000D+00  0.0000000000000D+00  0.0000000000000D+00
199  1.9800000000000D+00  0.0000000000000D+00  0.0000000000000D+00
200  1.9900000000000D+00  0.0000000000000D+00  0.0000000000000D+00
201  2.0000000000000D+00  0.0000000000000D+00  0.0000000000000D+00
202  2.0100000000000D+00  0.0000000000000D+00  0.0000000000000D+00
203  2.0200000000000D+00  0.0000000000000D+00  0.0000000000000D+00
204  2.0300000000000D+00  0.0000000000000D+00  0.0000000000000D+00
205  2.0400000000000D+00  0.0000000000000D+00  0.0000000000000D+00
206  2.0500000000000D+00  0.0000000000000D+00  0.0000000000000D+00
207  2.0600000000000D+00  0.0000000000000D+00  0.0000000000000D+00
208  2.0700000000000D+00  0.0000000000000D+00  0.0000000000000D+00
209  2.0800000000000D+00  0.0000000000000D+00  0.0000000000000D+00
210  2.0900000000000D+00  0.0000000000000D+00  0.0000000000000D+00
211  2.1000000000000D+00  0.0000000000000D+00  0.0000000000000D+00
212  2.1100000000000D+00  0.0000000000000D+00  0.0000000000000D+00
213  2.1200000000000D+00  0.0000000000000D+00  0.0000000000000D+00
214  2.1300000000000D+00  0.0000000000000D+00  0.0000000000000D+00
215  2.1400000000000D+00  0.0000000000000D+00  0.0000000000000D+00
216  2.1500000000000D+00  0.0000000000000D+00  0.0000000000000D+00
217  2.1600000000000D+00  0.0000000000000D+00  0.0000000000000D+00
218  2.1700000000000D+00  0.0000000000000D+00  0.0000000000000D+00
219  2.1800000000000D+00  0.0000000000000D+00  0.0000000000000D+00
220  2.1900000000000D+00  0.0000000000000D+00  0.0000000000000D+00
221  2.2000000000000D+00  0.0000000000000D+00  0.0000000000000D+00
222  2.2100000000000D+00  0.0000000000000D+00  0.0000000000000D+00
223  2.2200000000000D+00  0.0000000000000D+00  0.0000000000000D+00
224  2.2300000000000D+00  0.0000000000000D+00  0.0000000000000D+00
225  2.2400000000000D+00  0.0000000000000D+00  0.0000000000000D+00
226  2.2500000000000D+00  0.0000000000000D+00  0.0000000000000D+00
227  2.2600000000000D+00  0.0000000000000D+00  0.0000000000000D+00
228  2.2700000000000D+00  0.0000000000000D+00  0.0000000000000D+00
229  2.2800000000000D+00  0.0000000000000D+00  0.0000000000000D+00
230  2.2900000000000D+00  0.0000000000000D+00  0.0000000000000D+00
231  2.3000000000000D+00  0.0000000000000D+00  0.0000000000000D+00
232  2.3100000000000D+00  0.0000000000000D+00  0.0000000000000D+00
233  2.3200000000000D+00  0.0000000000000D+00  0.0000000000000D+00
234  2.3300000000000D+00  0.0000000000000D+00  0.0000000000000D+00
235  2.3400000000000D+00  0.0000000000000D+00  0.0000000000000D+00
236  2.3500000000000D+00  0.0000000000000D+00  0.0000000000000D+00
237  2.3600000000000D+00  0.0000000000000D+00  0.0000000000000D+00
238  2.3700000000000D+00  0.0000000000000D+00  0.0000000000000D+00
239  2.3800000000000D+00  0.0000000000000D+00  0.0000000000000D+00
240  2.3900000000000D+00  0.0000000000000D+00  0.0000000000000D+00
241  2.4000000000000D+00  0.0000000000000D+00  0.0000000000000D+00
242  2.4100000000000D+00  0.0000000000000D+00  0.0000000000000D+00
243  2.4200000000000D+00  0.0000000000000D+00  0.0000000000000D+00
244  2.4300000000000D+00  0.0000000000000D+00  0.0000000000000D+00
245  2.4400000000000D+00  0.0000000000000D+00  0.0000000000000D+00
246  2.4500000000000D+00  0.0000000000000D+00  0.0000000000000D+00
247  2.4600000000000D+00  0.0000000000000D+00  0.0000000000000D+00
248  2.4700000000000D+00  0.0000000000000D+00  0.0000000000000D+00
249  2.4800000000000D+00  0.0000000000000D+00  0.0000000000000D+00
250  2.4900000000000D+00  0.0000000000000D+00  0.0000000000000D+00
251  2.5000000000000D+00  0.0000000000000D+00  0.0000000000000D+00
252  2.5100000000000D+00  0.0000000000000D+00  0.0000000000000D+00
253  2.5200000000000D+00  0.0000000000000D+00  0.0000000000000D+00
254  2.5300000000000D+00  0.0000000000000D+00  0.0000000000000D+00
255  2.5400000000000D+00  0.0000000000000D+00  0.0000000000000D+00
256  2.5500000000000D+00  0.0000000000000D+00  0.0000000000000D+00
257  2.5600000000000D+00  0.0000000000000D+00  0.0000000000000D+00
258  2.5700000000000D+00  0.0000000000000D+00  0.0000000000000D+00
259  2.5800000000000D+00  0.0000000000000D+00  0.0000000000000D+00
260  2.5900000000000D+00  0.0000000000000D+00  0.0000000000000D+00
261  2.6000000000000D+00  0.0000000000000D+00  0.0000000000000D+00
262  2.6100000000000D+00  0.0000000000000D+00  0.0000000000000D+00
263  2.6200000000000D+00  0.0000000000000D+00  0.0000000000000D+00
264  2.6300000000000D+00  0.0000000000000D+00  0.0000000000000D+00
265  2.6400000000000D+00  0.0000000000000D+00  0.0000000000000D+00
266  2.6500000000000D+00  0.0000000000000D+00  0.0000000000000D+00
267  2.6600000000000D+00  0.0000000000000D+00  0.0000000000000D+00
268  2.6700000000000D+00  0.0000000000000D+00  0.0000000000000D+00
269  2.6800000000000D+00  0.0000000000000D+00  0.0000000000000D+00
270  2.6900000000000D+00  0.0000000000000D+00  0.0000000000000D+00
271  2.7000000000000D+00  0.0000000000000D+00  0.0000000000000D+00
272  2.7100000000000D+00  0.0000000000000D+00  0.0000000000000D+00
273  2.7200000000000D+00  0.0000000000000D+00  0.0000000000000D+00
274  2.7300000000000D+00  0.0000000000000D+00  0.0000000000000D+00
275  2.7400000000000D+00  0.0000000000000D+00  0.0000000000000D+00
276  2.7500000000000D+00  0.0000000000000D+00  0.0000000000000D+00
277  2.7600000000000D+00  0.0000000000000D+00  0.0000000000000D+00
278  2.7700000000000D+00  0.0000000000000D+00  0.0000000000000D+00
279  2.7800000000000D+00  0.0000000000000D+00  0.0000000000000D+00
280  2.7900000000000D+00  0.0000000000000D+00  0.0000000000000D+00
281  2.8000000000000D+00  0.0000000000000D+00  0.0000000000000D+00
282  2.8100000000000D+00  0.0000000000000D+00  0.0000000000000D+00
283  2.8200000000000D+00  0.0000000000000D+00  0.0000000000000D+00
284  2.8300000000000D+00  0.0000000000000D+00  0.0000000000000D+00
285  2.8400000000000D+00  0.0000000000000D+00  0.0000000000000D+00
286  2.8500000000000D+00  0.0000000000000D+00  0.0000000000000D+00
287  2.8600000000000D+00  0.0000000000000D+00  0.0000000000000D+00
288  2.8700000000000D+00  0.0000000000000D+00  0.0000000000000D+00
289  2.8800000000000D+00  0.0000000000000D+00  0.0000000000000D+00
290  2.8900000000000D+00  0.0000000000000D+00  0.0000000000000D+00
291  2.9000000000000D+00  0.0000000000000D+00  0.0000000000000D+00
292  2.9100000000000D+00  0.0000000000000D+00  0.0000000000000D+00
293  2.9200000000000D+00  0.0000000000000D+00  0.0000000000000D+00
294  2.9300000000000D+00  0.0000000000000D+00  0.0000000000000D+00
295  2.9400000000000D+00  0.0000000000000D+00  0.0000000000000D+00
296  2.9500000000000D+00  0.0000000000000D+00  0.0000000000000D+00
297  2.9600000000000D+00  0.0000000000000D+00  0.0000000000000D+00
298  2.9700000000000D+00  0.0000000000000D+00  0.0000000000000D+00
299  2.9800000000000D+00  0.0000000000000D+00  0.0000000000000D+00
300  2.9900000000000D+00  0.0000000000000D+00  0.0000000000000D+00
301  3.0000000000000D+00  0.0000000000000D+00  0.0000000000000D+00
302  3.0100000000000D+00  0.0000000000000D+00  0.0000000000000D+00
303  3.0200000000000D+00  0.0000000000000D+00  0.0000000000000D+00
304  3.0300000000000D+00  0.0000000000000D+00  0.0000000000000D+00
305  3.0400000000000D+00  0.0000000000000D+00  0.0000000000000D+00
306  3.0500000000000D+00  0.0000000000000D+00  0.0000000000000D+00
307  3.0600000000000D+00  0.0000000000000D+00  0.0000000000000D+00
308  3.0700000000000D+00  0.0000000000000D+00  0.0000000000000D+00
309  3.0800000000000D+00  0.0000000000000D+00  0.0000000000000D+00
310  3.0900000000000D+00  0.0000000000000D+00  0.0000000000000D+00
311  3.1000000000000D+00  0.0000000000000D+00  0.0000000000000D+00
312  3.1100000000000D+00  0.0000000000000D+00  0.0000000000000D+00
313  3.1200000000000D+00  0.0000000000000D+00  0.0000000000000D+00
314  3.1300000000000D+00  0.0000000000000D+00  0.0000000000000D+00
315  3.1400000000000D+00  0.0000000000000D+00  0.0000000000000D+00
316  3.1500000000000D+00  0.0000000000000D+00  0.0000000000000D+00
317  3.1600000000000D+00  0.0000000000000D+00  0.0000000000000D+00
318  3.1700000000000D+00  0.0000000000000D+00  0.0000000000000D+00
319  3.1800000000000D+00  0.0000000000000D+00  0.0000000000000D+00
320  3.1900000000000D+00  0.0000000000000D+00  0.0000000000000D+00
321  3.2000000000000D+00  0.0000000000000D+00  0.0000000000000D+00
322  3.2100000000000D+00  0.0000000000000D+00  0.0000000000000D+00
323  3.2200000000000D+00  0.0000000000000D+00  0.0000000000000D+00
324  3.2300000000000D+00  0.0000000000000D+00  0.0000000000000D+00
325  3.2400000000000D+00  0.0000000000000D+00  0.0000000000000D+00
326  3.2500000000000D+00  0.0000000000000D+00  0.0000000000000D+00
327  3.2600000000000D+00  0.0000000000000D+00  0.0000000000000D+00
328  3.2700000000000D+00  0.0000000000000D+00  0.0000000000000D+00
329  3.2800000000000D+00  0.0000000000000D+00  0.0000000000000D+00
330  3.2900000000000D+00  0.0000000000000D+00  0.0000000000000D+00
331  3.3000000000000D+00  0.0000000000000D+00  0.0000000000000D+00
332  3.3100000000000D+00  0.0000000000000D+00  0.0000000000000D+00
333  3.3200000000000D+00  0.0000000000000D+00  0.0000000000000D+00
334  3.3300000000000D+00  0.0000000000000D+00  0.0000000000000D+00
335  3.3400000000000D+00  0.0000000000000D+00  0.0000000000000D+00
336  3.3500000000000D+00  0.0000000000000D+00  0.0000000000000D+00
337  3.3600000000000D+00  0.0000000000000D+00  0.0000000000000D+00
338  3.3700000000000D+00  0.0000000000000D+00  0.0000000000000D+00
339  3.3800000000000D+00  0.0000000000000D+00  0.0000000000000D+00
340  3.3900000000000D+00  0.0000000000000D+00  0.0000000000000D+00
341  3.4000000000000D+00  0.0000000000000D+00  0.0000000000000D+00
342  3.4100000000000D+00  0.0000000000000D+00  0.0000000000000D+00
343  3.4200000000000D+00  0.0000000000000D+00  0.0000000000000D+00
344  3.4300000000000D+00  0.0000000000000D+00  0.0000000000000D+00
345  3.4400000000000D+00  0.0000000000000D+00  0.0000000000000D+00
346  3.4500000000000D+00  0.0000000000000D+00  0.0000000000000D+00
347  3.4600000000000D+00  0.0000000000000D+00  0.0000000000000D+00
348  3.4700000000000D+00  0.0000000000000D+00  0.0000000000000D+00
349  3.4800000000000D+00  0.0000000000000D+00  0.0000000000000D+00
350  3.4900000000000D+00  0.0000000000000D+00  0.0000000000000D+00
351  3.5000000000000D+00  0.0000000000000D+00  0.0000000000000D+00
352  3.5100000000000D+00  0.0000000000000D+00  0.0000000000000D+00
353  3.5200000000000D+00  0.0000000000000D+00  0.0000000000000D+00
354  3.5300000000000D+00  0.0000000000000D+00  0.0000000000000D+00
355  3.5400000000000D+00  0.0000000000000D+00  0.0000000000000D+00
356  3.5500000000000D+00  0.0000000000000D+00  0.0000000000000D+00
357  3.5600000000000D+00  0.0000000000000D+00  0.0000000000000D+00
358  3.5700000000000D+00  0.0000000000000D+00  0.0000000000000D+00
359  3.5800000000000D+00  0.0000000000000D+00  0.0000000000000D+00
360  3.5900000000000D+00  0.0000000000000D+00  0.0000000000000D+00
361  3.6000000000000D+00  0.0000000000000D+00  0.0000000000000D+00
362  3.6100000000000D+00  0.0000000000000D+00  0.0000000000000D+00
363  3.6200000000000D+00  0.0000000000000D+00  0.0000000000000D+00
364  3.6300000000000D+00  0.0000000000000D+00  0.0000000000000D+00
365  3.6400000000000D+00  0.0000000000000D+00  0.0000000000000D+00
366  3.6500000000000D+00  0.0000000000000D+00  0.0000000000000D+00
367  3.6600000000000D+00  0.0000000000000D+00  0.0000000000000D+00
368  3.6700000000000D+00  0.0000000000000D+00  0.0000000000000D+00
369  3.6800000000000D+00  0.0000000000000D+00  0.0000000000000D+00
370  3.6900000000000D+00  0.0000000000000D+00  0.0000000000000D+00
371  3.7000000000000D+00  0.0000000000000D+00  0.0000000000000D+00
372  3.7100000000000D+00  0.0000000000000D+00  0.0000000000000D+00
373  3.7200000000000D+00  0.0000000000000D+00  0.0000000000000D+00
374  3.7300000000000D+00  0.0000000000000D+00  0.0000000000000D+00
375  3.7400000000000D+00  0.0000000000000D+00  0.0000000000000D+00
376  3.7500000000000D+00  0.0000000000000D+00  0.0000000000000D+00
377  3.7600000000000D+00  0.0000000000000D+00  0.0000000000000D+00
378  3.7700000000000D+00  0.0000000000000D+00  0.0000000000000D+00
379  3.7800000000000D+00  0.0000000000000D+00  0.0000000000000D+00
380  3.7900000000000D+00  0.0000000000000D+00  0.0000000000000D+00
381  3.8000000000000D+00  0.0000000000000D+00  0.0000000000000D+00
382  3.8100000000000D+00  0.0000000000000D+00  0.0000000000000D+00
383  3.8200000000000D+00  0.0000000000000D+00  0.0000000000000D+00
384  3.8300000000000D+00  0.0000000000000D+00  0.0000000000000D+00
385  3.8400000000000D+00  0.0000000000000D+00  0.0000000000000D+00
386  3.8500000000000D+00  0.0000000000000D+00  0.0000000000000D+00
387  3.8600000000000D+00  0.0000000000000D+00  0.0000000000000D+00
388  3.8700000000000D+00  0.0000000000000D+00  0.0000000000000D+00
389  3.8800000000000D+00  0.0000000000000D+00  0.0000000000000D+00
390  3.8900000000000D+00  0.0000000000000D+00  0.0000000000000D+00
391  3.9000000000000D+00  0.0000000000000D+00  0.0000000000000D+00
392  3.9100000000000D+00  0.0000000000000D+00  0.0000000000000D+00
393  3.9200000000000D+00  0.0000000000000D+00  0.0000000000000D+00
394  3.9300000000000D+00  0.0000000000000D+00  0.0000000000000D+00
395  3.9400000000000D+00  0.0000000000000D+00  0.0000000000000D+00
396  3.9500000000000D+00  0.0000000000000D+00  0.0000000000000D+00
397  3.9600000000000D+00  0.0000000000000D+00  0.0000000000000D+00
398  3.9700000000000D+00  0.0000000000000D+00  0.0000000000000D+00
399  3.9800000000000D+00  0.0000000000000D+00  0.0000000000000D+00
400  3.9900000000000D+00  0.0000000000000D+00  0.0000000000000D+00
401  4.0000000000000D+00  0.0000000000000D+00  0.0000000000000D+00
402  4.0100000000000D+00  0.0000000000000D+00  0.0000000000000D+00
403  4.0200000000000D+00  0.0000000000000D+00  0.0000000000000D+00
404  4.0300000000000D+00  0.0000000000000D+00  0.0000000000000D+00
405  4.0400000000000D+00  0.0000000000000D+00  0.0000000000000D+00
406  4.0500000000000D+00  0.0000000000000D+00  0.0000000000000D+00
407  4.0600000000000D+00  0.0000000000000D+00  0.0000000000000D+00
408  4.0700000000000D+00  0.0000000000000D+00  0.0000000000000D+00
409  4.0800000000000D+00  0.0000000000000D+00  0.0000000000000D+00
410  4.0900000000000D+00  0.0000000000000D+00  0.0000000000000D+00
411  4.1000000000000D+00  0.0000000000000D+00  0.0000000000000D+00
412  4.1100000000000D+00  0.0000000000000D+00  0.0000000000000D+00
413  4.1200000000000D+00  0.0000000000000D+00  0.0000000000000D+00
414  4.1300000000000D+00  0.0000000000000D+00  0.0000000000000D+00
415  4.1400000000000D+00  0.0000000000000D+00  0.0000000000000D+00
416  4.1500000000000D+00  0.0000000000000D+00  0.0000000000000D+00
417  4.1600000000000D+00  0.0000000000000D+00  0.0000000000000D+00
418  4.1700000000000D+00  0.0000000000000D+00  0.0000000000000D+00
419  4.1800000000000D+00  0.0000000000000D+00  0.0000000000000D+00
420  4.1900000000000D+00  0.0000000000000D+00  0.0000000000000D+00
421  4.2000000000000D+00  0.0000000000000D+00  0.0000000000000D+00
422  4.2100000000000D+00  0.0000000000000D+00  0.0000000000000D+00
423  4.2200000000000D+00  0.0000000000000D+00  0.0000000000000D+00
424  4.2300000000000D+00  0.0000000000000D+00  0.0000000000000D+00
425  4.2400000000000D+00  0.0000000000000D+00  0.0000000000000D+00
426  4.2500000000000D+00  0.0000000000000D+00  0.0000000000000D+00
427  4.2600000000000D+00  0.0000000000000D+00  0.0000000000000D+00
428  4.2700000000000D+00  0.0000000000000D+00  0.0000000000000D+00
429  4.2800000000000D+00  0.0000000000000D+00  0.0000000000000D+00
430  4.2900000000000D+00  0.0000000000000D+00  0.0000000000000D+00
431  4.3000000000000D+00  0.0000000000000D+00  0.0000000000000D+00
432  4.3100000000000D+00  0.0000000000000D+00  0.0000000000000D+00
433  4.3200000000000D+00  0.0000000000000D+00  0.0000000000000D+00
434  4.3300000000000D+00  0.0000000000000D+00  0.0000000000000D+00
435  4.3400000000000D+00  0.0000000000000D+00  0.0000000000000D+00
436  4.3500000000000D+00  0.0000000000000D+00  0.0000000000000D+00
437  4.3600000000000D+00  0.0000000000000D+00  0.0000000000000D+00
438  4.3700000000000D+00  0.0000000000000D+00  0.0000000000000D+00
439  4.3800000000000D+00  0.0000000000000D+00  0.0000000000000D+00
440  4.3900000000000D+00  0.0000000000000D+00  0.0000000000000D+00
441  4.4000000000000D+00  0.0000000000000D+00  0.0000000000000D+00
442  4.4100000000000D+00  0.0000000000000D+00  0.0000000000000D+00
443  4.4200000000000D+00  0.0000000000000D+00  0.0000000000000D+00