Ru    ONCVPSP-3.3.0  r_core=   1.35650   1.40592   1.30881
44.0000     16.0000      180112    zatom,zion,pspd
8 -116133   2     4   600     0    pspcod,pspxc,lmax,lloc,mmax,r2well
5.99000000  7.00000000  0.00000000    rchrg fchrg qchrg
2     2     2     0     0    nproj
1     1           extension_switch
0                         1.4596908343287D+01  1.1445981739141D+00
1  0.0000000000000D+00 -8.4943962974648D-10  4.3565011043079D-09
2  1.0000000000000D-02  7.2004826416205D-02 -4.1059191478284D-02
3  2.0000000000000D-02  1.4384201225077D-01 -8.1786860886257D-02
4  3.0000000000000D-02  2.1534484473916D-01 -1.2185551128993D-01
5  4.0000000000000D-02  2.8634845396721D-01 -1.6094562952015D-01
6  5.0000000000000D-02  3.5669070255801D-01 -1.9874951292090D-01
7  6.0000000000000D-02  4.2621303788999D-01 -2.3497490109728D-01
8  7.0000000000000D-02  4.9476129537316D-01 -2.6934835287470D-01
9  8.0000000000000D-02  5.6218644216031D-01 -3.0161831303764D-01
10  9.0000000000000D-02  6.2834525170441D-01 -3.3155781872560D-01
11  1.0000000000000D-01  6.9310090077551D-01 -3.5896680153861D-01
12  1.1000000000000D-01  7.5632348189952D-01 -3.8367394834233D-01
13  1.2000000000000D-01  8.1789042565483D-01 -4.0553809134835D-01
14  1.3000000000000D-01  8.7768682883444D-01 -4.2444910615318D-01
15  1.4000000000000D-01  9.3560568612607D-01 -4.4032830491396D-01
16  1.5000000000000D-01  9.9154802465031D-01 -4.5312832057853D-01
17  1.6000000000000D-01  1.0454229423992D+00 -4.6283248692558D-01
18  1.7000000000000D-01  1.0971475533057D+00 -4.6945372795839D-01
19  1.8000000000000D-01  1.1466468433160D+00 -4.7303297878376D-01
20  1.9000000000000D-01  1.1938534434085D+00 -4.7363716835096D-01
21  2.0000000000000D-01  1.2387073269672D+00 -4.7135680218165D-01
22  2.1000000000000D-01  1.2811554402626D+00 -4.6630319035714D-01
23  2.2000000000000D-01  1.3211512759763D+00 -4.5860537241868D-01
24  2.3000000000000D-01  1.3586544007225D+00 -4.4840679636815D-01
25  2.4000000000000D-01  1.3936299483394D+00 -4.3586181352820D-01
26  2.5000000000000D-01  1.4260480913321D+00 -4.2113205455089D-01
27  2.6000000000000D-01  1.4558835032408D+00 -4.0438275428231D-01
28  2.7000000000000D-01  1.4831148248613D+00 -3.8577909444772D-01
29  2.8000000000000D-01  1.5077241471676D+00 -3.6548263318826D-01
30  2.9000000000000D-01  1.5296965234671D+00 -3.4364788934111D-01
31  3.0000000000000D-01  1.5490195227676D+00 -3.2041914702255D-01
32  3.1000000000000D-01  1.5656828355530D+00 -2.9592754257272D-01
33  3.2000000000000D-01  1.5796779421663D+00 -2.7028849130197D-01
34  3.3000000000000D-01  1.5909978527965D+00 -2.4359950580802D-01
35  3.4000000000000D-01  1.5996369266822D+00 -2.1593845099663D-01
36  3.5000000000000D-01  1.6055907765908D+00 -1.8736227343794D-01
37  3.6000000000000D-01  1.6088562629505D+00 -1.5790623444404D-01
38  3.7000000000000D-01  1.6094315802100D+00 -1.2758366739506D-01
39  3.8000000000000D-01  1.6073164361249D+00 -9.6386270509424D-02
40  3.9000000000000D-01  1.6025123227408D+00 -6.4284936608559D-02
41  4.0000000000000D-01  1.5950228758975D+00 -3.1231111622620D-02
42  4.1000000000000D-01  1.5848543181544D+00  2.8413362109439D-03
43  4.2000000000000D-01  1.5720159781592D+00  3.8013764122936D-02
44  4.3000000000000D-01  1.5565208776933D+00  7.4379956506541D-02
45  4.4000000000000D-01  1.5383863759531D+00  1.1204292624719D-01
46  4.5000000000000D-01  1.5176348591050D+00  1.5111136951735D-01
47  4.6000000000000D-01  1.4942944618057D+00  1.9169583516885D-01
48  4.7000000000000D-01  1.4683998062412D+00  2.3390467621356D-01
49  4.8000000000000D-01  1.4399927433283D+00  2.7783985617639D-01
50  4.9000000000000D-01  1.4091230800615D+00  3.2359268722241D-01
51  5.0000000000000D-01  1.3758492765973D+00  3.7123957981964D-01
52  5.1000000000000D-01  1.3402390965511D+00  4.2083788522722D-01
53  5.2000000000000D-01  1.3023701941566D+00  4.7242191225362D-01
54  5.3000000000000D-01  1.2623306223983D+00  5.2599919848002D-01
55  5.4000000000000D-01  1.2202192469814D+00  5.8154711349934D-01
56  5.5000000000000D-01  1.1761460520355D+00  6.3900986768681D-01
57  5.6000000000000D-01  1.1302323247537D+00  6.9829599465723D-01
58  5.7000000000000D-01  1.0826107077291D+00  7.5927636893533D-01
59  5.8000000000000D-01  1.0334251095436D+00  8.2178281255054D-01
60  5.9000000000000D-01  9.8283046616934D-01  8.8560733541073D-01
61  6.0000000000000D-01  9.3099234792765D-01  9.5050204448920D-01
62  6.1000000000000D-01  8.7808640908237D-01  1.0161797462825D+00
63  6.2000000000000D-01  8.2429767959044D-01  1.0823152557911D+00
64  6.3000000000000D-01  7.6981970105928D-01  1.1485474135947D+00
65  6.4000000000000D-01  7.1485351150432D-01  1.2144818007426D+00
66  6.5000000000000D-01  6.5960648606355D-01  1.2796941291523D+00
67  6.6000000000000D-01  6.0429104332025D-01  1.3437342734048D+00
68  6.7000000000000D-01  5.4912322929165D-01  1.4061308983602D+00
69  6.8000000000000D-01  4.9432119343063D-01  1.4663966260046D+00
70  6.9000000000000D-01  4.4010357308829D-01  1.5240336747437D+00
71  7.0000000000000D-01  3.8668780478410D-01  1.5785398950300D+00
72  7.1000000000000D-01  3.3428838228463D-01  1.6294151169607D+00
73  7.2000000000000D-01  2.8311508287181D-01  1.6761677184623D+00
74  7.3000000000000D-01  2.3337118425212D-01  1.7183213170461D+00
75  7.4000000000000D-01  1.8525169530650D-01  1.7554214839543D+00
76  7.5000000000000D-01  1.3894162428158D-01  1.7870423769399D+00
77  7.6000000000000D-01  9.4614308066905D-02  1.8127931869834D+00
78  7.7000000000000D-01  5.2429825878872D-02  1.8323242950106D+00
79  7.8000000000000D-01  1.2533519983095D-02  1.8453330371331D+00
80  7.9000000000000D-01 -2.4945354965875D-02  1.8515689810796D+00
81  8.0000000000000D-01 -5.9894833793089D-02  1.8508386222853D+00
82  8.1000000000000D-01 -9.2221275446203D-02  1.8430094154806D+00
83  8.2000000000000D-01 -1.2185021403345D-01  1.8280130664765D+00
84  8.3000000000000D-01 -1.4872701221758D-01  1.8058480190642D+00
85  8.4000000000000D-01 -1.7281730552082D-01  1.7765810833693D+00
86  8.5000000000000D-01 -1.9410722890634D-01  1.7403481644776D+00
87  8.6000000000000D-01 -2.1260341998701D-01  1.6973540634721D+00
88  8.7000000000000D-01 -2.2833279632791D-01  1.6478713369945D+00
89  8.8000000000000D-01 -2.4134210750726D-01  1.5922382158523D+00
90  8.9000000000000D-01 -2.5169726583168D-01  1.5308555977889D+00
91  9.0000000000000D-01 -2.5948246281569D-01  1.4641831441123D+00
92  9.1000000000000D-01 -2.6479908167972D-01  1.3927345241623D+00
93  9.2000000000000D-01 -2.6776441914633D-01  1.3170718653915D+00
94  9.3000000000000D-01 -2.6851023267043D-01  1.2377994798691D+00
95  9.4000000000000D-01 -2.6718113187819D-01  1.1555569501026D+00
96  9.5000000000000D-01 -2.6393283536863D-01  1.0710116679757D+00
97  9.6000000000000D-01 -2.5893031610778D-01  9.8485093014326D-01
98  9.7000000000000D-01 -2.5234586038384D-01  8.9777370122853D-01
99  9.8000000000000D-01 -2.4435706666465D-01  8.1048216250277D-01
100  9.9000000000000D-01 -2.3514481165504D-01  7.2367316816080D-01
101  1.0000000000000D+00 -2.2489121144042D-01  6.3802973404849D-01
102  1.0100000000000D+00 -2.1377760570851D-01  5.5421268422284D-01
103  1.0200000000000D+00 -2.0198259274748D-01  4.7285257940962D-01
104  1.0300000000000D+00 -1.8968014218776D-01  3.9454204809061D-01
105  1.0400000000000D+00 -1.7703781126056D-01  3.1982863548135D-01
106  1.0500000000000D+00 -1.6421508880057D-01  2.4920827856047D-01
107  1.0600000000000D+00 -1.5136188930142D-01  1.8311950648687D-01
108  1.0700000000000D+00 -1.3861721689062D-01  1.2193845449379D-01
109  1.0800000000000D+00 -1.2610801655731D-01  6.5974767669276D-02
110  1.0900000000000D+00 -1.1394822687905D-01  1.5468456793054D-02
111  1.1000000000000D+00 -1.0223804548194D-01 -2.9412245504683D-02
112  1.1100000000000D+00 -9.1063415070211D-02 -6.8571995685848D-02
113  1.1200000000000D+00 -8.0495734145334D-02 -1.0198840194129D-01
114  1.1300000000000D+00 -7.0591793109491D-02 -1.2971103893946D-01
115  1.1400000000000D+00 -6.1393932651610D-02 -1.5185943264977D-01
116  1.1500000000000D+00 -5.2930418210919D-02 -1.6862004754462D-01
117  1.1600000000000D+00 -4.5216019960575D-02 -1.8024232859656D-01
118  1.1700000000000D+00 -3.8252784901030D-02 -1.8703386366333D-01
119  1.1800000000000D+00 -3.2030984513968D-02 -1.8935474634540D-01
120  1.1900000000000D+00 -2.6530218446758D-02 -1.8761123316148D-01
121  1.2000000000000D+00 -2.1720651694430D-02 -1.8224880272614D-01
122  1.2100000000000D+00 -1.7564360747293D-02 -1.7374473378808D-01
123  1.2200000000000D+00 -1.4016762727954D-02 -1.6260032564469D-01
124  1.2300000000000D+00 -1.1028098943944D-02 -1.4933289632888D-01
125  1.2400000000000D+00 -8.5449441377077D-03 -1.3446769452655D-01
126  1.2500000000000D+00 -6.5117119078281D-03 -1.1852986484672D-01
127  1.2600000000000D+00 -4.8721261446899D-03 -1.0203660881151D-01
128  1.2700000000000D+00 -3.5706267818485D-03 -8.5489692814860D-02
129  1.2800000000000D+00 -2.5536926021985D-03 -6.9368376055062D-02
130  1.2900000000000D+00 -1.7710354141483D-03 -5.4122990005546D-02
131  1.3000000000000D+00 -1.1767426470886D-03 -4.0168732256460D-02
132  1.3100000000000D+00 -7.2970965187924D-04 -2.7884981270586D-02
133  1.3200000000000D+00 -3.9553445371999D-04 -1.7602983947840D-02
134  1.3300000000000D+00 -1.4974754934044D-04 -9.5308182725475D-03
135  1.3400000000000D+00  2.3524081076384D-05 -4.0086995171628D-03
136  1.3500000000000D+00  1.3014333813781D-04 -1.2357487040355D-03
137  1.3600000000000D+00  1.2060111025519D-04 -2.4963069702622D-04
138  1.3700000000000D+00  2.3736490064920D-05 -1.1089636554055D-05
139  1.3800000000000D+00 -1.6942586547386D-05 -1.5136077251841D-06
140  1.3900000000000D+00  6.6081617858656D-07 -4.5329119968405D-07
141  1.4000000000000D+00  3.1614861148488D-06 -1.4686883332066D-06
142  1.4100000000000D+00 -3.0111895311828D-07  1.0155285881861D-06
143  1.4200000000000D+00 -1.8899027621215D-07  6.3737279369204D-07
144  1.4300000000000D+00  0.0000000000000D+00  0.0000000000000D+00
145  1.4400000000000D+00  0.0000000000000D+00  0.0000000000000D+00
146  1.4500000000000D+00  0.0000000000000D+00  0.0000000000000D+00
147  1.4600000000000D+00  0.0000000000000D+00  0.0000000000000D+00
148  1.4700000000000D+00  0.0000000000000D+00  0.0000000000000D+00
149  1.4800000000000D+00  0.0000000000000D+00  0.0000000000000D+00
150  1.4900000000000D+00  0.0000000000000D+00  0.0000000000000D+00
151  1.5000000000000D+00  0.0000000000000D+00  0.0000000000000D+00
152  1.5100000000000D+00  0.0000000000000D+00  0.0000000000000D+00
153  1.5200000000000D+00  0.0000000000000D+00  0.0000000000000D+00
154  1.5300000000000D+00  0.0000000000000D+00  0.0000000000000D+00
155  1.5400000000000D+00  0.0000000000000D+00  0.0000000000000D+00
156  1.5500000000000D+00  0.0000000000000D+00  0.0000000000000D+00
157  1.5600000000000D+00  0.0000000000000D+00  0.0000000000000D+00
158  1.5700000000000D+00  0.0000000000000D+00  0.0000000000000D+00
159  1.5800000000000D+00  0.0000000000000D+00  0.0000000000000D+00
160  1.5900000000000D+00  0.0000000000000D+00  0.0000000000000D+00
161  1.6000000000000D+00  0.0000000000000D+00  0.0000000000000D+00
162  1.6100000000000D+00  0.0000000000000D+00  0.0000000000000D+00
163  1.6200000000000D+00  0.0000000000000D+00  0.0000000000000D+00
164  1.6300000000000D+00  0.0000000000000D+00  0.0000000000000D+00
165  1.6400000000000D+00  0.0000000000000D+00  0.0000000000000D+00
166  1.6500000000000D+00  0.0000000000000D+00  0.0000000000000D+00
167  1.6600000000000D+00  0.0000000000000D+00  0.0000000000000D+00
168  1.6700000000000D+00  0.0000000000000D+00  0.0000000000000D+00
169  1.6800000000000D+00  0.0000000000000D+00  0.0000000000000D+00
170  1.6900000000000D+00  0.0000000000000D+00  0.0000000000000D+00
171  1.7000000000000D+00  0.0000000000000D+00  0.0000000000000D+00
172  1.7100000000000D+00  0.0000000000000D+00  0.0000000000000D+00
173  1.7200000000000D+00  0.0000000000000D+00  0.0000000000000D+00
174  1.7300000000000D+00  0.0000000000000D+00  0.0000000000000D+00
175  1.7400000000000D+00  0.0000000000000D+00  0.0000000000000D+00
176  1.7500000000000D+00  0.0000000000000D+00  0.0000000000000D+00
177  1.7600000000000D+00  0.0000000000000D+00  0.0000000000000D+00
178  1.7700000000000D+00  0.0000000000000D+00  0.0000000000000D+00
179  1.7800000000000D+00  0.0000000000000D+00  0.0000000000000D+00
180  1.7900000000000D+00  0.0000000000000D+00  0.0000000000000D+00
181  1.8000000000000D+00  0.0000000000000D+00  0.0000000000000D+00
182  1.8100000000000D+00  0.0000000000000D+00  0.0000000000000D+00
183  1.8200000000000D+00  0.0000000000000D+00  0.0000000000000D+00
184  1.8300000000000D+00  0.0000000000000D+00  0.0000000000000D+00
185  1.8400000000000D+00  0.0000000000000D+00  0.0000000000000D+00
186  1.8500000000000D+00  0.0000000000000D+00  0.0000000000000D+00
187  1.8600000000000D+00  0.0000000000000D+00  0.0000000000000D+00
188  1.8700000000000D+00  0.0000000000000D+00  0.0000000000000D+00
189  1.8800000000000D+00  0.0000000000000D+00  0.0000000000000D+00
190  1.8900000000000D+00  0.0000000000000D+00  0.0000000000000D+00
191  1.9000000000000D+00  0.0000000000000D+00  0.0000000000000D+00
192  1.9100000000000D+00  0.0000000000000D+00  0.0000000000000D+00
193  1.9200000000000D+00  0.0000000000000D+00  0.0000000000000D+00
194  1.9300000000000D+00  0.0000000000000D+00  0.0000000000000D+00
195  1.9400000000000D+00  0.0000000000000D+00  0.0000000000000D+00
196  1.9500000000000D+00  0.0000000000000D+00  0.0000000000000D+00
197  1.9600000000000D+00  0.0000000000000D+00  0.0000000000000D+00
198  1.9700000000000D+00  0.0000000000000D+00  0.0000000000000D+00
199  1.9800000000000D+00  0.0000000000000D+00  0.0000000000000D+00
200  1.9900000000000D+00  0.0000000000000D+00  0.0000000000000D+00
201  2.0000000000000D+00  0.0000000000000D+00  0.0000000000000D+00
202  2.0100000000000D+00  0.0000000000000D+00  0.0000000000000D+00
203  2.0200000000000D+00  0.0000000000000D+00  0.0000000000000D+00
204  2.0300000000000D+00  0.0000000000000D+00  0.0000000000000D+00
205  2.0400000000000D+00  0.0000000000000D+00  0.0000000000000D+00
206  2.0500000000000D+00  0.0000000000000D+00  0.0000000000000D+00
207  2.0600000000000D+00  0.0000000000000D+00  0.0000000000000D+00
208  2.0700000000000D+00  0.0000000000000D+00  0.0000000000000D+00
209  2.0800000000000D+00  0.0000000000000D+00  0.0000000000000D+00
210  2.0900000000000D+00  0.0000000000000D+00  0.0000000000000D+00
211  2.1000000000000D+00  0.0000000000000D+00  0.0000000000000D+00
212  2.1100000000000D+00  0.0000000000000D+00  0.0000000000000D+00
213  2.1200000000000D+00  0.0000000000000D+00  0.0000000000000D+00
214  2.1300000000000D+00  0.0000000000000D+00  0.0000000000000D+00
215  2.1400000000000D+00  0.0000000000000D+00  0.0000000000000D+00
216  2.1500000000000D+00  0.0000000000000D+00  0.0000000000000D+00
217  2.1600000000000D+00  0.0000000000000D+00  0.0000000000000D+00
218  2.1700000000000D+00  0.0000000000000D+00  0.0000000000000D+00
219  2.1800000000000D+00  0.0000000000000D+00  0.0000000000000D+00
220  2.1900000000000D+00  0.0000000000000D+00  0.0000000000000D+00
221  2.2000000000000D+00  0.0000000000000D+00  0.0000000000000D+00
222  2.2100000000000D+00  0.0000000000000D+00  0.0000000000000D+00
223  2.2200000000000D+00  0.0000000000000D+00  0.0000000000000D+00
224  2.2300000000000D+00  0.0000000000000D+00  0.0000000000000D+00
225  2.2400000000000D+00  0.0000000000000D+00  0.0000000000000D+00
226  2.2500000000000D+00  0.0000000000000D+00  0.0000000000000D+00
227  2.2600000000000D+00  0.0000000000000D+00  0.0000000000000D+00
228  2.2700000000000D+00  0.0000000000000D+00  0.0000000000000D+00
229  2.2800000000000D+00  0.0000000000000D+00  0.0000000000000D+00
230  2.2900000000000D+00  0.0000000000000D+00  0.0000000000000D+00
231  2.3000000000000D+00  0.0000000000000D+00  0.0000000000000D+00
232  2.3100000000000D+00  0.0000000000000D+00  0.0000000000000D+00
233  2.3200000000000D+00  0.0000000000000D+00  0.0000000000000D+00
234  2.3300000000000D+00  0.0000000000000D+00  0.0000000000000D+00
235  2.3400000000000D+00  0.0000000000000D+00  0.0000000000000D+00
236  2.3500000000000D+00  0.0000000000000D+00  0.0000000000000D+00
237  2.3600000000000D+00  0.0000000000000D+00  0.0000000000000D+00
238  2.3700000000000D+00  0.0000000000000D+00  0.0000000000000D+00
239  2.3800000000000D+00  0.0000000000000D+00  0.0000000000000D+00
240  2.3900000000000D+00  0.0000000000000D+00  0.0000000000000D+00
241  2.4000000000000D+00  0.0000000000000D+00  0.0000000000000D+00
242  2.4100000000000D+00  0.0000000000000D+00  0.0000000000000D+00
243  2.4200000000000D+00  0.0000000000000D+00  0.0000000000000D+00
244  2.4300000000000D+00  0.0000000000000D+00  0.0000000000000D+00
245  2.4400000000000D+00  0.0000000000000D+00  0.0000000000000D+00
246  2.4500000000000D+00  0.0000000000000D+00  0.0000000000000D+00
247  2.4600000000000D+00  0.0000000000000D+00  0.0000000000000D+00
248  2.4700000000000D+00  0.0000000000000D+00  0.0000000000000D+00
249  2.4800000000000D+00  0.0000000000000D+00  0.0000000000000D+00
250  2.4900000000000D+00  0.0000000000000D+00  0.0000000000000D+00
251  2.5000000000000D+00  0.0000000000000D+00  0.0000000000000D+00
252  2.5100000000000D+00  0.0000000000000D+00  0.0000000000000D+00
253  2.5200000000000D+00  0.0000000000000D+00  0.0000000000000D+00
254  2.5300000000000D+00  0.0000000000000D+00  0.0000000000000D+00
255  2.5400000000000D+00  0.0000000000000D+00  0.0000000000000D+00
256  2.5500000000000D+00  0.0000000000000D+00  0.0000000000000D+00
257  2.5600000000000D+00  0.0000000000000D+00  0.0000000000000D+00
258  2.5700000000000D+00  0.0000000000000D+00  0.0000000000000D+00
259  2.5800000000000D+00  0.0000000000000D+00  0.0000000000000D+00
260  2.5900000000000D+00  0.0000000000000D+00  0.0000000000000D+00
261  2.6000000000000D+00  0.0000000000000D+00  0.0000000000000D+00
262  2.6100000000000D+00  0.0000000000000D+00  0.0000000000000D+00
263  2.6200000000000D+00  0.0000000000000D+00  0.0000000000000D+00
264  2.6300000000000D+00  0.0000000000000D+00  0.0000000000000D+00
265  2.6400000000000D+00  0.0000000000000D+00  0.0000000000000D+00
266  2.6500000000000D+00  0.0000000000000D+00  0.0000000000000D+00
267  2.6600000000000D+00  0.0000000000000D+00  0.0000000000000D+00
268  2.6700000000000D+00  0.0000000000000D+00  0.0000000000000D+00
269  2.6800000000000D+00  0.0000000000000D+00  0.0000000000000D+00
270  2.6900000000000D+00  0.0000000000000D+00  0.0000000000000D+00
271  2.7000000000000D+00  0.0000000000000D+00  0.0000000000000D+00
272  2.7100000000000D+00  0.0000000000000D+00  0.0000000000000D+00
273  2.7200000000000D+00  0.0000000000000D+00  0.0000000000000D+00
274  2.7300000000000D+00  0.0000000000000D+00  0.0000000000000D+00
275  2.7400000000000D+00  0.0000000000000D+00  0.0000000000000D+00
276  2.7500000000000D+00  0.0000000000000D+00  0.0000000000000D+00
277  2.7600000000000D+00  0.0000000000000D+00  0.0000000000000D+00
278  2.7700000000000D+00  0.0000000000000D+00  0.0000000000000D+00
279  2.7800000000000D+00  0.0000000000000D+00  0.0000000000000D+00
280  2.7900000000000D+00  0.0000000000000D+00  0.0000000000000D+00
281  2.8000000000000D+00  0.0000000000000D+00  0.0000000000000D+00
282  2.8100000000000D+00  0.0000000000000D+00  0.0000000000000D+00
283  2.8200000000000D+00  0.0000000000000D+00  0.0000000000000D+00
284  2.8300000000000D+00  0.0000000000000D+00  0.0000000000000D+00
285  2.8400000000000D+00  0.0000000000000D+00  0.0000000000000D+00
286  2.8500000000000D+00  0.0000000000000D+00  0.0000000000000D+00
287  2.8600000000000D+00  0.0000000000000D+00  0.0000000000000D+00
288  2.8700000000000D+00  0.0000000000000D+00  0.0000000000000D+00
289  2.8800000000000D+00  0.0000000000000D+00  0.0000000000000D+00
290  2.8900000000000D+00  0.0000000000000D+00  0.0000000000000D+00
291  2.9000000000000D+00  0.0000000000000D+00  0.0000000000000D+00
292  2.9100000000000D+00  0.0000000000000D+00  0.0000000000000D+00
293  2.9200000000000D+00  0.0000000000000D+00  0.0000000000000D+00
294  2.9300000000000D+00  0.0000000000000D+00  0.0000000000000D+00
295  2.9400000000000D+00  0.0000000000000D+00  0.0000000000000D+00
296  2.9500000000000D+00  0.0000000000000D+00  0.0000000000000D+00
297  2.9600000000000D+00  0.0000000000000D+00  0.0000000000000D+00
298  2.9700000000000D+00  0.0000000000000D+00  0.0000000000000D+00
299  2.9800000000000D+00  0.0000000000000D+00  0.0000000000000D+00
300  2.9900000000000D+00  0.0000000000000D+00  0.0000000000000D+00
301  3.0000000000000D+00  0.0000000000000D+00  0.0000000000000D+00
302  3.0100000000000D+00  0.0000000000000D+00  0.0000000000000D+00
303  3.0200000000000D+00  0.0000000000000D+00  0.0000000000000D+00
304  3.0300000000000D+00  0.0000000000000D+00  0.0000000000000D+00
305  3.0400000000000D+00  0.0000000000000D+00  0.0000000000000D+00
306  3.0500000000000D+00  0.0000000000000D+00  0.0000000000000D+00
307  3.0600000000000D+00  0.0000000000000D+00  0.0000000000000D+00
308  3.0700000000000D+00  0.0000000000000D+00  0.0000000000000D+00
309  3.0800000000000D+00  0.0000000000000D+00  0.0000000000000D+00
310  3.0900000000000D+00  0.0000000000000D+00  0.0000000000000D+00
311  3.1000000000000D+00  0.0000000000000D+00  0.0000000000000D+00
312  3.1100000000000D+00  0.0000000000000D+00  0.0000000000000D+00
313  3.1200000000000D+00  0.0000000000000D+00  0.0000000000000D+00
314  3.1300000000000D+00  0.0000000000000D+00  0.0000000000000D+00
315  3.1400000000000D+00  0.0000000000000D+00  0.0000000000000D+00
316  3.1500000000000D+00  0.0000000000000D+00  0.0000000000000D+00
317  3.1600000000000D+00  0.0000000000000D+00  0.0000000000000D+00
318  3.1700000000000D+00  0.0000000000000D+00  0.0000000000000D+00
319  3.1800000000000D+00  0.0000000000000D+00  0.0000000000000D+00
320  3.1900000000000D+00  0.0000000000000D+00  0.0000000000000D+00
321  3.2000000000000D+00  0.0000000000000D+00  0.0000000000000D+00
322  3.2100000000000D+00  0.0000000000000D+00  0.0000000000000D+00
323  3.2200000000000D+00  0.0000000000000D+00  0.0000000000000D+00
324  3.2300000000000D+00  0.0000000000000D+00  0.0000000000000D+00
325  3.2400000000000D+00  0.0000000000000D+00  0.0000000000000D+00
326  3.2500000000000D+00  0.0000000000000D+00  0.0000000000000D+00
327  3.2600000000000D+00  0.0000000000000D+00  0.0000000000000D+00
328  3.2700000000000D+00  0.0000000000000D+00  0.0000000000000D+00
329  3.2800000000000D+00  0.0000000000000D+00  0.0000000000000D+00
330  3.2900000000000D+00  0.0000000000000D+00  0.0000000000000D+00
331  3.3000000000000D+00  0.0000000000000D+00  0.0000000000000D+00
332  3.3100000000000D+00  0.0000000000000D+00  0.0000000000000D+00
333  3.3200000000000D+00  0.0000000000000D+00  0.0000000000000D+00
334  3.3300000000000D+00  0.0000000000000D+00  0.0000000000000D+00
335  3.3400000000000D+00  0.0000000000000D+00  0.0000000000000D+00
336  3.3500000000000D+00  0.0000000000000D+00  0.0000000000000D+00
337  3.3600000000000D+00  0.0000000000000D+00  0.0000000000000D+00
338  3.3700000000000D+00  0.0000000000000D+00  0.0000000000000D+00
339  3.3800000000000D+00  0.0000000000000D+00  0.0000000000000D+00
340  3.3900000000000D+00  0.0000000000000D+00  0.0000000000000D+00
341  3.4000000000000D+00  0.0000000000000D+00  0.0000000000000D+00
342  3.4100000000000D+00  0.0000000000000D+00  0.0000000000000D+00
343  3.4200000000000D+00  0.0000000000000D+00  0.0000000000000D+00
344  3.4300000000000D+00  0.0000000000000D+00  0.0000000000000D+00
345  3.4400000000000D+00  0.0000000000000D+00  0.0000000000000D+00
346  3.4500000000000D+00  0.0000000000000D+00  0.0000000000000D+00
347  3.4600000000000D+00  0.0000000000000D+00  0.0000000000000D+00
348  3.4700000000000D+00  0.0000000000000D+00  0.0000000000000D+00
349  3.4800000000000D+00  0.0000000000000D+00  0.0000000000000D+00
350  3.4900000000000D+00  0.0000000000000D+00  0.0000000000000D+00
351  3.5000000000000D+00  0.0000000000000D+00  0.0000000000000D+00
352  3.5100000000000D+00  0.0000000000000D+00  0.0000000000000D+00
353  3.5200000000000D+00  0.0000000000000D+00  0.0000000000000D+00
354  3.5300000000000D+00  0.0000000000000D+00  0.0000000000000D+00
355  3.5400000000000D+00  0.0000000000000D+00  0.0000000000000D+00
356  3.5500000000000D+00  0.0000000000000D+00  0.0000000000000D+00
357  3.5600000000000D+00  0.0000000000000D+00  0.0000000000000D+00
358  3.5700000000000D+00  0.0000000000000D+00  0.0000000000000D+00
359  3.5800000000000D+00  0.0000000000000D+00  0.0000000000000D+00
360  3.5900000000000D+00  0.0000000000000D+00  0.0000000000000D+00
361  3.6000000000000D+00  0.0000000000000D+00  0.0000000000000D+00
362  3.6100000000000D+00  0.0000000000000D+00  0.0000000000000D+00
363  3.6200000000000D+00  0.0000000000000D+00  0.0000000000000D+00
364  3.6300000000000D+00  0.0000000000000D+00  0.0000000000000D+00
365  3.6400000000000D+00  0.0000000000000D+00  0.0000000000000D+00
366  3.6500000000000D+00  0.0000000000000D+00  0.0000000000000D+00
367  3.6600000000000D+00  0.0000000000000D+00  0.0000000000000D+00
368  3.6700000000000D+00  0.0000000000000D+00  0.0000000000000D+00
369  3.6800000000000D+00  0.0000000000000D+00  0.0000000000000D+00
370  3.6900000000000D+00  0.0000000000000D+00  0.0000000000000D+00
371  3.7000000000000D+00  0.0000000000000D+00  0.0000000000000D+00
372  3.7100000000000D+00  0.0000000000000D+00  0.0000000000000D+00
373  3.7200000000000D+00  0.0000000000000D+00  0.0000000000000D+00
374  3.7300000000000D+00  0.0000000000000D+00  0.0000000000000D+00
375  3.7400000000000D+00  0.0000000000000D+00  0.0000000000000D+00
376  3.7500000000000D+00  0.0000000000000D+00  0.0000000000000D+00
377  3.7600000000000D+00  0.0000000000000D+00  0.0000000000000D+00
378  3.7700000000000D+00  0.0000000000000D+00  0.0000000000000D+00
379  3.7800000000000D+00  0.0000000000000D+00  0.0000000000000D+00
380  3.7900000000000D+00  0.0000000000000D+00  0.0000000000000D+00
381  3.8000000000000D+00  0.0000000000000D+00  0.0000000000000D+00
382  3.8100000000000D+00  0.0000000000000D+00  0.0000000000000D+00
383  3.8200000000000D+00  0.0000000000000D+00  0.0000000000000D+00
384  3.8300000000000D+00  0.0000000000000D+00  0.0000000000000D+00
385  3.8400000000000D+00  0.0000000000000D+00  0.0000000000000D+00
386  3.8500000000000D+00  0.0000000000000D+00  0.0000000000000D+00
387  3.8600000000000D+00  0.0000000000000D+00  0.0000000000000D+00
388  3.8700000000000D+00  0.0000000000000D+00  0.0000000000000D+00
389  3.8800000000000D+00  0.0000000000000D+00  0.0000000000000D+00
390  3.8900000000000D+00  0.0000000000000D+00  0.0000000000000D+00
391  3.9000000000000D+00  0.0000000000000D+00  0.0000000000000D+00
392  3.9100000000000D+00  0.0000000000000D+00  0.0000000000000D+00
393  3.9200000000000D+00  0.0000000000000D+00  0.0000000000000D+00
394  3.9300000000000D+00  0.0000000000000D+00  0.0000000000000D+00
395  3.9400000000000D+00  0.0000000000000D+00  0.0000000000000D+00
396  3.9500000000000D+00  0.0000000000000D+00  0.0000000000000D+00
397  3.9600000000000D+00  0.0000000000000D+00  0.0000000000000D+00
398  3.9700000000000D+00  0.0000000000000D+00  0.0000000000000D+00
399  3.9800000000000D+00  0.0000000000000D+00  0.0000000000000D+00
400  3.9900000000000D+00  0.0000000000000D+00  0.0000000000000D+00
401  4.0000000000000D+00  0.0000000000000D+00  0.0000000000000D+00
402  4.0100000000000D+00  0.0000000000000D+00  0.0000000000000D+00
403  4.0200000000000D+00  0.0000000000000D+00  0.0000000000000D+00
404  4.0300000000000D+00  0.0000000000000D+00  0.0000000000000D+00
405  4.0400000000000D+00  0.0000000000000D+00  0.0000000000000D+00
406  4.0500000000000D+00  0.0000000000000D+00  0.0000000000000D+00
407  4.0600000000000D+00  0.0000000000000D+00  0.0000000000000D+00
408  4.0700000000000D+00  0.0000000000000D+00  0.0000000000000D+00
409  4.0800000000000D+00  0.0000000000000D+00  0.0000000000000D+00
410  4.0900000000000D+00  0.0000000000000D+00  0.0000000000000D+00
411  4.1000000000000D+00  0.0000000000000D+00  0.0000000000000D+00
412  4.1100000000000D+00  0.0000000000000D+00  0.0000000000000D+00
413  4.1200000000000D+00  0.0000000000000D+00  0.0000000000000D+00
414  4.1300000000000D+00  0.0000000000000D+00  0.0000000000000D+00
415  4.1400000000000D+00  0.0000000000000D+00  0.0000000000000D+00
416  4.1500000000000D+00  0.0000000000000D+00  0.0000000000000D+00
417  4.1600000000000D+00  0.0000000000000D+00  0.0000000000000D+00
418  4.1700000000000D+00  0.0000000000000D+00  0.0000000000000D+00
419  4.1800000000000D+00  0.0000000000000D+00  0.0000000000000D+00
420  4.1900000000000D+00  0.0000000000000D+00  0.0000000000000D+00
421  4.2000000000000D+00  0.0000000000000D+00  0.0000000000000D+00
422  4.2100000000000D+00  0.0000000000000D+00  0.0000000000000D+00
423  4.2200000000000D+00  0.0000000000000D+00  0.0000000000000D+00
424  4.2300000000000D+00  0.0000000000000D+00  0.0000000000000D+00
425  4.2400000000000D+00  0.0000000000000D+00  0.0000000000000D+00
426  4.2500000000000D+00  0.0000000000000D+00  0.0000000000000D+00
427  4.2600000000000D+00  0.0000000000000D+00  0.0000000000000D+00
428  4.2700000000000D+00  0.0000000000000D+00  0.0000000000000D+00
429  4.2800000000000D+00  0.0000000000000D+00  0.0000000000000D+00
430  4.2900000000000D+00  0.0000000000000D+00  0.0000000000000D+00
431  4.3000000000000D+00  0.0000000000000D+00  0.0000000000000D+00
432  4.3100000000000D+00  0.0000000000000D+00  0.0000000000000D+00
433  4.3200000000000D+00  0.0000000000000D+00  0.0000000000000D+00
434  4.3300000000000D+00  0.0000000000000D+00  0.0000000000000D+00
435  4.3400000000000D+00  0.0000000000000D+00  0.0000000000000D+00
436  4.3500000000000D+00  0.0000000000000D+00  0.0000000000000D+00
437  4.3600000000000D+00  0.0000000000000D+00  0.0000000000000D+00
438  4.3700000000000D+00  0.0000000000000D+00  0.0000000000000D+00
439  4.3800000000000D+00  0.0000000000000D+00  0.0000000000000D+00
440  4.3900000000000D+00  0.0000000000000D+00  0.0000000000000D+00
441  4.4000000000000D+00  0.0000000000000D+00  0.0000000000000D+00
442  4.4100000000000D+00  0.0000000000000D+00  0.0000000000000D+00
443  4.4200000000000D+00  0.0000000000000D+00  0.0000000000000D+00