W     ONCVPSP-3.3.0  r_core=   1.61105   1.61105   1.61105   2.02088
74.0000     14.0000      171114    zatom,zion,pspd
8   -1012   3     4   600     0    pspcod,pspxc,lmax,lloc,mmax,r2well
5.99000000  5.00000000  0.00000000    rchrg fchrg qchrg
2     2     2     2     0    nproj
1     1           extension_switch
0                         1.3067705566143D+01  1.8614532190558D+00
1  0.0000000000000D+00 -5.8677840364396D-11  3.0011082507997D-10
2  1.0000000000000D-02  5.2611782916958D-02 -2.0096777102224D-02
3  2.0000000000000D-02  1.0516355099712D-01 -4.0106835514742D-02
4  3.0000000000000D-02  1.5759534836586D-01 -5.9943968541839D-02
5  4.0000000000000D-02  2.0984733631758D-01 -7.9522987279382D-02
6  5.0000000000000D-02  2.6185985002696D-01 -9.8760214096558D-02
7  6.0000000000000D-02  3.1357345305449D-01 -1.1757395783539D-01
8  7.0000000000000D-02  3.6492898898064D-01 -1.3588496498940D-01
9  8.0000000000000D-02  4.1586762956173D-01 -1.5361684142297D-01
10  9.0000000000000D-02  4.6633091887274D-01 -1.7069643956217D-01
11  1.0000000000000D-01  5.1626081298652D-01 -1.8705420642315D-01
12  1.1000000000000D-01  5.6559971483500D-01 -2.0262448833998D-01
13  1.2000000000000D-01  6.1429050400429D-01 -2.1734578880628D-01
14  1.3000000000000D-01  6.6227656133064D-01 -2.3116097644729D-01
15  1.4000000000000D-01  7.0950178828689D-01 -2.4401744078535D-01
16  1.5000000000000D-01  7.5591062127773D-01 -2.5586719414511D-01
17  1.6000000000000D-01  8.0144804109459D-01 -2.6666691875778D-01
18  1.7000000000000D-01  8.4605957791632D-01 -2.7637795885826D-01
19  1.8000000000000D-01  8.8969131237697D-01 -2.8496625831707D-01
20  1.9000000000000D-01  9.3228987335624D-01 -2.9240224510208D-01
21  2.0000000000000D-01  9.7380243327830D-01 -2.9866066461397D-01
22  2.1000000000000D-01  1.0141767018296D+00 -3.0372036467536D-01
23  2.2000000000000D-01  1.0533609191231D+00 -3.0756403566800D-01
24  2.3000000000000D-01  1.0913038494435D+00 -3.1017790999481D-01
25  2.4000000000000D-01  1.1279547768041D+00 -3.1155142568730D-01
26  2.5000000000000D-01  1.1632635036255D+00 -3.1167685957232D-01
27  2.6000000000000D-01  1.1971803539153D+00 -3.1054893594968D-01
28  2.7000000000000D-01  1.2296561823728D+00 -3.0816441720308D-01
29  2.8000000000000D-01  1.2606423908743D+00 -3.0452168316590D-01
30  2.9000000000000D-01  1.2900909538023D+00 -2.9962030638213D-01
31  3.0000000000000D-01  1.3179544536679D+00 -2.9346063063469D-01
32  3.1000000000000D-01  1.3441861284406D+00 -2.8604336025565D-01
33  3.2000000000000D-01  1.3687399319379D+00 -2.7736916777647D-01
34  3.3000000000000D-01  1.3915706085442D+00 -2.6743832742281D-01
35  3.4000000000000D-01  1.4126337834175D+00 -2.5625038180081D-01
36  3.5000000000000D-01  1.4318860692096D+00 -2.4380384886208D-01
37  3.6000000000000D-01  1.4492851901680D+00 -2.3009597587031D-01
38  3.7000000000000D-01  1.4647901243035D+00 -2.1512254662646D-01
39  3.8000000000000D-01  1.4783612641059D+00 -1.9887774764309D-01
40  3.9000000000000D-01  1.4899605960643D+00 -1.8135409829610D-01
41  4.0000000000000D-01  1.4995518990010D+00 -1.6254244922819D-01
42  4.1000000000000D-01  1.5071009609710D+00 -1.4243205244093D-01
43  4.2000000000000D-01  1.5125758141971D+00 -1.2101070559580D-01
44  4.3000000000000D-01  1.5159469872242D+00 -9.8264972062828D-02
45  4.4000000000000D-01  1.5171877731781D+00 -7.4180477213243D-02
46  4.5000000000000D-01  1.5162745127101D+00 -4.8742280365528D-02
47  4.6000000000000D-01  1.5131868899006D+00 -2.1935320672168D-02
48  4.7000000000000D-01  1.5079082390954D+00  6.2550659083486D-03
49  4.8000000000000D-01  1.5004258603437D+00  3.5842562560122D-02
50  4.9000000000000D-01  1.4907313408240D+00  6.6839225627038D-02
51  5.0000000000000D-01  1.4788208793643D+00  9.9254782967244D-02
52  5.1000000000000D-01  1.4646956109096D+00  1.3309588399538D-01
53  5.2000000000000D-01  1.4483619275548D+00  1.6836530979261D-01
54  5.3000000000000D-01  1.4298317925540D+00  2.0506115262497D-01
55  5.4000000000000D-01  1.4091230435399D+00  2.4317597508789D-01
56  5.5000000000000D-01  1.3862596810452D+00  2.8269595987406D-01
57  5.6000000000000D-01  1.3612721383162D+00  3.2360006182948D-01
58  5.7000000000000D-01  1.3341975283413D+00  3.6585917450576D-01
59  5.8000000000000D-01  1.3050798640048D+00  4.0943532382382D-01
60  5.9000000000000D-01  1.2739702472997D+00  4.5428090172480D-01
61  6.0000000000000D-01  1.2409270236135D+00  5.0033795278950D-01
62  6.1000000000000D-01  1.2060158972285D+00  5.4753752674991D-01
63  6.2000000000000D-01  1.1693100043541D+00  5.9579910959251D-01
64  6.3000000000000D-01  1.1308899402408D+00  6.4503014555660D-01
65  6.4000000000000D-01  1.0908437372075D+00  6.9512566176162D-01
66  6.5000000000000D-01  1.0492667907416D+00  7.4596800646045D-01
67  6.6000000000000D-01  1.0062617312137D+00  7.9742671100563D-01
68  6.7000000000000D-01  9.6193823917477D-01  8.4935848454357D-01
69  6.8000000000000D-01  9.1641280266956D-01  9.0160734923115D-01
70  6.9000000000000D-01  8.6980841551212D-01  9.5400492239313D-01
71  7.0000000000000D-01  8.2225421600957D-01  1.0063708505378D+00
72  7.1000000000000D-01  7.7388506619666D-01  1.0585133985242D+00
73  7.2000000000000D-01  7.2484107223998D-01  1.1102301954518D+00
74  7.3000000000000D-01  6.7526704728910D-01  1.1613091370345D+00
75  7.4000000000000D-01  6.2531191868211D-01  1.2115294423430D+00
76  7.5000000000000D-01  5.7512808204720D-01  1.2606628608865D+00
77  7.6000000000000D-01  5.2487070547626D-01  1.3084750240655D+00
78  7.7000000000000D-01  4.7469698757099D-01  1.3547269330913D+00
79  7.8000000000000D-01  4.2476537377066D-01  1.3991765735545D+00
80  7.9000000000000D-01  3.7523473595317D-01  1.4415806449737D+00
81  8.0000000000000D-01  3.2626352085643D-01  1.4816963918603D+00
82  8.1000000000000D-01  2.7800887337816D-01  1.5192835211575D+00
83  8.2000000000000D-01  2.3062574128099D-01  1.5541061893446D+00
84  8.3000000000000D-01  1.8426596824390D-01  1.5859350410813D+00
85  8.4000000000000D-01  1.3907738255626D-01  1.6145492800152D+00
86  8.5000000000000D-01  9.5202889041067D-02  1.6397387513079D+00
87  8.6000000000000D-01  5.2779572013309D-02  1.6613060145790D+00
88  8.7000000000000D-01  1.1937817224587D-02  1.6790683853213D+00
89  8.8000000000000D-01 -2.7199539188945D-02  1.6928599224386D+00
90  8.9000000000000D-01 -6.4518026753474D-02  1.7025333393904D+00
91  9.0000000000000D-01 -9.9912313796262D-02  1.7079618165221D+00
92  9.1000000000000D-01 -1.3328692995651D-01  1.7090406925040D+00
93  9.2000000000000D-01 -1.6455693061658D-01  1.7056890134109D+00
94  9.3000000000000D-01 -1.9364849615241D-01  1.6978509188372D+00
95  9.4000000000000D-01 -2.2049945933837D-01  1.6854968455711D+00
96  9.5000000000000D-01 -2.4505975474682D-01  1.6686245306967D+00
97  9.6000000000000D-01 -2.6729178457319D-01  1.6472597976080D+00
98  9.7000000000000D-01 -2.8717069597237D-01  1.6214571102341D+00
99  9.8000000000000D-01 -3.0468456570820D-01  1.5912998827912D+00
100  9.9000000000000D-01 -3.1983448869419D-01  1.5569005345877D+00
101  1.0000000000000D+00 -3.3263456782679D-01  1.5184002817653D+00
102  1.0100000000000D+00 -3.4311180337229D-01  1.4759686603507D+00
103  1.0200000000000D+00 -3.5130588108807D-01  1.4298027776649D+00
104  1.0300000000000D+00 -3.5726885911787D-01  1.3801262916505D+00
105  1.0400000000000D+00 -3.6106475469778D-01  1.3271881206052D+00
106  1.0500000000000D+00 -3.6276903259675D-01  1.2712608884309D+00
107  1.0600000000000D+00 -3.6246799814398D-01  1.2126391132534D+00
108  1.0700000000000D+00 -3.6025809861367D-01  1.1516371499965D+00
109  1.0800000000000D+00 -3.5624513757803D-01  1.0885868999946D+00
110  1.0900000000000D+00 -3.5054340767454D-01  1.0238353032218D+00
111  1.1000000000000D+00 -3.4327474805112D-01  9.5774163115695D-01
112  1.1100000000000D+00 -3.3456753342090D-01  8.9067460030492D-01
113  1.1200000000000D+00 -3.2455560236744D-01  8.2300932852032D-01
114  1.1300000000000D+00 -3.1337713300717D-01  7.5512415767260D-01
115  1.1400000000000D+00 -3.0117347475518D-01  6.8739736811006D-01
116  1.1500000000000D+00 -2.8808794523164D-01  6.2020381124887D-01
117  1.1600000000000D+00 -2.7426460168837D-01  5.5391148763095D-01
118  1.1700000000000D+00 -2.5984699651724D-01  4.8887809833631D-01
119  1.1800000000000D+00 -2.4497692656450D-01  4.2544759810265D-01
120  1.1900000000000D+00 -2.2979318590331D-01  3.6394677827059D-01
121  1.2000000000000D+00 -2.1443033161897D-01  3.0468190735296D-01
122  1.2100000000000D+00 -1.9901747204079D-01  2.4793545663198D-01
123  1.2200000000000D+00 -1.8367708510336D-01  1.9396293084935D-01
124  1.2300000000000D+00 -1.6852387501814D-01  1.4298982925263D-01
125  1.2400000000000D+00 -1.5366372300190D-01  9.5208960228486D-02
126  1.2500000000000D+00 -1.3919256831864D-01  5.0777400569110D-02
127  1.2600000000000D+00 -1.2519538512902D-01  9.8137587104830D-03
128  1.2700000000000D+00 -1.1174659707934D-01 -2.7598083793660D-02
129  1.2800000000000D+00 -9.8910750496065D-02 -6.1404701437757D-02
130  1.2900000000000D+00 -8.6743400124847D-02 -9.1578435183181D-02
131  1.3000000000000D+00 -7.5290787754919D-02 -1.1811848096921D-01
132  1.3100000000000D+00 -6.4589800663196D-02 -1.4105084838815D-01
133  1.3200000000000D+00 -5.4668039613609D-02 -1.6042791390295D-01
134  1.3300000000000D+00 -4.5543953455147D-02 -1.7632781753948D-01
135  1.3400000000000D+00 -3.7227053418533D-02 -1.8885362135284D-01
136  1.3500000000000D+00 -2.9718209365797D-02 -1.9813221761315D-01
137  1.3600000000000D+00 -2.3010023814887D-02 -2.0431300226255D-01
138  1.3700000000000D+00 -1.7087278866340D-02 -2.0756632865082D-01
139  1.3800000000000D+00 -1.1927452146563D-02 -2.0808175345292D-01
140  1.3900000000000D+00 -7.5012963076253D-03 -2.0606609164305D-01
141  1.4000000000000D+00 -3.7734754571214D-03 -2.0174130110436D-01
142  1.4100000000000D+00 -7.0325304574381D-04 -1.9534221377185D-01
143  1.4200000000000D+00  1.7547770236850D-03 -1.8711413900272D-01
144  1.4300000000000D+00  3.6499229472110D-03 -1.7731036056992D-01
145  1.4400000000000D+00  5.0345993515748D-03 -1.6618955259668D-01
146  1.4500000000000D+00  5.9635118818638D-03 -1.5401314094449D-01
147  1.4600000000000D+00  6.4928301052384D-03 -1.4104263517177D-01
148  1.4700000000000D+00  6.6793577210289D-03 -1.2753695925996D-01
149  1.4800000000000D+00  6.5797083499643D-03 -1.1374980694887D-01
150  1.4900000000000D+00  6.2494958824253D-03 -9.9927049837383D-02
151  1.5000000000000D+00  5.7425471007613D-03 -8.6304222421969D-02
152  1.5100000000000D+00  5.1101460082447D-03 -7.3104113637204D-02
153  1.5200000000000D+00  4.4003158019829D-03 -6.0534483536122D-02
154  1.5300000000000D+00  3.6571484957793D-03 -4.8785936482909D-02
155  1.5400000000000D+00  2.9201864277421D-03 -3.8029964154880D-02
156  1.5500000000000D+00  2.2238645580096D-03 -2.8417186286681D-02
157  1.5600000000000D+00  1.5974179488439D-03 -2.0080586926255D-02
158  1.5700000000000D+00  1.0627544529635D-03 -1.3113814851339D-02
159  1.5800000000000D+00  6.3321452804192D-04 -7.5652391853486D-03
160  1.5900000000000D+00  3.2772998062377D-04 -3.5830003329613D-03
161  1.6000000000000D+00  1.5798607784927D-04 -1.2675601186410D-03
162  1.6100000000000D+00  7.9915817281408D-05 -2.5617624815111D-04
163  1.6200000000000D+00  3.1103268425032D-05  2.4130272716459D-05
164  1.6300000000000D+00  7.8131124302873D-07  2.4435559360533D-06
165  1.6400000000000D+00 -4.5975660056043D-06 -2.1961895719088D-05
166  1.6500000000000D+00  1.2314365947208D-08  2.5067306667430D-08
167  1.6600000000000D+00  1.1754818095700D-06  3.0698513553775D-06
168  1.6700000000000D+00 -9.9798989577421D-09  2.7165465394591D-08
169  1.6800000000000D+00 -2.0988876868906D-07  5.7132102305632D-07
170  1.6900000000000D+00  0.0000000000000D+00  0.0000000000000D+00
171  1.7000000000000D+00  0.0000000000000D+00  0.0000000000000D+00
172  1.7100000000000D+00  0.0000000000000D+00  0.0000000000000D+00
173  1.7200000000000D+00  0.0000000000000D+00  0.0000000000000D+00
174  1.7300000000000D+00  0.0000000000000D+00  0.0000000000000D+00
175  1.7400000000000D+00  0.0000000000000D+00  0.0000000000000D+00
176  1.7500000000000D+00  0.0000000000000D+00  0.0000000000000D+00
177  1.7600000000000D+00  0.0000000000000D+00  0.0000000000000D+00
178  1.7700000000000D+00  0.0000000000000D+00  0.0000000000000D+00
179  1.7800000000000D+00  0.0000000000000D+00  0.0000000000000D+00
180  1.7900000000000D+00  0.0000000000000D+00  0.0000000000000D+00
181  1.8000000000000D+00  0.0000000000000D+00  0.0000000000000D+00
182  1.8100000000000D+00  0.0000000000000D+00  0.0000000000000D+00
183  1.8200000000000D+00  0.0000000000000D+00  0.0000000000000D+00
184  1.8300000000000D+00  0.0000000000000D+00  0.0000000000000D+00
185  1.8400000000000D+00  0.0000000000000D+00  0.0000000000000D+00
186  1.8500000000000D+00  0.0000000000000D+00  0.0000000000000D+00
187  1.8600000000000D+00  0.0000000000000D+00  0.0000000000000D+00
188  1.8700000000000D+00  0.0000000000000D+00  0.0000000000000D+00
189  1.8800000000000D+00  0.0000000000000D+00  0.0000000000000D+00
190  1.8900000000000D+00  0.0000000000000D+00  0.0000000000000D+00
191  1.9000000000000D+00  0.0000000000000D+00  0.0000000000000D+00
192  1.9100000000000D+00  0.0000000000000D+00  0.0000000000000D+00
193  1.9200000000000D+00  0.0000000000000D+00  0.0000000000000D+00
194  1.9300000000000D+00  0.0000000000000D+00  0.0000000000000D+00
195  1.9400000000000D+00  0.0000000000000D+00  0.0000000000000D+00
196  1.9500000000000D+00  0.0000000000000D+00  0.0000000000000D+00
197  1.9600000000000D+00  0.0000000000000D+00  0.0000000000000D+00
198  1.9700000000000D+00  0.0000000000000D+00  0.0000000000000D+00
199  1.9800000000000D+00  0.0000000000000D+00  0.0000000000000D+00
200  1.9900000000000D+00  0.0000000000000D+00  0.0000000000000D+00
201  2.0000000000000D+00  0.0000000000000D+00  0.0000000000000D+00
202  2.0100000000000D+00  0.0000000000000D+00  0.0000000000000D+00
203  2.0200000000000D+00  0.0000000000000D+00  0.0000000000000D+00
204  2.0300000000000D+00  0.0000000000000D+00  0.0000000000000D+00
205  2.0400000000000D+00  0.0000000000000D+00  0.0000000000000D+00
206  2.0500000000000D+00  0.0000000000000D+00  0.0000000000000D+00
207  2.0600000000000D+00  0.0000000000000D+00  0.0000000000000D+00
208  2.0700000000000D+00  0.0000000000000D+00  0.0000000000000D+00
209  2.0800000000000D+00  0.0000000000000D+00  0.0000000000000D+00
210  2.0900000000000D+00  0.0000000000000D+00  0.0000000000000D+00
211  2.1000000000000D+00  0.0000000000000D+00  0.0000000000000D+00
212  2.1100000000000D+00  0.0000000000000D+00  0.0000000000000D+00
213  2.1200000000000D+00  0.0000000000000D+00  0.0000000000000D+00
214  2.1300000000000D+00  0.0000000000000D+00  0.0000000000000D+00
215  2.1400000000000D+00  0.0000000000000D+00  0.0000000000000D+00
216  2.1500000000000D+00  0.0000000000000D+00  0.0000000000000D+00
217  2.1600000000000D+00  0.0000000000000D+00  0.0000000000000D+00
218  2.1700000000000D+00  0.0000000000000D+00  0.0000000000000D+00
219  2.1800000000000D+00  0.0000000000000D+00  0.0000000000000D+00
220  2.1900000000000D+00  0.0000000000000D+00  0.0000000000000D+00
221  2.2000000000000D+00  0.0000000000000D+00  0.0000000000000D+00
222  2.2100000000000D+00  0.0000000000000D+00  0.0000000000000D+00
223  2.2200000000000D+00  0.0000000000000D+00  0.0000000000000D+00
224  2.2300000000000D+00  0.0000000000000D+00  0.0000000000000D+00
225  2.2400000000000D+00  0.0000000000000D+00  0.0000000000000D+00
226  2.2500000000000D+00  0.0000000000000D+00  0.0000000000000D+00
227  2.2600000000000D+00  0.0000000000000D+00  0.0000000000000D+00
228  2.2700000000000D+00  0.0000000000000D+00  0.0000000000000D+00
229  2.2800000000000D+00  0.0000000000000D+00  0.0000000000000D+00
230  2.2900000000000D+00  0.0000000000000D+00  0.0000000000000D+00
231  2.3000000000000D+00  0.0000000000000D+00  0.0000000000000D+00
232  2.3100000000000D+00  0.0000000000000D+00  0.0000000000000D+00
233  2.3200000000000D+00  0.0000000000000D+00  0.0000000000000D+00
234  2.3300000000000D+00  0.0000000000000D+00  0.0000000000000D+00
235  2.3400000000000D+00  0.0000000000000D+00  0.0000000000000D+00
236  2.3500000000000D+00  0.0000000000000D+00  0.0000000000000D+00
237  2.3600000000000D+00  0.0000000000000D+00  0.0000000000000D+00
238  2.3700000000000D+00  0.0000000000000D+00  0.0000000000000D+00
239  2.3800000000000D+00  0.0000000000000D+00  0.0000000000000D+00
240  2.3900000000000D+00  0.0000000000000D+00  0.0000000000000D+00
241  2.4000000000000D+00  0.0000000000000D+00  0.0000000000000D+00
242  2.4100000000000D+00  0.0000000000000D+00  0.0000000000000D+00
243  2.4200000000000D+00  0.0000000000000D+00  0.0000000000000D+00
244  2.4300000000000D+00  0.0000000000000D+00  0.0000000000000D+00
245  2.4400000000000D+00  0.0000000000000D+00  0.0000000000000D+00
246  2.4500000000000D+00  0.0000000000000D+00  0.0000000000000D+00
247  2.4600000000000D+00  0.0000000000000D+00  0.0000000000000D+00
248  2.4700000000000D+00  0.0000000000000D+00  0.0000000000000D+00
249  2.4800000000000D+00  0.0000000000000D+00  0.0000000000000D+00
250  2.4900000000000D+00  0.0000000000000D+00  0.0000000000000D+00
251  2.5000000000000D+00  0.0000000000000D+00  0.0000000000000D+00
252  2.5100000000000D+00  0.0000000000000D+00  0.0000000000000D+00
253  2.5200000000000D+00  0.0000000000000D+00  0.0000000000000D+00
254  2.5300000000000D+00  0.0000000000000D+00  0.0000000000000D+00
255  2.5400000000000D+00  0.0000000000000D+00  0.0000000000000D+00
256  2.5500000000000D+00  0.0000000000000D+00  0.0000000000000D+00
257  2.5600000000000D+00  0.0000000000000D+00  0.0000000000000D+00
258  2.5700000000000D+00  0.0000000000000D+00  0.0000000000000D+00
259  2.5800000000000D+00  0.0000000000000D+00  0.0000000000000D+00
260  2.5900000000000D+00  0.0000000000000D+00  0.0000000000000D+00
261  2.6000000000000D+00  0.0000000000000D+00  0.0000000000000D+00
262  2.6100000000000D+00  0.0000000000000D+00  0.0000000000000D+00
263  2.6200000000000D+00  0.0000000000000D+00  0.0000000000000D+00
264  2.6300000000000D+00  0.0000000000000D+00  0.0000000000000D+00
265  2.6400000000000D+00  0.0000000000000D+00  0.0000000000000D+00
266  2.6500000000000D+00  0.0000000000000D+00  0.0000000000000D+00
267  2.6600000000000D+00  0.0000000000000D+00  0.0000000000000D+00
268  2.6700000000000D+00  0.0000000000000D+00  0.0000000000000D+00
269  2.6800000000000D+00  0.0000000000000D+00  0.0000000000000D+00
270  2.6900000000000D+00  0.0000000000000D+00  0.0000000000000D+00
271  2.7000000000000D+00  0.0000000000000D+00  0.0000000000000D+00
272  2.7100000000000D+00  0.0000000000000D+00  0.0000000000000D+00
273  2.7200000000000D+00  0.0000000000000D+00  0.0000000000000D+00
274  2.7300000000000D+00  0.0000000000000D+00  0.0000000000000D+00
275  2.7400000000000D+00  0.0000000000000D+00  0.0000000000000D+00
276  2.7500000000000D+00  0.0000000000000D+00  0.0000000000000D+00
277  2.7600000000000D+00  0.0000000000000D+00  0.0000000000000D+00
278  2.7700000000000D+00  0.0000000000000D+00  0.0000000000000D+00
279  2.7800000000000D+00  0.0000000000000D+00  0.0000000000000D+00
280  2.7900000000000D+00  0.0000000000000D+00  0.0000000000000D+00
281  2.8000000000000D+00  0.0000000000000D+00  0.0000000000000D+00
282  2.8100000000000D+00  0.0000000000000D+00  0.0000000000000D+00
283  2.8200000000000D+00  0.0000000000000D+00  0.0000000000000D+00
284  2.8300000000000D+00  0.0000000000000D+00  0.0000000000000D+00
285  2.8400000000000D+00  0.0000000000000D+00  0.0000000000000D+00
286  2.8500000000000D+00  0.0000000000000D+00  0.0000000000000D+00
287  2.8600000000000D+00  0.0000000000000D+00  0.0000000000000D+00
288  2.8700000000000D+00  0.0000000000000D+00  0.0000000000000D+00
289  2.8800000000000D+00  0.0000000000000D+00  0.0000000000000D+00
290  2.8900000000000D+00  0.0000000000000D+00  0.0000000000000D+00
291  2.9000000000000D+00  0.0000000000000D+00  0.0000000000000D+00
292  2.9100000000000D+00  0.0000000000000D+00  0.0000000000000D+00
293  2.9200000000000D+00  0.0000000000000D+00  0.0000000000000D+00
294  2.9300000000000D+00  0.0000000000000D+00  0.0000000000000D+00
295  2.9400000000000D+00  0.0000000000000D+00  0.0000000000000D+00
296  2.9500000000000D+00  0.0000000000000D+00  0.0000000000000D+00
297  2.9600000000000D+00  0.0000000000000D+00  0.0000000000000D+00
298  2.9700000000000D+00  0.0000000000000D+00  0.0000000000000D+00
299  2.9800000000000D+00  0.0000000000000D+00  0.0000000000000D+00
300  2.9900000000000D+00  0.0000000000000D+00  0.0000000000000D+00
301  3.0000000000000D+00  0.0000000000000D+00  0.0000000000000D+00
302  3.0100000000000D+00  0.0000000000000D+00  0.0000000000000D+00
303  3.0200000000000D+00  0.0000000000000D+00  0.0000000000000D+00
304  3.0300000000000D+00  0.0000000000000D+00  0.0000000000000D+00
305  3.0400000000000D+00  0.0000000000000D+00  0.0000000000000D+00
306  3.0500000000000D+00  0.0000000000000D+00  0.0000000000000D+00
307  3.0600000000000D+00  0.0000000000000D+00  0.0000000000000D+00
308  3.0700000000000D+00  0.0000000000000D+00  0.0000000000000D+00
309  3.0800000000000D+00  0.0000000000000D+00  0.0000000000000D+00
310  3.0900000000000D+00  0.0000000000000D+00  0.0000000000000D+00
311  3.1000000000000D+00  0.0000000000000D+00  0.0000000000000D+00
312  3.1100000000000D+00  0.0000000000000D+00  0.0000000000000D+00
313  3.1200000000000D+00  0.0000000000000D+00  0.0000000000000D+00
314  3.1300000000000D+00  0.0000000000000D+00  0.0000000000000D+00
315  3.1400000000000D+00  0.0000000000000D+00  0.0000000000000D+00
316  3.1500000000000D+00  0.0000000000000D+00  0.0000000000000D+00
317  3.1600000000000D+00  0.0000000000000D+00  0.0000000000000D+00
318  3.1700000000000D+00  0.0000000000000D+00  0.0000000000000D+00
319  3.1800000000000D+00  0.0000000000000D+00  0.0000000000000D+00
320  3.1900000000000D+00  0.0000000000000D+00  0.0000000000000D+00
321  3.2000000000000D+00  0.0000000000000D+00  0.0000000000000D+00
322  3.2100000000000D+00  0.0000000000000D+00  0.0000000000000D+00
323  3.2200000000000D+00  0.0000000000000D+00  0.0000000000000D+00
324  3.2300000000000D+00  0.0000000000000D+00  0.0000000000000D+00
325  3.2400000000000D+00  0.0000000000000D+00  0.0000000000000D+00
326  3.2500000000000D+00  0.0000000000000D+00  0.0000000000000D+00
327  3.2600000000000D+00  0.0000000000000D+00  0.0000000000000D+00
328  3.2700000000000D+00  0.0000000000000D+00  0.0000000000000D+00
329  3.2800000000000D+00  0.0000000000000D+00  0.0000000000000D+00
330  3.2900000000000D+00  0.0000000000000D+00  0.0000000000000D+00
331  3.3000000000000D+00  0.0000000000000D+00  0.0000000000000D+00
332  3.3100000000000D+00  0.0000000000000D+00  0.0000000000000D+00
333  3.3200000000000D+00  0.0000000000000D+00  0.0000000000000D+00
334  3.3300000000000D+00  0.0000000000000D+00  0.0000000000000D+00
335  3.3400000000000D+00  0.0000000000000D+00  0.0000000000000D+00
336  3.3500000000000D+00  0.0000000000000D+00  0.0000000000000D+00
337  3.3600000000000D+00  0.0000000000000D+00  0.0000000000000D+00
338  3.3700000000000D+00  0.0000000000000D+00  0.0000000000000D+00
339  3.3800000000000D+00  0.0000000000000D+00  0.0000000000000D+00
340  3.3900000000000D+00  0.0000000000000D+00  0.0000000000000D+00
341  3.4000000000000D+00  0.0000000000000D+00  0.0000000000000D+00
342  3.4100000000000D+00  0.0000000000000D+00  0.0000000000000D+00
343  3.4200000000000D+00  0.0000000000000D+00  0.0000000000000D+00
344  3.4300000000000D+00  0.0000000000000D+00  0.0000000000000D+00
345  3.4400000000000D+00  0.0000000000000D+00  0.0000000000000D+00
346  3.4500000000000D+00  0.0000000000000D+00  0.0000000000000D+00
347  3.4600000000000D+00  0.0000000000000D+00  0.0000000000000D+00
348  3.4700000000000D+00  0.0000000000000D+00  0.0000000000000D+00
349  3.4800000000000D+00  0.0000000000000D+00  0.0000000000000D+00
350  3.4900000000000D+00  0.0000000000000D+00  0.0000000000000D+00
351  3.5000000000000D+00  0.0000000000000D+00  0.0000000000000D+00
352  3.5100000000000D+00  0.0000000000000D+00  0.0000000000000D+00
353  3.5200000000000D+00  0.0000000000000D+00  0.0000000000000D+00
354  3.5300000000000D+00  0.0000000000000D+00  0.0000000000000D+00
355  3.5400000000000D+00  0.0000000000000D+00  0.0000000000000D+00
356  3.5500000000000D+00  0.0000000000000D+00  0.0000000000000D+00
357  3.5600000000000D+00  0.0000000000000D+00  0.0000000000000D+00
358  3.5700000000000D+00  0.0000000000000D+00  0.0000000000000D+00
359  3.5800000000000D+00  0.0000000000000D+00  0.0000000000000D+00
360  3.5900000000000D+00  0.0000000000000D+00  0.0000000000000D+00
361  3.6000000000000D+00  0.0000000000000D+00  0.0000000000000D+00
362  3.6100000000000D+00  0.0000000000000D+00  0.0000000000000D+00
363  3.6200000000000D+00  0.0000000000000D+00  0.0000000000000D+00
364  3.6300000000000D+00  0.0000000000000D+00  0.0000000000000D+00
365  3.6400000000000D+00  0.0000000000000D+00  0.0000000000000D+00
366  3.6500000000000D+00  0.0000000000000D+00  0.0000000000000D+00
367  3.6600000000000D+00  0.0000000000000D+00  0.0000000000000D+00
368  3.6700000000000D+00  0.0000000000000D+00  0.0000000000000D+00
369  3.6800000000000D+00  0.0000000000000D+00  0.0000000000000D+00
370  3.6900000000000D+00  0.0000000000000D+00  0.0000000000000D+00
371  3.7000000000000D+00  0.0000000000000D+00  0.0000000000000D+00
372  3.7100000000000D+00  0.0000000000000D+00  0.0000000000000D+00
373  3.7200000000000D+00  0.0000000000000D+00  0.0000000000000D+00
374  3.7300000000000D+00  0.0000000000000D+00  0.0000000000000D+00
375  3.7400000000000D+00  0.0000000000000D+00  0.0000000000000D+00
376  3.7500000000000D+00  0.0000000000000D+00  0.0000000000000D+00
377  3.7600000000000D+00  0.0000000000000D+00  0.0000000000000D+00
378  3.7700000000000D+00  0.0000000000000D+00  0.0000000000000D+00
379  3.7800000000000D+00  0.0000000000000D+00  0.0000000000000D+00
380  3.7900000000000D+00  0.0000000000000D+00  0.0000000000000D+00
381  3.8000000000000D+00  0.0000000000000D+00  0.0000000000000D+00
382  3.8100000000000D+00  0.0000000000000D+00  0.0000000000000D+00
383  3.8200000000000D+00  0.0000000000000D+00  0.0000000000000D+00
384  3.8300000000000D+00  0.0000000000000D+00  0.0000000000000D+00
385  3.8400000000000D+00  0.0000000000000D+00  0.0000000000000D+00
386  3.8500000000000D+00  0.0000000000000D+00  0.0000000000000D+00
387  3.8600000000000D+00  0.0000000000000D+00  0.0000000000000D+00
388  3.8700000000000D+00  0.0000000000000D+00  0.0000000000000D+00
389  3.8800000000000D+00  0.0000000000000D+00  0.0000000000000D+00
390  3.8900000000000D+00  0.0000000000000D+00  0.0000000000000D+00
391  3.9000000000000D+00  0.0000000000000D+00  0.0000000000000D+00
392  3.9100000000000D+00  0.0000000000000D+00  0.0000000000000D+00
393  3.9200000000000D+00  0.0000000000000D+00  0.0000000000000D+00
394  3.9300000000000D+00  0.0000000000000D+00  0.0000000000000D+00
395  3.9400000000000D+00  0.0000000000000D+00  0.0000000000000D+00
396  3.9500000000000D+00  0.0000000000000D+00  0.0000000000000D+00
397  3.9600000000000D+00  0.0000000000000D+00  0.0000000000000D+00
398  3.9700000000000D+00  0.0000000000000D+00  0.0000000000000D+00
399  3.9800000000000D+00  0.0000000000000D+00  0.0000000000000D+00
400  3.9900000000000D+00  0.0000000000000D+00  0.0000000000000D+00
401  4.0000000000000D+00  0.0000000000000D+00  0.0000000000000D+00
402  4.0100000000000D+00  0.0000000000000D+00  0.0000000000000D+00
403  4.0200000000000D+00  0.0000000000000D+00  0.0000000000000D+00
404  4.0300000000000D+00  0.0000000000000D+00  0.0000000000000D+00
405  4.0400000000000D+00  0.0000000000000D+00  0.0000000000000D+00
406  4.0500000000000D+00  0.0000000000000D+00  0.0000000000000D+00
407  4.0600000000000D+00  0.0000000000000D+00  0.0000000000000D+00
408  4.0700000000000D+00  0.0000000000000D+00  0.0000000000000D+00
409  4.0800000000000D+00  0.0000000000000D+00  0.0000000000000D+00
410  4.0900000000000D+00  0.0000000000000D+00  0.0000000000000D+00
411  4.1000000000000D+00  0.0000000000000D+00  0.0000000000000D+00
412  4.1100000000000D+00  0.0000000000000D+00  0.0000000000000D+00
413  4.1200000000000D+00  0.0000000000000D+00  0.0000000000000D+00
414  4.1300000000000D+00  0.0000000000000D+00  0.0000000000000D+00
415  4.1400000000000D+00  0.0000000000000D+00  0.0000000000000D+00
416  4.1500000000000D+00  0.0000000000000D+00  0.0000000000000D+00
417  4.1600000000000D+00  0.0000000000000D+00  0.0000000000000D+00
418  4.1700000000000D+00  0.0000000000000D+00  0.0000000000000D+00
419  4.1800000000000D+00  0.0000000000000D+00  0.0000000000000D+00
420  4.1900000000000D+00  0.0000000000000D+00  0.0000000000000D+00
421  4.2000000000000D+00  0.0000000000000D+00  0.0000000000000D+00
422  4.2100000000000D+00  0.0000000000000D+00  0.0000000000000D+00
423  4.2200000000000D+00  0.0000000000000D+00  0.0000000000000D+00
424  4.2300000000000D+00  0.0000000000000D+00  0.0000000000000D+00
425  4.2400000000000D+00  0.0000000000000D+00  0.0000000000000D+00
426  4.2500000000000D+00  0.0000000000000D+00  0.0000000000000D+00
427  4.2600000000000D+00  0.0000000000000D+00  0.0000000000000D+00
428  4.2700000000000D+00  0.0000000000000D+00  0.0000000000000D+00
429  4.2800000000000D+00  0.0000000000000D+00  0.0000000000000D+00
430  4.2900000000000D+00  0.0000000000000D+00  0.0000000000000D+00
431  4.3000000000000D+00  0.0000000000000D+00  0.0000000000000D+00
432  4.3100000000000D+00  0.0000000000000D+00  0.0000000000000D+00
433  4.3200000000000D+00  0.0000000000000D+00  0.0000000000000D+00
434  4.3300000000000D+00  0.0000000000000D+00  0.0000000000000D+00
435  4.3400000000000D+00  0.0000000000000D+00  0.0000000000000D+00
436  4.3500000000000D+00  0.0000000000000D+00  0.0000000000000D+00
437  4.3600000000000D+00  0.0000000000000D+00  0.0000000000000D+00
438  4.3700000000000D+00  0.0000000000000D+00  0.0000000000000D+00
439  4.3800000000000D+00  0.0000000000000D+00  0.0000000000000D+00
440  4.3900000000000D+00  0.0000000000000D+00  0.0000000000000D+00
441  4.4000000000000D+00  0.0000000000000D+00  0.0000000000000D+00
442  4.4100000000000D+00  0.0000000000000D+00  0.0000000000000D+00
443  4.4200000000000D+00  0.0000000000000D+00  0.0000000000000D+00