Al    ONCVPSP  r_core=  1.77  1.77  1.71
13.0000      3.0000      151026    zatom,zion,pspd
8   -1013   2     4   600     0    pspcod,pspxc,lmax,lloc,mmax,r2well
5.99000000  5.00000000  0.00000000    rchrg fchrg qchrg
2     2     2     0     0    nproj
1                 extension_switch
0                         5.7770811940766D+00  7.3460348624656D-01
1  0.0000000000000D+00 -1.1231826579916D-09  2.8033062121624D-09
2  1.0000000000000D-02  2.4855123004886D-02 -1.1211028161282D-02
3  2.0000000000000D-02  4.9619935510128D-02 -2.2190773388607D-02
4  3.0000000000000D-02  7.4205544000240D-02 -3.2711561179045D-02
5  4.0000000000000D-02  9.8525868099791D-02 -4.2552881758319D-02
6  5.0000000000000D-02  1.2249899536334D-01 -5.1504842836842D-02
7  6.0000000000000D-02  1.4604847473890D-01 -5.9371468856586D-02
8  7.0000000000000D-02  1.6910452960043D-01 -6.5973798897599D-02
9  8.0000000000000D-02  1.9160517236791D-01 -7.1152738216318D-02
10  9.0000000000000D-02  2.1349720410881D-01 -7.4771621819804D-02
11  1.0000000000000D-01  2.3473708412299D-01 -7.6718452494316D-02
12  1.1000000000000D-01  2.5529165633284D-01 -7.6907780248433D-02
13  1.2000000000000D-01  2.7513872130688D-01 -7.5282195138627D-02
14  1.3000000000000D-01  2.9426744491090D-01 -7.1813410850534D-02
15  1.4000000000000D-01  3.1267859687606D-01 -6.6502922138537D-02
16  1.5000000000000D-01  3.3038461496770D-01 -5.9382225201450D-02
17  1.6000000000000D-01  3.4740949289843D-01 -5.0512596211571D-02
18  1.7000000000000D-01  3.6378849262112D-01 -3.9984429434032D-02
19  1.8000000000000D-01  3.7956768412742D-01 -2.7916142587912D-02
20  1.9000000000000D-01  3.9480331833146D-01 -1.4452663224818D-02
21  2.0000000000000D-01  4.0956104100184D-01  2.3648414986885D-04
22  2.1000000000000D-01  4.2391495798638D-01  1.5959464795337D-02
23  2.2000000000000D-01  4.3794656411990D-01  3.2504763518879D-02
24  2.3000000000000D-01  4.5174355018753D-01  4.9644121803523D-02
25  2.4000000000000D-01  4.6539850410572D-01  6.7135742091840D-02
26  2.5000000000000D-01  4.7900752405544D-01  8.4727715113210D-02
27  2.6000000000000D-01  4.9266876263464D-01  1.0216162281523D-01
28  2.7000000000000D-01  5.0648092217119D-01  1.1917626677902D-01
29  2.8000000000000D-01  5.2054172213649D-01  1.3551147000198D-01
30  2.9000000000000D-01  5.3494636011301D-01  1.5091189865051D-01
31  3.0000000000000D-01  5.4978598798675D-01  1.6513084983884D-01
32  3.1000000000000D-01  5.6514622495478D-01  1.7793395169002D-01
33  3.2000000000000D-01  5.8110572855823D-01  1.8910272287980D-01
34  3.3000000000000D-01  5.9773484427543D-01  1.9843794054646D-01
35  3.4000000000000D-01  6.1509435324768D-01  2.0576276784666D-01
36  3.5000000000000D-01  6.3323433647211D-01  2.1092559552221D-01
37  3.6000000000000D-01  6.5219317229845D-01  2.1380255557360D-01
38  3.7000000000000D-01  6.7199668232842D-01  2.1429966946747D-01
39  3.8000000000000D-01  6.9265743886025D-01  2.1235459817883D-01
40  3.9000000000000D-01  7.1417424487299D-01  2.0793796671999D-01
41  4.0000000000000D-01  7.3653179523315D-01  2.0105424156864D-01
42  4.1000000000000D-01  7.5970052536140D-01  1.9174214549678D-01
43  4.2000000000000D-01  7.8363665105232D-01  1.8007460064111D-01
44  4.3000000000000D-01  8.0828240052921D-01  1.6615819715728D-01
45  4.4000000000000D-01  8.3356643717462D-01  1.5013219137688D-01
46  4.5000000000000D-01  8.5940446874203D-01  1.3216704394723D-01
47  4.6000000000000D-01  8.8570003625940D-01  1.1246251489012D-01
48  4.7000000000000D-01  9.1234547331946D-01  9.1245338777427D-02
49  4.8000000000000D-01  9.3922302404653D-01  6.8766509201592D-02
50  4.9000000000000D-01  9.6620610577220D-01  4.5298207333090D-02
51  5.0000000000000D-01  9.9316070037101D-01  2.1130414527402D-02
52  5.1000000000000D-01  1.0199468563343D+00 -3.4327464044642D-03
53  5.2000000000000D-01  1.0464202820215D+00 -2.8076892581980D-02
54  5.3000000000000D-01  1.0724340091469D+00 -5.2481432997062D-02
55  5.4000000000000D-01  1.0978401044598D+00 -7.6323736187118D-02
56  5.5000000000000D-01  1.1224914067659D+00 -9.9283356827011D-02
57  5.6000000000000D-01  1.1462432659445D+00 -1.2104626321397D-01
58  5.7000000000000D-01  1.1689552604336D+00 -1.4130900719556D-01
59  5.8000000000000D-01  1.1904928697965D+00 -1.5978277847041D-01
60  5.9000000000000D-01  1.2107290794491D+00 -1.7619728638020D-01
61  6.0000000000000D-01  1.2295458954094D+00 -1.9030441428284D-01
62  6.1000000000000D-01  1.2468357480233D+00 -2.0188159436003D-01
63  6.2000000000000D-01  1.2625027650071D+00 -2.1073485418451D-01
64  6.3000000000000D-01  1.2764638958217D+00 -2.1670149058197D-01
65  6.4000000000000D-01  1.2886498713161D+00 -2.1965233114123D-01
66  6.5000000000000D-01  1.2990059847423D+00 -2.1949354914341D-01
67  6.6000000000000D-01  1.3074926826172D+00 -2.1616800362699D-01
68  6.7000000000000D-01  1.3140859564447D+00 -2.0965608265667D-01
69  6.8000000000000D-01  1.3187775290023D+00 -1.9997603458541D-01
70  6.9000000000000D-01  1.3215748316913D+00 -1.8718377909381D-01
71  7.0000000000000D-01  1.3225007723098D+00 -1.7137219693596D-01
72  7.1000000000000D-01  1.3215932954988D+00 -1.5266990453681D-01
73  7.2000000000000D-01  1.3189047409945D+00 -1.3123952679314D-01
74  7.3000000000000D-01  1.3145010076584D+00 -1.0727548850666D-01
75  7.4000000000000D-01  1.3084605339977D+00 -8.1001351718176D-02
76  7.5000000000000D-01  1.3008731085068D+00 -5.2666732745561D-02
77  7.6000000000000D-01  1.2918385256249D+00 -2.2543838856409D-02
78  7.7000000000000D-01  1.2814651053457D+00  9.0763298951451D-03
79  7.8000000000000D-01  1.2698680965603D+00  4.1888063067206D-02
80  7.9000000000000D-01  1.2571679859663D+00  7.5575251497548D-02
81  8.0000000000000D-01  1.2434887358593D+00  1.0981586959745D-01
82  8.1000000000000D-01  1.2289559752925D+00  1.4428656673820D-01
83  8.2000000000000D-01  1.2136951699270D+00  1.7866730412670D-01
84  8.3000000000000D-01  1.1978297963963D+00  2.1264597235500D-01
85  8.4000000000000D-01  1.1814795471530D+00  2.4592292447742D-01
86  8.5000000000000D-01  1.1647585915506D+00  2.7821536003433D-01
87  8.6000000000000D-01  1.1477739183491D+00  3.0926149689922D-01
88  8.7000000000000D-01  1.1306237839054D+00  3.3882447016698D-01
89  8.8000000000000D-01  1.1133962890452D+00  3.6669590050118D-01
90  8.9000000000000D-01  1.0961681060212D+00  3.9269907837914D-01
91  9.0000000000000D-01  1.0790033750521D+00  4.1669171547107D-01
92  9.1000000000000D-01  1.0619527877500D+00  4.3856821990207D-01
93  9.2000000000000D-01  1.0450528722898D+00  4.5826145830684D-01
94  9.3000000000000D-01  1.0283254924970D+00  4.7574397431711D-01
95  9.4000000000000D-01  1.0117775701550D+00  4.9102864033491D-01
96  9.5000000000000D-01  9.9540103681302D-01  5.0416872703598D-01
97  9.6000000000000D-01  9.7917301820122D-01  5.1525738299855D-01
98  9.7000000000000D-01  9.6305625119341D-01  5.2442652480899D-01
99  9.8000000000000D-01  9.4699972996356D-01  5.3184514624815D-01
100  9.9000000000000D-01  9.3093957475191D-01  5.3771706326761D-01
101  1.0000000000000D+00  9.1480011349212D-01  5.4227811939628D-01
102  1.0100000000000D+00  8.9849516346188D-01  5.4579288396268D-01
103  1.0200000000000D+00  8.8192949719404D-01  5.4855088284952D-01
104  1.0300000000000D+00  8.6500047409309D-01  5.5086240849679D-01
105  1.0400000000000D+00  8.4759981677873D-01  5.5305396194147D-01
106  1.0500000000000D+00  8.2961550880927D-01  5.5546338561903D-01
107  1.0600000000000D+00  8.1093378850430D-01  5.5843475049708D-01
108  1.0700000000000D+00  7.9144121196059D-01  5.6231306518519D-01
109  1.0800000000000D+00  7.7102675703089D-01  5.6743887798487D-01
110  1.0900000000000D+00  7.4958393915865D-01  5.7414284504064D-01
111  1.1000000000000D+00  7.2701290934959D-01  5.8274033929043D-01
112  1.1100000000000D+00  7.0322250445613D-01  5.9352617517799D-01
113  1.1200000000000D+00  6.7813222020047D-01  6.0676952346843D-01
114  1.1300000000000D+00  6.5167407816745D-01  6.2270908849490D-01
115  1.1400000000000D+00  6.2379435868130D-01  6.4154861845690D-01
116  1.1500000000000D+00  5.9445517335911D-01  6.6345281469104D-01
117  1.1600000000000D+00  5.6363585271392D-01  6.8854370188289D-01
118  1.1700000000000D+00  5.3133412662726D-01  7.1689751506508D-01
119  1.1800000000000D+00  4.9756707726474D-01  7.4854215486029D-01
120  1.1900000000000D+00  4.6237184777108D-01  7.8345525301087D-01
121  1.2000000000000D+00  4.2580609286413D-01  8.2156288327322D-01
122  1.2100000000000D+00  3.8794816000053D-01  8.6273894636568D-01
123  1.2200000000000D+00  3.4889699395962D-01  9.0680524721341D-01
124  1.2300000000000D+00  3.0877176152295D-01  9.5353227314651D-01
125  1.2400000000000D+00  2.6771119604210D-01  1.0026406739104D+00
126  1.2500000000000D+00  2.2587266478512D-01  1.0538034365956D+00
127  1.2600000000000D+00  1.8343096762275D-01  1.1066487343983D+00
128  1.2700000000000D+00  1.4057687791975D-01  1.1607634223558D+00
129  1.2800000000000D+00  9.7515438877360D-02  1.2156971472416D+00
130  1.2900000000000D+00  5.4464035152032D-02  1.2709670223320D+00
131  1.3000000000000D+00  1.1650260291908D-02  1.3260628159601D+00
132  1.3100000000000D+00 -3.0690396958395D-02  1.3804525964943D+00
133  1.3200000000000D+00 -7.2317018729455D-02  1.4335887620818D+00
134  1.3300000000000D+00 -1.1298584865970D-01  1.4849143858530D+00
135  1.3400000000000D+00 -1.5245297586327D-01  1.5338697987376D+00
136  1.3500000000000D+00 -1.9047707849238D-01  1.5798993257264D+00
137  1.3600000000000D+00 -2.2682219425129D-01  1.6224580941467D+00
138  1.3700000000000D+00 -2.6126048182833D-01  1.6610188226354D+00
139  1.3800000000000D+00 -2.9357493928783D-01  1.6950785099552D+00
140  1.3900000000000D+00 -3.2356204429918D-01  1.7241649440643D+00
141  1.4000000000000D+00 -3.5103428028594D-01  1.7478429410718D+00
142  1.4100000000000D+00 -3.7582251470947D-01  1.7657199781248D+00
143  1.4200000000000D+00 -3.9777820827987D-01  1.7774521836517D+00
144  1.4300000000000D+00 -4.1677542665392D-01  1.7827500584171D+00
145  1.4400000000000D+00 -4.3271265710953D-01  1.7813837645412D+00
146  1.4500000000000D+00 -4.4551437163003D-01  1.7731875375881D+00
147  1.4600000000000D+00 -4.5513231347594D-01  1.7580627081192D+00
148  1.4700000000000D+00 -4.6154648469536D-01  1.7359802314675D+00
149  1.4800000000000D+00 -4.6476582565556D-01  1.7069824324331D+00
150  1.4900000000000D+00 -4.6482856306991D-01  1.6711839104792D+00
151  1.5000000000000D+00 -4.6180223397393D-01  1.6287716357135D+00
152  1.5100000000000D+00 -4.5578336585971D-01  1.5800041860699D+00
153  1.5200000000000D+00 -4.4689682528756D-01  1.5252101563239D+00
154  1.5300000000000D+00 -4.3529483230315D-01  1.4647857316959D+00
155  1.5400000000000D+00 -4.2115564898371D-01  1.3991914466071D+00
156  1.5500000000000D+00 -4.0468196069867D-01  1.3289481748583D+00
157  1.5600000000000D+00 -3.8609895329678D-01  1.2546323589914D+00
158  1.5700000000000D+00 -3.6565212409709D-01  1.1768705734317D+00
159  1.5800000000000D+00 -3.4360482768740D-01  1.0963334236360D+00
160  1.5900000000000D+00 -3.2023560649992D-01  1.0137289061416D+00
161  1.6000000000000D+00 -2.9583531264753D-01  9.2979524546033D-01
162  1.6100000000000D+00 -2.7070407273083D-01  8.4529333708583D-01
163  1.6200000000000D+00 -2.4514811323702D-01  7.6099884045681D-01
164  1.6300000000000D+00 -2.1947649481717D-01  6.7769404257649D-01
165  1.6400000000000D+00 -1.9399778309733D-01  5.9615956127141D-01
166  1.6500000000000D+00 -1.6901670070724D-01  5.1716599977810D-01
167  1.6600000000000D+00 -1.4483079409607D-01  4.4146563646962D-01
168  1.6700000000000D+00 -1.2172715680019D-01  3.6978425386017D-01
169  1.6800000000000D+00 -9.9979244655998D-02  3.0281319554145D-01
170  1.6900000000000D+00 -7.9843821375526D-02  2.4120174707402D-01
171  1.7000000000000D+00 -6.1558069162212D-02  1.8554992747010D-01
172  1.7100000000000D+00 -4.5344116273863D-02  1.3642344671787D-01
173  1.7200000000000D+00 -3.1382063117060D-02  9.4273968825861D-02
174  1.7300000000000D+00 -1.9784401690098D-02  5.9363631402727D-02
175  1.7400000000000D+00 -1.0748172257949D-02  3.2222196436599D-02
176  1.7500000000000D+00 -4.5735020963283D-03  1.3703005475625D-02
177  1.7600000000000D+00 -1.1711448706074D-03  3.5083304151757D-03
178  1.7700000000000D+00  1.6133516712390D-04 -4.8164776615394D-04
179  1.7800000000000D+00  2.7615170409248D-04 -8.2569920118138D-04
180  1.7900000000000D+00 -1.4404186720721D-05  4.3088147054715D-05
181  1.8000000000000D+00 -9.6718721374606D-05  2.8930796279947D-04
182  1.8100000000000D+00 -8.7393923546446D-06  2.6139916752607D-05
183  1.8200000000000D+00  1.7608005305469D-05 -5.2726814658460D-05
184  1.8300000000000D+00  5.7739580685012D-06 -1.7290554762257D-05
185  1.8400000000000D+00 -5.6316704826227D-08  1.6506663252770D-07
186  1.8500000000000D+00 -3.4211199917977D-08  1.0027446709848D-07
187  1.8600000000000D+00  0.0000000000000D+00  0.0000000000000D+00
188  1.8700000000000D+00  0.0000000000000D+00  0.0000000000000D+00
189  1.8800000000000D+00  0.0000000000000D+00  0.0000000000000D+00
190  1.8900000000000D+00  0.0000000000000D+00  0.0000000000000D+00
191  1.9000000000000D+00  0.0000000000000D+00  0.0000000000000D+00
192  1.9100000000000D+00  0.0000000000000D+00  0.0000000000000D+00
193  1.9200000000000D+00  0.0000000000000D+00  0.0000000000000D+00
194  1.9300000000000D+00  0.0000000000000D+00  0.0000000000000D+00
195  1.9400000000000D+00  0.0000000000000D+00  0.0000000000000D+00
196  1.9500000000000D+00  0.0000000000000D+00  0.0000000000000D+00
197  1.9600000000000D+00  0.0000000000000D+00  0.0000000000000D+00
198  1.9700000000000D+00  0.0000000000000D+00  0.0000000000000D+00
199  1.9800000000000D+00  0.0000000000000D+00  0.0000000000000D+00
200  1.9900000000000D+00  0.0000000000000D+00  0.0000000000000D+00
201  2.0000000000000D+00  0.0000000000000D+00  0.0000000000000D+00
202  2.0100000000000D+00  0.0000000000000D+00  0.0000000000000D+00
203  2.0200000000000D+00  0.0000000000000D+00  0.0000000000000D+00
204  2.0300000000000D+00  0.0000000000000D+00  0.0000000000000D+00
205  2.0400000000000D+00  0.0000000000000D+00  0.0000000000000D+00
206  2.0500000000000D+00  0.0000000000000D+00  0.0000000000000D+00
207  2.0600000000000D+00  0.0000000000000D+00  0.0000000000000D+00
208  2.0700000000000D+00  0.0000000000000D+00  0.0000000000000D+00
209  2.0800000000000D+00  0.0000000000000D+00  0.0000000000000D+00
210  2.0900000000000D+00  0.0000000000000D+00  0.0000000000000D+00
211  2.1000000000000D+00  0.0000000000000D+00  0.0000000000000D+00
212  2.1100000000000D+00  0.0000000000000D+00  0.0000000000000D+00
213  2.1200000000000D+00  0.0000000000000D+00  0.0000000000000D+00
214  2.1300000000000D+00  0.0000000000000D+00  0.0000000000000D+00
215  2.1400000000000D+00  0.0000000000000D+00  0.0000000000000D+00
216  2.1500000000000D+00  0.0000000000000D+00  0.0000000000000D+00
217  2.1600000000000D+00  0.0000000000000D+00  0.0000000000000D+00
218  2.1700000000000D+00  0.0000000000000D+00  0.0000000000000D+00
219  2.1800000000000D+00  0.0000000000000D+00  0.0000000000000D+00
220  2.1900000000000D+00  0.0000000000000D+00  0.0000000000000D+00
221  2.2000000000000D+00  0.0000000000000D+00  0.0000000000000D+00
222  2.2100000000000D+00  0.0000000000000D+00  0.0000000000000D+00
223  2.2200000000000D+00  0.0000000000000D+00  0.0000000000000D+00
224  2.2300000000000D+00  0.0000000000000D+00  0.0000000000000D+00
225  2.2400000000000D+00  0.0000000000000D+00  0.0000000000000D+00
226  2.2500000000000D+00  0.0000000000000D+00  0.0000000000000D+00
227  2.2600000000000D+00  0.0000000000000D+00  0.0000000000000D+00
228  2.2700000000000D+00  0.0000000000000D+00  0.0000000000000D+00
229  2.2800000000000D+00  0.0000000000000D+00  0.0000000000000D+00
230  2.2900000000000D+00  0.0000000000000D+00  0.0000000000000D+00
231  2.3000000000000D+00  0.0000000000000D+00  0.0000000000000D+00
232  2.3100000000000D+00  0.0000000000000D+00  0.0000000000000D+00
233  2.3200000000000D+00  0.0000000000000D+00  0.0000000000000D+00
234  2.3300000000000D+00  0.0000000000000D+00  0.0000000000000D+00
235  2.3400000000000D+00  0.0000000000000D+00  0.0000000000000D+00
236  2.3500000000000D+00  0.0000000000000D+00  0.0000000000000D+00
237  2.3600000000000D+00  0.0000000000000D+00  0.0000000000000D+00
238  2.3700000000000D+00  0.0000000000000D+00  0.0000000000000D+00
239  2.3800000000000D+00  0.0000000000000D+00  0.0000000000000D+00
240  2.3900000000000D+00  0.0000000000000D+00  0.0000000000000D+00
241  2.4000000000000D+00  0.0000000000000D+00  0.0000000000000D+00
242  2.4100000000000D+00  0.0000000000000D+00  0.0000000000000D+00
243  2.4200000000000D+00  0.0000000000000D+00  0.0000000000000D+00
244  2.4300000000000D+00  0.0000000000000D+00  0.0000000000000D+00
245  2.4400000000000D+00  0.0000000000000D+00  0.0000000000000D+00
246  2.4500000000000D+00  0.0000000000000D+00  0.0000000000000D+00
247  2.4600000000000D+00  0.0000000000000D+00  0.0000000000000D+00
248  2.4700000000000D+00  0.0000000000000D+00  0.0000000000000D+00
249  2.4800000000000D+00  0.0000000000000D+00  0.0000000000000D+00
250  2.4900000000000D+00  0.0000000000000D+00  0.0000000000000D+00
251  2.5000000000000D+00  0.0000000000000D+00  0.0000000000000D+00
252  2.5100000000000D+00  0.0000000000000D+00  0.0000000000000D+00
253  2.5200000000000D+00  0.0000000000000D+00  0.0000000000000D+00
254  2.5300000000000D+00  0.0000000000000D+00  0.0000000000000D+00
255  2.5400000000000D+00  0.0000000000000D+00  0.0000000000000D+00
256  2.5500000000000D+00  0.0000000000000D+00  0.0000000000000D+00
257  2.5600000000000D+00  0.0000000000000D+00  0.0000000000000D+00
258  2.5700000000000D+00  0.0000000000000D+00  0.0000000000000D+00
259  2.5800000000000D+00  0.0000000000000D+00  0.0000000000000D+00
260  2.5900000000000D+00  0.0000000000000D+00  0.0000000000000D+00
261  2.6000000000000D+00  0.0000000000000D+00  0.0000000000000D+00
262  2.6100000000000D+00  0.0000000000000D+00  0.0000000000000D+00
263  2.6200000000000D+00  0.0000000000000D+00  0.0000000000000D+00
264  2.6300000000000D+00  0.0000000000000D+00  0.0000000000000D+00
265  2.6400000000000D+00  0.0000000000000D+00  0.0000000000000D+00
266  2.6500000000000D+00  0.0000000000000D+00  0.0000000000000D+00
267  2.6600000000000D+00  0.0000000000000D+00  0.0000000000000D+00
268  2.6700000000000D+00  0.0000000000000D+00  0.0000000000000D+00
269  2.6800000000000D+00  0.0000000000000D+00  0.0000000000000D+00
270  2.6900000000000D+00  0.0000000000000D+00  0.0000000000000D+00
271  2.7000000000000D+00  0.0000000000000D+00  0.0000000000000D+00
272  2.7100000000000D+00  0.0000000000000D+00  0.0000000000000D+00
273  2.7200000000000D+00  0.0000000000000D+00  0.0000000000000D+00
274  2.7300000000000D+00  0.0000000000000D+00  0.0000000000000D+00
275  2.7400000000000D+00  0.0000000000000D+00  0.0000000000000D+00
276  2.7500000000000D+00  0.0000000000000D+00  0.0000000000000D+00
277  2.7600000000000D+00  0.0000000000000D+00  0.0000000000000D+00
278  2.7700000000000D+00  0.0000000000000D+00  0.0000000000000D+00
279  2.7800000000000D+00  0.0000000000000D+00  0.0000000000000D+00
280  2.7900000000000D+00  0.0000000000000D+00  0.0000000000000D+00
281  2.8000000000000D+00  0.0000000000000D+00  0.0000000000000D+00
282  2.8100000000000D+00  0.0000000000000D+00  0.0000000000000D+00
283  2.8200000000000D+00  0.0000000000000D+00  0.0000000000000D+00
284  2.8300000000000D+00  0.0000000000000D+00  0.0000000000000D+00
285  2.8400000000000D+00  0.0000000000000D+00  0.0000000000000D+00
286  2.8500000000000D+00  0.0000000000000D+00  0.0000000000000D+00
287  2.8600000000000D+00  0.0000000000000D+00  0.0000000000000D+00
288  2.8700000000000D+00  0.0000000000000D+00  0.0000000000000D+00
289  2.8800000000000D+00  0.0000000000000D+00  0.0000000000000D+00
290  2.8900000000000D+00  0.0000000000000D+00  0.0000000000000D+00
291  2.9000000000000D+00  0.0000000000000D+00  0.0000000000000D+00
292  2.9100000000000D+00  0.0000000000000D+00  0.0000000000000D+00
293  2.9200000000000D+00  0.0000000000000D+00  0.0000000000000D+00
294  2.9300000000000D+00  0.0000000000000D+00  0.0000000000000D+00
295  2.9400000000000D+00  0.0000000000000D+00  0.0000000000000D+00
296  2.9500000000000D+00  0.0000000000000D+00  0.0000000000000D+00
297  2.9600000000000D+00  0.0000000000000D+00  0.0000000000000D+00
298  2.9700000000000D+00  0.0000000000000D+00  0.0000000000000D+00
299  2.9800000000000D+00  0.0000000000000D+00  0.0000000000000D+00
300  2.9900000000000D+00  0.0000000000000D+00  0.0000000000000D+00
301  3.0000000000000D+00  0.0000000000000D+00  0.0000000000000D+00
302  3.0100000000000D+00  0.0000000000000D+00  0.0000000000000D+00
303  3.0200000000000D+00  0.0000000000000D+00  0.0000000000000D+00
304  3.0300000000000D+00  0.0000000000000D+00  0.0000000000000D+00
305  3.0400000000000D+00  0.0000000000000D+00  0.0000000000000D+00
306  3.0500000000000D+00  0.0000000000000D+00  0.0000000000000D+00
307  3.0600000000000D+00  0.0000000000000D+00  0.0000000000000D+00
308  3.0700000000000D+00  0.0000000000000D+00  0.0000000000000D+00
309  3.0800000000000D+00  0.0000000000000D+00  0.0000000000000D+00
310  3.0900000000000D+00  0.0000000000000D+00  0.0000000000000D+00
311  3.1000000000000D+00  0.0000000000000D+00  0.0000000000000D+00
312  3.1100000000000D+00  0.0000000000000D+00  0.0000000000000D+00
313  3.1200000000000D+00  0.0000000000000D+00  0.0000000000000D+00
314  3.1300000000000D+00  0.0000000000000D+00  0.0000000000000D+00
315  3.1400000000000D+00  0.0000000000000D+00  0.0000000000000D+00
316  3.1500000000000D+00  0.0000000000000D+00  0.0000000000000D+00
317  3.1600000000000D+00  0.0000000000000D+00  0.0000000000000D+00
318  3.1700000000000D+00  0.0000000000000D+00  0.0000000000000D+00
319  3.1800000000000D+00  0.0000000000000D+00  0.0000000000000D+00
320  3.1900000000000D+00  0.0000000000000D+00  0.0000000000000D+00
321  3.2000000000000D+00  0.0000000000000D+00  0.0000000000000D+00
322  3.2100000000000D+00  0.0000000000000D+00  0.0000000000000D+00
323  3.2200000000000D+00  0.0000000000000D+00  0.0000000000000D+00
324  3.2300000000000D+00  0.0000000000000D+00  0.0000000000000D+00
325  3.2400000000000D+00  0.0000000000000D+00  0.0000000000000D+00
326  3.2500000000000D+00  0.0000000000000D+00  0.0000000000000D+00
327  3.2600000000000D+00  0.0000000000000D+00  0.0000000000000D+00
328  3.2700000000000D+00  0.0000000000000D+00  0.0000000000000D+00
329  3.2800000000000D+00  0.0000000000000D+00  0.0000000000000D+00
330  3.2900000000000D+00  0.0000000000000D+00  0.0000000000000D+00
331  3.3000000000000D+00  0.0000000000000D+00  0.0000000000000D+00
332  3.3100000000000D+00  0.0000000000000D+00  0.0000000000000D+00
333  3.3200000000000D+00  0.0000000000000D+00  0.0000000000000D+00
334  3.3300000000000D+00  0.0000000000000D+00  0.0000000000000D+00
335  3.3400000000000D+00  0.0000000000000D+00  0.0000000000000D+00
336  3.3500000000000D+00  0.0000000000000D+00  0.0000000000000D+00
337  3.3600000000000D+00  0.0000000000000D+00  0.0000000000000D+00
338  3.3700000000000D+00  0.0000000000000D+00  0.0000000000000D+00
339  3.3800000000000D+00  0.0000000000000D+00  0.0000000000000D+00
340  3.3900000000000D+00  0.0000000000000D+00  0.0000000000000D+00
341  3.4000000000000D+00  0.0000000000000D+00  0.0000000000000D+00
342  3.4100000000000D+00  0.0000000000000D+00  0.0000000000000D+00
343  3.4200000000000D+00  0.0000000000000D+00  0.0000000000000D+00
344  3.4300000000000D+00  0.0000000000000D+00  0.0000000000000D+00
345  3.4400000000000D+00  0.0000000000000D+00  0.0000000000000D+00
346  3.4500000000000D+00  0.0000000000000D+00  0.0000000000000D+00
347  3.4600000000000D+00  0.0000000000000D+00  0.0000000000000D+00
348  3.4700000000000D+00  0.0000000000000D+00  0.0000000000000D+00
349  3.4800000000000D+00  0.0000000000000D+00  0.0000000000000D+00
350  3.4900000000000D+00  0.0000000000000D+00  0.0000000000000D+00
351  3.5000000000000D+00  0.0000000000000D+00  0.0000000000000D+00
352  3.5100000000000D+00  0.0000000000000D+00  0.0000000000000D+00
353  3.5200000000000D+00  0.0000000000000D+00  0.0000000000000D+00
354  3.5300000000000D+00  0.0000000000000D+00  0.0000000000000D+00
355  3.5400000000000D+00  0.0000000000000D+00  0.0000000000000D+00
356  3.5500000000000D+00  0.0000000000000D+00  0.0000000000000D+00
357  3.5600000000000D+00  0.0000000000000D+00  0.0000000000000D+00
358  3.5700000000000D+00  0.0000000000000D+00  0.0000000000000D+00
359  3.5800000000000D+00  0.0000000000000D+00  0.0000000000000D+00
360  3.5900000000000D+00  0.0000000000000D+00  0.0000000000000D+00
361  3.6000000000000D+00  0.0000000000000D+00  0.0000000000000D+00
362  3.6100000000000D+00  0.0000000000000D+00  0.0000000000000D+00
363  3.6200000000000D+00  0.0000000000000D+00  0.0000000000000D+00
364  3.6300000000000D+00  0.0000000000000D+00  0.0000000000000D+00
365  3.6400000000000D+00  0.0000000000000D+00  0.0000000000000D+00
366  3.6500000000000D+00  0.0000000000000D+00  0.0000000000000D+00
367  3.6600000000000D+00  0.0000000000000D+00  0.0000000000000D+00
368  3.6700000000000D+00  0.0000000000000D+00  0.0000000000000D+00
369  3.6800000000000D+00  0.0000000000000D+00  0.0000000000000D+00
370  3.6900000000000D+00  0.0000000000000D+00  0.0000000000000D+00
371  3.7000000000000D+00  0.0000000000000D+00  0.0000000000000D+00
372  3.7100000000000D+00  0.0000000000000D+00  0.0000000000000D+00
373  3.7200000000000D+00  0.0000000000000D+00  0.0000000000000D+00
374  3.7300000000000D+00  0.0000000000000D+00  0.0000000000000D+00
375  3.7400000000000D+00  0.0000000000000D+00  0.0000000000000D+00
376  3.7500000000000D+00  0.0000000000000D+00  0.0000000000000D+00
377  3.7600000000000D+00  0.0000000000000D+00  0.0000000000000D+00
378  3.7700000000000D+00  0.0000000000000D+00  0.0000000000000D+00
379  3.7800000000000D+00  0.0000000000000D+00  0.0000000000000D+00
380  3.7900000000000D+00  0.0000000000000D+00  0.0000000000000D+00
381  3.8000000000000D+00  0.0000000000000D+00  0.0000000000000D+00
382  3.8100000000000D+00  0.0000000000000D+00  0.0000000000000D+00
383  3.8200000000000D+00  0.0000000000000D+00  0.0000000000000D+00
384  3.8300000000000D+00  0.0000000000000D+00  0.0000000000000D+00
385  3.8400000000000D+00  0.0000000000000D+00  0.0000000000000D+00
386  3.8500000000000D+00  0.0000000000000D+00  0.0000000000000D+00
387  3.8600000000000D+00  0.0000000000000D+00  0.0000000000000D+00
388  3.8700000000000D+00  0.0000000000000D+00  0.0000000000000D+00
389  3.8800000000000D+00  0.0000000000000D+00  0.0000000000000D+00
390  3.8900000000000D+00  0.0000000000000D+00  0.0000000000000D+00
391  3.9000000000000D+00  0.0000000000000D+00  0.0000000000000D+00
392  3.9100000000000D+00  0.0000000000000D+00  0.0000000000000D+00
393  3.9200000000000D+00  0.0000000000000D+00  0.0000000000000D+00
394  3.9300000000000D+00  0.0000000000000D+00  0.0000000000000D+00
395  3.9400000000000D+00  0.0000000000000D+00  0.0000000000000D+00
396  3.9500000000000D+00  0.0000000000000D+00  0.0000000000000D+00
397  3.9600000000000D+00  0.0000000000000D+00  0.0000000000000D+00
398  3.9700000000000D+00  0.0000000000000D+00  0.0000000000000D+00
399  3.9800000000000D+00  0.0000000000000D+00  0.0000000000000D+00
400  3.9900000000000D+00  0.0000000000000D+00  0.0000000000000D+00
401  4.0000000000000D+00  0.0000000000000D+00  0.0000000000000D+00
402  4.0100000000000D+00  0.0000000000000D+00  0.0000000000000D+00
403  4.0200000000000D+00  0.0000000000000D+00  0.0000000000000D+00
404  4.0300000000000D+00  0.0000000000000D+00  0.0000000000000D+00
405  4.0400000000000D+00  0.0000000000000D+00  0.0000000000000D+00
406  4.0500000000000D+00  0.0000000000000D+00  0.0000000000000D+00
407  4.0600000000000D+00  0.0000000000000D+00  0.0000000000000D+00
408  4.0700000000000D+00  0.0000000000000D+00  0.0000000000000D+00
409  4.0800000000000D+00  0.0000000000000D+00  0.0000000000000D+00
410  4.0900000000000D+00  0.0000000000000D+00  0.0000000000000D+00
411  4.1000000000000D+00  0.0000000000000D+00  0.0000000000000D+00
412  4.1100000000000D+00  0.0000000000000D+00  0.0000000000000D+00
413  4.1200000000000D+00  0.0000000000000D+00  0.0000000000000D+00
414  4.1300000000000D+00  0.0000000000000D+00  0.0000000000000D+00
415  4.1400000000000D+00  0.0000000000000D+00  0.0000000000000D+00
416  4.1500000000000D+00  0.0000000000000D+00  0.0000000000000D+00
417  4.1600000000000D+00  0.0000000000000D+00  0.0000000000000D+00
418  4.1700000000000D+00  0.0000000000000D+00  0.0000000000000D+00
419  4.1800000000000D+00  0.0000000000000D+00  0.0000000000000D+00
420  4.1900000000000D+00  0.0000000000000D+00  0.0000000000000D+00
421  4.2000000000000D+00  0.0000000000000D+00  0.0000000000000D+00
422  4.2100000000000D+00  0.0000000000000D+00  0.0000000000000D+00
423  4.2200000000000D+00  0.0000000000000D+00  0.0000000000000D+00
424  4.2300000000000D+00  0.0000000000000D+00  0.0000000000000D+00
425  4.2400000000000D+00  0.0000000000000D+00  0.0000000000000D+00
426  4.2500000000000D+00  0.0000000000000D+00  0.0000000000000D+00
427  4.2600000000000D+00  0.0000000000000D+00  0.0000000000000D+00
428  4.2700000000000D+00  0.0000000000000D+00  0.0000000000000D+00
429  4.2800000000000D+00  0.0000000000000D+00  0.0000000000000D+00
430  4.2900000000000D+00  0.0000000000000D+00  0.0000000000000D+00
431  4.3000000000000D+00  0.0000000000000D+00  0.0000000000000D+00
432  4.3100000000000D+00  0.0000000000000D+00  0.0000000000000D+00
433  4.3200000000000D+00  0.0000000000000D+00  0.0000000000000D+00
434  4.3300000000000D+00  0.0000000000000D+00  0.0000000000000D+00
435  4.3400000000000D+00  0.0000000000000D+00  0.0000000000000D+00
436  4.3500000000000D+00  0.0000000000000D+00  0.0000000000000D+00
437  4.3600000000000D+00  0.0000000000000D+00  0.0000000000000D+00
438  4.3700000000000D+00  0.0000000000000D+00  0.0000000000000D+00
439  4.3800000000000D+00  0.0000000000000D+00  0.0000000000000D+00
440  4.3900000000000D+00  0.0000000000000D+00  0.0000000000000D+00
441  4.4000000000000D+00  0.0000000000000D+00  0.0000000000000D+00
442  4.4100000000000D+00  0.0000000000000D+00  0.0000000000000D+00
443  4.4200000000000D+00  0.0000000000000D+00  0.0000000000000D+00
444  4.4300000000000D+00  0.0000000000000D+00  0.0000000000000D+00