<?xml version="1.0" encoding="UTF-8" ?>
<psml version="1.1" energy_unit="hartree" length_unit="bohr"
 uuid="6e983800-3436-11eb-42aa-c6c34ecd5eff"
 xmlns="http://esl.cecam.org/PSML/ns/1.1">
<provenance creator="ONCVPSP-3.3.1+psml-3.3.1-75 (scalar-relativistic)"
 date="2020-12-01">
<annotation action="semilocal-pseudopotential-generation"
 action-cont="projectors-generation" />
<input-file name="oncvpsp-input">
<![CDATA[# atsym z nc nv iexc psfile
Ni 28 3 4 -001012 both
# n l f
1 0 2.0
2 0 2.0
2 1 6.0
3 0 2.0
3 1 6.0
3 2 8.0
4 0 2.0
# lmax
2
# l rc ep ncon nbas qcut
0 1.2 0.0 4 8 10.2
1 1.25 0.0 4 8 10.0
2 1.55 0.0 4 8 10.0
# lloc lpopt rc5 dvloc0
4 5 1.2 0.0
# l nproj debl
0 2 1.0
1 2 2.8
2 2 1.0
# icmod fcfact
3 3 1.7
# epsh1 epsh2 depsh
-12.0 12.0 0.02
# rlmax drl
6.0 0.01
 0
]]>
</input-file>
</provenance>
<pseudo-atom-spec atomic-label="Ni" atomic-number="28" z-pseudo="18"
 flavor="Hamann&apos;s oncvpsp" relativity="scalar" spin-dft="no"
 core-corrections="yes">
<annotation pseudo-energy="-165.061840689" cutoff_hint_low="45"
 cutoff_hint_normal="48" cutoff_hint_high="50" />
<exchange-correlation>
<annotation oncvpsp-xc-code="-1012" oncvpsp-xc-type="libxc-interface" />
<libxc-info number-of-functionals="2">
<functional name="Slater exchange (LDA)" type="exchange" id="1" />
<functional name="Perdew &amp; Wang (LDA)" type="correlation" id="12" />
</libxc-info>
</exchange-correlation>
<valence-configuration total-valence-charge="18">
<shell n="3" l="s" occupation="2" />
<shell n="3" l="p" occupation="6" />
<shell n="3" l="d" occupation="8" />
<shell n="4" l="s" occupation="2" />
</valence-configuration>
</pseudo-atom-spec>
<grid npts="457">
<annotation type="sampled from oncvpsp log grid"
 recipe="r(i:1..N) = r1*exp(a*(i-1)) + r=0; resampled"
 recipe-cont="r1: scale; a: step" scale="0.178571428571E-04"
 step="0.119285708653E-01" delta="0.500000000000E-02" rmax="44.1127774257" />
<grid-data>
  0.000000000000E+00  5.037260227087E-03  1.006153199362E-02  1.509390240677E-02
  2.009712055657E-02  2.520946187690E-02  3.051067215696E-02  3.562857378909E-02
  4.111161976253E-02  4.632012396247E-02  5.156966681787E-02  5.673334959985E-02
  6.241407314470E-02  6.784941587428E-02  7.288349463671E-02  7.829107623126E-02
  8.409987265294E-02  8.926843081494E-02  9.475463504026E-02  1.005780070250E-01
  1.067592682175E-01  1.119766932335E-01  1.174490986765E-01  1.231889456778E-01
  1.292093043559E-01  1.355238835779E-01  1.421470621764E-01  1.473260095757E-01
  1.526936453359E-01  1.582568440774E-01  1.640227308887E-01  1.699986904517E-01
  1.761923764999E-01  1.826117216210E-01  1.892649474162E-01  1.961605750303E-01
  2.033074360652E-01  2.107146838912E-01  2.158021792191E-01  2.210125070342E-01
  2.263486330040E-01  2.318135943992E-01  2.374105018224E-01  2.431425409784E-01
  2.490129744878E-01  2.550251437438E-01  2.611824708144E-01  2.674884603897E-01
  2.739467017774E-01  2.805608709451E-01  2.873347326132E-01  2.942721423974E-01
  3.013770490034E-01  3.086534964746E-01  3.161056264935E-01  3.237376807395E-01
  3.315540033033E-01  3.395590431590E-01  3.477573566971E-01  3.561536103172E-01
  3.647525830847E-01  3.735591694507E-01  3.825783820379E-01  3.918153544938E-01
  4.012753444127E-01  4.109637363282E-01  4.208860447781E-01  4.259366773154E-01
  4.310479174432E-01  4.362204924526E-01  4.414551383620E-01  4.467526000223E-01
  4.521136312226E-01  4.575389947973E-01  4.630294627348E-01  4.685858162877E-01
  4.742088460831E-01  4.798993522361E-01  4.856581444629E-01  4.914860421965E-01
  4.973838747028E-01  5.033524811993E-01  5.093927109737E-01  5.155054235054E-01
  5.216914885874E-01  5.279517864505E-01  5.342872078879E-01  5.406986543825E-01
  5.471870382351E-01  5.537532826939E-01  5.603983220863E-01  5.671231019513E-01
  5.739285791747E-01  5.808157221248E-01  5.877855107903E-01  5.948389369198E-01
  6.019770041628E-01  6.092007282128E-01  6.165111369513E-01  6.239092705948E-01
  6.313961818419E-01  6.389729360240E-01  6.466406112563E-01  6.544002985914E-01
  6.622531021745E-01  6.702001394006E-01  6.782425410734E-01  6.863814515662E-01
  6.946180289850E-01  7.029534453329E-01  7.113888866768E-01  7.199255533170E-01
  7.285646599568E-01  7.373074358763E-01  7.461551251068E-01  7.551089866081E-01
  7.641702944473E-01  7.733403379807E-01  7.826204220365E-01  7.920118671009E-01
  8.015160095061E-01  8.111342016202E-01  8.208678120397E-01  8.307182257841E-01
  8.406868444935E-01  8.507750866275E-01  8.609843876670E-01  8.713162003190E-01
  8.817719947228E-01  8.923532586595E-01  9.030614977634E-01  9.138982357366E-01
  9.248650145654E-01  9.359633947402E-01  9.471949554771E-01  9.585612949428E-01
  9.700640304821E-01  9.817047988479E-01  9.934852564341E-01  1.005407079511E+00
  1.017471964465E+00  1.029681628039E+00  1.042037807575E+00  1.054542261266E+00
  1.067196768402E+00  1.080003129622E+00  1.092963167178E+00  1.106078725184E+00
  1.119351669886E+00  1.132783889925E+00  1.146377296604E+00  1.160133824163E+00
  1.174055430053E+00  1.188144095214E+00  1.202401824356E+00  1.216830646249E+00
  1.231432614004E+00  1.246209805372E+00  1.261164323036E+00  1.276298294913E+00
  1.291613874451E+00  1.307113240945E+00  1.322798599836E+00  1.338672183034E+00
  1.354736249231E+00  1.370993084221E+00  1.387445001232E+00  1.404094341247E+00
  1.420943473342E+00  1.437994795022E+00  1.455250732562E+00  1.472713741353E+00
  1.490386306249E+00  1.508270941924E+00  1.526370193227E+00  1.544686635546E+00
  1.563222875173E+00  1.581981549675E+00  1.600965328271E+00  1.620176912210E+00
  1.639619035157E+00  1.659294463578E+00  1.679205997141E+00  1.699356469107E+00
  1.719748746736E+00  1.740385731697E+00  1.761270360478E+00  1.782405604803E+00
  1.803794472061E+00  1.825440005726E+00  1.847345285794E+00  1.869513429224E+00
  1.891947590375E+00  1.914650961459E+00  1.937626772997E+00  1.960878294273E+00
  1.984408833804E+00  2.008221739809E+00  2.032320400687E+00  2.056708245495E+00
  2.081388744441E+00  2.106365409375E+00  2.131641794287E+00  2.157221495819E+00
  2.183108153768E+00  2.209305451614E+00  2.235817117033E+00  2.262646922437E+00
  2.289798685507E+00  2.317276269733E+00  2.345083584969E+00  2.373224587989E+00
  2.401703283045E+00  2.430523722442E+00  2.459690007111E+00  2.489206287196E+00
  2.519076762643E+00  2.549305683794E+00  2.579897352000E+00  2.610856120224E+00
  2.642186393666E+00  2.673892630390E+00  2.705979341955E+00  2.738451094059E+00
  2.771312507187E+00  2.804568257274E+00  2.838223076361E+00  2.872281753277E+00
  2.906749134316E+00  2.941630123928E+00  2.976929685415E+00  3.012652841640E+00
  3.048804675740E+00  3.085390331849E+00  3.122415015831E+00  3.159883996021E+00
  3.197802603973E+00  3.236176235221E+00  3.275010350044E+00  3.314310474244E+00
  3.354082199935E+00  3.394331186334E+00  3.435063160570E+00  3.476283918497E+00
  3.517999325519E+00  3.560215317425E+00  3.602937901235E+00  3.646173156049E+00
  3.689927233922E+00  3.734206360729E+00  3.779016837058E+00  3.824365039102E+00
  3.870257419572E+00  3.916700508607E+00  3.963700914710E+00  4.011265325686E+00
  4.059400509595E+00  4.108113315710E+00  4.157410675498E+00  4.207299603604E+00
  4.257787198847E+00  4.308880645234E+00  4.360587212976E+00  4.412914259532E+00
  4.465869230647E+00  4.519459661414E+00  4.573693177351E+00  4.628577495479E+00
  4.684120425425E+00  4.740329870530E+00  4.797213828977E+00  4.854780394924E+00
  4.913037759664E+00  4.971994212779E+00  5.031658143333E+00  5.092038041053E+00
  5.153142497545E+00  5.214980207516E+00  5.277559970006E+00  5.340890689646E+00
  5.404981377922E+00  5.469841154457E+00  5.535479248311E+00  5.601904999290E+00
  5.669127859282E+00  5.737157393593E+00  5.806003282316E+00  5.875675321704E+00
  5.946183425565E+00  6.017537626671E+00  6.089748078191E+00  6.162825055130E+00
  6.236778955791E+00  6.311620303261E+00  6.387359746900E+00  6.464008063863E+00
  6.541576160629E+00  6.620075074557E+00  6.699515975451E+00  6.779910167157E+00
  6.861269089162E+00  6.943604318232E+00  7.026927570051E+00  7.111250700892E+00
  7.196585709303E+00  7.282944737814E+00  7.370340074668E+00  7.458784155564E+00
  7.548289565431E+00  7.638869040216E+00  7.730535468698E+00  7.823301894323E+00
  7.917181517055E+00  8.012187695259E+00  8.108333947603E+00  8.205633954974E+00
  8.304101562433E+00  8.403750781183E+00  8.504595790557E+00  8.606650940043E+00
  8.709930751324E+00  8.814449920340E+00  8.920223319384E+00  9.027265999217E+00
  9.135593191207E+00  9.245220309502E+00  9.356162953216E+00  9.468436908654E+00
  9.582058151558E+00  9.697042849377E+00  9.813407363569E+00  9.931168251932E+00
  1.005034227096E+01  1.017094637821E+01  1.029299773475E+01  1.041651370756E+01
  1.054151187205E+01  1.066801001452E+01  1.079602613469E+01  1.092557844831E+01
  1.105668538969E+01  1.118936561436E+01  1.132363800174E+01  1.145952165776E+01
  1.159703591765E+01  1.173620034866E+01  1.187703475285E+01  1.201955916988E+01
  1.216379387992E+01  1.230975940648E+01  1.245747651936E+01  1.260696623759E+01
  1.275824983244E+01  1.291134883043E+01  1.306628501639E+01  1.322308043659E+01
  1.338175740183E+01  1.354233849065E+01  1.370484655254E+01  1.386930471117E+01
  1.403573636770E+01  1.420416520412E+01  1.437461518657E+01  1.454711056880E+01
  1.472167589563E+01  1.489833600638E+01  1.507711603845E+01  1.525804143092E+01
  1.544113792809E+01  1.562643158322E+01  1.581394876222E+01  1.600371614737E+01
  1.619576074114E+01  1.639010987003E+01  1.658679118847E+01  1.678583268273E+01
  1.698726267493E+01  1.719110982702E+01  1.739740314495E+01  1.760617198269E+01
  1.781744604648E+01  1.803125539904E+01  1.824763046383E+01  1.846660202939E+01
  1.868820125375E+01  1.891245966879E+01  1.913940918482E+01  1.936908209503E+01
  1.960151108017E+01  1.983672921314E+01  2.007476996369E+01  2.031566720326E+01
  2.055945520970E+01  2.080616867221E+01  2.105584269628E+01  2.130851280864E+01
  2.156421496234E+01  2.182298554189E+01  2.208486136839E+01  2.234987970481E+01
  2.261807826127E+01  2.288949520040E+01  2.316416914281E+01  2.344213917252E+01
  2.372344484259E+01  2.400812618070E+01  2.429622369487E+01  2.458777837921E+01
  2.488283171976E+01  2.518142570040E+01  2.548360280880E+01  2.578940604251E+01
  2.609887891502E+01  2.641206546200E+01  2.672901024754E+01  2.704975837051E+01
  2.737435547096E+01  2.770284773661E+01  2.803528190945E+01  2.837170529236E+01
  2.871216575587E+01  2.905671174494E+01  2.940539228588E+01  2.975825699331E+01
  3.011535607723E+01  3.047674035016E+01  3.084246123436E+01  3.121257076917E+01
  3.158712161840E+01  3.196616707782E+01  3.234976108276E+01  3.273795821575E+01
  3.313081371434E+01  3.352838347891E+01  3.393072408066E+01  3.433789276963E+01
  3.474994748286E+01  3.516694685266E+01  3.558895021489E+01  3.601601761747E+01
  3.644820982888E+01  3.688558834682E+01  3.732821540699E+01  3.777615399187E+01
  3.822946783977E+01  3.868822145385E+01  3.915248011129E+01  3.962230987263E+01
  4.009777759110E+01  4.057895092220E+01  4.106589833326E+01  4.155868911326E+01
  4.205739338262E+01  4.256208210321E+01  4.307282708845E+01  4.358970101351E+01
  4.411277742567E+01
</grid-data>
</grid>
<valence-charge total-charge="18" is-unscreening-charge="yes"
 rescaled-to-z-pseudo="no">
<radfunc>
<data npts="457">
  1.332146363543E+01  1.333120252020E+01  1.336031056883E+01  1.340885709940E+01
  1.347632081147E+01  1.356497068679E+01  1.367785862253E+01  1.380699382595E+01
  1.396717743206E+01  1.414011581000E+01  1.433473614417E+01  1.454590007696E+01
  1.480058014760E+01  1.506595245332E+01  1.533042219123E+01  1.563426899285E+01
  1.598311515302E+01  1.631274790318E+01  1.668210549672E+01  1.709567417208E+01
  1.755836242196E+01  1.796745637467E+01  1.841434073863E+01  1.890213755736E+01
  1.943414436807E+01  2.001382378537E+01  2.064478650328E+01  2.115390546345E+01
  2.169557891258E+01  2.227143314509E+01  2.288309782576E+01  2.353218940169E+01
  2.422029104445E+01  2.494892862099E+01  2.571954214480E+01  2.653345211375E+01
  2.739182010179E+01  2.829560293981E+01  2.892371295550E+01  2.957245592735E+01
  3.024189153073E+01  3.093199813596E+01  3.164266232434E+01  3.237366757017E+01
  3.312468206923E+01  3.389524570278E+01  3.468475613752E+01  3.549245407566E+01
  3.631740768612E+01  3.715849626805E+01  3.801439322205E+01  3.888354843252E+01
  3.976417019752E+01  4.065420688030E+01  4.155132849965E+01  4.245290852466E+01
  4.335600619382E+01  4.425734973754E+01  4.515332094857E+01  4.603994161381E+01
  4.691286239492E+01  4.776735482064E+01  4.859830713086E+01  4.940022478758E+01
  5.016723653854E+01  5.089310698183E+01  5.157125662971E+01  5.189029282424E+01
  5.219479050102E+01  5.248384474895E+01  5.275653627930E+01  5.301193321198E+01
  5.324909304920E+01  5.346706484272E+01  5.366489156063E+01  5.384161265847E+01
  5.399626685873E+01  5.412789514181E+01  5.423554395028E+01  5.431826860677E+01
  5.437513694457E+01  5.440523314831E+01  5.440766179996E+01  5.438155212379E+01
  5.432606242142E+01  5.424038468596E+01  5.412374938149E+01  5.397543037167E+01
  5.379474997827E+01  5.358108414754E+01  5.333386769924E+01  5.305259962987E+01
  5.273684843857E+01  5.238625744081E+01  5.200055003153E+01  5.157953485656E+01
  5.112311084746E+01  5.063127207257E+01  5.010411235356E+01  4.954182959490E+01
  4.894472977089E+01  4.831323051361E+01  4.764786424351E+01  4.694928078370E+01
  4.621824939903E+01  4.545566020143E+01  4.466252486475E+01  4.383997659433E+01
  4.298926929993E+01  4.211177592495E+01  4.120898589019E+01  4.028250161671E+01
  3.933403410007E+01  3.836539751676E+01  3.737850285358E+01  3.637535056126E+01
  3.535802224589E+01  3.432867142385E+01  3.328951337994E+01  3.224281418200E+01
  3.119087891998E+01  3.013603925172E+01  2.908064035242E+01  2.802702737840E+01
  2.697753156928E+01  2.593445612482E+01  2.490006200322E+01  2.387655379700E+01
  2.286606584902E+01  2.187064877597E+01  2.089225656792E+01  1.993273443156E+01
  1.899380753984E+01  1.807707084297E+01  1.718398008453E+01  1.631584415151E+01
  1.547381886945E+01  1.465890233285E+01  1.387193183740E+01  1.311358245490E+01
  1.238436726416E+01  1.168463922246E+01  1.101459463345E+01  1.037427813833E+01
  9.763589129937E+00  9.182289463244E+00  8.630012313291E+00  8.106272011334E+00
  7.610474674694E+00  7.141929434527E+00  6.699860059673E+00  6.283416773936E+00
  5.891688068792E+00  5.523712323544E+00  5.178489060164E+00  4.854989962850E+00
  4.552170300667E+00  4.268980005800E+00  4.004371351883E+00  3.757305565540E+00
  3.526757440380E+00  3.311719147373E+00  3.111206092046E+00  2.924262071141E+00
  2.749963896197E+00  2.587425434821E+00  2.435801089537E+00  2.294288733784E+00
  2.162132121716E+00  2.038622783558E+00  1.923101411960E+00  1.814958738103E+00
  1.713635889998E+00  1.618624220569E+00  1.529464590581E+00  1.445746091959E+00
  1.367104201273E+00  1.293216586573E+00  1.223791503313E+00  1.158552409056E+00
  1.097237591576E+00  1.039599581715E+00  9.854046741505E-01  9.344324351742E-01
  8.864752010325E-01  8.413375701269E-01  7.988358920932E-01  7.587977565250E-01
  7.210614838481E-01  6.854756206094E-01  6.518984412030E-01  6.201974578309E-01
  5.902489402770E-01  5.619374468650E-01  5.351553677778E-01  5.098024817298E-01
  4.857855268115E-01  4.630177861672E-01  4.414186890152E-01  4.209134273860E-01
  4.014325888251E-01  3.829118051966E-01  3.652914176177E-01  3.485161574622E-01
  3.325348432895E-01  3.173000934808E-01  3.027680543021E-01  2.888981430567E-01
  2.756528059442E-01  2.629972902022E-01  2.508994300749E-01  2.393294461267E-01
  2.282597573977E-01  2.176648058860E-01  2.075208928265E-01  1.978060262371E-01
  1.884997791961E-01  1.795831583194E-01  1.710384819107E-01  1.628492672652E-01
  1.550001266171E-01  1.474766712351E-01  1.402654231804E-01  1.333537342601E-01
  1.267297117228E-01  1.203821502608E-01  1.143004699009E-01  1.084746593833E-01
  1.028952246469E-01  9.755314205625E-02  9.243981602584E-02  8.754704071210E-02
  8.286696546436E-02  7.839206374129E-02  7.411510521696E-02  7.002913081687E-02
  6.612743044007E-02  6.240352313886E-02  5.885113954195E-02  5.546420632104E-02
  5.223683251434E-02  4.916329753278E-02  4.623804068726E-02  4.345565208637E-02
  4.081086476463E-02  3.829854791394E-02  3.591370109405E-02  3.365144931620E-02
  3.150703889535E-02  2.947583397739E-02  2.755331365500E-02  2.573506959266E-02
  2.401680408805E-02  2.239432850340E-02  2.086356200601E-02  1.942053056278E-02
  1.806136613857E-02  1.678230605319E-02  1.557969245602E-02  1.444997188179E-02
  1.338969485475E-02  1.239551551217E-02  1.146419122158E-02  1.059258216948E-02
  9.777650901996E-03  9.016461800971E-03  8.306180481599E-03  7.644073099972E-03
  7.027505561369E-03  6.453942622097E-03  5.920946879699E-03  5.426177648126E-03
  4.967389716129E-03  4.542431988632E-03  4.149246012264E-03  3.785864387439E-03
  3.450409070548E-03  3.141089570793E-03  2.856201047130E-03  2.594122311521E-03
  2.353313745405E-03  2.132315136832E-03  1.929743446183E-03  1.744290508746E-03
  1.574720682714E-03  1.419868451316E-03  1.278635987924E-03  1.149990692968E-03
  1.032962711446E-03  9.266424396827E-04  8.301780298038E-04  7.427729001291E-04
  6.636832593961E-04  5.922156523663E-04  5.277245339734E-04  4.696098787438E-04
  4.173148317603E-04  3.703234069540E-04  3.281582380079E-04  2.903783866385E-04
  2.565772124970E-04  2.263803084049E-04  1.994435041125E-04  1.754509412484E-04
  1.541132216210E-04  1.351656305340E-04  1.183664363051E-04  1.034952667153E-04
  9.035156268613E-05  7.875310907066E-05  6.853464206661E-05  5.954653240443E-05
  5.165354314294E-05  4.473366061285E-05  3.867699678729E-05  3.338476112902E-05
  2.876829976417E-05  2.474819966312E-05  2.125345536877E-05  1.822069570005E-05
  1.559346777296E-05  1.332157562111E-05  1.136047066098E-05  9.670691232471E-06
  8.217348450545E-06  6.969655627895E-06  5.900498568355E-06  4.986044085911E-06
  4.205384171599E-06  3.540213309135E-06  2.974536527878E-06  2.494405876980E-06
  2.087683105843E-06  1.743826443103E-06  1.453699456351E-06  1.209400227432E-06
  1.004108535030E-06  8.319508220015E-07  6.878791457427E-07  5.675642004795E-07
  4.673012116518E-07  3.839268120017E-07  3.147458558573E-07  2.574672040447E-07
  2.101475158739E-07  1.711421691277E-07  1.390625085999E-07  1.127386984334E-07
  9.118752326792E-08  7.358454809479E-08  5.924010680366E-08  4.757864483331E-08
  3.812099226227E-08  3.046919028001E-08  2.429353647145E-08  1.932155294579E-08
  1.532861627219E-08  1.213001968632E-08  9.574266336068E-09  7.537417679473E-09
  5.918343761387E-09  4.634742203264E-09  3.619810558771E-09  2.819472423377E-09
  2.190071535237E-09  1.696460252363E-09  1.310419410549E-09  1.009355818834E-09
  7.752316837610E-10  5.936872042580E-10  4.530491035694E-10  3.449235489037E-10
  2.618148798848E-10  1.981274463808E-10  1.494715412801E-10  1.124140105151E-10
  8.427809691156E-11  6.298330140375E-11  4.691766631314E-11  3.483624207964E-11
  2.578063027401E-11  1.901543600570E-11  1.397824152791E-11  1.024035542558E-11
  7.476120156902E-12  5.438993644566E-12  3.942974047913E-12  2.848224338412E-12
  2.049986296751E-12  1.470061683716E-12  1.050289681732E-12  7.475709968681E-13
  5.300858516418E-13  3.744301215052E-13  2.634548920181E-13  1.846428744853E-13
  1.288929774839E-13  8.961397556806E-14  6.205133447294E-14  4.278920805355E-14
  2.938351169821E-14  2.009267662773E-14  1.368089753924E-14  9.274956176267E-15
  6.260472761784E-15  4.207049422928E-15  2.814493625256E-15  1.874354642898E-15
  1.242534595838E-15  8.198729076576E-16  5.384454471034E-16  3.519407217336E-16
  2.289313037472E-16  1.481916057028E-16  9.545515634496E-17  6.117963030920E-17
  3.901395291242E-17  2.475211909904E-17  1.562275034053E-17  9.809080643052E-18
  6.126289658106E-18  3.805726126192E-18  2.351366673537E-18  1.444833187030E-18
  8.828784991718E-19  5.364645966016E-19  3.241221770252E-19  1.947037372930E-19
  1.162806983440E-19  6.903643449727E-20  4.074324859590E-20  2.390057483058E-20
  1.393493164885E-20  8.074453344642E-21  4.649440360701E-21  2.660326466401E-21
  0.000000000000E+00  0.000000000000E+00  0.000000000000E+00  0.000000000000E+00
  0.000000000000E+00  0.000000000000E+00  0.000000000000E+00  0.000000000000E+00
  0.000000000000E+00  0.000000000000E+00  0.000000000000E+00  0.000000000000E+00
  0.000000000000E+00  0.000000000000E+00  0.000000000000E+00  0.000000000000E+00
  0.000000000000E+00  0.000000000000E+00  0.000000000000E+00  0.000000000000E+00
  0.000000000000E+00
</data>
</radfunc>
</valence-charge>
<pseudocore-charge matching-radius="0.382578382038"
 number-of-continuous-derivatives="4">
<annotation model-charge-form="Teter function with specified parameters" />
<radfunc>
<data npts="290">
  1.574014078203E+02  1.573715790923E+02  1.572824319275E+02  1.571337736404E+02
  1.569272326275E+02  1.566559095081E+02  1.563105334739E+02  1.559156280910E+02
  1.554260377278E+02  1.548977889009E+02  1.543037132124E+02  1.536596162305E+02
  1.528834414360E+02  1.520754365905E+02  1.512709398092E+02  1.503475871820E+02
  1.492886932328E+02  1.482892886866E+02  1.471707725462E+02  1.459200129392E+02
  1.445227153099E+02  1.432890067740E+02  1.419431562541E+02  1.404762159232E+02
  1.388787850912E+02  1.371410464747E+02  1.352528196823E+02  1.337316020253E+02
  1.321153573454E+02  1.303995617455E+02  1.285796949257E+02  1.266512816768E+02
  1.246099404484E+02  1.224514396538E+02  1.201717623587E+02  1.177671799572E+02
  1.152343353639E+02  1.125703361383E+02  1.107202983449E+02  1.088103970607E+02
  1.068402573332E+02  1.048096716024E+02  1.027186174061E+02  1.005672758186E+02
  9.835605053409E+01  9.608558748386E+01  9.375679484661E+01  9.137086328334E+01
  8.892928619477E+01  8.643387976410E+01  8.388680250961E+01  8.129057403167E+01
  7.864809259648E+01  7.596265115563E+01  7.323795135723E+01  7.047811506098E+01
  6.768769282905E+01  6.487166882694E+01  6.203546153615E+01  5.918491965612E+01
  5.632631255770E+01  5.346631464837E+01  5.061198302255E+01  4.777072780240E+01
  4.495027462888E+01  4.215861884198E+01  3.940397099801E+01  3.804313429284E+01
  3.669469351136E+01  3.535970582538E+01  3.403922838295E+01  3.273431557692E+01
  3.144601618752E+01  3.017537040492E+01  2.892340673909E+01  2.769113882543E+01
  2.647956213623E+01  2.528965060905E+01  2.412235320499E+01  2.297859041087E+01
  2.185925070116E+01  2.076518697672E+01  1.969721299904E+01  1.865609984011E+01
  1.764257236934E+01  1.665730580038E+01  1.570092232198E+01  1.477398783791E+01
  1.387700884238E+01  1.301042945781E+01  1.217462866272E+01  1.136991773793E+01
  1.059653795925E+01  9.854658565149E+00  9.144375027024E+00  8.465707649568E+00
  7.818600527205E+00  7.202920881479E+00  6.618458802371E+00  6.064927414357E+00
  5.541963485418E+00  5.049128494208E+00  4.585910167114E+00  4.151724493141E+00
  3.745918220256E+00  3.367771832232E+00  3.016503000050E+00  2.691270496641E+00
  2.391178558224E+00  2.115281669768E+00  1.862589746265E+00  1.632073675604E+00
  1.422671183003E+00  1.233292971254E+00  1.062829085612E+00  9.101554470637E-01
  7.741404931593E-01  6.536518615842E-01  5.475630484324E-01  4.547599707272E-01
  3.741473613126E-01  3.046549238731E-01  2.452431766311E-01  1.949089153022E-01
  1.526902292006E-01  1.176710090230E-01  8.898489079071E-02  6.581858767263E-02
  4.741456988322E-02  3.307306244321E-02  2.215334117940E-02  1.407431873937E-02
  8.314424401646E-03  4.410793823498E-03  1.957797311972E-03  6.049474275812E-04
  5.423841514647E-05  5.698077399922E-05  4.102039016527E-04  9.527078541920E-04
  1.560851569515E-03  2.144169138704E-03  2.640907677417E-03  3.013579895322E-03
  3.244621511252E-03  3.332238220339E-03  3.286519080381E-03  3.125883134018E-03
  2.873914098780E-03  2.556624405238E-03  2.200175190371E-03  1.829063571386E-03
  1.464773196042E-03  1.124869276685E-03  8.225056556817E-04  5.662994812025E-04
  3.605192992608E-04  2.055252095752E-04  9.839549535325E-05  3.367299068039E-05
  4.166411037210E-06  1.746797228048E-06  1.808680263502E-05  4.530032738393E-05
  7.645137774634E-05  1.059133107566E-04  1.295720574705E-04  1.448787348448E-04
  1.507675253908E-04  1.474631858412E-04  1.362085413694E-04  1.189455123531E-04
  9.798349959213E-05  7.568644020710E-05  5.420488081281E-05  3.527253591739E-05
  2.007870273498E-05  9.219380544033E-06  2.721810929424E-06  1.301806608410E-07
  6.350499596942E-07  3.226129862405E-06  6.847534730319E-06  1.053651355779E-05
  1.353058727377E-05  1.533343119837E-05  1.573602007298E-05  1.479569720245E-05
  1.278116008846E-05  1.009521528267E-05  7.189097929026E-06  4.482002138521E-06
  2.297351474050E-06  8.236617666247E-07  1.032424406436E-07  0.000000000000E+00
  0.000000000000E+00  0.000000000000E+00  0.000000000000E+00  0.000000000000E+00
  0.000000000000E+00  0.000000000000E+00  0.000000000000E+00  0.000000000000E+00
  0.000000000000E+00  0.000000000000E+00  0.000000000000E+00  0.000000000000E+00
  0.000000000000E+00  0.000000000000E+00  0.000000000000E+00  0.000000000000E+00
  0.000000000000E+00  0.000000000000E+00  0.000000000000E+00  0.000000000000E+00
  0.000000000000E+00  0.000000000000E+00  0.000000000000E+00  0.000000000000E+00
  0.000000000000E+00  0.000000000000E+00  0.000000000000E+00  0.000000000000E+00
  0.000000000000E+00  0.000000000000E+00  0.000000000000E+00  0.000000000000E+00
  0.000000000000E+00  0.000000000000E+00  0.000000000000E+00  0.000000000000E+00
  0.000000000000E+00  0.000000000000E+00  0.000000000000E+00  0.000000000000E+00
  0.000000000000E+00  0.000000000000E+00  0.000000000000E+00  0.000000000000E+00
  0.000000000000E+00  0.000000000000E+00  0.000000000000E+00  0.000000000000E+00
  0.000000000000E+00  0.000000000000E+00  0.000000000000E+00  0.000000000000E+00
  0.000000000000E+00  0.000000000000E+00  0.000000000000E+00  0.000000000000E+00
  0.000000000000E+00  0.000000000000E+00  0.000000000000E+00  0.000000000000E+00
  0.000000000000E+00  0.000000000000E+00  0.000000000000E+00  0.000000000000E+00
  0.000000000000E+00  0.000000000000E+00  0.000000000000E+00  0.000000000000E+00
  0.000000000000E+00  0.000000000000E+00  0.000000000000E+00  0.000000000000E+00
  0.000000000000E+00  0.000000000000E+00  0.000000000000E+00  0.000000000000E+00
  0.000000000000E+00  0.000000000000E+00  0.000000000000E+00  0.000000000000E+00
  0.000000000000E+00  0.000000000000E+00  0.000000000000E+00  0.000000000000E+00
  0.000000000000E+00  0.000000000000E+00  0.000000000000E+00  0.000000000000E+00
  0.000000000000E+00  0.000000000000E+00  0.000000000000E+00  0.000000000000E+00
  0.000000000000E+00  0.000000000000E+00
</data>
</radfunc>
</pseudocore-charge>
<semilocal-potentials set="scalar_relativistic">
<slps n="3" l="s" rc="1.20240182436" eref="-4.06083477971">
<radfunc>
<data npts="290">
 -2.387321283265E+01 -2.387402853116E+01 -2.387646619669E+01 -2.388053068606E+01
 -2.388617679364E+01 -2.389359211130E+01 -2.390302849635E+01 -2.391381424151E+01
 -2.392718025283E+01 -2.394159440928E+01 -2.395779569691E+01 -2.397535018750E+01
 -2.399648907904E+01 -2.401847686219E+01 -2.404035070532E+01 -2.406543312672E+01
 -2.409416665554E+01 -2.412125520713E+01 -2.415153622891E+01 -2.418535147515E+01
 -2.422306985880E+01 -2.425631972829E+01 -2.429253432549E+01 -2.433193707080E+01
 -2.437475934303E+01 -2.442123856915E+01 -2.447161565298E+01 -2.451210153076E+01
 -2.455501596699E+01 -2.460045676312E+01 -2.464851768353E+01 -2.469928672273E+01
 -2.475284408837E+01 -2.480925986786E+01 -2.486859134539E+01 -2.493087993435E+01
 -2.499614769019E+01 -2.506439336825E+01 -2.511153186621E+01 -2.515996524299E+01
 -2.520966990604E+01 -2.526061434440E+01 -2.531275831700E+01 -2.536605198960E+01
 -2.542043502027E+01 -2.547583559335E+01 -2.553216940297E+01 -2.558933858752E+01
 -2.564723061745E+01 -2.570571713965E+01 -2.576465278273E+01 -2.582387392864E+01
 -2.588319745754E+01 -2.594241947411E+01 -2.600131402520E+01 -2.605963182040E+01
 -2.611709896913E+01 -2.617341574963E+01 -2.622825542761E+01 -2.628126314431E+01
 -2.633205489613E+01 -2.638021663027E+01 -2.642530348318E+01 -2.646683919061E+01
 -2.650431570048E+01 -2.653719302143E+01 -2.656489934172E+01 -2.657662608227E+01
 -2.658683145419E+01 -2.659543527692E+01 -2.660235552412E+01 -2.660750836908E+01
 -2.661080823677E+01 -2.661216786307E+01 -2.661149836129E+01 -2.660870929628E+01
 -2.660370876642E+01 -2.659640349363E+01 -2.658669892169E+01 -2.657449932312E+01
 -2.655970791467E+01 -2.654222698172E+01 -2.652195801164E+01 -2.649880183629E+01
 -2.647265878368E+01 -2.644342883896E+01 -2.641101181463E+01 -2.637530753010E+01
 -2.633621600049E+01 -2.629363763453E+01 -2.624747344163E+01 -2.619762524778E+01
 -2.614399592017E+01 -2.608648960027E+01 -2.602501194510E+01 -2.595947037632E+01
 -2.588977433686E+01 -2.581583555450E+01 -2.573756831220E+01 -2.565488972446E+01
 -2.556772001931E+01 -2.547598282536E+01 -2.537960546336E+01 -2.527851924170E+01
 -2.517265975520E+01 -2.506196718684E+01 -2.494638661175E+01 -2.482586830312E+01
 -2.470036803965E+01 -2.456984741431E+01 -2.443427414445E+01 -2.429362238317E+01
 -2.414787303266E+01 -2.399701405987E+01 -2.384104081582E+01 -2.367995635998E+01
 -2.351377179164E+01 -2.334250659107E+01 -2.316618897369E+01 -2.298485626133E+01
 -2.279855527573E+01 -2.260734276028E+01 -2.241128583716E+01 -2.221046250845E+01
 -2.200496221101E+01 -2.179488643649E+01 -2.158034942946E+01 -2.136147897844E+01
 -2.113841731607E+01 -2.091132214690E+01 -2.068036782263E+01 -2.044574668659E+01
 -2.020767061065E+01 -1.996637274908E+01 -1.972210953452E+01 -1.947516294182E+01
 -1.922584304471E+01 -1.897449088912E+01 -1.872148170412E+01 -1.846722846731E+01
 -1.821218583567E+01 -1.795685444460E+01 -1.770178556717E+01 -1.744758611259E+01
 -1.719492392575E+01 -1.694453333062E+01 -1.669722083662E+01 -1.645387090139E+01
 -1.621545161446E+01 -1.598302013610E+01 -1.575772769504E+01 -1.554082392084E+01