Xe    ONCVPSP  r_core=  2.01  1.80  1.72
54.0000     18.0000      140826    zatom,zion,pspd
8    11     2     4   601     0    pspcod,pspxc,lmax,lloc,mmax,r2well
6.00000000  0.40000000  0.00000000    rchrg fchrg qchrg
2     2     2     0     0    nproj
0                 extension_switch
0                         7.9304703828086D+00  1.1679969793633D+00
1  0.0000000000000D+00 -0.0000000000000D+00  0.0000000000000D+00
2  1.0000000000000D-02 -1.6998179305140D-02  8.3906663430094D-03
3  2.0000000000000D-02 -3.4021524982675D-02  1.6698928733302D-02
4  3.0000000000000D-02 -5.1095063070930D-02  2.4842813948723D-02
5  4.0000000000000D-02 -6.8243539457750D-02  3.2741208431793D-02
6  5.0000000000000D-02 -8.5491281097795D-02  4.0314283636969D-02
7  6.0000000000000D-02 -1.0286205877611D-01  4.7483916013275D-02
8  7.0000000000000D-02 -1.2037895192605D-01  5.4174099861602D-02
9  8.0000000000000D-02 -1.3806421600194D-01  6.0311351333543D-02
10  9.0000000000000D-02 -1.5593915290130D-01  6.5825101861049D-02
11  1.0000000000000D-01 -1.7402398491629D-01  7.0648079359090D-02
12  1.1000000000000D-01 -1.9233773268997D-01  7.4716675562783D-02
13  1.2000000000000D-01 -2.1089809763334D-01  7.7971297930041D-02
14  1.3000000000000D-01 -2.2972134925628D-01  8.0356704558560D-02
15  1.4000000000000D-01 -2.4882221781098D-01  8.1822320741396D-02
16  1.5000000000000D-01 -2.6821379272058D-01  8.2322535577595D-02
17  1.6000000000000D-01 -2.8790742709001D-01  8.1816977589980D-02
18  1.7000000000000D-01 -3.0791264881374D-01  8.0270767677898D-02
19  1.8000000000000D-01 -3.2823707843756D-01  7.7654748795819D-02
20  1.9000000000000D-01 -3.4888635429738D-01  7.3945690702661D-02
21  2.0000000000000D-01 -3.6986406509684D-01  6.9126469193841D-02
22  2.1000000000000D-01 -3.9117169032208D-01  6.3186218578600D-02
23  2.2000000000000D-01 -4.1280854863264D-01  5.6120456917193D-02
24  2.3000000000000D-01 -4.3477175449263D-01  4.7931183200471D-02
25  2.4000000000000D-01 -4.5705618329092D-01  3.8626945737040D-02
26  2.5000000000000D-01 -4.7965444522055D-01  2.8222881071344D-02
27  2.6000000000000D-01 -5.0255686748199D-01  1.6740724362553D-02
28  2.7000000000000D-01 -5.2575148596079D-01  4.2087885659496D-03
29  2.8000000000000D-01 -5.4922404544895D-01 -9.3380853606349D-03
30  2.9000000000000D-01 -5.7295800897700D-01 -2.3858608498906D-02
31  3.0000000000000D-01 -5.9693457619128D-01 -3.9305153947645D-02
32  3.1000000000000D-01 -6.2113271075039D-01 -5.5623896506131D-02
33  3.2000000000000D-01 -6.4552917671104D-01 -7.2754981751881D-02
34  3.3000000000000D-01 -6.7009858362146D-01 -9.0632722884843D-02
35  3.4000000000000D-01 -6.9481344079572D-01 -1.0918582869708D-01
36  3.5000000000000D-01 -7.1964421956833D-01 -1.2833765453103D-01
37  3.6000000000000D-01 -7.4455942509759D-01 -1.4800648630051D-01
38  3.7000000000000D-01 -7.6952567441912D-01 -1.6810584027599D-01
39  3.8000000000000D-01 -7.9450778563351D-01 -1.8854480199461D-01
40  3.9000000000000D-01 -8.1946887188396D-01 -2.0922837507293D-01
41  4.0000000000000D-01 -8.4437044411497D-01 -2.3005785837439D-01
42  4.1000000000000D-01 -8.6917252095598D-01 -2.5093124374259D-01
43  4.2000000000000D-01 -8.9383374531573D-01 -2.7174363263531D-01
44  4.3000000000000D-01 -9.1831150738203D-01 -2.9238767038121D-01
45  4.4000000000000D-01 -9.4256207364530D-01 -3.1275399644060D-01
46  4.5000000000000D-01 -9.6654072154442D-01 -3.3273170896683D-01
47  4.6000000000000D-01 -9.9020187929212D-01 -3.5220884181005D-01
48  4.7000000000000D-01 -1.0134992703664D+00 -3.7107285185305D-01
49  4.8000000000000D-01 -1.0363860620410D+00 -3.8921111419130D-01
50  4.9000000000000D-01 -1.0588150129393D+00 -4.0651140753408D-01
51  5.0000000000000D-01 -1.0807386383352D+00 -4.2286245485830D-01
52  5.1000000000000D-01 -1.1021093646071D+00 -4.3815441809132D-01
53  5.2000000000000D-01 -1.1228796778335D+00 -4.5227936701033D-01
54  5.3000000000000D-01 -1.1430023014682D+00 -4.6513183982210D-01
55  5.4000000000000D-01 -1.1624303577086D+00 -4.7660933854279D-01
56  5.5000000000000D-01 -1.1811175018743D+00 -4.8661272969509D-01
57  5.6000000000000D-01 -1.1990181443416D+00 -4.9504692307427D-01
58  5.7000000000000D-01 -1.2160875268102D+00 -5.0182106723220D-01
59  5.8000000000000D-01 -1.2322819860438D+00 -5.0684934180025D-01
60  5.9000000000000D-01 -1.2475589998304D+00 -5.1005104347865D-01
61  6.0000000000000D-01 -1.2618774498178D+00 -5.1135134929785D-01
62  6.1000000000000D-01 -1.2751976889097D+00 -5.1068145692592D-01
63  6.2000000000000D-01 -1.2874817292487D+00 -5.0797909059807D-01
64  6.3000000000000D-01 -1.2986934057837D+00 -5.0318891646323D-01
65  6.4000000000000D-01 -1.3087984473259D+00 -4.9626267410421D-01
66  6.5000000000000D-01 -1.3177646826470D+00 -4.8715969471133D-01
67  6.6000000000000D-01 -1.3255621467681D+00 -4.7584711138339D-01
68  6.7000000000000D-01 -1.3321631731507D+00 -4.6230002274135D-01
69  6.8000000000000D-01 -1.3375425095847D+00 -4.4650171504046D-01
70  6.9000000000000D-01 -1.3416774989830D+00 -4.2844403689773D-01
71  7.0000000000000D-01 -1.3445480958704D+00 -4.0812732050668D-01
72  7.1000000000000D-01 -1.3461369834766D+00 -3.8556056224984D-01
73  7.2000000000000D-01 -1.3464296464376D+00 -3.6076147328085D-01
74  7.3000000000000D-01 -1.3454144632578D+00 -3.3375656158536D-01
75  7.4000000000000D-01 -1.3430827844721D+00 -3.0458115652214D-01
76  7.5000000000000D-01 -1.3394289489611D+00 -2.7327927980571D-01
77  7.6000000000000D-01 -1.3344503445687D+00 -2.3990360413588D-01
78  7.7000000000000D-01 -1.3281474431172D+00 -2.0451533629597D-01
79  7.8000000000000D-01 -1.3205238251301D+00 -1.6718406179388D-01
80  7.9000000000000D-01 -1.3115861941446D+00 -1.2798755147907D-01
81  8.0000000000000D-01 -1.3013443805353D+00 -8.7011530749366D-02
82  8.1000000000000D-01 -1.2898113348089D+00 -4.4349412134388D-02
83  8.2000000000000D-01 -1.2770031103689D+00 -1.0199220966079D-04
84  8.3000000000000D-01 -1.2629388357844D+00  4.5622886046573D-02
85  8.4000000000000D-01 -1.2476406766320D+00  9.2710704187803D-02
86  8.5000000000000D-01 -1.2311337870149D+00  1.4104067111284D-01
87  8.6000000000000D-01 -1.2134462508966D+00  1.9048615620202D-01
88  8.7000000000000D-01 -1.1946090134175D+00  2.4091515107865D-01
89  8.8000000000000D-01 -1.1746558024002D+00  2.9219075815595D-01
90  8.9000000000000D-01 -1.1536230402811D+00  3.4417170398579D-01
91  9.0000000000000D-01 -1.1315497467441D+00  3.9671287527625D-01
92  9.1000000000000D-01 -1.1084774323729D+00  4.4966587529053D-01
93  9.2000000000000D-01 -1.0844499836802D+00  5.0287959817708D-01
94  9.3000000000000D-01 -1.0595135399228D+00  5.5620081861291D-01
95  9.4000000000000D-01 -1.0337163621610D+00  6.0947479396863D-01
96  9.5000000000000D-01 -1.0071086950843D+00  6.6254587603064D-01
97  9.6000000000000D-01 -9.7974262218250D-01  7.1525812914900D-01
98  9.7000000000000D-01 -9.5167191491323D-01  7.6745595152809D-01
99  9.8000000000000D-01 -9.2295190091929D-01  8.1898452711289D-01
100  9.9000000000000D-01 -8.9363925882570D-01  8.6969080108178D-01
101  1.0000000000000D+00 -8.6379184960030D-01  9.1942403215367D-01
102  1.0100000000000D+00 -8.3346857574838D-01  9.6803620869651D-01
103  1.0200000000000D+00 -8.0272919605612D-01  1.0153827403342D+00
104  1.0300000000000D+00 -7.7163415091882D-01  1.0613230380948D+00
105  1.0400000000000D+00 -7.4024445566786D-01  1.1057207432272D+00
106  1.0500000000000D+00 -7.0862138935352D-01  1.1484449753916D+00
107  1.0600000000000D+00 -6.7682629468412D-01  1.1893708681750D+00
108  1.0700000000000D+00 -6.4492052140713D-01  1.2283794864961D+00
109  1.0800000000000D+00 -6.1296520337274D-01  1.2653585380443D+00
110  1.0900000000000D+00 -5.8102126149821D-01  1.3002021160106D+00
111  1.1000000000000D+00 -5.4914876728346D-01  1.3328130332188D+00
112  1.1100000000000D+00 -5.1740703358556D-01  1.3631020088014D+00
113  1.1200000000000D+00 -4.8585451555635D-01  1.3909877822323D+00
114  1.1300000000000D+00 -4.5454880355266D-01  1.4163969372153D+00
115  1.1400000000000D+00 -4.2354598895107D-01  1.4392659189773D+00
116  1.1500000000000D+00 -3.9290057306391D-01  1.4595408689983D+00
117  1.1600000000000D+00 -3.6266565536466D-01  1.4771766864900D+00
118  1.1700000000000D+00 -3.3289305559389D-01  1.4921365230039D+00
119  1.1800000000000D+00 -3.0363200196163D-01  1.5043955169027D+00
120  1.1900000000000D+00 -2.7492988839644D-01  1.5139379424594D+00
121  1.2000000000000D+00 -2.4683235486577D-01  1.5207568391781D+00
122  1.2100000000000D+00 -2.1938277591090D-01  1.5248552635795D+00
123  1.2200000000000D+00 -1.9262151875336D-01  1.5262476287182D+00
124  1.2300000000000D+00 -1.6658702688293D-01  1.5249565617669D+00
125  1.2400000000000D+00 -1.4131571058238D-01  1.5210132329468D+00
126  1.2500000000000D+00 -1.1684007618766D-01  1.5144609394107D+00
127  1.2600000000000D+00 -9.3190647092420D-02  1.5053503517451D+00
128  1.2700000000000D+00 -7.0395928123981D-02  1.4937398432974D+00
129  1.2800000000000D+00 -4.8480015540637D-02  1.4796991721958D+00
130  1.2900000000000D+00 -2.7465087704929D-02  1.4633044421230D+00
131  1.3000000000000D+00 -7.3710243279491D-03  1.4446390824026D+00
132  1.3100000000000D+00  1.1786732825399D-02  1.4237958441184D+00
133  1.3200000000000D+00  2.9994485149161D-02  1.4008728269503D+00
134  1.3300000000000D+00  4.7241440497534D-02  1.3759750385751D+00
135  1.3400000000000D+00  6.3520728280179D-02  1.3492138995182D+00
136  1.3500000000000D+00  7.8827019114975D-02  1.3207055501186D+00
137  1.3600000000000D+00  9.3158743952026D-02  1.2905716148592D+00
138  1.3700000000000D+00  1.0651719938645D-01  1.2589373602566D+00
139  1.3800000000000D+00  1.1890516659629D-01  1.2259327460432D+00
140  1.3900000000000D+00  1.3032996227547D-01  1.1916894792600D+00
141  1.4000000000000D+00  1.4080010324082D-01  1.1563425960451D+00
142  1.4100000000000D+00  1.5032708325811D-01  1.1200290968397D+00
143  1.4200000000000D+00  1.5892521449346D-01  1.0828852920078D+00
144  1.4300000000000D+00  1.6661003915700D-01  1.0450518895102D+00
145  1.4400000000000D+00  1.7340071709638D-01  1.0066642393897D+00
146  1.4500000000000D+00  1.7931738535488D-01  9.6786107574137D-01
147  1.4600000000000D+00  1.8438272988474D-01  9.2877770384698D-01
148  1.4700000000000D+00  1.8862109938013D-01  8.8954632290288D-01
149  1.4800000000000D+00  1.9205842627186D-01  8.5030058530294D-01
150  1.4900000000000D+00  1.9472241533789D-01  8.1116327958563D-01
151  1.5000000000000D+00  1.9664196507529D-01  7.7226299460919D-01
152  1.5100000000000D+00  1.9784729438301D-01  7.3371298947800D-01
153  1.5200000000000D+00  1.9836969233831D-01  6.9563025797788D-01
154  1.5300000000000D+00  1.9824132049703D-01  6.5812009500986D-01
155  1.5400000000000D+00  1.9749499802704D-01  6.2128393801251D-01
156  1.5500000000000D+00  1.9616438377000D-01  5.8521746292575D-01
157  1.5600000000000D+00  1.9428289869631D-01  5.5000417289450D-01
158  1.5700000000000D+00  1.9188520605183D-01  5.1572829983612D-01
159  1.5800000000000D+00  1.8900441996454D-01  4.8245360147337D-01
160  1.5900000000000D+00  1.8567565534941D-01  4.5025096393609D-01
161  1.6000000000000D+00  1.8193088601273D-01  4.1916329159413D-01
162  1.6100000000000D+00  1.7780494268076D-01  3.8924551753774D-01
163  1.6200000000000D+00  1.7332814943405D-01  3.6052045501641D-01
164  1.6300000000000D+00  1.6853375848519D-01  3.3302219284049D-01
165  1.6400000000000D+00  1.6345121825674D-01  3.0676081828836D-01
166  1.6500000000000D+00  1.5811229674530D-01  2.8175324836029D-01
167  1.6600000000000D+00  1.5254602547172D-01  2.5800093562276D-01
168  1.6700000000000D+00  1.4678329795468D-01  2.3550915952359D-01
169  1.6800000000000D+00  1.4085230461829D-01  2.1426973435758D-01
170  1.6900000000000D+00  1.3478301622459D-01  1.9427746146017D-01
171  1.7000000000000D+00  1.2860248574617D-01  1.7551475054057D-01
172  1.7100000000000D+00  1.2233966456783D-01  1.5796677876673D-01
173  1.7200000000000D+00  1.1602019553511D-01  1.4160725007019D-01
174  1.7300000000000D+00  1.0967193970373D-01  1.2641265292608D-01
175  1.7400000000000D+00  1.0331886408150D-01  1.1234902229766D-01
176  1.7500000000000D+00  9.6987691605649D-02  9.9385107929594D-02
177  1.7600000000000D+00  9.0700469982488D-02  8.7480669596184D-02
178  1.7700000000000D+00  8.4482737572264D-02  7.6597609816227D-02
179  1.7800000000000D+00  7.8354645332645D-02  6.6691214282918D-02
180  1.7900000000000D+00  7.2339832619781D-02  5.7717170613528D-02
181  1.8000000000000D+00  6.6457116627022D-02  4.9628182764977D-02
182  1.8100000000000D+00  6.0727796535302D-02  4.2375302397821D-02
183  1.8200000000000D+00  5.5169456414219D-02  3.5909531909247D-02
184  1.8300000000000D+00  4.9800789478441D-02  3.0179502089940D-02
185  1.8400000000000D+00  4.4638262158902D-02  2.5135049659874D-02
186  1.8500000000000D+00  3.9697722352260D-02  2.0724938283127D-02
187  1.8600000000000D+00  3.4994626287559D-02  1.6898044700985D-02
188  1.8700000000000D+00  3.0541784848215D-02  1.3606014703021D-02
189  1.8800000000000D+00  2.6353714795050D-02  1.0796760085322D-02
190  1.8900000000000D+00  2.2440205756830D-02  8.4271502210992D-03
191  1.9000000000000D+00  1.8814435663107D-02  6.4452042139851D-03
192  1.9100000000000D+00  1.5483999623493D-02  4.8127452408268D-03
193  1.9200000000000D+00  1.2459178816294D-02  3.4831161031552D-03
194  1.9300000000000D+00  9.7468052384447D-03  2.4196266653185D-03
195  1.9400000000000D+00  7.3536107381144D-03  1.5848129565692D-03
196  1.9500000000000D+00  5.2858327452792D-03  9.4245547427419D-04
197  1.9600000000000D+00  3.5465089346932D-03  4.6670625774321D-04
198  1.9700000000000D+00  2.1413175764270D-03  1.2134708097788D-04
199  1.9800000000000D+00  1.0702644812296D-03 -1.0919755175883D-04
200  1.9900000000000D+00  3.7141953065602D-04 -2.6222384024295D-04
201  2.0000000000000D+00 -1.5129561225232D-05 -3.3579364670391D-04
202  2.0100000000000D+00 -1.5919269546039D-04 -3.0296611326490D-04
203  2.0200000000000D+00 -1.2306851568263D-04 -1.6271862584648D-04
204  2.0300000000000D+00 -1.0569096290892D-05 -1.1773302997842D-05
205  2.0400000000000D+00  9.2642162854233D-06  2.2204068478220D-05
206  2.0500000000000D+00  5.0377738158078D-06  1.2074315985043D-05
207  2.0600000000000D+00  0.0000000000000D+00  0.0000000000000D+00
208  2.0700000000000D+00  0.0000000000000D+00  0.0000000000000D+00
209  2.0800000000000D+00  0.0000000000000D+00  0.0000000000000D+00
210  2.0900000000000D+00  0.0000000000000D+00  0.0000000000000D+00
211  2.1000000000000D+00  0.0000000000000D+00  0.0000000000000D+00
212  2.1100000000000D+00  0.0000000000000D+00  0.0000000000000D+00
213  2.1200000000000D+00  0.0000000000000D+00  0.0000000000000D+00
214  2.1300000000000D+00  0.0000000000000D+00  0.0000000000000D+00
215  2.1400000000000D+00  0.0000000000000D+00  0.0000000000000D+00
216  2.1500000000000D+00  0.0000000000000D+00  0.0000000000000D+00
217  2.1600000000000D+00  0.0000000000000D+00  0.0000000000000D+00
218  2.1700000000000D+00  0.0000000000000D+00  0.0000000000000D+00
219  2.1800000000000D+00  0.0000000000000D+00  0.0000000000000D+00
220  2.1900000000000D+00  0.0000000000000D+00  0.0000000000000D+00
221  2.2000000000000D+00  0.0000000000000D+00  0.0000000000000D+00
222  2.2100000000000D+00  0.0000000000000D+00  0.0000000000000D+00
223  2.2200000000000D+00  0.0000000000000D+00  0.0000000000000D+00
224  2.2300000000000D+00  0.0000000000000D+00  0.0000000000000D+00
225  2.2400000000000D+00  0.0000000000000D+00  0.0000000000000D+00
226  2.2500000000000D+00  0.0000000000000D+00  0.0000000000000D+00
227  2.2600000000000D+00  0.0000000000000D+00  0.0000000000000D+00
228  2.2700000000000D+00  0.0000000000000D+00  0.0000000000000D+00
229  2.2800000000000D+00  0.0000000000000D+00  0.0000000000000D+00
230  2.2900000000000D+00  0.0000000000000D+00  0.0000000000000D+00
231  2.3000000000000D+00  0.0000000000000D+00  0.0000000000000D+00
232  2.3100000000000D+00  0.0000000000000D+00  0.0000000000000D+00
233  2.3200000000000D+00  0.0000000000000D+00  0.0000000000000D+00
234  2.3300000000000D+00  0.0000000000000D+00  0.0000000000000D+00
235  2.3400000000000D+00  0.0000000000000D+00  0.0000000000000D+00
236  2.3500000000000D+00  0.0000000000000D+00  0.0000000000000D+00
237  2.3600000000000D+00  0.0000000000000D+00  0.0000000000000D+00
238  2.3700000000000D+00  0.0000000000000D+00  0.0000000000000D+00
239  2.3800000000000D+00  0.0000000000000D+00  0.0000000000000D+00
240  2.3900000000000D+00  0.0000000000000D+00  0.0000000000000D+00
241  2.4000000000000D+00  0.0000000000000D+00  0.0000000000000D+00
242  2.4100000000000D+00  0.0000000000000D+00  0.0000000000000D+00
243  2.4200000000000D+00  0.0000000000000D+00  0.0000000000000D+00
244  2.4300000000000D+00  0.0000000000000D+00  0.0000000000000D+00
245  2.4400000000000D+00  0.0000000000000D+00  0.0000000000000D+00
246  2.4500000000000D+00  0.0000000000000D+00  0.0000000000000D+00
247  2.4600000000000D+00  0.0000000000000D+00  0.0000000000000D+00
248  2.4700000000000D+00  0.0000000000000D+00  0.0000000000000D+00
249  2.4800000000000D+00  0.0000000000000D+00  0.0000000000000D+00
250  2.4900000000000D+00  0.0000000000000D+00  0.0000000000000D+00
251  2.5000000000000D+00  0.0000000000000D+00  0.0000000000000D+00
252  2.5100000000000D+00  0.0000000000000D+00  0.0000000000000D+00
253  2.5200000000000D+00  0.0000000000000D+00  0.0000000000000D+00
254  2.5300000000000D+00  0.0000000000000D+00  0.0000000000000D+00
255  2.5400000000000D+00  0.0000000000000D+00  0.0000000000000D+00
256  2.5500000000000D+00  0.0000000000000D+00  0.0000000000000D+00
257  2.5600000000000D+00  0.0000000000000D+00  0.0000000000000D+00
258  2.5700000000000D+00  0.0000000000000D+00  0.0000000000000D+00
259  2.5800000000000D+00  0.0000000000000D+00  0.0000000000000D+00
260  2.5900000000000D+00  0.0000000000000D+00  0.0000000000000D+00
261  2.6000000000000D+00  0.0000000000000D+00  0.0000000000000D+00
262  2.6100000000000D+00  0.0000000000000D+00  0.0000000000000D+00
263  2.6200000000000D+00  0.0000000000000D+00  0.0000000000000D+00
264  2.6300000000000D+00  0.0000000000000D+00  0.0000000000000D+00
265  2.6400000000000D+00  0.0000000000000D+00  0.0000000000000D+00
266  2.6500000000000D+00  0.0000000000000D+00  0.0000000000000D+00
267  2.6600000000000D+00  0.0000000000000D+00  0.0000000000000D+00
268  2.6700000000000D+00  0.0000000000000D+00  0.0000000000000D+00
269  2.6800000000000D+00  0.0000000000000D+00  0.0000000000000D+00
270  2.6900000000000D+00  0.0000000000000D+00  0.0000000000000D+00
271  2.7000000000000D+00  0.0000000000000D+00  0.0000000000000D+00
272  2.7100000000000D+00  0.0000000000000D+00  0.0000000000000D+00
273  2.7200000000000D+00  0.0000000000000D+00  0.0000000000000D+00
274  2.7300000000000D+00  0.0000000000000D+00  0.0000000000000D+00
275  2.7400000000000D+00  0.0000000000000D+00  0.0000000000000D+00
276  2.7500000000000D+00  0.0000000000000D+00  0.0000000000000D+00
277  2.7600000000000D+00  0.0000000000000D+00  0.0000000000000D+00
278  2.7700000000000D+00  0.0000000000000D+00  0.0000000000000D+00
279  2.7800000000000D+00  0.0000000000000D+00  0.0000000000000D+00
280  2.7900000000000D+00  0.0000000000000D+00  0.0000000000000D+00
281  2.8000000000000D+00  0.0000000000000D+00  0.0000000000000D+00
282  2.8100000000000D+00  0.0000000000000D+00  0.0000000000000D+00
283  2.8200000000000D+00  0.0000000000000D+00  0.0000000000000D+00
284  2.8300000000000D+00  0.0000000000000D+00  0.0000000000000D+00
285  2.8400000000000D+00  0.0000000000000D+00  0.0000000000000D+00
286  2.8500000000000D+00  0.0000000000000D+00  0.0000000000000D+00
287  2.8600000000000D+00  0.0000000000000D+00  0.0000000000000D+00
288  2.8700000000000D+00  0.0000000000000D+00  0.0000000000000D+00
289  2.8800000000000D+00  0.0000000000000D+00  0.0000000000000D+00
290  2.8900000000000D+00  0.0000000000000D+00  0.0000000000000D+00
291  2.9000000000000D+00  0.0000000000000D+00  0.0000000000000D+00
292  2.9100000000000D+00  0.0000000000000D+00  0.0000000000000D+00
293  2.9200000000000D+00  0.0000000000000D+00  0.0000000000000D+00
294  2.9300000000000D+00  0.0000000000000D+00  0.0000000000000D+00
295  2.9400000000000D+00  0.0000000000000D+00  0.0000000000000D+00
296  2.9500000000000D+00  0.0000000000000D+00  0.0000000000000D+00
297  2.9600000000000D+00  0.0000000000000D+00  0.0000000000000D+00
298  2.9700000000000D+00  0.0000000000000D+00  0.0000000000000D+00
299  2.9800000000000D+00  0.0000000000000D+00  0.0000000000000D+00
300  2.9900000000000D+00  0.0000000000000D+00  0.0000000000000D+00
301  3.0000000000000D+00  0.0000000000000D+00  0.0000000000000D+00
302  3.0100000000000D+00  0.0000000000000D+00  0.0000000000000D+00
303  3.0200000000000D+00  0.0000000000000D+00  0.0000000000000D+00
304  3.0300000000000D+00  0.0000000000000D+00  0.0000000000000D+00
305  3.0400000000000D+00  0.0000000000000D+00  0.0000000000000D+00
306  3.0500000000000D+00  0.0000000000000D+00  0.0000000000000D+00
307  3.0600000000000D+00  0.0000000000000D+00  0.0000000000000D+00
308  3.0700000000000D+00  0.0000000000000D+00  0.0000000000000D+00
309  3.0800000000000D+00  0.0000000000000D+00  0.0000000000000D+00
310  3.0900000000000D+00  0.0000000000000D+00  0.0000000000000D+00
311  3.1000000000000D+00  0.0000000000000D+00  0.0000000000000D+00
312  3.1100000000000D+00  0.0000000000000D+00  0.0000000000000D+00
313  3.1200000000000D+00  0.0000000000000D+00  0.0000000000000D+00
314  3.1300000000000D+00  0.0000000000000D+00  0.0000000000000D+00
315  3.1400000000000D+00  0.0000000000000D+00  0.0000000000000D+00
316  3.1500000000000D+00  0.0000000000000D+00  0.0000000000000D+00
317  3.1600000000000D+00  0.0000000000000D+00  0.0000000000000D+00
318  3.1700000000000D+00  0.0000000000000D+00  0.0000000000000D+00
319  3.1800000000000D+00  0.0000000000000D+00  0.0000000000000D+00
320  3.1900000000000D+00  0.0000000000000D+00  0.0000000000000D+00
321  3.2000000000000D+00  0.0000000000000D+00  0.0000000000000D+00
322  3.2100000000000D+00  0.0000000000000D+00  0.0000000000000D+00
323  3.2200000000000D+00  0.0000000000000D+00  0.0000000000000D+00
324  3.2300000000000D+00  0.0000000000000D+00  0.0000000000000D+00
325  3.2400000000000D+00  0.0000000000000D+00  0.0000000000000D+00
326  3.2500000000000D+00  0.0000000000000D+00  0.0000000000000D+00
327  3.2600000000000D+00  0.0000000000000D+00  0.0000000000000D+00
328  3.2700000000000D+00  0.0000000000000D+00  0.0000000000000D+00
329  3.2800000000000D+00  0.0000000000000D+00  0.0000000000000D+00
330  3.2900000000000D+00  0.0000000000000D+00  0.0000000000000D+00
331  3.3000000000000D+00  0.0000000000000D+00  0.0000000000000D+00
332  3.3100000000000D+00  0.0000000000000D+00  0.0000000000000D+00
333  3.3200000000000D+00  0.0000000000000D+00  0.0000000000000D+00
334  3.3300000000000D+00  0.0000000000000D+00  0.0000000000000D+00
335  3.3400000000000D+00  0.0000000000000D+00  0.0000000000000D+00
336  3.3500000000000D+00  0.0000000000000D+00  0.0000000000000D+00
337  3.3600000000000D+00  0.0000000000000D+00  0.0000000000000D+00
338  3.3700000000000D+00  0.0000000000000D+00  0.0000000000000D+00
339  3.3800000000000D+00  0.0000000000000D+00  0.0000000000000D+00
340  3.3900000000000D+00  0.0000000000000D+00  0.0000000000000D+00
341  3.4000000000000D+00  0.0000000000000D+00  0.0000000000000D+00
342  3.4100000000000D+00  0.0000000000000D+00  0.0000000000000D+00
343  3.4200000000000D+00  0.0000000000000D+00  0.0000000000000D+00
344  3.4300000000000D+00  0.0000000000000D+00  0.0000000000000D+00
345  3.4400000000000D+00  0.0000000000000D+00  0.0000000000000D+00
346  3.4500000000000D+00  0.0000000000000D+00  0.0000000000000D+00
347  3.4600000000000D+00  0.0000000000000D+00  0.0000000000000D+00
348  3.4700000000000D+00  0.0000000000000D+00  0.0000000000000D+00
349  3.4800000000000D+00  0.0000000000000D+00  0.0000000000000D+00
350  3.4900000000000D+00  0.0000000000000D+00  0.0000000000000D+00
351  3.5000000000000D+00  0.0000000000000D+00  0.0000000000000D+00
352  3.5100000000000D+00  0.0000000000000D+00  0.0000000000000D+00
353  3.5200000000000D+00  0.0000000000000D+00  0.0000000000000D+00
354  3.5300000000000D+00  0.0000000000000D+00  0.0000000000000D+00
355  3.5400000000000D+00  0.0000000000000D+00  0.0000000000000D+00
356  3.5500000000000D+00  0.0000000000000D+00  0.0000000000000D+00
357  3.5600000000000D+00  0.0000000000000D+00  0.0000000000000D+00
358  3.5700000000000D+00  0.0000000000000D+00  0.0000000000000D+00
359  3.5800000000000D+00  0.0000000000000D+00  0.0000000000000D+00
360  3.5900000000000D+00  0.0000000000000D+00  0.0000000000000D+00
361  3.6000000000000D+00  0.0000000000000D+00  0.0000000000000D+00
362  3.6100000000000D+00  0.0000000000000D+00  0.0000000000000D+00
363  3.6200000000000D+00  0.0000000000000D+00  0.0000000000000D+00
364  3.6300000000000D+00  0.0000000000000D+00  0.0000000000000D+00
365  3.6400000000000D+00  0.0000000000000D+00  0.0000000000000D+00
366  3.6500000000000D+00  0.0000000000000D+00  0.0000000000000D+00
367  3.6600000000000D+00  0.0000000000000D+00  0.0000000000000D+00
368  3.6700000000000D+00  0.0000000000000D+00  0.0000000000000D+00
369  3.6800000000000D+00  0.0000000000000D+00  0.0000000000000D+00
370  3.6900000000000D+00  0.0000000000000D+00  0.0000000000000D+00
371  3.7000000000000D+00  0.0000000000000D+00  0.0000000000000D+00
372  3.7100000000000D+00  0.0000000000000D+00  0.0000000000000D+00
373  3.7200000000000D+00  0.0000000000000D+00  0.0000000000000D+00
374  3.7300000000000D+00  0.0000000000000D+00  0.0000000000000D+00
375  3.7400000000000D+00  0.0000000000000D+00  0.0000000000000D+00
376  3.7500000000000D+00  0.0000000000000D+00  0.0000000000000D+00
377  3.7600000000000D+00  0.0000000000000D+00  0.0000000000000D+00
378  3.7700000000000D+00  0.0000000000000D+00  0.0000000000000D+00
379  3.7800000000000D+00  0.0000000000000D+00  0.0000000000000D+00
380  3.7900000000000D+00  0.0000000000000D+00  0.0000000000000D+00
381  3.8000000000000D+00  0.0000000000000D+00  0.0000000000000D+00
382  3.8100000000000D+00  0.0000000000000D+00  0.0000000000000D+00
383  3.8200000000000D+00  0.0000000000000D+00  0.0000000000000D+00
384  3.8300000000000D+00  0.0000000000000D+00  0.0000000000000D+00
385  3.8400000000000D+00  0.0000000000000D+00  0.0000000000000D+00
386  3.8500000000000D+00  0.0000000000000D+00  0.0000000000000D+00
387  3.8600000000000D+00  0.0000000000000D+00  0.0000000000000D+00
388  3.8700000000000D+00  0.0000000000000D+00  0.0000000000000D+00
389  3.8800000000000D+00  0.0000000000000D+00  0.0000000000000D+00
390  3.8900000000000D+00  0.0000000000000D+00  0.0000000000000D+00
391  3.9000000000000D+00  0.0000000000000D+00  0.0000000000000D+00
392  3.9100000000000D+00  0.0000000000000D+00  0.0000000000000D+00
393  3.9200000000000D+00  0.0000000000000D+00  0.0000000000000D+00
394  3.9300000000000D+00  0.0000000000000D+00  0.0000000000000D+00
395  3.9400000000000D+00  0.0000000000000D+00  0.0000000000000D+00
396  3.9500000000000D+00  0.0000000000000D+00  0.0000000000000D+00
397  3.9600000000000D+00  0.0000000000000D+00  0.0000000000000D+00
398  3.9700000000000D+00  0.0000000000000D+00  0.0000000000000D+00
399  3.9800000000000D+00  0.0000000000000D+00  0.0000000000000D+00
400  3.9900000000000D+00  0.0000000000000D+00  0.0000000000000D+00
401  4.0000000000000D+00  0.0000000000000D+00  0.0000000000000D+00
402  4.0100000000000D+00  0.0000000000000D+00  0.0000000000000D+00
403  4.0200000000000D+00  0.0000000000000D+00  0.0000000000000D+00
404  4.0300000000000D+00  0.0000000000000D+00  0.0000000000000D+00
405  4.0400000000000D+00  0.0000000000000D+00  0.0000000000000D+00
406  4.0500000000000D+00  0.0000000000000D+00  0.0000000000000D+00
407  4.0600000000000D+00  0.0000000000000D+00  0.0000000000000D+00
408  4.0700000000000D+00  0.0000000000000D+00  0.0000000000000D+00
409  4.0800000000000D+00  0.0000000000000D+00  0.0000000000000D+00
410  4.0900000000000D+00  0.0000000000000D+00  0.0000000000000D+00
411  4.1000000000000D+00  0.0000000000000D+00  0.0000000000000D+00
412  4.1100000000000D+00  0.0000000000000D+00  0.0000000000000D+00
413  4.1200000000000D+00  0.0000000000000D+00  0.0000000000000D+00
414  4.1300000000000D+00  0.0000000000000D+00  0.0000000000000D+00
415  4.1400000000000D+00  0.0000000000000D+00  0.0000000000000D+00
416  4.1500000000000D+00  0.0000000000000D+00  0.0000000000000D+00
417  4.1600000000000D+00  0.0000000000000D+00  0.0000000000000D+00
418  4.1700000000000D+00  0.0000000000000D+00  0.0000000000000D+00
419  4.1800000000000D+00  0.0000000000000D+00  0.0000000000000D+00
420  4.1900000000000D+00  0.0000000000000D+00  0.0000000000000D+00
421  4.2000000000000D+00  0.0000000000000D+00  0.0000000000000D+00
422  4.2100000000000D+00  0.0000000000000D+00  0.0000000000000D+00
423  4.2200000000000D+00  0.0000000000000D+00  0.0000000000000D+00
424  4.2300000000000D+00  0.0000000000000D+00  0.0000000000000D+00
425  4.2400000000000D+00  0.0000000000000D+00  0.0000000000000D+00
426  4.2500000000000D+00  0.0000000000000D+00  0.0000000000000D+00
427  4.2600000000000D+00  0.0000000000000D+00  0.0000000000000D+00
428  4.2700000000000D+00  0.0000000000000D+00  0.0000000000000D+00
429  4.2800000000000D+00  0.0000000000000D+00  0.0000000000000D+00
430  4.2900000000000D+00  0.0000000000000D+00  0.0000000000000D+00
431  4.3000000000000D+00  0.0000000000000D+00  0.0000000000000D+00
432  4.3100000000000D+00  0.0000000000000D+00  0.0000000000000D+00
433  4.3200000000000D+00  0.0000000000000D+00  0.0000000000000D+00
434  4.3300000000000D+00  0.0000000000000D+00  0.0000000000000D+00
435  4.3400000000000D+00  0.0000000000000D+00  0.0000000000000D+00
436  4.3500000000000D+00  0.0000000000000D+00  0.0000000000000D+00
437  4.3600000000000D+00  0.0000000000000D+00  0.0000000000000D+00
438  4.3700000000000D+00  0.0000000000000D+00  0.0000000000000D+00
439  4.3800000000000D+00  0.0000000000000D+00  0.0000000000000D+00
440  4.3900000000000D+00  0.0000000000000D+00  0.0000000000000D+00
441  4.4000000000000D+00  0.0000000000000D+00  0.0000000000000D+00
442  4.4100000000000D+00  0.0000000000000D+00  0.0000000000000D+00
443  4.4200000000000D+00  0.0000000000000D+00  0.0000000000000D+00
444  4.4300000000000D+00  0.0000000000000D+00  0.0000000000000D+00