Ba    ONCVPSP-3.2.3  r_core=   2.15444   1.91218   2.15444
56.0000     10.0000      161210    zatom,zion,pspd
8   -1012   2     4   600     0    pspcod,pspxc,lmax,lloc,mmax,r2well
5.99000000  5.00000000  0.00000000    rchrg fchrg qchrg
2     2     2     0     0    nproj
1     1           extension_switch
0                         6.7302161041598D+00  6.9015745974661D-01
1  0.0000000000000D+00  5.7008564535721D-12 -1.6156341889340D-11
2  1.0000000000000D-02  2.6642020367623D-02 -9.9002622207061D-04
3  2.0000000000000D-02  5.3286043396809D-02 -2.0168811668150D-03
4  3.0000000000000D-02  7.9933988869081D-02 -3.1171544521649D-03
5  4.0000000000000D-02  1.0658761118612D-01 -4.3269585494985D-03
6  5.0000000000000D-02  1.3324841762907D-01 -5.6816928636309D-03
7  6.0000000000000D-02  1.5991758775282D-01 -7.2158109853593D-03
8  7.0000000000000D-02  1.8659589428704D-01 -8.9625921551950D-03
9  8.0000000000000D-02  2.1328362590991D-01 -1.0953917960757D-02
10  9.0000000000000D-02  2.3998051225347D-01 -1.3220055270309D-02
11  1.0000000000000D-01  2.6668565149103D-01 -1.5789446380928D-02
12  1.1000000000000D-01  2.9339744084751D-01 -1.8688507332140D-02
13  1.2000000000000D-01  3.2011351036214D-01 -2.1941435304435D-02
14  1.3000000000000D-01  3.4683066022096D-01 -2.5570025986981D-02
15  1.4000000000000D-01  3.7354480196286D-01 -2.9593501760555D-02
16  1.5000000000000D-01  4.0025090384800D-01 -3.4028351499600D-02
17  1.6000000000000D-01  4.2694294066190D-01 -3.8888182752446D-02
18  1.7000000000000D-01  4.5361384821120D-01 -4.4183587010536D-02
19  1.8000000000000D-01  4.8025548274926D-01 -4.9922018726366D-02
20  1.9000000000000D-01  5.0685858555092D-01 -5.6107688686146D-02
21  2.0000000000000D-01  5.3341275283561D-01 -6.2741472286802D-02
22  2.1000000000000D-01  5.5990641121764D-01 -6.9820833208251D-02
23  2.2000000000000D-01  5.8632679884087D-01 -7.7339762910848D-02
24  2.3000000000000D-01  6.1265995233285D-01 -8.5288736325313D-02
25  2.4000000000000D-01  6.3889069969094D-01 -9.3654684037618D-02
26  2.5000000000000D-01  6.6500265918932D-01 -1.0242098120530D-01
27  2.6000000000000D-01  6.9097824437267D-01 -1.1156745337433D-01
28  2.7000000000000D-01  7.1679867517740D-01 -1.2107039929712D-01
29  2.8000000000000D-01  7.4244399519785D-01 -1.3090263078318D-01
30  2.9000000000000D-01  7.6789309508951D-01 -1.4103352954390D-01
31  3.0000000000000D-01  7.9312374207726D-01 -1.5142912092316D-01
32  3.1000000000000D-01  8.1811261551155D-01 -1.6205216433513D-01
33  3.2000000000000D-01  8.4283534839111D-01 -1.7286226016081D-01
34  3.3000000000000D-01  8.6726657474609D-01 -1.8381597278550D-01
35  3.4000000000000D-01  8.9137998275156D-01 -1.9486696939065D-01
36  3.5000000000000D-01  9.1514837341737D-01 -2.0596617404606D-01
37  3.6000000000000D-01  9.3854372467689D-01 -2.1706193658184D-01
38  3.7000000000000D-01  9.6153726067443D-01 -2.2810021565492D-01
39  3.8000000000000D-01  9.8409952602884D-01 -2.3902477536190D-01
40  3.9000000000000D-01  1.0062004648291D+00 -2.4977739468902D-01
41  4.0000000000000D-01  1.0278095040971D+00 -2.6029808903131D-01
42  4.1000000000000D-01  1.0488956414330D+00 -2.7052534295743D-01
43  4.2000000000000D-01  1.0694275365392D+00 -2.8039635334267D-01
44  4.3000000000000D-01  1.0893736063017D+00 -2.8984728194322D-01
45  4.4000000000000D-01  1.1087021230901D+00 -2.9881351643731D-01
46  4.5000000000000D-01  1.1273813159231D+00 -3.0722993891554D-01
47  4.6000000000000D-01  1.1453794741297D+00 -3.1503120076319D-01
48  4.7000000000000D-01  1.1626650531261D+00 -3.2215200284092D-01
49  4.8000000000000D-01  1.1792067819154D+00 -3.2852737983910D-01
50  4.9000000000000D-01  1.1949737719049D+00 -3.3409298765287D-01
51  5.0000000000000D-01  1.2099356266319D+00 -3.3878539260214D-01
52  5.1000000000000D-01  1.2240625519765D+00 -3.4254236130216D-01
53  5.2000000000000D-01  1.2373254664377D+00 -3.4530314997608D-01
54  5.3000000000000D-01  1.2496961110437D+00 -3.4700879199170D-01
55  5.4000000000000D-01  1.2611471584659D+00 -3.4760238240072D-01
56  5.5000000000000D-01  1.2716523209029D+00 -3.4702935825836D-01
57  5.6000000000000D-01  1.2811864563059D+00 -3.4523777350809D-01
58  5.7000000000000D-01  1.2897256725155D+00 -3.4217856722544D-01
59  5.8000000000000D-01  1.2972474288872D+00 -3.3780582403133D-01
60  5.9000000000000D-01  1.3037306349862D+00 -3.3207702550582D-01
61  6.0000000000000D-01  1.3091557459433D+00 -3.2495329145833D-01
62  6.1000000000000D-01  1.3135048540703D+00 -3.1639960994144D-01
63  6.2000000000000D-01  1.3167617763442D+00 -3.0638505493093D-01
64  6.3000000000000D-01  1.3189121373862D+00 -2.9488299063406D-01
65  6.4000000000000D-01  1.3199434475693D+00 -2.8187126143432D-01
66  6.5000000000000D-01  1.3198451759107D+00 -2.6733236652924D-01
67  6.6000000000000D-01  1.3186088174176D+00 -2.5125361837239D-01
68  6.7000000000000D-01  1.3162279545766D+00 -2.3362728408860D-01
69  6.8000000000000D-01  1.3126983126957D+00 -2.1445070909344D-01
70  6.9000000000000D-01  1.3080178088300D+00 -1.9372642221435D-01
71  7.0000000000000D-01  1.3021865940441D+00 -1.7146222167997D-01
72  7.1000000000000D-01  1.2952070887890D+00 -1.4767124141729D-01
73  7.2000000000000D-01  1.2870840111959D+00 -1.2237199717246D-01
74  7.3000000000000D-01  1.2778243981142D+00 -9.5588412049289D-02
75  7.4000000000000D-01  1.2674376187491D+00 -6.7349821141400D-02
76  7.5000000000000D-01  1.2559353807810D+00 -3.7690955016775D-02
77  7.6000000000000D-01  1.2433317288772D+00 -6.6519018992503D-03
78  7.7000000000000D-01  1.2296430355354D+00  2.5721951522122D-02
79  7.8000000000000D-01  1.2148879842265D+00  5.9380000636793D-02
80  7.9000000000000D-01  1.1990875448365D+00  9.4266524701951D-02
81  8.0000000000000D-01  1.1822649414336D+00  1.3032080968036D-01
82  8.1000000000000D-01  1.1644456124185D+00  1.6747729184116D-01
83  8.2000000000000D-01  1.1456571631457D+00  2.0566572174871D-01
84  8.3000000000000D-01  1.1259293111326D+00  2.4481134817699D-01
85  8.4000000000000D-01  1.1052938240028D+00  2.8483512139989D-01
86  8.5000000000000D-01  1.0837844503382D+00  3.2565391522238D-01
87  8.6000000000000D-01  1.0614368436457D+00  3.6718076703412D-01
88  8.7000000000000D-01  1.0382884796675D+00  4.0932513508571D-01
89  8.8000000000000D-01  1.0143785672956D+00  4.5199317210965D-01
90  8.9000000000000D-01  9.8974795337434D-01  4.9508801433177D-01
91  9.0000000000000D-01  9.6443902170121D-01  5.3851008484795D-01
92  9.1000000000000D-01  9.3849558655922D-01  5.8215741027141D-01
93  9.2000000000000D-01  9.1196278113818D-01  6.2592594949225D-01
94  9.3000000000000D-01  8.8488694122254D-01  6.6970993333107D-01
95  9.4000000000000D-01  8.5731548454395D-01  7.1340221381293D-01
96  9.5000000000000D-01  8.2929678621519D-01  7.5689462173824D-01
97  9.6000000000000D-01  8.0088005067884D-01  8.0007833118191D-01
98  9.7000000000000D-01  7.7211518061940D-01  8.4284422951307D-01
99  9.8000000000000D-01  7.4305264330076D-01  8.8508329149381D-01
100  9.9000000000000D-01  7.1374333480270D-01  9.2668695598800D-01
101  1.0000000000000D+00  6.8423844263958D-01  9.6754750378956D-01
102  1.0100000000000D+00  6.5458930725227D-01  1.0075584350645D+00
103  1.0200000000000D+00  6.2484728286983D-01  1.0466148448922D+00
104  1.0300000000000D+00  5.9506359824145D-01  1.0846137953887D+00
105  1.0400000000000D+00  5.6528921774050D-01  1.1214546828998D+00
106  1.0500000000000D+00  5.3557470334223D-01  1.1570395987623D+00
107  1.0600000000000D+00  5.0597007797399D-01  1.1912736821495D+00
108  1.0700000000000D+00  4.7652469073253D-01  1.2240654635393D+00
109  1.0800000000000D+00  4.4728708445591D-01  1.2553271973775D+00
110  1.0900000000000D+00  4.1830486612904D-01  1.2849751825419D+00
111  1.1000000000000D+00  3.8962458059057D-01  1.3129300692607D+00
112  1.1100000000000D+00  3.6129158799700D-01  1.3391171511844D+00
113  1.1200000000000D+00  3.3334994548488D-01  1.3634666413652D+00
114  1.1300000000000D+00  3.0584229345495D-01  1.3859139309651D+00
115  1.1400000000000D+00  2.7880974688370D-01  1.4063998295768D+00
116  1.1500000000000D+00  2.5229179204792D-01  1.4248707861143D+00
117  1.1600000000000D+00  2.2632618902812D-01  1.4412790893024D+00
118  1.1700000000000D+00  2.0094888032954D-01  1.4555830468855D+00
119  1.1800000000000D+00  1.7619390593528D-01  1.4677471427643D+00
120  1.1900000000000D+00  1.5209332508476D-01  1.4777421713404D+00
121  1.2000000000000D+00  1.2867714503881D-01  1.4855453484575D+00
122  1.2100000000000D+00  1.0597325706374D-01  1.4911403984310D+00
123  1.2200000000000D+00  8.4007379836797D-02  1.4945176167512D+00
124  1.2300000000000D+00  6.2803010456003D-02  1.4956739081191D+00
125  1.2400000000000D+00  4.2381383189262D-02  1.4946127996283D+00
126  1.2500000000000D+00  2.2761436069916D-02  1.4913444290023D+00
127  1.2600000000000D+00  3.9597854349475D-03  1.4858855078295D+00
128  1.2700000000000D+00 -1.4009291561554D-02  1.4782592599513D+00
129  1.2800000000000D+00 -3.1133866448961D-02  1.4684953352257D+00
130  1.2900000000000D+00 -4.7404360952881D-02  1.4566296989210D+00
131  1.3000000000000D+00 -6.2813540586689D-02  1.4427044972145D+00
132  1.3100000000000D+00 -7.7356500411103D-02  1.4267678993410D+00
133  1.3200000000000D+00 -9.1030643047227D-02  1.4088739169282D+00
134  1.3300000000000D+00 -1.0383564911674D-01  1.3890822013322D+00
135  1.3400000000000D+00 -1.1577344027878D-01  1.3674578197732D+00
136  1.3500000000000D+00 -1.2684813504712D-01  1.3440710111184D+00
137  1.3600000000000D+00 -1.3706599765291D-01  1.3189969224065D+00
138  1.3700000000000D+00 -1.4643538019083D-01  1.2923153271278D+00
139  1.3800000000000D+00 -1.5496665833368D-01  1.2641103264163D+00
140  1.3900000000000D+00 -1.6267216095176D-01  1.2344700344598D+00
141  1.4000000000000D+00 -1.6956609393078D-01  1.2034862493112D+00
142  1.4100000000000D+00 -1.7566445857829D-01  1.1712541105644D+00
143  1.4200000000000D+00 -1.8098496497805D-01  1.1378717452619D+00
144  1.4300000000000D+00 -1.8554694067501D-01  1.1034399034788D+00
145  1.4400000000000D+00 -1.8937123512661D-01  1.0680615851529D+00
146  1.4500000000000D+00 -1.9248012030695D-01  1.0318416596165D+00
147  1.4600000000000D+00 -1.9489718792878D-01  9.9488647947046D-01
148  1.4700000000000D+00 -1.9664724370622D-01  9.5730349033240D-01
149  1.4800000000000D+00 -1.9775619911785D-01  9.1920083809425D-01
150  1.4900000000000D+00 -1.9825096112427D-01  8.8068697525225D-01
151  1.5000000000000D+00 -1.9815932029969D-01  8.4187026796233D-01
152  1.5100000000000D+00 -1.9750983783481D-01  8.0285860533479D-01
153  1.5200000000000D+00 -1.9633173187576D-01  7.6375901262053D-01
154  1.5300000000000D+00 -1.9465476364784D-01  7.2467726975965D-01
155  1.5400000000000D+00 -1.9250912381436D-01  6.8571753683498D-01
156  1.5500000000000D+00 -1.8992531952325D-01  6.4698198792945D-01
157  1.5600000000000D+00 -1.8693406254254D-01  6.0857045468637D-01
158  1.5700000000000D+00 -1.8356615895989D-01  5.7058008116923D-01
159  1.5800000000000D+00 -1.7985240076356D-01  5.3310499095896D-01
160  1.5900000000000D+00 -1.7582345981836D-01  4.9623596823508D-01
161  1.6000000000000D+00 -1.7150978444411D-01  4.6006015333425D-01
162  1.6100000000000D+00 -1.6694149914588D-01  4.2466075466241D-01
163  1.6200000000000D+00 -1.6214830760729D-01  3.9011677708171D-01
164  1.6300000000000D+00 -1.5715939947940D-01  3.5650276856476D-01
165  1.6400000000000D+00 -1.5200336102448D-01  3.2388858505054D-01
166  1.6500000000000D+00 -1.4670809009140D-01  2.9233917506080D-01
167  1.6600000000000D+00 -1.4130071543827D-01  2.6191438385801D-01
168  1.6700000000000D+00 -1.3580752081631D-01  2.3266877845106D-01
169  1.6800000000000D+00 -1.3025387377936D-01  2.0465149304829D-01
170  1.6900000000000D+00 -1.2466415957479D-01  1.7790609603322D-01
171  1.7000000000000D+00 -1.1906172001364D-01  1.5247047782554D-01
172  1.7100000000000D+00 -1.1346879763155D-01  1.2837676052840D-01
173  1.7200000000000D+00 -1.0790648494986D-01  1.0565122840843D-01
174  1.7300000000000D+00 -1.0239467912692D-01  8.4314280020736D-02
175  1.7400000000000D+00 -9.6952041692947D-02  6.4380400614265D-02
176  1.7500000000000D+00 -9.1595963666558D-02  4.5858155645272D-02
177  1.7600000000000D+00 -8.6342535601012D-02  2.8750203527398D-02
178  1.7700000000000D+00 -8.1206522896539D-02  1.3053328564611D-02
179  1.7800000000000D+00 -7.6201345758052D-02 -1.2415083833650D-03
180  1.7900000000000D+00 -7.1339064194057D-02 -1.4149100372092D-02
181  1.8000000000000D+00 -6.6630367268279D-02 -2.5689908989506D-02
182  1.8100000000000D+00 -6.2084567026058D-02 -3.5889961930053D-02
183  1.8200000000000D+00 -5.7709596249496D-02 -4.4780736698606D-02
184  1.8300000000000D+00 -5.3512010323796D-02 -5.2399029772216D-02
185  1.8400000000000D+00 -4.9496992493997D-02 -5.8786813926579D-02
186  1.8500000000000D+00 -4.5668361359816D-02 -6.3991089310159D-02
187  1.8600000000000D+00 -4.2028586589241D-02 -6.8063700716770D-02
188  1.8700000000000D+00 -3.8578794920071D-02 -7.1061201767132D-02
189  1.8800000000000D+00 -3.5318793578577D-02 -7.3044646036290D-02
190  1.8900000000000D+00 -3.2247117371254D-02 -7.4079274727134D-02
191  1.9000000000000D+00 -2.9361000241216D-02 -7.4234534023195D-02
192  1.9100000000000D+00 -2.6656281064972D-02 -7.3584428290635D-02
193  1.9200000000000D+00 -2.4127746994880D-02 -7.2205857401370D-02
194  1.9300000000000D+00 -2.1769311378314D-02 -7.0177694642753D-02
195  1.9400000000000D+00 -1.9574255519743D-02 -6.7579691302963D-02
196  1.9500000000000D+00 -1.7535563436663D-02 -6.4490964059399D-02
197  1.9600000000000D+00 -1.5646109313285D-02 -6.0989163712425D-02
198  1.9700000000000D+00 -1.3898661246753D-02 -5.7150498351260D-02
199  1.9800000000000D+00 -1.2285928874280D-02 -5.3049578570511D-02
200  1.9900000000000D+00 -1.0800713339566D-02 -4.8758755857501D-02
201  2.0000000000000D+00 -9.4359676929706D-03 -4.4347894712499D-02
202  2.0100000000000D+00 -8.1848849673136D-03 -3.9884011624347D-02
203  2.0200000000000D+00 -7.0409780157394D-03 -3.5430952069156D-02
204  2.0300000000000D+00 -5.9981547004366D-03 -3.1049087976720D-02
205  2.0400000000000D+00 -5.0507892667826D-03 -2.6795031140297D-02
206  2.0500000000000D+00 -4.1937897734313D-03 -2.2721363543510D-02
207  2.0600000000000D+00 -3.4226600531539D-03 -1.8876390136720D-02
208  2.0700000000000D+00 -2.7335572202331D-03 -1.5303910334541D-02
209  2.0800000000000D+00 -2.1234238620376D-03 -1.2043497974065D-02
210  2.0900000000000D+00 -1.5901574325490D-03 -9.1310630423718D-03
211  2.1000000000000D+00 -1.1311057815409D-03 -6.5893655494943D-03
212  2.1100000000000D+00 -7.4432923751328D-04 -4.4326905718942D-03
213  2.1200000000000D+00 -4.3291185696287D-04 -2.7019318688667D-03
214  2.1300000000000D+00 -2.0119535102637D-04 -1.4369649345625D-03
215  2.1400000000000D+00 -4.9901305107129D-05 -6.4595608049405D-04
216  2.1500000000000D+00  2.9115464613397D-05 -2.2079182473008D-04
217  2.1600000000000D+00  4.7590893345046D-05 -3.7390990264136D-05
218  2.1700000000000D+00  2.8673493515925D-05  1.1240962833043D-05
219  2.1800000000000D+00  7.2100424428622D-07  5.8079447890098D-07
220  2.1900000000000D+00 -8.7753987376505D-06 -9.1299204274970D-06
221  2.2000000000000D+00 -5.4619105440417D-06 -6.6192959347465D-06
222  2.2100000000000D+00  8.7054823650920D-07  4.9435546006997D-07
223  2.2200000000000D+00  1.8005820012249D-06  1.2150052111731D-06
224  2.2300000000000D+00  5.6877002820159D-07  4.3112953911816D-07
225  2.2400000000000D+00 -9.9898678810797D-08  2.6783559304912D-07
226  2.2500000000000D+00 -1.1072285973886D-07  2.9685600605809D-07
227  2.2600000000000D+00  0.0000000000000D+00  0.0000000000000D+00
228  2.2700000000000D+00  0.0000000000000D+00  0.0000000000000D+00
229  2.2800000000000D+00  0.0000000000000D+00  0.0000000000000D+00
230  2.2900000000000D+00  0.0000000000000D+00  0.0000000000000D+00
231  2.3000000000000D+00  0.0000000000000D+00  0.0000000000000D+00
232  2.3100000000000D+00  0.0000000000000D+00  0.0000000000000D+00
233  2.3200000000000D+00  0.0000000000000D+00  0.0000000000000D+00
234  2.3300000000000D+00  0.0000000000000D+00  0.0000000000000D+00
235  2.3400000000000D+00  0.0000000000000D+00  0.0000000000000D+00
236  2.3500000000000D+00  0.0000000000000D+00  0.0000000000000D+00
237  2.3600000000000D+00  0.0000000000000D+00  0.0000000000000D+00
238  2.3700000000000D+00  0.0000000000000D+00  0.0000000000000D+00
239  2.3800000000000D+00  0.0000000000000D+00  0.0000000000000D+00
240  2.3900000000000D+00  0.0000000000000D+00  0.0000000000000D+00
241  2.4000000000000D+00  0.0000000000000D+00  0.0000000000000D+00
242  2.4100000000000D+00  0.0000000000000D+00  0.0000000000000D+00
243  2.4200000000000D+00  0.0000000000000D+00  0.0000000000000D+00
244  2.4300000000000D+00  0.0000000000000D+00  0.0000000000000D+00
245  2.4400000000000D+00  0.0000000000000D+00  0.0000000000000D+00
246  2.4500000000000D+00  0.0000000000000D+00  0.0000000000000D+00
247  2.4600000000000D+00  0.0000000000000D+00  0.0000000000000D+00
248  2.4700000000000D+00  0.0000000000000D+00  0.0000000000000D+00
249  2.4800000000000D+00  0.0000000000000D+00  0.0000000000000D+00
250  2.4900000000000D+00  0.0000000000000D+00  0.0000000000000D+00
251  2.5000000000000D+00  0.0000000000000D+00  0.0000000000000D+00
252  2.5100000000000D+00  0.0000000000000D+00  0.0000000000000D+00
253  2.5200000000000D+00  0.0000000000000D+00  0.0000000000000D+00
254  2.5300000000000D+00  0.0000000000000D+00  0.0000000000000D+00
255  2.5400000000000D+00  0.0000000000000D+00  0.0000000000000D+00
256  2.5500000000000D+00  0.0000000000000D+00  0.0000000000000D+00
257  2.5600000000000D+00  0.0000000000000D+00  0.0000000000000D+00
258  2.5700000000000D+00  0.0000000000000D+00  0.0000000000000D+00
259  2.5800000000000D+00  0.0000000000000D+00  0.0000000000000D+00
260  2.5900000000000D+00  0.0000000000000D+00  0.0000000000000D+00
261  2.6000000000000D+00  0.0000000000000D+00  0.0000000000000D+00
262  2.6100000000000D+00  0.0000000000000D+00  0.0000000000000D+00
263  2.6200000000000D+00  0.0000000000000D+00  0.0000000000000D+00
264  2.6300000000000D+00  0.0000000000000D+00  0.0000000000000D+00
265  2.6400000000000D+00  0.0000000000000D+00  0.0000000000000D+00
266  2.6500000000000D+00  0.0000000000000D+00  0.0000000000000D+00
267  2.6600000000000D+00  0.0000000000000D+00  0.0000000000000D+00
268  2.6700000000000D+00  0.0000000000000D+00  0.0000000000000D+00
269  2.6800000000000D+00  0.0000000000000D+00  0.0000000000000D+00
270  2.6900000000000D+00  0.0000000000000D+00  0.0000000000000D+00
271  2.7000000000000D+00  0.0000000000000D+00  0.0000000000000D+00
272  2.7100000000000D+00  0.0000000000000D+00  0.0000000000000D+00
273  2.7200000000000D+00  0.0000000000000D+00  0.0000000000000D+00
274  2.7300000000000D+00  0.0000000000000D+00  0.0000000000000D+00
275  2.7400000000000D+00  0.0000000000000D+00  0.0000000000000D+00
276  2.7500000000000D+00  0.0000000000000D+00  0.0000000000000D+00
277  2.7600000000000D+00  0.0000000000000D+00  0.0000000000000D+00
278  2.7700000000000D+00  0.0000000000000D+00  0.0000000000000D+00
279  2.7800000000000D+00  0.0000000000000D+00  0.0000000000000D+00
280  2.7900000000000D+00  0.0000000000000D+00  0.0000000000000D+00
281  2.8000000000000D+00  0.0000000000000D+00  0.0000000000000D+00
282  2.8100000000000D+00  0.0000000000000D+00  0.0000000000000D+00
283  2.8200000000000D+00  0.0000000000000D+00  0.0000000000000D+00
284  2.8300000000000D+00  0.0000000000000D+00  0.0000000000000D+00
285  2.8400000000000D+00  0.0000000000000D+00  0.0000000000000D+00
286  2.8500000000000D+00  0.0000000000000D+00  0.0000000000000D+00
287  2.8600000000000D+00  0.0000000000000D+00  0.0000000000000D+00
288  2.8700000000000D+00  0.0000000000000D+00  0.0000000000000D+00
289  2.8800000000000D+00  0.0000000000000D+00  0.0000000000000D+00
290  2.8900000000000D+00  0.0000000000000D+00  0.0000000000000D+00
291  2.9000000000000D+00  0.0000000000000D+00  0.0000000000000D+00
292  2.9100000000000D+00  0.0000000000000D+00  0.0000000000000D+00
293  2.9200000000000D+00  0.0000000000000D+00  0.0000000000000D+00
294  2.9300000000000D+00  0.0000000000000D+00  0.0000000000000D+00
295  2.9400000000000D+00  0.0000000000000D+00  0.0000000000000D+00
296  2.9500000000000D+00  0.0000000000000D+00  0.0000000000000D+00
297  2.9600000000000D+00  0.0000000000000D+00  0.0000000000000D+00
298  2.9700000000000D+00  0.0000000000000D+00  0.0000000000000D+00
299  2.9800000000000D+00  0.0000000000000D+00  0.0000000000000D+00
300  2.9900000000000D+00  0.0000000000000D+00  0.0000000000000D+00
301  3.0000000000000D+00  0.0000000000000D+00  0.0000000000000D+00
302  3.0100000000000D+00  0.0000000000000D+00  0.0000000000000D+00
303  3.0200000000000D+00  0.0000000000000D+00  0.0000000000000D+00
304  3.0300000000000D+00  0.0000000000000D+00  0.0000000000000D+00
305  3.0400000000000D+00  0.0000000000000D+00  0.0000000000000D+00
306  3.0500000000000D+00  0.0000000000000D+00  0.0000000000000D+00
307  3.0600000000000D+00  0.0000000000000D+00  0.0000000000000D+00
308  3.0700000000000D+00  0.0000000000000D+00  0.0000000000000D+00
309  3.0800000000000D+00  0.0000000000000D+00  0.0000000000000D+00
310  3.0900000000000D+00  0.0000000000000D+00  0.0000000000000D+00
311  3.1000000000000D+00  0.0000000000000D+00  0.0000000000000D+00
312  3.1100000000000D+00  0.0000000000000D+00  0.0000000000000D+00
313  3.1200000000000D+00  0.0000000000000D+00  0.0000000000000D+00
314  3.1300000000000D+00  0.0000000000000D+00  0.0000000000000D+00
315  3.1400000000000D+00  0.0000000000000D+00  0.0000000000000D+00
316  3.1500000000000D+00  0.0000000000000D+00  0.0000000000000D+00
317  3.1600000000000D+00  0.0000000000000D+00  0.0000000000000D+00
318  3.1700000000000D+00  0.0000000000000D+00  0.0000000000000D+00
319  3.1800000000000D+00  0.0000000000000D+00  0.0000000000000D+00
320  3.1900000000000D+00  0.0000000000000D+00  0.0000000000000D+00
321  3.2000000000000D+00  0.0000000000000D+00  0.0000000000000D+00
322  3.2100000000000D+00  0.0000000000000D+00  0.0000000000000D+00
323  3.2200000000000D+00  0.0000000000000D+00  0.0000000000000D+00
324  3.2300000000000D+00  0.0000000000000D+00  0.0000000000000D+00
325  3.2400000000000D+00  0.0000000000000D+00  0.0000000000000D+00
326  3.2500000000000D+00  0.0000000000000D+00  0.0000000000000D+00
327  3.2600000000000D+00  0.0000000000000D+00  0.0000000000000D+00
328  3.2700000000000D+00  0.0000000000000D+00  0.0000000000000D+00
329  3.2800000000000D+00  0.0000000000000D+00  0.0000000000000D+00
330  3.2900000000000D+00  0.0000000000000D+00  0.0000000000000D+00
331  3.3000000000000D+00  0.0000000000000D+00  0.0000000000000D+00
332  3.3100000000000D+00  0.0000000000000D+00  0.0000000000000D+00
333  3.3200000000000D+00  0.0000000000000D+00  0.0000000000000D+00
334  3.3300000000000D+00  0.0000000000000D+00  0.0000000000000D+00
335  3.3400000000000D+00  0.0000000000000D+00  0.0000000000000D+00
336  3.3500000000000D+00  0.0000000000000D+00  0.0000000000000D+00
337  3.3600000000000D+00  0.0000000000000D+00  0.0000000000000D+00
338  3.3700000000000D+00  0.0000000000000D+00  0.0000000000000D+00
339  3.3800000000000D+00  0.0000000000000D+00  0.0000000000000D+00
340  3.3900000000000D+00  0.0000000000000D+00  0.0000000000000D+00
341  3.4000000000000D+00  0.0000000000000D+00  0.0000000000000D+00
342  3.4100000000000D+00  0.0000000000000D+00  0.0000000000000D+00
343  3.4200000000000D+00  0.0000000000000D+00  0.0000000000000D+00
344  3.4300000000000D+00  0.0000000000000D+00  0.0000000000000D+00
345  3.4400000000000D+00  0.0000000000000D+00  0.0000000000000D+00
346  3.4500000000000D+00  0.0000000000000D+00  0.0000000000000D+00
347  3.4600000000000D+00  0.0000000000000D+00  0.0000000000000D+00
348  3.4700000000000D+00  0.0000000000000D+00  0.0000000000000D+00
349  3.4800000000000D+00  0.0000000000000D+00  0.0000000000000D+00
350  3.4900000000000D+00  0.0000000000000D+00  0.0000000000000D+00
351  3.5000000000000D+00  0.0000000000000D+00  0.0000000000000D+00
352  3.5100000000000D+00  0.0000000000000D+00  0.0000000000000D+00
353  3.5200000000000D+00  0.0000000000000D+00  0.0000000000000D+00
354  3.5300000000000D+00  0.0000000000000D+00  0.0000000000000D+00
355  3.5400000000000D+00  0.0000000000000D+00  0.0000000000000D+00
356  3.5500000000000D+00  0.0000000000000D+00  0.0000000000000D+00
357  3.5600000000000D+00  0.0000000000000D+00  0.0000000000000D+00
358  3.5700000000000D+00  0.0000000000000D+00  0.0000000000000D+00
359  3.5800000000000D+00  0.0000000000000D+00  0.0000000000000D+00
360  3.5900000000000D+00  0.0000000000000D+00  0.0000000000000D+00
361  3.6000000000000D+00  0.0000000000000D+00  0.0000000000000D+00
362  3.6100000000000D+00  0.0000000000000D+00  0.0000000000000D+00
363  3.6200000000000D+00  0.0000000000000D+00  0.0000000000000D+00
364  3.6300000000000D+00  0.0000000000000D+00  0.0000000000000D+00
365  3.6400000000000D+00  0.0000000000000D+00  0.0000000000000D+00
366  3.6500000000000D+00  0.0000000000000D+00  0.0000000000000D+00
367  3.6600000000000D+00  0.0000000000000D+00  0.0000000000000D+00
368  3.6700000000000D+00  0.0000000000000D+00  0.0000000000000D+00
369  3.6800000000000D+00  0.0000000000000D+00  0.0000000000000D+00
370  3.6900000000000D+00  0.0000000000000D+00  0.0000000000000D+00
371  3.7000000000000D+00  0.0000000000000D+00  0.0000000000000D+00
372  3.7100000000000D+00  0.0000000000000D+00  0.0000000000000D+00
373  3.7200000000000D+00  0.0000000000000D+00  0.0000000000000D+00
374  3.7300000000000D+00  0.0000000000000D+00  0.0000000000000D+00
375  3.7400000000000D+00  0.0000000000000D+00  0.0000000000000D+00
376  3.7500000000000D+00  0.0000000000000D+00  0.0000000000000D+00
377  3.7600000000000D+00  0.0000000000000D+00  0.0000000000000D+00
378  3.7700000000000D+00  0.0000000000000D+00  0.0000000000000D+00
379  3.7800000000000D+00  0.0000000000000D+00  0.0000000000000D+00
380  3.7900000000000D+00  0.0000000000000D+00  0.0000000000000D+00
381  3.8000000000000D+00  0.0000000000000D+00  0.0000000000000D+00
382  3.8100000000000D+00  0.0000000000000D+00  0.0000000000000D+00
383  3.8200000000000D+00  0.0000000000000D+00  0.0000000000000D+00
384  3.8300000000000D+00  0.0000000000000D+00  0.0000000000000D+00
385  3.8400000000000D+00  0.0000000000000D+00  0.0000000000000D+00
386  3.8500000000000D+00  0.0000000000000D+00  0.0000000000000D+00
387  3.8600000000000D+00  0.0000000000000D+00  0.0000000000000D+00
388  3.8700000000000D+00  0.0000000000000D+00  0.0000000000000D+00
389  3.8800000000000D+00  0.0000000000000D+00  0.0000000000000D+00
390  3.8900000000000D+00  0.0000000000000D+00  0.0000000000000D+00
391  3.9000000000000D+00  0.0000000000000D+00  0.0000000000000D+00
392  3.9100000000000D+00  0.0000000000000D+00  0.0000000000000D+00
393  3.9200000000000D+00  0.0000000000000D+00  0.0000000000000D+00
394  3.9300000000000D+00  0.0000000000000D+00  0.0000000000000D+00
395  3.9400000000000D+00  0.0000000000000D+00  0.0000000000000D+00
396  3.9500000000000D+00  0.0000000000000D+00  0.0000000000000D+00
397  3.9600000000000D+00  0.0000000000000D+00  0.0000000000000D+00
398  3.9700000000000D+00  0.0000000000000D+00  0.0000000000000D+00
399  3.9800000000000D+00  0.0000000000000D+00  0.0000000000000D+00
400  3.9900000000000D+00  0.0000000000000D+00  0.0000000000000D+00
401  4.0000000000000D+00  0.0000000000000D+00  0.0000000000000D+00
402  4.0100000000000D+00  0.0000000000000D+00  0.0000000000000D+00
403  4.0200000000000D+00  0.0000000000000D+00  0.0000000000000D+00
404  4.0300000000000D+00  0.0000000000000D+00  0.0000000000000D+00
405  4.0400000000000D+00  0.0000000000000D+00  0.0000000000000D+00
406  4.0500000000000D+00  0.0000000000000D+00  0.0000000000000D+00
407  4.0600000000000D+00  0.0000000000000D+00  0.0000000000000D+00
408  4.0700000000000D+00  0.0000000000000D+00  0.0000000000000D+00
409  4.0800000000000D+00  0.0000000000000D+00  0.0000000000000D+00
410  4.0900000000000D+00  0.0000000000000D+00  0.0000000000000D+00
411  4.1000000000000D+00  0.0000000000000D+00  0.0000000000000D+00
412  4.1100000000000D+00  0.0000000000000D+00  0.0000000000000D+00
413  4.1200000000000D+00  0.0000000000000D+00  0.0000000000000D+00
414  4.1300000000000D+00  0.0000000000000D+00  0.0000000000000D+00
415  4.1400000000000D+00  0.0000000000000D+00  0.0000000000000D+00
416  4.1500000000000D+00  0.0000000000000D+00  0.0000000000000D+00
417  4.1600000000000D+00  0.0000000000000D+00  0.0000000000000D+00
418  4.1700000000000D+00  0.0000000000000D+00  0.0000000000000D+00
419  4.1800000000000D+00  0.0000000000000D+00  0.0000000000000D+00
420  4.1900000000000D+00  0.0000000000000D+00  0.0000000000000D+00
421  4.2000000000000D+00  0.0000000000000D+00  0.0000000000000D+00
422  4.2100000000000D+00  0.0000000000000D+00  0.0000000000000D+00
423  4.2200000000000D+00  0.0000000000000D+00  0.0000000000000D+00
424  4.2300000000000D+00  0.0000000000000D+00  0.0000000000000D+00
425  4.2400000000000D+00  0.0000000000000D+00  0.0000000000000D+00
426  4.2500000000000D+00  0.0000000000000D+00  0.0000000000000D+00
427  4.2600000000000D+00  0.0000000000000D+00  0.0000000000000D+00
428  4.2700000000000D+00  0.0000000000000D+00  0.0000000000000D+00
429  4.2800000000000D+00  0.0000000000000D+00  0.0000000000000D+00
430  4.2900000000000D+00  0.0000000000000D+00  0.0000000000000D+00
431  4.3000000000000D+00  0.0000000000000D+00  0.0000000000000D+00
432  4.3100000000000D+00  0.0000000000000D+00  0.0000000000000D+00
433  4.3200000000000D+00  0.0000000000000D+00  0.0000000000000D+00
434  4.3300000000000D+00  0.0000000000000D+00  0.0000000000000D+00
435  4.3400000000000D+00  0.0000000000000D+00  0.0000000000000D+00
436  4.3500000000000D+00  0.0000000000000D+00  0.0000000000000D+00
437  4.3600000000000D+00  0.0000000000000D+00  0.0000000000000D+00
438  4.3700000000000D+00  0.0000000000000D+00  0.0000000000000D+00
439  4.3800000000000D+00  0.0000000000000D+00  0.0000000000000D+00
440  4.3900000000000D+00  0.0000000000000D+00  0.0000000000000D+00
441  4.4000000000000D+00  0.0000000000000D+00  0.0000000000000D+00
442  4.4100000000000D+00  0.0000000000000D+00  0.0000000000000D+00
443  4.4200000000000D+00  0.0000000000000D+00  0.0000000000000D+00