I     ONCVPSP  r_core=  1.97  1.86  1.86
53.0000     17.0000      160325    zatom,zion,pspd
8   -1013   2     4   600     0    pspcod,pspxc,lmax,lloc,mmax,r2well
5.99000000  0.45000000  0.00000000    rchrg fchrg qchrg
2     2     2     0     0    nproj
1                 extension_switch
0                         7.1946066417431D+00  1.0458322742797D+00
1  0.0000000000000D+00 -6.6699701317674D-12 -1.6094292565327D-11
2  1.0000000000000D-02  3.0185065744057D-02 -1.8082750625996D-02
3  2.0000000000000D-02  6.0340648461916D-02 -3.6158050083877D-02
4  3.0000000000000D-02  9.0437354701341D-02 -5.4218342946064D-02
5  4.0000000000000D-02  1.2044596974503D-01 -7.2255865990015D-02
6  5.0000000000000D-02  1.5033754594729D-01 -9.0262546106560D-02
7  6.0000000000000D-02  1.8008348983841D-01 -1.0822990036382D-01
8  7.0000000000000D-02  2.0965564759384D-01 -1.2614893892628D-01
9  8.0000000000000D-02  2.3902638847182D-01 -1.4401007151247D-01
10  9.0000000000000D-02  2.6816868583157D-01 -1.6180301805481D-01
11  1.0000000000000D-01  2.9705619535383D-01 -1.7951672420144D-01
12  1.1000000000000D-01  3.2566333009739D-01 -1.9713928227250D-01
13  1.2000000000000D-01  3.5396533203807D-01 -2.1465785825265D-01
14  1.3000000000000D-01  3.8193833975132D-01 -2.3205862536758D-01
15  1.4000000000000D-01  4.0955945191584D-01 -2.4932670475508D-01
16  1.5000000000000D-01  4.3680678633303D-01 -2.6644611370127D-01
17  1.6000000000000D-01  4.6365953417630D-01 -2.8339972186991D-01
18  1.7000000000000D-01  4.9009800920448D-01 -3.0016921590780D-01
19  1.8000000000000D-01  5.1610369169529D-01 -3.1673507276176D-01
20  1.9000000000000D-01  5.4165926687792D-01 -3.3307654199384D-01
21  2.0000000000000D-01  5.6674865766756D-01 -3.4917163733059D-01
22  2.1000000000000D-01  5.9135705153040D-01 -3.6499713763005D-01
23  2.2000000000000D-01  6.1547092133342D-01 -3.8052859739714D-01
24  2.3000000000000D-01  6.3907804006091D-01 -3.9574036692425D-01
25  2.4000000000000D-01  6.6216748930733D-01 -4.1060562207932D-01
26  2.5000000000000D-01  6.8472966148547D-01 -4.2509640370964D-01
27  2.6000000000000D-01  7.0675625571779D-01 -4.3918366657483D-01
28  2.7000000000000D-01  7.2824026740938D-01 -4.5283733766891D-01
29  2.8000000000000D-01  7.4917597153113D-01 -4.6602638373819D-01
30  2.9000000000000D-01  7.6955889967285D-01 -4.7871888774949D-01
31  3.0000000000000D-01  7.8938581095666D-01 -4.9088213401275D-01
32  3.1000000000000D-01  8.0865465693274D-01 -5.0248270161257D-01
33  3.2000000000000D-01  8.2736454060969D-01 -5.1348656575610D-01
34  3.3000000000000D-01  8.4551566980365D-01 -5.2385920659977D-01
35  3.4000000000000D-01  8.6310930501972D-01 -5.3356572507381D-01
36  3.5000000000000D-01  8.8014770211021D-01 -5.4257096518414D-01
37  3.6000000000000D-01  8.9663404998304D-01 -5.5083964223315D-01
38  3.7000000000000D-01  9.1257240366233D-01 -5.5833647636654D-01
39  3.8000000000000D-01  9.2796761303110D-01 -5.6502633082230D-01
40  3.9000000000000D-01  9.4282524761229D-01 -5.7087435422972D-01
41  4.0000000000000D-01  9.5715151776980D-01 -5.7584612628180D-01
42  4.1000000000000D-01  9.7095319273522D-01 -5.7990780608376D-01
43  4.2000000000000D-01  9.8423751588807D-01 -5.8302628246262D-01
44  4.3000000000000D-01  9.9701211773849D-01 -5.8516932550988D-01
45  4.4000000000000D-01  1.0092849270796D+00 -5.8630573861903D-01
46  4.5000000000000D-01  1.0210640807945D+00 -5.8640551027457D-01
47  4.6000000000000D-01  1.0323578328159D+00 -5.8543996484611D-01
48  4.7000000000000D-01  1.0431744627520D+00 -5.8338191164436D-01
49  4.8000000000000D-01  1.0535221846985D+00 -5.8020579150029D-01
50  4.9000000000000D-01  1.0634090567675D+00 -5.7588782013883D-01
51  5.0000000000000D-01  1.0728428918669D+00 -5.7040612763177D-01
52  5.1000000000000D-01  1.0818311702689D+00 -5.6374089323063D-01
53  5.2000000000000D-01  1.0903809545022D+00 -5.5587447490136D-01
54  5.3000000000000D-01  1.0984988071028D+00 -5.4679153290559D-01
55  5.4000000000000D-01  1.1061907117508D+00 -5.3647914680079D-01
56  5.5000000000000D-01  1.1134619983103D+00 -5.2492692526077D-01
57  5.6000000000000D-01  1.1203172722807D+00 -5.1212710815170D-01
58  5.7000000000000D-01  1.1267603491493D+00 -4.9807466033341D-01
59  5.8000000000000D-01  1.1327941941203D+00 -4.8276735669446D-01
60  5.9000000000000D-01  1.1384208676713D+00 -4.6620585796933D-01
61  6.0000000000000D-01  1.1436414773684D+00 -4.4839377692837D-01
62  6.1000000000000D-01  1.1484561363408D+00 -4.2933773457557D-01
63  6.2000000000000D-01  1.1528639287884D+00 -4.0904740603458D-01
64  6.3000000000000D-01  1.1568628828644D+00 -3.8753555585038D-01
65  6.4000000000000D-01  1.1604499512378D+00 -3.6481806248241D-01
66  6.5000000000000D-01  1.1636209996056D+00 -3.4091393181335D-01
67  6.6000000000000D-01  1.1663708033858D+00 -3.1584529954751D-01
68  6.7000000000000D-01  1.1686930527772D+00 -2.8963742242214D-01
69  6.8000000000000D-01  1.1705803663325D+00 -2.6231865820520D-01
70  6.9000000000000D-01  1.1720243131439D+00 -2.3392043450171D-01
71  7.0000000000000D-01  1.1730154436922D+00 -2.0447720644105D-01
72  7.1000000000000D-01  1.1735433293662D+00 -1.7402640336480D-01
73  7.2000000000000D-01  1.1735966106045D+00 -1.4260836468240D-01
74  7.3000000000000D-01  1.1731630535670D+00 -1.1026626510858D-01
75  7.4000000000000D-01  1.1722296151874D+00 -7.7046029540402D-02
76  7.5000000000000D-01  1.1707825164123D+00 -4.2996237875616D-02
77  7.6000000000000D-01  1.1688073233757D+00 -8.1680201151210D-03
78  7.7000000000000D-01  1.1662890362119D+00  2.7385057868357D-02
79  7.8000000000000D-01  1.1632121851559D+00  6.3607117475901D-02
80  7.9000000000000D-01  1.1595609335325D+00  1.0044009898804D-01
81  8.0000000000000D-01  1.1553191871876D+00  1.3782390114361D-01
82  8.1000000000000D-01  1.1504707098654D+00  1.7569652817516D-01
83  8.2000000000000D-01  1.1449992439944D+00  2.1399424375707D-01
84  8.3000000000000D-01  1.1388886362983D+00  2.5265173129797D-01
85  8.4000000000000D-01  1.1321229676093D+00  2.9160225998793D-01
86  8.5000000000000D-01  1.1246866862225D+00  3.3077785599135D-01
87  8.6000000000000D-01  1.1165647440952D+00  3.7010947816188D-01
88  8.7000000000000D-01  1.1077427351634D+00  4.0952719764218D-01
89  8.8000000000000D-01  1.0982070350177D+00  4.4896038070171D-01
90  8.9000000000000D-01  1.0879449411586D+00  4.8833787415937D-01
91  9.0000000000000D-01  1.0769448130287D+00  5.2758819273368D-01
92  9.1000000000000D-01  1.0651962110014D+00  5.6663970766223D-01
93  9.2000000000000D-01  1.0526900334970D+00  6.0542083593459D-01
94  9.3000000000000D-01  1.0394186513848D+00  6.4386022948695D-01
95  9.4000000000000D-01  1.0253760388298D+00  6.8188696371512D-01
96  9.5000000000000D-01  1.0105578997421D+00  7.1943072467183D-01
97  9.6000000000000D-01  9.9496178899332D-01  7.5642199432739D-01
98  9.7000000000000D-01  9.7858722757797D-01  7.9279223328778D-01
99  9.8000000000000D-01  9.6143581090895D-01  8.2847406038115D-01
100  9.9000000000000D-01  9.4351130946237D-01  8.6340142854388D-01
101  1.0000000000000D+00  9.2481976100931D-01  8.9750979645800D-01
102  1.0100000000000D+00  9.0536955370408D-01  9.3073629541526D-01
103  1.0200000000000D+00  8.8517149933479D-01  9.6301989090892D-01
104  1.0300000000000D+00  8.6423889607993D-01  9.9430153847898D-01
105  1.0400000000000D+00  8.4258758016161D-01  1.0245243333660D+00
106  1.0500000000000D+00  8.2023596583415D-01  1.0536336535572D+00
107  1.0600000000000D+00  7.9720507319971D-01  1.0815772958374D+00
108  1.0700000000000D+00  7.7351854340065D-01  1.1083056044908D+00
109  1.0800000000000D+00  7.4920264079885D-01  1.1337715923278D+00
110  1.0900000000000D+00  7.2428624181325D-01  1.1579310537443D+00
111  1.1000000000000D+00  6.9880081016028D-01  1.1807426695550D+00
112  1.1100000000000D+00  6.7278035830568D-01  1.2021681033714D+00
113  1.1200000000000D+00  6.4626139501702D-01  1.2221720893315D+00
114  1.1300000000000D+00  6.1928285896478D-01  1.2407225110146D+00
115  1.1400000000000D+00  5.9188603841446D-01  1.2577904714133D+00
116  1.1500000000000D+00  5.6411447711636D-01  1.2733503538611D+00
117  1.1600000000000D+00  5.3601386659102D-01  1.2873798738504D+00
118  1.1700000000000D+00  5.0763192506105D-01  1.2998601216959D+00
119  1.1800000000000D+00  4.7901826338906D-01  1.3107755960396D+00
120  1.1900000000000D+00  4.5022423844215D-01  1.3201142282161D+00
121  1.2000000000000D+00  4.2130279438454D-01  1.3278673975225D+00
122  1.2100000000000D+00  3.9230829246199D-01  1.3340299374661D+00
123  1.2200000000000D+00  3.6329632993992D-01  1.3386001330874D+00
124  1.2300000000000D+00  3.3432354891990D-01  1.3415797094855D+00
125  1.2400000000000D+00  3.0544743579583D-01  1.3429738116775D+00
126  1.2500000000000D+00  2.7672611222634D-01  1.3427909759680D+00
127  1.2600000000000D+00  2.4821811853776D-01  1.3410430930096D+00
128  1.2700000000000D+00  2.1998219050644D-01  1.3377453627522D+00
129  1.2800000000000D+00  1.9207703056137D-01  1.3329162415046D+00
130  1.2900000000000D+00  1.6456107448310D-01  1.3265773813431D+00
131  1.3000000000000D+00  1.3749225468984D-01  1.3187535621089D+00
132  1.3100000000000D+00  1.1092776128053D-01  1.3094726162572D+00
133  1.3200000000000D+00  8.4923802016826D-02  1.2987653468307D+00
134  1.3300000000000D+00  5.9535362433556D-02  1.2866654388286D+00
135  1.3400000000000D+00  3.4815967325690D-02  1.2732093642654D+00
136  1.3500000000000D+00  1.0817444834072D-02  1.2584362812087D+00
137  1.3600000000000D+00 -1.2410305616303D-02  1.2423879270929D+00
138  1.3700000000000D+00 -3.4819540285259D-02  1.2251085066136D+00
139  1.3800000000000D+00 -5.6364891764434D-02  1.2066445745029D+00
140  1.3900000000000D+00 -7.7003582055083D-02  1.1870449134937D+00
141  1.4000000000000D+00 -9.6695626928065D-02  1.1663604077753D+00
142  1.4100000000000D+00 -1.1540403032714D-01  1.1446439122474D+00
143  1.4200000000000D+00 -1.3309496773227D-01  1.1219501178731D+00
144  1.4300000000000D+00 -1.4973795738448D-01  1.0983354134297D+00
145  1.4400000000000D+00 -1.6530601825310D-01  1.0738577439590D+00
146  1.4500000000000D+00 -1.7977581390530D-01  1.0485764661967D+00
147  1.4600000000000D+00 -1.9312778113936D-01  1.0225522012849D+00
148  1.4700000000000D+00 -2.0534624271413D-01  9.9584668503257D-01
149  1.4800000000000D+00 -2.1641950325664D-01  9.6852261600894D-01
150  1.4900000000000D+00 -2.2633992763057D-01  9.4064350173867D-01
151  1.5000000000000D+00 -2.3510400127366D-01  9.1227350324958D-01
152  1.5100000000000D+00 -2.4271237165761D-01  8.8347727825094D-01
153  1.5200000000000D+00 -2.4916987083324D-01  8.5431982315657D-01
154  1.5300000000000D+00 -2.5448551819200D-01  8.2486631423212D-01
155  1.5400000000000D+00 -2.5867250366098D-01  7.9518194806112D-01
156  1.5500000000000D+00 -2.6174815075489D-01  7.6533178158622D-01
157  1.5600000000000D+00 -2.6373385967340D-01  7.3538057192284D-01
158  1.5700000000000D+00 -2.6465503036129D-01  7.0539261616473D-01
159  1.5800000000000D+00 -2.6454096560275D-01  6.7543159138729D-01
160  1.5900000000000D+00 -2.6342475460162D-01  6.4556039503167D-01
161  1.6000000000000D+00 -2.6134313699220D-01  6.1584098588257D-01
162  1.6100000000000D+00 -2.5833634825521D-01  5.8633422579056D-01
163  1.6200000000000D+00 -2.5444794638096D-01  5.5709972235622D-01
164  1.6300000000000D+00 -2.4972462122729D-01  5.2819567270055D-01
165  1.6400000000000D+00 -2.4421598636009D-01  4.9967870853920D-01
166  1.6500000000000D+00 -2.3797435521579D-01  4.7160374266635D-01
167  1.6600000000000D+00 -2.3105450140190D-01  4.4402381706025D-01
168  1.6700000000000D+00 -2.2351340521494D-01  4.1698995270842D-01
169  1.6800000000000D+00 -2.1540998637193D-01  3.9055100135047D-01
170  1.6900000000000D+00 -2.0680482510633D-01  3.6475349923862D-01
171  1.7000000000000D+00 -1.9775987187053D-01  3.3964152309762D-01
172  1.7100000000000D+00 -1.8833814781368D-01  3.1525654838911D-01
173  1.7200000000000D+00 -1.7860343651079D-01  2.9163731004686D-01
174  1.7300000000000D+00 -1.6861996908696D-01  2.6881966579582D-01
175  1.7400000000000D+00 -1.5845210345433D-01  2.4683646220646D-01
176  1.7500000000000D+00 -1.4816399969390D-01  2.2571740360952D-01
177  1.7600000000000D+00 -1.3781929137602D-01  2.0548891900014D-01
178  1.7700000000000D+00 -1.2748076271617D-01  1.8617406030191D-01
179  1.7800000000000D+00 -1.1721000230447D-01  1.6779230817416D-01
180  1.7900000000000D+00 -1.0706712055593D-01  1.5035962615914D-01
181  1.8000000000000D+00 -9.7110395803642D-02  1.3388823101089D-01
182  1.8100000000000D+00 -8.7395869975192D-02  1.1838611913501D-01
183  1.8200000000000D+00 -7.7977181638654D-02  1.0385755299143D-01
184  1.8300000000000D+00 -6.8905452118819D-02  9.0303756702047D-02
185  1.8400000000000D+00 -6.0229166776961D-02  7.7723484517534D-02
186  1.8500000000000D+00 -5.1994136270631D-02  6.6113818078795D-02
187  1.8600000000000D+00 -4.4243419783985D-02  5.5470772759163D-02
188  1.8700000000000D+00 -3.7017045618989D-02  4.5789002499868D-02
189  1.8800000000000D+00 -3.0351794538537D-02  3.7061691800253D-02
190  1.8900000000000D+00 -2.4281070870011D-02  2.9280790262761D-02
191  1.9000000000000D+00 -1.8834723074306D-02  2.2436962055179D-02
192  1.9100000000000D+00 -1.4041818708027D-02  1.6522647087235D-02
193  1.9200000000000D+00 -9.9191836552866D-03  1.1520386866667D-02
194  1.9300000000000D+00 -6.4742239169596D-03  7.4063009663936D-03
195  1.9400000000000D+00 -3.7343278122801D-03  4.1793770418995D-03
196  1.9500000000000D+00 -1.7518879283973D-03  1.8658360026096D-03
197  1.9600000000000D+00 -5.3204342189815D-04  4.4521869451296D-04
198  1.9700000000000D+00  5.8751267049274D-05 -2.2465203503255D-04
199  1.9800000000000D+00  1.9278015318250D-04 -3.2719552670023D-04
200  1.9900000000000D+00  9.1973977246296D-05 -1.4243616304153D-04
201  2.0000000000000D+00 -2.5309158118790D-05  3.8315691262181D-05
202  2.0100000000000D+00 -4.2165889234461D-05  6.2535150738278D-05
203  2.0200000000000D+00 -2.0705322414769D-06  3.0327765537698D-06
204  2.0300000000000D+00  8.6150582658896D-06 -1.3396678994071D-05
205  2.0400000000000D+00  4.6821595770254D-06 -7.2219860590870D-06
206  2.0500000000000D+00 -2.6393976652837D-07  5.9505945396603D-07
207  2.0600000000000D+00 -3.4128454887249D-07  7.6943539039341D-07
208  2.0700000000000D+00  0.0000000000000D+00  0.0000000000000D+00
209  2.0800000000000D+00  0.0000000000000D+00  0.0000000000000D+00
210  2.0900000000000D+00  0.0000000000000D+00  0.0000000000000D+00
211  2.1000000000000D+00  0.0000000000000D+00  0.0000000000000D+00
212  2.1100000000000D+00  0.0000000000000D+00  0.0000000000000D+00
213  2.1200000000000D+00  0.0000000000000D+00  0.0000000000000D+00
214  2.1300000000000D+00  0.0000000000000D+00  0.0000000000000D+00
215  2.1400000000000D+00  0.0000000000000D+00  0.0000000000000D+00
216  2.1500000000000D+00  0.0000000000000D+00  0.0000000000000D+00
217  2.1600000000000D+00  0.0000000000000D+00  0.0000000000000D+00
218  2.1700000000000D+00  0.0000000000000D+00  0.0000000000000D+00
219  2.1800000000000D+00  0.0000000000000D+00  0.0000000000000D+00
220  2.1900000000000D+00  0.0000000000000D+00  0.0000000000000D+00
221  2.2000000000000D+00  0.0000000000000D+00  0.0000000000000D+00
222  2.2100000000000D+00  0.0000000000000D+00  0.0000000000000D+00
223  2.2200000000000D+00  0.0000000000000D+00  0.0000000000000D+00
224  2.2300000000000D+00  0.0000000000000D+00  0.0000000000000D+00
225  2.2400000000000D+00  0.0000000000000D+00  0.0000000000000D+00
226  2.2500000000000D+00  0.0000000000000D+00  0.0000000000000D+00
227  2.2600000000000D+00  0.0000000000000D+00  0.0000000000000D+00
228  2.2700000000000D+00  0.0000000000000D+00  0.0000000000000D+00
229  2.2800000000000D+00  0.0000000000000D+00  0.0000000000000D+00
230  2.2900000000000D+00  0.0000000000000D+00  0.0000000000000D+00
231  2.3000000000000D+00  0.0000000000000D+00  0.0000000000000D+00
232  2.3100000000000D+00  0.0000000000000D+00  0.0000000000000D+00
233  2.3200000000000D+00  0.0000000000000D+00  0.0000000000000D+00
234  2.3300000000000D+00  0.0000000000000D+00  0.0000000000000D+00
235  2.3400000000000D+00  0.0000000000000D+00  0.0000000000000D+00
236  2.3500000000000D+00  0.0000000000000D+00  0.0000000000000D+00
237  2.3600000000000D+00  0.0000000000000D+00  0.0000000000000D+00
238  2.3700000000000D+00  0.0000000000000D+00  0.0000000000000D+00
239  2.3800000000000D+00  0.0000000000000D+00  0.0000000000000D+00
240  2.3900000000000D+00  0.0000000000000D+00  0.0000000000000D+00
241  2.4000000000000D+00  0.0000000000000D+00  0.0000000000000D+00
242  2.4100000000000D+00  0.0000000000000D+00  0.0000000000000D+00
243  2.4200000000000D+00  0.0000000000000D+00  0.0000000000000D+00
244  2.4300000000000D+00  0.0000000000000D+00  0.0000000000000D+00
245  2.4400000000000D+00  0.0000000000000D+00  0.0000000000000D+00
246  2.4500000000000D+00  0.0000000000000D+00  0.0000000000000D+00
247  2.4600000000000D+00  0.0000000000000D+00  0.0000000000000D+00
248  2.4700000000000D+00  0.0000000000000D+00  0.0000000000000D+00
249  2.4800000000000D+00  0.0000000000000D+00  0.0000000000000D+00
250  2.4900000000000D+00  0.0000000000000D+00  0.0000000000000D+00
251  2.5000000000000D+00  0.0000000000000D+00  0.0000000000000D+00
252  2.5100000000000D+00  0.0000000000000D+00  0.0000000000000D+00
253  2.5200000000000D+00  0.0000000000000D+00  0.0000000000000D+00
254  2.5300000000000D+00  0.0000000000000D+00  0.0000000000000D+00
255  2.5400000000000D+00  0.0000000000000D+00  0.0000000000000D+00
256  2.5500000000000D+00  0.0000000000000D+00  0.0000000000000D+00
257  2.5600000000000D+00  0.0000000000000D+00  0.0000000000000D+00
258  2.5700000000000D+00  0.0000000000000D+00  0.0000000000000D+00
259  2.5800000000000D+00  0.0000000000000D+00  0.0000000000000D+00
260  2.5900000000000D+00  0.0000000000000D+00  0.0000000000000D+00
261  2.6000000000000D+00  0.0000000000000D+00  0.0000000000000D+00
262  2.6100000000000D+00  0.0000000000000D+00  0.0000000000000D+00
263  2.6200000000000D+00  0.0000000000000D+00  0.0000000000000D+00
264  2.6300000000000D+00  0.0000000000000D+00  0.0000000000000D+00
265  2.6400000000000D+00  0.0000000000000D+00  0.0000000000000D+00
266  2.6500000000000D+00  0.0000000000000D+00  0.0000000000000D+00
267  2.6600000000000D+00  0.0000000000000D+00  0.0000000000000D+00
268  2.6700000000000D+00  0.0000000000000D+00  0.0000000000000D+00
269  2.6800000000000D+00  0.0000000000000D+00  0.0000000000000D+00
270  2.6900000000000D+00  0.0000000000000D+00  0.0000000000000D+00
271  2.7000000000000D+00  0.0000000000000D+00  0.0000000000000D+00
272  2.7100000000000D+00  0.0000000000000D+00  0.0000000000000D+00
273  2.7200000000000D+00  0.0000000000000D+00  0.0000000000000D+00
274  2.7300000000000D+00  0.0000000000000D+00  0.0000000000000D+00
275  2.7400000000000D+00  0.0000000000000D+00  0.0000000000000D+00
276  2.7500000000000D+00  0.0000000000000D+00  0.0000000000000D+00
277  2.7600000000000D+00  0.0000000000000D+00  0.0000000000000D+00
278  2.7700000000000D+00  0.0000000000000D+00  0.0000000000000D+00
279  2.7800000000000D+00  0.0000000000000D+00  0.0000000000000D+00
280  2.7900000000000D+00  0.0000000000000D+00  0.0000000000000D+00
281  2.8000000000000D+00  0.0000000000000D+00  0.0000000000000D+00
282  2.8100000000000D+00  0.0000000000000D+00  0.0000000000000D+00
283  2.8200000000000D+00  0.0000000000000D+00  0.0000000000000D+00
284  2.8300000000000D+00  0.0000000000000D+00  0.0000000000000D+00
285  2.8400000000000D+00  0.0000000000000D+00  0.0000000000000D+00
286  2.8500000000000D+00  0.0000000000000D+00  0.0000000000000D+00
287  2.8600000000000D+00  0.0000000000000D+00  0.0000000000000D+00
288  2.8700000000000D+00  0.0000000000000D+00  0.0000000000000D+00
289  2.8800000000000D+00  0.0000000000000D+00  0.0000000000000D+00
290  2.8900000000000D+00  0.0000000000000D+00  0.0000000000000D+00
291  2.9000000000000D+00  0.0000000000000D+00  0.0000000000000D+00
292  2.9100000000000D+00  0.0000000000000D+00  0.0000000000000D+00
293  2.9200000000000D+00  0.0000000000000D+00  0.0000000000000D+00
294  2.9300000000000D+00  0.0000000000000D+00  0.0000000000000D+00
295  2.9400000000000D+00  0.0000000000000D+00  0.0000000000000D+00
296  2.9500000000000D+00  0.0000000000000D+00  0.0000000000000D+00
297  2.9600000000000D+00  0.0000000000000D+00  0.0000000000000D+00
298  2.9700000000000D+00  0.0000000000000D+00  0.0000000000000D+00
299  2.9800000000000D+00  0.0000000000000D+00  0.0000000000000D+00
300  2.9900000000000D+00  0.0000000000000D+00  0.0000000000000D+00
301  3.0000000000000D+00  0.0000000000000D+00  0.0000000000000D+00
302  3.0100000000000D+00  0.0000000000000D+00  0.0000000000000D+00
303  3.0200000000000D+00  0.0000000000000D+00  0.0000000000000D+00
304  3.0300000000000D+00  0.0000000000000D+00  0.0000000000000D+00
305  3.0400000000000D+00  0.0000000000000D+00  0.0000000000000D+00
306  3.0500000000000D+00  0.0000000000000D+00  0.0000000000000D+00
307  3.0600000000000D+00  0.0000000000000D+00  0.0000000000000D+00
308  3.0700000000000D+00  0.0000000000000D+00  0.0000000000000D+00
309  3.0800000000000D+00  0.0000000000000D+00  0.0000000000000D+00
310  3.0900000000000D+00  0.0000000000000D+00  0.0000000000000D+00
311  3.1000000000000D+00  0.0000000000000D+00  0.0000000000000D+00
312  3.1100000000000D+00  0.0000000000000D+00  0.0000000000000D+00
313  3.1200000000000D+00  0.0000000000000D+00  0.0000000000000D+00
314  3.1300000000000D+00  0.0000000000000D+00  0.0000000000000D+00
315  3.1400000000000D+00  0.0000000000000D+00  0.0000000000000D+00
316  3.1500000000000D+00  0.0000000000000D+00  0.0000000000000D+00
317  3.1600000000000D+00  0.0000000000000D+00  0.0000000000000D+00
318  3.1700000000000D+00  0.0000000000000D+00  0.0000000000000D+00
319  3.1800000000000D+00  0.0000000000000D+00  0.0000000000000D+00
320  3.1900000000000D+00  0.0000000000000D+00  0.0000000000000D+00
321  3.2000000000000D+00  0.0000000000000D+00  0.0000000000000D+00
322  3.2100000000000D+00  0.0000000000000D+00  0.0000000000000D+00
323  3.2200000000000D+00  0.0000000000000D+00  0.0000000000000D+00
324  3.2300000000000D+00  0.0000000000000D+00  0.0000000000000D+00
325  3.2400000000000D+00  0.0000000000000D+00  0.0000000000000D+00
326  3.2500000000000D+00  0.0000000000000D+00  0.0000000000000D+00
327  3.2600000000000D+00  0.0000000000000D+00  0.0000000000000D+00
328  3.2700000000000D+00  0.0000000000000D+00  0.0000000000000D+00
329  3.2800000000000D+00  0.0000000000000D+00  0.0000000000000D+00
330  3.2900000000000D+00  0.0000000000000D+00  0.0000000000000D+00
331  3.3000000000000D+00  0.0000000000000D+00  0.0000000000000D+00
332  3.3100000000000D+00  0.0000000000000D+00  0.0000000000000D+00
333  3.3200000000000D+00  0.0000000000000D+00  0.0000000000000D+00
334  3.3300000000000D+00  0.0000000000000D+00  0.0000000000000D+00
335  3.3400000000000D+00  0.0000000000000D+00  0.0000000000000D+00
336  3.3500000000000D+00  0.0000000000000D+00  0.0000000000000D+00
337  3.3600000000000D+00  0.0000000000000D+00  0.0000000000000D+00
338  3.3700000000000D+00  0.0000000000000D+00  0.0000000000000D+00
339  3.3800000000000D+00  0.0000000000000D+00  0.0000000000000D+00
340  3.3900000000000D+00  0.0000000000000D+00  0.0000000000000D+00
341  3.4000000000000D+00  0.0000000000000D+00  0.0000000000000D+00
342  3.4100000000000D+00  0.0000000000000D+00  0.0000000000000D+00
343  3.4200000000000D+00  0.0000000000000D+00  0.0000000000000D+00
344  3.4300000000000D+00  0.0000000000000D+00  0.0000000000000D+00
345  3.4400000000000D+00  0.0000000000000D+00  0.0000000000000D+00
346  3.4500000000000D+00  0.0000000000000D+00  0.0000000000000D+00
347  3.4600000000000D+00  0.0000000000000D+00  0.0000000000000D+00
348  3.4700000000000D+00  0.0000000000000D+00  0.0000000000000D+00
349  3.4800000000000D+00  0.0000000000000D+00  0.0000000000000D+00
350  3.4900000000000D+00  0.0000000000000D+00  0.0000000000000D+00
351  3.5000000000000D+00  0.0000000000000D+00  0.0000000000000D+00
352  3.5100000000000D+00  0.0000000000000D+00  0.0000000000000D+00
353  3.5200000000000D+00  0.0000000000000D+00  0.0000000000000D+00
354  3.5300000000000D+00  0.0000000000000D+00  0.0000000000000D+00
355  3.5400000000000D+00  0.0000000000000D+00  0.0000000000000D+00
356  3.5500000000000D+00  0.0000000000000D+00  0.0000000000000D+00
357  3.5600000000000D+00  0.0000000000000D+00  0.0000000000000D+00
358  3.5700000000000D+00  0.0000000000000D+00  0.0000000000000D+00
359  3.5800000000000D+00  0.0000000000000D+00  0.0000000000000D+00
360  3.5900000000000D+00  0.0000000000000D+00  0.0000000000000D+00
361  3.6000000000000D+00  0.0000000000000D+00  0.0000000000000D+00
362  3.6100000000000D+00  0.0000000000000D+00  0.0000000000000D+00
363  3.6200000000000D+00  0.0000000000000D+00  0.0000000000000D+00
364  3.6300000000000D+00  0.0000000000000D+00  0.0000000000000D+00
365  3.6400000000000D+00  0.0000000000000D+00  0.0000000000000D+00
366  3.6500000000000D+00  0.0000000000000D+00  0.0000000000000D+00
367  3.6600000000000D+00  0.0000000000000D+00  0.0000000000000D+00
368  3.6700000000000D+00  0.0000000000000D+00  0.0000000000000D+00
369  3.6800000000000D+00  0.0000000000000D+00  0.0000000000000D+00
370  3.6900000000000D+00  0.0000000000000D+00  0.0000000000000D+00
371  3.7000000000000D+00  0.0000000000000D+00  0.0000000000000D+00
372  3.7100000000000D+00  0.0000000000000D+00  0.0000000000000D+00
373  3.7200000000000D+00  0.0000000000000D+00  0.0000000000000D+00
374  3.7300000000000D+00  0.0000000000000D+00  0.0000000000000D+00
375  3.7400000000000D+00  0.0000000000000D+00  0.0000000000000D+00
376  3.7500000000000D+00  0.0000000000000D+00  0.0000000000000D+00
377  3.7600000000000D+00  0.0000000000000D+00  0.0000000000000D+00
378  3.7700000000000D+00  0.0000000000000D+00  0.0000000000000D+00
379  3.7800000000000D+00  0.0000000000000D+00  0.0000000000000D+00
380  3.7900000000000D+00  0.0000000000000D+00  0.0000000000000D+00
381  3.8000000000000D+00  0.0000000000000D+00  0.0000000000000D+00
382  3.8100000000000D+00  0.0000000000000D+00  0.0000000000000D+00
383  3.8200000000000D+00  0.0000000000000D+00  0.0000000000000D+00
384  3.8300000000000D+00  0.0000000000000D+00  0.0000000000000D+00
385  3.8400000000000D+00  0.0000000000000D+00  0.0000000000000D+00
386  3.8500000000000D+00  0.0000000000000D+00  0.0000000000000D+00
387  3.8600000000000D+00  0.0000000000000D+00  0.0000000000000D+00
388  3.8700000000000D+00  0.0000000000000D+00  0.0000000000000D+00
389  3.8800000000000D+00  0.0000000000000D+00  0.0000000000000D+00
390  3.8900000000000D+00  0.0000000000000D+00  0.0000000000000D+00
391  3.9000000000000D+00  0.0000000000000D+00  0.0000000000000D+00
392  3.9100000000000D+00  0.0000000000000D+00  0.0000000000000D+00
393  3.9200000000000D+00  0.0000000000000D+00  0.0000000000000D+00
394  3.9300000000000D+00  0.0000000000000D+00  0.0000000000000D+00
395  3.9400000000000D+00  0.0000000000000D+00  0.0000000000000D+00
396  3.9500000000000D+00  0.0000000000000D+00  0.0000000000000D+00
397  3.9600000000000D+00  0.0000000000000D+00  0.0000000000000D+00
398  3.9700000000000D+00  0.0000000000000D+00  0.0000000000000D+00
399  3.9800000000000D+00  0.0000000000000D+00  0.0000000000000D+00
400  3.9900000000000D+00  0.0000000000000D+00  0.0000000000000D+00
401  4.0000000000000D+00  0.0000000000000D+00  0.0000000000000D+00
402  4.0100000000000D+00  0.0000000000000D+00  0.0000000000000D+00
403  4.0200000000000D+00  0.0000000000000D+00  0.0000000000000D+00
404  4.0300000000000D+00  0.0000000000000D+00  0.0000000000000D+00
405  4.0400000000000D+00  0.0000000000000D+00  0.0000000000000D+00
406  4.0500000000000D+00  0.0000000000000D+00  0.0000000000000D+00
407  4.0600000000000D+00  0.0000000000000D+00  0.0000000000000D+00
408  4.0700000000000D+00  0.0000000000000D+00  0.0000000000000D+00
409  4.0800000000000D+00  0.0000000000000D+00  0.0000000000000D+00
410  4.0900000000000D+00  0.0000000000000D+00  0.0000000000000D+00
411  4.1000000000000D+00  0.0000000000000D+00  0.0000000000000D+00
412  4.1100000000000D+00  0.0000000000000D+00  0.0000000000000D+00
413  4.1200000000000D+00  0.0000000000000D+00  0.0000000000000D+00
414  4.1300000000000D+00  0.0000000000000D+00  0.0000000000000D+00
415  4.1400000000000D+00  0.0000000000000D+00  0.0000000000000D+00
416  4.1500000000000D+00  0.0000000000000D+00  0.0000000000000D+00
417  4.1600000000000D+00  0.0000000000000D+00  0.0000000000000D+00
418  4.1700000000000D+00  0.0000000000000D+00  0.0000000000000D+00
419  4.1800000000000D+00  0.0000000000000D+00  0.0000000000000D+00
420  4.1900000000000D+00  0.0000000000000D+00  0.0000000000000D+00
421  4.2000000000000D+00  0.0000000000000D+00  0.0000000000000D+00
422  4.2100000000000D+00  0.0000000000000D+00  0.0000000000000D+00
423  4.2200000000000D+00  0.0000000000000D+00  0.0000000000000D+00
424  4.2300000000000D+00  0.0000000000000D+00  0.0000000000000D+00
425  4.2400000000000D+00  0.0000000000000D+00  0.0000000000000D+00
426  4.2500000000000D+00  0.0000000000000D+00  0.0000000000000D+00
427  4.2600000000000D+00  0.0000000000000D+00  0.0000000000000D+00
428  4.2700000000000D+00  0.0000000000000D+00  0.0000000000000D+00
429  4.2800000000000D+00  0.0000000000000D+00  0.0000000000000D+00
430  4.2900000000000D+00  0.0000000000000D+00  0.0000000000000D+00
431  4.3000000000000D+00  0.0000000000000D+00  0.0000000000000D+00
432  4.3100000000000D+00  0.0000000000000D+00  0.0000000000000D+00
433  4.3200000000000D+00  0.0000000000000D+00  0.0000000000000D+00
434  4.3300000000000D+00  0.0000000000000D+00  0.0000000000000D+00
435  4.3400000000000D+00  0.0000000000000D+00  0.0000000000000D+00
436  4.3500000000000D+00  0.0000000000000D+00  0.0000000000000D+00
437  4.3600000000000D+00  0.0000000000000D+00  0.0000000000000D+00
438  4.3700000000000D+00  0.0000000000000D+00  0.0000000000000D+00
439  4.3800000000000D+00  0.0000000000000D+00  0.0000000000000D+00
440  4.3900000000000D+00  0.0000000000000D+00  0.0000000000000D+00
441  4.4000000000000D+00  0.0000000000000D+00  0.0000000000000D+00
442  4.4100000000000D+00  0.0000000000000D+00  0.0000000000000D+00
443  4.4200000000000D+00  0.0000000000000D+00  0.0000000000000D+00
444  4.4300000000000D+00  0.0000000000000D+00  0.0000000000000D+00