I     ONCVPSP  r_core=  2.02  2.17  2.28
53.0000      7.0000      160325    zatom,zion,pspd
8   -1013   2     4   600     0    pspcod,pspxc,lmax,lloc,mmax,r2well
5.99000000  4.00000000  0.00000000    rchrg fchrg qchrg
2     2     2     0     0    nproj
1                 extension_switch
0                         5.9930980074991D+00  8.0925536859991D-01
1  0.0000000000000D+00  1.7488788195408D-13 -3.4345921939849D-11
2  1.0000000000000D-02  2.2421669173638D-02  5.2282664254713D-03
3  2.0000000000000D-02  4.4843120601052D-02  1.0381108743911D-02
4  3.0000000000000D-02  6.7264106686726D-02  1.5383525296662D-02
5  4.0000000000000D-02  8.9684320208129D-02  2.0161357352641D-02
6  5.0000000000000D-02  1.1210336468110D-01  2.4641705657856D-02
7  6.0000000000000D-02  1.3452072493977D-01  2.8753341112100D-02
8  7.0000000000000D-02  1.5693573800235D-01  3.2427107655554D-02
9  8.0000000000000D-02  1.7934756429386D-01  3.5596315482432D-02
10  9.0000000000000D-02  2.0175515929671D-01  3.8197122741498D-02
11  1.0000000000000D-01  2.2415724569976D-01  4.0168903934110D-02
12  1.1000000000000D-01  2.4655228611602D-01  4.1454603279223D-02
13  1.2000000000000D-01  2.6893845643908D-01  4.2001071381200D-02
14  1.3000000000000D-01  2.9131361990735D-01  4.1759383610159D-02
15  1.4000000000000D-01  3.1367530194541D-01  4.0685138685480D-02
16  1.5000000000000D-01  3.3602066585043D-01  3.8738736040734D-02
17  1.6000000000000D-01  3.5834648939160D-01  3.5885630642353D-02
18  1.7000000000000D-01  3.8064914238937D-01  3.2096564034388D-02
19  1.8000000000000D-01  4.0292456534069D-01  2.7347770487119D-02
20  1.9000000000000D-01  4.2516824915554D-01  2.1621157238048D-02
21  2.0000000000000D-01  4.4737521606889D-01  1.4904457928993D-02
22  2.1000000000000D-01  4.6954000179146D-01  7.1913584623319D-03
23  2.2000000000000D-01  4.9165663896121D-01 -1.5184053775156D-03
24  2.3000000000000D-01  5.1371864195626D-01 -1.1218979065212D-02
25  2.4000000000000D-01  5.3571899312863D-01 -2.1898349637470D-02
26  2.5000000000000D-01  5.5765013051668D-01 -3.3538335426546D-02
27  2.6000000000000D-01  5.7950393709230D-01 -4.6114605360847D-02
28  2.7000000000000D-01  6.0127173159731D-01 -5.9596727836436D-02
29  2.8000000000000D-01  6.2294426102163D-01 -7.3948249030018D-02
30  2.9000000000000D-01  6.4451169477352D-01 -8.9126800391189D-02
31  3.0000000000000D-01  6.6596362059016D-01 -1.0508423491988D-01
32  3.1000000000000D-01  6.8728904223446D-01 -1.2176679170418D-01
33  3.2000000000000D-01  7.0847637902132D-01 -1.3911528806573D-01
34  3.3000000000000D-01  7.2951346721397D-01 -1.5706533853361D-01
35  3.4000000000000D-01  7.5038756332807D-01 -1.7554759974538D-01
36  3.5000000000000D-01  7.7108534937837D-01 -1.9448804025486D-01
37  3.6000000000000D-01  7.9159294009906D-01 -2.1380823411140D-01
38  3.7000000000000D-01  8.1189589216599D-01 -2.3342567696597D-01
39  3.8000000000000D-01  8.3197921544503D-01 -2.5325412335428D-01
40  3.9000000000000D-01  8.5182738628697D-01 -2.7320394370847D-01
41  4.0000000000000D-01  8.7142436288550D-01 -2.9318249955638D-01
42  4.1000000000000D-01  8.9075360271049D-01 -3.1309453528103D-01
43  4.2000000000000D-01  9.0979808202432D-01 -3.3284258473425D-01
44  4.3000000000000D-01  9.2854031748439D-01 -3.5232739092648D-01
45  4.4000000000000D-01  9.4696238983019D-01 -3.7144833695117D-01
46  4.5000000000000D-01  9.6504596964814D-01 -3.9010388624609D-01
47  4.6000000000000D-01  9.8277234520220D-01 -4.0819203024654D-01
48  4.7000000000000D-01  1.0001224523130D+00 -4.2561074144677D-01
49  4.8000000000000D-01  1.0170769062625D+00 -4.4225842985494D-01
50  4.9000000000000D-01  1.0336160356947D+00 -4.5803440080666D-01
51  5.0000000000000D-01  1.0497199184793D+00 -4.7283931208960D-01
52  5.1000000000000D-01  1.0653684194953D+00 -4.8657562832825D-01
53  5.2000000000000D-01  1.0805412302895D+00 -4.9914807058490D-01
54  5.3000000000000D-01  1.0952179105543D+00 -5.1046405914747D-01
55  5.4000000000000D-01  1.1093779313670D+00 -5.2043414749998D-01
56  5.5000000000000D-01  1.1230007201215D+00 -5.2897244550449D-01
57  5.6000000000000D-01  1.1360657070815D+00 -5.3599702986668D-01
58  5.7000000000000D-01  1.1485523734725D+00 -5.4143034000765D-01
59  5.8000000000000D-01  1.1604403010275D+00 -5.4519955752554D-01
60  5.9000000000000D-01  1.1717092228919D+00 -5.4723696749815D-01
61  6.0000000000000D-01  1.1823390757857D+00 -5.4748029995461D-01
62  6.1000000000000D-01  1.1923100533174D+00 -5.4587304992832D-01
63  6.2000000000000D-01  1.2016026603336D+00 -5.4236477459502D-01
64  6.3000000000000D-01  1.2101977681834D+00 -5.3691136609837D-01
65  6.4000000000000D-01  1.2180766707705D+00 -5.2947529877120D-01
66  6.5000000000000D-01  1.2252211412574D+00 -5.2002584957121D-01
67  6.6000000000000D-01  1.2316134892824D+00 -5.0853929066824D-01
68  6.7000000000000D-01  1.2372366185417D+00 -4.9499905324110D-01
69  6.8000000000000D-01  1.2420740845841D+00 -4.7939586167018D-01
70  6.9000000000000D-01  1.2461101526595D+00 -4.6172783744174D-01
71  7.0000000000000D-01  1.2493298554588D+00 -4.4200057221534D-01
72  7.1000000000000D-01  1.2517190505741D+00 -4.2022716964255D-01
73  7.2000000000000D-01  1.2532644775082D+00 -3.9642825566427D-01
74  7.3000000000000D-01  1.2539538140534D+00 -3.7063195715581D-01
75  7.4000000000000D-01  1.2537757318597D+00 -3.4287384893041D-01
76  7.5000000000000D-01  1.2527199510062D+00 -3.1319686925460D-01
77  7.6000000000000D-01  1.2507772933884D+00 -2.8165120417035D-01
78  7.7000000000000D-01  1.2479397347308D+00 -2.4829414106034D-01
79  7.8000000000000D-01  1.2442004550331D+00 -2.1318989203202D-01
80  7.9000000000000D-01  1.2395538872561D+00 -1.7640938783240D-01
81  8.0000000000000D-01  1.2339957640545D+00 -1.3803004314056D-01
82  8.1000000000000D-01  1.2275231623609D+00 -9.8135494214628D-02
83  8.2000000000000D-01  1.2201345456311D+00 -5.6815309995920D-02
84  8.3000000000000D-01  1.2118298035551D+00 -1.4164677894967D-02
85  8.4000000000000D-01  1.2026102890486D+00  2.9715934400646D-02
86  8.5000000000000D-01  1.1924788523347D+00  7.4721139646405D-02
87  8.6000000000000D-01  1.1814398719365D+00  1.2074101273547D-01
88  8.7000000000000D-01  1.1694992823991D+00  1.6766149171799D-01
89  8.8000000000000D-01  1.1566645985708D+00  2.1536479640639D-01
90  8.9000000000000D-01  1.1429449362738D+00  2.6372986274706D-01
91  9.0000000000000D-01  1.1283510292072D+00  3.1263279106630D-01
92  9.1000000000000D-01  1.1128952419266D+00  3.6194730623469D-01
93  9.2000000000000D-01  1.0965915787590D+00  4.1154522773912D-01
94  9.3000000000000D-01  1.0794556885168D+00  4.6129694760639D-01
95  9.4000000000000D-01  1.0615048648862D+00  5.1107191408637D-01
96  9.5000000000000D-01  1.0427580423767D+00  5.6073911897684D-01
97  9.6000000000000D-01  1.0232357877286D+00  6.1016758645576D-01
98  9.7000000000000D-01  1.0029602866894D+00  6.5922686128066D-01
99  9.8000000000000D-01  9.8195532608095D-01  7.0778749421903D-01
100  9.9000000000000D-01  9.6024627109505D-01  7.5572152258725D-01
101  1.0000000000000D+00  9.3786003776757D-01  8.0290294380020D-01
102  1.0100000000000D+00  9.1482506059788D-01  8.4920817986700D-01
103  1.0200000000000D+00  8.9117125529476D-01  8.9451653081413D-01
104  1.0300000000000D+00  8.6692997664600D-01  9.3871061506712D-01
105  1.0400000000000D+00  8.4213397152605D-01  9.8167679488833D-01
106  1.0500000000000D+00  8.1681732707260D-01  1.0233055850387D+00
107  1.0600000000000D+00  7.9101541408017D-01  1.0634920429115D+00
108  1.0700000000000D+00  7.6476482567686D-01  1.1021361384779D+00
109  1.0800000000000D+00  7.3810331136771D-01  1.1391431024783D+00
110  1.0900000000000D+00  7.1106970654581D-01  1.1744237513960D+00
111  1.1000000000000D+00  6.8370385759167D-01  1.2078947878681D+00
112  1.1100000000000D+00  6.5604654269799D-01  1.2394790752989D+00
113  1.1200000000000D+00  6.2813938857716D-01  1.2691058855784D+00
114  1.1300000000000D+00  6.0002478322281D-01  1.2967111189092D+00
115  1.1400000000000D+00  5.7174578491928D-01  1.3222374949129D+00
116  1.1500000000000D+00  5.4334602770692D-01  1.3456347143006D+00
117  1.1600000000000D+00  5.1486962353124D-01  1.3668595905581D+00
118  1.1700000000000D+00  4.8636106131541D-01  1.3858761511933D+00
119  1.1800000000000D+00  4.5786510321822D-01  1.4026557082937D+00
120  1.1900000000000D+00  4.2942667835128D-01  1.4171768982589D+00
121  1.2000000000000D+00  4.0109077424527D-01  1.4294256907292D+00
122  1.2100000000000D+00  3.7290232636701D-01  1.4393953668502D+00
123  1.2200000000000D+00  3.4490610600663D-01  1.4470864672079D+00
124  1.2300000000000D+00  3.1714660686495D-01  1.4525067099019D+00
125  1.2400000000000D+00  2.8966793067759D-01  1.4556708792936D+00
126  1.2500000000000D+00  2.6251367223120D-01  1.4566006862140D+00
127  1.2600000000000D+00  2.3572680413172D-01  1.4553246005010D+00
128  1.2700000000000D+00  2.0934956169033D-01  1.4518776568147D+00
129  1.2800000000000D+00  1.8342332830533D-01  1.4463012348859D+00
130  1.2900000000000D+00  1.5798852172044D-01  1.4386428154587D+00
131  1.3000000000000D+00  1.3308448154262D-01  1.4289557132162D+00
132  1.3100000000000D+00  1.0874935841003D-01  1.4172987881859D+00
133  1.3200000000000D+00  8.5020005197030D-02  1.4037361372011D+00
134  1.3300000000000D+00  6.1931870646838D-02  1.3883367669813D+00
135  1.3400000000000D+00  3.9518895820070D-02  1.3711742506270D+00
136  1.3500000000000D+00  1.7813413739186D-02  1.3523263693013D+00
137  1.3600000000000D+00 -3.1539473829947D-03  1.3318747409121D+00
138  1.3700000000000D+00 -2.3354356965728D-02  1.3099044377657D+00
139  1.3800000000000D+00 -4.2760870564461D-02  1.2865035950869D+00
140  1.3900000000000D+00 -6.1348513692641D-02  1.2617630124100D+00
141  1.4000000000000D+00 -7.9094360634924D-02  1.2357757498376D+00
142  1.4100000000000D+00 -9.5977607891163D-02  1.2086367211714D+00
143  1.4200000000000D+00 -1.1197964195381D-01  1.1804422859422D+00
144  1.4300000000000D+00 -1.2708410110944D-01  1.1512898423073D+00
145  1.4400000000000D+00 -1.4127693095534D-01  1.1212774228647D+00
146  1.4500000000000D+00 -1.5454643340865D-01  1.0905032952141D+00
147  1.4600000000000D+00 -1.6688330889315D-01  1.0590655693318D+00
148  1.4700000000000D+00 -1.7828069153558D-01  1.0270618134618D+00
149  1.4800000000000D+00 -1.8873417712442D-01  9.9458868040878D-01
150  1.4900000000000D+00 -1.9824184364789D-01  9.6174154598131D-01
151  1.5000000000000D+00 -2.0680426429033D-01  9.2861416105985D-01
152  1.5100000000000D+00 -2.1442451266636D-01  8.9529831917983D-01
153  1.5200000000000D+00 -2.2110816030269D-01  8.6188354061067D-01
154  1.5300000000000D+00 -2.2686326614133D-01  8.2845677486021D-01
155  1.5400000000000D+00 -2.3170035814565D-01  7.9510212228298D-01
156  1.5500000000000D+00 -2.3563240686632D-01  7.6190057639085D-01
157  1.5600000000000D+00 -2.3867479104009D-01  7.2892978756631D-01
158  1.5700000000000D+00 -2.4084525521772D-01  6.9626384916995D-01
159  1.5800000000000D+00 -2.4216385946067D-01  6.6397310689024D-01
160  1.5900000000000D+00 -2.4265292125415D-01  6.3212399161769D-01
161  1.6000000000000D+00 -2.4233694963887D-01  6.0077887687826D-01
162  1.6100000000000D+00 -2.4124257185951D-01  5.6999596035860D-01
163  1.6200000000000D+00 -2.3939845249998D-01  5.3982917074025D-01
164  1.6300000000000D+00 -2.3683520554293D-01  5.1032809863896D-01
165  1.6400000000000D+00 -2.3358529930325D-01  4.8153795300734D-01
166  1.6500000000000D+00 -2.2968295479356D-01  4.5349954112294D-01
167  1.6600000000000D+00 -2.2516403747218D-01  4.2624927356011D-01
168  1.6700000000000D+00 -2.2006594301297D-01  3.9981919178076D-01
169  1.6800000000000D+00 -2.1442747709137D-01  3.7423701955098D-01
170  1.6900000000000D+00 -2.0828872986215D-01  3.4952623556375D-01
171  1.7000000000000D+00 -2.0169094518495D-01  3.2570616818040D-01
172  1.7100000000000D+00 -1.9467638529951D-01  3.0279210946181D-01
173  1.7200000000000D+00 -1.8728819106153D-01  2.8079544914177D-01
174  1.7300000000000D+00 -1.7957023846303D-01  2.5972382551726D-01
175  1.7400000000000D+00 -1.7156699160045D-01  2.3958129366414D-01
176  1.7500000000000D+00 -1.6332335281852D-01  2.2036850784256D-01
177  1.7600000000000D+00 -1.5488451026146D-01  2.0208291816511D-01
178  1.7700000000000D+00 -1.4629578352398D-01  1.8471897851224D-01
179  1.7800000000000D+00 -1.3760246773228D-01  1.6826836522747D-01
180  1.7900000000000D+00 -1.2884967667289D-01  1.5272020395407D-01
181  1.8000000000000D+00 -1.2008218540831D-01  1.3806130350370D-01
182  1.8100000000000D+00 -1.1134427291392D-01  1.2427639458388D-01
183  1.8200000000000D+00 -1.0267956526156D-01  1.1134837170905D-01
184  1.8300000000000D+00 -9.4130879823646D-02  9.9258536511349D-02
185  1.8400000000000D+00 -8.5740071053425D-02  8.7986840465159D-02
186  1.8500000000000D+00 -7.7547878314614D-02  7.7512125354537D-02
187  1.8600000000000D+00 -6.9593776249555D-02  6.7812359665030D-02
188  1.8700000000000D+00 -6.1915828260793D-02  5.8864868831382D-02
189  1.8800000000000D+00 -5.4550543394183D-02  5.0646558383626D-02
190  1.8900000000000D+00 -4.7532737416909D-02  4.3134126908837D-02
191  1.9000000000000D+00 -4.0895398088360D-02  3.6304269248100D-02
192  1.9100000000000D+00 -3.4669555612547D-02  3.0133865853160D-02
193  1.9200000000000D+00 -2.8884158133854D-02  2.4600159450968D-02
194  1.9300000000000D+00 -2.3565953152007D-02  1.9680915383389D-02
195  1.9400000000000D+00 -1.8739374945377D-02  1.5354565752316D-02
196  1.9500000000000D+00 -1.4426696479347D-02  1.1600502859636D-02
197  1.9600000000000D+00 -1.0650021538815D-02  8.4005377231595D-03
198  1.9700000000000D+00 -7.4183558557671D-03  5.7306900369071D-03
199  1.9800000000000D+00 -4.7355521649407D-03  3.5671131291521D-03
200  1.9900000000000D+00 -2.6432288265610D-03  1.9113044174783D-03
201  2.0000000000000D+00 -1.1784326743475D-03  7.6336893970295D-04
202  2.0100000000000D+00 -3.1334122254540D-04  8.9763913108957D-05
203  2.0200000000000D+00  7.5939244007138D-05 -1.9391489490695D-04
204  2.0300000000000D+00  1.3805642926406D-04 -1.8815077876926D-04
205  2.0400000000000D+00  4.9709632737996D-05 -6.0530701424219D-05
206  2.0500000000000D+00 -2.6424519438840D-05  3.1195358033585D-05
207  2.0600000000000D+00 -3.0538118089622D-05  3.4997598198232D-05
208  2.0700000000000D+00  8.4474906155792D-07 -1.0644477948405D-06
209  2.0800000000000D+00  6.8029515989123D-06 -8.4288905071174D-06
210  2.0900000000000D+00  3.1134699556009D-06 -3.8093118188251D-06
211  2.1000000000000D+00 -1.7586094524819D-07  4.1609916476516D-07
212  2.1100000000000D+00 -2.0978720598961D-07  4.9637104513172D-07
213  2.1200000000000D+00  0.0000000000000D+00  0.0000000000000D+00
214  2.1300000000000D+00  0.0000000000000D+00  0.0000000000000D+00
215  2.1400000000000D+00  0.0000000000000D+00  0.0000000000000D+00
216  2.1500000000000D+00  0.0000000000000D+00  0.0000000000000D+00
217  2.1600000000000D+00  0.0000000000000D+00  0.0000000000000D+00
218  2.1700000000000D+00  0.0000000000000D+00  0.0000000000000D+00
219  2.1800000000000D+00  0.0000000000000D+00  0.0000000000000D+00
220  2.1900000000000D+00  0.0000000000000D+00  0.0000000000000D+00
221  2.2000000000000D+00  0.0000000000000D+00  0.0000000000000D+00
222  2.2100000000000D+00  0.0000000000000D+00  0.0000000000000D+00
223  2.2200000000000D+00  0.0000000000000D+00  0.0000000000000D+00
224  2.2300000000000D+00  0.0000000000000D+00  0.0000000000000D+00
225  2.2400000000000D+00  0.0000000000000D+00  0.0000000000000D+00
226  2.2500000000000D+00  0.0000000000000D+00  0.0000000000000D+00
227  2.2600000000000D+00  0.0000000000000D+00  0.0000000000000D+00
228  2.2700000000000D+00  0.0000000000000D+00  0.0000000000000D+00
229  2.2800000000000D+00  0.0000000000000D+00  0.0000000000000D+00
230  2.2900000000000D+00  0.0000000000000D+00  0.0000000000000D+00
231  2.3000000000000D+00  0.0000000000000D+00  0.0000000000000D+00
232  2.3100000000000D+00  0.0000000000000D+00  0.0000000000000D+00
233  2.3200000000000D+00  0.0000000000000D+00  0.0000000000000D+00
234  2.3300000000000D+00  0.0000000000000D+00  0.0000000000000D+00
235  2.3400000000000D+00  0.0000000000000D+00  0.0000000000000D+00
236  2.3500000000000D+00  0.0000000000000D+00  0.0000000000000D+00
237  2.3600000000000D+00  0.0000000000000D+00  0.0000000000000D+00
238  2.3700000000000D+00  0.0000000000000D+00  0.0000000000000D+00
239  2.3800000000000D+00  0.0000000000000D+00  0.0000000000000D+00
240  2.3900000000000D+00  0.0000000000000D+00  0.0000000000000D+00
241  2.4000000000000D+00  0.0000000000000D+00  0.0000000000000D+00
242  2.4100000000000D+00  0.0000000000000D+00  0.0000000000000D+00
243  2.4200000000000D+00  0.0000000000000D+00  0.0000000000000D+00
244  2.4300000000000D+00  0.0000000000000D+00  0.0000000000000D+00
245  2.4400000000000D+00  0.0000000000000D+00  0.0000000000000D+00
246  2.4500000000000D+00  0.0000000000000D+00  0.0000000000000D+00
247  2.4600000000000D+00  0.0000000000000D+00  0.0000000000000D+00
248  2.4700000000000D+00  0.0000000000000D+00  0.0000000000000D+00
249  2.4800000000000D+00  0.0000000000000D+00  0.0000000000000D+00
250  2.4900000000000D+00  0.0000000000000D+00  0.0000000000000D+00
251  2.5000000000000D+00  0.0000000000000D+00  0.0000000000000D+00
252  2.5100000000000D+00  0.0000000000000D+00  0.0000000000000D+00
253  2.5200000000000D+00  0.0000000000000D+00  0.0000000000000D+00
254  2.5300000000000D+00  0.0000000000000D+00  0.0000000000000D+00
255  2.5400000000000D+00  0.0000000000000D+00  0.0000000000000D+00
256  2.5500000000000D+00  0.0000000000000D+00  0.0000000000000D+00
257  2.5600000000000D+00  0.0000000000000D+00  0.0000000000000D+00
258  2.5700000000000D+00  0.0000000000000D+00  0.0000000000000D+00
259  2.5800000000000D+00  0.0000000000000D+00  0.0000000000000D+00
260  2.5900000000000D+00  0.0000000000000D+00  0.0000000000000D+00
261  2.6000000000000D+00  0.0000000000000D+00  0.0000000000000D+00
262  2.6100000000000D+00  0.0000000000000D+00  0.0000000000000D+00
263  2.6200000000000D+00  0.0000000000000D+00  0.0000000000000D+00
264  2.6300000000000D+00  0.0000000000000D+00  0.0000000000000D+00
265  2.6400000000000D+00  0.0000000000000D+00  0.0000000000000D+00
266  2.6500000000000D+00  0.0000000000000D+00  0.0000000000000D+00
267  2.6600000000000D+00  0.0000000000000D+00  0.0000000000000D+00
268  2.6700000000000D+00  0.0000000000000D+00  0.0000000000000D+00
269  2.6800000000000D+00  0.0000000000000D+00  0.0000000000000D+00
270  2.6900000000000D+00  0.0000000000000D+00  0.0000000000000D+00
271  2.7000000000000D+00  0.0000000000000D+00  0.0000000000000D+00
272  2.7100000000000D+00  0.0000000000000D+00  0.0000000000000D+00
273  2.7200000000000D+00  0.0000000000000D+00  0.0000000000000D+00
274  2.7300000000000D+00  0.0000000000000D+00  0.0000000000000D+00
275  2.7400000000000D+00  0.0000000000000D+00  0.0000000000000D+00
276  2.7500000000000D+00  0.0000000000000D+00  0.0000000000000D+00
277  2.7600000000000D+00  0.0000000000000D+00  0.0000000000000D+00
278  2.7700000000000D+00  0.0000000000000D+00  0.0000000000000D+00
279  2.7800000000000D+00  0.0000000000000D+00  0.0000000000000D+00
280  2.7900000000000D+00  0.0000000000000D+00  0.0000000000000D+00
281  2.8000000000000D+00  0.0000000000000D+00  0.0000000000000D+00
282  2.8100000000000D+00  0.0000000000000D+00  0.0000000000000D+00
283  2.8200000000000D+00  0.0000000000000D+00  0.0000000000000D+00
284  2.8300000000000D+00  0.0000000000000D+00  0.0000000000000D+00
285  2.8400000000000D+00  0.0000000000000D+00  0.0000000000000D+00
286  2.8500000000000D+00  0.0000000000000D+00  0.0000000000000D+00
287  2.8600000000000D+00  0.0000000000000D+00  0.0000000000000D+00
288  2.8700000000000D+00  0.0000000000000D+00  0.0000000000000D+00
289  2.8800000000000D+00  0.0000000000000D+00  0.0000000000000D+00
290  2.8900000000000D+00  0.0000000000000D+00  0.0000000000000D+00
291  2.9000000000000D+00  0.0000000000000D+00  0.0000000000000D+00
292  2.9100000000000D+00  0.0000000000000D+00  0.0000000000000D+00
293  2.9200000000000D+00  0.0000000000000D+00  0.0000000000000D+00
294  2.9300000000000D+00  0.0000000000000D+00  0.0000000000000D+00
295  2.9400000000000D+00  0.0000000000000D+00  0.0000000000000D+00
296  2.9500000000000D+00  0.0000000000000D+00  0.0000000000000D+00
297  2.9600000000000D+00  0.0000000000000D+00  0.0000000000000D+00
298  2.9700000000000D+00  0.0000000000000D+00  0.0000000000000D+00
299  2.9800000000000D+00  0.0000000000000D+00  0.0000000000000D+00
300  2.9900000000000D+00  0.0000000000000D+00  0.0000000000000D+00
301  3.0000000000000D+00  0.0000000000000D+00  0.0000000000000D+00
302  3.0100000000000D+00  0.0000000000000D+00  0.0000000000000D+00
303  3.0200000000000D+00  0.0000000000000D+00  0.0000000000000D+00
304  3.0300000000000D+00  0.0000000000000D+00  0.0000000000000D+00
305  3.0400000000000D+00  0.0000000000000D+00  0.0000000000000D+00
306  3.0500000000000D+00  0.0000000000000D+00  0.0000000000000D+00
307  3.0600000000000D+00  0.0000000000000D+00  0.0000000000000D+00
308  3.0700000000000D+00  0.0000000000000D+00  0.0000000000000D+00
309  3.0800000000000D+00  0.0000000000000D+00  0.0000000000000D+00
310  3.0900000000000D+00  0.0000000000000D+00  0.0000000000000D+00
311  3.1000000000000D+00  0.0000000000000D+00  0.0000000000000D+00
312  3.1100000000000D+00  0.0000000000000D+00  0.0000000000000D+00
313  3.1200000000000D+00  0.0000000000000D+00  0.0000000000000D+00
314  3.1300000000000D+00  0.0000000000000D+00  0.0000000000000D+00
315  3.1400000000000D+00  0.0000000000000D+00  0.0000000000000D+00
316  3.1500000000000D+00  0.0000000000000D+00  0.0000000000000D+00
317  3.1600000000000D+00  0.0000000000000D+00  0.0000000000000D+00
318  3.1700000000000D+00  0.0000000000000D+00  0.0000000000000D+00
319  3.1800000000000D+00  0.0000000000000D+00  0.0000000000000D+00
320  3.1900000000000D+00  0.0000000000000D+00  0.0000000000000D+00
321  3.2000000000000D+00  0.0000000000000D+00  0.0000000000000D+00
322  3.2100000000000D+00  0.0000000000000D+00  0.0000000000000D+00
323  3.2200000000000D+00  0.0000000000000D+00  0.0000000000000D+00
324  3.2300000000000D+00  0.0000000000000D+00  0.0000000000000D+00
325  3.2400000000000D+00  0.0000000000000D+00  0.0000000000000D+00
326  3.2500000000000D+00  0.0000000000000D+00  0.0000000000000D+00
327  3.2600000000000D+00  0.0000000000000D+00  0.0000000000000D+00
328  3.2700000000000D+00  0.0000000000000D+00  0.0000000000000D+00
329  3.2800000000000D+00  0.0000000000000D+00  0.0000000000000D+00
330  3.2900000000000D+00  0.0000000000000D+00  0.0000000000000D+00
331  3.3000000000000D+00  0.0000000000000D+00  0.0000000000000D+00
332  3.3100000000000D+00  0.0000000000000D+00  0.0000000000000D+00
333  3.3200000000000D+00  0.0000000000000D+00  0.0000000000000D+00
334  3.3300000000000D+00  0.0000000000000D+00  0.0000000000000D+00
335  3.3400000000000D+00  0.0000000000000D+00  0.0000000000000D+00
336  3.3500000000000D+00  0.0000000000000D+00  0.0000000000000D+00
337  3.3600000000000D+00  0.0000000000000D+00  0.0000000000000D+00
338  3.3700000000000D+00  0.0000000000000D+00  0.0000000000000D+00
339  3.3800000000000D+00  0.0000000000000D+00  0.0000000000000D+00
340  3.3900000000000D+00  0.0000000000000D+00  0.0000000000000D+00
341  3.4000000000000D+00  0.0000000000000D+00  0.0000000000000D+00
342  3.4100000000000D+00  0.0000000000000D+00  0.0000000000000D+00
343  3.4200000000000D+00  0.0000000000000D+00  0.0000000000000D+00
344  3.4300000000000D+00  0.0000000000000D+00  0.0000000000000D+00
345  3.4400000000000D+00  0.0000000000000D+00  0.0000000000000D+00
346  3.4500000000000D+00  0.0000000000000D+00  0.0000000000000D+00
347  3.4600000000000D+00  0.0000000000000D+00  0.0000000000000D+00
348  3.4700000000000D+00  0.0000000000000D+00  0.0000000000000D+00
349  3.4800000000000D+00  0.0000000000000D+00  0.0000000000000D+00
350  3.4900000000000D+00  0.0000000000000D+00  0.0000000000000D+00
351  3.5000000000000D+00  0.0000000000000D+00  0.0000000000000D+00
352  3.5100000000000D+00  0.0000000000000D+00  0.0000000000000D+00
353  3.5200000000000D+00  0.0000000000000D+00  0.0000000000000D+00
354  3.5300000000000D+00  0.0000000000000D+00  0.0000000000000D+00
355  3.5400000000000D+00  0.0000000000000D+00  0.0000000000000D+00
356  3.5500000000000D+00  0.0000000000000D+00  0.0000000000000D+00
357  3.5600000000000D+00  0.0000000000000D+00  0.0000000000000D+00
358  3.5700000000000D+00  0.0000000000000D+00  0.0000000000000D+00
359  3.5800000000000D+00  0.0000000000000D+00  0.0000000000000D+00
360  3.5900000000000D+00  0.0000000000000D+00  0.0000000000000D+00
361  3.6000000000000D+00  0.0000000000000D+00  0.0000000000000D+00
362  3.6100000000000D+00  0.0000000000000D+00  0.0000000000000D+00
363  3.6200000000000D+00  0.0000000000000D+00  0.0000000000000D+00
364  3.6300000000000D+00  0.0000000000000D+00  0.0000000000000D+00
365  3.6400000000000D+00  0.0000000000000D+00  0.0000000000000D+00
366  3.6500000000000D+00  0.0000000000000D+00  0.0000000000000D+00
367  3.6600000000000D+00  0.0000000000000D+00  0.0000000000000D+00
368  3.6700000000000D+00  0.0000000000000D+00  0.0000000000000D+00
369  3.6800000000000D+00  0.0000000000000D+00  0.0000000000000D+00
370  3.6900000000000D+00  0.0000000000000D+00  0.0000000000000D+00
371  3.7000000000000D+00  0.0000000000000D+00  0.0000000000000D+00
372  3.7100000000000D+00  0.0000000000000D+00  0.0000000000000D+00
373  3.7200000000000D+00  0.0000000000000D+00  0.0000000000000D+00
374  3.7300000000000D+00  0.0000000000000D+00  0.0000000000000D+00
375  3.7400000000000D+00  0.0000000000000D+00  0.0000000000000D+00
376  3.7500000000000D+00  0.0000000000000D+00  0.0000000000000D+00
377  3.7600000000000D+00  0.0000000000000D+00  0.0000000000000D+00
378  3.7700000000000D+00  0.0000000000000D+00  0.0000000000000D+00
379  3.7800000000000D+00  0.0000000000000D+00  0.0000000000000D+00
380  3.7900000000000D+00  0.0000000000000D+00  0.0000000000000D+00
381  3.8000000000000D+00  0.0000000000000D+00  0.0000000000000D+00
382  3.8100000000000D+00  0.0000000000000D+00  0.0000000000000D+00
383  3.8200000000000D+00  0.0000000000000D+00  0.0000000000000D+00
384  3.8300000000000D+00  0.0000000000000D+00  0.0000000000000D+00
385  3.8400000000000D+00  0.0000000000000D+00  0.0000000000000D+00
386  3.8500000000000D+00  0.0000000000000D+00  0.0000000000000D+00
387  3.8600000000000D+00  0.0000000000000D+00  0.0000000000000D+00
388  3.8700000000000D+00  0.0000000000000D+00  0.0000000000000D+00
389  3.8800000000000D+00  0.0000000000000D+00  0.0000000000000D+00
390  3.8900000000000D+00  0.0000000000000D+00  0.0000000000000D+00
391  3.9000000000000D+00  0.0000000000000D+00  0.0000000000000D+00
392  3.9100000000000D+00  0.0000000000000D+00  0.0000000000000D+00
393  3.9200000000000D+00  0.0000000000000D+00  0.0000000000000D+00
394  3.9300000000000D+00  0.0000000000000D+00  0.0000000000000D+00
395  3.9400000000000D+00  0.0000000000000D+00  0.0000000000000D+00
396  3.9500000000000D+00  0.0000000000000D+00  0.0000000000000D+00
397  3.9600000000000D+00  0.0000000000000D+00  0.0000000000000D+00
398  3.9700000000000D+00  0.0000000000000D+00  0.0000000000000D+00
399  3.9800000000000D+00  0.0000000000000D+00  0.0000000000000D+00
400  3.9900000000000D+00  0.0000000000000D+00  0.0000000000000D+00
401  4.0000000000000D+00  0.0000000000000D+00  0.0000000000000D+00
402  4.0100000000000D+00  0.0000000000000D+00  0.0000000000000D+00
403  4.0200000000000D+00  0.0000000000000D+00  0.0000000000000D+00
404  4.0300000000000D+00  0.0000000000000D+00  0.0000000000000D+00
405  4.0400000000000D+00  0.0000000000000D+00  0.0000000000000D+00
406  4.0500000000000D+00  0.0000000000000D+00  0.0000000000000D+00
407  4.0600000000000D+00  0.0000000000000D+00  0.0000000000000D+00
408  4.0700000000000D+00  0.0000000000000D+00  0.0000000000000D+00
409  4.0800000000000D+00  0.0000000000000D+00  0.0000000000000D+00
410  4.0900000000000D+00  0.0000000000000D+00  0.0000000000000D+00
411  4.1000000000000D+00  0.0000000000000D+00  0.0000000000000D+00
412  4.1100000000000D+00  0.0000000000000D+00  0.0000000000000D+00
413  4.1200000000000D+00  0.0000000000000D+00  0.0000000000000D+00
414  4.1300000000000D+00  0.0000000000000D+00  0.0000000000000D+00
415  4.1400000000000D+00  0.0000000000000D+00  0.0000000000000D+00
416  4.1500000000000D+00  0.0000000000000D+00  0.0000000000000D+00
417  4.1600000000000D+00  0.0000000000000D+00  0.0000000000000D+00
418  4.1700000000000D+00  0.0000000000000D+00  0.0000000000000D+00
419  4.1800000000000D+00  0.0000000000000D+00  0.0000000000000D+00
420  4.1900000000000D+00  0.0000000000000D+00  0.0000000000000D+00
421  4.2000000000000D+00  0.0000000000000D+00  0.0000000000000D+00
422  4.2100000000000D+00  0.0000000000000D+00  0.0000000000000D+00
423  4.2200000000000D+00  0.0000000000000D+00  0.0000000000000D+00
424  4.2300000000000D+00  0.0000000000000D+00  0.0000000000000D+00
425  4.2400000000000D+00  0.0000000000000D+00  0.0000000000000D+00
426  4.2500000000000D+00  0.0000000000000D+00  0.0000000000000D+00
427  4.2600000000000D+00  0.0000000000000D+00  0.0000000000000D+00
428  4.2700000000000D+00  0.0000000000000D+00  0.0000000000000D+00
429  4.2800000000000D+00  0.0000000000000D+00  0.0000000000000D+00
430  4.2900000000000D+00  0.0000000000000D+00  0.0000000000000D+00
431  4.3000000000000D+00  0.0000000000000D+00  0.0000000000000D+00
432  4.3100000000000D+00  0.0000000000000D+00  0.0000000000000D+00
433  4.3200000000000D+00  0.0000000000000D+00  0.0000000000000D+00
434  4.3300000000000D+00  0.0000000000000D+00  0.0000000000000D+00
435  4.3400000000000D+00  0.0000000000000D+00  0.0000000000000D+00
436  4.3500000000000D+00  0.0000000000000D+00  0.0000000000000D+00
437  4.3600000000000D+00  0.0000000000000D+00  0.0000000000000D+00
438  4.3700000000000D+00  0.0000000000000D+00  0.0000000000000D+00
439  4.3800000000000D+00  0.0000000000000D+00  0.0000000000000D+00
440  4.3900000000000D+00  0.0000000000000D+00  0.0000000000000D+00
441  4.4000000000000D+00  0.0000000000000D+00  0.0000000000000D+00
442  4.4100000000000D+00  0.0000000000000D+00  0.0000000000000D+00
443  4.4200000000000D+00  0.0000000000000D+00  0.0000000000000D+00
444  4.4300000000000D+00  0.0000000000000D+00  0.0000000000000D+00