He    ONCVPSP  r_core=  1.26  1.16
2.0000      2.0000      150901    zatom,zion,pspd
8   -1013   1     1   600     0    pspcod,pspxc,lmax,lloc,mmax,r2well
5.99000000  0.00000000  0.00000000    rchrg fchrg qchrg
2     0     0     0     0    nproj
0                 extension_switch
0                        -6.0722380731499D+00 -9.0869086223197D-01
1  0.0000000000000D+00 -9.0611989023159D-09 -3.8737767882324D-08
2  1.0000000000000D-02  1.3947371921592D-01  6.0983010117612D-02
3  2.0000000000000D-02  2.7822944897064D-01  1.2086955711755D-01
4  3.0000000000000D-02  4.1555453235579D-01  1.7858560635838D-01
5  4.0000000000000D-02  5.5074689943971D-01  2.3310152842935D-01
6  5.0000000000000D-02  6.8312016799774D-01  2.8345318297537D-01
7  6.0000000000000D-02  8.1200851998729D-01  3.2876168906845D-01
8  7.0000000000000D-02  9.3677129041135D-01  3.6825149179433D-01
9  8.0000000000000D-02  1.0567972142754D+00  4.0126637346057D-01
10  9.0000000000000D-02  1.1715082878402D+00  4.2728310391890D-01
11  1.0000000000000D-01  1.2803632118232D+00  4.4592247653416D-01
12  1.1000000000000D-01  1.3828603960937D+00  4.5695753281315D-01
13  1.2000000000000D-01  1.4785405172281D+00  4.6031883805114D-01
14  1.3000000000000D-01  1.5669886315526D+00  4.5609673099220D-01
15  1.4000000000000D-01  1.6478358565562D+00  4.4454053092303D-01
16  1.5000000000000D-01  1.7207606424369D+00  4.2605474443326D-01
17  1.6000000000000D-01  1.7854896627592D+00  4.0119237003373D-01
18  1.7000000000000D-01  1.8417983585388D+00  3.7064545086879D-01
19  1.8000000000000D-01  1.8895111734499D+00  3.3523307301901D-01
20  1.9000000000000D-01  1.9285015192334D+00  2.9588704870976D-01
21  2.0000000000000D-01  1.9586915098776D+00  2.5363555964679D-01
22  2.1000000000000D-01  1.9800515008749D+00  2.0958506541714D-01
23  2.2000000000000D-01  1.9925994660722D+00  1.6490080530023D-01
24  2.3000000000000D-01  1.9964002395842D+00  1.2078623895887D-01
25  2.4000000000000D-01  1.9915646442423D+00  7.8461782461583D-02
26  2.5000000000000D-01  1.9782485214260D+00  3.9143201157716D-02
27  2.6000000000000D-01  1.9566516702071D+00  4.0200203825122D-03
28  2.7000000000000D-01  1.9270166968437D+00 -2.5765690848154D-02
29  2.8000000000000D-01  1.8896277690979D+00 -4.9139818717255D-02
30  2.9000000000000D-01  1.8448092638931D+00 -6.5115656874590D-02
31  3.0000000000000D-01  1.7929242917084D+00 -7.2812002304776D-02
32  3.1000000000000D-01  1.7343730770331D+00 -7.1469608176070D-02
33  3.2000000000000D-01  1.6695911713187D+00 -6.0465733627203D-02
34  3.3000000000000D-01  1.5990474732857D+00 -3.9326560073500D-02
35  3.4000000000000D-01  1.5232420312258D+00 -7.7372759382732D-03
36  3.5000000000000D-01  1.4427036031092D+00  3.4450333611231D-02
37  3.6000000000000D-01  1.3579869528381D+00  8.7212918667510D-02
38  3.7000000000000D-01  1.2696698648164D+00  1.5035330675385D-01
39  3.8000000000000D-01  1.1783498640485D+00  2.2350100400153D-01
40  3.9000000000000D-01  1.0846406350866D+00  3.0611546370297D-01
41  4.0000000000000D-01  9.8916814018881D-01  3.9749208967786D-01
42  4.1000000000000D-01  8.9256644482444D-01  4.9677090092582D-01
43  4.2000000000000D-01  7.9547326698921D-01  6.0294774351999D-01
44  4.3000000000000D-01  6.9852527545067D-01  7.1488789611225D-01
45  4.4000000000000D-01  6.0235317080912D-01  8.3134187729318D-01
46  4.5000000000000D-01  5.0757659190505D-01  9.5096322692516D-01
47  4.6000000000000D-01  4.1479889839551D-01  1.0723280000012D+00
48  4.7000000000000D-01  3.2460188802968D-01  1.1939556811458D+00
49  4.8000000000000D-01  2.3754051405381D-01  1.3143312011357D+00
50  4.9000000000000D-01  1.5413767405462D-01  1.4319277143305D+00
51  5.0000000000000D-01  7.4879146210080D-02  1.5452297782048D+00
52  5.1000000000000D-01  2.0875218158673D-04  1.6527565637447D+00
53  5.2000000000000D-01 -6.9476172405621D-02  1.7530847187659D+00
54  5.3000000000000D-01 -1.3382891890713D-01  1.8448705055865D+00
55  5.4000000000000D-01 -1.9255707876596D-01  1.9268708402238D+00
56  5.5000000000000D-01 -2.4542567307073D-01  1.9979628725970D+00
57  5.6000000000000D-01 -2.9225966822659D-01  2.0571617660969D+00
58  5.7000000000000D-01 -3.3294581460145D-01  2.1036363603909D+00
59  5.8000000000000D-01 -3.6743375391883D-01  2.1367224331063D+00
60  5.9000000000000D-01 -3.9573635172159D-01  2.1559333139158D+00
61  6.0000000000000D-01 -4.1792922320028D-01  2.1609676478146D+00
62  6.1000000000000D-01 -4.3414943394753D-01  2.1517141527063D+00
63  6.2000000000000D-01 -4.4459337137690D-01  2.1282532684921D+00
64  6.3000000000000D-01 -4.4951379755677D-01  2.0908556505462D+00
65  6.4000000000000D-01 -4.4921610947730D-01  2.0399775177221D+00
66  6.5000000000000D-01 -4.4405384820402D-01  1.9762529236811D+00
67  6.6000000000000D-01 -4.3442351347188D-01  1.9004830785829D+00
68  6.7000000000000D-01 -4.2075875466631D-01  1.8136229047274D+00
69  6.8000000000000D-01 -4.0352402259396D-01  1.7167650638110D+00
70  6.9000000000000D-01 -3.8320777848477D-01  1.6111217432862D+00
71  7.0000000000000D-01 -3.6031536703667D-01  1.4980045339771D+00
72  7.1000000000000D-01 -3.3536166869391D-01  1.3788027693212D+00
73  7.2000000000000D-01 -3.0886365256805D-01  1.2549607278088D+00
74  7.3000000000000D-01 -2.8133295515859D-01  1.1279541229943D+00
75  7.4000000000000D-01 -2.5326861127529D-01  9.9926631971526D-01
76  7.5000000000000D-01 -2.2515006217503D-01  8.7036472022942D-01
77  7.6000000000000D-01 -1.9743056193071D-01  7.4267775977542D-01
78  7.7000000000000D-01 -1.7053109648630D-01  6.1757293759909D-01
79  7.8000000000000D-01 -1.4483492082636D-01  4.9633628695879D-01
80  7.9000000000000D-01 -1.2068280844345D-01  3.8015365670433D-01
81  8.0000000000000D-01 -9.8369094002261D-02  2.7009413826190D-01
82  8.1000000000000D-01 -7.8138575097520D-02  1.6709592623034D-01
83  8.2000000000000D-01 -6.0184322604923D-02  7.1954849338683D-02
84  8.3000000000000D-01 -4.4646431691369D-02 -1.4684247575657D-02
85  8.4000000000000D-01 -3.1611727465511D-02 -9.2333149351195D-02
86  8.5000000000000D-01 -2.1114420904415D-02 -1.6066288427681D-01
87  8.6000000000000D-01 -1.3137692479785D-02 -2.1950330816276D-01
88  8.7000000000000D-01 -7.6161632121394D-03 -2.6883972236588D-01
89  8.8000000000000D-01 -4.4391960691396D-03 -3.0880664873584D-01
90  8.9000000000000D-01 -3.4549550344847D-03 -3.3967894047661D-01
91  9.0000000000000D-01 -4.4751351135123D-03 -3.6186045952316D-01
92  9.1000000000000D-01 -7.2802642789581D-03 -3.7587059720338D-01
93  9.2000000000000D-01 -1.1625468120720D-02 -3.8232895481734D-01
94  9.3000000000000D-01 -1.7246579926807D-02 -3.8193853360151D-01
95  9.4000000000000D-01 -2.3866473221238D-02 -3.7546780880112D-01
96  9.5000000000000D-01 -3.1201490502268D-02 -3.6373207986460D-01
97  9.6000000000000D-01 -3.8967841076524D-02 -3.4757449793909D-01
98  9.7000000000000D-01 -4.6887842610108D-02 -3.2784717244087D-01
99  9.8000000000000D-01 -5.4695884802507D-02 -3.0539275178297D-01
100  9.9000000000000D-01 -6.2144000113897D-02 -2.8102685771707D-01
101  1.0000000000000D+00 -6.9006934803553D-02 -2.5552173044664D-01
102  1.0100000000000D+00 -7.5086623993592D-02 -2.2959141216358D-01
103  1.0200000000000D+00 -8.0215986658450D-02 -2.0387876097754D-01
104  1.0300000000000D+00 -8.4261970190689D-02 -1.7894454594686D-01
105  1.0400000000000D+00 -8.7127789529273D-02 -1.5525882701230D-01
106  1.0500000000000D+00 -8.8754320765696D-02 -1.3319477744726D-01
107  1.0600000000000D+00 -8.9120627422127D-02 -1.1302504914601D-01
108  1.0700000000000D+00 -8.8243613541956D-02 -9.4920730586158D-02
109  1.0800000000000D+00 -8.6176815327886D-02 -7.8952891240225D-02
110  1.0900000000000D+00 -8.3008360672492D-02 -6.5096649584463D-02
111  1.1000000000000D+00 -7.8858140177710D-02 -5.3237655850737D-02
112  1.1100000000000D+00 -7.3874251978175D-02 -4.3180819725740D-02
113  1.1200000000000D+00 -6.8228794728766D-02 -3.4661073658909D-02
114  1.1300000000000D+00 -6.2114387457650D-02 -2.7350313229244D-02
115  1.1400000000000D+00 -5.5726823298855D-02 -2.0924150769496D-02
116  1.1500000000000D+00 -4.9302124174455D-02 -1.4891229132847D-02
117  1.1600000000000D+00 -4.3059018199464D-02 -8.8345174312854D-03
118  1.1700000000000D+00 -3.6986725934173D-02 -3.3286411649296D-03
119  1.1800000000000D+00 -3.0979010296973D-02  6.7894899991779D-04
120  1.1900000000000D+00 -2.5039764131989D-02  2.7674375808196D-03
121  1.2000000000000D+00 -1.9406343219483D-02  3.5703853600073D-03
122  1.2100000000000D+00 -1.4257439880873D-02  3.5058415862842D-03
123  1.2200000000000D+00 -9.7349427585298D-03  2.8779169484675D-03
124  1.2300000000000D+00 -5.9733486834445D-03  2.0028472802108D-03
125  1.2400000000000D+00 -3.0577659295700D-03  1.1243333296443D-03
126  1.2500000000000D+00 -1.1110542091830D-03  4.5370845059137D-04
127  1.2600000000000D+00 -1.8904401381423D-04  1.1961535392232D-04
128  1.2700000000000D+00  4.2057319029439D-05  1.3803388810894D-05
129  1.2800000000000D+00 -2.8241046684478D-07  5.2082683975262D-09
130  1.2900000000000D+00 -1.2731170415722D-05  1.2490658569583D-06
131  1.3000000000000D+00  2.3147993403826D-06  9.2193380388395D-08
132  1.3100000000000D+00  4.2962859486102D-07  2.0034812530885D-09
133  1.3200000000000D+00  5.5238842221913D-08 -1.3988691502675D-07
134  1.3300000000000D+00  0.0000000000000D+00  0.0000000000000D+00
135  1.3400000000000D+00  0.0000000000000D+00  0.0000000000000D+00
136  1.3500000000000D+00  0.0000000000000D+00  0.0000000000000D+00
137  1.3600000000000D+00  0.0000000000000D+00  0.0000000000000D+00
138  1.3700000000000D+00  0.0000000000000D+00  0.0000000000000D+00
139  1.3800000000000D+00  0.0000000000000D+00  0.0000000000000D+00
140  1.3900000000000D+00  0.0000000000000D+00  0.0000000000000D+00
141  1.4000000000000D+00  0.0000000000000D+00  0.0000000000000D+00
142  1.4100000000000D+00  0.0000000000000D+00  0.0000000000000D+00
143  1.4200000000000D+00  0.0000000000000D+00  0.0000000000000D+00
144  1.4300000000000D+00  0.0000000000000D+00  0.0000000000000D+00
145  1.4400000000000D+00  0.0000000000000D+00  0.0000000000000D+00
146  1.4500000000000D+00  0.0000000000000D+00  0.0000000000000D+00
147  1.4600000000000D+00  0.0000000000000D+00  0.0000000000000D+00
148  1.4700000000000D+00  0.0000000000000D+00  0.0000000000000D+00
149  1.4800000000000D+00  0.0000000000000D+00  0.0000000000000D+00
150  1.4900000000000D+00  0.0000000000000D+00  0.0000000000000D+00
151  1.5000000000000D+00  0.0000000000000D+00  0.0000000000000D+00
152  1.5100000000000D+00  0.0000000000000D+00  0.0000000000000D+00
153  1.5200000000000D+00  0.0000000000000D+00  0.0000000000000D+00
154  1.5300000000000D+00  0.0000000000000D+00  0.0000000000000D+00
155  1.5400000000000D+00  0.0000000000000D+00  0.0000000000000D+00
156  1.5500000000000D+00  0.0000000000000D+00  0.0000000000000D+00
157  1.5600000000000D+00  0.0000000000000D+00  0.0000000000000D+00
158  1.5700000000000D+00  0.0000000000000D+00  0.0000000000000D+00
159  1.5800000000000D+00  0.0000000000000D+00  0.0000000000000D+00
160  1.5900000000000D+00  0.0000000000000D+00  0.0000000000000D+00
161  1.6000000000000D+00  0.0000000000000D+00  0.0000000000000D+00
162  1.6100000000000D+00  0.0000000000000D+00  0.0000000000000D+00
163  1.6200000000000D+00  0.0000000000000D+00  0.0000000000000D+00
164  1.6300000000000D+00  0.0000000000000D+00  0.0000000000000D+00
165  1.6400000000000D+00  0.0000000000000D+00  0.0000000000000D+00
166  1.6500000000000D+00  0.0000000000000D+00  0.0000000000000D+00
167  1.6600000000000D+00  0.0000000000000D+00  0.0000000000000D+00
168  1.6700000000000D+00  0.0000000000000D+00  0.0000000000000D+00
169  1.6800000000000D+00  0.0000000000000D+00  0.0000000000000D+00
170  1.6900000000000D+00  0.0000000000000D+00  0.0000000000000D+00
171  1.7000000000000D+00  0.0000000000000D+00  0.0000000000000D+00
172  1.7100000000000D+00  0.0000000000000D+00  0.0000000000000D+00
173  1.7200000000000D+00  0.0000000000000D+00  0.0000000000000D+00
174  1.7300000000000D+00  0.0000000000000D+00  0.0000000000000D+00
175  1.7400000000000D+00  0.0000000000000D+00  0.0000000000000D+00
176  1.7500000000000D+00  0.0000000000000D+00  0.0000000000000D+00
177  1.7600000000000D+00  0.0000000000000D+00  0.0000000000000D+00
178  1.7700000000000D+00  0.0000000000000D+00  0.0000000000000D+00
179  1.7800000000000D+00  0.0000000000000D+00  0.0000000000000D+00
180  1.7900000000000D+00  0.0000000000000D+00  0.0000000000000D+00
181  1.8000000000000D+00  0.0000000000000D+00  0.0000000000000D+00
182  1.8100000000000D+00  0.0000000000000D+00  0.0000000000000D+00
183  1.8200000000000D+00  0.0000000000000D+00  0.0000000000000D+00
184  1.8300000000000D+00  0.0000000000000D+00  0.0000000000000D+00
185  1.8400000000000D+00  0.0000000000000D+00  0.0000000000000D+00
186  1.8500000000000D+00  0.0000000000000D+00  0.0000000000000D+00
187  1.8600000000000D+00  0.0000000000000D+00  0.0000000000000D+00
188  1.8700000000000D+00  0.0000000000000D+00  0.0000000000000D+00
189  1.8800000000000D+00  0.0000000000000D+00  0.0000000000000D+00
190  1.8900000000000D+00  0.0000000000000D+00  0.0000000000000D+00
191  1.9000000000000D+00  0.0000000000000D+00  0.0000000000000D+00
192  1.9100000000000D+00  0.0000000000000D+00  0.0000000000000D+00
193  1.9200000000000D+00  0.0000000000000D+00  0.0000000000000D+00
194  1.9300000000000D+00  0.0000000000000D+00  0.0000000000000D+00
195  1.9400000000000D+00  0.0000000000000D+00  0.0000000000000D+00
196  1.9500000000000D+00  0.0000000000000D+00  0.0000000000000D+00
197  1.9600000000000D+00  0.0000000000000D+00  0.0000000000000D+00
198  1.9700000000000D+00  0.0000000000000D+00  0.0000000000000D+00
199  1.9800000000000D+00  0.0000000000000D+00  0.0000000000000D+00
200  1.9900000000000D+00  0.0000000000000D+00  0.0000000000000D+00
201  2.0000000000000D+00  0.0000000000000D+00  0.0000000000000D+00
202  2.0100000000000D+00  0.0000000000000D+00  0.0000000000000D+00
203  2.0200000000000D+00  0.0000000000000D+00  0.0000000000000D+00
204  2.0300000000000D+00  0.0000000000000D+00  0.0000000000000D+00
205  2.0400000000000D+00  0.0000000000000D+00  0.0000000000000D+00
206  2.0500000000000D+00  0.0000000000000D+00  0.0000000000000D+00
207  2.0600000000000D+00  0.0000000000000D+00  0.0000000000000D+00
208  2.0700000000000D+00  0.0000000000000D+00  0.0000000000000D+00
209  2.0800000000000D+00  0.0000000000000D+00  0.0000000000000D+00
210  2.0900000000000D+00  0.0000000000000D+00  0.0000000000000D+00
211  2.1000000000000D+00  0.0000000000000D+00  0.0000000000000D+00
212  2.1100000000000D+00  0.0000000000000D+00  0.0000000000000D+00
213  2.1200000000000D+00  0.0000000000000D+00  0.0000000000000D+00
214  2.1300000000000D+00  0.0000000000000D+00  0.0000000000000D+00
215  2.1400000000000D+00  0.0000000000000D+00  0.0000000000000D+00
216  2.1500000000000D+00  0.0000000000000D+00  0.0000000000000D+00
217  2.1600000000000D+00  0.0000000000000D+00  0.0000000000000D+00
218  2.1700000000000D+00  0.0000000000000D+00  0.0000000000000D+00
219  2.1800000000000D+00  0.0000000000000D+00  0.0000000000000D+00
220  2.1900000000000D+00  0.0000000000000D+00  0.0000000000000D+00
221  2.2000000000000D+00  0.0000000000000D+00  0.0000000000000D+00
222  2.2100000000000D+00  0.0000000000000D+00  0.0000000000000D+00
223  2.2200000000000D+00  0.0000000000000D+00  0.0000000000000D+00
224  2.2300000000000D+00  0.0000000000000D+00  0.0000000000000D+00
225  2.2400000000000D+00  0.0000000000000D+00  0.0000000000000D+00
226  2.2500000000000D+00  0.0000000000000D+00  0.0000000000000D+00
227  2.2600000000000D+00  0.0000000000000D+00  0.0000000000000D+00
228  2.2700000000000D+00  0.0000000000000D+00  0.0000000000000D+00
229  2.2800000000000D+00  0.0000000000000D+00  0.0000000000000D+00
230  2.2900000000000D+00  0.0000000000000D+00  0.0000000000000D+00
231  2.3000000000000D+00  0.0000000000000D+00  0.0000000000000D+00
232  2.3100000000000D+00  0.0000000000000D+00  0.0000000000000D+00
233  2.3200000000000D+00  0.0000000000000D+00  0.0000000000000D+00
234  2.3300000000000D+00  0.0000000000000D+00  0.0000000000000D+00
235  2.3400000000000D+00  0.0000000000000D+00  0.0000000000000D+00
236  2.3500000000000D+00  0.0000000000000D+00  0.0000000000000D+00
237  2.3600000000000D+00  0.0000000000000D+00  0.0000000000000D+00
238  2.3700000000000D+00  0.0000000000000D+00  0.0000000000000D+00
239  2.3800000000000D+00  0.0000000000000D+00  0.0000000000000D+00
240  2.3900000000000D+00  0.0000000000000D+00  0.0000000000000D+00
241  2.4000000000000D+00  0.0000000000000D+00  0.0000000000000D+00
242  2.4100000000000D+00  0.0000000000000D+00  0.0000000000000D+00
243  2.4200000000000D+00  0.0000000000000D+00  0.0000000000000D+00
244  2.4300000000000D+00  0.0000000000000D+00  0.0000000000000D+00
245  2.4400000000000D+00  0.0000000000000D+00  0.0000000000000D+00
246  2.4500000000000D+00  0.0000000000000D+00  0.0000000000000D+00
247  2.4600000000000D+00  0.0000000000000D+00  0.0000000000000D+00
248  2.4700000000000D+00  0.0000000000000D+00  0.0000000000000D+00
249  2.4800000000000D+00  0.0000000000000D+00  0.0000000000000D+00
250  2.4900000000000D+00  0.0000000000000D+00  0.0000000000000D+00
251  2.5000000000000D+00  0.0000000000000D+00  0.0000000000000D+00
252  2.5100000000000D+00  0.0000000000000D+00  0.0000000000000D+00
253  2.5200000000000D+00  0.0000000000000D+00  0.0000000000000D+00
254  2.5300000000000D+00  0.0000000000000D+00  0.0000000000000D+00
255  2.5400000000000D+00  0.0000000000000D+00  0.0000000000000D+00
256  2.5500000000000D+00  0.0000000000000D+00  0.0000000000000D+00
257  2.5600000000000D+00  0.0000000000000D+00  0.0000000000000D+00
258  2.5700000000000D+00  0.0000000000000D+00  0.0000000000000D+00
259  2.5800000000000D+00  0.0000000000000D+00  0.0000000000000D+00
260  2.5900000000000D+00  0.0000000000000D+00  0.0000000000000D+00
261  2.6000000000000D+00  0.0000000000000D+00  0.0000000000000D+00
262  2.6100000000000D+00  0.0000000000000D+00  0.0000000000000D+00
263  2.6200000000000D+00  0.0000000000000D+00  0.0000000000000D+00
264  2.6300000000000D+00  0.0000000000000D+00  0.0000000000000D+00
265  2.6400000000000D+00  0.0000000000000D+00  0.0000000000000D+00
266  2.6500000000000D+00  0.0000000000000D+00  0.0000000000000D+00
267  2.6600000000000D+00  0.0000000000000D+00  0.0000000000000D+00
268  2.6700000000000D+00  0.0000000000000D+00  0.0000000000000D+00
269  2.6800000000000D+00  0.0000000000000D+00  0.0000000000000D+00
270  2.6900000000000D+00  0.0000000000000D+00  0.0000000000000D+00
271  2.7000000000000D+00  0.0000000000000D+00  0.0000000000000D+00
272  2.7100000000000D+00  0.0000000000000D+00  0.0000000000000D+00
273  2.7200000000000D+00  0.0000000000000D+00  0.0000000000000D+00
274  2.7300000000000D+00  0.0000000000000D+00  0.0000000000000D+00
275  2.7400000000000D+00  0.0000000000000D+00  0.0000000000000D+00
276  2.7500000000000D+00  0.0000000000000D+00  0.0000000000000D+00
277  2.7600000000000D+00  0.0000000000000D+00  0.0000000000000D+00
278  2.7700000000000D+00  0.0000000000000D+00  0.0000000000000D+00
279  2.7800000000000D+00  0.0000000000000D+00  0.0000000000000D+00
280  2.7900000000000D+00  0.0000000000000D+00  0.0000000000000D+00
281  2.8000000000000D+00  0.0000000000000D+00  0.0000000000000D+00
282  2.8100000000000D+00  0.0000000000000D+00  0.0000000000000D+00
283  2.8200000000000D+00  0.0000000000000D+00  0.0000000000000D+00
284  2.8300000000000D+00  0.0000000000000D+00  0.0000000000000D+00
285  2.8400000000000D+00  0.0000000000000D+00  0.0000000000000D+00
286  2.8500000000000D+00  0.0000000000000D+00  0.0000000000000D+00
287  2.8600000000000D+00  0.0000000000000D+00  0.0000000000000D+00
288  2.8700000000000D+00  0.0000000000000D+00  0.0000000000000D+00
289  2.8800000000000D+00  0.0000000000000D+00  0.0000000000000D+00
290  2.8900000000000D+00  0.0000000000000D+00  0.0000000000000D+00
291  2.9000000000000D+00  0.0000000000000D+00  0.0000000000000D+00
292  2.9100000000000D+00  0.0000000000000D+00  0.0000000000000D+00
293  2.9200000000000D+00  0.0000000000000D+00  0.0000000000000D+00
294  2.9300000000000D+00  0.0000000000000D+00  0.0000000000000D+00
295  2.9400000000000D+00  0.0000000000000D+00  0.0000000000000D+00
296  2.9500000000000D+00  0.0000000000000D+00  0.0000000000000D+00
297  2.9600000000000D+00  0.0000000000000D+00  0.0000000000000D+00
298  2.9700000000000D+00  0.0000000000000D+00  0.0000000000000D+00
299  2.9800000000000D+00  0.0000000000000D+00  0.0000000000000D+00
300  2.9900000000000D+00  0.0000000000000D+00  0.0000000000000D+00
301  3.0000000000000D+00  0.0000000000000D+00  0.0000000000000D+00
302  3.0100000000000D+00  0.0000000000000D+00  0.0000000000000D+00
303  3.0200000000000D+00  0.0000000000000D+00  0.0000000000000D+00
304  3.0300000000000D+00  0.0000000000000D+00  0.0000000000000D+00
305  3.0400000000000D+00  0.0000000000000D+00  0.0000000000000D+00
306  3.0500000000000D+00  0.0000000000000D+00  0.0000000000000D+00
307  3.0600000000000D+00  0.0000000000000D+00  0.0000000000000D+00
308  3.0700000000000D+00  0.0000000000000D+00  0.0000000000000D+00
309  3.0800000000000D+00  0.0000000000000D+00  0.0000000000000D+00
310  3.0900000000000D+00  0.0000000000000D+00  0.0000000000000D+00
311  3.1000000000000D+00  0.0000000000000D+00  0.0000000000000D+00
312  3.1100000000000D+00  0.0000000000000D+00  0.0000000000000D+00
313  3.1200000000000D+00  0.0000000000000D+00  0.0000000000000D+00
314  3.1300000000000D+00  0.0000000000000D+00  0.0000000000000D+00
315  3.1400000000000D+00  0.0000000000000D+00  0.0000000000000D+00
316  3.1500000000000D+00  0.0000000000000D+00  0.0000000000000D+00
317  3.1600000000000D+00  0.0000000000000D+00  0.0000000000000D+00
318  3.1700000000000D+00  0.0000000000000D+00  0.0000000000000D+00
319  3.1800000000000D+00  0.0000000000000D+00  0.0000000000000D+00
320  3.1900000000000D+00  0.0000000000000D+00  0.0000000000000D+00
321  3.2000000000000D+00  0.0000000000000D+00  0.0000000000000D+00
322  3.2100000000000D+00  0.0000000000000D+00  0.0000000000000D+00
323  3.2200000000000D+00  0.0000000000000D+00  0.0000000000000D+00
324  3.2300000000000D+00  0.0000000000000D+00  0.0000000000000D+00
325  3.2400000000000D+00  0.0000000000000D+00  0.0000000000000D+00
326  3.2500000000000D+00  0.0000000000000D+00  0.0000000000000D+00
327  3.2600000000000D+00  0.0000000000000D+00  0.0000000000000D+00
328  3.2700000000000D+00  0.0000000000000D+00  0.0000000000000D+00
329  3.2800000000000D+00  0.0000000000000D+00  0.0000000000000D+00
330  3.2900000000000D+00  0.0000000000000D+00  0.0000000000000D+00
331  3.3000000000000D+00  0.0000000000000D+00  0.0000000000000D+00
332  3.3100000000000D+00  0.0000000000000D+00  0.0000000000000D+00
333  3.3200000000000D+00  0.0000000000000D+00  0.0000000000000D+00
334  3.3300000000000D+00  0.0000000000000D+00  0.0000000000000D+00
335  3.3400000000000D+00  0.0000000000000D+00  0.0000000000000D+00
336  3.3500000000000D+00  0.0000000000000D+00  0.0000000000000D+00
337  3.3600000000000D+00  0.0000000000000D+00  0.0000000000000D+00
338  3.3700000000000D+00  0.0000000000000D+00  0.0000000000000D+00
339  3.3800000000000D+00  0.0000000000000D+00  0.0000000000000D+00
340  3.3900000000000D+00  0.0000000000000D+00  0.0000000000000D+00
341  3.4000000000000D+00  0.0000000000000D+00  0.0000000000000D+00
342  3.4100000000000D+00  0.0000000000000D+00  0.0000000000000D+00
343  3.4200000000000D+00  0.0000000000000D+00  0.0000000000000D+00
344  3.4300000000000D+00  0.0000000000000D+00  0.0000000000000D+00
345  3.4400000000000D+00  0.0000000000000D+00  0.0000000000000D+00
346  3.4500000000000D+00  0.0000000000000D+00  0.0000000000000D+00
347  3.4600000000000D+00  0.0000000000000D+00  0.0000000000000D+00
348  3.4700000000000D+00  0.0000000000000D+00  0.0000000000000D+00
349  3.4800000000000D+00  0.0000000000000D+00  0.0000000000000D+00
350  3.4900000000000D+00  0.0000000000000D+00  0.0000000000000D+00
351  3.5000000000000D+00  0.0000000000000D+00  0.0000000000000D+00
352  3.5100000000000D+00  0.0000000000000D+00  0.0000000000000D+00
353  3.5200000000000D+00  0.0000000000000D+00  0.0000000000000D+00
354  3.5300000000000D+00  0.0000000000000D+00  0.0000000000000D+00
355  3.5400000000000D+00  0.0000000000000D+00  0.0000000000000D+00
356  3.5500000000000D+00  0.0000000000000D+00  0.0000000000000D+00
357  3.5600000000000D+00  0.0000000000000D+00  0.0000000000000D+00
358  3.5700000000000D+00  0.0000000000000D+00  0.0000000000000D+00
359  3.5800000000000D+00  0.0000000000000D+00  0.0000000000000D+00
360  3.5900000000000D+00  0.0000000000000D+00  0.0000000000000D+00
361  3.6000000000000D+00  0.0000000000000D+00  0.0000000000000D+00
362  3.6100000000000D+00  0.0000000000000D+00  0.0000000000000D+00
363  3.6200000000000D+00  0.0000000000000D+00  0.0000000000000D+00
364  3.6300000000000D+00  0.0000000000000D+00  0.0000000000000D+00
365  3.6400000000000D+00  0.0000000000000D+00  0.0000000000000D+00
366  3.6500000000000D+00  0.0000000000000D+00  0.0000000000000D+00
367  3.6600000000000D+00  0.0000000000000D+00  0.0000000000000D+00
368  3.6700000000000D+00  0.0000000000000D+00  0.0000000000000D+00
369  3.6800000000000D+00  0.0000000000000D+00  0.0000000000000D+00
370  3.6900000000000D+00  0.0000000000000D+00  0.0000000000000D+00
371  3.7000000000000D+00  0.0000000000000D+00  0.0000000000000D+00
372  3.7100000000000D+00  0.0000000000000D+00  0.0000000000000D+00
373  3.7200000000000D+00  0.0000000000000D+00  0.0000000000000D+00
374  3.7300000000000D+00  0.0000000000000D+00  0.0000000000000D+00
375  3.7400000000000D+00  0.0000000000000D+00  0.0000000000000D+00
376  3.7500000000000D+00  0.0000000000000D+00  0.0000000000000D+00
377  3.7600000000000D+00  0.0000000000000D+00  0.0000000000000D+00
378  3.7700000000000D+00  0.0000000000000D+00  0.0000000000000D+00
379  3.7800000000000D+00  0.0000000000000D+00  0.0000000000000D+00
380  3.7900000000000D+00  0.0000000000000D+00  0.0000000000000D+00
381  3.8000000000000D+00  0.0000000000000D+00  0.0000000000000D+00
382  3.8100000000000D+00  0.0000000000000D+00  0.0000000000000D+00
383  3.8200000000000D+00  0.0000000000000D+00  0.0000000000000D+00
384  3.8300000000000D+00  0.0000000000000D+00  0.0000000000000D+00
385  3.8400000000000D+00  0.0000000000000D+00  0.0000000000000D+00
386  3.8500000000000D+00  0.0000000000000D+00  0.0000000000000D+00
387  3.8600000000000D+00  0.0000000000000D+00  0.0000000000000D+00
388  3.8700000000000D+00  0.0000000000000D+00  0.0000000000000D+00
389  3.8800000000000D+00  0.0000000000000D+00  0.0000000000000D+00
390  3.8900000000000D+00  0.0000000000000D+00  0.0000000000000D+00
391  3.9000000000000D+00  0.0000000000000D+00  0.0000000000000D+00
392  3.9100000000000D+00  0.0000000000000D+00  0.0000000000000D+00
393  3.9200000000000D+00  0.0000000000000D+00  0.0000000000000D+00
394  3.9300000000000D+00  0.0000000000000D+00  0.0000000000000D+00
395  3.9400000000000D+00  0.0000000000000D+00  0.0000000000000D+00
396  3.9500000000000D+00  0.0000000000000D+00  0.0000000000000D+00
397  3.9600000000000D+00  0.0000000000000D+00  0.0000000000000D+00
398  3.9700000000000D+00  0.0000000000000D+00  0.0000000000000D+00
399  3.9800000000000D+00  0.0000000000000D+00  0.0000000000000D+00
400  3.9900000000000D+00  0.0000000000000D+00  0.0000000000000D+00
401  4.0000000000000D+00  0.0000000000000D+00  0.0000000000000D+00
402  4.0100000000000D+00  0.0000000000000D+00  0.0000000000000D+00
403  4.0200000000000D+00  0.0000000000000D+00  0.0000000000000D+00
404  4.0300000000000D+00  0.0000000000000D+00  0.0000000000000D+00
405  4.0400000000000D+00  0.0000000000000D+00  0.0000000000000D+00
406  4.0500000000000D+00  0.0000000000000D+00  0.0000000000000D+00
407  4.0600000000000D+00  0.0000000000000D+00  0.0000000000000D+00
408  4.0700000000000D+00  0.0000000000000D+00  0.0000000000000D+00
409  4.0800000000000D+00  0.0000000000000D+00  0.0000000000000D+00
410  4.0900000000000D+00  0.0000000000000D+00  0.0000000000000D+00
411  4.1000000000000D+00  0.0000000000000D+00  0.0000000000000D+00
412  4.1100000000000D+00  0.0000000000000D+00  0.0000000000000D+00
413  4.1200000000000D+00  0.0000000000000D+00  0.0000000000000D+00
414  4.1300000000000D+00  0.0000000000000D+00  0.0000000000000D+00
415  4.1400000000000D+00  0.0000000000000D+00  0.0000000000000D+00
416  4.1500000000000D+00  0.0000000000000D+00  0.0000000000000D+00
417  4.1600000000000D+00  0.0000000000000D+00  0.0000000000000D+00
418  4.1700000000000D+00  0.0000000000000D+00  0.0000000000000D+00
419  4.1800000000000D+00  0.0000000000000D+00  0.0000000000000D+00
420  4.1900000000000D+00  0.0000000000000D+00  0.0000000000000D+00
421  4.2000000000000D+00  0.0000000000000D+00  0.0000000000000D+00
422  4.2100000000000D+00  0.0000000000000D+00  0.0000000000000D+00
423  4.2200000000000D+00  0.0000000000000D+00  0.0000000000000D+00
424  4.2300000000000D+00  0.0000000000000D+00  0.0000000000000D+00
425  4.2400000000000D+00  0.0000000000000D+00  0.0000000000000D+00
426  4.2500000000000D+00  0.0000000000000D+00  0.0000000000000D+00
427  4.2600000000000D+00  0.0000000000000D+00  0.0000000000000D+00
428  4.2700000000000D+00  0.0000000000000D+00  0.0000000000000D+00
429  4.2800000000000D+00  0.0000000000000D+00  0.0000000000000D+00
430  4.2900000000000D+00  0.0000000000000D+00  0.0000000000000D+00
431  4.3000000000000D+00  0.0000000000000D+00  0.0000000000000D+00
432  4.3100000000000D+00  0.0000000000000D+00  0.0000000000000D+00
433  4.3200000000000D+00  0.0000000000000D+00  0.0000000000000D+00
434  4.3300000000000D+00  0.0000000000000D+00  0.0000000000000D+00
435  4.3400000000000D+00  0.0000000000000D+00  0.0000000000000D+00
436  4.3500000000000D+00  0.0000000000000D+00  0.0000000000000D+00
437  4.3600000000000D+00  0.0000000000000D+00  0.0000000000000D+00
438  4.3700000000000D+00  0.0000000000000D+00  0.0000000000000D+00
439  4.3800000000000D+00  0.0000000000000D+00  0.0000000000000D+00
440  4.3900000000000D+00  0.0000000000000D+00  0.0000000000000D+00
441  4.4000000000000D+00  0.0000000000000D+00  0.0000000000000D+00
442  4.4100000000000D+00  0.0000000000000D+00  0.0000000000000D+00
443  4.4200000000000D+00  0.0000000000000D+00  0.0000000000000D+00
444  4.4300000000000D+00  0.0000000000000D+00  0.0000000000000D+00