O     ONCVPSP  r_core=  1.31  1.46  1.40
8.0000      6.0000      140907    zatom,zion,pspd
8    11     2     4   601     0    pspcod,pspxc,lmax,lloc,mmax,r2well
6.00000000  0.00000000  0.00000000    rchrg fchrg qchrg
2     2     1     0     0    nproj
0                 extension_switch
0                         3.5449711992401D+00 -1.0560351416812D+00
1  0.0000000000000D+00 -0.0000000000000D+00  0.0000000000000D+00
2  1.0000000000000D-02 -8.3211911294709D-02  8.9419577891785D-03
3  2.0000000000000D-02 -1.6616505098943D-01  1.8217353813517D-02
4  3.0000000000000D-02 -2.4860215854687D-01  2.8153084125816D-02
5  4.0000000000000D-02 -3.3026898198614D-01  3.9063051168691D-02
6  5.0000000000000D-02 -4.1091574838374D-01  5.1241892724833D-02
7  6.0000000000000D-02 -4.9029859424730D-01  6.4958978616819D-02
8  7.0000000000000D-02 -5.6818094305574D-01  8.0452759192577D-02
9  8.0000000000000D-02 -6.4433481782860D-01  9.7925545221223D-02
10  9.0000000000000D-02 -7.1854207726727D-01  1.1753879348734D-01
11  1.0000000000000D-01 -7.9059556486210D-01  1.3940896590484D-01
12  1.1000000000000D-01 -8.6030016123170D-01  1.6360402299757D-01
13  1.2000000000000D-01 -9.2747373104955D-01  1.9014060440584D-01
14  1.3000000000000D-01 -9.9194795695579D-01  2.1898194067572D-01
15  1.4000000000000D-01 -1.0535690542483D+00  2.5003653083488D-01
16  1.5000000000000D-01 -1.1121983609778D+00  2.8315761167033D-01
17  1.6000000000000D-01 -1.1677128000773D+00  3.1814343301039D-01
18  1.7000000000000D-01 -1.2200052105640D+00  3.5473834464420D-01
19  1.8000000000000D-01 -1.2689845473617D+00  3.9263468853153D-01
20  1.9000000000000D-01 -1.3145759497158D+00  4.3147548186259D-01
21  2.0000000000000D-01 -1.3567206796538D+00  4.7085786295416D-01
22  2.1000000000000D-01 -1.3953759340972D+00  5.1033726579495D-01
23  2.2000000000000D-01 -1.4305145344955D+00  5.4943227532308D-01
24  2.3000000000000D-01 -1.4621244996746D+00  5.8763011330090D-01
25  2.4000000000000D-01 -1.4902085086092D+00  6.2439268576038D-01
26  2.5000000000000D-01 -1.5147832616495D+00  6.5916311761011D-01
27  2.6000000000000D-01 -1.5358787465541D+00  6.9137272674406D-01
28  2.7000000000000D-01 -1.5535374229628D+00  7.2044830028471D-01
29  2.8000000000000D-01 -1.5678133331123D+00  7.4581962595820D-01
30  2.9000000000000D-01 -1.5787711498307D+00  7.6692718070796D-01
31  3.0000000000000D-01 -1.5864851744112D+00  7.8322987051323D-01
32  3.1000000000000D-01 -1.5910382959602D+00  7.9421272951985D-01
33  3.2000000000000D-01 -1.5925209249334D+00  7.9939447675883D-01
34  3.3000000000000D-01 -1.5910299237619D+00  7.9833475395320D-01
35  3.4000000000000D-01 -1.5866674991725D+00  7.9064132127916D-01
36  3.5000000000000D-01 -1.5795401708995D+00  7.7597631747098D-01
37  3.6000000000000D-01 -1.5697576817005D+00  7.5406262779478D-01
38  3.7000000000000D-01 -1.5574320277068D+00  7.2468902102409D-01
39  3.8000000000000D-01 -1.5426764581041D+00  6.8771515591593D-01
40  3.9000000000000D-01 -1.5256045711368D+00  6.4307554698760D-01
41  4.0000000000000D-01 -1.5063294742181D+00  5.9078274039166D-01
42  4.1000000000000D-01 -1.4849630025398D+00  5.3092972378860D-01
43  4.2000000000000D-01 -1.4616150227859D+00  4.6369140116307D-01
44  4.3000000000000D-01 -1.4363928231707D+00  3.8932513398810D-01
45  4.4000000000000D-01 -1.4094005944731D+00  3.0817032894832D-01
46  4.5000000000000D-01 -1.3807390056960D+00  2.2064706187095D-01
47  4.6000000000000D-01 -1.3505048769667D+00  1.2725373745172D-01
48  4.7000000000000D-01 -1.3187909512112D+00  2.8563795921306D-02
49  4.8000000000000D-01 -1.2856857652236D+00 -7.4778507546222D-02
50  4.9000000000000D-01 -1.2512736364964D+00 -1.8206316812363D-01
51  5.0000000000000D-01 -1.2156346552849D+00 -2.9252040545956D-01
52  5.1000000000000D-01 -1.1788449027129D+00 -4.0532747167153D-01
53  5.2000000000000D-01 -1.1409766863800D+00 -5.1961585559618D-01
54  5.3000000000000D-01 -1.1020987894670D+00 -6.3447978942451D-01
55  5.4000000000000D-01 -1.0622769184615D+00 -7.4898464812799D-01
56  5.5000000000000D-01 -1.0215741278409D+00 -8.6217583575777D-01
57  5.6000000000000D-01 -9.8005130948005D-01 -9.7308926489740D-01
58  5.7000000000000D-01 -9.3776775584899D-01 -1.0807594080911D+00
59  5.8000000000000D-01 -8.9478173399918D-01 -1.1842315942330D+00
60  5.9000000000000D-01 -8.5115107038350D-01 -1.2825693144184D+00
61  6.0000000000000D-01 -8.0693379617012D-01 -1.3748666063638D+00
62  6.1000000000000D-01 -7.6218873761420D-01 -1.4602563783821D+00
63  6.2000000000000D-01 -7.1697609011398D-01 -1.5379191626491D+00
64  6.3000000000000D-01 -6.7135810001000D-01 -1.6070952976821D+00
65  6.4000000000000D-01 -6.2539948006836D-01 -1.6670895259296D+00
66  6.5000000000000D-01 -5.7916797342136D-01 -1.7172808376687D+00
67  6.6000000000000D-01 -5.3273487253402D-01 -1.7571313180203D+00
68  6.7000000000000D-01 -4.8617529187570D-01 -1.7861897643835D+00
69  6.8000000000000D-01 -4.3956847062107D-01 -1.8040970832974D+00
70  6.9000000000000D-01 -3.9299816692774D-01 -1.8105945868948D+00
71  7.0000000000000D-01 -3.4655268128622D-01 -1.8055246556310D+00
72  7.1000000000000D-01 -3.0032492606774D-01 -1.7888335488643D+00
73  7.2000000000000D-01 -2.5441240487997D-01 -1.7605732150912D+00
74  7.3000000000000D-01 -2.0891705269226D-01 -1.7209008118050D+00
75  7.4000000000000D-01 -1.6394510552646D-01 -1.6700807956575D+00
76  7.5000000000000D-01 -1.1960666023063D-01 -1.6084801791123D+00
77  7.6000000000000D-01 -7.6015274461580D-02 -1.5365662604710D+00
78  7.7000000000000D-01 -3.3287444117618D-02 -1.4549026069360D+00
79  7.8000000000000D-01  8.4580148030327D-03 -1.3641438871490D+00
80  7.9000000000000D-01  4.9100671535195D-02 -1.2650296905933D+00
81  8.0000000000000D-01  8.8519266509808D-02 -1.1583773973181D+00
82  8.1000000000000D-01  1.2659257017326D-01 -1.0450741727086D+00
83  8.2000000000000D-01  1.6320030577883D-01 -9.2606817231010D-01
84  8.3000000000000D-01  1.9822412626786D-01 -8.0235905092876D-01
85  8.4000000000000D-01  2.3154863447941D-01 -6.7498787833250D-01
86  8.5000000000000D-01  2.6306243517074D-01 -5.4502657084662D-01
87  8.6000000000000D-01  2.9265920669996D-01 -4.1356695396417D-01
88  8.7000000000000D-01  3.2023877971603D-01 -2.8170957579948D-01
89  8.8000000000000D-01  3.4570820982225D-01 -1.5055239479665D-01
90  8.9000000000000D-01  3.6898283092905D-01 -2.1179467567965D-02
91  9.0000000000000D-01  3.8998727589754D-01  1.0535023596114D-01
92  9.1000000000000D-01  4.0865645110540D-01  2.2801376285664D-01
93  9.2000000000000D-01  4.2493645176025D-01  3.4583472698468D-01
94  9.3000000000000D-01  4.3878540516172D-01  4.5789335522694D-01
95  9.4000000000000D-01  4.5017422970258D-01  5.6333591163947D-01
96  9.5000000000000D-01  4.5908729823119D-01  6.6138338779574D-01
97  9.6000000000000D-01  4.6552299550668D-01  7.5133935662116D-01
98  9.7000000000000D-01  4.6949407461745D-01  8.3259602562218D-01
99  9.8000000000000D-01  4.7102789831310D-01  9.0463917029262D-01
100  9.9000000000000D-01  4.7016744805716D-01  9.6706147538170D-01
101  1.0000000000000D+00  4.6697044028830D-01  1.0195568771789D+00
102  1.0100000000000D+00  4.6150955729524D-01  1.0619261927653D+00
103  1.0200000000000D+00  4.5387222285137D-01  1.0940784472127D+00
104  1.0300000000000D+00  4.4416024091154D-01  1.1160309982395D+00
105  1.0400000000000D+00  4.3248892061238D-01  1.1279028962691D+00
106  1.0500000000000D+00  4.1898783915010D-01  1.1299314102152D+00
107  1.0600000000000D+00  4.0379857453936D-01  1.1224499012823D+00
108  1.0700000000000D+00  3.8707426118274D-01  1.1058886552734D+00
109  1.0800000000000D+00  3.6897859113690D-01  1.0807689336662D+00
110  1.0900000000000D+00  3.4968487892668D-01  1.0476952331592D+00
111  1.1000000000000D+00  3.2937482544536D-01  1.0073584662225D+00
112  1.1100000000000D+00  3.0823675650847D-01  9.6051311738690D-01
113  1.1200000000000D+00  2.8646448669495D-01  9.0797319990457D-01
114  1.1300000000000D+00  2.6425673328610D-01  8.5060425235256D-01
115  1.1400000000000D+00  2.4181371810681D-01  7.8931366019267D-01
116  1.1500000000000D+00  2.1933664846961D-01  7.2503468516451D-01
117  1.1600000000000D+00  1.9702646607831D-01  6.5871931482582D-01
118  1.1700000000000D+00  1.7508355084461D-01  5.9133422533936D-01
119  1.1800000000000D+00  1.5370135781917D-01  5.2382950225946D-01
120  1.1900000000000D+00  1.3306924224267D-01  4.5714303270843D-01
121  1.2000000000000D+00  1.1337202444259D-01  3.9219820748607D-01
122  1.2100000000000D+00  9.4783944738314D-02  3.2987141192366D-01
123  1.2200000000000D+00  7.7468585401391D-02  2.7098594846490D-01
124  1.2300000000000D+00  6.1581691616014D-02  2.1632566469356D-01
125  1.2400000000000D+00  4.7266878097043D-02  1.6661095141056D-01
126  1.2500000000000D+00  3.4650331727530D-02  1.2246605672025D-01
127  1.2600000000000D+00  2.3848712313265D-02  8.4462208239213D-02
128  1.2700000000000D+00  1.4964785010021D-02  5.3092813750878D-02
129  1.2800000000000D+00  8.0796208998058D-03  2.8727363828038D-02
130  1.2900000000000D+00  3.2645935038442D-03  1.1680194230752D-02
131  1.3000000000000D+00  7.3537023157678D-04  2.7439464531622D-03
132  1.3100000000000D+00 -1.3831412934150D-04 -3.6817120435061D-04
133  1.3200000000000D+00 -9.3293660796951D-05 -3.0325146963793D-04
134  1.3300000000000D+00  2.0294321061134D-06 -2.2559012871244D-06
135  1.3400000000000D+00  0.0000000000000D+00  0.0000000000000D+00
136  1.3500000000000D+00  0.0000000000000D+00  0.0000000000000D+00
137  1.3600000000000D+00  0.0000000000000D+00  0.0000000000000D+00
138  1.3700000000000D+00  0.0000000000000D+00  0.0000000000000D+00
139  1.3800000000000D+00  0.0000000000000D+00  0.0000000000000D+00
140  1.3900000000000D+00  0.0000000000000D+00  0.0000000000000D+00
141  1.4000000000000D+00  0.0000000000000D+00  0.0000000000000D+00
142  1.4100000000000D+00  0.0000000000000D+00  0.0000000000000D+00
143  1.4200000000000D+00  0.0000000000000D+00  0.0000000000000D+00
144  1.4300000000000D+00  0.0000000000000D+00  0.0000000000000D+00
145  1.4400000000000D+00  0.0000000000000D+00  0.0000000000000D+00
146  1.4500000000000D+00  0.0000000000000D+00  0.0000000000000D+00
147  1.4600000000000D+00  0.0000000000000D+00  0.0000000000000D+00
148  1.4700000000000D+00  0.0000000000000D+00  0.0000000000000D+00
149  1.4800000000000D+00  0.0000000000000D+00  0.0000000000000D+00
150  1.4900000000000D+00  0.0000000000000D+00  0.0000000000000D+00
151  1.5000000000000D+00  0.0000000000000D+00  0.0000000000000D+00
152  1.5100000000000D+00  0.0000000000000D+00  0.0000000000000D+00
153  1.5200000000000D+00  0.0000000000000D+00  0.0000000000000D+00
154  1.5300000000000D+00  0.0000000000000D+00  0.0000000000000D+00
155  1.5400000000000D+00  0.0000000000000D+00  0.0000000000000D+00
156  1.5500000000000D+00  0.0000000000000D+00  0.0000000000000D+00
157  1.5600000000000D+00  0.0000000000000D+00  0.0000000000000D+00
158  1.5700000000000D+00  0.0000000000000D+00  0.0000000000000D+00
159  1.5800000000000D+00  0.0000000000000D+00  0.0000000000000D+00
160  1.5900000000000D+00  0.0000000000000D+00  0.0000000000000D+00
161  1.6000000000000D+00  0.0000000000000D+00  0.0000000000000D+00
162  1.6100000000000D+00  0.0000000000000D+00  0.0000000000000D+00
163  1.6200000000000D+00  0.0000000000000D+00  0.0000000000000D+00
164  1.6300000000000D+00  0.0000000000000D+00  0.0000000000000D+00
165  1.6400000000000D+00  0.0000000000000D+00  0.0000000000000D+00
166  1.6500000000000D+00  0.0000000000000D+00  0.0000000000000D+00
167  1.6600000000000D+00  0.0000000000000D+00  0.0000000000000D+00
168  1.6700000000000D+00  0.0000000000000D+00  0.0000000000000D+00
169  1.6800000000000D+00  0.0000000000000D+00  0.0000000000000D+00
170  1.6900000000000D+00  0.0000000000000D+00  0.0000000000000D+00
171  1.7000000000000D+00  0.0000000000000D+00  0.0000000000000D+00
172  1.7100000000000D+00  0.0000000000000D+00  0.0000000000000D+00
173  1.7200000000000D+00  0.0000000000000D+00  0.0000000000000D+00
174  1.7300000000000D+00  0.0000000000000D+00  0.0000000000000D+00
175  1.7400000000000D+00  0.0000000000000D+00  0.0000000000000D+00
176  1.7500000000000D+00  0.0000000000000D+00  0.0000000000000D+00
177  1.7600000000000D+00  0.0000000000000D+00  0.0000000000000D+00
178  1.7700000000000D+00  0.0000000000000D+00  0.0000000000000D+00
179  1.7800000000000D+00  0.0000000000000D+00  0.0000000000000D+00
180  1.7900000000000D+00  0.0000000000000D+00  0.0000000000000D+00
181  1.8000000000000D+00  0.0000000000000D+00  0.0000000000000D+00
182  1.8100000000000D+00  0.0000000000000D+00  0.0000000000000D+00
183  1.8200000000000D+00  0.0000000000000D+00  0.0000000000000D+00
184  1.8300000000000D+00  0.0000000000000D+00  0.0000000000000D+00
185  1.8400000000000D+00  0.0000000000000D+00  0.0000000000000D+00
186  1.8500000000000D+00  0.0000000000000D+00  0.0000000000000D+00
187  1.8600000000000D+00  0.0000000000000D+00  0.0000000000000D+00
188  1.8700000000000D+00  0.0000000000000D+00  0.0000000000000D+00
189  1.8800000000000D+00  0.0000000000000D+00  0.0000000000000D+00
190  1.8900000000000D+00  0.0000000000000D+00  0.0000000000000D+00
191  1.9000000000000D+00  0.0000000000000D+00  0.0000000000000D+00
192  1.9100000000000D+00  0.0000000000000D+00  0.0000000000000D+00
193  1.9200000000000D+00  0.0000000000000D+00  0.0000000000000D+00
194  1.9300000000000D+00  0.0000000000000D+00  0.0000000000000D+00
195  1.9400000000000D+00  0.0000000000000D+00  0.0000000000000D+00
196  1.9500000000000D+00  0.0000000000000D+00  0.0000000000000D+00
197  1.9600000000000D+00  0.0000000000000D+00  0.0000000000000D+00
198  1.9700000000000D+00  0.0000000000000D+00  0.0000000000000D+00
199  1.9800000000000D+00  0.0000000000000D+00  0.0000000000000D+00
200  1.9900000000000D+00  0.0000000000000D+00  0.0000000000000D+00
201  2.0000000000000D+00  0.0000000000000D+00  0.0000000000000D+00
202  2.0100000000000D+00  0.0000000000000D+00  0.0000000000000D+00
203  2.0200000000000D+00  0.0000000000000D+00  0.0000000000000D+00
204  2.0300000000000D+00  0.0000000000000D+00  0.0000000000000D+00
205  2.0400000000000D+00  0.0000000000000D+00  0.0000000000000D+00
206  2.0500000000000D+00  0.0000000000000D+00  0.0000000000000D+00
207  2.0600000000000D+00  0.0000000000000D+00  0.0000000000000D+00
208  2.0700000000000D+00  0.0000000000000D+00  0.0000000000000D+00
209  2.0800000000000D+00  0.0000000000000D+00  0.0000000000000D+00
210  2.0900000000000D+00  0.0000000000000D+00  0.0000000000000D+00
211  2.1000000000000D+00  0.0000000000000D+00  0.0000000000000D+00
212  2.1100000000000D+00  0.0000000000000D+00  0.0000000000000D+00
213  2.1200000000000D+00  0.0000000000000D+00  0.0000000000000D+00
214  2.1300000000000D+00  0.0000000000000D+00  0.0000000000000D+00
215  2.1400000000000D+00  0.0000000000000D+00  0.0000000000000D+00
216  2.1500000000000D+00  0.0000000000000D+00  0.0000000000000D+00
217  2.1600000000000D+00  0.0000000000000D+00  0.0000000000000D+00
218  2.1700000000000D+00  0.0000000000000D+00  0.0000000000000D+00
219  2.1800000000000D+00  0.0000000000000D+00  0.0000000000000D+00
220  2.1900000000000D+00  0.0000000000000D+00  0.0000000000000D+00
221  2.2000000000000D+00  0.0000000000000D+00  0.0000000000000D+00
222  2.2100000000000D+00  0.0000000000000D+00  0.0000000000000D+00
223  2.2200000000000D+00  0.0000000000000D+00  0.0000000000000D+00
224  2.2300000000000D+00  0.0000000000000D+00  0.0000000000000D+00
225  2.2400000000000D+00  0.0000000000000D+00  0.0000000000000D+00
226  2.2500000000000D+00  0.0000000000000D+00  0.0000000000000D+00
227  2.2600000000000D+00  0.0000000000000D+00  0.0000000000000D+00
228  2.2700000000000D+00  0.0000000000000D+00  0.0000000000000D+00
229  2.2800000000000D+00  0.0000000000000D+00  0.0000000000000D+00
230  2.2900000000000D+00  0.0000000000000D+00  0.0000000000000D+00
231  2.3000000000000D+00  0.0000000000000D+00  0.0000000000000D+00
232  2.3100000000000D+00  0.0000000000000D+00  0.0000000000000D+00
233  2.3200000000000D+00  0.0000000000000D+00  0.0000000000000D+00
234  2.3300000000000D+00  0.0000000000000D+00  0.0000000000000D+00
235  2.3400000000000D+00  0.0000000000000D+00  0.0000000000000D+00
236  2.3500000000000D+00  0.0000000000000D+00  0.0000000000000D+00
237  2.3600000000000D+00  0.0000000000000D+00  0.0000000000000D+00
238  2.3700000000000D+00  0.0000000000000D+00  0.0000000000000D+00
239  2.3800000000000D+00  0.0000000000000D+00  0.0000000000000D+00
240  2.3900000000000D+00  0.0000000000000D+00  0.0000000000000D+00
241  2.4000000000000D+00  0.0000000000000D+00  0.0000000000000D+00
242  2.4100000000000D+00  0.0000000000000D+00  0.0000000000000D+00
243  2.4200000000000D+00  0.0000000000000D+00  0.0000000000000D+00
244  2.4300000000000D+00  0.0000000000000D+00  0.0000000000000D+00
245  2.4400000000000D+00  0.0000000000000D+00  0.0000000000000D+00
246  2.4500000000000D+00  0.0000000000000D+00  0.0000000000000D+00
247  2.4600000000000D+00  0.0000000000000D+00  0.0000000000000D+00
248  2.4700000000000D+00  0.0000000000000D+00  0.0000000000000D+00
249  2.4800000000000D+00  0.0000000000000D+00  0.0000000000000D+00
250  2.4900000000000D+00  0.0000000000000D+00  0.0000000000000D+00
251  2.5000000000000D+00  0.0000000000000D+00  0.0000000000000D+00
252  2.5100000000000D+00  0.0000000000000D+00  0.0000000000000D+00
253  2.5200000000000D+00  0.0000000000000D+00  0.0000000000000D+00
254  2.5300000000000D+00  0.0000000000000D+00  0.0000000000000D+00
255  2.5400000000000D+00  0.0000000000000D+00  0.0000000000000D+00
256  2.5500000000000D+00  0.0000000000000D+00  0.0000000000000D+00
257  2.5600000000000D+00  0.0000000000000D+00  0.0000000000000D+00
258  2.5700000000000D+00  0.0000000000000D+00  0.0000000000000D+00
259  2.5800000000000D+00  0.0000000000000D+00  0.0000000000000D+00
260  2.5900000000000D+00  0.0000000000000D+00  0.0000000000000D+00
261  2.6000000000000D+00  0.0000000000000D+00  0.0000000000000D+00
262  2.6100000000000D+00  0.0000000000000D+00  0.0000000000000D+00
263  2.6200000000000D+00  0.0000000000000D+00  0.0000000000000D+00
264  2.6300000000000D+00  0.0000000000000D+00  0.0000000000000D+00
265  2.6400000000000D+00  0.0000000000000D+00  0.0000000000000D+00
266  2.6500000000000D+00  0.0000000000000D+00  0.0000000000000D+00
267  2.6600000000000D+00  0.0000000000000D+00  0.0000000000000D+00
268  2.6700000000000D+00  0.0000000000000D+00  0.0000000000000D+00
269  2.6800000000000D+00  0.0000000000000D+00  0.0000000000000D+00
270  2.6900000000000D+00  0.0000000000000D+00  0.0000000000000D+00
271  2.7000000000000D+00  0.0000000000000D+00  0.0000000000000D+00
272  2.7100000000000D+00  0.0000000000000D+00  0.0000000000000D+00
273  2.7200000000000D+00  0.0000000000000D+00  0.0000000000000D+00
274  2.7300000000000D+00  0.0000000000000D+00  0.0000000000000D+00
275  2.7400000000000D+00  0.0000000000000D+00  0.0000000000000D+00
276  2.7500000000000D+00  0.0000000000000D+00  0.0000000000000D+00
277  2.7600000000000D+00  0.0000000000000D+00  0.0000000000000D+00
278  2.7700000000000D+00  0.0000000000000D+00  0.0000000000000D+00
279  2.7800000000000D+00  0.0000000000000D+00  0.0000000000000D+00
280  2.7900000000000D+00  0.0000000000000D+00  0.0000000000000D+00
281  2.8000000000000D+00  0.0000000000000D+00  0.0000000000000D+00
282  2.8100000000000D+00  0.0000000000000D+00  0.0000000000000D+00
283  2.8200000000000D+00  0.0000000000000D+00  0.0000000000000D+00
284  2.8300000000000D+00  0.0000000000000D+00  0.0000000000000D+00
285  2.8400000000000D+00  0.0000000000000D+00  0.0000000000000D+00
286  2.8500000000000D+00  0.0000000000000D+00  0.0000000000000D+00
287  2.8600000000000D+00  0.0000000000000D+00  0.0000000000000D+00
288  2.8700000000000D+00  0.0000000000000D+00  0.0000000000000D+00
289  2.8800000000000D+00  0.0000000000000D+00  0.0000000000000D+00
290  2.8900000000000D+00  0.0000000000000D+00  0.0000000000000D+00
291  2.9000000000000D+00  0.0000000000000D+00  0.0000000000000D+00
292  2.9100000000000D+00  0.0000000000000D+00  0.0000000000000D+00
293  2.9200000000000D+00  0.0000000000000D+00  0.0000000000000D+00
294  2.9300000000000D+00  0.0000000000000D+00  0.0000000000000D+00
295  2.9400000000000D+00  0.0000000000000D+00  0.0000000000000D+00
296  2.9500000000000D+00  0.0000000000000D+00  0.0000000000000D+00
297  2.9600000000000D+00  0.0000000000000D+00  0.0000000000000D+00
298  2.9700000000000D+00  0.0000000000000D+00  0.0000000000000D+00
299  2.9800000000000D+00  0.0000000000000D+00  0.0000000000000D+00
300  2.9900000000000D+00  0.0000000000000D+00  0.0000000000000D+00
301  3.0000000000000D+00  0.0000000000000D+00  0.0000000000000D+00
302  3.0100000000000D+00  0.0000000000000D+00  0.0000000000000D+00
303  3.0200000000000D+00  0.0000000000000D+00  0.0000000000000D+00
304  3.0300000000000D+00  0.0000000000000D+00  0.0000000000000D+00
305  3.0400000000000D+00  0.0000000000000D+00  0.0000000000000D+00
306  3.0500000000000D+00  0.0000000000000D+00  0.0000000000000D+00
307  3.0600000000000D+00  0.0000000000000D+00  0.0000000000000D+00
308  3.0700000000000D+00  0.0000000000000D+00  0.0000000000000D+00
309  3.0800000000000D+00  0.0000000000000D+00  0.0000000000000D+00
310  3.0900000000000D+00  0.0000000000000D+00  0.0000000000000D+00
311  3.1000000000000D+00  0.0000000000000D+00  0.0000000000000D+00
312  3.1100000000000D+00  0.0000000000000D+00  0.0000000000000D+00
313  3.1200000000000D+00  0.0000000000000D+00  0.0000000000000D+00
314  3.1300000000000D+00  0.0000000000000D+00  0.0000000000000D+00
315  3.1400000000000D+00  0.0000000000000D+00  0.0000000000000D+00
316  3.1500000000000D+00  0.0000000000000D+00  0.0000000000000D+00
317  3.1600000000000D+00  0.0000000000000D+00  0.0000000000000D+00
318  3.1700000000000D+00  0.0000000000000D+00  0.0000000000000D+00
319  3.1800000000000D+00  0.0000000000000D+00  0.0000000000000D+00
320  3.1900000000000D+00  0.0000000000000D+00  0.0000000000000D+00
321  3.2000000000000D+00  0.0000000000000D+00  0.0000000000000D+00
322  3.2100000000000D+00  0.0000000000000D+00  0.0000000000000D+00
323  3.2200000000000D+00  0.0000000000000D+00  0.0000000000000D+00
324  3.2300000000000D+00  0.0000000000000D+00  0.0000000000000D+00
325  3.2400000000000D+00  0.0000000000000D+00  0.0000000000000D+00
326  3.2500000000000D+00  0.0000000000000D+00  0.0000000000000D+00
327  3.2600000000000D+00  0.0000000000000D+00  0.0000000000000D+00
328  3.2700000000000D+00  0.0000000000000D+00  0.0000000000000D+00
329  3.2800000000000D+00  0.0000000000000D+00  0.0000000000000D+00
330  3.2900000000000D+00  0.0000000000000D+00  0.0000000000000D+00
331  3.3000000000000D+00  0.0000000000000D+00  0.0000000000000D+00
332  3.3100000000000D+00  0.0000000000000D+00  0.0000000000000D+00
333  3.3200000000000D+00  0.0000000000000D+00  0.0000000000000D+00
334  3.3300000000000D+00  0.0000000000000D+00  0.0000000000000D+00
335  3.3400000000000D+00  0.0000000000000D+00  0.0000000000000D+00
336  3.3500000000000D+00  0.0000000000000D+00  0.0000000000000D+00
337  3.3600000000000D+00  0.0000000000000D+00  0.0000000000000D+00
338  3.3700000000000D+00  0.0000000000000D+00  0.0000000000000D+00
339  3.3800000000000D+00  0.0000000000000D+00  0.0000000000000D+00
340  3.3900000000000D+00  0.0000000000000D+00  0.0000000000000D+00
341  3.4000000000000D+00  0.0000000000000D+00  0.0000000000000D+00
342  3.4100000000000D+00  0.0000000000000D+00  0.0000000000000D+00
343  3.4200000000000D+00  0.0000000000000D+00  0.0000000000000D+00
344  3.4300000000000D+00  0.0000000000000D+00  0.0000000000000D+00
345  3.4400000000000D+00  0.0000000000000D+00  0.0000000000000D+00
346  3.4500000000000D+00  0.0000000000000D+00  0.0000000000000D+00
347  3.4600000000000D+00  0.0000000000000D+00  0.0000000000000D+00
348  3.4700000000000D+00  0.0000000000000D+00  0.0000000000000D+00
349  3.4800000000000D+00  0.0000000000000D+00  0.0000000000000D+00
350  3.4900000000000D+00  0.0000000000000D+00  0.0000000000000D+00
351  3.5000000000000D+00  0.0000000000000D+00  0.0000000000000D+00
352  3.5100000000000D+00  0.0000000000000D+00  0.0000000000000D+00
353  3.5200000000000D+00  0.0000000000000D+00  0.0000000000000D+00
354  3.5300000000000D+00  0.0000000000000D+00  0.0000000000000D+00
355  3.5400000000000D+00  0.0000000000000D+00  0.0000000000000D+00
356  3.5500000000000D+00  0.0000000000000D+00  0.0000000000000D+00
357  3.5600000000000D+00  0.0000000000000D+00  0.0000000000000D+00
358  3.5700000000000D+00  0.0000000000000D+00  0.0000000000000D+00
359  3.5800000000000D+00  0.0000000000000D+00  0.0000000000000D+00
360  3.5900000000000D+00  0.0000000000000D+00  0.0000000000000D+00
361  3.6000000000000D+00  0.0000000000000D+00  0.0000000000000D+00
362  3.6100000000000D+00  0.0000000000000D+00  0.0000000000000D+00
363  3.6200000000000D+00  0.0000000000000D+00  0.0000000000000D+00
364  3.6300000000000D+00  0.0000000000000D+00  0.0000000000000D+00
365  3.6400000000000D+00  0.0000000000000D+00  0.0000000000000D+00
366  3.6500000000000D+00  0.0000000000000D+00  0.0000000000000D+00
367  3.6600000000000D+00  0.0000000000000D+00  0.0000000000000D+00
368  3.6700000000000D+00  0.0000000000000D+00  0.0000000000000D+00
369  3.6800000000000D+00  0.0000000000000D+00  0.0000000000000D+00
370  3.6900000000000D+00  0.0000000000000D+00  0.0000000000000D+00
371  3.7000000000000D+00  0.0000000000000D+00  0.0000000000000D+00
372  3.7100000000000D+00  0.0000000000000D+00  0.0000000000000D+00
373  3.7200000000000D+00  0.0000000000000D+00  0.0000000000000D+00
374  3.7300000000000D+00  0.0000000000000D+00  0.0000000000000D+00
375  3.7400000000000D+00  0.0000000000000D+00  0.0000000000000D+00
376  3.7500000000000D+00  0.0000000000000D+00  0.0000000000000D+00
377  3.7600000000000D+00  0.0000000000000D+00  0.0000000000000D+00
378  3.7700000000000D+00  0.0000000000000D+00  0.0000000000000D+00
379  3.7800000000000D+00  0.0000000000000D+00  0.0000000000000D+00
380  3.7900000000000D+00  0.0000000000000D+00  0.0000000000000D+00
381  3.8000000000000D+00  0.0000000000000D+00  0.0000000000000D+00
382  3.8100000000000D+00  0.0000000000000D+00  0.0000000000000D+00
383  3.8200000000000D+00  0.0000000000000D+00  0.0000000000000D+00
384  3.8300000000000D+00  0.0000000000000D+00  0.0000000000000D+00
385  3.8400000000000D+00  0.0000000000000D+00  0.0000000000000D+00
386  3.8500000000000D+00  0.0000000000000D+00  0.0000000000000D+00
387  3.8600000000000D+00  0.0000000000000D+00  0.0000000000000D+00
388  3.8700000000000D+00  0.0000000000000D+00  0.0000000000000D+00
389  3.8800000000000D+00  0.0000000000000D+00  0.0000000000000D+00
390  3.8900000000000D+00  0.0000000000000D+00  0.0000000000000D+00
391  3.9000000000000D+00  0.0000000000000D+00  0.0000000000000D+00
392  3.9100000000000D+00  0.0000000000000D+00  0.0000000000000D+00
393  3.9200000000000D+00  0.0000000000000D+00  0.0000000000000D+00
394  3.9300000000000D+00  0.0000000000000D+00  0.0000000000000D+00
395  3.9400000000000D+00  0.0000000000000D+00  0.0000000000000D+00
396  3.9500000000000D+00  0.0000000000000D+00  0.0000000000000D+00
397  3.9600000000000D+00  0.0000000000000D+00  0.0000000000000D+00
398  3.9700000000000D+00  0.0000000000000D+00  0.0000000000000D+00
399  3.9800000000000D+00  0.0000000000000D+00  0.0000000000000D+00
400  3.9900000000000D+00  0.0000000000000D+00  0.0000000000000D+00
401  4.0000000000000D+00  0.0000000000000D+00  0.0000000000000D+00
402  4.0100000000000D+00  0.0000000000000D+00  0.0000000000000D+00
403  4.0200000000000D+00  0.0000000000000D+00  0.0000000000000D+00
404  4.0300000000000D+00  0.0000000000000D+00  0.0000000000000D+00
405  4.0400000000000D+00  0.0000000000000D+00  0.0000000000000D+00
406  4.0500000000000D+00  0.0000000000000D+00  0.0000000000000D+00
407  4.0600000000000D+00  0.0000000000000D+00  0.0000000000000D+00
408  4.0700000000000D+00  0.0000000000000D+00  0.0000000000000D+00
409  4.0800000000000D+00  0.0000000000000D+00  0.0000000000000D+00
410  4.0900000000000D+00  0.0000000000000D+00  0.0000000000000D+00
411  4.1000000000000D+00  0.0000000000000D+00  0.0000000000000D+00
412  4.1100000000000D+00  0.0000000000000D+00  0.0000000000000D+00
413  4.1200000000000D+00  0.0000000000000D+00  0.0000000000000D+00
414  4.1300000000000D+00  0.0000000000000D+00  0.0000000000000D+00
415  4.1400000000000D+00  0.0000000000000D+00  0.0000000000000D+00
416  4.1500000000000D+00  0.0000000000000D+00  0.0000000000000D+00
417  4.1600000000000D+00  0.0000000000000D+00  0.0000000000000D+00
418  4.1700000000000D+00  0.0000000000000D+00  0.0000000000000D+00
419  4.1800000000000D+00  0.0000000000000D+00  0.0000000000000D+00
420  4.1900000000000D+00  0.0000000000000D+00  0.0000000000000D+00
421  4.2000000000000D+00  0.0000000000000D+00  0.0000000000000D+00
422  4.2100000000000D+00  0.0000000000000D+00  0.0000000000000D+00
423  4.2200000000000D+00  0.0000000000000D+00  0.0000000000000D+00
424  4.2300000000000D+00  0.0000000000000D+00  0.0000000000000D+00
425  4.2400000000000D+00  0.0000000000000D+00  0.0000000000000D+00
426  4.2500000000000D+00  0.0000000000000D+00  0.0000000000000D+00
427  4.2600000000000D+00  0.0000000000000D+00  0.0000000000000D+00
428  4.2700000000000D+00  0.0000000000000D+00  0.0000000000000D+00
429  4.2800000000000D+00  0.0000000000000D+00  0.0000000000000D+00
430  4.2900000000000D+00  0.0000000000000D+00  0.0000000000000D+00
431  4.3000000000000D+00  0.0000000000000D+00  0.0000000000000D+00
432  4.3100000000000D+00  0.0000000000000D+00  0.0000000000000D+00
433  4.3200000000000D+00  0.0000000000000D+00  0.0000000000000D+00
434  4.3300000000000D+00  0.0000000000000D+00  0.0000000000000D+00
435  4.3400000000000D+00  0.0000000000000D+00  0.0000000000000D+00
436  4.3500000000000D+00  0.0000000000000D+00  0.0000000000000D+00
437  4.3600000000000D+00  0.0000000000000D+00  0.0000000000000D+00
438  4.3700000000000D+00  0.0000000000000D+00  0.0000000000000D+00
439  4.3800000000000D+00  0.0000000000000D+00  0.0000000000000D+00
440  4.3900000000000D+00  0.0000000000000D+00  0.0000000000000D+00
441  4.4000000000000D+00  0.0000000000000D+00  0.0000000000000D+00
442  4.4100000000000D+00  0.0000000000000D+00  0.0000000000000D+00
443  4.4200000000000D+00  0.0000000000000D+00  0.0000000000000D+00
444  4.4300000000000D+00  0.0000000000000D+00  0.0000000000000D+00