O     ONCVPSP  r_core=  1.26  1.36  1.40
8.0000      6.0000      150103    zatom,zion,pspd
8    11     2     4   601     0    pspcod,pspxc,lmax,lloc,mmax,r2well
6.00000000  0.07000000  0.00000000    rchrg fchrg qchrg
2     2     1     0     0    nproj
0                 extension_switch
0                         5.1727520072660D+00  6.3783359097354D-01
1  0.0000000000000D+00 -0.0000000000000D+00  0.0000000000000D+00
2  1.0000000000000D-02 -8.7746718687163D-02  2.8753126757452D-02
3  2.0000000000000D-02 -1.7515883100336D-01  5.6978316797425D-02
4  3.0000000000000D-02 -2.6190442327154D-01  8.4155064017713D-02
5  4.0000000000000D-02 -3.4765693523035D-01  1.0977761930363D-01
6  5.0000000000000D-02 -4.3209775722389D-01  1.3336210981860D-01
7  6.0000000000000D-02 -5.1491873311949D-01  1.5445335116888D-01
8  7.0000000000000D-02 -5.9582453942719D-01  1.7263125653480D-01
9  8.0000000000000D-02 -6.7453491269951D-01  1.8751675232196D-01
10  9.0000000000000D-02 -7.5078669922351D-01  1.9877711649033D-01
11  1.0000000000000D-01 -8.2433570337100D-01  2.0613066368629D-01
12  1.1000000000000D-01 -8.9495831348025D-01  2.0935070990827D-01
13  1.2000000000000D-01 -9.6245288711410D-01  2.0826875946890D-01
14  1.3000000000000D-01 -1.0266408805341D+00  2.0277686731729D-01
15  1.4000000000000D-01 -1.0873677108148D+00  1.9282914162757D-01
16  1.5000000000000D-01 -1.1445033418957D+00  1.7844236206831D-01
17  1.6000000000000D-01 -1.1979425903432D+00  1.5969570307388D-01
18  1.7000000000000D-01 -1.2476051491255D+00  1.3672956192655D-01
19  1.8000000000000D-01 -1.2934353326247D+00  1.0974350566994D-01
20  1.9000000000000D-01 -1.3354015484748D+00  7.8993360573576D-02
21  2.0000000000000D-01 -1.3734955061935D+00  4.4787483498520D-02
22  2.1000000000000D-01 -1.4077311758218D+00  7.4822619879935D-03
23  2.2000000000000D-01 -1.4381435131205D+00 -3.2523094732613D-02
24  2.3000000000000D-01 -1.4647869699163D+00 -7.4792408779373D-02
25  2.4000000000000D-01 -1.4877338130906D+00 -1.1885894507791D-01
26  2.5000000000000D-01 -1.5070722782153D+00 -1.6423229009312D-01
27  2.6000000000000D-01 -1.5229045766165D+00 -2.1040563484937D-01
28  2.7000000000000D-01 -1.5353447988419D+00 -2.5686330487375D-01
29  2.8000000000000D-01 -1.5445167338965D+00 -3.0308847616514D-01
30  2.9000000000000D-01 -1.5505516365967D+00 -3.4857096292363D-01
31  3.0000000000000D-01 -1.5535859778308D+00 -3.9281495570986D-01
32  3.1000000000000D-01 -1.5537592084045D+00 -4.3534660497473D-01
33  3.2000000000000D-01 -1.5512115694817D+00 -4.7572133642237D-01
34  3.3000000000000D-01 -1.5460820034763D+00 -5.1353071406072D-01
35  3.4000000000000D-01 -1.5385060894867D+00 -5.4840911478390D-01
36  3.5000000000000D-01 -1.5286142601430D+00 -5.8003932812268D-01
37  3.6000000000000D-01 -1.5165300045335D+00 -6.0815809985617D-01
38  3.7000000000000D-01 -1.5023684389108D+00 -6.3256031909319D-01
39  3.8000000000000D-01 -1.4862349326755D+00 -6.5310290560213D-01
40  3.9000000000000D-01 -1.4682240474931D+00 -6.6970753191050D-01
41  4.0000000000000D-01 -1.4484187163200D+00 -6.8236243344448D-01
42  4.1000000000000D-01 -1.4268896536593D+00 -6.9112333095526D-01
43  4.2000000000000D-01 -1.4036950414524D+00 -6.9611332379509D-01
44  4.3000000000000D-01 -1.3788804860339D+00 -6.9752177317785D-01
45  4.4000000000000D-01 -1.3524792467417D+00 -6.9560217826918D-01
46  4.5000000000000D-01 -1.3245127333272D+00 -6.9066906009336D-01
47  4.6000000000000D-01 -1.2949912657495D+00 -6.8309388097109D-01
48  4.7000000000000D-01 -1.2639150859705D+00 -6.7330004165759D-01
49  4.8000000000000D-01 -1.2312756066098D+00 -6.6175701686977D-01
50  4.9000000000000D-01 -1.1970568634458D+00 -6.4897380505181D-01
51  5.0000000000000D-01 -1.1612371926353D+00 -6.3549134260279D-01
52  5.1000000000000D-01 -1.1237910778865D+00 -6.2187460753865D-01
53  5.2000000000000D-01 -1.0846910622420D+00 -6.0870441940974D-01
54  5.3000000000000D-01 -1.0439099588342D+00 -5.9656784540885D-01
55  5.4000000000000D-01 -1.0014229493044D+00 -5.8604948310558D-01
56  5.5000000000000D-01 -9.5720975280150D-01 -5.7772229378699D-01
57  5.6000000000000D-01 -9.1125711377269D-01 -5.7213699944025D-01
58  5.7000000000000D-01 -8.6356058813018D-01 -5.6981479278701D-01
59  5.8000000000000D-01 -8.1412728625751D-01 -5.7123548142722D-01
60  5.9000000000000D-01 -7.6297729203109D-01 -5.7683171666351D-01
61  6.0000000000000D-01 -7.1014618050277D-01 -5.8697802367734D-01
62  6.1000000000000D-01 -6.5568645591841D-01 -6.0198463945530D-01
63  6.2000000000000D-01 -5.9966898524643D-01 -6.2209118257153D-01
64  6.3000000000000D-01 -5.4218500046500D-01 -6.4745754192981D-01
65  6.4000000000000D-01 -4.8334636327084D-01 -6.7816243408370D-01
66  6.5000000000000D-01 -4.2328678064461D-01 -7.1419739911972D-01
67  6.6000000000000D-01 -3.6216257739238D-01 -7.5546248753876D-01
68  6.7000000000000D-01 -3.0015235468184D-01 -8.0176680612456D-01
69  6.8000000000000D-01 -2.3745687647438D-01 -8.5282777805410D-01
70  6.9000000000000D-01 -1.7429909563559D-01 -9.0826917232797D-01
71  7.0000000000000D-01 -1.1092283261629D-01 -9.6762527824985D-01
72  7.1000000000000D-01 -4.7591626713966D-02 -1.0303438862443D+00
73  7.2000000000000D-01  1.5412768439738D-02 -1.0957905589694D+00
74  7.3000000000000D-01  7.7792278451600D-02 -1.1632546245450D+00
75  7.4000000000000D-01  1.3923465394932D-01 -1.2319551817501D+00
76  7.5000000000000D-01  1.9941615323445D-01 -1.3010504545074D+00
77  7.6000000000000D-01  2.5800430303824D-01 -1.3696466431002D+00
78  7.7000000000000D-01  3.1466097514841D-01 -1.4368081045453D+00
79  7.8000000000000D-01  3.6904569757600D-01 -1.5015684542349D+00
80  7.9000000000000D-01  4.2081916221858D-01 -1.5629424354936D+00
81  8.0000000000000D-01  4.6964689073502D-01 -1.6199384239136D+00
82  8.1000000000000D-01  5.1520301748917D-01 -1.6715714231086D+00
83  8.2000000000000D-01  5.5717414607363D-01 -1.7168764000984D+00
84  8.3000000000000D-01  5.9526323410317D-01 -1.7549218019465D+00
85  8.4000000000000D-01  6.2919345967137D-01 -1.7848230905351D+00
86  8.5000000000000D-01  6.5871202209064D-01 -1.8057561294441D+00
87  8.6000000000000D-01  6.8359382927324D-01 -1.8169702557794D+00
88  8.7000000000000D-01  7.0364502435168D-01 -1.8178008704211D+00
89  8.8000000000000D-01  7.1870630487672D-01 -1.8076813825299D+00
90  8.9000000000000D-01  7.2865598917407D-01 -1.7861543482553D+00
91  9.0000000000000D-01  7.3341278620777D-01 -1.7528816495097D+00
92  9.1000000000000D-01  7.3293822762162D-01 -1.7076535665028D+00
93  9.2000000000000D-01  7.2723872356288D-01 -1.6503966076633D+00
94  9.3000000000000D-01  7.1636720749931D-01 -1.5811799728134D+00
95  9.4000000000000D-01  7.0042433959388D-01 -1.5002205402697D+00
96  9.5000000000000D-01  6.7955924337293D-01 -1.4078862861560D+00
97  9.6000000000000D-01  6.5396975646398D-01 -1.3046980648209D+00
98  9.7000000000000D-01  6.2390194444099D-01 -1.1913288609859D+00
99  9.8000000000000D-01  5.8964924417630D-01 -1.0686017333303D+00
100  9.9000000000000D-01  5.5155332417073D-01 -9.3749403233017D-01
101  1.0000000000000D+00  5.0999961637728D-01 -7.9912284894097D-01
102  1.0100000000000D+00  4.6541594744851D-01 -6.5474137178199D-01
103  1.0200000000000D+00  4.1826975707996D-01 -5.0573034404813D-01
104  1.0300000000000D+00  3.6906487278200D-01 -3.5358799277782D-01
105  1.0400000000000D+00  3.1833782050417D-01 -1.9991775774377D-01
106  1.0500000000000D+00  2.6665487759709D-01 -4.6420890285481D-02
107  1.0600000000000D+00  2.1460556922827D-01  1.0512631778195D-01
108  1.0700000000000D+00  1.6279861681829D-01  2.5288509821777D-01
109  1.0800000000000D+00  1.1185713353617D-01  3.9496985876151D-01
110  1.0900000000000D+00  6.2415312352156D-02  5.2945937064337D-01
111  1.1000000000000D+00  1.5107107024519D-02  6.5443169638532D-01
112  1.1100000000000D+00 -2.9435293593904D-02  7.6797139887706D-01
113  1.1200000000000D+00 -7.0587939661259D-02  8.6819009503590D-01
114  1.1300000000000D+00 -1.0773536459199D-01  9.5322806449489D-01
115  1.1400000000000D+00 -1.4029102270901D-01  1.0213187522223D+00
116  1.1500000000000D+00 -1.6769242333106D-01  1.0707752097414D+00
117  1.1600000000000D+00 -1.8940645974187D-01  1.1000073007296D+00
118  1.1700000000000D+00 -2.0492940568198D-01  1.1075220803438D+00
119  1.1800000000000D+00 -2.1381678767469D-01  1.0920193986157D+00
120  1.1900000000000D+00 -2.1566418496198D-01  1.0523317112163D+00
121  1.2000000000000D+00 -2.1010905055893D-01  9.8742985903445D-01
122  1.2100000000000D+00 -1.9685723666393D-01  8.9650863353148D-01
123  1.2200000000000D+00 -1.7567474778028D-01  7.7895649066562D-01
124  1.2300000000000D+00 -1.4637391006840D-01  6.3431130525239D-01
125  1.2400000000000D+00 -1.0882768364637D-01  4.6230325272745D-01
126  1.2500000000000D+00 -5.9526900714588D-02  2.4898159910955D-01
127  1.2600000000000D+00 -6.1082221259462D-03  2.5230263055810D-02
128  1.2700000000000D+00  4.9108487122264D-03 -2.0684894967888D-02
129  1.2800000000000D+00  1.5073250150236D-06  7.3098515598615D-07
130  1.2900000000000D+00  6.2681790758387D-07  3.0397862530194D-07
131  1.3000000000000D+00  0.0000000000000D+00  0.0000000000000D+00
132  1.3100000000000D+00  0.0000000000000D+00  0.0000000000000D+00
133  1.3200000000000D+00  0.0000000000000D+00  0.0000000000000D+00
134  1.3300000000000D+00  0.0000000000000D+00  0.0000000000000D+00
135  1.3400000000000D+00  0.0000000000000D+00  0.0000000000000D+00
136  1.3500000000000D+00  0.0000000000000D+00  0.0000000000000D+00
137  1.3600000000000D+00  0.0000000000000D+00  0.0000000000000D+00
138  1.3700000000000D+00  0.0000000000000D+00  0.0000000000000D+00
139  1.3800000000000D+00  0.0000000000000D+00  0.0000000000000D+00
140  1.3900000000000D+00  0.0000000000000D+00  0.0000000000000D+00
141  1.4000000000000D+00  0.0000000000000D+00  0.0000000000000D+00
142  1.4100000000000D+00  0.0000000000000D+00  0.0000000000000D+00
143  1.4200000000000D+00  0.0000000000000D+00  0.0000000000000D+00
144  1.4300000000000D+00  0.0000000000000D+00  0.0000000000000D+00
145  1.4400000000000D+00  0.0000000000000D+00  0.0000000000000D+00
146  1.4500000000000D+00  0.0000000000000D+00  0.0000000000000D+00
147  1.4600000000000D+00  0.0000000000000D+00  0.0000000000000D+00
148  1.4700000000000D+00  0.0000000000000D+00  0.0000000000000D+00
149  1.4800000000000D+00  0.0000000000000D+00  0.0000000000000D+00
150  1.4900000000000D+00  0.0000000000000D+00  0.0000000000000D+00
151  1.5000000000000D+00  0.0000000000000D+00  0.0000000000000D+00
152  1.5100000000000D+00  0.0000000000000D+00  0.0000000000000D+00
153  1.5200000000000D+00  0.0000000000000D+00  0.0000000000000D+00
154  1.5300000000000D+00  0.0000000000000D+00  0.0000000000000D+00
155  1.5400000000000D+00  0.0000000000000D+00  0.0000000000000D+00
156  1.5500000000000D+00  0.0000000000000D+00  0.0000000000000D+00
157  1.5600000000000D+00  0.0000000000000D+00  0.0000000000000D+00
158  1.5700000000000D+00  0.0000000000000D+00  0.0000000000000D+00
159  1.5800000000000D+00  0.0000000000000D+00  0.0000000000000D+00
160  1.5900000000000D+00  0.0000000000000D+00  0.0000000000000D+00
161  1.6000000000000D+00  0.0000000000000D+00  0.0000000000000D+00
162  1.6100000000000D+00  0.0000000000000D+00  0.0000000000000D+00
163  1.6200000000000D+00  0.0000000000000D+00  0.0000000000000D+00
164  1.6300000000000D+00  0.0000000000000D+00  0.0000000000000D+00
165  1.6400000000000D+00  0.0000000000000D+00  0.0000000000000D+00
166  1.6500000000000D+00  0.0000000000000D+00  0.0000000000000D+00
167  1.6600000000000D+00  0.0000000000000D+00  0.0000000000000D+00
168  1.6700000000000D+00  0.0000000000000D+00  0.0000000000000D+00
169  1.6800000000000D+00  0.0000000000000D+00  0.0000000000000D+00
170  1.6900000000000D+00  0.0000000000000D+00  0.0000000000000D+00
171  1.7000000000000D+00  0.0000000000000D+00  0.0000000000000D+00
172  1.7100000000000D+00  0.0000000000000D+00  0.0000000000000D+00
173  1.7200000000000D+00  0.0000000000000D+00  0.0000000000000D+00
174  1.7300000000000D+00  0.0000000000000D+00  0.0000000000000D+00
175  1.7400000000000D+00  0.0000000000000D+00  0.0000000000000D+00
176  1.7500000000000D+00  0.0000000000000D+00  0.0000000000000D+00
177  1.7600000000000D+00  0.0000000000000D+00  0.0000000000000D+00
178  1.7700000000000D+00  0.0000000000000D+00  0.0000000000000D+00
179  1.7800000000000D+00  0.0000000000000D+00  0.0000000000000D+00
180  1.7900000000000D+00  0.0000000000000D+00  0.0000000000000D+00
181  1.8000000000000D+00  0.0000000000000D+00  0.0000000000000D+00
182  1.8100000000000D+00  0.0000000000000D+00  0.0000000000000D+00
183  1.8200000000000D+00  0.0000000000000D+00  0.0000000000000D+00
184  1.8300000000000D+00  0.0000000000000D+00  0.0000000000000D+00
185  1.8400000000000D+00  0.0000000000000D+00  0.0000000000000D+00
186  1.8500000000000D+00  0.0000000000000D+00  0.0000000000000D+00
187  1.8600000000000D+00  0.0000000000000D+00  0.0000000000000D+00
188  1.8700000000000D+00  0.0000000000000D+00  0.0000000000000D+00
189  1.8800000000000D+00  0.0000000000000D+00  0.0000000000000D+00
190  1.8900000000000D+00  0.0000000000000D+00  0.0000000000000D+00
191  1.9000000000000D+00  0.0000000000000D+00  0.0000000000000D+00
192  1.9100000000000D+00  0.0000000000000D+00  0.0000000000000D+00
193  1.9200000000000D+00  0.0000000000000D+00  0.0000000000000D+00
194  1.9300000000000D+00  0.0000000000000D+00  0.0000000000000D+00
195  1.9400000000000D+00  0.0000000000000D+00  0.0000000000000D+00
196  1.9500000000000D+00  0.0000000000000D+00  0.0000000000000D+00
197  1.9600000000000D+00  0.0000000000000D+00  0.0000000000000D+00
198  1.9700000000000D+00  0.0000000000000D+00  0.0000000000000D+00
199  1.9800000000000D+00  0.0000000000000D+00  0.0000000000000D+00
200  1.9900000000000D+00  0.0000000000000D+00  0.0000000000000D+00
201  2.0000000000000D+00  0.0000000000000D+00  0.0000000000000D+00
202  2.0100000000000D+00  0.0000000000000D+00  0.0000000000000D+00
203  2.0200000000000D+00  0.0000000000000D+00  0.0000000000000D+00
204  2.0300000000000D+00  0.0000000000000D+00  0.0000000000000D+00
205  2.0400000000000D+00  0.0000000000000D+00  0.0000000000000D+00
206  2.0500000000000D+00  0.0000000000000D+00  0.0000000000000D+00
207  2.0600000000000D+00  0.0000000000000D+00  0.0000000000000D+00
208  2.0700000000000D+00  0.0000000000000D+00  0.0000000000000D+00
209  2.0800000000000D+00  0.0000000000000D+00  0.0000000000000D+00
210  2.0900000000000D+00  0.0000000000000D+00  0.0000000000000D+00
211  2.1000000000000D+00  0.0000000000000D+00  0.0000000000000D+00
212  2.1100000000000D+00  0.0000000000000D+00  0.0000000000000D+00
213  2.1200000000000D+00  0.0000000000000D+00  0.0000000000000D+00
214  2.1300000000000D+00  0.0000000000000D+00  0.0000000000000D+00
215  2.1400000000000D+00  0.0000000000000D+00  0.0000000000000D+00
216  2.1500000000000D+00  0.0000000000000D+00  0.0000000000000D+00
217  2.1600000000000D+00  0.0000000000000D+00  0.0000000000000D+00
218  2.1700000000000D+00  0.0000000000000D+00  0.0000000000000D+00
219  2.1800000000000D+00  0.0000000000000D+00  0.0000000000000D+00
220  2.1900000000000D+00  0.0000000000000D+00  0.0000000000000D+00
221  2.2000000000000D+00  0.0000000000000D+00  0.0000000000000D+00
222  2.2100000000000D+00  0.0000000000000D+00  0.0000000000000D+00
223  2.2200000000000D+00  0.0000000000000D+00  0.0000000000000D+00
224  2.2300000000000D+00  0.0000000000000D+00  0.0000000000000D+00
225  2.2400000000000D+00  0.0000000000000D+00  0.0000000000000D+00
226  2.2500000000000D+00  0.0000000000000D+00  0.0000000000000D+00
227  2.2600000000000D+00  0.0000000000000D+00  0.0000000000000D+00
228  2.2700000000000D+00  0.0000000000000D+00  0.0000000000000D+00
229  2.2800000000000D+00  0.0000000000000D+00  0.0000000000000D+00
230  2.2900000000000D+00  0.0000000000000D+00  0.0000000000000D+00
231  2.3000000000000D+00  0.0000000000000D+00  0.0000000000000D+00
232  2.3100000000000D+00  0.0000000000000D+00  0.0000000000000D+00
233  2.3200000000000D+00  0.0000000000000D+00  0.0000000000000D+00
234  2.3300000000000D+00  0.0000000000000D+00  0.0000000000000D+00
235  2.3400000000000D+00  0.0000000000000D+00  0.0000000000000D+00
236  2.3500000000000D+00  0.0000000000000D+00  0.0000000000000D+00
237  2.3600000000000D+00  0.0000000000000D+00  0.0000000000000D+00
238  2.3700000000000D+00  0.0000000000000D+00  0.0000000000000D+00
239  2.3800000000000D+00  0.0000000000000D+00  0.0000000000000D+00
240  2.3900000000000D+00  0.0000000000000D+00  0.0000000000000D+00
241  2.4000000000000D+00  0.0000000000000D+00  0.0000000000000D+00
242  2.4100000000000D+00  0.0000000000000D+00  0.0000000000000D+00
243  2.4200000000000D+00  0.0000000000000D+00  0.0000000000000D+00
244  2.4300000000000D+00  0.0000000000000D+00  0.0000000000000D+00
245  2.4400000000000D+00  0.0000000000000D+00  0.0000000000000D+00
246  2.4500000000000D+00  0.0000000000000D+00  0.0000000000000D+00
247  2.4600000000000D+00  0.0000000000000D+00  0.0000000000000D+00
248  2.4700000000000D+00  0.0000000000000D+00  0.0000000000000D+00
249  2.4800000000000D+00  0.0000000000000D+00  0.0000000000000D+00
250  2.4900000000000D+00  0.0000000000000D+00  0.0000000000000D+00
251  2.5000000000000D+00  0.0000000000000D+00  0.0000000000000D+00
252  2.5100000000000D+00  0.0000000000000D+00  0.0000000000000D+00
253  2.5200000000000D+00  0.0000000000000D+00  0.0000000000000D+00
254  2.5300000000000D+00  0.0000000000000D+00  0.0000000000000D+00
255  2.5400000000000D+00  0.0000000000000D+00  0.0000000000000D+00
256  2.5500000000000D+00  0.0000000000000D+00  0.0000000000000D+00
257  2.5600000000000D+00  0.0000000000000D+00  0.0000000000000D+00
258  2.5700000000000D+00  0.0000000000000D+00  0.0000000000000D+00
259  2.5800000000000D+00  0.0000000000000D+00  0.0000000000000D+00
260  2.5900000000000D+00  0.0000000000000D+00  0.0000000000000D+00
261  2.6000000000000D+00  0.0000000000000D+00  0.0000000000000D+00
262  2.6100000000000D+00  0.0000000000000D+00  0.0000000000000D+00
263  2.6200000000000D+00  0.0000000000000D+00  0.0000000000000D+00
264  2.6300000000000D+00  0.0000000000000D+00  0.0000000000000D+00
265  2.6400000000000D+00  0.0000000000000D+00  0.0000000000000D+00
266  2.6500000000000D+00  0.0000000000000D+00  0.0000000000000D+00
267  2.6600000000000D+00  0.0000000000000D+00  0.0000000000000D+00
268  2.6700000000000D+00  0.0000000000000D+00  0.0000000000000D+00
269  2.6800000000000D+00  0.0000000000000D+00  0.0000000000000D+00
270  2.6900000000000D+00  0.0000000000000D+00  0.0000000000000D+00
271  2.7000000000000D+00  0.0000000000000D+00  0.0000000000000D+00
272  2.7100000000000D+00  0.0000000000000D+00  0.0000000000000D+00
273  2.7200000000000D+00  0.0000000000000D+00  0.0000000000000D+00
274  2.7300000000000D+00  0.0000000000000D+00  0.0000000000000D+00
275  2.7400000000000D+00  0.0000000000000D+00  0.0000000000000D+00
276  2.7500000000000D+00  0.0000000000000D+00  0.0000000000000D+00
277  2.7600000000000D+00  0.0000000000000D+00  0.0000000000000D+00
278  2.7700000000000D+00  0.0000000000000D+00  0.0000000000000D+00
279  2.7800000000000D+00  0.0000000000000D+00  0.0000000000000D+00
280  2.7900000000000D+00  0.0000000000000D+00  0.0000000000000D+00
281  2.8000000000000D+00  0.0000000000000D+00  0.0000000000000D+00
282  2.8100000000000D+00  0.0000000000000D+00  0.0000000000000D+00
283  2.8200000000000D+00  0.0000000000000D+00  0.0000000000000D+00
284  2.8300000000000D+00  0.0000000000000D+00  0.0000000000000D+00
285  2.8400000000000D+00  0.0000000000000D+00  0.0000000000000D+00
286  2.8500000000000D+00  0.0000000000000D+00  0.0000000000000D+00
287  2.8600000000000D+00  0.0000000000000D+00  0.0000000000000D+00
288  2.8700000000000D+00  0.0000000000000D+00  0.0000000000000D+00
289  2.8800000000000D+00  0.0000000000000D+00  0.0000000000000D+00
290  2.8900000000000D+00  0.0000000000000D+00  0.0000000000000D+00
291  2.9000000000000D+00  0.0000000000000D+00  0.0000000000000D+00
292  2.9100000000000D+00  0.0000000000000D+00  0.0000000000000D+00
293  2.9200000000000D+00  0.0000000000000D+00  0.0000000000000D+00
294  2.9300000000000D+00  0.0000000000000D+00  0.0000000000000D+00
295  2.9400000000000D+00  0.0000000000000D+00  0.0000000000000D+00
296  2.9500000000000D+00  0.0000000000000D+00  0.0000000000000D+00
297  2.9600000000000D+00  0.0000000000000D+00  0.0000000000000D+00
298  2.9700000000000D+00  0.0000000000000D+00  0.0000000000000D+00
299  2.9800000000000D+00  0.0000000000000D+00  0.0000000000000D+00
300  2.9900000000000D+00  0.0000000000000D+00  0.0000000000000D+00
301  3.0000000000000D+00  0.0000000000000D+00  0.0000000000000D+00
302  3.0100000000000D+00  0.0000000000000D+00  0.0000000000000D+00
303  3.0200000000000D+00  0.0000000000000D+00  0.0000000000000D+00
304  3.0300000000000D+00  0.0000000000000D+00  0.0000000000000D+00
305  3.0400000000000D+00  0.0000000000000D+00  0.0000000000000D+00
306  3.0500000000000D+00  0.0000000000000D+00  0.0000000000000D+00
307  3.0600000000000D+00  0.0000000000000D+00  0.0000000000000D+00
308  3.0700000000000D+00  0.0000000000000D+00  0.0000000000000D+00
309  3.0800000000000D+00  0.0000000000000D+00  0.0000000000000D+00
310  3.0900000000000D+00  0.0000000000000D+00  0.0000000000000D+00
311  3.1000000000000D+00  0.0000000000000D+00  0.0000000000000D+00
312  3.1100000000000D+00  0.0000000000000D+00  0.0000000000000D+00
313  3.1200000000000D+00  0.0000000000000D+00  0.0000000000000D+00
314  3.1300000000000D+00  0.0000000000000D+00  0.0000000000000D+00
315  3.1400000000000D+00  0.0000000000000D+00  0.0000000000000D+00
316  3.1500000000000D+00  0.0000000000000D+00  0.0000000000000D+00
317  3.1600000000000D+00  0.0000000000000D+00  0.0000000000000D+00
318  3.1700000000000D+00  0.0000000000000D+00  0.0000000000000D+00
319  3.1800000000000D+00  0.0000000000000D+00  0.0000000000000D+00
320  3.1900000000000D+00  0.0000000000000D+00  0.0000000000000D+00
321  3.2000000000000D+00  0.0000000000000D+00  0.0000000000000D+00
322  3.2100000000000D+00  0.0000000000000D+00  0.0000000000000D+00
323  3.2200000000000D+00  0.0000000000000D+00  0.0000000000000D+00
324  3.2300000000000D+00  0.0000000000000D+00  0.0000000000000D+00
325  3.2400000000000D+00  0.0000000000000D+00  0.0000000000000D+00
326  3.2500000000000D+00  0.0000000000000D+00  0.0000000000000D+00
327  3.2600000000000D+00  0.0000000000000D+00  0.0000000000000D+00
328  3.2700000000000D+00  0.0000000000000D+00  0.0000000000000D+00
329  3.2800000000000D+00  0.0000000000000D+00  0.0000000000000D+00
330  3.2900000000000D+00  0.0000000000000D+00  0.0000000000000D+00
331  3.3000000000000D+00  0.0000000000000D+00  0.0000000000000D+00
332  3.3100000000000D+00  0.0000000000000D+00  0.0000000000000D+00
333  3.3200000000000D+00  0.0000000000000D+00  0.0000000000000D+00
334  3.3300000000000D+00  0.0000000000000D+00  0.0000000000000D+00
335  3.3400000000000D+00  0.0000000000000D+00  0.0000000000000D+00
336  3.3500000000000D+00  0.0000000000000D+00  0.0000000000000D+00
337  3.3600000000000D+00  0.0000000000000D+00  0.0000000000000D+00
338  3.3700000000000D+00  0.0000000000000D+00  0.0000000000000D+00
339  3.3800000000000D+00  0.0000000000000D+00  0.0000000000000D+00
340  3.3900000000000D+00  0.0000000000000D+00  0.0000000000000D+00
341  3.4000000000000D+00  0.0000000000000D+00  0.0000000000000D+00
342  3.4100000000000D+00  0.0000000000000D+00  0.0000000000000D+00
343  3.4200000000000D+00  0.0000000000000D+00  0.0000000000000D+00
344  3.4300000000000D+00  0.0000000000000D+00  0.0000000000000D+00
345  3.4400000000000D+00  0.0000000000000D+00  0.0000000000000D+00
346  3.4500000000000D+00  0.0000000000000D+00  0.0000000000000D+00
347  3.4600000000000D+00  0.0000000000000D+00  0.0000000000000D+00
348  3.4700000000000D+00  0.0000000000000D+00  0.0000000000000D+00
349  3.4800000000000D+00  0.0000000000000D+00  0.0000000000000D+00
350  3.4900000000000D+00  0.0000000000000D+00  0.0000000000000D+00
351  3.5000000000000D+00  0.0000000000000D+00  0.0000000000000D+00
352  3.5100000000000D+00  0.0000000000000D+00  0.0000000000000D+00
353  3.5200000000000D+00  0.0000000000000D+00  0.0000000000000D+00
354  3.5300000000000D+00  0.0000000000000D+00  0.0000000000000D+00
355  3.5400000000000D+00  0.0000000000000D+00  0.0000000000000D+00
356  3.5500000000000D+00  0.0000000000000D+00  0.0000000000000D+00
357  3.5600000000000D+00  0.0000000000000D+00  0.0000000000000D+00
358  3.5700000000000D+00  0.0000000000000D+00  0.0000000000000D+00
359  3.5800000000000D+00  0.0000000000000D+00  0.0000000000000D+00
360  3.5900000000000D+00  0.0000000000000D+00  0.0000000000000D+00
361  3.6000000000000D+00  0.0000000000000D+00  0.0000000000000D+00
362  3.6100000000000D+00  0.0000000000000D+00  0.0000000000000D+00
363  3.6200000000000D+00  0.0000000000000D+00  0.0000000000000D+00
364  3.6300000000000D+00  0.0000000000000D+00  0.0000000000000D+00
365  3.6400000000000D+00  0.0000000000000D+00  0.0000000000000D+00
366  3.6500000000000D+00  0.0000000000000D+00  0.0000000000000D+00
367  3.6600000000000D+00  0.0000000000000D+00  0.0000000000000D+00
368  3.6700000000000D+00  0.0000000000000D+00  0.0000000000000D+00
369  3.6800000000000D+00  0.0000000000000D+00  0.0000000000000D+00
370  3.6900000000000D+00  0.0000000000000D+00  0.0000000000000D+00
371  3.7000000000000D+00  0.0000000000000D+00  0.0000000000000D+00
372  3.7100000000000D+00  0.0000000000000D+00  0.0000000000000D+00
373  3.7200000000000D+00  0.0000000000000D+00  0.0000000000000D+00
374  3.7300000000000D+00  0.0000000000000D+00  0.0000000000000D+00
375  3.7400000000000D+00  0.0000000000000D+00  0.0000000000000D+00
376  3.7500000000000D+00  0.0000000000000D+00  0.0000000000000D+00
377  3.7600000000000D+00  0.0000000000000D+00  0.0000000000000D+00
378  3.7700000000000D+00  0.0000000000000D+00  0.0000000000000D+00
379  3.7800000000000D+00  0.0000000000000D+00  0.0000000000000D+00
380  3.7900000000000D+00  0.0000000000000D+00  0.0000000000000D+00
381  3.8000000000000D+00  0.0000000000000D+00  0.0000000000000D+00
382  3.8100000000000D+00  0.0000000000000D+00  0.0000000000000D+00
383  3.8200000000000D+00  0.0000000000000D+00  0.0000000000000D+00
384  3.8300000000000D+00  0.0000000000000D+00  0.0000000000000D+00
385  3.8400000000000D+00  0.0000000000000D+00  0.0000000000000D+00
386  3.8500000000000D+00  0.0000000000000D+00  0.0000000000000D+00
387  3.8600000000000D+00  0.0000000000000D+00  0.0000000000000D+00
388  3.8700000000000D+00  0.0000000000000D+00  0.0000000000000D+00
389  3.8800000000000D+00  0.0000000000000D+00  0.0000000000000D+00
390  3.8900000000000D+00  0.0000000000000D+00  0.0000000000000D+00
391  3.9000000000000D+00  0.0000000000000D+00  0.0000000000000D+00
392  3.9100000000000D+00  0.0000000000000D+00  0.0000000000000D+00
393  3.9200000000000D+00  0.0000000000000D+00  0.0000000000000D+00
394  3.9300000000000D+00  0.0000000000000D+00  0.0000000000000D+00
395  3.9400000000000D+00  0.0000000000000D+00  0.0000000000000D+00
396  3.9500000000000D+00  0.0000000000000D+00  0.0000000000000D+00
397  3.9600000000000D+00  0.0000000000000D+00  0.0000000000000D+00
398  3.9700000000000D+00  0.0000000000000D+00  0.0000000000000D+00
399  3.9800000000000D+00  0.0000000000000D+00  0.0000000000000D+00
400  3.9900000000000D+00  0.0000000000000D+00  0.0000000000000D+00
401  4.0000000000000D+00  0.0000000000000D+00  0.0000000000000D+00
402  4.0100000000000D+00  0.0000000000000D+00  0.0000000000000D+00
403  4.0200000000000D+00  0.0000000000000D+00  0.0000000000000D+00
404  4.0300000000000D+00  0.0000000000000D+00  0.0000000000000D+00
405  4.0400000000000D+00  0.0000000000000D+00  0.0000000000000D+00
406  4.0500000000000D+00  0.0000000000000D+00  0.0000000000000D+00
407  4.0600000000000D+00  0.0000000000000D+00  0.0000000000000D+00
408  4.0700000000000D+00  0.0000000000000D+00  0.0000000000000D+00
409  4.0800000000000D+00  0.0000000000000D+00  0.0000000000000D+00
410  4.0900000000000D+00  0.0000000000000D+00  0.0000000000000D+00
411  4.1000000000000D+00  0.0000000000000D+00  0.0000000000000D+00
412  4.1100000000000D+00  0.0000000000000D+00  0.0000000000000D+00
413  4.1200000000000D+00  0.0000000000000D+00  0.0000000000000D+00
414  4.1300000000000D+00  0.0000000000000D+00  0.0000000000000D+00
415  4.1400000000000D+00  0.0000000000000D+00  0.0000000000000D+00
416  4.1500000000000D+00  0.0000000000000D+00  0.0000000000000D+00
417  4.1600000000000D+00  0.0000000000000D+00  0.0000000000000D+00
418  4.1700000000000D+00  0.0000000000000D+00  0.0000000000000D+00
419  4.1800000000000D+00  0.0000000000000D+00  0.0000000000000D+00
420  4.1900000000000D+00  0.0000000000000D+00  0.0000000000000D+00
421  4.2000000000000D+00  0.0000000000000D+00  0.0000000000000D+00
422  4.2100000000000D+00  0.0000000000000D+00  0.0000000000000D+00
423  4.2200000000000D+00  0.0000000000000D+00  0.0000000000000D+00
424  4.2300000000000D+00  0.0000000000000D+00  0.0000000000000D+00
425  4.2400000000000D+00  0.0000000000000D+00  0.0000000000000D+00
426  4.2500000000000D+00  0.0000000000000D+00  0.0000000000000D+00
427  4.2600000000000D+00  0.0000000000000D+00  0.0000000000000D+00
428  4.2700000000000D+00  0.0000000000000D+00  0.0000000000000D+00
429  4.2800000000000D+00  0.0000000000000D+00  0.0000000000000D+00
430  4.2900000000000D+00  0.0000000000000D+00  0.0000000000000D+00
431  4.3000000000000D+00  0.0000000000000D+00  0.0000000000000D+00
432  4.3100000000000D+00  0.0000000000000D+00  0.0000000000000D+00
433  4.3200000000000D+00  0.0000000000000D+00  0.0000000000000D+00
434  4.3300000000000D+00  0.0000000000000D+00  0.0000000000000D+00
435  4.3400000000000D+00  0.0000000000000D+00  0.0000000000000D+00
436  4.3500000000000D+00  0.0000000000000D+00  0.0000000000000D+00
437  4.3600000000000D+00  0.0000000000000D+00  0.0000000000000D+00
438  4.3700000000000D+00  0.0000000000000D+00  0.0000000000000D+00
439  4.3800000000000D+00  0.0000000000000D+00  0.0000000000000D+00
440  4.3900000000000D+00  0.0000000000000D+00  0.0000000000000D+00
441  4.4000000000000D+00  0.0000000000000D+00  0.0000000000000D+00
442  4.4100000000000D+00  0.0000000000000D+00  0.0000000000000D+00
443  4.4200000000000D+00  0.0000000000000D+00  0.0000000000000D+00
444  4.4300000000000D+00  0.0000000000000D+00  0.0000000000000D+00