O     ONCVPSP  r_core=  1.60  1.60  1.40
8.0000      6.0000      140824    zatom,zion,pspd
8    11     2     4   601     0    pspcod,pspxc,lmax,lloc,mmax,r2well
6.00000000  0.15000000  0.00000000    rchrg fchrg qchrg
2     2     2     0     0    nproj
0                 extension_switch
0                         2.1267962135860D+00 -3.4017408055361D-01
1  0.0000000000000D+00 -0.0000000000000D+00  0.0000000000000D+00
2  1.0000000000000D-02 -6.8820934748578D-02  4.6749370952451D-02
3  2.0000000000000D-02 -1.3750158921003D-01  9.3322200027751D-02
4  3.0000000000000D-02 -2.0590203959135D-01  1.3954232623893D-01
5  4.0000000000000D-02 -2.7388307411267D-01  1.8523435171759D-01
6  5.0000000000000D-02 -3.4130654657835D-01  2.3022402659037D-01
7  6.0000000000000D-02 -4.0803572703180D-01  2.7433863775756D-01
8  7.0000000000000D-02 -4.7393564853233D-01  3.1740740274376D-01
9  8.0000000000000D-02 -5.3887344910227D-01  3.5926186968217D-01
10  9.0000000000000D-02 -6.0271870790012D-01  3.9973632435374D-01
11  1.0000000000000D-01 -6.6534377469870D-01  4.3866820505480D-01
12  1.1000000000000D-01 -7.2662409174787D-01  4.7589852586695D-01
13  1.2000000000000D-01 -7.8643850713579D-01  5.1127230872024D-01
14  1.3000000000000D-01 -8.4466957875781D-01  5.4463902438615D-01
15  1.4000000000000D-01 -9.0120386809455D-01  5.7585304239946D-01
16  1.5000000000000D-01 -9.5593222286922D-01  6.0477408943185D-01
17  1.6000000000000D-01 -1.0087500479454D+00  6.3126771577029D-01
18  1.7000000000000D-01 -1.0595575634587D+00  6.5520576866765D-01
19  1.8000000000000D-01 -1.1082600497137D+00  6.7646687185935D-01
20  1.9000000000000D-01 -1.1547680780559D+00  6.9493690973914D-01
21  2.0000000000000D-01 -1.1989977267883D+00  7.1050951399819D-01
22  2.1000000000000D-01 -1.2408707819539D+00  7.2308655159513D-01
23  2.2000000000000D-01 -1.2803149219844D+00  7.3257861105765D-01
24  2.3000000000000D-01 -1.3172638860657D+00  7.3890548547052D-01
25  2.4000000000000D-01 -1.3516576252757D+00  7.4199664846976D-01
26  2.5000000000000D-01 -1.3834424361497D+00  7.4179172034766D-01
27  2.6000000000000D-01 -1.4125710771288D+00  7.3824092367659D-01
28  2.7000000000000D-01 -1.4390028657297D+00  7.3130552010257D-01
29  2.8000000000000D-01 -1.4627037577146D+00  7.2095822900533D-01
30  2.9000000000000D-01 -1.4836464075789D+00  7.0718362348679D-01
31  3.0000000000000D-01 -1.5018102098939D+00  6.8997849911678D-01
32  3.1000000000000D-01 -1.5171813215110D+00  6.6935221207849D-01
33  3.2000000000000D-01 -1.5297526644813D+00  6.4532698261109D-01
34  3.3000000000000D-01 -1.5395239092738D+00  6.1793815612814D-01
35  3.4000000000000D-01 -1.5465014408179D+00  5.8723443687299D-01
36  3.5000000000000D-01 -1.5506983019561D+00  5.5327804989955D-01
37  3.6000000000000D-01 -1.5521341213536D+00  5.1614488349821D-01
38  3.7000000000000D-01 -1.5508350203611D+00  4.7592454964756D-01
39  3.8000000000000D-01 -1.5468335025223D+00  4.3272041136981D-01
40  3.9000000000000D-01 -1.5401683242160D+00  3.8664953749394D-01
41  4.0000000000000D-01 -1.5308843482680D+00  3.3784259665565D-01
42  4.1000000000000D-01 -1.5190323798492D+00  2.8644368921841D-01
43  4.2000000000000D-01 -1.5046689856028D+00  2.3261011049449D-01
44  4.3000000000000D-01 -1.4878562965517D+00  1.7651204468782D-01
45  4.4000000000000D-01 -1.4686617954050D+00  1.1833218810427D-01
46  4.5000000000000D-01 -1.4471580889135D+00  5.8265300489587D-02
47  4.6000000000000D-01 -1.4234226660068D+00 -3.4823162283319D-03
48  4.7000000000000D-01 -1.3975376425740D+00 -6.6693411905324D-02
49  4.8000000000000D-01 -1.3695894941161D+00 -1.3114045377485D-01
50  4.9000000000000D-01 -1.3396687861808D+00 -1.9658634426834D-01
51  5.0000000000000D-01 -1.3078698582653D+00 -2.6278527631313D-01
52  5.1000000000000D-01 -1.2742905454075D+00 -3.2948357418101D-01
53  5.2000000000000D-01 -1.2390318836251D+00 -3.9642059663595D-01
54  5.3000000000000D-01 -1.2021977492064D+00 -4.6332984190810D-01
55  5.4000000000000D-01 -1.1638945733596D+00 -5.2993993070924D-01
56  5.5000000000000D-01 -1.1242310193977D+00 -5.9597570057786D-01
57  5.6000000000000D-01 -1.0833175938730D+00 -6.6115953207980D-01
58  5.7000000000000D-01 -1.0412664104042D+00 -7.2521228627440D-01
59  5.8000000000000D-01 -9.9819072273360D-01 -7.8785493109561D-01
60  5.9000000000000D-01 -9.5420472551102D-01 -8.4880942089391D-01
61  6.0000000000000D-01 -9.0942309348499D-01 -9.0780038566202D-01
62  6.1000000000000D-01 -8.6396071393652D-01 -9.6455625886163D-01
63  6.2000000000000D-01 -8.1793238206410D-01 -1.0188105285162D+00
64  6.3000000000000D-01 -7.7145233264283D-01 -1.0703035587649D+00
65  6.4000000000000D-01 -7.2463408878428D-01 -1.1187833659690D+00
66  6.5000000000000D-01 -6.7759005908571D-01 -1.1640072468707D+00
67  6.6000000000000D-01 -6.3043115634620D-01 -1.2057433654439D+00
68  6.7000000000000D-01 -5.8326661582426D-01 -1.2437716303161D+00
69  6.8000000000000D-01 -5.3620371229954D-01 -1.2778849158606D+00
70  6.9000000000000D-01 -4.8934731129670D-01 -1.3078909086657D+00
71  7.0000000000000D-01 -4.4279972698703D-01 -1.3336128124189D+00
72  7.1000000000000D-01 -3.9666045274430D-01 -1.3548905042187D+00
73  7.2000000000000D-01 -3.5102589943785D-01 -1.3715816480840D+00
74  7.3000000000000D-01 -3.0598921377788D-01 -1.3835624817616D+00
75  7.4000000000000D-01 -2.6163989551570D-01 -1.3907293559420D+00
76  7.5000000000000D-01 -2.1806374823656D-01 -1.3929989577194D+00
77  7.6000000000000D-01 -1.7534265322286D-01 -1.3903091811985D+00
78  7.7000000000000D-01 -1.3355439270512D-01 -1.3826197710839D+00
79  7.8000000000000D-01 -9.2772495082160D-02 -1.3699128401264D+00
80  7.9000000000000D-01 -5.3066097618593D-02 -1.3521932740400D+00
81  8.0000000000000D-01 -1.4499826898496D-02 -1.3294890194415D+00
82  8.1000000000000D-01  2.2866302768462D-02 -1.3018512510512D+00
83  8.2000000000000D-01  5.8976972872542D-02 -1.2693544150889D+00
84  8.3000000000000D-01  9.3781626123180D-02 -1.2320961465246D+00
85  8.4000000000000D-01  1.2723451379919D-01 -1.1901970585648D+00
86  8.5000000000000D-01  1.5929472513997D-01 -1.1438004034960D+00
87  8.6000000000000D-01  1.8992619895810D-01 -1.0930716047554D+00
88  8.7000000000000D-01  2.1909771772317D-01 -1.0381976608522D+00
89  8.8000000000000D-01  2.4678288443475D-01 -9.7938642254331D-01
90  8.9000000000000D-01  2.7296008267166D-01 -9.1686574545946D-01
91  9.0000000000000D-01  2.9761242027529D-01 -8.5088252120861D-01
92  9.1000000000000D-01  3.2072765719819D-01 -7.8170159084587D-01
93  9.2000000000000D-01  3.4229811812680D-01 -7.0960454551090D-01
94  9.3000000000000D-01  3.6232059056979D-01 -6.3488841999192D-01
95  9.4000000000000D-01  3.8079620919125D-01 -5.5786428598314D-01
96  9.5000000000000D-01  3.9773032726123D-01 -4.7885575285117D-01
97  9.6000000000000D-01  4.1313237619391D-01 -3.9819738479930D-01
98  9.7000000000000D-01  4.2701570879012D-01 -3.1623310917206D-01
99  9.8000000000000D-01  4.3939744380585D-01 -2.3331466168699D-01
100  9.9000000000000D-01  4.5029833290739D-01 -1.4979907401203D-01
101  1.0000000000000D+00  4.5974251571970D-01 -6.6047473772167D-02
102  1.0100000000000D+00  4.6775735989155D-01  1.7576968027674D-02
103  1.0200000000000D+00  4.7437326980198D-01  1.0071092702021D-01
104  1.0300000000000D+00  4.7962349170730D-01  1.8299281843461D-01
105  1.0400000000000D+00  4.8354396889368D-01  2.6406340907650D-01
106  1.0500000000000D+00  4.8617301254095D-01  3.4357141189154D-01
107  1.0600000000000D+00  4.8755117655882D-01  4.2117222706242D-01
108  1.0700000000000D+00  4.8772104163035D-01  4.9653060730016D-01
109  1.0800000000000D+00  4.8672703040141D-01  5.6932221692957D-01
110  1.0900000000000D+00  4.8461531774689D-01  6.3923386499379D-01
111  1.1000000000000D+00  4.8143323730546D-01  7.0597128966853D-01
112  1.1100000000000D+00  4.7722944045329D-01  7.6925485758289D-01
113  1.1200000000000D+00  4.7205362042589D-01  8.2882272880051D-01
114  1.1300000000000D+00  4.6595658302518D-01  8.8442918260098D-01
115  1.1400000000000D+00  4.5898934442948D-01  9.3585536190254D-01
116  1.1500000000000D+00  4.5120353495362D-01  9.8290265697078D-01
117  1.1600000000000D+00  4.4265120972329D-01  1.0253945236289D+00
118  1.1700000000000D+00  4.3338489064168D-01  1.0631755912591D+00
119  1.1800000000000D+00  4.2345641336421D-01  1.0961237856736D+00
120  1.1900000000000D+00  4.1291781799708D-01  1.1241391934281D+00
121  1.2000000000000D+00  4.0182127866014D-01  1.1471447540263D+00
122  1.2100000000000D+00  3.9021813549340D-01  1.1650957936626D+00
123  1.2200000000000D+00  3.7815912843814D-01  1.1779762615955D+00
124  1.2300000000000D+00  3.6569491696550D-01  1.1857931793996D+00
125  1.2400000000000D+00  3.5287543955083D-01  1.1885826105957D+00
126  1.2500000000000D+00  3.3974928211182D-01  1.1864141256822D+00
127  1.2600000000000D+00  3.2636490600869D-01  1.1793789520928D+00
128  1.2700000000000D+00  3.1277001980239D-01  1.1675955879541D+00
129  1.2800000000000D+00  2.9901059306730D-01  1.1512164749050D+00
130  1.2900000000000D+00  2.8513253953666D-01  1.1304135113159D+00
131  1.3000000000000D+00  2.7118076489440D-01  1.1053856870406D+00
132  1.3100000000000D+00  2.5719849079053D-01  1.0763620291744D+00
133  1.3200000000000D+00  2.4322902339283D-01  1.0435886928511D+00
134  1.3300000000000D+00  2.2931417576185D-01  1.0073393166195D+00
135  1.3400000000000D+00  2.1549459092681D-01  9.6791042755391D-01
136  1.3500000000000D+00  2.0181112044380D-01  9.2561417034699D-01
137  1.3600000000000D+00  1.8830251594374D-01  8.8078889578033D-01
138  1.3700000000000D+00  1.7500738970185D-01  8.3378757462345D-01
139  1.3800000000000D+00  1.6196397632937D-01  7.8498028357850D-01
140  1.3900000000000D+00  1.4920881378772D-01  7.3475525653430D-01
141  1.4000000000000D+00  1.3677893941957D-01  6.8351257246949D-01
142  1.4100000000000D+00  1.2471022188567D-01  6.3166927577382D-01
143  1.4200000000000D+00  1.1303708348463D-01  5.7963940548815D-01
144  1.4300000000000D+00  1.0179384766830D-01  5.2784909956439D-01
145  1.4400000000000D+00  9.1010216425121D-02  4.7668974542170D-01
146  1.4500000000000D+00  8.0716550067450D-02  4.2656456447555D-01
147  1.4600000000000D+00  7.0939107789936D-02  3.7783877163310D-01
148  1.4700000000000D+00  6.1703681607389D-02  3.3087208686121D-01
149  1.4800000000000D+00  5.3034234535284D-02  2.8600659801254D-01
150  1.4900000000000D+00  4.4952426419292D-02  2.4354609772455D-01
151  1.5000000000000D+00  3.7480061064059D-02  2.0380373720152D-01
152  1.5100000000000D+00  3.0635572208251D-02  1.6702431348848D-01
153  1.5200000000000D+00  2.4438205925035D-02  1.3347290046236D-01
154  1.5300000000000D+00  1.8904340133238D-02  1.0334516936387D-01
155  1.5400000000000D+00  1.4050557290162D-02  7.6840550087167D-02
156  1.5500000000000D+00  9.8916862513840D-03  5.4108881389031D-02
157  1.5600000000000D+00  6.4419762430496D-03  3.5277157672811D-02
158  1.5700000000000D+00  3.7148267839145D-03  2.0445686952176D-02
159  1.5800000000000D+00  1.7225079899774D-03  9.6671618968597D-03
160  1.5900000000000D+00  5.5283306354583D-04  3.4043439675118D-03
161  1.6000000000000D+00  1.8689914990628D-05  5.5203906841403D-04
162  1.6100000000000D+00 -1.0192794553631D-04 -2.9448465027639D-04
163  1.6200000000000D+00 -8.0624205698825D-06 -3.0974115829045D-05
164  1.6300000000000D+00  1.2039385378614D-06 -2.3012611004294D-05
165  1.6400000000000D+00  8.3143147221608D-09 -1.5892347030292D-07
166  1.6500000000000D+00  0.0000000000000D+00  0.0000000000000D+00
167  1.6600000000000D+00  0.0000000000000D+00  0.0000000000000D+00
168  1.6700000000000D+00  0.0000000000000D+00  0.0000000000000D+00
169  1.6800000000000D+00  0.0000000000000D+00  0.0000000000000D+00
170  1.6900000000000D+00  0.0000000000000D+00  0.0000000000000D+00
171  1.7000000000000D+00  0.0000000000000D+00  0.0000000000000D+00
172  1.7100000000000D+00  0.0000000000000D+00  0.0000000000000D+00
173  1.7200000000000D+00  0.0000000000000D+00  0.0000000000000D+00
174  1.7300000000000D+00  0.0000000000000D+00  0.0000000000000D+00
175  1.7400000000000D+00  0.0000000000000D+00  0.0000000000000D+00
176  1.7500000000000D+00  0.0000000000000D+00  0.0000000000000D+00
177  1.7600000000000D+00  0.0000000000000D+00  0.0000000000000D+00
178  1.7700000000000D+00  0.0000000000000D+00  0.0000000000000D+00
179  1.7800000000000D+00  0.0000000000000D+00  0.0000000000000D+00
180  1.7900000000000D+00  0.0000000000000D+00  0.0000000000000D+00
181  1.8000000000000D+00  0.0000000000000D+00  0.0000000000000D+00
182  1.8100000000000D+00  0.0000000000000D+00  0.0000000000000D+00
183  1.8200000000000D+00  0.0000000000000D+00  0.0000000000000D+00
184  1.8300000000000D+00  0.0000000000000D+00  0.0000000000000D+00
185  1.8400000000000D+00  0.0000000000000D+00  0.0000000000000D+00
186  1.8500000000000D+00  0.0000000000000D+00  0.0000000000000D+00
187  1.8600000000000D+00  0.0000000000000D+00  0.0000000000000D+00
188  1.8700000000000D+00  0.0000000000000D+00  0.0000000000000D+00
189  1.8800000000000D+00  0.0000000000000D+00  0.0000000000000D+00
190  1.8900000000000D+00  0.0000000000000D+00  0.0000000000000D+00
191  1.9000000000000D+00  0.0000000000000D+00  0.0000000000000D+00
192  1.9100000000000D+00  0.0000000000000D+00  0.0000000000000D+00
193  1.9200000000000D+00  0.0000000000000D+00  0.0000000000000D+00
194  1.9300000000000D+00  0.0000000000000D+00  0.0000000000000D+00
195  1.9400000000000D+00  0.0000000000000D+00  0.0000000000000D+00
196  1.9500000000000D+00  0.0000000000000D+00  0.0000000000000D+00
197  1.9600000000000D+00  0.0000000000000D+00  0.0000000000000D+00
198  1.9700000000000D+00  0.0000000000000D+00  0.0000000000000D+00
199  1.9800000000000D+00  0.0000000000000D+00  0.0000000000000D+00
200  1.9900000000000D+00  0.0000000000000D+00  0.0000000000000D+00
201  2.0000000000000D+00  0.0000000000000D+00  0.0000000000000D+00
202  2.0100000000000D+00  0.0000000000000D+00  0.0000000000000D+00
203  2.0200000000000D+00  0.0000000000000D+00  0.0000000000000D+00
204  2.0300000000000D+00  0.0000000000000D+00  0.0000000000000D+00
205  2.0400000000000D+00  0.0000000000000D+00  0.0000000000000D+00
206  2.0500000000000D+00  0.0000000000000D+00  0.0000000000000D+00
207  2.0600000000000D+00  0.0000000000000D+00  0.0000000000000D+00
208  2.0700000000000D+00  0.0000000000000D+00  0.0000000000000D+00
209  2.0800000000000D+00  0.0000000000000D+00  0.0000000000000D+00
210  2.0900000000000D+00  0.0000000000000D+00  0.0000000000000D+00
211  2.1000000000000D+00  0.0000000000000D+00  0.0000000000000D+00
212  2.1100000000000D+00  0.0000000000000D+00  0.0000000000000D+00
213  2.1200000000000D+00  0.0000000000000D+00  0.0000000000000D+00
214  2.1300000000000D+00  0.0000000000000D+00  0.0000000000000D+00
215  2.1400000000000D+00  0.0000000000000D+00  0.0000000000000D+00
216  2.1500000000000D+00  0.0000000000000D+00  0.0000000000000D+00
217  2.1600000000000D+00  0.0000000000000D+00  0.0000000000000D+00
218  2.1700000000000D+00  0.0000000000000D+00  0.0000000000000D+00
219  2.1800000000000D+00  0.0000000000000D+00  0.0000000000000D+00
220  2.1900000000000D+00  0.0000000000000D+00  0.0000000000000D+00
221  2.2000000000000D+00  0.0000000000000D+00  0.0000000000000D+00
222  2.2100000000000D+00  0.0000000000000D+00  0.0000000000000D+00
223  2.2200000000000D+00  0.0000000000000D+00  0.0000000000000D+00
224  2.2300000000000D+00  0.0000000000000D+00  0.0000000000000D+00
225  2.2400000000000D+00  0.0000000000000D+00  0.0000000000000D+00
226  2.2500000000000D+00  0.0000000000000D+00  0.0000000000000D+00
227  2.2600000000000D+00  0.0000000000000D+00  0.0000000000000D+00
228  2.2700000000000D+00  0.0000000000000D+00  0.0000000000000D+00
229  2.2800000000000D+00  0.0000000000000D+00  0.0000000000000D+00
230  2.2900000000000D+00  0.0000000000000D+00  0.0000000000000D+00
231  2.3000000000000D+00  0.0000000000000D+00  0.0000000000000D+00
232  2.3100000000000D+00  0.0000000000000D+00  0.0000000000000D+00
233  2.3200000000000D+00  0.0000000000000D+00  0.0000000000000D+00
234  2.3300000000000D+00  0.0000000000000D+00  0.0000000000000D+00
235  2.3400000000000D+00  0.0000000000000D+00  0.0000000000000D+00
236  2.3500000000000D+00  0.0000000000000D+00  0.0000000000000D+00
237  2.3600000000000D+00  0.0000000000000D+00  0.0000000000000D+00
238  2.3700000000000D+00  0.0000000000000D+00  0.0000000000000D+00
239  2.3800000000000D+00  0.0000000000000D+00  0.0000000000000D+00
240  2.3900000000000D+00  0.0000000000000D+00  0.0000000000000D+00
241  2.4000000000000D+00  0.0000000000000D+00  0.0000000000000D+00
242  2.4100000000000D+00  0.0000000000000D+00  0.0000000000000D+00
243  2.4200000000000D+00  0.0000000000000D+00  0.0000000000000D+00
244  2.4300000000000D+00  0.0000000000000D+00  0.0000000000000D+00
245  2.4400000000000D+00  0.0000000000000D+00  0.0000000000000D+00
246  2.4500000000000D+00  0.0000000000000D+00  0.0000000000000D+00
247  2.4600000000000D+00  0.0000000000000D+00  0.0000000000000D+00
248  2.4700000000000D+00  0.0000000000000D+00  0.0000000000000D+00
249  2.4800000000000D+00  0.0000000000000D+00  0.0000000000000D+00
250  2.4900000000000D+00  0.0000000000000D+00  0.0000000000000D+00
251  2.5000000000000D+00  0.0000000000000D+00  0.0000000000000D+00
252  2.5100000000000D+00  0.0000000000000D+00  0.0000000000000D+00
253  2.5200000000000D+00  0.0000000000000D+00  0.0000000000000D+00
254  2.5300000000000D+00  0.0000000000000D+00  0.0000000000000D+00
255  2.5400000000000D+00  0.0000000000000D+00  0.0000000000000D+00
256  2.5500000000000D+00  0.0000000000000D+00  0.0000000000000D+00
257  2.5600000000000D+00  0.0000000000000D+00  0.0000000000000D+00
258  2.5700000000000D+00  0.0000000000000D+00  0.0000000000000D+00
259  2.5800000000000D+00  0.0000000000000D+00  0.0000000000000D+00
260  2.5900000000000D+00  0.0000000000000D+00  0.0000000000000D+00
261  2.6000000000000D+00  0.0000000000000D+00  0.0000000000000D+00
262  2.6100000000000D+00  0.0000000000000D+00  0.0000000000000D+00
263  2.6200000000000D+00  0.0000000000000D+00  0.0000000000000D+00
264  2.6300000000000D+00  0.0000000000000D+00  0.0000000000000D+00
265  2.6400000000000D+00  0.0000000000000D+00  0.0000000000000D+00
266  2.6500000000000D+00  0.0000000000000D+00  0.0000000000000D+00
267  2.6600000000000D+00  0.0000000000000D+00  0.0000000000000D+00
268  2.6700000000000D+00  0.0000000000000D+00  0.0000000000000D+00
269  2.6800000000000D+00  0.0000000000000D+00  0.0000000000000D+00
270  2.6900000000000D+00  0.0000000000000D+00  0.0000000000000D+00
271  2.7000000000000D+00  0.0000000000000D+00  0.0000000000000D+00
272  2.7100000000000D+00  0.0000000000000D+00  0.0000000000000D+00
273  2.7200000000000D+00  0.0000000000000D+00  0.0000000000000D+00
274  2.7300000000000D+00  0.0000000000000D+00  0.0000000000000D+00
275  2.7400000000000D+00  0.0000000000000D+00  0.0000000000000D+00
276  2.7500000000000D+00  0.0000000000000D+00  0.0000000000000D+00
277  2.7600000000000D+00  0.0000000000000D+00  0.0000000000000D+00
278  2.7700000000000D+00  0.0000000000000D+00  0.0000000000000D+00
279  2.7800000000000D+00  0.0000000000000D+00  0.0000000000000D+00
280  2.7900000000000D+00  0.0000000000000D+00  0.0000000000000D+00
281  2.8000000000000D+00  0.0000000000000D+00  0.0000000000000D+00
282  2.8100000000000D+00  0.0000000000000D+00  0.0000000000000D+00
283  2.8200000000000D+00  0.0000000000000D+00  0.0000000000000D+00
284  2.8300000000000D+00  0.0000000000000D+00  0.0000000000000D+00
285  2.8400000000000D+00  0.0000000000000D+00  0.0000000000000D+00
286  2.8500000000000D+00  0.0000000000000D+00  0.0000000000000D+00
287  2.8600000000000D+00  0.0000000000000D+00  0.0000000000000D+00
288  2.8700000000000D+00  0.0000000000000D+00  0.0000000000000D+00
289  2.8800000000000D+00  0.0000000000000D+00  0.0000000000000D+00
290  2.8900000000000D+00  0.0000000000000D+00  0.0000000000000D+00
291  2.9000000000000D+00  0.0000000000000D+00  0.0000000000000D+00
292  2.9100000000000D+00  0.0000000000000D+00  0.0000000000000D+00
293  2.9200000000000D+00  0.0000000000000D+00  0.0000000000000D+00
294  2.9300000000000D+00  0.0000000000000D+00  0.0000000000000D+00
295  2.9400000000000D+00  0.0000000000000D+00  0.0000000000000D+00
296  2.9500000000000D+00  0.0000000000000D+00  0.0000000000000D+00
297  2.9600000000000D+00  0.0000000000000D+00  0.0000000000000D+00
298  2.9700000000000D+00  0.0000000000000D+00  0.0000000000000D+00
299  2.9800000000000D+00  0.0000000000000D+00  0.0000000000000D+00
300  2.9900000000000D+00  0.0000000000000D+00  0.0000000000000D+00
301  3.0000000000000D+00  0.0000000000000D+00  0.0000000000000D+00
302  3.0100000000000D+00  0.0000000000000D+00  0.0000000000000D+00
303  3.0200000000000D+00  0.0000000000000D+00  0.0000000000000D+00
304  3.0300000000000D+00  0.0000000000000D+00  0.0000000000000D+00
305  3.0400000000000D+00  0.0000000000000D+00  0.0000000000000D+00
306  3.0500000000000D+00  0.0000000000000D+00  0.0000000000000D+00
307  3.0600000000000D+00  0.0000000000000D+00  0.0000000000000D+00
308  3.0700000000000D+00  0.0000000000000D+00  0.0000000000000D+00
309  3.0800000000000D+00  0.0000000000000D+00  0.0000000000000D+00
310  3.0900000000000D+00  0.0000000000000D+00  0.0000000000000D+00
311  3.1000000000000D+00  0.0000000000000D+00  0.0000000000000D+00
312  3.1100000000000D+00  0.0000000000000D+00  0.0000000000000D+00
313  3.1200000000000D+00  0.0000000000000D+00  0.0000000000000D+00
314  3.1300000000000D+00  0.0000000000000D+00  0.0000000000000D+00
315  3.1400000000000D+00  0.0000000000000D+00  0.0000000000000D+00
316  3.1500000000000D+00  0.0000000000000D+00  0.0000000000000D+00
317  3.1600000000000D+00  0.0000000000000D+00  0.0000000000000D+00
318  3.1700000000000D+00  0.0000000000000D+00  0.0000000000000D+00
319  3.1800000000000D+00  0.0000000000000D+00  0.0000000000000D+00
320  3.1900000000000D+00  0.0000000000000D+00  0.0000000000000D+00
321  3.2000000000000D+00  0.0000000000000D+00  0.0000000000000D+00
322  3.2100000000000D+00  0.0000000000000D+00  0.0000000000000D+00
323  3.2200000000000D+00  0.0000000000000D+00  0.0000000000000D+00
324  3.2300000000000D+00  0.0000000000000D+00  0.0000000000000D+00
325  3.2400000000000D+00  0.0000000000000D+00  0.0000000000000D+00
326  3.2500000000000D+00  0.0000000000000D+00  0.0000000000000D+00
327  3.2600000000000D+00  0.0000000000000D+00  0.0000000000000D+00
328  3.2700000000000D+00  0.0000000000000D+00  0.0000000000000D+00
329  3.2800000000000D+00  0.0000000000000D+00  0.0000000000000D+00
330  3.2900000000000D+00  0.0000000000000D+00  0.0000000000000D+00
331  3.3000000000000D+00  0.0000000000000D+00  0.0000000000000D+00
332  3.3100000000000D+00  0.0000000000000D+00  0.0000000000000D+00
333  3.3200000000000D+00  0.0000000000000D+00  0.0000000000000D+00
334  3.3300000000000D+00  0.0000000000000D+00  0.0000000000000D+00
335  3.3400000000000D+00  0.0000000000000D+00  0.0000000000000D+00
336  3.3500000000000D+00  0.0000000000000D+00  0.0000000000000D+00
337  3.3600000000000D+00  0.0000000000000D+00  0.0000000000000D+00
338  3.3700000000000D+00  0.0000000000000D+00  0.0000000000000D+00
339  3.3800000000000D+00  0.0000000000000D+00  0.0000000000000D+00
340  3.3900000000000D+00  0.0000000000000D+00  0.0000000000000D+00
341  3.4000000000000D+00  0.0000000000000D+00  0.0000000000000D+00
342  3.4100000000000D+00  0.0000000000000D+00  0.0000000000000D+00
343  3.4200000000000D+00  0.0000000000000D+00  0.0000000000000D+00
344  3.4300000000000D+00  0.0000000000000D+00  0.0000000000000D+00
345  3.4400000000000D+00  0.0000000000000D+00  0.0000000000000D+00
346  3.4500000000000D+00  0.0000000000000D+00  0.0000000000000D+00
347  3.4600000000000D+00  0.0000000000000D+00  0.0000000000000D+00
348  3.4700000000000D+00  0.0000000000000D+00  0.0000000000000D+00
349  3.4800000000000D+00  0.0000000000000D+00  0.0000000000000D+00
350  3.4900000000000D+00  0.0000000000000D+00  0.0000000000000D+00
351  3.5000000000000D+00  0.0000000000000D+00  0.0000000000000D+00
352  3.5100000000000D+00  0.0000000000000D+00  0.0000000000000D+00
353  3.5200000000000D+00  0.0000000000000D+00  0.0000000000000D+00
354  3.5300000000000D+00  0.0000000000000D+00  0.0000000000000D+00
355  3.5400000000000D+00  0.0000000000000D+00  0.0000000000000D+00
356  3.5500000000000D+00  0.0000000000000D+00  0.0000000000000D+00
357  3.5600000000000D+00  0.0000000000000D+00  0.0000000000000D+00
358  3.5700000000000D+00  0.0000000000000D+00  0.0000000000000D+00
359  3.5800000000000D+00  0.0000000000000D+00  0.0000000000000D+00
360  3.5900000000000D+00  0.0000000000000D+00  0.0000000000000D+00
361  3.6000000000000D+00  0.0000000000000D+00  0.0000000000000D+00
362  3.6100000000000D+00  0.0000000000000D+00  0.0000000000000D+00
363  3.6200000000000D+00  0.0000000000000D+00  0.0000000000000D+00
364  3.6300000000000D+00  0.0000000000000D+00  0.0000000000000D+00
365  3.6400000000000D+00  0.0000000000000D+00  0.0000000000000D+00
366  3.6500000000000D+00  0.0000000000000D+00  0.0000000000000D+00
367  3.6600000000000D+00  0.0000000000000D+00  0.0000000000000D+00
368  3.6700000000000D+00  0.0000000000000D+00  0.0000000000000D+00
369  3.6800000000000D+00  0.0000000000000D+00  0.0000000000000D+00
370  3.6900000000000D+00  0.0000000000000D+00  0.0000000000000D+00
371  3.7000000000000D+00  0.0000000000000D+00  0.0000000000000D+00
372  3.7100000000000D+00  0.0000000000000D+00  0.0000000000000D+00
373  3.7200000000000D+00  0.0000000000000D+00  0.0000000000000D+00
374  3.7300000000000D+00  0.0000000000000D+00  0.0000000000000D+00
375  3.7400000000000D+00  0.0000000000000D+00  0.0000000000000D+00
376  3.7500000000000D+00  0.0000000000000D+00  0.0000000000000D+00
377  3.7600000000000D+00  0.0000000000000D+00  0.0000000000000D+00
378  3.7700000000000D+00  0.0000000000000D+00  0.0000000000000D+00
379  3.7800000000000D+00  0.0000000000000D+00  0.0000000000000D+00
380  3.7900000000000D+00  0.0000000000000D+00  0.0000000000000D+00
381  3.8000000000000D+00  0.0000000000000D+00  0.0000000000000D+00
382  3.8100000000000D+00  0.0000000000000D+00  0.0000000000000D+00
383  3.8200000000000D+00  0.0000000000000D+00  0.0000000000000D+00
384  3.8300000000000D+00  0.0000000000000D+00  0.0000000000000D+00
385  3.8400000000000D+00  0.0000000000000D+00  0.0000000000000D+00
386  3.8500000000000D+00  0.0000000000000D+00  0.0000000000000D+00
387  3.8600000000000D+00  0.0000000000000D+00  0.0000000000000D+00
388  3.8700000000000D+00  0.0000000000000D+00  0.0000000000000D+00
389  3.8800000000000D+00  0.0000000000000D+00  0.0000000000000D+00
390  3.8900000000000D+00  0.0000000000000D+00  0.0000000000000D+00
391  3.9000000000000D+00  0.0000000000000D+00  0.0000000000000D+00
392  3.9100000000000D+00  0.0000000000000D+00  0.0000000000000D+00
393  3.9200000000000D+00  0.0000000000000D+00  0.0000000000000D+00
394  3.9300000000000D+00  0.0000000000000D+00  0.0000000000000D+00
395  3.9400000000000D+00  0.0000000000000D+00  0.0000000000000D+00
396  3.9500000000000D+00  0.0000000000000D+00  0.0000000000000D+00
397  3.9600000000000D+00  0.0000000000000D+00  0.0000000000000D+00
398  3.9700000000000D+00  0.0000000000000D+00  0.0000000000000D+00
399  3.9800000000000D+00  0.0000000000000D+00  0.0000000000000D+00
400  3.9900000000000D+00  0.0000000000000D+00  0.0000000000000D+00
401  4.0000000000000D+00  0.0000000000000D+00  0.0000000000000D+00
402  4.0100000000000D+00  0.0000000000000D+00  0.0000000000000D+00
403  4.0200000000000D+00  0.0000000000000D+00  0.0000000000000D+00
404  4.0300000000000D+00  0.0000000000000D+00  0.0000000000000D+00
405  4.0400000000000D+00  0.0000000000000D+00  0.0000000000000D+00
406  4.0500000000000D+00  0.0000000000000D+00  0.0000000000000D+00
407  4.0600000000000D+00  0.0000000000000D+00  0.0000000000000D+00
408  4.0700000000000D+00  0.0000000000000D+00  0.0000000000000D+00
409  4.0800000000000D+00  0.0000000000000D+00  0.0000000000000D+00
410  4.0900000000000D+00  0.0000000000000D+00  0.0000000000000D+00
411  4.1000000000000D+00  0.0000000000000D+00  0.0000000000000D+00
412  4.1100000000000D+00  0.0000000000000D+00  0.0000000000000D+00
413  4.1200000000000D+00  0.0000000000000D+00  0.0000000000000D+00
414  4.1300000000000D+00  0.0000000000000D+00  0.0000000000000D+00
415  4.1400000000000D+00  0.0000000000000D+00  0.0000000000000D+00
416  4.1500000000000D+00  0.0000000000000D+00  0.0000000000000D+00
417  4.1600000000000D+00  0.0000000000000D+00  0.0000000000000D+00
418  4.1700000000000D+00  0.0000000000000D+00  0.0000000000000D+00
419  4.1800000000000D+00  0.0000000000000D+00  0.0000000000000D+00
420  4.1900000000000D+00  0.0000000000000D+00  0.0000000000000D+00
421  4.2000000000000D+00  0.0000000000000D+00  0.0000000000000D+00
422  4.2100000000000D+00  0.0000000000000D+00  0.0000000000000D+00
423  4.2200000000000D+00  0.0000000000000D+00  0.0000000000000D+00
424  4.2300000000000D+00  0.0000000000000D+00  0.0000000000000D+00
425  4.2400000000000D+00  0.0000000000000D+00  0.0000000000000D+00
426  4.2500000000000D+00  0.0000000000000D+00  0.0000000000000D+00
427  4.2600000000000D+00  0.0000000000000D+00  0.0000000000000D+00
428  4.2700000000000D+00  0.0000000000000D+00  0.0000000000000D+00
429  4.2800000000000D+00  0.0000000000000D+00  0.0000000000000D+00
430  4.2900000000000D+00  0.0000000000000D+00  0.0000000000000D+00
431  4.3000000000000D+00  0.0000000000000D+00  0.0000000000000D+00
432  4.3100000000000D+00  0.0000000000000D+00  0.0000000000000D+00
433  4.3200000000000D+00  0.0000000000000D+00  0.0000000000000D+00
434  4.3300000000000D+00  0.0000000000000D+00  0.0000000000000D+00
435  4.3400000000000D+00  0.0000000000000D+00  0.0000000000000D+00
436  4.3500000000000D+00  0.0000000000000D+00  0.0000000000000D+00
437  4.3600000000000D+00  0.0000000000000D+00  0.0000000000000D+00
438  4.3700000000000D+00  0.0000000000000D+00  0.0000000000000D+00
439  4.3800000000000D+00  0.0000000000000D+00  0.0000000000000D+00
440  4.3900000000000D+00  0.0000000000000D+00  0.0000000000000D+00
441  4.4000000000000D+00  0.0000000000000D+00  0.0000000000000D+00
442  4.4100000000000D+00  0.0000000000000D+00  0.0000000000000D+00
443  4.4200000000000D+00  0.0000000000000D+00  0.0000000000000D+00
444  4.4300000000000D+00  0.0000000000000D+00  0.0000000000000D+00