Nb    ONCVPSP  r_core=  1.46  1.40  1.36
41.0000     13.0000      151029    zatom,zion,pspd
8   -1013   2     4   600     0    pspcod,pspxc,lmax,lloc,mmax,r2well
5.99000000  5.00000000  0.00000000    rchrg fchrg qchrg
2     2     2     0     0    nproj
0                 extension_switch
0                         1.3075435601946D+01  1.2682240913144D+00
1  0.0000000000000D+00  1.7194795587372D-10 -5.1384115018482D-10
2  1.0000000000000D-02  4.9742199949131D-02 -1.1619443978594D-02
3  2.0000000000000D-02  9.9470291866979D-02 -2.3317508451020D-02
4  3.0000000000000D-02  1.4916967449333D-01 -3.5171314279115D-02
5  4.0000000000000D-02  1.9882476534129D-01 -4.7254998359186D-02
6  5.0000000000000D-02  2.4841852311796D-01 -5.9638259754480D-02
7  6.0000000000000D-02  2.9793198566383D-01 -7.2384951200533D-02
8  7.0000000000000D-02  3.4734382838066D-01 -8.5551730501356D-02
9  8.0000000000000D-02  3.9662994794595D-01 -9.9186785820616D-02
10  9.0000000000000D-02  4.4576307589953D-01 -1.1332864823651D-01
11  1.0000000000000D-01  4.9471242643587D-01 -1.2800510417701D-01
12  1.1000000000000D-01  5.4344338244726D-01 -1.4323221948898D-01
13  1.2000000000000D-01  5.9191722353907D-01 -1.5901348592644D-01
14  1.3000000000000D-01  6.4009089938172D-01 -1.7533909977809D-01
15  1.4000000000000D-01  6.8791685137798D-01 -1.9218538119871D-01
16  1.5000000000000D-01  7.3534288521045D-01 -2.0951434157363D-01
17  1.6000000000000D-01  7.8231209639726D-01 -2.2727340493794D-01
18  1.7000000000000D-01  8.2876285052581D-01 -2.4539528810393D-01
19  1.8000000000000D-01  8.7462881936017D-01 -2.6379804273097D-01
20  1.9000000000000D-01  9.1983907352897D-01 -2.8238526111364D-01
21  2.0000000000000D-01  9.6431823200377D-01 -3.0104644597728D-01
22  2.1000000000000D-01  1.0079866680741D+00 -3.1965754306804D-01
23  2.2000000000000D-01  1.0507607710210D+00 -3.3808163381791D-01
24  2.3000000000000D-01  1.0925532621888D+00 -3.5616978386862D-01
25  2.4000000000000D-01  1.1332735636585D+00 -3.7376204176147D-01
26  2.5000000000000D-01  1.1728282172423D+00 -3.9068858065864D-01
27  2.6000000000000D-01  1.2111213510476D+00 -4.0677097456527D-01
28  2.7000000000000D-01  1.2480551904083D+00 -4.2182359918469D-01
29  2.8000000000000D-01  1.2835306095508D+00 -4.3565514627327D-01
30  2.9000000000000D-01  1.3174477199615D+00 -4.4807023917634D-01
31  3.0000000000000D-01  1.3497064910484D+00 -4.5887113613792D-01
32  3.1000000000000D-01  1.3802073983513D+00 -4.6785950698967D-01
33  3.2000000000000D-01  1.4088520942511D+00 -4.7483826795361D-01
34  3.3000000000000D-01  1.4355440958671D+00 -4.7961345854445D-01
35  3.4000000000000D-01  1.4601894846078D+00 -4.8199614394075D-01
36  3.5000000000000D-01  1.4826976116666D+00 -4.8180432571675D-01
37  3.6000000000000D-01  1.5029818036202D+00 -4.7886484349395D-01
38  3.7000000000000D-01  1.5209600622081D+00 -4.7301524989047D-01
39  3.8000000000000D-01  1.5365557523359D+00 -4.6410564111769D-01
40  3.9000000000000D-01  1.5496982723650D+00 -4.5200042570453D-01
41  4.0000000000000D-01  1.5603237008145D+00 -4.3658001411678D-01
42  4.1000000000000D-01  1.5683754137254D+00 -4.1774241248595D-01
43  4.2000000000000D-01  1.5738046670994D+00 -3.9540470426533D-01
44  4.3000000000000D-01  1.5765711390465D+00 -3.6950440438849D-01
45  4.4000000000000D-01  1.5766434265406D+00 -3.4000067141247D-01
46  4.5000000000000D-01  1.5739994919931D+00 -3.0687536417983D-01
47  4.6000000000000D-01  1.5686270552128D+00 -2.7013393072141D-01
48  4.7000000000000D-01  1.5605239267168D+00 -2.2980611843815D-01
49  4.8000000000000D-01  1.5496982787957D+00 -1.8594649603577D-01
50  4.9000000000000D-01  1.5361688512069D+00 -1.3863477922793D-01
51  5.0000000000000D-01  1.5199650888732D+00 -8.7975953860721D-02
52  5.1000000000000D-01  1.5011272094980D+00 -3.4100191829651D-02
53  5.2000000000000D-01  1.4797061995581D+00  2.2837443053985D-02
54  5.3000000000000D-01  1.4557637377135D+00  8.2657500253870D-02
55  5.4000000000000D-01  1.4293720452548D+00  1.4515685789143D-01
56  5.5000000000000D-01  1.4006136638096D+00  2.1010964556428D-01
57  5.6000000000000D-01  1.3695811611238D+00  2.7726836995249D-01
58  5.7000000000000D-01  1.3363767663333D+00  3.4636523669115D-01
59  5.8000000000000D-01  1.3011119367322D+00  4.1711366014356D-01
60  5.9000000000000D-01  1.2639068586176D+00  4.8920995092543D-01
61  6.0000000000000D-01  1.2248898853560D+00  5.6233516930565D-01
62  6.1000000000000D-01  1.1841969163499D+00  6.3615713098244D-01
63  6.2000000000000D-01  1.1419707210916D+00  7.1033255020055D-01
64  6.3000000000000D-01  1.0983602129723D+00  7.8450930376753D-01
65  6.4000000000000D-01  1.0535196779461D+00  8.5832879825353D-01
66  6.5000000000000D-01  1.0076079635531D+00  9.3142842152906D-01
67  6.6000000000000D-01  9.6078763415289D-01  1.0034440588328D+00
68  6.7000000000000D-01  9.1322409852316D-01  1.0740126527672D+00
69  6.8000000000000D-01  8.6508471623098D-01  1.1427747860091D+00
70  6.9000000000000D-01  8.1653788937664D-01  1.2093772651000D+00
71  7.0000000000000D-01  7.6775214645109D-01  1.2734756834621D+00
72  7.1000000000000D-01  7.1889522512727D-01  1.3347369417553D+00
73  7.2000000000000D-01  6.7013316082635D-01  1.3928417038797D+00
74  7.3000000000000D-01  6.2162938786055D-01  1.4474867673063D+00
75  7.4000000000000D-01  5.7354385985429D-01  1.4983873270111D+00
76  7.5000000000000D-01  5.2603219598780D-01  1.5452791130701D+00
77  7.6000000000000D-01  4.7924485938926D-01  1.5879203829553D+00
78  7.7000000000000D-01  4.3332637372957D-01  1.6260937507361D+00
79  7.8000000000000D-01  3.8841458374674D-01  1.6596078367307D+00
80  7.9000000000000D-01  3.4463996504992D-01  1.6882987226587D+00
81  8.0000000000000D-01  3.0212498812788D-01  1.7120311989988D+00
82  8.1000000000000D-01  2.6098354101946D-01  1.7306997930505D+00
83  8.2000000000000D-01  2.2132041459606D-01  1.7442295681039D+00
84  8.3000000000000D-01  1.8323085386606D-01  1.7525766861347D+00
85  8.4000000000000D-01  1.4680017814107D-01  1.7557287285320D+00
86  8.5000000000000D-01  1.1210347231166D-01  1.7537047715152D+00
87  8.6000000000000D-01  7.9205350869573D-02  1.7465552150909D+00
88  8.7000000000000D-01  4.8159795692430D-02  1.7343613666040D+00
89  8.8000000000000D-01  1.9010067979743D-02  1.7172347821425D+00
90  8.9000000000000D-01 -8.2113058963854D-03  1.6953163712285D+00
91  9.0000000000000D-01 -3.3482475481338D-02  1.6687752723511D+00
92  9.1000000000000D-01 -5.6792135729278D-02  1.6378075089508D+00
93  9.2000000000000D-01 -7.8139326941887D-02  1.6026344374197D+00
94  9.3000000000000D-01 -9.7533167761151D-02  1.5635010005263D+00
95  9.4000000000000D-01 -1.1499252435222D-01  1.5206738013807D+00
96  9.5000000000000D-01 -1.3054561940551D-01  1.4744390146118D+00
97  9.6000000000000D-01 -1.4422958503920D-01  1.4251001528112D+00
98  9.7000000000000D-01 -1.5608996408944D-01  1.3729757074994D+00
99  9.8000000000000D-01 -1.6618016463260D-01  1.3183966848721D+00
100  9.9000000000000D-01 -1.7456087288689D-01  1.2617040573692D+00
101  1.0000000000000D+00 -1.8129942988499D-01  1.2032461526822D+00
102  1.0100000000000D+00 -1.8646917750448D-01  1.1433760021681D+00
103  1.0200000000000D+00 -1.9014877956467D-01  1.0824486707404D+00
104  1.0300000000000D+00 -1.9242152376855D-01  1.0208185901951D+00
105  1.0400000000000D+00 -1.9337461027479D-01  9.5883691758431D-01
106  1.0500000000000D+00 -1.9309843261869D-01  8.9684893961902D-01
107  1.0600000000000D+00 -1.9168585660598D-01  8.3519154339497D-01
108  1.0700000000000D+00 -1.8923150260362D-01  7.7419077257708D-01
109  1.0800000000000D+00 -1.8583103643474D-01  7.1415948704337D-01
110  1.0900000000000D+00 -1.8158047379469D-01  6.5539514254362D-01
111  1.1000000000000D+00 -1.7657550274695D-01  5.9817770523896D-01
112  1.1100000000000D+00 -1.7091082854060D-01  5.4276771452028D-01
113  1.1200000000000D+00 -1.6467954447812D-01  4.8940450521072D-01
114  1.1300000000000D+00 -1.5797253217106D-01  4.3830459855128D-01
115  1.1400000000000D+00 -1.5087789394477D-01  3.8966026889489D-01
116  1.1500000000000D+00 -1.4348041978614D-01  3.4363829146760D-01
117  1.1600000000000D+00 -1.3586109050894D-01  3.0037887354931D-01
118  1.1700000000000D+00 -1.2809661837166D-01  2.5999476962329D-01
119  1.1800000000000D+00 -1.2025902573983D-01  2.2257057842806D-01
120  1.1900000000000D+00 -1.1241526199773D-01  1.8816221826740D-01
121  1.2000000000000D+00 -1.0462685811224D-01  1.5679657373984D-01
122  1.2100000000000D+00 -9.6949617827615D-02  1.2847130539934D-01
123  1.2200000000000D+00 -8.9433343249217D-02  1.0315480782920D-01
124  1.2300000000000D+00 -8.2121597521005D-02  8.0786329880125D-02
125  1.2400000000000D+00 -7.5051479738147D-02  6.1276122955510D-02
126  1.2500000000000D+00 -6.8253522854527D-02  4.4506207566102D-02
127  1.2600000000000D+00 -6.1751316480022D-02  3.0329623177062D-02
128  1.2700000000000D+00 -5.5561679390022D-02  1.8572615842418D-02
129  1.2800000000000D+00 -4.9695853293486D-02  9.0424239022308D-03
130  1.2900000000000D+00 -4.4160966816956D-02  1.5357555429933D-03
131  1.3000000000000D+00 -3.8961245376491D-02 -4.1544865346736D-03
132  1.3100000000000D+00 -3.4098234542736D-02 -8.2381865866231D-03
133  1.3200000000000D+00 -2.9571336688425D-02 -1.0925247116061D-02
134  1.3300000000000D+00 -2.5378293500736D-02 -1.2423160000202D-02
135  1.3400000000000D+00 -2.1515672035860D-02 -1.2934589364122D-02
136  1.3500000000000D+00 -1.7979333059194D-02 -1.2655070781576D-02
137  1.3600000000000D+00 -1.4764884665698D-02 -1.1770801627309D-02
138  1.3700000000000D+00 -1.1868113754223D-02 -1.0456555228290D-02
139  1.3800000000000D+00 -9.2853905491301D-03 -8.8737377412884D-03
140  1.3900000000000D+00 -7.0140416041899D-03 -7.1686057809955D-03
141  1.4000000000000D+00 -5.0526863852274D-03 -5.4706641160971D-03
142  1.4100000000000D+00 -3.4023172884215D-03 -3.8925694463856D-03
143  1.4200000000000D+00 -2.0629454772493D-03 -2.5228735323382D-03
144  1.4300000000000D+00 -1.0347971770454D-03 -1.4236901180360D-03
145  1.4400000000000D+00 -3.4302010797113D-04 -6.9117089711000D-04
146  1.4500000000000D+00  1.1437521434852D-05 -3.3744056270862D-04
147  1.4600000000000D+00  9.0546183670022D-05 -1.5702359971057D-04
148  1.4700000000000D+00  2.4482948228719D-05 -2.7286078751733D-05
149  1.4800000000000D+00 -1.6952173703771D-05  1.6038237783690D-05
150  1.4900000000000D+00 -2.2555022230011D-06  1.8894083968480D-06
151  1.5000000000000D+00  3.4714232549478D-06 -3.9249398773012D-06
152  1.5100000000000D+00 -5.9611356154063D-08  1.5978934065865D-07
153  1.5200000000000D+00 -2.2022875531886D-07  5.9032724428427D-07
154  1.5300000000000D+00  0.0000000000000D+00  0.0000000000000D+00
155  1.5400000000000D+00  0.0000000000000D+00  0.0000000000000D+00
156  1.5500000000000D+00  0.0000000000000D+00  0.0000000000000D+00
157  1.5600000000000D+00  0.0000000000000D+00  0.0000000000000D+00
158  1.5700000000000D+00  0.0000000000000D+00  0.0000000000000D+00
159  1.5800000000000D+00  0.0000000000000D+00  0.0000000000000D+00
160  1.5900000000000D+00  0.0000000000000D+00  0.0000000000000D+00
161  1.6000000000000D+00  0.0000000000000D+00  0.0000000000000D+00
162  1.6100000000000D+00  0.0000000000000D+00  0.0000000000000D+00
163  1.6200000000000D+00  0.0000000000000D+00  0.0000000000000D+00
164  1.6300000000000D+00  0.0000000000000D+00  0.0000000000000D+00
165  1.6400000000000D+00  0.0000000000000D+00  0.0000000000000D+00
166  1.6500000000000D+00  0.0000000000000D+00  0.0000000000000D+00
167  1.6600000000000D+00  0.0000000000000D+00  0.0000000000000D+00
168  1.6700000000000D+00  0.0000000000000D+00  0.0000000000000D+00
169  1.6800000000000D+00  0.0000000000000D+00  0.0000000000000D+00
170  1.6900000000000D+00  0.0000000000000D+00  0.0000000000000D+00
171  1.7000000000000D+00  0.0000000000000D+00  0.0000000000000D+00
172  1.7100000000000D+00  0.0000000000000D+00  0.0000000000000D+00
173  1.7200000000000D+00  0.0000000000000D+00  0.0000000000000D+00
174  1.7300000000000D+00  0.0000000000000D+00  0.0000000000000D+00
175  1.7400000000000D+00  0.0000000000000D+00  0.0000000000000D+00
176  1.7500000000000D+00  0.0000000000000D+00  0.0000000000000D+00
177  1.7600000000000D+00  0.0000000000000D+00  0.0000000000000D+00
178  1.7700000000000D+00  0.0000000000000D+00  0.0000000000000D+00
179  1.7800000000000D+00  0.0000000000000D+00  0.0000000000000D+00
180  1.7900000000000D+00  0.0000000000000D+00  0.0000000000000D+00
181  1.8000000000000D+00  0.0000000000000D+00  0.0000000000000D+00
182  1.8100000000000D+00  0.0000000000000D+00  0.0000000000000D+00
183  1.8200000000000D+00  0.0000000000000D+00  0.0000000000000D+00
184  1.8300000000000D+00  0.0000000000000D+00  0.0000000000000D+00
185  1.8400000000000D+00  0.0000000000000D+00  0.0000000000000D+00
186  1.8500000000000D+00  0.0000000000000D+00  0.0000000000000D+00
187  1.8600000000000D+00  0.0000000000000D+00  0.0000000000000D+00
188  1.8700000000000D+00  0.0000000000000D+00  0.0000000000000D+00
189  1.8800000000000D+00  0.0000000000000D+00  0.0000000000000D+00
190  1.8900000000000D+00  0.0000000000000D+00  0.0000000000000D+00
191  1.9000000000000D+00  0.0000000000000D+00  0.0000000000000D+00
192  1.9100000000000D+00  0.0000000000000D+00  0.0000000000000D+00
193  1.9200000000000D+00  0.0000000000000D+00  0.0000000000000D+00
194  1.9300000000000D+00  0.0000000000000D+00  0.0000000000000D+00
195  1.9400000000000D+00  0.0000000000000D+00  0.0000000000000D+00
196  1.9500000000000D+00  0.0000000000000D+00  0.0000000000000D+00
197  1.9600000000000D+00  0.0000000000000D+00  0.0000000000000D+00
198  1.9700000000000D+00  0.0000000000000D+00  0.0000000000000D+00
199  1.9800000000000D+00  0.0000000000000D+00  0.0000000000000D+00
200  1.9900000000000D+00  0.0000000000000D+00  0.0000000000000D+00
201  2.0000000000000D+00  0.0000000000000D+00  0.0000000000000D+00
202  2.0100000000000D+00  0.0000000000000D+00  0.0000000000000D+00
203  2.0200000000000D+00  0.0000000000000D+00  0.0000000000000D+00
204  2.0300000000000D+00  0.0000000000000D+00  0.0000000000000D+00
205  2.0400000000000D+00  0.0000000000000D+00  0.0000000000000D+00
206  2.0500000000000D+00  0.0000000000000D+00  0.0000000000000D+00
207  2.0600000000000D+00  0.0000000000000D+00  0.0000000000000D+00
208  2.0700000000000D+00  0.0000000000000D+00  0.0000000000000D+00
209  2.0800000000000D+00  0.0000000000000D+00  0.0000000000000D+00
210  2.0900000000000D+00  0.0000000000000D+00  0.0000000000000D+00
211  2.1000000000000D+00  0.0000000000000D+00  0.0000000000000D+00
212  2.1100000000000D+00  0.0000000000000D+00  0.0000000000000D+00
213  2.1200000000000D+00  0.0000000000000D+00  0.0000000000000D+00
214  2.1300000000000D+00  0.0000000000000D+00  0.0000000000000D+00
215  2.1400000000000D+00  0.0000000000000D+00  0.0000000000000D+00
216  2.1500000000000D+00  0.0000000000000D+00  0.0000000000000D+00
217  2.1600000000000D+00  0.0000000000000D+00  0.0000000000000D+00
218  2.1700000000000D+00  0.0000000000000D+00  0.0000000000000D+00
219  2.1800000000000D+00  0.0000000000000D+00  0.0000000000000D+00
220  2.1900000000000D+00  0.0000000000000D+00  0.0000000000000D+00
221  2.2000000000000D+00  0.0000000000000D+00  0.0000000000000D+00
222  2.2100000000000D+00  0.0000000000000D+00  0.0000000000000D+00
223  2.2200000000000D+00  0.0000000000000D+00  0.0000000000000D+00
224  2.2300000000000D+00  0.0000000000000D+00  0.0000000000000D+00
225  2.2400000000000D+00  0.0000000000000D+00  0.0000000000000D+00
226  2.2500000000000D+00  0.0000000000000D+00  0.0000000000000D+00
227  2.2600000000000D+00  0.0000000000000D+00  0.0000000000000D+00
228  2.2700000000000D+00  0.0000000000000D+00  0.0000000000000D+00
229  2.2800000000000D+00  0.0000000000000D+00  0.0000000000000D+00
230  2.2900000000000D+00  0.0000000000000D+00  0.0000000000000D+00
231  2.3000000000000D+00  0.0000000000000D+00  0.0000000000000D+00
232  2.3100000000000D+00  0.0000000000000D+00  0.0000000000000D+00
233  2.3200000000000D+00  0.0000000000000D+00  0.0000000000000D+00
234  2.3300000000000D+00  0.0000000000000D+00  0.0000000000000D+00
235  2.3400000000000D+00  0.0000000000000D+00  0.0000000000000D+00
236  2.3500000000000D+00  0.0000000000000D+00  0.0000000000000D+00
237  2.3600000000000D+00  0.0000000000000D+00  0.0000000000000D+00
238  2.3700000000000D+00  0.0000000000000D+00  0.0000000000000D+00
239  2.3800000000000D+00  0.0000000000000D+00  0.0000000000000D+00
240  2.3900000000000D+00  0.0000000000000D+00  0.0000000000000D+00
241  2.4000000000000D+00  0.0000000000000D+00  0.0000000000000D+00
242  2.4100000000000D+00  0.0000000000000D+00  0.0000000000000D+00
243  2.4200000000000D+00  0.0000000000000D+00  0.0000000000000D+00
244  2.4300000000000D+00  0.0000000000000D+00  0.0000000000000D+00
245  2.4400000000000D+00  0.0000000000000D+00  0.0000000000000D+00
246  2.4500000000000D+00  0.0000000000000D+00  0.0000000000000D+00
247  2.4600000000000D+00  0.0000000000000D+00  0.0000000000000D+00
248  2.4700000000000D+00  0.0000000000000D+00  0.0000000000000D+00
249  2.4800000000000D+00  0.0000000000000D+00  0.0000000000000D+00
250  2.4900000000000D+00  0.0000000000000D+00  0.0000000000000D+00
251  2.5000000000000D+00  0.0000000000000D+00  0.0000000000000D+00
252  2.5100000000000D+00  0.0000000000000D+00  0.0000000000000D+00
253  2.5200000000000D+00  0.0000000000000D+00  0.0000000000000D+00
254  2.5300000000000D+00  0.0000000000000D+00  0.0000000000000D+00
255  2.5400000000000D+00  0.0000000000000D+00  0.0000000000000D+00
256  2.5500000000000D+00  0.0000000000000D+00  0.0000000000000D+00
257  2.5600000000000D+00  0.0000000000000D+00  0.0000000000000D+00
258  2.5700000000000D+00  0.0000000000000D+00  0.0000000000000D+00
259  2.5800000000000D+00  0.0000000000000D+00  0.0000000000000D+00
260  2.5900000000000D+00  0.0000000000000D+00  0.0000000000000D+00
261  2.6000000000000D+00  0.0000000000000D+00  0.0000000000000D+00
262  2.6100000000000D+00  0.0000000000000D+00  0.0000000000000D+00
263  2.6200000000000D+00  0.0000000000000D+00  0.0000000000000D+00
264  2.6300000000000D+00  0.0000000000000D+00  0.0000000000000D+00
265  2.6400000000000D+00  0.0000000000000D+00  0.0000000000000D+00
266  2.6500000000000D+00  0.0000000000000D+00  0.0000000000000D+00
267  2.6600000000000D+00  0.0000000000000D+00  0.0000000000000D+00
268  2.6700000000000D+00  0.0000000000000D+00  0.0000000000000D+00
269  2.6800000000000D+00  0.0000000000000D+00  0.0000000000000D+00
270  2.6900000000000D+00  0.0000000000000D+00  0.0000000000000D+00
271  2.7000000000000D+00  0.0000000000000D+00  0.0000000000000D+00
272  2.7100000000000D+00  0.0000000000000D+00  0.0000000000000D+00
273  2.7200000000000D+00  0.0000000000000D+00  0.0000000000000D+00
274  2.7300000000000D+00  0.0000000000000D+00  0.0000000000000D+00
275  2.7400000000000D+00  0.0000000000000D+00  0.0000000000000D+00
276  2.7500000000000D+00  0.0000000000000D+00  0.0000000000000D+00
277  2.7600000000000D+00  0.0000000000000D+00  0.0000000000000D+00
278  2.7700000000000D+00  0.0000000000000D+00  0.0000000000000D+00
279  2.7800000000000D+00  0.0000000000000D+00  0.0000000000000D+00
280  2.7900000000000D+00  0.0000000000000D+00  0.0000000000000D+00
281  2.8000000000000D+00  0.0000000000000D+00  0.0000000000000D+00
282  2.8100000000000D+00  0.0000000000000D+00  0.0000000000000D+00
283  2.8200000000000D+00  0.0000000000000D+00  0.0000000000000D+00
284  2.8300000000000D+00  0.0000000000000D+00  0.0000000000000D+00
285  2.8400000000000D+00  0.0000000000000D+00  0.0000000000000D+00
286  2.8500000000000D+00  0.0000000000000D+00  0.0000000000000D+00
287  2.8600000000000D+00  0.0000000000000D+00  0.0000000000000D+00
288  2.8700000000000D+00  0.0000000000000D+00  0.0000000000000D+00
289  2.8800000000000D+00  0.0000000000000D+00  0.0000000000000D+00
290  2.8900000000000D+00  0.0000000000000D+00  0.0000000000000D+00
291  2.9000000000000D+00  0.0000000000000D+00  0.0000000000000D+00
292  2.9100000000000D+00  0.0000000000000D+00  0.0000000000000D+00
293  2.9200000000000D+00  0.0000000000000D+00  0.0000000000000D+00
294  2.9300000000000D+00  0.0000000000000D+00  0.0000000000000D+00
295  2.9400000000000D+00  0.0000000000000D+00  0.0000000000000D+00
296  2.9500000000000D+00  0.0000000000000D+00  0.0000000000000D+00
297  2.9600000000000D+00  0.0000000000000D+00  0.0000000000000D+00
298  2.9700000000000D+00  0.0000000000000D+00  0.0000000000000D+00
299  2.9800000000000D+00  0.0000000000000D+00  0.0000000000000D+00
300  2.9900000000000D+00  0.0000000000000D+00  0.0000000000000D+00
301  3.0000000000000D+00  0.0000000000000D+00  0.0000000000000D+00
302  3.0100000000000D+00  0.0000000000000D+00  0.0000000000000D+00
303  3.0200000000000D+00  0.0000000000000D+00  0.0000000000000D+00
304  3.0300000000000D+00  0.0000000000000D+00  0.0000000000000D+00
305  3.0400000000000D+00  0.0000000000000D+00  0.0000000000000D+00
306  3.0500000000000D+00  0.0000000000000D+00  0.0000000000000D+00
307  3.0600000000000D+00  0.0000000000000D+00  0.0000000000000D+00
308  3.0700000000000D+00  0.0000000000000D+00  0.0000000000000D+00
309  3.0800000000000D+00  0.0000000000000D+00  0.0000000000000D+00
310  3.0900000000000D+00  0.0000000000000D+00  0.0000000000000D+00
311  3.1000000000000D+00  0.0000000000000D+00  0.0000000000000D+00
312  3.1100000000000D+00  0.0000000000000D+00  0.0000000000000D+00
313  3.1200000000000D+00  0.0000000000000D+00  0.0000000000000D+00
314  3.1300000000000D+00  0.0000000000000D+00  0.0000000000000D+00
315  3.1400000000000D+00  0.0000000000000D+00  0.0000000000000D+00
316  3.1500000000000D+00  0.0000000000000D+00  0.0000000000000D+00
317  3.1600000000000D+00  0.0000000000000D+00  0.0000000000000D+00
318  3.1700000000000D+00  0.0000000000000D+00  0.0000000000000D+00
319  3.1800000000000D+00  0.0000000000000D+00  0.0000000000000D+00
320  3.1900000000000D+00  0.0000000000000D+00  0.0000000000000D+00
321  3.2000000000000D+00  0.0000000000000D+00  0.0000000000000D+00
322  3.2100000000000D+00  0.0000000000000D+00  0.0000000000000D+00
323  3.2200000000000D+00  0.0000000000000D+00  0.0000000000000D+00
324  3.2300000000000D+00  0.0000000000000D+00  0.0000000000000D+00
325  3.2400000000000D+00  0.0000000000000D+00  0.0000000000000D+00
326  3.2500000000000D+00  0.0000000000000D+00  0.0000000000000D+00
327  3.2600000000000D+00  0.0000000000000D+00  0.0000000000000D+00
328  3.2700000000000D+00  0.0000000000000D+00  0.0000000000000D+00
329  3.2800000000000D+00  0.0000000000000D+00  0.0000000000000D+00
330  3.2900000000000D+00  0.0000000000000D+00  0.0000000000000D+00
331  3.3000000000000D+00  0.0000000000000D+00  0.0000000000000D+00
332  3.3100000000000D+00  0.0000000000000D+00  0.0000000000000D+00
333  3.3200000000000D+00  0.0000000000000D+00  0.0000000000000D+00
334  3.3300000000000D+00  0.0000000000000D+00  0.0000000000000D+00
335  3.3400000000000D+00  0.0000000000000D+00  0.0000000000000D+00
336  3.3500000000000D+00  0.0000000000000D+00  0.0000000000000D+00
337  3.3600000000000D+00  0.0000000000000D+00  0.0000000000000D+00
338  3.3700000000000D+00  0.0000000000000D+00  0.0000000000000D+00
339  3.3800000000000D+00  0.0000000000000D+00  0.0000000000000D+00
340  3.3900000000000D+00  0.0000000000000D+00  0.0000000000000D+00
341  3.4000000000000D+00  0.0000000000000D+00  0.0000000000000D+00
342  3.4100000000000D+00  0.0000000000000D+00  0.0000000000000D+00
343  3.4200000000000D+00  0.0000000000000D+00  0.0000000000000D+00
344  3.4300000000000D+00  0.0000000000000D+00  0.0000000000000D+00
345  3.4400000000000D+00  0.0000000000000D+00  0.0000000000000D+00
346  3.4500000000000D+00  0.0000000000000D+00  0.0000000000000D+00
347  3.4600000000000D+00  0.0000000000000D+00  0.0000000000000D+00
348  3.4700000000000D+00  0.0000000000000D+00  0.0000000000000D+00
349  3.4800000000000D+00  0.0000000000000D+00  0.0000000000000D+00
350  3.4900000000000D+00  0.0000000000000D+00  0.0000000000000D+00
351  3.5000000000000D+00  0.0000000000000D+00  0.0000000000000D+00
352  3.5100000000000D+00  0.0000000000000D+00  0.0000000000000D+00
353  3.5200000000000D+00  0.0000000000000D+00  0.0000000000000D+00
354  3.5300000000000D+00  0.0000000000000D+00  0.0000000000000D+00
355  3.5400000000000D+00  0.0000000000000D+00  0.0000000000000D+00
356  3.5500000000000D+00  0.0000000000000D+00  0.0000000000000D+00
357  3.5600000000000D+00  0.0000000000000D+00  0.0000000000000D+00
358  3.5700000000000D+00  0.0000000000000D+00  0.0000000000000D+00
359  3.5800000000000D+00  0.0000000000000D+00  0.0000000000000D+00
360  3.5900000000000D+00  0.0000000000000D+00  0.0000000000000D+00
361  3.6000000000000D+00  0.0000000000000D+00  0.0000000000000D+00
362  3.6100000000000D+00  0.0000000000000D+00  0.0000000000000D+00
363  3.6200000000000D+00  0.0000000000000D+00  0.0000000000000D+00
364  3.6300000000000D+00  0.0000000000000D+00  0.0000000000000D+00
365  3.6400000000000D+00  0.0000000000000D+00  0.0000000000000D+00
366  3.6500000000000D+00  0.0000000000000D+00  0.0000000000000D+00
367  3.6600000000000D+00  0.0000000000000D+00  0.0000000000000D+00
368  3.6700000000000D+00  0.0000000000000D+00  0.0000000000000D+00
369  3.6800000000000D+00  0.0000000000000D+00  0.0000000000000D+00
370  3.6900000000000D+00  0.0000000000000D+00  0.0000000000000D+00
371  3.7000000000000D+00  0.0000000000000D+00  0.0000000000000D+00
372  3.7100000000000D+00  0.0000000000000D+00  0.0000000000000D+00
373  3.7200000000000D+00  0.0000000000000D+00  0.0000000000000D+00
374  3.7300000000000D+00  0.0000000000000D+00  0.0000000000000D+00
375  3.7400000000000D+00  0.0000000000000D+00  0.0000000000000D+00
376  3.7500000000000D+00  0.0000000000000D+00  0.0000000000000D+00
377  3.7600000000000D+00  0.0000000000000D+00  0.0000000000000D+00
378  3.7700000000000D+00  0.0000000000000D+00  0.0000000000000D+00
379  3.7800000000000D+00  0.0000000000000D+00  0.0000000000000D+00
380  3.7900000000000D+00  0.0000000000000D+00  0.0000000000000D+00
381  3.8000000000000D+00  0.0000000000000D+00  0.0000000000000D+00
382  3.8100000000000D+00  0.0000000000000D+00  0.0000000000000D+00
383  3.8200000000000D+00  0.0000000000000D+00  0.0000000000000D+00
384  3.8300000000000D+00  0.0000000000000D+00  0.0000000000000D+00
385  3.8400000000000D+00  0.0000000000000D+00  0.0000000000000D+00
386  3.8500000000000D+00  0.0000000000000D+00  0.0000000000000D+00
387  3.8600000000000D+00  0.0000000000000D+00  0.0000000000000D+00
388  3.8700000000000D+00  0.0000000000000D+00  0.0000000000000D+00
389  3.8800000000000D+00  0.0000000000000D+00  0.0000000000000D+00
390  3.8900000000000D+00  0.0000000000000D+00  0.0000000000000D+00
391  3.9000000000000D+00  0.0000000000000D+00  0.0000000000000D+00
392  3.9100000000000D+00  0.0000000000000D+00  0.0000000000000D+00
393  3.9200000000000D+00  0.0000000000000D+00  0.0000000000000D+00
394  3.9300000000000D+00  0.0000000000000D+00  0.0000000000000D+00
395  3.9400000000000D+00  0.0000000000000D+00  0.0000000000000D+00
396  3.9500000000000D+00  0.0000000000000D+00  0.0000000000000D+00
397  3.9600000000000D+00  0.0000000000000D+00  0.0000000000000D+00
398  3.9700000000000D+00  0.0000000000000D+00  0.0000000000000D+00
399  3.9800000000000D+00  0.0000000000000D+00  0.0000000000000D+00
400  3.9900000000000D+00  0.0000000000000D+00  0.0000000000000D+00
401  4.0000000000000D+00  0.0000000000000D+00  0.0000000000000D+00
402  4.0100000000000D+00  0.0000000000000D+00  0.0000000000000D+00
403  4.0200000000000D+00  0.0000000000000D+00  0.0000000000000D+00
404  4.0300000000000D+00  0.0000000000000D+00  0.0000000000000D+00
405  4.0400000000000D+00  0.0000000000000D+00  0.0000000000000D+00
406  4.0500000000000D+00  0.0000000000000D+00  0.0000000000000D+00
407  4.0600000000000D+00  0.0000000000000D+00  0.0000000000000D+00
408  4.0700000000000D+00  0.0000000000000D+00  0.0000000000000D+00
409  4.0800000000000D+00  0.0000000000000D+00  0.0000000000000D+00
410  4.0900000000000D+00  0.0000000000000D+00  0.0000000000000D+00
411  4.1000000000000D+00  0.0000000000000D+00  0.0000000000000D+00
412  4.1100000000000D+00  0.0000000000000D+00  0.0000000000000D+00
413  4.1200000000000D+00  0.0000000000000D+00  0.0000000000000D+00
414  4.1300000000000D+00  0.0000000000000D+00  0.0000000000000D+00
415  4.1400000000000D+00  0.0000000000000D+00  0.0000000000000D+00
416  4.1500000000000D+00  0.0000000000000D+00  0.0000000000000D+00
417  4.1600000000000D+00  0.0000000000000D+00  0.0000000000000D+00
418  4.1700000000000D+00  0.0000000000000D+00  0.0000000000000D+00
419  4.1800000000000D+00  0.0000000000000D+00  0.0000000000000D+00
420  4.1900000000000D+00  0.0000000000000D+00  0.0000000000000D+00
421  4.2000000000000D+00  0.0000000000000D+00  0.0000000000000D+00
422  4.2100000000000D+00  0.0000000000000D+00  0.0000000000000D+00
423  4.2200000000000D+00  0.0000000000000D+00  0.0000000000000D+00
424  4.2300000000000D+00  0.0000000000000D+00  0.0000000000000D+00
425  4.2400000000000D+00  0.0000000000000D+00  0.0000000000000D+00
426  4.2500000000000D+00  0.0000000000000D+00  0.0000000000000D+00
427  4.2600000000000D+00  0.0000000000000D+00  0.0000000000000D+00
428  4.2700000000000D+00  0.0000000000000D+00  0.0000000000000D+00
429  4.2800000000000D+00  0.0000000000000D+00  0.0000000000000D+00
430  4.2900000000000D+00  0.0000000000000D+00  0.0000000000000D+00
431  4.3000000000000D+00  0.0000000000000D+00  0.0000000000000D+00
432  4.3100000000000D+00  0.0000000000000D+00  0.0000000000000D+00
433  4.3200000000000D+00  0.0000000000000D+00  0.0000000000000D+00
434  4.3300000000000D+00  0.0000000000000D+00  0.0000000000000D+00
435  4.3400000000000D+00  0.0000000000000D+00  0.0000000000000D+00
436  4.3500000000000D+00  0.0000000000000D+00  0.0000000000000D+00
437  4.3600000000000D+00  0.0000000000000D+00  0.0000000000000D+00
438  4.3700000000000D+00  0.0000000000000D+00  0.0000000000000D+00
439  4.3800000000000D+00  0.0000000000000D+00  0.0000000000000D+00
440  4.3900000000000D+00  0.0000000000000D+00  0.0000000000000D+00
441  4.4000000000000D+00  0.0000000000000D+00  0.0000000000000D+00
442  4.4100000000000D+00  0.0000000000000D+00  0.0000000000000D+00
443  4.4200000000000D+00  0.0000000000000D+00  0.0000000000000D+00
444  4.4300000000000D+00  0.0000000000000D+00  0.0000000000000D+00