Mg    ONCVPSP-3.2.3  r_core=   1.16056   1.56380
12.0000     10.0000      161006    zatom,zion,pspd
8   -1012   1     4   400     0    pspcod,pspxc,lmax,lloc,mmax,r2well
3.99000000  0.00000000  0.00000000    rchrg fchrg qchrg
2     2     0     0     0    nproj
1     1           extension_switch
0                         2.5333771708439D+00 -8.2530768377255D-01
1  0.0000000000000D+00  8.9278561987705D-08  3.0150656971095D-09
2  1.0000000000000D-02 -1.1793364116111D-01  2.9263741094983D-02
3  2.0000000000000D-02 -2.3386408360999D-01  5.8613696908532D-02
4  3.0000000000000D-02 -3.4583387327846D-01  8.8134162187903D-02
5  4.0000000000000D-02 -4.5197599546652D-01  1.1790562973812D-01
6  5.0000000000000D-02 -5.5055649333625D-01  1.4800298365602D-01
7  6.0000000000000D-02 -6.4001403056186D-01  1.7849380339950D-01
8  7.0000000000000D-02 -7.1899548727122D-01  2.0943681200229D-01
9  8.0000000000000D-02 -7.8638676769291D-01  2.4088049872997D-01
10  9.0000000000000D-02 -8.4133810575157D-01  2.7286194282641D-01
11  1.0000000000000D-01 -8.8328327884410D-01  3.0540586080078D-01
12  1.1000000000000D-01 -9.1195227742733D-01  3.3852389504275D-01
13  1.2000000000000D-01 -9.2737712580599D-01  3.7221415652706D-01
14  1.3000000000000D-01 -9.2989070434425D-01  4.0646102908589D-01
15  1.4000000000000D-01 -9.2011858179191D-01  4.4123523730139D-01
16  1.5000000000000D-01 -8.9896402498923D-01  4.7649417461640D-01
17  1.6000000000000D-01 -8.6758650835702D-01  5.1218248289608D-01
18  1.7000000000000D-01 -8.2737419382580D-01  5.4823286951076D-01
19  1.8000000000000D-01 -7.7991098989144D-01  5.8456714316019D-01
20  1.9000000000000D-01 -7.2693892320809D-01  6.2109744522634D-01
21  2.0000000000000D-01 -6.7031666473228D-01  6.5772764951765D-01
22  2.1000000000000D-01 -6.1197514245915D-01  6.9435489993777D-01
23  2.2000000000000D-01 -5.5387124219162D-01  7.3087125294412D-01
24  2.3000000000000D-01 -4.9794064495690D-01  7.6716538971414D-01
25  2.4000000000000D-01 -4.4605087352343D-01  8.0312436174838D-01
26  2.5000000000000D-01 -3.9995562037945D-01  8.3863533323440D-01
27  2.6000000000000D-01 -3.6125140544355D-01  8.7358728388068D-01
28  2.7000000000000D-01 -3.3133756415560D-01  9.0787263709452D-01
29  2.8000000000000D-01 -3.1138049642629D-01  9.4138878029625D-01
30  2.9000000000000D-01 -3.0228301569867D-01  9.7403944678926D-01
31  3.0000000000000D-01 -3.0465952705216D-01  1.0057359318838D+00
32  3.1000000000000D-01 -3.1881763624936D-01  1.0363981198290D+00
33  3.2000000000000D-01 -3.4474665065427D-01  1.0659553024559D+00
34  3.3000000000000D-01 -3.8211328111988D-01  1.0943467751809D+00
35  3.4000000000000D-01 -4.3026469458671D-01  1.1215222010557D+00
36  3.5000000000000D-01 -4.8823890376911D-01  1.1474417387699D+00
37  3.6000000000000D-01 -5.5478231652734D-01  1.1720759357969D+00
38  3.7000000000000D-01 -6.2837410699121D-01  1.1954053931118D+00
39  3.8000000000000D-01 -7.0725691675208D-01  1.2174202129804D+00
40  3.9000000000000D-01 -7.8947325094481D-01  1.2381192461161D+00
41  4.0000000000000D-01 -8.7290680399106D-01  1.2575091589165D+00
42  4.1000000000000D-01 -9.5532783611537D-01  1.2756033454322D+00
43  4.2000000000000D-01 -1.0344416270558D+00  1.2924207120931D+00
44  4.3000000000000D-01 -1.1079389598325D+00  1.3079843659601D+00
45  4.4000000000000D-01 -1.1735475367246D+00  1.3223202393093D+00
46  4.5000000000000D-01 -1.2290832029407D+00  1.3354556846588D+00
47  4.6000000000000D-01 -1.2724998515319D+00  1.3474180748843D+00
48  4.7000000000000D-01 -1.3019369060250D+00  1.3582334428195D+00
49  4.8000000000000D-01 -1.3157633246187D+00  1.3679251937252D+00
50  4.9000000000000D-01 -1.3126171406387D+00  1.3765129222396D+00
51  5.0000000000000D-01 -1.2914396468198D+00  1.3840113629491D+00
52  5.1000000000000D-01 -1.2515034438064D+00  1.3904295005911D+00
53  5.2000000000000D-01 -1.1924337037776D+00  1.3957698621894D+00
54  5.3000000000000D-01 -1.1142221453535D+00  1.4000280092098D+00
55  5.4000000000000D-01 -1.0172333726686D+00  1.4031922432182D+00
56  5.5000000000000D-01 -9.0220339664552D-01  1.4052435335980D+00
57  5.6000000000000D-01 -7.7023032600693D-01  1.4061556707848D+00
58  5.7000000000000D-01 -6.2275738583120D-01  1.4058956432939D+00
59  5.8000000000000D-01 -4.6154858915230D-01  1.4044242316673D+00
60  5.9000000000000D-01 -2.8865754746448D-01  1.4016968074904D+00
61  6.0000000000000D-01 -1.0639005696005D-01  1.3976643208951D+00
62  6.1000000000000D-01  8.2738766151260D-02  1.3922744556287D+00
63  6.2000000000000D-01  2.7605190735508D-01  1.3854729268848D+00
64  6.3000000000000D-01  4.7076143785782D-01  1.3772048937692D+00
65  6.4000000000000D-01  6.6402198705558D-01  1.3674164555925D+00
66  6.5000000000000D-01  8.5298557353666D-01  1.3560561991724D+00
67  6.6000000000000D-01  1.0348566338178D+00  1.3430767630760D+00
68  6.7000000000000D-01  1.2069460822184D+00  1.3284363842294D+00
69  6.8000000000000D-01  1.3667232553460D+00  1.3121003926027D+00
70  6.9000000000000D-01  1.5118646400099D+00  1.2940426207284D+00
71  7.0000000000000D-01  1.6402983525444D+00  1.2742466965929D+00
72  7.1000000000000D-01  1.7502434301078D+00  1.2527071909490D+00
73  7.2000000000000D-01  1.8402431073708D+00  1.2294305932317D+00
74  7.3000000000000D-01  1.9091913831662D+00  1.2044360939836D+00
75  7.4000000000000D-01  1.9563523285789D+00  1.1777561559104D+00
76  7.5000000000000D-01  1.9813717458613D+00  1.1494368602787D+00
77  7.6000000000000D-01  1.9842809556924D+00  1.1195380202897D+00
78  7.7000000000000D-01  1.9654926617793D+00  1.0881330581291D+00
79  7.8000000000000D-01  1.9257890150073D+00  1.0553086475410D+00
80  7.9000000000000D-01  1.8663021695351D+00  1.0211641288724D+00
81  8.0000000000000D-01  1.7884877867295D+00  9.8581070845970D-01
82  8.1000000000000D-01  1.6940920959990D+00  9.4937045888137D-01
83  8.2000000000000D-01  1.5851132609797D+00  9.1197514086898D-01
84  8.3000000000000D-01  1.4637579220189D+00  8.7376487145517D-01
85  8.4000000000000D-01  1.3323938887490D+00  8.3488666616135D-01
86  8.5000000000000D-01  1.1935000374350D+00  7.9549288561311D-01
87  8.6000000000000D-01  1.0496145249070D+00  7.5573961886081D-01
88  8.7000000000000D-01  9.0328246297368D-01  7.1578503683576D-01
89  8.8000000000000D-01  7.5700420354631D-01  6.7578774976235D-01
90  8.9000000000000D-01  6.1318536516233D-01  6.3590520196645D-01
91  9.0000000000000D-01  4.7408968663540D-01  5.9629213638068D-01
92  9.1000000000000D-01  3.4179572422329D-01  5.5709915917522D-01
93  9.2000000000000D-01  2.1815831657939D-01  5.1847143238248D-01
94  9.3000000000000D-01  1.0477562895321D-01  4.8054751919660D-01
95  9.4000000000000D-01  2.9624572104442D-03  4.4345840288759D-01
96  9.5000000000000D-01 -8.6269673752316D-02  4.0732669606316D-01
97  9.6000000000000D-01 -1.6222524038058D-01  3.7226605243627D-01
98  9.7000000000000D-01 -2.2453006858364D-01  3.3838078842387D-01
99  9.8000000000000D-01 -2.7312925928454D-01  3.0576571690275D-01
100  9.9000000000000D-01 -3.0827782206307D-01  2.7450619042076D-01
101  1.0000000000000D+00 -3.3052431174655D-01  2.4467834631667D-01
102  1.0100000000000D+00 -3.4068792847961D-01  2.1634954129328D-01
103  1.0200000000000D+00 -3.3982968621054D-01  1.8957895869259D-01
104  1.0300000000000D+00 -3.2921839129727D-01  1.6441836763673D-01
105  1.0400000000000D+00 -3.1029228994305D-01  1.4091300968358D-01
106  1.0500000000000D+00 -2.8461734151376D-01  1.1910258566770D-01
107  1.0600000000000D+00 -2.5384314566543D-01  9.9022313232901D-02
108  1.0700000000000D+00 -2.1965761147911D-01  8.0704024173241D-02
109  1.0800000000000D+00 -1.8374146161240D-01  6.4177266665827D-02
110  1.0900000000000D+00 -1.4772373671802D-01  4.9470392113633D-02
111  1.1000000000000D+00 -1.1313908109521D-01  3.6611533116777D-02
112  1.1100000000000D+00 -8.1389130797308D-02  2.5629718814628D-02
113  1.1200000000000D+00 -5.3704268034108D-02  1.6555102283010D-02
114  1.1300000000000D+00 -3.1113811375582D-02  9.4205146601820D-03
115  1.1400000000000D+00 -1.4279968605616D-02  4.2226150583335D-03
116  1.1500000000000D+00 -4.1914750427380D-03  1.1205196079659D-03
117  1.1600000000000D+00 -3.8857082762459D-04 -4.1830807908334D-05
118  1.1700000000000D+00  1.2099311698350D-04 -8.6116021701149D-05
119  1.1800000000000D+00 -6.4852084400457D-05  3.6607190990977D-05
120  1.1900000000000D+00  3.6303098295513D-06 -2.5343674781728D-06
121  1.2000000000000D+00  6.0532699977258D-06 -3.8766445327112D-06
122  1.2100000000000D+00  8.5887834327789D-07  1.8365121694463D-07
123  1.2200000000000D+00  0.0000000000000D+00  0.0000000000000D+00
124  1.2300000000000D+00  0.0000000000000D+00  0.0000000000000D+00
125  1.2400000000000D+00  0.0000000000000D+00  0.0000000000000D+00
126  1.2500000000000D+00  0.0000000000000D+00  0.0000000000000D+00
127  1.2600000000000D+00  0.0000000000000D+00  0.0000000000000D+00
128  1.2700000000000D+00  0.0000000000000D+00  0.0000000000000D+00
129  1.2800000000000D+00  0.0000000000000D+00  0.0000000000000D+00
130  1.2900000000000D+00  0.0000000000000D+00  0.0000000000000D+00
131  1.3000000000000D+00  0.0000000000000D+00  0.0000000000000D+00
132  1.3100000000000D+00  0.0000000000000D+00  0.0000000000000D+00
133  1.3200000000000D+00  0.0000000000000D+00  0.0000000000000D+00
134  1.3300000000000D+00  0.0000000000000D+00  0.0000000000000D+00
135  1.3400000000000D+00  0.0000000000000D+00  0.0000000000000D+00
136  1.3500000000000D+00  0.0000000000000D+00  0.0000000000000D+00
137  1.3600000000000D+00  0.0000000000000D+00  0.0000000000000D+00
138  1.3700000000000D+00  0.0000000000000D+00  0.0000000000000D+00
139  1.3800000000000D+00  0.0000000000000D+00  0.0000000000000D+00
140  1.3900000000000D+00  0.0000000000000D+00  0.0000000000000D+00
141  1.4000000000000D+00  0.0000000000000D+00  0.0000000000000D+00
142  1.4100000000000D+00  0.0000000000000D+00  0.0000000000000D+00
143  1.4200000000000D+00  0.0000000000000D+00  0.0000000000000D+00
144  1.4300000000000D+00  0.0000000000000D+00  0.0000000000000D+00
145  1.4400000000000D+00  0.0000000000000D+00  0.0000000000000D+00
146  1.4500000000000D+00  0.0000000000000D+00  0.0000000000000D+00
147  1.4600000000000D+00  0.0000000000000D+00  0.0000000000000D+00
148  1.4700000000000D+00  0.0000000000000D+00  0.0000000000000D+00
149  1.4800000000000D+00  0.0000000000000D+00  0.0000000000000D+00
150  1.4900000000000D+00  0.0000000000000D+00  0.0000000000000D+00
151  1.5000000000000D+00  0.0000000000000D+00  0.0000000000000D+00
152  1.5100000000000D+00  0.0000000000000D+00  0.0000000000000D+00
153  1.5200000000000D+00  0.0000000000000D+00  0.0000000000000D+00
154  1.5300000000000D+00  0.0000000000000D+00  0.0000000000000D+00
155  1.5400000000000D+00  0.0000000000000D+00  0.0000000000000D+00
156  1.5500000000000D+00  0.0000000000000D+00  0.0000000000000D+00
157  1.5600000000000D+00  0.0000000000000D+00  0.0000000000000D+00
158  1.5700000000000D+00  0.0000000000000D+00  0.0000000000000D+00
159  1.5800000000000D+00  0.0000000000000D+00  0.0000000000000D+00
160  1.5900000000000D+00  0.0000000000000D+00  0.0000000000000D+00
161  1.6000000000000D+00  0.0000000000000D+00  0.0000000000000D+00
162  1.6100000000000D+00  0.0000000000000D+00  0.0000000000000D+00
163  1.6200000000000D+00  0.0000000000000D+00  0.0000000000000D+00
164  1.6300000000000D+00  0.0000000000000D+00  0.0000000000000D+00
165  1.6400000000000D+00  0.0000000000000D+00  0.0000000000000D+00
166  1.6500000000000D+00  0.0000000000000D+00  0.0000000000000D+00
167  1.6600000000000D+00  0.0000000000000D+00  0.0000000000000D+00
168  1.6700000000000D+00  0.0000000000000D+00  0.0000000000000D+00
169  1.6800000000000D+00  0.0000000000000D+00  0.0000000000000D+00
170  1.6900000000000D+00  0.0000000000000D+00  0.0000000000000D+00
171  1.7000000000000D+00  0.0000000000000D+00  0.0000000000000D+00
172  1.7100000000000D+00  0.0000000000000D+00  0.0000000000000D+00
173  1.7200000000000D+00  0.0000000000000D+00  0.0000000000000D+00
174  1.7300000000000D+00  0.0000000000000D+00  0.0000000000000D+00
175  1.7400000000000D+00  0.0000000000000D+00  0.0000000000000D+00
176  1.7500000000000D+00  0.0000000000000D+00  0.0000000000000D+00
177  1.7600000000000D+00  0.0000000000000D+00  0.0000000000000D+00
178  1.7700000000000D+00  0.0000000000000D+00  0.0000000000000D+00
179  1.7800000000000D+00  0.0000000000000D+00  0.0000000000000D+00
180  1.7900000000000D+00  0.0000000000000D+00  0.0000000000000D+00
181  1.8000000000000D+00  0.0000000000000D+00  0.0000000000000D+00
182  1.8100000000000D+00  0.0000000000000D+00  0.0000000000000D+00
183  1.8200000000000D+00  0.0000000000000D+00  0.0000000000000D+00
184  1.8300000000000D+00  0.0000000000000D+00  0.0000000000000D+00
185  1.8400000000000D+00  0.0000000000000D+00  0.0000000000000D+00
186  1.8500000000000D+00  0.0000000000000D+00  0.0000000000000D+00
187  1.8600000000000D+00  0.0000000000000D+00  0.0000000000000D+00
188  1.8700000000000D+00  0.0000000000000D+00  0.0000000000000D+00
189  1.8800000000000D+00  0.0000000000000D+00  0.0000000000000D+00
190  1.8900000000000D+00  0.0000000000000D+00  0.0000000000000D+00
191  1.9000000000000D+00  0.0000000000000D+00  0.0000000000000D+00
192  1.9100000000000D+00  0.0000000000000D+00  0.0000000000000D+00
193  1.9200000000000D+00  0.0000000000000D+00  0.0000000000000D+00
194  1.9300000000000D+00  0.0000000000000D+00  0.0000000000000D+00
195  1.9400000000000D+00  0.0000000000000D+00  0.0000000000000D+00
196  1.9500000000000D+00  0.0000000000000D+00  0.0000000000000D+00
197  1.9600000000000D+00  0.0000000000000D+00  0.0000000000000D+00
198  1.9700000000000D+00  0.0000000000000D+00  0.0000000000000D+00
199  1.9800000000000D+00  0.0000000000000D+00  0.0000000000000D+00
200  1.9900000000000D+00  0.0000000000000D+00  0.0000000000000D+00
201  2.0000000000000D+00  0.0000000000000D+00  0.0000000000000D+00
202  2.0100000000000D+00  0.0000000000000D+00  0.0000000000000D+00
203  2.0200000000000D+00  0.0000000000000D+00  0.0000000000000D+00
204  2.0300000000000D+00  0.0000000000000D+00  0.0000000000000D+00
205  2.0400000000000D+00  0.0000000000000D+00  0.0000000000000D+00
206  2.0500000000000D+00  0.0000000000000D+00  0.0000000000000D+00
207  2.0600000000000D+00  0.0000000000000D+00  0.0000000000000D+00
208  2.0700000000000D+00  0.0000000000000D+00  0.0000000000000D+00
209  2.0800000000000D+00  0.0000000000000D+00  0.0000000000000D+00
210  2.0900000000000D+00  0.0000000000000D+00  0.0000000000000D+00
211  2.1000000000000D+00  0.0000000000000D+00  0.0000000000000D+00
212  2.1100000000000D+00  0.0000000000000D+00  0.0000000000000D+00
213  2.1200000000000D+00  0.0000000000000D+00  0.0000000000000D+00
214  2.1300000000000D+00  0.0000000000000D+00  0.0000000000000D+00
215  2.1400000000000D+00  0.0000000000000D+00  0.0000000000000D+00
216  2.1500000000000D+00  0.0000000000000D+00  0.0000000000000D+00
217  2.1600000000000D+00  0.0000000000000D+00  0.0000000000000D+00
218  2.1700000000000D+00  0.0000000000000D+00  0.0000000000000D+00
219  2.1800000000000D+00  0.0000000000000D+00  0.0000000000000D+00
220  2.1900000000000D+00  0.0000000000000D+00  0.0000000000000D+00
221  2.2000000000000D+00  0.0000000000000D+00  0.0000000000000D+00
222  2.2100000000000D+00  0.0000000000000D+00  0.0000000000000D+00
223  2.2200000000000D+00  0.0000000000000D+00  0.0000000000000D+00
224  2.2300000000000D+00  0.0000000000000D+00  0.0000000000000D+00
225  2.2400000000000D+00  0.0000000000000D+00  0.0000000000000D+00
226  2.2500000000000D+00  0.0000000000000D+00  0.0000000000000D+00
227  2.2600000000000D+00  0.0000000000000D+00  0.0000000000000D+00
228  2.2700000000000D+00  0.0000000000000D+00  0.0000000000000D+00
229  2.2800000000000D+00  0.0000000000000D+00  0.0000000000000D+00
230  2.2900000000000D+00  0.0000000000000D+00  0.0000000000000D+00
231  2.3000000000000D+00  0.0000000000000D+00  0.0000000000000D+00
232  2.3100000000000D+00  0.0000000000000D+00  0.0000000000000D+00
233  2.3200000000000D+00  0.0000000000000D+00  0.0000000000000D+00
234  2.3300000000000D+00  0.0000000000000D+00  0.0000000000000D+00
235  2.3400000000000D+00  0.0000000000000D+00  0.0000000000000D+00
236  2.3500000000000D+00  0.0000000000000D+00  0.0000000000000D+00
237  2.3600000000000D+00  0.0000000000000D+00  0.0000000000000D+00
238  2.3700000000000D+00  0.0000000000000D+00  0.0000000000000D+00
239  2.3800000000000D+00  0.0000000000000D+00  0.0000000000000D+00
240  2.3900000000000D+00  0.0000000000000D+00  0.0000000000000D+00
241  2.4000000000000D+00  0.0000000000000D+00  0.0000000000000D+00
242  2.4100000000000D+00  0.0000000000000D+00  0.0000000000000D+00
243  2.4200000000000D+00  0.0000000000000D+00  0.0000000000000D+00
244  2.4300000000000D+00  0.0000000000000D+00  0.0000000000000D+00
245  2.4400000000000D+00  0.0000000000000D+00  0.0000000000000D+00
246  2.4500000000000D+00  0.0000000000000D+00  0.0000000000000D+00
247  2.4600000000000D+00  0.0000000000000D+00  0.0000000000000D+00
248  2.4700000000000D+00  0.0000000000000D+00  0.0000000000000D+00
249  2.4800000000000D+00  0.0000000000000D+00  0.0000000000000D+00
250  2.4900000000000D+00  0.0000000000000D+00  0.0000000000000D+00
251  2.5000000000000D+00  0.0000000000000D+00  0.0000000000000D+00
252  2.5100000000000D+00  0.0000000000000D+00  0.0000000000000D+00
253  2.5200000000000D+00  0.0000000000000D+00  0.0000000000000D+00
254  2.5300000000000D+00  0.0000000000000D+00  0.0000000000000D+00
255  2.5400000000000D+00  0.0000000000000D+00  0.0000000000000D+00
256  2.5500000000000D+00  0.0000000000000D+00  0.0000000000000D+00
257  2.5600000000000D+00  0.0000000000000D+00  0.0000000000000D+00
258  2.5700000000000D+00  0.0000000000000D+00  0.0000000000000D+00
259  2.5800000000000D+00  0.0000000000000D+00  0.0000000000000D+00
260  2.5900000000000D+00  0.0000000000000D+00  0.0000000000000D+00
261  2.6000000000000D+00  0.0000000000000D+00  0.0000000000000D+00
262  2.6100000000000D+00  0.0000000000000D+00  0.0000000000000D+00
263  2.6200000000000D+00  0.0000000000000D+00  0.0000000000000D+00
264  2.6300000000000D+00  0.0000000000000D+00  0.0000000000000D+00
265  2.6400000000000D+00  0.0000000000000D+00  0.0000000000000D+00
266  2.6500000000000D+00  0.0000000000000D+00  0.0000000000000D+00
267  2.6600000000000D+00  0.0000000000000D+00  0.0000000000000D+00
268  2.6700000000000D+00  0.0000000000000D+00  0.0000000000000D+00
269  2.6800000000000D+00  0.0000000000000D+00  0.0000000000000D+00
270  2.6900000000000D+00  0.0000000000000D+00  0.0000000000000D+00
271  2.7000000000000D+00  0.0000000000000D+00  0.0000000000000D+00
272  2.7100000000000D+00  0.0000000000000D+00  0.0000000000000D+00
273  2.7200000000000D+00  0.0000000000000D+00  0.0000000000000D+00
274  2.7300000000000D+00  0.0000000000000D+00  0.0000000000000D+00
275  2.7400000000000D+00  0.0000000000000D+00  0.0000000000000D+00
276  2.7500000000000D+00  0.0000000000000D+00  0.0000000000000D+00
277  2.7600000000000D+00  0.0000000000000D+00  0.0000000000000D+00
278  2.7700000000000D+00  0.0000000000000D+00  0.0000000000000D+00
279  2.7800000000000D+00  0.0000000000000D+00  0.0000000000000D+00
280  2.7900000000000D+00  0.0000000000000D+00  0.0000000000000D+00
281  2.8000000000000D+00  0.0000000000000D+00  0.0000000000000D+00
282  2.8100000000000D+00  0.0000000000000D+00  0.0000000000000D+00
283  2.8200000000000D+00  0.0000000000000D+00  0.0000000000000D+00
284  2.8300000000000D+00  0.0000000000000D+00  0.0000000000000D+00
285  2.8400000000000D+00  0.0000000000000D+00  0.0000000000000D+00
286  2.8500000000000D+00  0.0000000000000D+00  0.0000000000000D+00
287  2.8600000000000D+00  0.0000000000000D+00  0.0000000000000D+00
288  2.8700000000000D+00  0.0000000000000D+00  0.0000000000000D+00
289  2.8800000000000D+00  0.0000000000000D+00  0.0000000000000D+00
290  2.8900000000000D+00  0.0000000000000D+00  0.0000000000000D+00
291  2.9000000000000D+00  0.0000000000000D+00  0.0000000000000D+00
292  2.9100000000000D+00  0.0000000000000D+00  0.0000000000000D+00
293  2.9200000000000D+00  0.0000000000000D+00  0.0000000000000D+00
294  2.9300000000000D+00  0.0000000000000D+00  0.0000000000000D+00
295  2.9400000000000D+00  0.0000000000000D+00  0.0000000000000D+00
296  2.9500000000000D+00  0.0000000000000D+00  0.0000000000000D+00
297  2.9600000000000D+00  0.0000000000000D+00  0.0000000000000D+00
298  2.9700000000000D+00  0.0000000000000D+00  0.0000000000000D+00
299  2.9800000000000D+00  0.0000000000000D+00  0.0000000000000D+00
300  2.9900000000000D+00  0.0000000000000D+00  0.0000000000000D+00
301  3.0000000000000D+00  0.0000000000000D+00  0.0000000000000D+00
302  3.0100000000000D+00  0.0000000000000D+00  0.0000000000000D+00
303  3.0200000000000D+00  0.0000000000000D+00  0.0000000000000D+00
304  3.0300000000000D+00  0.0000000000000D+00  0.0000000000000D+00
305  3.0400000000000D+00  0.0000000000000D+00  0.0000000000000D+00
306  3.0500000000000D+00  0.0000000000000D+00  0.0000000000000D+00
307  3.0600000000000D+00  0.0000000000000D+00  0.0000000000000D+00
308  3.0700000000000D+00  0.0000000000000D+00  0.0000000000000D+00
309  3.0800000000000D+00  0.0000000000000D+00  0.0000000000000D+00
310  3.0900000000000D+00  0.0000000000000D+00  0.0000000000000D+00
311  3.1000000000000D+00  0.0000000000000D+00  0.0000000000000D+00
312  3.1100000000000D+00  0.0000000000000D+00  0.0000000000000D+00
313  3.1200000000000D+00  0.0000000000000D+00  0.0000000000000D+00
314  3.1300000000000D+00  0.0000000000000D+00  0.0000000000000D+00
315  3.1400000000000D+00  0.0000000000000D+00  0.0000000000000D+00
316  3.1500000000000D+00  0.0000000000000D+00  0.0000000000000D+00
317  3.1600000000000D+00  0.0000000000000D+00  0.0000000000000D+00
318  3.1700000000000D+00  0.0000000000000D+00  0.0000000000000D+00
319  3.1800000000000D+00  0.0000000000000D+00  0.0000000000000D+00
320  3.1900000000000D+00  0.0000000000000D+00  0.0000000000000D+00
321  3.2000000000000D+00  0.0000000000000D+00  0.0000000000000D+00
322  3.2100000000000D+00  0.0000000000000D+00  0.0000000000000D+00
323  3.2200000000000D+00  0.0000000000000D+00  0.0000000000000D+00
324  3.2300000000000D+00  0.0000000000000D+00  0.0000000000000D+00
325  3.2400000000000D+00  0.0000000000000D+00  0.0000000000000D+00
326  3.2500000000000D+00  0.0000000000000D+00  0.0000000000000D+00
327  3.2600000000000D+00  0.0000000000000D+00  0.0000000000000D+00
328  3.2700000000000D+00  0.0000000000000D+00  0.0000000000000D+00
329  3.2800000000000D+00  0.0000000000000D+00  0.0000000000000D+00
330  3.2900000000000D+00  0.0000000000000D+00  0.0000000000000D+00
331  3.3000000000000D+00  0.0000000000000D+00  0.0000000000000D+00
332  3.3100000000000D+00  0.0000000000000D+00  0.0000000000000D+00
333  3.3200000000000D+00  0.0000000000000D+00  0.0000000000000D+00
334  3.3300000000000D+00  0.0000000000000D+00  0.0000000000000D+00
335  3.3400000000000D+00  0.0000000000000D+00  0.0000000000000D+00
336  3.3500000000000D+00  0.0000000000000D+00  0.0000000000000D+00
337  3.3600000000000D+00  0.0000000000000D+00  0.0000000000000D+00
338  3.3700000000000D+00  0.0000000000000D+00  0.0000000000000D+00
339  3.3800000000000D+00  0.0000000000000D+00  0.0000000000000D+00
340  3.3900000000000D+00  0.0000000000000D+00  0.0000000000000D+00
341  3.4000000000000D+00  0.0000000000000D+00  0.0000000000000D+00
342  3.4100000000000D+00  0.0000000000000D+00  0.0000000000000D+00
343  3.4200000000000D+00  0.0000000000000D+00  0.0000000000000D+00
344  3.4300000000000D+00  0.0000000000000D+00  0.0000000000000D+00
345  3.4400000000000D+00  0.0000000000000D+00  0.0000000000000D+00
346  3.4500000000000D+00  0.0000000000000D+00  0.0000000000000D+00
347  3.4600000000000D+00  0.0000000000000D+00  0.0000000000000D+00
348  3.4700000000000D+00  0.0000000000000D+00  0.0000000000000D+00
349  3.4800000000000D+00  0.0000000000000D+00  0.0000000000000D+00
350  3.4900000000000D+00  0.0000000000000D+00  0.0000000000000D+00
351  3.5000000000000D+00  0.0000000000000D+00  0.0000000000000D+00
352  3.5100000000000D+00  0.0000000000000D+00  0.0000000000000D+00
353  3.5200000000000D+00  0.0000000000000D+00  0.0000000000000D+00
354  3.5300000000000D+00  0.0000000000000D+00  0.0000000000000D+00
355  3.5400000000000D+00  0.0000000000000D+00  0.0000000000000D+00
356  3.5500000000000D+00  0.0000000000000D+00  0.0000000000000D+00
357  3.5600000000000D+00  0.0000000000000D+00  0.0000000000000D+00
358  3.5700000000000D+00  0.0000000000000D+00  0.0000000000000D+00
359  3.5800000000000D+00  0.0000000000000D+00  0.0000000000000D+00
360  3.5900000000000D+00  0.0000000000000D+00  0.0000000000000D+00
361  3.6000000000000D+00  0.0000000000000D+00  0.0000000000000D+00
362  3.6100000000000D+00  0.0000000000000D+00  0.0000000000000D+00
363  3.6200000000000D+00  0.0000000000000D+00  0.0000000000000D+00
364  3.6300000000000D+00  0.0000000000000D+00  0.0000000000000D+00
365  3.6400000000000D+00  0.0000000000000D+00  0.0000000000000D+00
366  3.6500000000000D+00  0.0000000000000D+00  0.0000000000000D+00
367  3.6600000000000D+00  0.0000000000000D+00  0.0000000000000D+00
368  3.6700000000000D+00  0.0000000000000D+00  0.0000000000000D+00
369  3.6800000000000D+00  0.0000000000000D+00  0.0000000000000D+00
370  3.6900000000000D+00  0.0000000000000D+00  0.0000000000000D+00
371  3.7000000000000D+00  0.0000000000000D+00  0.0000000000000D+00
372  3.7100000000000D+00  0.0000000000000D+00  0.0000000000000D+00
373  3.7200000000000D+00  0.0000000000000D+00  0.0000000000000D+00
374  3.7300000000000D+00  0.0000000000000D+00  0.0000000000000D+00
375  3.7400000000000D+00  0.0000000000000D+00  0.0000000000000D+00
376  3.7500000000000D+00  0.0000000000000D+00  0.0000000000000D+00
377  3.7600000000000D+00  0.0000000000000D+00  0.0000000000000D+00
378  3.7700000000000D+00  0.0000000000000D+00  0.0000000000000D+00
379  3.7800000000000D+00  0.0000000000000D+00  0.0000000000000D+00
380  3.7900000000000D+00  0.0000000000000D+00  0.0000000000000D+00
381  3.8000000000000D+00  0.0000000000000D+00  0.0000000000000D+00
382  3.8100000000000D+00  0.0000000000000D+00  0.0000000000000D+00
383  3.8200000000000D+00  0.0000000000000D+00  0.0000000000000D+00
384  3.8300000000000D+00  0.0000000000000D+00  0.0000000000000D+00
385  3.8400000000000D+00  0.0000000000000D+00  0.0000000000000D+00
386  3.8500000000000D+00  0.0000000000000D+00  0.0000000000000D+00
387  3.8600000000000D+00  0.0000000000000D+00  0.0000000000000D+00
388  3.8700000000000D+00  0.0000000000000D+00  0.0000000000000D+00
389  3.8800000000000D+00  0.0000000000000D+00  0.0000000000000D+00
390  3.8900000000000D+00  0.0000000000000D+00  0.0000000000000D+00
391  3.9000000000000D+00  0.0000000000000D+00  0.0000000000000D+00
392  3.9100000000000D+00  0.0000000000000D+00  0.0000000000000D+00
393  3.9200000000000D+00  0.0000000000000D+00  0.0000000000000D+00
394  3.9300000000000D+00  0.0000000000000D+00  0.0000000000000D+00
395  3.9400000000000D+00  0.0000000000000D+00  0.0000000000000D+00
396  3.9500000000000D+00  0.0000000000000D+00  0.0000000000000D+00
397  3.9600000000000D+00  0.0000000000000D+00  0.0000000000000D+00
398  3.9700000000000D+00  0.0000000000000D+00  0.0000000000000D+00
399  3.9800000000000D+00  0.0000000000000D+00  0.0000000000000D+00
400  3.9900000000000D+00  0.0000000000000D+00  0.0000000000000D+00
1                        -6.6826085475661D+00 -2.6835871148164D+00
1  0.0000000000000D+00 -1.6147497228225D-10  1.7967739102120D-10
2  1.0000000000000D-02  1.9851546767867D-03 -7.3458448786084D-04
3  2.0000000000000D-02  7.9320791723989D-03 -2.9322651821503D-03
4  3.0000000000000D-02  1.7815179205612D-02 -6.5748456760024D-03
5  4.0000000000000D-02  3.1591878826092D-02 -1.1632071750085D-02
6  5.0000000000000D-02  4.9202742567385D-02 -1.8061741483852D-02
7  6.0000000000000D-02  7.0571647199414D-02 -2.5809860242680D-02
8  7.0000000000000D-02  9.5606003789671D-02 -3.4810841338294D-02
9  8.0000000000000D-02  1.2419703094379D-01 -4.4987753339509D-02
10  9.0000000000000D-02  1.5622008022777D-01 -5.6252615155173D-02
11  1.0000000000000D-01  1.9153501487015D-01 -6.8506740114423D-02
12  1.1000000000000D-01  2.2998664289751D-01 -8.1641130325078D-02
13  1.2000000000000D-01  2.7140520586688D-01 -9.5536922594378D-02
14  1.3000000000000D-01  3.1560692431963D-01 -1.1006588714258D-01
15  1.4000000000000D-01  3.6239460099070D-01 -1.2509098022646D-01
16  1.5000000000000D-01  4.1155828266202D-01 -1.4046695161398D-01
17  1.6000000000000D-01  4.6287598134935D-01 -1.5604100761184D-01
18  1.7000000000000D-01  5.1611445525591D-01 -1.7165353004532D-01
19  1.8000000000000D-01  5.7103004961608D-01 -1.8713885122428D-01
20  1.9000000000000D-01  6.2736959718879D-01 -2.0232608450422D-01
21  2.0000000000000D-01  6.8487137774601D-01 -2.1704000956923D-01
22  2.1000000000000D-01  7.4326613544032D-01 -2.3110201102937D-01
23  2.2000000000000D-01  8.0227815243117D-01 -2.4433106834404D-01
24  2.3000000000000D-01  8.6162637660770D-01 -2.5654479446169D-01
25  2.4000000000000D-01  9.2102560067223D-01 -2.6756051991241D-01
26  2.5000000000000D-01  9.8018768925028D-01 -2.7719641841147D-01
27  2.6000000000000D-01  1.0388228500770D+00 -2.8527266933839D-01
28  2.7000000000000D-01  1.0966409446839D+00 -2.9161265175674D-01
29  2.8000000000000D-01  1.1533528333843D+00 -2.9604416394497D-01
30  2.9000000000000D-01  1.2086717487340D+00 -2.9840066172872D-01
31  3.0000000000000D-01  1.2623146910433D+00 -2.9852250825131D-01
32  3.1000000000000D-01  1.3140038389383D+00 -2.9625822720123D-01
33  3.2000000000000D-01  1.3634679674250D+00 -2.9146575094575D-01
34  3.3000000000000D-01  1.4104438654115D+00 -2.8401365450739D-01
35  3.4000000000000D-01  1.4546777441967D+00 -2.7378236587584D-01
36  3.5000000000000D-01  1.4959266280447D+00 -2.6066534278136D-01
37  3.6000000000000D-01  1.5339597176471D+00 -2.4457020577531D-01
38  3.7000000000000D-01  1.5685597170307D+00 -2.2541981727845D-01
39  3.8000000000000D-01  1.5995241143065D+00 -2.0315329617313D-01
40  3.9000000000000D-01  1.6266664065809D+00 -1.7772695753987D-01
41  4.0000000000000D-01  1.6498172593683D+00 -1.4911516727487D-01
42  4.1000000000000D-01  1.6688255909565D+00 -1.1731110157774D-01
43  4.2000000000000D-01  1.6835595723884D+00 -8.2327401669137D-02