Nd    ONCVPSP-3.2.3  r_core=   2.10908   1.91712   1.91712   2.52232
60.0000     11.0000      170419    zatom,zion,pspd
8      11   3     4   600     0    pspcod,pspxc,lmax,lloc,mmax,r2well
5.99000000  0.25000000  0.00000000    rchrg fchrg qchrg
2     2     2     1     0    nproj
1     1           extension_switch
0                         5.9162175654411D+00  7.1256962235355D-01
1  0.0000000000000D+00 -9.3646868037922D-11  2.5478154308534D-10
2  1.0000000000000D-02  4.6097044916635D-02 -1.6943247907905D-02
3  2.0000000000000D-02  9.2096977142908D-02 -3.3722880151566D-02
4  3.0000000000000D-02  1.3790318254450D-01 -5.0176502494474D-02
5  4.0000000000000D-02  1.8342004072088D-01 -6.6144154570877D-02
6  5.0000000000000D-02  2.2855341345014D-01 -8.1469504424260D-02
7  6.0000000000000D-02  2.7321112309419D-01 -9.6001016350713D-02
8  7.0000000000000D-02  3.1730341772787D-01 -1.0959308344941D-01
9  8.0000000000000D-02  3.6074341984979D-01 -1.2210711653719D-01
10  9.0000000000000D-02  4.0344755564818D-01 -1.3341258139948D-01
11  1.0000000000000D-01  4.4533596193231D-01 -1.4338797672259D-01
12  1.1000000000000D-01  4.8633286799754D-01 -1.5192174548127D-01
13  1.2000000000000D-01  5.2636694986900D-01 -1.5891311303546D-01
14  1.3000000000000D-01  5.6537165456332D-01 -1.6427284572005D-01
15  1.4000000000000D-01  6.0328549221941D-01 -1.6792392428540D-01
16  1.5000000000000D-01  6.4005229417577D-01 -1.6980212716192D-01
17  1.6000000000000D-01  6.7562143531135D-01 -1.6985651917323D-01
18  1.7000000000000D-01  7.0994801921918D-01 -1.6804984200610D-01
19  1.8000000000000D-01  7.4299302504312D-01 -1.6435880345521D-01
20  1.9000000000000D-01  7.7472341507833D-01 -1.5877426319306D-01
21  2.0000000000000D-01  8.0511220251177D-01 -1.5130131356350D-01
22  2.1000000000000D-01  8.3413847895949D-01 -1.4195925465704D-01
23  2.2000000000000D-01  8.6178740173995D-01 -1.3078146369147D-01
24  2.3000000000000D-01  8.8805014110558D-01 -1.1781515948668D-01
25  2.4000000000000D-01  9.1292378793574D-01 -1.0312106358310D-01
26  2.5000000000000D-01  9.3641122267184D-01 -8.6772960302662D-02
27  2.6000000000000D-01  9.5852094654726D-01 -6.8857158784810D-02
28  2.7000000000000D-01  9.7926687642856D-01 -4.9471860742819D-02
29  2.8000000000000D-01  9.9866810483991D-01 -2.8726438371420D-02
30  2.9000000000000D-01  1.0167486269857D+00 -6.7406274918672D-03
31  3.0000000000000D-01  1.0335370368172D+00  1.6356358360132D-02
32  3.1000000000000D-01  1.0490661944061D+00  4.0426786619688D-02
33  3.2000000000000D-01  1.0633728670861D+00  6.5325430332361D-02
34  3.3000000000000D-01  1.0764973470087D+00  9.0900651442896D-02
35  3.4000000000000D-01  1.0884830479216D+00  1.1699553499316D-01
36  3.5000000000000D-01  1.0993760841238D+00  1.4344906610872D-01
37  3.6000000000000D-01  1.1092248346739D+00  1.7009734133080D-01
38  3.7000000000000D-01  1.1180794960302D+00  1.9677480558679D-01
39  3.8000000000000D-01  1.1259916263804D+00  2.2331550589062D-01
40  3.9000000000000D-01  1.1330136849773D+00  2.4955435272518D-01
41  4.0000000000000D-01  1.1391985698258D+00  2.7532837998355D-01
42  4.1000000000000D-01  1.1445991570807D+00  3.0047799433515D-01
43  4.2000000000000D-01  1.1492678454998D+00  3.2484820493600D-01
44  4.3000000000000D-01  1.1532561092571D+00  3.4828982452033D-01
45  4.4000000000000D-01  1.1566140623657D+00  3.7066063309098D-01
46  4.5000000000000D-01  1.1593900378714D+00  3.9182649566945D-01
47  4.6000000000000D-01  1.1616301848776D+00  4.1166242586870D-01
48  4.7000000000000D-01  1.1633780863338D+00  4.3005358741369D-01
49  4.8000000000000D-01  1.1646744003715D+00  4.4689622615105D-01
50  4.9000000000000D-01  1.1655565278096D+00  4.6209852555906D-01
51  5.0000000000000D-01  1.1660583082607D+00  4.7558137928819D-01
52  5.1000000000000D-01  1.1662097470748D+00  4.8727907482756D-01
53  5.2000000000000D-01  1.1660367751336D+00  4.9713988299964D-01
54  5.3000000000000D-01  1.1655610432819D+00  5.0512654863080D-01
55  5.4000000000000D-01  1.1647997529372D+00  5.1121667842294D-01
56  5.5000000000000D-01  1.1637655241634D+00  5.1540302275945D-01
57  5.6000000000000D-01  1.1624663022320D+00  5.1769364890895D-01
58  5.7000000000000D-01  1.1609053034241D+00  5.1811200384055D-01
59  5.8000000000000D-01  1.1590810005477D+00  5.1669686562798D-01
60  5.9000000000000D-01  1.1569871483681D+00  5.1350218319190D-01
61  6.0000000000000D-01  1.1546128488660D+00  5.0859680490551D-01
62  6.1000000000000D-01  1.1519426559576D+00  5.0206409736183D-01
63  6.2000000000000D-01  1.1489567190321D+00  4.9400145636706D-01
64  6.3000000000000D-01  1.1456309643868D+00  4.8451971297929D-01
65  6.4000000000000D-01  1.1419373133732D+00  4.7374243814559D-01
66  6.5000000000000D-01  1.1378439358038D+00  4.6180515020710D-01
67  6.6000000000000D-01  1.1333155369197D+00  4.4885443022638D-01
68  6.7000000000000D-01  1.1283136759800D+00  4.3504695074417D-01
69  6.8000000000000D-01  1.1227971143030D+00  4.2054842419340D-01
70  6.9000000000000D-01  1.1167221903813D+00  4.0553247777314D-01
71  7.0000000000000D-01  1.1100432194907D+00  3.9017946211771D-01
72  7.1000000000000D-01  1.1027129150380D+00  3.7467520158143D-01
73  7.2000000000000D-01  1.0946828287267D+00  3.5920969439181D-01
74  7.3000000000000D-01  1.0859038064801D+00  3.4397577130225D-01
75  7.4000000000000D-01  1.0763264569394D+00  3.2916772169743D-01
76  7.5000000000000D-01  1.0659016292525D+00  3.1497989636602D-01
77  7.6000000000000D-01  1.0545808967922D+00  3.0160529635743D-01
78  7.7000000000000D-01  1.0423170433846D+00  2.8923415747793D-01
79  7.8000000000000D-01  1.0290645485978D+00  2.7805254005706D-01
80  7.9000000000000D-01  1.0147800686270D+00  2.6824093362666D-01
81  8.0000000000000D-01  9.9942290932819D-01  2.5997288610241D-01
82  8.1000000000000D-01  9.8295548798752D-01  2.5341366694101D-01
83  8.2000000000000D-01  9.6534378047137D-01  2.4871897356646D-01
84  8.3000000000000D-01  9.4655775048507D-01  2.4603369011674D-01
85  8.4000000000000D-01  9.2657175777063D-01  2.4549070725951D-01
86  8.5000000000000D-01  9.0536494219913D-01  2.4720981146387D-01
87  8.6000000000000D-01  8.8292158085873D-01  2.5129665169676D-01
88  8.7000000000000D-01  8.5923141540436D-01  2.5784179104055D-01
89  8.8000000000000D-01  8.3428994711914D-01  2.6691985020481D-01
90  8.9000000000000D-01  8.0809869733852D-01  2.7858874933454D-01
91  9.0000000000000D-01  7.8066543110609D-01  2.9288905390117D-01
92  9.1000000000000D-01  7.5200434216188D-01  3.0984342980780D-01
93  9.2000000000000D-01  7.2213619761018D-01  3.2945621214782D-01
94  9.3000000000000D-01  6.9108844087081D-01  3.5171309133290D-01
95  9.4000000000000D-01  6.5889525178623D-01  3.7658091955528D-01
96  9.5000000000000D-01  6.2559756303233D-01  4.0400763977629D-01
97  9.6000000000000D-01  5.9124303226398D-01  4.3392233864246D-01
98  9.7000000000000D-01  5.5588596971345D-01  4.6623542392917D-01
99  9.8000000000000D-01  5.1958722125478D-01  5.0083892628938D-01
100  9.9000000000000D-01  4.8241400722927D-01  5.3760692430038D-01
101  1.0000000000000D+00  4.4443971763059D-01  5.7639609095847D-01
102  1.0100000000000D+00  4.0574366452925D-01  6.1704635899057D-01
103  1.0200000000000D+00  3.6641079290277D-01  6.5938170155875D-01
104  1.0300000000000D+00  3.2653135131516D-01  7.0321102416518D-01
105  1.0400000000000D+00  2.8620052416318D-01  7.4832916280998D-01
106  1.0500000000000D+00  2.4551802746115D-01  7.9451798275255D-01
107  1.0600000000000D+00  2.0458767038554D-01  8.4154757154068D-01
108  1.0700000000000D+00  1.6351688504440D-01  8.8917751930221D-01
109  1.0800000000000D+00  1.2241622714718D-01  9.3715827871801D-01
110  1.0900000000000D+00  8.1398850464231D-02  9.8523259651037D-01
111  1.1000000000000D+00  4.0579958142467D-02  1.0331370077997D+00
112  1.1100000000000D+00  7.6234117635354D-05  1.0806033842100D+00
113  1.1200000000000D+00 -3.9994741983046D-02  1.1273605261909D+00
114  1.1300000000000D+00 -7.9515092934742D-02  1.1731357897040D+00
115  1.1400000000000D+00 -1.1836725138442D-01  1.2176567371376D+00
116  1.1500000000000D+00 -1.5643457299587D-01  1.2606528021058D+00
117  1.1600000000000D+00 -1.9360195149831D-01  1.3018569576049D+00
118  1.1700000000000D+00 -2.2975643184581D-01  1.3410073769579D+00
119  1.1800000000000D+00 -2.6478781768104D-01  1.3778490769550D+00
120  1.1900000000000D+00 -2.9858926929708D-01  1.4121355326115D+00
121  1.2000000000000D+00 -3.3105788833950D-01  1.4436302531222D+00
122  1.2100000000000D+00 -3.6209528557404D-01  1.4721083088366D+00
123  1.2200000000000D+00 -3.9160812806880D-01  1.4973577991532D+00
124  1.2300000000000D+00 -4.1950866231058D-01  1.5191812517358D+00
125  1.2400000000000D+00 -4.4571520990897D-01  1.5373969438361D+00
126  1.2500000000000D+00 -4.7015263263350D-01  1.5518401367749D+00
127  1.2600000000000D+00 -4.9275276374567D-01  1.5623642152570D+00
128  1.2700000000000D+00 -5.1345480284522D-01  1.5688417239302D+00
129  1.2800000000000D+00 -5.3220567154392D-01  1.5711652938623D+00
130  1.2900000000000D+00 -5.4896032755490D-01  1.5692484523992D+00
131  1.3000000000000D+00 -5.6368203517859D-01  1.5630263109743D+00
132  1.3100000000000D+00 -5.7634259017997D-01  1.5524561254795D+00
133  1.3200000000000D+00 -5.8692249746698D-01  1.5375177249869D+00
134  1.3300000000000D+00 -5.9541110044968D-01  1.5182138059253D+00
135  1.3400000000000D+00 -6.0180666079582D-01  1.4945700883610D+00
136  1.3500000000000D+00 -6.0611638804720D-01  1.4666353331383D+00
137  1.3600000000000D+00 -6.0835641886309D-01  1.4344812194778D+00
138  1.3700000000000D+00 -6.0855174539330D-01  1.3982020818945D+00
139  1.3800000000000D+00 -6.0673609352582D-01  1.3579145087809D+00
140  1.3900000000000D+00 -6.0295175132495D-01  1.3137568037920D+00
141  1.4000000000000D+00 -5.9724934844418D-01  1.2658883124879D+00
142  1.4100000000000D+00 -5.8968758818704D-01  1.2144886191611D+00
143  1.4200000000000D+00 -5.8033293307781D-01  1.1597566165218D+00
144  1.4300000000000D+00 -5.6925924632817D-01  1.1019094551548D+00
145  1.4400000000000D+00 -5.5654739104166D-01  1.0411813781437D+00
146  1.4500000000000D+00 -5.4228478936583D-01  9.7782244729169D-01
147  1.4600000000000D+00 -5.2656494477349D-01  9.1209717004304D-01
148  1.4700000000000D+00 -5.0948692955582D-01  8.4428303318588D-01
149  1.4800000000000D+00 -4.9115484142290D-01  7.7466895441223D-01
150  1.4900000000000D+00 -4.7167723191935D-01  7.0355365953445D-01
151  1.5000000000000D+00 -4.5116651044519D-01  6.3124399614515D-01
152  1.5100000000000D+00 -4.2973832748334D-01  5.5805319396034D-01
153  1.5200000000000D+00 -4.0751094065099D-01  4.8429908216895D-01
154  1.5300000000000D+00 -3.8460456774371D-01  4.1030227554270D-01
155  1.5400000000000D+00 -3.6114073042589D-01  3.3638433974908D-01
156  1.5500000000000D+00 -3.3724159285692D-01  2.6286594790221D-01
157  1.5600000000000D+00 -3.1302929913927D-01  1.9006503941895D-01
158  1.5700000000000D+00 -2.8862531371793D-01  1.1829499275778D-01
159  1.5800000000000D+00 -2.6414976870902D-01  4.7862823298888D-02
160  1.5900000000000D+00 -2.3972082220409D-01 -2.0932582278687D-02
161  1.6000000000000D+00 -2.1545403123123D-01 -8.7802184772032D-02
162  1.6100000000000D+00 -1.9146174352317D-01 -1.5246845272063D-01
163  1.6200000000000D+00 -1.6785251106485D-01 -2.1466695587668D-01
164  1.6300000000000D+00 -1.4473052984832D-01 -2.7414787942643D-01
165  1.6400000000000D+00 -1.2219510773444D-01 -3.3067745375714D-01
166  1.6500000000000D+00 -1.0034016524540D-01 -3.8403928619690D-01
167  1.6600000000000D+00 -7.9253769837060D-02 -4.3403559337290D-01
168  1.6700000000000D+00 -5.9017708906736D-02 -4.8048831940463D-01
169  1.6800000000000D+00 -3.9707100574359D-02 -5.2324014286693D-01
170  1.6900000000000D+00 -2.1390047855421D-02 -5.6215535673129D-01
171  1.7000000000000D+00 -4.1273337335287D-03 -5.9712062854916D-01
172  1.7100000000000D+00  1.2027837077605D-02 -6.2804562462470D-01
173  1.7200000000000D+00  2.7030053560049D-02 -6.5486350934786D-01
174  1.7300000000000D+00  4.0841865374243D-02 -6.7753130391085D-01
175  1.7400000000000D+00  5.3433906334325D-02 -6.9603011855443D-01
176  1.7500000000000D+00  6.4784969381343D-02 -7.1036524439289D-01
177  1.7600000000000D+00  7.4882038537323D-02 -7.2056612048903D-01
178  1.7700000000000D+00  8.3720274095277D-02 -7.2668616578305D-01
179  1.7800000000000D+00  9.1302956404932D-02 -7.2880249117921D-01
180  1.7900000000000D+00  9.7641386457313D-02 -7.2701548691137D-01
181  1.8000000000000D+00  1.0275474775541D-01 -7.2144829801462D-01
182  1.8100000000000D+00  1.0666993029128D-01 -7.1224619041401D-01
183  1.8200000000000D+00  1.0942131956670D-01 -6.9957581608405D-01
184  1.8300000000000D+00  1.1105055454653D-01 -6.8362438842837D-01
185  1.8400000000000D+00  1.1160625555215D-01 -6.6459877091339D-01
186  1.8500000000000D+00  1.1114372944008D-01 -6.4272449991128D-01
187  1.8600000000000D+00  1.0972465973551D-01 -6.1824476591406D-01
188  1.8700000000000D+00  1.0741672442686D-01 -5.9141917352110D-01
189  1.8800000000000D+00  1.0429340583269D-01 -5.6252309434348D-01
190  1.8900000000000D+00  1.0043326083569D-01 -5.3184537312646D-01
191  1.9000000000000D+00  9.5919815917089D-02 -4.9968792236380D-01
192  1.9100000000000D+00  9.0841792034497D-02 -4.6636638087383D-01
193  1.9200000000000D+00  8.5292040256549D-02 -4.3220676716694D-01
194  1.9300000000000D+00  7.9365720965297D-02 -3.9753976528733D-01
195  1.9400000000000D+00  7.3158831448163D-02 -3.6269613407633D-01
196  1.9500000000000D+00  6.6766694361845D-02 -3.2800220571002D-01
197  1.9600000000000D+00  6.0281347475003D-02 -2.9377192349291D-01
198  1.9700000000000D+00  5.3791720419712D-02 -2.6030754731934D-01
199  1.9800000000000D+00  4.7383136134543D-02 -2.2789831953253D-01
200  1.9900000000000D+00  4.1136593123272D-02 -1.9681839743145D-01
201  2.0000000000000D+00  3.5128090732192D-02 -1.6732491142015D-01
202  2.0100000000000D+00  2.9428157568417D-02 -1.3965666104337D-01
203  2.0200000000000D+00  2.4101301164352D-02 -1.1403254904972D-01
204  2.0300000000000D+00  1.9205544300317D-02 -9.0650278407323D-02
205  2.0400000000000D+00  1.4794382563937D-02 -6.9696435635171D-02
206  2.0500000000000D+00  1.0908606959593D-02 -5.1308462910986D-02
207  2.0600000000000D+00  7.5774615864493D-03 -3.5580987509257D-02
208  2.0700000000000D+00  4.8190952443067D-03 -2.2570180362199D-02
209  2.0800000000000D+00  2.7047112409533D-03 -1.2588116034065D-02
210  2.0900000000000D+00  1.2729318145556D-03 -5.8034936517064D-03
211  2.1000000000000D+00  4.4889432615957D-04 -1.8859378650561D-03
212  2.1100000000000D+00  7.0488279897177D-05 -1.1142012692257D-04
213  2.1200000000000D+00 -4.1826633510790D-05  3.3433457153910D-04
214  2.1300000000000D+00 -2.1438487551118D-05  1.3804738085646D-04
215  2.1400000000000D+00  1.4467728774885D-05 -8.7929022718137D-05
216  2.1500000000000D+00  1.8469441524732D-05 -1.0869272514012D-04
217  2.1600000000000D+00  6.3739345608969D-09 -3.6854093186033D-08
218  2.1700000000000D+00 -3.1557028959315D-06  2.0295459057528D-05
219  2.1800000000000D+00 -2.1068512564145D-06  1.3283818700420D-05
220  2.1900000000000D+00 -1.3827769133857D-07  3.1294307623288D-07
221  2.2000000000000D+00 -2.5645338073110D-07  5.8039231852528D-07
222  2.2100000000000D+00 -6.2790494461929D-08  1.4210427079657D-07
223  2.2200000000000D+00  0.0000000000000D+00  0.0000000000000D+00
224  2.2300000000000D+00  0.0000000000000D+00  0.0000000000000D+00
225  2.2400000000000D+00  0.0000000000000D+00  0.0000000000000D+00
226  2.2500000000000D+00  0.0000000000000D+00  0.0000000000000D+00
227  2.2600000000000D+00  0.0000000000000D+00  0.0000000000000D+00
228  2.2700000000000D+00  0.0000000000000D+00  0.0000000000000D+00
229  2.2800000000000D+00  0.0000000000000D+00  0.0000000000000D+00
230  2.2900000000000D+00  0.0000000000000D+00  0.0000000000000D+00
231  2.3000000000000D+00  0.0000000000000D+00  0.0000000000000D+00
232  2.3100000000000D+00  0.0000000000000D+00  0.0000000000000D+00
233  2.3200000000000D+00  0.0000000000000D+00  0.0000000000000D+00
234  2.3300000000000D+00  0.0000000000000D+00  0.0000000000000D+00
235  2.3400000000000D+00  0.0000000000000D+00  0.0000000000000D+00
236  2.3500000000000D+00  0.0000000000000D+00  0.0000000000000D+00
237  2.3600000000000D+00  0.0000000000000D+00  0.0000000000000D+00
238  2.3700000000000D+00  0.0000000000000D+00  0.0000000000000D+00
239  2.3800000000000D+00  0.0000000000000D+00  0.0000000000000D+00
240  2.3900000000000D+00  0.0000000000000D+00  0.0000000000000D+00
241  2.4000000000000D+00  0.0000000000000D+00  0.0000000000000D+00
242  2.4100000000000D+00  0.0000000000000D+00  0.0000000000000D+00
243  2.4200000000000D+00  0.0000000000000D+00  0.0000000000000D+00
244  2.4300000000000D+00  0.0000000000000D+00  0.0000000000000D+00
245  2.4400000000000D+00  0.0000000000000D+00  0.0000000000000D+00
246  2.4500000000000D+00  0.0000000000000D+00  0.0000000000000D+00
247  2.4600000000000D+00  0.0000000000000D+00  0.0000000000000D+00
248  2.4700000000000D+00  0.0000000000000D+00  0.0000000000000D+00
249  2.4800000000000D+00  0.0000000000000D+00  0.0000000000000D+00
250  2.4900000000000D+00  0.0000000000000D+00  0.0000000000000D+00
251  2.5000000000000D+00  0.0000000000000D+00  0.0000000000000D+00
252  2.5100000000000D+00  0.0000000000000D+00  0.0000000000000D+00
253  2.5200000000000D+00  0.0000000000000D+00  0.0000000000000D+00
254  2.5300000000000D+00  0.0000000000000D+00  0.0000000000000D+00
255  2.5400000000000D+00  0.0000000000000D+00  0.0000000000000D+00
256  2.5500000000000D+00  0.0000000000000D+00  0.0000000000000D+00
257  2.5600000000000D+00  0.0000000000000D+00  0.0000000000000D+00
258  2.5700000000000D+00  0.0000000000000D+00  0.0000000000000D+00
259  2.5800000000000D+00  0.0000000000000D+00  0.0000000000000D+00
260  2.5900000000000D+00  0.0000000000000D+00  0.0000000000000D+00
261  2.6000000000000D+00  0.0000000000000D+00  0.0000000000000D+00
262  2.6100000000000D+00  0.0000000000000D+00  0.0000000000000D+00
263  2.6200000000000D+00  0.0000000000000D+00  0.0000000000000D+00
264  2.6300000000000D+00  0.0000000000000D+00  0.0000000000000D+00
265  2.6400000000000D+00  0.0000000000000D+00  0.0000000000000D+00
266  2.6500000000000D+00  0.0000000000000D+00  0.0000000000000D+00
267  2.6600000000000D+00  0.0000000000000D+00  0.0000000000000D+00
268  2.6700000000000D+00  0.0000000000000D+00  0.0000000000000D+00
269  2.6800000000000D+00  0.0000000000000D+00  0.0000000000000D+00
270  2.6900000000000D+00  0.0000000000000D+00  0.0000000000000D+00
271  2.7000000000000D+00  0.0000000000000D+00  0.0000000000000D+00
272  2.7100000000000D+00  0.0000000000000D+00  0.0000000000000D+00
273  2.7200000000000D+00  0.0000000000000D+00  0.0000000000000D+00
274  2.7300000000000D+00  0.0000000000000D+00  0.0000000000000D+00
275  2.7400000000000D+00  0.0000000000000D+00  0.0000000000000D+00
276  2.7500000000000D+00  0.0000000000000D+00  0.0000000000000D+00
277  2.7600000000000D+00  0.0000000000000D+00  0.0000000000000D+00
278  2.7700000000000D+00  0.0000000000000D+00  0.0000000000000D+00
279  2.7800000000000D+00  0.0000000000000D+00  0.0000000000000D+00
280  2.7900000000000D+00  0.0000000000000D+00  0.0000000000000D+00
281  2.8000000000000D+00  0.0000000000000D+00  0.0000000000000D+00
282  2.8100000000000D+00  0.0000000000000D+00  0.0000000000000D+00
283  2.8200000000000D+00  0.0000000000000D+00  0.0000000000000D+00
284  2.8300000000000D+00  0.0000000000000D+00  0.0000000000000D+00
285  2.8400000000000D+00  0.0000000000000D+00  0.0000000000000D+00
286  2.8500000000000D+00  0.0000000000000D+00  0.0000000000000D+00
287  2.8600000000000D+00  0.0000000000000D+00  0.0000000000000D+00
288  2.8700000000000D+00  0.0000000000000D+00  0.0000000000000D+00
289  2.8800000000000D+00  0.0000000000000D+00  0.0000000000000D+00
290  2.8900000000000D+00  0.0000000000000D+00  0.0000000000000D+00
291  2.9000000000000D+00  0.0000000000000D+00  0.0000000000000D+00
292  2.9100000000000D+00  0.0000000000000D+00  0.0000000000000D+00
293  2.9200000000000D+00  0.0000000000000D+00  0.0000000000000D+00
294  2.9300000000000D+00  0.0000000000000D+00  0.0000000000000D+00
295  2.9400000000000D+00  0.0000000000000D+00  0.0000000000000D+00
296  2.9500000000000D+00  0.0000000000000D+00  0.0000000000000D+00
297  2.9600000000000D+00  0.0000000000000D+00  0.0000000000000D+00
298  2.9700000000000D+00  0.0000000000000D+00  0.0000000000000D+00
299  2.9800000000000D+00  0.0000000000000D+00  0.0000000000000D+00
300  2.9900000000000D+00  0.0000000000000D+00  0.0000000000000D+00
301  3.0000000000000D+00  0.0000000000000D+00  0.0000000000000D+00
302  3.0100000000000D+00  0.0000000000000D+00  0.0000000000000D+00
303  3.0200000000000D+00  0.0000000000000D+00  0.0000000000000D+00
304  3.0300000000000D+00  0.0000000000000D+00  0.0000000000000D+00
305  3.0400000000000D+00  0.0000000000000D+00  0.0000000000000D+00
306  3.0500000000000D+00  0.0000000000000D+00  0.0000000000000D+00
307  3.0600000000000D+00  0.0000000000000D+00  0.0000000000000D+00
308  3.0700000000000D+00  0.0000000000000D+00  0.0000000000000D+00
309  3.0800000000000D+00  0.0000000000000D+00  0.0000000000000D+00
310  3.0900000000000D+00  0.0000000000000D+00  0.0000000000000D+00
311  3.1000000000000D+00  0.0000000000000D+00  0.0000000000000D+00
312  3.1100000000000D+00  0.0000000000000D+00  0.0000000000000D+00
313  3.1200000000000D+00  0.0000000000000D+00  0.0000000000000D+00
314  3.1300000000000D+00  0.0000000000000D+00  0.0000000000000D+00
315  3.1400000000000D+00  0.0000000000000D+00  0.0000000000000D+00
316  3.1500000000000D+00  0.0000000000000D+00  0.0000000000000D+00
317  3.1600000000000D+00  0.0000000000000D+00  0.0000000000000D+00
318  3.1700000000000D+00  0.0000000000000D+00  0.0000000000000D+00
319  3.1800000000000D+00  0.0000000000000D+00  0.0000000000000D+00
320  3.1900000000000D+00  0.0000000000000D+00  0.0000000000000D+00
321  3.2000000000000D+00  0.0000000000000D+00  0.0000000000000D+00
322  3.2100000000000D+00  0.0000000000000D+00  0.0000000000000D+00
323  3.2200000000000D+00  0.0000000000000D+00  0.0000000000000D+00
324  3.2300000000000D+00  0.0000000000000D+00  0.0000000000000D+00
325  3.2400000000000D+00  0.0000000000000D+00  0.0000000000000D+00
326  3.2500000000000D+00  0.0000000000000D+00  0.0000000000000D+00
327  3.2600000000000D+00  0.0000000000000D+00  0.0000000000000D+00
328  3.2700000000000D+00  0.0000000000000D+00  0.0000000000000D+00
329  3.2800000000000D+00  0.0000000000000D+00  0.0000000000000D+00
330  3.2900000000000D+00  0.0000000000000D+00  0.0000000000000D+00
331  3.3000000000000D+00  0.0000000000000D+00  0.0000000000000D+00
332  3.3100000000000D+00  0.0000000000000D+00  0.0000000000000D+00
333  3.3200000000000D+00  0.0000000000000D+00  0.0000000000000D+00
334  3.3300000000000D+00  0.0000000000000D+00  0.0000000000000D+00
335  3.3400000000000D+00  0.0000000000000D+00  0.0000000000000D+00
336  3.3500000000000D+00  0.0000000000000D+00  0.0000000000000D+00
337  3.3600000000000D+00  0.0000000000000D+00  0.0000000000000D+00
338  3.3700000000000D+00  0.0000000000000D+00  0.0000000000000D+00
339  3.3800000000000D+00  0.0000000000000D+00  0.0000000000000D+00
340  3.3900000000000D+00  0.0000000000000D+00  0.0000000000000D+00
341  3.4000000000000D+00  0.0000000000000D+00  0.0000000000000D+00
342  3.4100000000000D+00  0.0000000000000D+00  0.0000000000000D+00
343  3.4200000000000D+00  0.0000000000000D+00  0.0000000000000D+00
344  3.4300000000000D+00  0.0000000000000D+00  0.0000000000000D+00
345  3.4400000000000D+00  0.0000000000000D+00  0.0000000000000D+00
346  3.4500000000000D+00  0.0000000000000D+00  0.0000000000000D+00
347  3.4600000000000D+00  0.0000000000000D+00  0.0000000000000D+00
348  3.4700000000000D+00  0.0000000000000D+00  0.0000000000000D+00
349  3.4800000000000D+00  0.0000000000000D+00  0.0000000000000D+00
350  3.4900000000000D+00  0.0000000000000D+00  0.0000000000000D+00
351  3.5000000000000D+00  0.0000000000000D+00  0.0000000000000D+00
352  3.5100000000000D+00  0.0000000000000D+00  0.0000000000000D+00
353  3.5200000000000D+00  0.0000000000000D+00  0.0000000000000D+00
354  3.5300000000000D+00  0.0000000000000D+00  0.0000000000000D+00
355  3.5400000000000D+00  0.0000000000000D+00  0.0000000000000D+00
356  3.5500000000000D+00  0.0000000000000D+00  0.0000000000000D+00
357  3.5600000000000D+00  0.0000000000000D+00  0.0000000000000D+00
358  3.5700000000000D+00  0.0000000000000D+00  0.0000000000000D+00
359  3.5800000000000D+00  0.0000000000000D+00  0.0000000000000D+00
360  3.5900000000000D+00  0.0000000000000D+00  0.0000000000000D+00
361  3.6000000000000D+00  0.0000000000000D+00  0.0000000000000D+00
362  3.6100000000000D+00  0.0000000000000D+00  0.0000000000000D+00
363  3.6200000000000D+00  0.0000000000000D+00  0.0000000000000D+00
364  3.6300000000000D+00  0.0000000000000D+00  0.0000000000000D+00
365  3.6400000000000D+00  0.0000000000000D+00  0.0000000000000D+00
366  3.6500000000000D+00  0.0000000000000D+00  0.0000000000000D+00
367  3.6600000000000D+00  0.0000000000000D+00  0.0000000000000D+00
368  3.6700000000000D+00  0.0000000000000D+00  0.0000000000000D+00
369  3.6800000000000D+00  0.0000000000000D+00  0.0000000000000D+00
370  3.6900000000000D+00  0.0000000000000D+00  0.0000000000000D+00
371  3.7000000000000D+00  0.0000000000000D+00  0.0000000000000D+00
372  3.7100000000000D+00  0.0000000000000D+00  0.0000000000000D+00
373  3.7200000000000D+00  0.0000000000000D+00  0.0000000000000D+00
374  3.7300000000000D+00  0.0000000000000D+00  0.0000000000000D+00
375  3.7400000000000D+00  0.0000000000000D+00  0.0000000000000D+00
376  3.7500000000000D+00  0.0000000000000D+00  0.0000000000000D+00
377  3.7600000000000D+00  0.0000000000000D+00  0.0000000000000D+00
378  3.7700000000000D+00  0.0000000000000D+00  0.0000000000000D+00
379  3.7800000000000D+00  0.0000000000000D+00  0.0000000000000D+00
380  3.7900000000000D+00  0.0000000000000D+00  0.0000000000000D+00
381  3.8000000000000D+00  0.0000000000000D+00  0.0000000000000D+00
382  3.8100000000000D+00  0.0000000000000D+00  0.0000000000000D+00
383  3.8200000000000D+00  0.0000000000000D+00  0.0000000000000D+00
384  3.8300000000000D+00  0.0000000000000D+00  0.0000000000000D+00
385  3.8400000000000D+00  0.0000000000000D+00  0.0000000000000D+00
386  3.8500000000000D+00  0.0000000000000D+00  0.0000000000000D+00
387  3.8600000000000D+00  0.0000000000000D+00  0.0000000000000D+00
388  3.8700000000000D+00  0.0000000000000D+00  0.0000000000000D+00
389  3.8800000000000D+00  0.0000000000000D+00  0.0000000000000D+00
390  3.8900000000000D+00  0.0000000000000D+00  0.0000000000000D+00
391  3.9000000000000D+00  0.0000000000000D+00  0.0000000000000D+00
392  3.9100000000000D+00  0.0000000000000D+00  0.0000000000000D+00
393  3.9200000000000D+00  0.0000000000000D+00  0.0000000000000D+00
394  3.9300000000000D+00  0.0000000000000D+00  0.0000000000000D+00
395  3.9400000000000D+00  0.0000000000000D+00  0.0000000000000D+00
396  3.9500000000000D+00  0.0000000000000D+00  0.0000000000000D+00
397  3.9600000000000D+00  0.0000000000000D+00  0.0000000000000D+00
398  3.9700000000000D+00  0.0000000000000D+00  0.0000000000000D+00
399  3.9800000000000D+00  0.0000000000000D+00  0.0000000000000D+00
400  3.9900000000000D+00  0.0000000000000D+00  0.0000000000000D+00
401  4.0000000000000D+00  0.0000000000000D+00  0.0000000000000D+00
402  4.0100000000000D+00  0.0000000000000D+00  0.0000000000000D+00
403  4.0200000000000D+00  0.0000000000000D+00  0.0000000000000D+00
404  4.0300000000000D+00  0.0000000000000D+00  0.0000000000000D+00
405  4.0400000000000D+00  0.0000000000000D+00  0.0000000000000D+00
406  4.0500000000000D+00  0.0000000000000D+00  0.0000000000000D+00
407  4.0600000000000D+00  0.0000000000000D+00  0.0000000000000D+00
408  4.0700000000000D+00  0.0000000000000D+00  0.0000000000000D+00
409  4.0800000000000D+00  0.0000000000000D+00  0.0000000000000D+00
410  4.0900000000000D+00  0.0000000000000D+00  0.0000000000000D+00
411  4.1000000000000D+00  0.0000000000000D+00  0.0000000000000D+00
412  4.1100000000000D+00  0.0000000000000D+00  0.0000000000000D+00
413  4.1200000000000D+00  0.0000000000000D+00  0.0000000000000D+00
414  4.1300000000000D+00  0.0000000000000D+00  0.0000000000000D+00
415  4.1400000000000D+00  0.0000000000000D+00  0.0000000000000D+00
416  4.1500000000000D+00  0.0000000000000D+00  0.0000000000000D+00
417  4.1600000000000D+00  0.0000000000000D+00  0.0000000000000D+00
418  4.1700000000000D+00  0.0000000000000D+00  0.0000000000000D+00
419  4.1800000000000D+00  0.0000000000000D+00  0.0000000000000D+00
420  4.1900000000000D+00  0.0000000000000D+00  0.0000000000000D+00
421  4.2000000000000D+00  0.0000000000000D+00  0.0000000000000D+00
422  4.2100000000000D+00  0.0000000000000D+00  0.0000000000000D+00
423  4.2200000000000D+00  0.0000000000000D+00  0.0000000000000D+00
424  4.2300000000000D+00  0.0000000000000D+00  0.0000000000000D+00
425  4.2400000000000D+00  0.0000000000000D+00  0.0000000000000D+00
426  4.2500000000000D+00  0.0000000000000D+00  0.0000000000000D+00
427  4.2600000000000D+00  0.0000000000000D+00  0.0000000000000D+00
428  4.2700000000000D+00  0.0000000000000D+00  0.0000000000000D+00
429  4.2800000000000D+00  0.0000000000000D+00  0.0000000000000D+00
430  4.2900000000000D+00  0.0000000000000D+00  0.0000000000000D+00
431  4.3000000000000D+00  0.0000000000000D+00  0.0000000000000D+00
432  4.3100000000000D+00  0.0000000000000D+00  0.0000000000000D+00
433  4.3200000000000D+00  0.0000000000000D+00  0.0000000000000D+00
434  4.3300000000000D+00  0.0000000000000D+00  0.0000000000000D+00
435  4.3400000000000D+00  0.0000000000000D+00  0.0000000000000D+00
436  4.3500000000000D+00  0.0000000000000D+00  0.0000000000000D+00
437  4.3600000000000D+00  0.0000000000000D+00  0.0000000000000D+00
438  4.3700000000000D+00  0.0000000000000D+00  0.0000000000000D+00
439  4.3800000000000D+00  0.0000000000000D+00  0.0000000000000D+00
440  4.3900000000000D+00  0.0000000000000D+00  0.0000000000000D+00
441  4.4000000000000D+00  0.0000000000000D+00  0.0000000000000D+00
442  4.4100000000000D+00  0.0000000000000D+00  0.0000000000000D+00
443  4.4200000000000D+00  0.0000000000000D+00  0.0000000000000D+00