Al    ONCVPSP-3.2.3  r_core=   1.76802   1.76802   1.70587
13.0000      3.0000      161006    zatom,zion,pspd
8   -1012   2     4   600     0    pspcod,pspxc,lmax,lloc,mmax,r2well
5.99000000  5.00000000  0.00000000    rchrg fchrg qchrg
2     2     2     0     0    nproj
1     1           extension_switch
0                         5.7770812065855D+00  7.3460343262948D-01
1  0.0000000000000D+00 -1.1231605923090D-09  2.8032987736681D-09
2  1.0000000000000D-02  2.4855124055675D-02 -1.1211029103438D-02
3  2.0000000000000D-02  4.9619937625605D-02 -2.2190775287897D-02
4  3.0000000000000D-02  7.4205547207952D-02 -3.2711564065168D-02
5  4.0000000000000D-02  9.8525872440431D-02 -4.2552885675188D-02
6  5.0000000000000D-02  1.2249900089001D-01 -5.1504847841838D-02
7  6.0000000000000D-02  1.4604848151614D-01 -5.9371475019569D-02
8  7.0000000000000D-02  1.6910453770303D-01 -6.5973806299706D-02
9  8.0000000000000D-02  1.9160518187951D-01 -7.1152746948564D-02
10  9.0000000000000D-02  2.1349721512038D-01 -7.4771631981484D-02
11  1.0000000000000D-01  2.3473709673107D-01 -7.6718464191261D-02
12  1.1000000000000D-01  2.5529167063768D-01 -7.6907793591148D-02
13  1.2000000000000D-01  2.7513873741054D-01 -7.5282210240276D-02
14  1.3000000000000D-01  2.9426746291518D-01 -7.1813427824911D-02
15  1.4000000000000D-01  3.1267861688041D-01 -6.6502941097914D-02
16  1.5000000000000D-01  3.3038463706717D-01 -5.9382246254492D-02
17  1.6000000000000D-01  3.4740951718159D-01 -5.0512619461187D-02
18  1.7000000000000D-01  3.6378851916800D-01 -3.9984454975324D-02
19  1.8000000000000D-01  3.7956771300759D-01 -2.7916170506169D-02
20  1.9000000000000D-01  3.9480334960217D-01 -1.4452693593615D-02
21  2.0000000000000D-01  4.0956107470634D-01  2.3645127038150D-04
22  2.1000000000000D-01  4.2391499415233D-01  1.5959429360087D-02
23  2.2000000000000D-01  4.3794660275802D-01  3.2504725499265D-02
24  2.3000000000000D-01  4.5174359129045D-01  4.9644081188640D-02
25  2.4000000000000D-01  4.6539854764707D-01  6.7135698889431D-02
26  2.5000000000000D-01  4.7900756998910D-01  8.4727669350464D-02
27  2.6000000000000D-01  4.9266881089433D-01  1.0216157453926D-01
28  2.7000000000000D-01  5.0648097267030D-01  1.1917621605708D-01
29  2.8000000000000D-01  5.2054177476817D-01  1.3551141692147D-01
30  2.9000000000000D-01  5.3494641475052D-01  1.5091184331867D-01
31  3.0000000000000D-01  5.4978604448407D-01  1.6513079238219D-01
32  3.1000000000000D-01  5.6514628314750D-01  1.7793389225356D-01
33  3.2000000000000D-01  5.8110578826474D-01  1.8910266162589D-01
34  3.3000000000000D-01  5.9773490529824D-01  1.9843787765353D-01
35  3.4000000000000D-01  6.1509441537501D-01  2.0576270350777D-01
36  3.5000000000000D-01  6.3323439947974D-01  2.1092552994318D-01
37  3.6000000000000D-01  6.5219323595166D-01  2.1380248897121D-01
38  3.7000000000000D-01  6.7199674638414D-01  2.1429960206735D-01
39  3.8000000000000D-01  6.9265750306932D-01  2.1235453021330D-01
40  3.9000000000000D-01  7.1417430898252D-01  2.0793789842575D-01
41  4.0000000000000D-01  7.3653185898895D-01  2.0105417318447D-01
42  4.1000000000000D-01  7.5970058851044D-01  1.9174207726107D-01
43  4.2000000000000D-01  7.8363671334521D-01  1.8007453278953D-01
44  4.3000000000000D-01  8.0828246172258D-01  1.6615812992042D-01
45  4.4000000000000D-01  8.3356649703356D-01  1.5013212497797D-01
46  4.5000000000000D-01  8.5940452704234D-01  1.3216697859984D-01
47  4.6000000000000D-01  8.8570009278975D-01  1.1246245079616D-01
48  4.7000000000000D-01  9.1234552788335D-01  9.1245276125244D-02
49  4.8000000000000D-01  9.3922307646419D-01  6.8766448164093D-02
50  4.9000000000000D-01  9.6620615588211D-01  4.5298148066309D-02
51  5.0000000000000D-01  9.9316074803135D-01  2.1130357169100D-02
52  5.1000000000000D-01  1.0199469014241D+00 -3.4328017358328D-03
53  5.2000000000000D-01  1.0464203244413D+00 -2.8076945788112D-02
54  5.3000000000000D-01  1.0724340488198D+00 -5.2481484000434D-02
55  5.4000000000000D-01  1.0978401413313D+00 -7.6323784931120D-02
56  5.5000000000000D-01  1.1224914408041D+00 -9.9283403276062D-02
57  5.6000000000000D-01  1.1462432971401D+00 -1.2104630735321D-01
58  5.7000000000000D-01  1.1689552887990D+00 -1.4130904903027D-01
59  5.8000000000000D-01  1.1904928953650D+00 -1.5978281802516D-01
60  5.9000000000000D-01  1.2107291022740D+00 -1.7619732369783D-01
61  6.0000000000000D-01  1.2295459155626D+00 -1.9030444942302D-01
62  6.1000000000000D-01  1.2468357655936D+00 -2.0188162739778D-01
63  6.2000000000000D-01  1.2625027800988D+00 -2.1073488520840D-01
64  6.3000000000000D-01  1.2764639085520D+00 -2.1670151969218D-01
65  6.4000000000000D-01  1.2886498818134D+00 -2.1965235844739D-01
66  6.5000000000000D-01  1.2990059931440D+00 -2.1949357476247D-01
67  6.6000000000000D-01  1.3074926890671D+00 -2.1616802768080D-01
68  6.7000000000000D-01  1.3140859610908D+00 -2.0965610526972D-01
69  6.8000000000000D-01  1.3187775319942D+00 -1.9997605588235D-01
70  6.9000000000000D-01  1.3215748331777D+00 -1.8718379919707D-01
71  7.0000000000000D-01  1.3225007724365D+00 -1.7137221596340D-01
72  7.1000000000000D-01  1.3215932944059D+00 -1.5266992259952D-01
73  7.2000000000000D-01  1.3189047388143D+00 -1.3123954399315D-01
74  7.3000000000000D-01  1.3145010045137D+00 -1.0727550493506D-01
75  7.4000000000000D-01  1.3084605299994D+00 -8.1001367453167D-02
76  7.5000000000000D-01  1.3008731037527D+00 -5.2666747850944D-02
77  7.6000000000000D-01  1.2918385201978D+00 -2.2543853380053D-02
78  7.7000000000000D-01  1.2814650993125D+00  9.0763159223357D-03
79  7.8000000000000D-01  1.2698680899709D+00  4.1888049632306D-02
80  7.9000000000000D-01  1.2571679788528D+00  7.5575238606184D-02
81  8.0000000000000D-01  1.2434887282362D+00  1.0981585727400D-01
82  8.1000000000000D-01  1.2289559671562D+00  1.4428655502586D-01
83  8.2000000000000D-01  1.2136951612559D+00  1.7866729308724D-01
84  8.3000000000000D-01  1.1978297871520D+00  2.1264596206802D-01
85  8.4000000000000D-01  1.1814795372805D+00  2.4592291503956D-01
86  8.5000000000000D-01  1.1647585809799D+00  2.7821535155796D-01
87  8.6000000000000D-01  1.1477739069966D+00  3.0926148951097D-01
88  8.7000000000000D-01  1.1306237716753D+00  3.3882446400600D-01
89  8.8000000000000D-01  1.1133962758318D+00  3.6669589571710D-01
90  8.9000000000000D-01  1.0961680917109D+00  3.9269907512984D-01
91  9.0000000000000D-01  1.0790033595257D+00  4.1669171392030D-01
92  9.1000000000000D-01  1.0619527708855D+00  4.3856822021689D-01
93  9.2000000000000D-01  1.0450528539646D+00  4.5826146065487D-01
94  9.3000000000000D-01  1.0283254725906D+00  4.7574397886376D-01
95  9.4000000000000D-01  1.0117775485524D+00  4.9102864724056D-01
96  9.5000000000000D-01  9.9540101340657D-01  5.0416873645303D-01
97  9.6000000000000D-01  9.7917299289397D-01  5.1525739506871D-01
98  9.7000000000000D-01  9.6305622390147D-01  5.2442653966043D-01
99  9.8000000000000D-01  9.4699970061871D-01  5.3184516399282D-01
100  9.9000000000000D-01  9.3093954330394D-01  5.3771708399873D-01
101  1.0000000000000D+00  9.1480007991104D-01  5.4227814318595D-01
102  1.0100000000000D+00  8.9849512773984D-01  5.4579291085975D-01
103  1.0200000000000D+00  8.8192945934701D-01  5.4855091287781D-01
104  1.0300000000000D+00  8.6500043416236D-01  5.5086244165321D-01
105  1.0400000000000D+00  8.4759977483195D-01  5.5305399819488D-01
106  1.0500000000000D+00  8.2961546494121D-01  5.5546342490920D-01
107  1.0600000000000D+00  8.1093374283729D-01  5.5843479273398D-01
108  1.0700000000000D+00  7.9144116464458D-01  5.6231311024870D-01
109  1.0800000000000D+00  7.7102670824307D-01  5.6743892572493D-01
110  1.0900000000000D+00  7.4958388910284D-01  5.7414289527759D-01
111  1.1000000000000D+00  7.2701285825509D-01  5.8274039181582D-01
112  1.1100000000000D+00  7.0322245257629D-01  5.9352622975582D-01
113  1.1200000000000D+00  6.7813216781092D-01  6.0676957983669D-01
114  1.1300000000000D+00  6.5167402556392D-01  6.2270914636746D-01
115  1.1400000000000D+00  6.2379430617715D-01  6.4154867752574D-01
116  1.1500000000000D+00  5.9445512128259D-01  6.6345287462884D-01
117  1.1600000000000D+00  5.6363580140512D-01  6.8854376234578D-01
118  1.1700000000000D+00  5.3133407643484D-01  7.1689757569581D-01
119  1.1800000000000D+00  4.9756702854250D-01  7.4854221529149D-01
120  1.1900000000000D+00  4.6237180087433D-01  7.8345531286848D-01
121  1.2000000000000D+00  4.2580604814596D-01  8.2156294218022D-01
122  1.2100000000000D+00  3.8794811780801D-01  8.6273900394584D-01
123  1.2200000000000D+00  3.4889695462997D-01  9.0680530309504D-01
124  1.2300000000000D+00  3.0877172537979D-01  9.5353232696618D-01
125  1.2400000000000D+00  2.6771116339172D-01  1.0026407253169D+00
126  1.2500000000000D+00  2.2587263591282D-01  1.0538034852534D+00
127  1.2600000000000D+00  1.8343094278948D-01  1.1066487799913D+00
128  1.2700000000000D+00  1.4057685735887D-01  1.1607634645908D+00
129  1.2800000000000D+00  9.7515422791659D-02  1.2156971858513D+00
130  1.2900000000000D+00  5.4464023711101D-02  1.2709670570778D+00
131  1.3000000000000D+00  1.1650253629743D-02  1.3260628466352D+00
132  1.3100000000000D+00 -3.0690398745350D-02  1.3804526229255D+00
133  1.3200000000000D+00 -7.2317015583849D-02  1.4335887841318D+00
134  1.3300000000000D+00 -1.1298584056447D-01  1.4849144034218D+00
135  1.3400000000000D+00 -1.5245296284235D-01  1.5338698117637D+00
136  1.3500000000000D+00 -1.9047706061098D-01  1.5798993341875D+00
137  1.3600000000000D+00 -2.2682217161566D-01  1.6224580980599D+00
138  1.3700000000000D+00 -2.6126045458513D-01  1.6610188220569D+00
139  1.3800000000000D+00 -2.9357490762299D-01  1.6950785049801D+00
140  1.3900000000000D+00 -3.2356200843632D-01  1.7241649348249D+00
141  1.4000000000000D+00 -3.5103424048434D-01  1.7478429277364D+00
142  1.4100000000000D+00 -3.7582247126163D-01  1.7657199608955D+00
143  1.4200000000000D+00 -3.9777816150861D-01  1.7774521627620D+00
144  1.4300000000000D+00 -4.1677537690918D-01  1.7827500341293D+00
145  1.4400000000000D+00 -4.3271260476485D-01  1.7813837371434D+00
146  1.4500000000000D+00 -4.4551431707868D-01  1.7731875073913D+00
147  1.4600000000000D+00 -4.5513225712682D-01  1.7580626754535D+00
148  1.4700000000000D+00 -4.6154642696869D-01  1.7359801966790D+00
149  1.4800000000000D+00 -4.6476576697848D-01  1.7069823958794D+00
150  1.4900000000000D+00 -4.6482850387192D-01  1.6711838725262D+00
151  1.5000000000000D+00 -4.6180217468228D-01  1.6287715967310D+00
152  1.5100000000000D+00 -4.5578330689478D-01  1.5800041464275D+00
153  1.5200000000000D+00 -4.4689676705835D-01  1.5252101163868D+00
154  1.5300000000000D+00 -4.3529477520284D-01  1.4647856918212D+00
155  1.5400000000000D+00 -4.2115559338538D-01  1.3991914071397D+00
156  1.5500000000000D+00 -4.0468190695127D-01  1.3289481361271D+00
157  1.5600000000000D+00 -3.8609890172133D-01  1.2546323213057D+00
158  1.5700000000000D+00 -3.6565207498323D-01  1.1768705370780D+00
159  1.5800000000000D+00 -3.4360478129020D-01  1.0963333888746D+00
160  1.5900000000000D+00 -3.2023556303720D-01  1.0137288732041D+00
161  1.6000000000000D+00 -2.9583527229753D-01  9.2979521454704D-01
162  1.6100000000000D+00 -2.7070403563030D-01  8.4529330836365D-01
163  1.6200000000000D+00 -2.4514807947991D-01  7.6099881405763D-01
164  1.6300000000000D+00 -2.1947646445367D-01  6.7769401859583D-01
165  1.6400000000000D+00 -1.9399775613349D-01  5.9615953976756D-01
166  1.6500000000000D+00 -1.6901667710512D-01  5.1716598077177D-01
167  1.6600000000000D+00 -1.4483077377438D-01  4.4146561994392D-01
168  1.6700000000000D+00 -1.2172713963541D-01  3.6978423976101D-01
169  1.6800000000000D+00 -9.9979230483997D-02  3.0281318377843D-01
170  1.6900000000000D+00 -7.9843809993698D-02  2.4120173752171D-01
171  1.7000000000000D+00 -6.1558060332035D-02  1.8554991996973D-01
172  1.7100000000000D+00 -4.5344109723059D-02  1.3642344107901D-01
173  1.7200000000000D+00 -3.1382058544978D-02  9.4273964829822D-02
174  1.7300000000000D+00 -1.9784398775739D-02  5.9363628806750D-02
175  1.7400000000000D+00 -1.0748170651765D-02  3.2222194972217D-02
176  1.7500000000000D+00 -4.5735014119724D-03  1.3703004850872D-02
177  1.7600000000000D+00 -1.1711447247197D-03  3.5083303248166D-03
178  1.7700000000000D+00  1.6133509603818D-04 -4.8164763312039D-04
179  1.7800000000000D+00  2.7615163580206D-04 -8.2569909973245D-04
180  1.7900000000000D+00 -1.4404183500033D-05  4.3088142568020D-05
181  1.8000000000000D+00 -9.6718700489508D-05  2.8930793442482D-04
182  1.8100000000000D+00 -8.7393904991794D-06  2.6139914263673D-05
183  1.8200000000000D+00  1.7608001385263D-05 -5.2726809212880D-05
184  1.8300000000000D+00  5.7739568017173D-06 -1.7290553020820D-05
185  1.8400000000000D+00 -5.6316571688438D-08  1.6506632992790D-07
186  1.8500000000000D+00 -3.4211119039603D-08  1.0027428327554D-07
187  1.8600000000000D+00  0.0000000000000D+00  0.0000000000000D+00
188  1.8700000000000D+00  0.0000000000000D+00  0.0000000000000D+00
189  1.8800000000000D+00  0.0000000000000D+00  0.0000000000000D+00
190  1.8900000000000D+00  0.0000000000000D+00  0.0000000000000D+00
191  1.9000000000000D+00  0.0000000000000D+00  0.0000000000000D+00
192  1.9100000000000D+00  0.0000000000000D+00  0.0000000000000D+00
193  1.9200000000000D+00  0.0000000000000D+00  0.0000000000000D+00
194  1.9300000000000D+00  0.0000000000000D+00  0.0000000000000D+00
195  1.9400000000000D+00  0.0000000000000D+00  0.0000000000000D+00
196  1.9500000000000D+00  0.0000000000000D+00  0.0000000000000D+00
197  1.9600000000000D+00  0.0000000000000D+00  0.0000000000000D+00
198  1.9700000000000D+00  0.0000000000000D+00  0.0000000000000D+00
199  1.9800000000000D+00  0.0000000000000D+00  0.0000000000000D+00
200  1.9900000000000D+00  0.0000000000000D+00  0.0000000000000D+00
201  2.0000000000000D+00  0.0000000000000D+00  0.0000000000000D+00
202  2.0100000000000D+00  0.0000000000000D+00  0.0000000000000D+00
203  2.0200000000000D+00  0.0000000000000D+00  0.0000000000000D+00
204  2.0300000000000D+00  0.0000000000000D+00  0.0000000000000D+00
205  2.0400000000000D+00  0.0000000000000D+00  0.0000000000000D+00
206  2.0500000000000D+00  0.0000000000000D+00  0.0000000000000D+00
207  2.0600000000000D+00  0.0000000000000D+00  0.0000000000000D+00
208  2.0700000000000D+00  0.0000000000000D+00  0.0000000000000D+00
209  2.0800000000000D+00  0.0000000000000D+00  0.0000000000000D+00
210  2.0900000000000D+00  0.0000000000000D+00  0.0000000000000D+00
211  2.1000000000000D+00  0.0000000000000D+00  0.0000000000000D+00
212  2.1100000000000D+00  0.0000000000000D+00  0.0000000000000D+00
213  2.1200000000000D+00  0.0000000000000D+00  0.0000000000000D+00
214  2.1300000000000D+00  0.0000000000000D+00  0.0000000000000D+00
215  2.1400000000000D+00  0.0000000000000D+00  0.0000000000000D+00
216  2.1500000000000D+00  0.0000000000000D+00  0.0000000000000D+00
217  2.1600000000000D+00  0.0000000000000D+00  0.0000000000000D+00
218  2.1700000000000D+00  0.0000000000000D+00  0.0000000000000D+00
219  2.1800000000000D+00  0.0000000000000D+00  0.0000000000000D+00
220  2.1900000000000D+00  0.0000000000000D+00  0.0000000000000D+00
221  2.2000000000000D+00  0.0000000000000D+00  0.0000000000000D+00
222  2.2100000000000D+00  0.0000000000000D+00  0.0000000000000D+00
223  2.2200000000000D+00  0.0000000000000D+00  0.0000000000000D+00
224  2.2300000000000D+00  0.0000000000000D+00  0.0000000000000D+00
225  2.2400000000000D+00  0.0000000000000D+00  0.0000000000000D+00
226  2.2500000000000D+00  0.0000000000000D+00  0.0000000000000D+00
227  2.2600000000000D+00  0.0000000000000D+00  0.0000000000000D+00
228  2.2700000000000D+00  0.0000000000000D+00  0.0000000000000D+00
229  2.2800000000000D+00  0.0000000000000D+00  0.0000000000000D+00
230  2.2900000000000D+00  0.0000000000000D+00  0.0000000000000D+00
231  2.3000000000000D+00  0.0000000000000D+00  0.0000000000000D+00
232  2.3100000000000D+00  0.0000000000000D+00  0.0000000000000D+00
233  2.3200000000000D+00  0.0000000000000D+00  0.0000000000000D+00
234  2.3300000000000D+00  0.0000000000000D+00  0.0000000000000D+00
235  2.3400000000000D+00  0.0000000000000D+00  0.0000000000000D+00
236  2.3500000000000D+00  0.0000000000000D+00  0.0000000000000D+00
237  2.3600000000000D+00  0.0000000000000D+00  0.0000000000000D+00
238  2.3700000000000D+00  0.0000000000000D+00  0.0000000000000D+00
239  2.3800000000000D+00  0.0000000000000D+00  0.0000000000000D+00
240  2.3900000000000D+00  0.0000000000000D+00  0.0000000000000D+00
241  2.4000000000000D+00  0.0000000000000D+00  0.0000000000000D+00
242  2.4100000000000D+00  0.0000000000000D+00  0.0000000000000D+00
243  2.4200000000000D+00  0.0000000000000D+00  0.0000000000000D+00
244  2.4300000000000D+00  0.0000000000000D+00  0.0000000000000D+00
245  2.4400000000000D+00  0.0000000000000D+00  0.0000000000000D+00
246  2.4500000000000D+00  0.0000000000000D+00  0.0000000000000D+00
247  2.4600000000000D+00  0.0000000000000D+00  0.0000000000000D+00
248  2.4700000000000D+00  0.0000000000000D+00  0.0000000000000D+00
249  2.4800000000000D+00  0.0000000000000D+00  0.0000000000000D+00
250  2.4900000000000D+00  0.0000000000000D+00  0.0000000000000D+00
251  2.5000000000000D+00  0.0000000000000D+00  0.0000000000000D+00
252  2.5100000000000D+00  0.0000000000000D+00  0.0000000000000D+00
253  2.5200000000000D+00  0.0000000000000D+00  0.0000000000000D+00
254  2.5300000000000D+00  0.0000000000000D+00  0.0000000000000D+00
255  2.5400000000000D+00  0.0000000000000D+00  0.0000000000000D+00
256  2.5500000000000D+00  0.0000000000000D+00  0.0000000000000D+00
257  2.5600000000000D+00  0.0000000000000D+00  0.0000000000000D+00
258  2.5700000000000D+00  0.0000000000000D+00  0.0000000000000D+00
259  2.5800000000000D+00  0.0000000000000D+00  0.0000000000000D+00
260  2.5900000000000D+00  0.0000000000000D+00  0.0000000000000D+00
261  2.6000000000000D+00  0.0000000000000D+00  0.0000000000000D+00
262  2.6100000000000D+00  0.0000000000000D+00  0.0000000000000D+00
263  2.6200000000000D+00  0.0000000000000D+00  0.0000000000000D+00
264  2.6300000000000D+00  0.0000000000000D+00  0.0000000000000D+00
265  2.6400000000000D+00  0.0000000000000D+00  0.0000000000000D+00
266  2.6500000000000D+00  0.0000000000000D+00  0.0000000000000D+00
267  2.6600000000000D+00  0.0000000000000D+00  0.0000000000000D+00
268  2.6700000000000D+00  0.0000000000000D+00  0.0000000000000D+00
269  2.6800000000000D+00  0.0000000000000D+00  0.0000000000000D+00
270  2.6900000000000D+00  0.0000000000000D+00  0.0000000000000D+00
271  2.7000000000000D+00  0.0000000000000D+00  0.0000000000000D+00
272  2.7100000000000D+00  0.0000000000000D+00  0.0000000000000D+00
273  2.7200000000000D+00  0.0000000000000D+00  0.0000000000000D+00
274  2.7300000000000D+00  0.0000000000000D+00  0.0000000000000D+00
275  2.7400000000000D+00  0.0000000000000D+00  0.0000000000000D+00
276  2.7500000000000D+00  0.0000000000000D+00  0.0000000000000D+00
277  2.7600000000000D+00  0.0000000000000D+00  0.0000000000000D+00
278  2.7700000000000D+00  0.0000000000000D+00  0.0000000000000D+00
279  2.7800000000000D+00  0.0000000000000D+00  0.0000000000000D+00
280  2.7900000000000D+00  0.0000000000000D+00  0.0000000000000D+00
281  2.8000000000000D+00  0.0000000000000D+00  0.0000000000000D+00
282  2.8100000000000D+00  0.0000000000000D+00  0.0000000000000D+00
283  2.8200000000000D+00  0.0000000000000D+00  0.0000000000000D+00
284  2.8300000000000D+00  0.0000000000000D+00  0.0000000000000D+00
285  2.8400000000000D+00  0.0000000000000D+00  0.0000000000000D+00
286  2.8500000000000D+00  0.0000000000000D+00  0.0000000000000D+00
287  2.8600000000000D+00  0.0000000000000D+00  0.0000000000000D+00
288  2.8700000000000D+00  0.0000000000000D+00  0.0000000000000D+00
289  2.8800000000000D+00  0.0000000000000D+00  0.0000000000000D+00
290  2.8900000000000D+00  0.0000000000000D+00  0.0000000000000D+00
291  2.9000000000000D+00  0.0000000000000D+00  0.0000000000000D+00
292  2.9100000000000D+00  0.0000000000000D+00  0.0000000000000D+00
293  2.9200000000000D+00  0.0000000000000D+00  0.0000000000000D+00
294  2.9300000000000D+00  0.0000000000000D+00  0.0000000000000D+00
295  2.9400000000000D+00  0.0000000000000D+00  0.0000000000000D+00
296  2.9500000000000D+00  0.0000000000000D+00  0.0000000000000D+00
297  2.9600000000000D+00  0.0000000000000D+00  0.0000000000000D+00
298  2.9700000000000D+00  0.0000000000000D+00  0.0000000000000D+00
299  2.9800000000000D+00  0.0000000000000D+00  0.0000000000000D+00
300  2.9900000000000D+00  0.0000000000000D+00  0.0000000000000D+00
301  3.0000000000000D+00  0.0000000000000D+00  0.0000000000000D+00
302  3.0100000000000D+00  0.0000000000000D+00  0.0000000000000D+00
303  3.0200000000000D+00  0.0000000000000D+00  0.0000000000000D+00
304  3.0300000000000D+00  0.0000000000000D+00  0.0000000000000D+00
305  3.0400000000000D+00  0.0000000000000D+00  0.0000000000000D+00
306  3.0500000000000D+00  0.0000000000000D+00  0.0000000000000D+00
307  3.0600000000000D+00  0.0000000000000D+00  0.0000000000000D+00
308  3.0700000000000D+00  0.0000000000000D+00  0.0000000000000D+00
309  3.0800000000000D+00  0.0000000000000D+00  0.0000000000000D+00
310  3.0900000000000D+00  0.0000000000000D+00  0.0000000000000D+00
311  3.1000000000000D+00  0.0000000000000D+00  0.0000000000000D+00
312  3.1100000000000D+00  0.0000000000000D+00  0.0000000000000D+00
313  3.1200000000000D+00  0.0000000000000D+00  0.0000000000000D+00
314  3.1300000000000D+00  0.0000000000000D+00  0.0000000000000D+00
315  3.1400000000000D+00  0.0000000000000D+00  0.0000000000000D+00
316  3.1500000000000D+00  0.0000000000000D+00  0.0000000000000D+00
317  3.1600000000000D+00  0.0000000000000D+00  0.0000000000000D+00
318  3.1700000000000D+00  0.0000000000000D+00  0.0000000000000D+00
319  3.1800000000000D+00  0.0000000000000D+00  0.0000000000000D+00
320  3.1900000000000D+00  0.0000000000000D+00  0.0000000000000D+00
321  3.2000000000000D+00  0.0000000000000D+00  0.0000000000000D+00
322  3.2100000000000D+00  0.0000000000000D+00  0.0000000000000D+00
323  3.2200000000000D+00  0.0000000000000D+00  0.0000000000000D+00
324  3.2300000000000D+00  0.0000000000000D+00  0.0000000000000D+00
325  3.2400000000000D+00  0.0000000000000D+00  0.0000000000000D+00
326  3.2500000000000D+00  0.0000000000000D+00  0.0000000000000D+00
327  3.2600000000000D+00  0.0000000000000D+00  0.0000000000000D+00
328  3.2700000000000D+00  0.0000000000000D+00  0.0000000000000D+00
329  3.2800000000000D+00  0.0000000000000D+00  0.0000000000000D+00
330  3.2900000000000D+00  0.0000000000000D+00  0.0000000000000D+00
331  3.3000000000000D+00  0.0000000000000D+00  0.0000000000000D+00
332  3.3100000000000D+00  0.0000000000000D+00  0.0000000000000D+00
333  3.3200000000000D+00  0.0000000000000D+00  0.0000000000000D+00
334  3.3300000000000D+00  0.0000000000000D+00  0.0000000000000D+00
335  3.3400000000000D+00  0.0000000000000D+00  0.0000000000000D+00
336  3.3500000000000D+00  0.0000000000000D+00  0.0000000000000D+00
337  3.3600000000000D+00  0.0000000000000D+00  0.0000000000000D+00
338  3.3700000000000D+00  0.0000000000000D+00  0.0000000000000D+00
339  3.3800000000000D+00  0.0000000000000D+00  0.0000000000000D+00
340  3.3900000000000D+00  0.0000000000000D+00  0.0000000000000D+00
341  3.4000000000000D+00  0.0000000000000D+00  0.0000000000000D+00
342  3.4100000000000D+00  0.0000000000000D+00  0.0000000000000D+00
343  3.4200000000000D+00  0.0000000000000D+00  0.0000000000000D+00
344  3.4300000000000D+00  0.0000000000000D+00  0.0000000000000D+00
345  3.4400000000000D+00  0.0000000000000D+00  0.0000000000000D+00
346  3.4500000000000D+00  0.0000000000000D+00  0.0000000000000D+00
347  3.4600000000000D+00  0.0000000000000D+00  0.0000000000000D+00
348  3.4700000000000D+00  0.0000000000000D+00  0.0000000000000D+00
349  3.4800000000000D+00  0.0000000000000D+00  0.0000000000000D+00
350  3.4900000000000D+00  0.0000000000000D+00  0.0000000000000D+00
351  3.5000000000000D+00  0.0000000000000D+00  0.0000000000000D+00
352  3.5100000000000D+00  0.0000000000000D+00  0.0000000000000D+00
353  3.5200000000000D+00  0.0000000000000D+00  0.0000000000000D+00
354  3.5300000000000D+00  0.0000000000000D+00  0.0000000000000D+00
355  3.5400000000000D+00  0.0000000000000D+00  0.0000000000000D+00
356  3.5500000000000D+00  0.0000000000000D+00  0.0000000000000D+00
357  3.5600000000000D+00  0.0000000000000D+00  0.0000000000000D+00
358  3.5700000000000D+00  0.0000000000000D+00  0.0000000000000D+00
359  3.5800000000000D+00  0.0000000000000D+00  0.0000000000000D+00
360  3.5900000000000D+00  0.0000000000000D+00  0.0000000000000D+00
361  3.6000000000000D+00  0.0000000000000D+00  0.0000000000000D+00
362  3.6100000000000D+00  0.0000000000000D+00  0.0000000000000D+00
363  3.6200000000000D+00  0.0000000000000D+00  0.0000000000000D+00
364  3.6300000000000D+00  0.0000000000000D+00  0.0000000000000D+00
365  3.6400000000000D+00  0.0000000000000D+00  0.0000000000000D+00
366  3.6500000000000D+00  0.0000000000000D+00  0.0000000000000D+00
367  3.6600000000000D+00  0.0000000000000D+00  0.0000000000000D+00
368  3.6700000000000D+00  0.0000000000000D+00  0.0000000000000D+00
369  3.6800000000000D+00  0.0000000000000D+00  0.0000000000000D+00
370  3.6900000000000D+00  0.0000000000000D+00  0.0000000000000D+00
371  3.7000000000000D+00  0.0000000000000D+00  0.0000000000000D+00
372  3.7100000000000D+00  0.0000000000000D+00  0.0000000000000D+00
373  3.7200000000000D+00  0.0000000000000D+00  0.0000000000000D+00
374  3.7300000000000D+00  0.0000000000000D+00  0.0000000000000D+00
375  3.7400000000000D+00  0.0000000000000D+00  0.0000000000000D+00
376  3.7500000000000D+00  0.0000000000000D+00  0.0000000000000D+00
377  3.7600000000000D+00  0.0000000000000D+00  0.0000000000000D+00
378  3.7700000000000D+00  0.0000000000000D+00  0.0000000000000D+00
379  3.7800000000000D+00  0.0000000000000D+00  0.0000000000000D+00
380  3.7900000000000D+00  0.0000000000000D+00  0.0000000000000D+00
381  3.8000000000000D+00  0.0000000000000D+00  0.0000000000000D+00
382  3.8100000000000D+00  0.0000000000000D+00  0.0000000000000D+00
383  3.8200000000000D+00  0.0000000000000D+00  0.0000000000000D+00
384  3.8300000000000D+00  0.0000000000000D+00  0.0000000000000D+00
385  3.8400000000000D+00  0.0000000000000D+00  0.0000000000000D+00
386  3.8500000000000D+00  0.0000000000000D+00  0.0000000000000D+00
387  3.8600000000000D+00  0.0000000000000D+00  0.0000000000000D+00
388  3.8700000000000D+00  0.0000000000000D+00  0.0000000000000D+00
389  3.8800000000000D+00  0.0000000000000D+00  0.0000000000000D+00
390  3.8900000000000D+00  0.0000000000000D+00  0.0000000000000D+00
391  3.9000000000000D+00  0.0000000000000D+00  0.0000000000000D+00
392  3.9100000000000D+00  0.0000000000000D+00  0.0000000000000D+00
393  3.9200000000000D+00  0.0000000000000D+00  0.0000000000000D+00
394  3.9300000000000D+00  0.0000000000000D+00  0.0000000000000D+00
395  3.9400000000000D+00  0.0000000000000D+00  0.0000000000000D+00
396  3.9500000000000D+00  0.0000000000000D+00  0.0000000000000D+00
397  3.9600000000000D+00  0.0000000000000D+00  0.0000000000000D+00
398  3.9700000000000D+00  0.0000000000000D+00  0.0000000000000D+00
399  3.9800000000000D+00  0.0000000000000D+00  0.0000000000000D+00
400  3.9900000000000D+00  0.0000000000000D+00  0.0000000000000D+00
401  4.0000000000000D+00  0.0000000000000D+00  0.0000000000000D+00
402  4.0100000000000D+00  0.0000000000000D+00  0.0000000000000D+00
403  4.0200000000000D+00  0.0000000000000D+00  0.0000000000000D+00
404  4.0300000000000D+00  0.0000000000000D+00  0.0000000000000D+00
405  4.0400000000000D+00  0.0000000000000D+00  0.0000000000000D+00
406  4.0500000000000D+00  0.0000000000000D+00  0.0000000000000D+00
407  4.0600000000000D+00  0.0000000000000D+00  0.0000000000000D+00
408  4.0700000000000D+00  0.0000000000000D+00  0.0000000000000D+00
409  4.0800000000000D+00  0.0000000000000D+00  0.0000000000000D+00
410  4.0900000000000D+00  0.0000000000000D+00  0.0000000000000D+00
411  4.1000000000000D+00  0.0000000000000D+00  0.0000000000000D+00
412  4.1100000000000D+00  0.0000000000000D+00  0.0000000000000D+00
413  4.1200000000000D+00  0.0000000000000D+00  0.0000000000000D+00
414  4.1300000000000D+00  0.0000000000000D+00  0.0000000000000D+00
415  4.1400000000000D+00  0.0000000000000D+00  0.0000000000000D+00
416  4.1500000000000D+00  0.0000000000000D+00  0.0000000000000D+00
417  4.1600000000000D+00  0.0000000000000D+00  0.0000000000000D+00
418  4.1700000000000D+00  0.0000000000000D+00  0.0000000000000D+00
419  4.1800000000000D+00  0.0000000000000D+00  0.0000000000000D+00
420  4.1900000000000D+00  0.0000000000000D+00  0.0000000000000D+00
421  4.2000000000000D+00  0.0000000000000D+00  0.0000000000000D+00
422  4.2100000000000D+00  0.0000000000000D+00  0.0000000000000D+00
423  4.2200000000000D+00  0.0000000000000D+00  0.0000000000000D+00
424  4.2300000000000D+00  0.0000000000000D+00  0.0000000000000D+00
425  4.2400000000000D+00  0.0000000000000D+00  0.0000000000000D+00
426  4.2500000000000D+00  0.0000000000000D+00  0.0000000000000D+00
427  4.2600000000000D+00  0.0000000000000D+00  0.0000000000000D+00
428  4.2700000000000D+00  0.0000000000000D+00  0.0000000000000D+00
429  4.2800000000000D+00  0.0000000000000D+00  0.0000000000000D+00
430  4.2900000000000D+00  0.0000000000000D+00  0.0000000000000D+00
431  4.3000000000000D+00  0.0000000000000D+00  0.0000000000000D+00
432  4.3100000000000D+00  0.0000000000000D+00  0.0000000000000D+00
433  4.3200000000000D+00  0.0000000000000D+00  0.0000000000000D+00
434  4.3300000000000D+00  0.0000000000000D+00  0.0000000000000D+00
435  4.3400000000000D+00  0.0000000000000D+00  0.0000000000000D+00
436  4.3500000000000D+00  0.0000000000000D+00  0.0000000000000D+00
437  4.3600000000000D+00  0.0000000000000D+00  0.0000000000000D+00
438  4.3700000000000D+00  0.0000000000000D+00  0.0000000000000D+00
439  4.3800000000000D+00  0.0000000000000D+00  0.0000000000000D+00
440  4.3900000000000D+00  0.0000000000000D+00  0.0000000000000D+00
441  4.4000000000000D+00  0.0000000000000D+00  0.0000000000000D+00
442  4.4100000000000D+00  0.0000000000000D+00  0.0000000000000D+00
443  4.4200000000000D+00  0.0000000000000D+00  0.0000000000000D+00