Y     ONCVPSP-3.3.0  r_core=   1.60520   1.51226   1.56736
39.0000     11.0000      180419    zatom,zion,pspd
8      11   2     4   600     0    pspcod,pspxc,lmax,lloc,mmax,r2well
5.99000000  4.00000000  0.00000000    rchrg fchrg qchrg
2     3     3     0    nproj
3     1           extension_switch
4     4     0    nprojso
0                         8.7406344426705D-01  1.0167874775356D+01
1  0.0000000000000D+00 -2.5434974959548D-10  7.0376926508686D-11
2  1.0000000000000D-02 -1.0039645577143D-02  4.9178693393199D-02
3  2.0000000000000D-02 -2.0133482791362D-02  9.8323070673484D-02
4  3.0000000000000D-02 -3.0334760288436D-02  1.4739861247622D-01
5  4.0000000000000D-02 -4.0694849200808D-02  1.9637039523265D-01
6  5.0000000000000D-02 -5.1262325499399D-02  2.4520289479811D-01
7  6.0000000000000D-02 -6.2082077494828D-02  2.9385979690669D-01
8  7.0000000000000D-02 -7.3194446571300D-02  3.4230381664474D-01
9  8.0000000000000D-02 -8.4634408982021D-02  3.9049652906531D-01
10  9.0000000000000D-02 -9.6430806220258D-02  4.3839821297854D-01
11  1.0000000000000D-01 -1.0860563110747D-01  4.8596770984998D-01
12  1.1000000000000D-01 -1.2117337631145D-01  5.3316229961999D-01
13  1.2000000000000D-01 -1.3414045152678D-01  5.7993759512466D-01
14  1.3000000000000D-01 -1.4750467501942D-01  6.2624745665177D-01
15  1.4000000000000D-01 -1.6125484466211D-01  6.7204392800614D-01
16  1.5000000000000D-01 -1.7537039296975D-01  7.1727719528786D-01
17  1.6000000000000D-01 -1.8982112999000D-01  7.6189556940597D-01
18  1.7000000000000D-01 -2.0456707721746D-01  8.0584549315986D-01
19  1.8000000000000D-01 -2.1955839498517D-01  8.4907157352327D-01
20  1.9000000000000D-01 -2.3473540505078D-01  8.9151663956134D-01
21  2.0000000000000D-01 -2.5002870933949D-01  9.3312182620266D-01
22  2.1000000000000D-01 -2.6535940504064D-01  9.7382668387603D-01
23  2.2000000000000D-01 -2.8063939548155D-01  1.0135693138076D+00
24  2.3000000000000D-01 -2.9577179542927D-01  1.0522865285599D+00
25  2.4000000000000D-01 -3.1065142870281D-01  1.0899140371819D+00
26  2.5000000000000D-01 -3.2516541522022D-01  1.1263866541284D+00
27  2.6000000000000D-01 -3.3919384386402D-01  1.1616385309017D+00
28  2.7000000000000D-01 -3.5261052682887D-01  1.1956034091707D+00
29  2.8000000000000D-01 -3.6528383042303D-01  1.2282148939273D+00
30  2.9000000000000D-01 -3.7707757663583D-01  1.2594067450593D+00
31  3.0000000000000D-01 -3.8785200916174D-01  1.2891131855465D+00
32  3.1000000000000D-01 -3.9746481699255D-01  1.3172692243235D+00
33  3.2000000000000D-01 -4.0577220815740D-01  1.3438109917062D+00
34  3.3000000000000D-01 -4.1263002571124D-01  1.3686760851456D+00
35  3.4000000000000D-01 -4.1789489764708D-01  1.3918039229531D+00
36  3.5000000000000D-01 -4.2142541204407D-01  1.4131361035386D+00
37  3.6000000000000D-01 -4.2308330846040D-01  1.4326167676202D+00
38  3.7000000000000D-01 -4.2273467634415D-01  1.4501929607950D+00
39  3.8000000000000D-01 -4.2025115106714D-01  1.4658149938126D+00
40  3.9000000000000D-01 -4.1551109808760D-01  1.4794367978656D+00
41  4.0000000000000D-01 -4.0840077572121D-01  1.4910162722000D+00
42  4.1000000000000D-01 -3.9881546704480D-01  1.5005156213599D+00
43  4.2000000000000D-01 -3.8666057157506D-01  1.5079016794109D+00
44  4.3000000000000D-01 -3.7185264755537D-01  1.5131462185381D+00
45  4.4000000000000D-01 -3.5432039594627D-01  1.5162262394842D+00
46  4.5000000000000D-01 -3.3400557754838D-01  1.5171242413829D+00
47  4.6000000000000D-01 -3.1086385508912D-01  1.5158284686533D+00
48  4.7000000000000D-01 -2.8486555257361D-01  1.5123331327463D+00
49  4.8000000000000D-01 -2.5599632473317D-01  1.5066386066815D+00
50  4.9000000000000D-01 -2.2425772999884D-01  1.4987515904742D+00
51  5.0000000000000D-01 -1.8966770107769D-01  1.4886852457295D+00
52  5.1000000000000D-01 -1.5226090791282D-01  1.4764592978746D+00
53  5.2000000000000D-01 -1.1208900855924D-01  1.4621001047046D+00
54  5.3000000000000D-01 -6.9220784301324D-02  1.4456406901385D+00
55  5.4000000000000D-01 -2.3742156167478D-02  1.4271207423063D+00
56  5.5000000000000D-01  2.4243919138726D-02  1.4065865753301D+00
57  5.6000000000000D-01  7.4617674987064D-02  1.3840910544045D+00
58  5.7000000000000D-01  1.2724288243740D-01  1.3596934840332D+00
59  5.8000000000000D-01  1.8196731899827D-01  1.3334594595330D+00
60  5.9000000000000D-01  2.3862335687676D-01  1.3054606821729D+00
61  6.0000000000000D-01  2.9702866815196D-01  1.2757747385712D+00
62  6.1000000000000D-01  3.5698704339075D-01  1.2444848452296D+00
63  6.2000000000000D-01  4.1828931933429D-01  1.2116795593334D+00
64  6.3000000000000D-01  4.8071441040853D-01  1.1774524571909D+00
65  6.4000000000000D-01  5.4403043797632D-01  1.1419017819237D+00
66  6.5000000000000D-01  6.0799595044307D-01  1.1051300622470D+00
67  6.6000000000000D-01  6.7236122656884D-01  1.0672437043963D+00
68  6.7000000000000D-01  7.3686965363380D-01  1.0283525594591D+00
69  6.8000000000000D-01  8.0125917144923D-01  9.8856946856225D-01
70  6.9000000000000D-01  8.6526377261715D-01  9.4800978853384D-01
71  7.0000000000000D-01  9.2861504891885D-01  9.0679090082040D-01
72  7.1000000000000D-01  9.9104377326361D-01  8.6503170656975D-01
73  7.2000000000000D-01  1.0522815062526D+00  8.2285211091117D-01
74  7.3000000000000D-01  1.1120622161213D+00  7.8037249955700D-01
75  7.4000000000000D-01  1.1701239006129D+00  7.3771321092382D-01
76  7.5000000000000D-01  1.2262101992119D+00  6.9499400702098D-01
77  7.6000000000000D-01  1.2800719841299D+00  6.5233354638136D-01
78  7.7000000000000D-01  1.3314689184892D+00  6.0984886231217D-01
79  7.8000000000000D-01  1.3801709702927D+00  5.6765484972241D-01
80  7.9000000000000D-01  1.4259598710011D+00  5.2586376373901D-01
81  8.0000000000000D-01  1.4686305078565D+00  4.8458473325439D-01
82  8.1000000000000D-01  1.5079922395034D+00  4.4392329245637D-01
83  8.2000000000000D-01  1.5438701249459D+00  4.0398093327590D-01
84  8.3000000000000D-01  1.5761060564564D+00  3.6485468155069D-01
85  8.4000000000000D-01  1.6045597877005D+00  3.2663669954440D-01
86  8.5000000000000D-01  1.6291098490680D+00  2.8941391728196D-01
87  8.6000000000000D-01  1.6496543429942D+00  2.5326769496412D-01
88  8.7000000000000D-01  1.6661116129061D+00  2.1827351850891D-01
89  8.8000000000000D-01  1.6784207803464D+00  1.8450073003670D-01
90  8.9000000000000D-01  1.6865421457823D+00  1.5201229487015D-01
91  9.0000000000000D-01  1.6904574496138D+00  1.2086460636287D-01
92  9.1000000000000D-01  1.6901699909315D+00  9.1107329602167D-02
93  9.2000000000000D-01  1.6857046026383D+00  6.2783284755408D-02
94  9.3000000000000D-01  1.6771074826308D+00  3.5928370546485D-02
95  9.4000000000000D-01  1.6644458818296D+00  1.0571528062575D-02
96  9.5000000000000D-01  1.6478076509360D+00 -1.3265255196960D-02
97  9.6000000000000D-01  1.6273006488792D+00 -3.5566901404946D-02
98  9.7000000000000D-01  1.6030520169917D+00 -5.6325159287253D-02
99  9.8000000000000D-01  1.5752073239700D+00 -7.5538482736395D-02
100  9.9000000000000D-01  1.5439295877097D+00 -9.3211872374027D-02
101  1.0000000000000D+00  1.5093981810541D+00 -1.0935668153716D-01
102  1.0100000000000D+00  1.4718076294081D+00 -1.2399038841438D-01
103  1.0200000000000D+00  1.4313663090239D+00 -1.3713633629583D-01
104  1.0300000000000D+00  1.3882950555499D+00 -1.4882344412167D-01
105  1.0400000000000D+00  1.3428256931596D+00 -1.5908588972124D-01
106  1.0500000000000D+00  1.2951994951680D+00 -1.6796276830729D-01
107  1.0600000000000D+00  1.2456655876529D+00 -1.7549772897106D-01
108  1.0700000000000D+00  1.1944793080038D+00 -1.8173859205104D-01
109  1.0800000000000D+00  1.1419005307038D+00 -1.8673695037141D-01
110  1.0900000000000D+00  1.0881919729029D+00 -1.9054775743920D-01
111  1.1000000000000D+00  1.0336174925004D+00 -1.9322890575167D-01
112  1.1100000000000D+00  9.7844039152333D-01 -1.9484079841700D-01
113  1.1200000000000D+00  9.2292173752529D-01 -1.9544591729880D-01
114  1.1300000000000D+00  8.6731871555348D-01 -1.9510839088100D-01
115  1.1400000000000D+00  8.1188302302387D-01 -1.9389356502140D-01
116  1.1500000000000D+00  7.5685931944840D-01 -1.9186757969325D-01
117  1.1600000000000D+00  7.0248374250121D-01 -1.8909695472450D-01
118  1.1700000000000D+00  6.4898250126015D-01 -1.8564818740959D-01
119  1.1800000000000D+00  5.9657055704151D-01 -1.8158736478184D-01
120  1.1900000000000D+00  5.4545040125006D-01 -1.7697979311819D-01
121  1.2000000000000D+00  4.9581093892299D-01 -1.7188964708102D-01
122  1.2100000000000D+00  4.4782648572247D-01 -1.6637964069288D-01
123  1.2200000000000D+00  4.0165588538988D-01 -1.6051072217290D-01
124  1.2300000000000D+00  3.5744175324858D-01 -1.5434179433361D-01
125  1.2400000000000D+00  3.1530985025784D-01 -1.4792946198182D-01
126  1.2500000000000D+00  2.7536859175331D-01 -1.4132780768402D-01
127  1.2600000000000D+00  2.3770869275686D-01 -1.3458819672475D-01
128  1.2700000000000D+00  2.0240295092256D-01 -1.2775911188855D-01
129  1.2800000000000D+00  1.6950616776649D-01 -1.2088601859925D-01
130  1.2900000000000D+00  1.3905520639591D-01 -1.1401126036637D-01
131  1.3000000000000D+00  1.1106918305141D-01 -1.0717398426607D-01
132  1.3100000000000D+00  8.5549789742418D-02 -1.0041009617999D-01
133  1.3200000000000D+00  6.2481742298975D-02 -9.3752244794222D-02
134  1.3300000000000D+00  4.1833347877429D-02 -8.7229833285629D-02
135  1.3400000000000D+00  2.3557185775077D-02 -8.0869057583227D-02
136  1.3500000000000D+00  7.5908923064388D-03 -7.4692969322446D-02
137  1.3600000000000D+00 -6.1419587041178D-03 -6.8721561804850D-02
138  1.3700000000000D+00 -1.7730889566468D-02 -6.2971876956515D-02
139  1.3800000000000D+00 -2.7277478171263D-02 -5.7458130786448D-02
140  1.3900000000000D+00 -3.4894253736878D-02 -5.2191855146171D-02
141  1.4000000000000D+00 -4.0703541770067D-02 -4.7182052975797D-02
142  1.4100000000000D+00 -4.4836270813162D-02 -4.2435364291414D-02
143  1.4200000000000D+00 -4.7430753791008D-02 -3.7956240128644D-02
144  1.4300000000000D+00 -4.8631458047145D-02 -3.3747121283231D-02
145  1.4400000000000D+00 -4.8587777227991D-02 -2.9808618957666D-02
146  1.4500000000000D+00 -4.7452819361224D-02 -2.6139694083298D-02
147  1.4600000000000D+00 -4.5382225780221D-02 -2.2737832062945D-02
148  1.4700000000000D+00 -4.2533034844597D-02 -1.9599209787670D-02
149  1.4800000000000D+00 -3.9062602386741D-02 -1.6718851971969D-02
150  1.4900000000000D+00 -3.5127540509697D-02 -1.4090785311248D-02
151  1.5000000000000D+00 -3.0882600837471D-02 -1.1708202362649D-02
152  1.5100000000000D+00 -2.6480981815931D-02 -9.5633414443396D-03
153  1.5200000000000D+00 -2.2071823646074D-02 -7.6479292110583D-03
154  1.5300000000000D+00 -1.7796037887721D-02 -5.9539479497649D-03
155  1.5400000000000D+00 -1.3782636458779D-02 -4.4743521241347D-03
156  1.5500000000000D+00 -1.0144624149586D-02 -3.2041446527087D-03
157  1.5600000000000D+00 -6.9788272702776D-03 -2.1404652856340D-03
158  1.5700000000000D+00 -4.3487882984908D-03 -1.2788682842229D-03
159  1.5800000000000D+00 -2.3266894895924D-03 -6.2321500145578D-04
160  1.5900000000000D+00 -1.0216085785984D-03 -1.8826637224674D-04
161  1.6000000000000D+00 -3.7331143318170D-04  3.2902694576296D-05
162  1.6100000000000D+00 -1.0880711867341D-04  7.7688858387997D-05
163  1.6200000000000D+00 -1.4344107798179D-05  2.6452665221310D-05
164  1.6300000000000D+00  3.6943567484953D-06 -1.2804277596826D-05
165  1.6400000000000D+00  8.5930761241159D-07 -7.3623440350616D-06
166  1.6500000000000D+00 -1.4567690837212D-06  2.6087880493739D-06
167  1.6600000000000D+00 -7.1507487143842D-07  1.5135947831492D-06
168  1.6700000000000D+00  5.2567878837861D-07 -1.9037782583397D-07
169  1.6800000000000D+00  3.0538453828801D-07 -1.1059690009921D-07
170  1.6900000000000D+00  0.0000000000000D+00  0.0000000000000D+00
171  1.7000000000000D+00  0.0000000000000D+00  0.0000000000000D+00
172  1.7100000000000D+00  0.0000000000000D+00  0.0000000000000D+00
173  1.7200000000000D+00  0.0000000000000D+00  0.0000000000000D+00
174  1.7300000000000D+00  0.0000000000000D+00  0.0000000000000D+00
175  1.7400000000000D+00  0.0000000000000D+00  0.0000000000000D+00
176  1.7500000000000D+00  0.0000000000000D+00  0.0000000000000D+00
177  1.7600000000000D+00  0.0000000000000D+00  0.0000000000000D+00
178  1.7700000000000D+00  0.0000000000000D+00  0.0000000000000D+00
179  1.7800000000000D+00  0.0000000000000D+00  0.0000000000000D+00
180  1.7900000000000D+00  0.0000000000000D+00  0.0000000000000D+00
181  1.8000000000000D+00  0.0000000000000D+00  0.0000000000000D+00
182  1.8100000000000D+00  0.0000000000000D+00  0.0000000000000D+00
183  1.8200000000000D+00  0.0000000000000D+00  0.0000000000000D+00
184  1.8300000000000D+00  0.0000000000000D+00  0.0000000000000D+00
185  1.8400000000000D+00  0.0000000000000D+00  0.0000000000000D+00
186  1.8500000000000D+00  0.0000000000000D+00  0.0000000000000D+00
187  1.8600000000000D+00  0.0000000000000D+00  0.0000000000000D+00
188  1.8700000000000D+00  0.0000000000000D+00  0.0000000000000D+00
189  1.8800000000000D+00  0.0000000000000D+00  0.0000000000000D+00
190  1.8900000000000D+00  0.0000000000000D+00  0.0000000000000D+00
191  1.9000000000000D+00  0.0000000000000D+00  0.0000000000000D+00
192  1.9100000000000D+00  0.0000000000000D+00  0.0000000000000D+00
193  1.9200000000000D+00  0.0000000000000D+00  0.0000000000000D+00
194  1.9300000000000D+00  0.0000000000000D+00  0.0000000000000D+00
195  1.9400000000000D+00  0.0000000000000D+00  0.0000000000000D+00
196  1.9500000000000D+00  0.0000000000000D+00  0.0000000000000D+00
197  1.9600000000000D+00  0.0000000000000D+00  0.0000000000000D+00
198  1.9700000000000D+00  0.0000000000000D+00  0.0000000000000D+00
199  1.9800000000000D+00  0.0000000000000D+00  0.0000000000000D+00
200  1.9900000000000D+00  0.0000000000000D+00  0.0000000000000D+00
201  2.0000000000000D+00  0.0000000000000D+00  0.0000000000000D+00
202  2.0100000000000D+00  0.0000000000000D+00  0.0000000000000D+00
203  2.0200000000000D+00  0.0000000000000D+00  0.0000000000000D+00
204  2.0300000000000D+00  0.0000000000000D+00  0.0000000000000D+00
205  2.0400000000000D+00  0.0000000000000D+00  0.0000000000000D+00
206  2.0500000000000D+00  0.0000000000000D+00  0.0000000000000D+00
207  2.0600000000000D+00  0.0000000000000D+00  0.0000000000000D+00
208  2.0700000000000D+00  0.0000000000000D+00  0.0000000000000D+00
209  2.0800000000000D+00  0.0000000000000D+00  0.0000000000000D+00
210  2.0900000000000D+00  0.0000000000000D+00  0.0000000000000D+00
211  2.1000000000000D+00  0.0000000000000D+00  0.0000000000000D+00
212  2.1100000000000D+00  0.0000000000000D+00  0.0000000000000D+00
213  2.1200000000000D+00  0.0000000000000D+00  0.0000000000000D+00
214  2.1300000000000D+00  0.0000000000000D+00  0.0000000000000D+00
215  2.1400000000000D+00  0.0000000000000D+00  0.0000000000000D+00
216  2.1500000000000D+00  0.0000000000000D+00  0.0000000000000D+00
217  2.1600000000000D+00  0.0000000000000D+00  0.0000000000000D+00
218  2.1700000000000D+00  0.0000000000000D+00  0.0000000000000D+00
219  2.1800000000000D+00  0.0000000000000D+00  0.0000000000000D+00
220  2.1900000000000D+00  0.0000000000000D+00  0.0000000000000D+00
221  2.2000000000000D+00  0.0000000000000D+00  0.0000000000000D+00
222  2.2100000000000D+00  0.0000000000000D+00  0.0000000000000D+00
223  2.2200000000000D+00  0.0000000000000D+00  0.0000000000000D+00
224  2.2300000000000D+00  0.0000000000000D+00  0.0000000000000D+00
225  2.2400000000000D+00  0.0000000000000D+00  0.0000000000000D+00
226  2.2500000000000D+00  0.0000000000000D+00  0.0000000000000D+00
227  2.2600000000000D+00  0.0000000000000D+00  0.0000000000000D+00
228  2.2700000000000D+00  0.0000000000000D+00  0.0000000000000D+00
229  2.2800000000000D+00  0.0000000000000D+00  0.0000000000000D+00
230  2.2900000000000D+00  0.0000000000000D+00  0.0000000000000D+00
231  2.3000000000000D+00  0.0000000000000D+00  0.0000000000000D+00
232  2.3100000000000D+00  0.0000000000000D+00  0.0000000000000D+00
233  2.3200000000000D+00  0.0000000000000D+00  0.0000000000000D+00
234  2.3300000000000D+00  0.0000000000000D+00  0.0000000000000D+00
235  2.3400000000000D+00  0.0000000000000D+00  0.0000000000000D+00
236  2.3500000000000D+00  0.0000000000000D+00  0.0000000000000D+00
237  2.3600000000000D+00  0.0000000000000D+00  0.0000000000000D+00
238  2.3700000000000D+00  0.0000000000000D+00  0.0000000000000D+00
239  2.3800000000000D+00  0.0000000000000D+00  0.0000000000000D+00
240  2.3900000000000D+00  0.0000000000000D+00  0.0000000000000D+00
241  2.4000000000000D+00  0.0000000000000D+00  0.0000000000000D+00
242  2.4100000000000D+00  0.0000000000000D+00  0.0000000000000D+00
243  2.4200000000000D+00  0.0000000000000D+00  0.0000000000000D+00
244  2.4300000000000D+00  0.0000000000000D+00  0.0000000000000D+00
245  2.4400000000000D+00  0.0000000000000D+00  0.0000000000000D+00
246  2.4500000000000D+00  0.0000000000000D+00  0.0000000000000D+00
247  2.4600000000000D+00  0.0000000000000D+00  0.0000000000000D+00
248  2.4700000000000D+00  0.0000000000000D+00  0.0000000000000D+00
249  2.4800000000000D+00  0.0000000000000D+00  0.0000000000000D+00
250  2.4900000000000D+00  0.0000000000000D+00  0.0000000000000D+00
251  2.5000000000000D+00  0.0000000000000D+00  0.0000000000000D+00
252  2.5100000000000D+00  0.0000000000000D+00  0.0000000000000D+00
253  2.5200000000000D+00  0.0000000000000D+00  0.0000000000000D+00
254  2.5300000000000D+00  0.0000000000000D+00  0.0000000000000D+00
255  2.5400000000000D+00  0.0000000000000D+00  0.0000000000000D+00
256  2.5500000000000D+00  0.0000000000000D+00  0.0000000000000D+00
257  2.5600000000000D+00  0.0000000000000D+00  0.0000000000000D+00
258  2.5700000000000D+00  0.0000000000000D+00  0.0000000000000D+00
259  2.5800000000000D+00  0.0000000000000D+00  0.0000000000000D+00
260  2.5900000000000D+00  0.0000000000000D+00  0.0000000000000D+00
261  2.6000000000000D+00  0.0000000000000D+00  0.0000000000000D+00
262  2.6100000000000D+00  0.0000000000000D+00  0.0000000000000D+00
263  2.6200000000000D+00  0.0000000000000D+00  0.0000000000000D+00
264  2.6300000000000D+00  0.0000000000000D+00  0.0000000000000D+00
265  2.6400000000000D+00  0.0000000000000D+00  0.0000000000000D+00
266  2.6500000000000D+00  0.0000000000000D+00  0.0000000000000D+00
267  2.6600000000000D+00  0.0000000000000D+00  0.0000000000000D+00
268  2.6700000000000D+00  0.0000000000000D+00  0.0000000000000D+00
269  2.6800000000000D+00  0.0000000000000D+00  0.0000000000000D+00
270  2.6900000000000D+00  0.0000000000000D+00  0.0000000000000D+00
271  2.7000000000000D+00  0.0000000000000D+00  0.0000000000000D+00
272  2.7100000000000D+00  0.0000000000000D+00  0.0000000000000D+00
273  2.7200000000000D+00  0.0000000000000D+00  0.0000000000000D+00
274  2.7300000000000D+00  0.0000000000000D+00  0.0000000000000D+00
275  2.7400000000000D+00  0.0000000000000D+00  0.0000000000000D+00
276  2.7500000000000D+00  0.0000000000000D+00  0.0000000000000D+00
277  2.7600000000000D+00  0.0000000000000D+00  0.0000000000000D+00
278  2.7700000000000D+00  0.0000000000000D+00  0.0000000000000D+00
279  2.7800000000000D+00  0.0000000000000D+00  0.0000000000000D+00
280  2.7900000000000D+00  0.0000000000000D+00  0.0000000000000D+00
281  2.8000000000000D+00  0.0000000000000D+00  0.0000000000000D+00
282  2.8100000000000D+00  0.0000000000000D+00  0.0000000000000D+00
283  2.8200000000000D+00  0.0000000000000D+00  0.0000000000000D+00
284  2.8300000000000D+00  0.0000000000000D+00  0.0000000000000D+00
285  2.8400000000000D+00  0.0000000000000D+00  0.0000000000000D+00
286  2.8500000000000D+00  0.0000000000000D+00  0.0000000000000D+00
287  2.8600000000000D+00  0.0000000000000D+00  0.0000000000000D+00
288  2.8700000000000D+00  0.0000000000000D+00  0.0000000000000D+00
289  2.8800000000000D+00  0.0000000000000D+00  0.0000000000000D+00
290  2.8900000000000D+00  0.0000000000000D+00  0.0000000000000D+00
291  2.9000000000000D+00  0.0000000000000D+00  0.0000000000000D+00
292  2.9100000000000D+00  0.0000000000000D+00  0.0000000000000D+00
293  2.9200000000000D+00  0.0000000000000D+00  0.0000000000000D+00
294  2.9300000000000D+00  0.0000000000000D+00  0.0000000000000D+00
295  2.9400000000000D+00  0.0000000000000D+00  0.0000000000000D+00
296  2.9500000000000D+00  0.0000000000000D+00  0.0000000000000D+00
297  2.9600000000000D+00  0.0000000000000D+00  0.0000000000000D+00
298  2.9700000000000D+00  0.0000000000000D+00  0.0000000000000D+00
299  2.9800000000000D+00  0.0000000000000D+00  0.0000000000000D+00
300  2.9900000000000D+00  0.0000000000000D+00  0.0000000000000D+00
301  3.0000000000000D+00  0.0000000000000D+00  0.0000000000000D+00
302  3.0100000000000D+00  0.0000000000000D+00  0.0000000000000D+00
303  3.0200000000000D+00  0.0000000000000D+00  0.0000000000000D+00
304  3.0300000000000D+00  0.0000000000000D+00  0.0000000000000D+00
305  3.0400000000000D+00  0.0000000000000D+00  0.0000000000000D+00
306  3.0500000000000D+00  0.0000000000000D+00  0.0000000000000D+00
307  3.0600000000000D+00  0.0000000000000D+00  0.0000000000000D+00
308  3.0700000000000D+00  0.0000000000000D+00  0.0000000000000D+00
309  3.0800000000000D+00  0.0000000000000D+00  0.0000000000000D+00
310  3.0900000000000D+00  0.0000000000000D+00  0.0000000000000D+00
311  3.1000000000000D+00  0.0000000000000D+00  0.0000000000000D+00
312  3.1100000000000D+00  0.0000000000000D+00  0.0000000000000D+00
313  3.1200000000000D+00  0.0000000000000D+00  0.0000000000000D+00
314  3.1300000000000D+00  0.0000000000000D+00  0.0000000000000D+00
315  3.1400000000000D+00  0.0000000000000D+00  0.0000000000000D+00
316  3.1500000000000D+00  0.0000000000000D+00  0.0000000000000D+00
317  3.1600000000000D+00  0.0000000000000D+00  0.0000000000000D+00
318  3.1700000000000D+00  0.0000000000000D+00  0.0000000000000D+00
319  3.1800000000000D+00  0.0000000000000D+00  0.0000000000000D+00
320  3.1900000000000D+00  0.0000000000000D+00  0.0000000000000D+00
321  3.2000000000000D+00  0.0000000000000D+00  0.0000000000000D+00
322  3.2100000000000D+00  0.0000000000000D+00  0.0000000000000D+00
323  3.2200000000000D+00  0.0000000000000D+00  0.0000000000000D+00
324  3.2300000000000D+00  0.0000000000000D+00  0.0000000000000D+00
325  3.2400000000000D+00  0.0000000000000D+00  0.0000000000000D+00
326  3.2500000000000D+00  0.0000000000000D+00  0.0000000000000D+00
327  3.2600000000000D+00  0.0000000000000D+00  0.0000000000000D+00
328  3.2700000000000D+00  0.0000000000000D+00  0.0000000000000D+00
329  3.2800000000000D+00  0.0000000000000D+00  0.0000000000000D+00
330  3.2900000000000D+00  0.0000000000000D+00  0.0000000000000D+00
331  3.3000000000000D+00  0.0000000000000D+00  0.0000000000000D+00
332  3.3100000000000D+00  0.0000000000000D+00  0.0000000000000D+00
333  3.3200000000000D+00  0.0000000000000D+00  0.0000000000000D+00
334  3.3300000000000D+00  0.0000000000000D+00  0.0000000000000D+00
335  3.3400000000000D+00  0.0000000000000D+00  0.0000000000000D+00
336  3.3500000000000D+00  0.0000000000000D+00  0.0000000000000D+00
337  3.3600000000000D+00  0.0000000000000D+00  0.0000000000000D+00
338  3.3700000000000D+00  0.0000000000000D+00  0.0000000000000D+00
339  3.3800000000000D+00  0.0000000000000D+00  0.0000000000000D+00
340  3.3900000000000D+00  0.0000000000000D+00  0.0000000000000D+00
341  3.4000000000000D+00  0.0000000000000D+00  0.0000000000000D+00
342  3.4100000000000D+00  0.0000000000000D+00  0.0000000000000D+00
343  3.4200000000000D+00  0.0000000000000D+00  0.0000000000000D+00
344  3.4300000000000D+00  0.0000000000000D+00  0.0000000000000D+00
345  3.4400000000000D+00  0.0000000000000D+00  0.0000000000000D+00
346  3.4500000000000D+00  0.0000000000000D+00  0.0000000000000D+00
347  3.4600000000000D+00  0.0000000000000D+00  0.0000000000000D+00
348  3.4700000000000D+00  0.0000000000000D+00  0.0000000000000D+00
349  3.4800000000000D+00  0.0000000000000D+00  0.0000000000000D+00
350  3.4900000000000D+00  0.0000000000000D+00  0.0000000000000D+00
351  3.5000000000000D+00  0.0000000000000D+00  0.0000000000000D+00
352  3.5100000000000D+00  0.0000000000000D+00  0.0000000000000D+00
353  3.5200000000000D+00  0.0000000000000D+00  0.0000000000000D+00
354  3.5300000000000D+00  0.0000000000000D+00  0.0000000000000D+00
355  3.5400000000000D+00  0.0000000000000D+00  0.0000000000000D+00
356  3.5500000000000D+00  0.0000000000000D+00  0.0000000000000D+00
357  3.5600000000000D+00  0.0000000000000D+00  0.0000000000000D+00
358  3.5700000000000D+00  0.0000000000000D+00  0.0000000000000D+00
359  3.5800000000000D+00  0.0000000000000D+00  0.0000000000000D+00
360  3.5900000000000D+00  0.0000000000000D+00  0.0000000000000D+00
361  3.6000000000000D+00  0.0000000000000D+00  0.0000000000000D+00
362  3.6100000000000D+00  0.0000000000000D+00  0.0000000000000D+00
363  3.6200000000000D+00  0.0000000000000D+00  0.0000000000000D+00
364  3.6300000000000D+00  0.0000000000000D+00  0.0000000000000D+00
365  3.6400000000000D+00  0.0000000000000D+00  0.0000000000000D+00
366  3.6500000000000D+00  0.0000000000000D+00  0.0000000000000D+00
367  3.6600000000000D+00  0.0000000000000D+00  0.0000000000000D+00
368  3.6700000000000D+00  0.0000000000000D+00  0.0000000000000D+00
369  3.6800000000000D+00  0.0000000000000D+00  0.0000000000000D+00
370  3.6900000000000D+00  0.0000000000000D+00  0.0000000000000D+00
371  3.7000000000000D+00  0.0000000000000D+00  0.0000000000000D+00
372  3.7100000000000D+00  0.0000000000000D+00  0.0000000000000D+00
373  3.7200000000000D+00  0.0000000000000D+00  0.0000000000000D+00
374  3.7300000000000D+00  0.0000000000000D+00  0.0000000000000D+00
375  3.7400000000000D+00  0.0000000000000D+00  0.0000000000000D+00
376  3.7500000000000D+00  0.0000000000000D+00  0.0000000000000D+00
377  3.7600000000000D+00  0.0000000000000D+00  0.0000000000000D+00
378  3.7700000000000D+00  0.0000000000000D+00  0.0000000000000D+00
379  3.7800000000000D+00  0.0000000000000D+00  0.0000000000000D+00
380  3.7900000000000D+00  0.0000000000000D+00  0.0000000000000D+00
381  3.8000000000000D+00  0.0000000000000D+00  0.0000000000000D+00
382  3.8100000000000D+00  0.0000000000000D+00  0.0000000000000D+00
383  3.8200000000000D+00  0.0000000000000D+00  0.0000000000000D+00
384  3.8300000000000D+00  0.0000000000000D+00  0.0000000000000D+00
385  3.8400000000000D+00  0.0000000000000D+00  0.0000000000000D+00
386  3.8500000000000D+00  0.0000000000000D+00  0.0000000000000D+00
387  3.8600000000000D+00  0.0000000000000D+00  0.0000000000000D+00
388  3.8700000000000D+00  0.0000000000000D+00  0.0000000000000D+00
389  3.8800000000000D+00  0.0000000000000D+00  0.0000000000000D+00
390  3.8900000000000D+00  0.0000000000000D+00  0.0000000000000D+00
391  3.9000000000000D+00  0.0000000000000D+00  0.0000000000000D+00
392  3.9100000000000D+00  0.0000000000000D+00  0.0000000000000D+00
393  3.9200000000000D+00  0.0000000000000D+00  0.0000000000000D+00
394  3.9300000000000D+00  0.0000000000000D+00  0.0000000000000D+00
395  3.9400000000000D+00  0.0000000000000D+00  0.0000000000000D+00
396  3.9500000000000D+00  0.0000000000000D+00  0.0000000000000D+00
397  3.9600000000000D+00  0.0000000000000D+00  0.0000000000000D+00
398  3.9700000000000D+00  0.0000000000000D+00  0.0000000000000D+00
399  3.9800000000000D+00  0.0000000000000D+00  0.0000000000000D+00
400  3.9900000000000D+00  0.0000000000000D+00  0.0000000000000D+00
401  4.0000000000000D+00  0.0000000000000D+00  0.0000000000000D+00
402  4.0100000000000D+00  0.0000000000000D+00  0.0000000000000D+00
403  4.0200000000000D+00  0.0000000000000D+00  0.0000000000000D+00
404  4.0300000000000D+00  0.0000000000000D+00  0.0000000000000D+00
405  4.0400000000000D+00  0.0000000000000D+00  0.0000000000000D+00
406  4.0500000000000D+00  0.0000000000000D+00  0.0000000000000D+00
407  4.0600000000000D+00  0.0000000000000D+00  0.0000000000000D+00
408  4.0700000000000D+00  0.0000000000000D+00  0.0000000000000D+00
409  4.0800000000000D+00  0.0000000000000D+00  0.0000000000000D+00
410  4.0900000000000D+00  0.0000000000000D+00  0.0000000000000D+00
411  4.1000000000000D+00  0.0000000000000D+00  0.0000000000000D+00
412  4.1100000000000D+00  0.0000000000000D+00  0.0000000000000D+00
413  4.1200000000000D+00  0.0000000000000D+00  0.0000000000000D+00
414  4.1300000000000D+00  0.0000000000000D+00  0.0000000000000D+00
415  4.1400000000000D+00  0.0000000000000D+00  0.0000000000000D+00
416  4.1500000000000D+00  0.0000000000000D+00  0.0000000000000D+00
417  4.1600000000000D+00  0.0000000000000D+00  0.0000000000000D+00
418  4.1700000000000D+00  0.0000000000000D+00  0.0000000000000D+00
419  4.1800000000000D+00  0.0000000000000D+00  0.0000000000000D+00
420  4.1900000000000D+00  0.0000000000000D+00  0.0000000000000D+00
421  4.2000000000000D+00  0.0000000000000D+00  0.0000000000000D+00
422  4.2100000000000D+00  0.0000000000000D+00  0.0000000000000D+00
423  4.2200000000000D+00  0.0000000000000D+00  0.0000000000000D+00
424  4.2300000000000D+00  0.0000000000000D+00  0.0000000000000D+00
425  4.2400000000000D+00  0.0000000000000D+00  0.0000000000000D+00
426  4.2500000000000D+00  0.0000000000000D+00  0.0000000000000D+00
427  4.2600000000000D+00  0.0000000000000D+00  0.0000000000000D+00
428  4.2700000000000D+00  0.0000000000000D+00  0.0000000000000D+00
429  4.2800000000000D+00  0.0000000000000D+00  0.0000000000000D+00
430  4.2900000000000D+00  0.0000000000000D+00  0.0000000000000D+00
431  4.3000000000000D+00  0.0000000000000D+00  0.0000000000000D+00
432  4.3100000000000D+00  0.0000000000000D+00  0.0000000000000D+00
433  4.3200000000000D+00  0.0000000000000D+00  0.0000000000000D+00
434  4.3300000000000D+00  0.0000000000000D+00  0.0000000000000D+00
435  4.3400000000000D+00  0.0000000000000D+00  0.0000000000000D+00
436  4.3500000000000D+00  0.0000000000000D+00  0.0000000000000D+00
437  4.3600000000000D+00  0.0000000000000D+00  0.0000000000000D+00
438  4.3700000000000D+00  0.0000000000000D+00  0.0000000000000D+00
439  4.3800000000000D+00  0.0000000000000D+00  0.0000000000000D+00
440  4.3900000000000D+00  0.0000000000000D+00  0.0000000000000D+00
441  4.4000000000000D+00  0.0000000000000D+00  0.0000000000000D+00
442  4.4100000000000D+00  0.0000000000000D+00  0.0000000000000D+00
443  4.4200000000000D+00  0.0000000000000D+00  0.0000000000000D+00