Ca    ONCVPSP-3.3.0  r_core=   1.45885   1.45885   1.85192
20.0000     10.0000      180419    zatom,zion,pspd
8      11   2     4   400     0    pspcod,pspxc,lmax,lloc,mmax,r2well
3.99000000  6.00000000  0.00000000    rchrg fchrg qchrg
2     2     2     0    nproj
3     1           extension_switch
4     2     0    nprojso
0                         9.7217516656863D-01  1.0064012565370D+01
1  0.0000000000000D+00  1.4392214087167D-09 -3.4637070989163D-10
2  1.0000000000000D-02 -3.9351417487793D-02  7.0837645510616D-02
3  2.0000000000000D-02 -7.8451382360609D-02  1.4151714093479D-01
4  3.0000000000000D-02 -1.1705054295685D-01  2.1188101939705D-01
5  4.0000000000000D-02 -1.5490372321864D-01  2.8177317390499D-01
6  5.0000000000000D-02 -1.9177194510888D-01  3.5103952103368D-01
7  6.0000000000000D-02 -2.2742437360551D-01  4.1952864535137D-01
8  7.0000000000000D-02 -2.6164016018055D-01  4.8709241858016D-01
9  8.0000000000000D-02 -2.9421016211137D-01  5.5358658783128D-01
10  9.0000000000000D-02 -3.2493851673119D-01  6.1887132767843D-01
11  1.0000000000000D-01 -3.5364405178317D-01  6.8281175132691D-01
12  1.1000000000000D-01 -3.8016151536530D-01  7.4527837669520D-01
13  1.2000000000000D-01 -4.0434261151159D-01  8.0614754383993D-01
14  1.3000000000000D-01 -4.2605683020958D-01  8.6530178081685D-01
15  1.4000000000000D-01 -4.4519206356844D-01  9.2263011576942D-01
16  1.5000000000000D-01 -4.6165500288156D-01  9.7802833376341D-01
17  1.6000000000000D-01 -4.7537131443174D-01  1.0313991776290D+00
18  1.7000000000000D-01 -4.8628559501920D-01  1.0826524928217D+00
19  1.8000000000000D-01 -4.9436111130915D-01  1.1317053170575D+00
20  1.9000000000000D-01 -4.9957933015085D-01  1.1784819162072D+00
21  2.0000000000000D-01 -5.0193924996971D-01  1.2229137686376D+00
22  2.1000000000000D-01 -5.0145654613563D-01  1.2649395008514D+00
23  2.2000000000000D-01 -4.9816254582262D-01  1.3045047778994D+00
24  2.3000000000000D-01 -4.9210305026006D-01  1.3415621525999D+00
25  2.4000000000000D-01 -4.8333702439670D-01  1.3760708780997D+00
26  2.5000000000000D-01 -4.7193517582625D-01  1.4079966887411D+00
27  2.6000000000000D-01 -4.5797844632772D-01  1.4373115545429D+00
28  2.7000000000000D-01 -4.4155644053319D-01  1.4639934148759D+00
29  2.8000000000000D-01 -4.2276581703094D-01  1.4880258970844D+00
30  2.9000000000000D-01 -4.0170866763115D-01  1.5093980258976D+00
31  3.0000000000000D-01 -3.7849091055454D-01  1.5281039294635D+00
32  3.1000000000000D-01 -3.5322072295185D-01  1.5441425477448D+00
33  3.2000000000000D-01 -3.2600703742490D-01  1.5575173488224D+00
34  3.3000000000000D-01 -2.9695812610780D-01  1.5682360583736D+00
35  3.4000000000000D-01 -2.6618029439458D-01  1.5763104072297D+00
36  3.5000000000000D-01 -2.3377670458564D-01  1.5817559014689D+00
37  3.6000000000000D-01 -1.9984634759491D-01  1.5845916189842D+00
38  3.7000000000000D-01 -1.6448317844280D-01  1.5848400358801D+00
39  3.8000000000000D-01 -1.2777542858988D-01  1.5825268854082D+00
40  3.9000000000000D-01 -8.9805105280298D-02  1.5776810514592D+00
41  4.0000000000000D-01 -5.0647685005095D-02  1.5703344979006D+00
42  4.1000000000000D-01 -1.0372005006049D-02  1.5605222342915D+00
43  4.2000000000000D-01  3.0959646531594D-02  1.5482823177317D+00
44  4.3000000000000D-01  7.3291244257081D-02  1.5336558898295D+00
45  4.4000000000000D-01  1.1657254935594D-01  1.5166872469996D+00
46  4.5000000000000D-01  1.6075845235947D-01  1.4974239415589D+00
47  4.6000000000000D-01  2.0580814736404D-01  1.4759169103708D+00
48  4.7000000000000D-01  2.5168415292089D-01  1.4522206271156D+00
49  4.8000000000000D-01  2.9835119760893D-01  1.4263932736521D+00
50  4.9000000000000D-01  3.4577499080730D-01  1.3984969253798D+00
51  5.0000000000000D-01  3.9392090139577D-01  1.3685977450393D+00
52  5.1000000000000D-01  4.4275256899961D-01  1.3367661789932D+00
53  5.2000000000000D-01  4.9223047392353D-01  1.3030771497317D+00
54  5.3000000000000D-01  5.4231049306197D-01  1.2676102381404D+00
55  5.4000000000000D-01  5.9294246980828D-01  1.2304498489703D+00
56  5.5000000000000D-01  6.4406882629645D-01  1.1916853529505D+00
57  5.6000000000000D-01  6.9562324618639D-01  1.1514111991013D+00
58  5.7000000000000D-01  7.4752945564144D-01  1.1097269910204D+00
59  5.8000000000000D-01  7.9970012915032D-01  1.0667375212473D+00
60  5.9000000000000D-01  8.5203594542026D-01  1.0225527582397D+00
61  6.0000000000000D-01  9.0442481673259D-01  9.7728778102545D-01
62  6.1000000000000D-01  9.5674131292057D-01  9.3106265722203D-01
63  6.2000000000000D-01  1.0088462985455D+00  8.8400226082157D-01
64  6.3000000000000D-01  1.0605867989126D+00  8.3623602693200D-01
65  6.4000000000000D-01  1.1117961073688D+00  7.8789764151592D-01
66  6.5000000000000D-01  1.1622941428491D+00  7.3912466508238D-01
67  6.6000000000000D-01  1.2118880629732D+00  6.9005809024219D-01
68  6.7000000000000D-01  1.2603731341874D+00  6.4084183401847D-01
69  6.8000000000000D-01  1.3075338565187D+00  5.9162216681002D-01
70  6.9000000000000D-01  1.3531453365610D+00  5.4254708090651D-01
71  7.0000000000000D-01  1.3969748983630D+00  4.9376560244786D-01
72  7.1000000000000D-01  1.4387839180408D+00  4.4542705167999D-01
73  7.2000000000000D-01  1.4783298641782D+00  3.9768025728827D-01
74  7.3000000000000D-01  1.5153685225469D+00  3.5067273145179D-01
75  7.4000000000000D-01  1.5496563803699D+00  3.0454981306102D-01
76  7.5000000000000D-01  1.5809531423393D+00  2.5945378725620D-01
77  7.6000000000000D-01  1.6090243479384D+00  2.1552299006331D-01
78  7.7000000000000D-01  1.6336440573314D+00  1.7289090742133D-01
79  7.8000000000000D-01  1.6545975712319D+00  1.3168527829489D-01
80  7.9000000000000D-01  1.6716841487708D+00  9.2027211844174D-02
81  8.0000000000000D-01  1.6847196864706D+00  5.4030328774161D-02
82  8.1000000000000D-01  1.6935393210392D+00  1.7799937000583D-02
83  8.2000000000000D-01  1.6979999188120D+00 -1.6567748350206D-02
84  8.3000000000000D-01  1.6979824153257D+00 -4.8986330848140D-02
85  8.4000000000000D-01  1.6933939696763D+00 -7.9379895207774D-02
86  8.5000000000000D-01  1.6841699000126D+00 -1.0768359744008D-01
87  8.6000000000000D-01  1.6702753687069D+00 -1.3384417452510D-01
88  8.7000000000000D-01  1.6517067884168D+00 -1.5782036620036D-01
89  8.8000000000000D-01  1.6284929233714D+00 -1.7958324234992D-01
90  8.9000000000000D-01  1.6006956637406D+00 -1.9911643047148D-01
91  9.0000000000000D-01  1.5684104548395D+00 -2.1641623878245D-01
92  9.1000000000000D-01  1.5317663671235D+00 -2.3149167168637D-01
93  9.2000000000000D-01  1.4909257973974D+00 -2.4436433554382D-01
94  9.3000000000000D-01  1.4460837963288D+00 -2.5506823396207D-01
95  9.4000000000000D-01  1.3974670221545D+00 -2.6364945311704D-01
96  9.5000000000000D-01  1.3453323253472D+00 -2.7016573893394D-01
97  9.6000000000000D-01  1.2899649738779D+00 -2.7468596925842D-01
98  9.7000000000000D-01  1.2316765335590D+00 -2.7728952544505D-01
99  9.8000000000000D-01  1.1708024225508D+00 -2.7806556901130D-01
100  9.9000000000000D-01  1.1076991636673D+00 -2.7711223021257D-01
101  1.0000000000000D+00  1.0427413623086D+00 -2.7453571649757D-01
102  1.0100000000000D+00  9.7631844170626D-01 -2.7044934981804D-01
103  1.0200000000000D+00  9.0883117068066D-01 -2.6497254268395D-01
104  1.0300000000000D+00  8.4068802215318D-01 -2.5822972364654D-01
105  1.0400000000000D+00  7.7230140325780D-01 -2.5034922356159D-01
106  1.0500000000000D+00  7.0408379980858D-01 -2.4146213447370D-01
107  1.0600000000000D+00  6.3644387954264D-01 -2.3170115337844D-01
108  1.0700000000000D+00  5.6978259927811D-01 -2.2119942328877D-01
109  1.0800000000000D+00  5.0448936148520D-01 -2.1008938410349D-01
110  1.0900000000000D+00  4.4093826526113D-01 -1.9850164561569D-01
111  1.1000000000000D+00  3.7948449602490D-01 -1.8656389480111D-01
112  1.1100000000000D+00  3.2046089636130D-01 -1.7439984899869D-01
113  1.1200000000000D+00  2.6417475845526D-01 -1.6212826605067D-01
114  1.1300000000000D+00  2.1090487549136D-01 -1.4986202163440D-01
115  1.1400000000000D+00  1.6089888659896D-01 -1.3770726326127D-01
116  1.1500000000000D+00  1.1437094578371D-01 -1.2576264930126D-01
117  1.1600000000000D+00  7.1499741045140D-02 -1.1411868025338D-01
118  1.1700000000000D+00  3.2426884794482D-02 -1.0285712812036D-01
119  1.1800000000000D+00 -2.7443068593214D-03 -9.2050568796756D-02
120  1.1900000000000D+00 -3.3949635263902D-02 -8.1762020543767D-02
121  1.2000000000000D+00 -6.1164434999151D-02 -7.2044690326908D-02
122  1.2100000000000D+00 -8.4403584154404D-02 -6.2941828275260D-02
123  1.2200000000000D+00 -1.0372111329486D-01 -5.4486689374596D-02
124  1.2300000000000D+00 -1.1920942532544D-01 -4.6702599375868D-02
125  1.2400000000000D+00 -1.3099814318090D-01 -3.9603120647603D-02
126  1.2500000000000D+00 -1.3925260476185D-01 -3.3192313038749D-02
127  1.2600000000000D+00 -1.4417203426333D-01 -2.7465082237563D-02
128  1.2700000000000D+00 -1.4598742876729D-01 -2.2407606007863D-02
129  1.2800000000000D+00 -1.4495914860570D-01 -1.7997838576986D-02
130  1.2900000000000D+00 -1.4137441263637D-01 -1.4206050301494D-02
131  1.3000000000000D+00 -1.3554408735953D-01 -1.0995523948917D-02
132  1.3100000000000D+00 -1.2780119333789D-01 -8.3229143574875D-03
133  1.3200000000000D+00 -1.1849529218134D-01 -6.1394462120732D-03
134  1.3300000000000D+00 -1.0798355556989D-01 -4.3927829381510D-03
135  1.3400000000000D+00 -9.6621269098457D-02 -3.0291074839316D-03
136  1.3500000000000D+00 -8.4754401118620D-02 -1.9948125352340D-03
137  1.3600000000000D+00 -7.2716787036117D-02 -1.2372929694068D-03
138  1.3700000000000D+00 -6.0825784842704D-02 -7.0602860295134D-04
139  1.3800000000000D+00 -4.9378474317373D-02 -3.5355121706628D-04
140  1.3900000000000D+00 -3.8648053733525D-02 -1.3636071882286D-04
141  1.4000000000000D+00 -2.8880571223668D-02 -1.5759749864524D-05
142  1.4100000000000D+00 -2.0294385175014D-02  4.1433051415627D-05
143  1.4200000000000D+00 -1.3070367705297D-02  6.2107677082177D-05
144  1.4300000000000D+00 -7.3195059754554D-03  6.5305144236153D-05
145  1.4400000000000D+00 -3.2425131292689D-03  6.6741421787138D-05
146  1.4500000000000D+00 -9.9556482147904D-04  7.6515433287155D-05
147  1.4600000000000D+00 -1.2974632033692D-04  6.9020331774577D-05
148  1.4700000000000D+00  3.3160486131695D-05  2.6054306021020D-05
149  1.4800000000000D+00 -1.3725161260531D-05 -5.8912513238548D-06
150  1.4900000000000D+00 -1.3266419010148D-05 -4.3319938110206D-06
151  1.5000000000000D+00  2.5902005986823D-06  1.6112777610598D-06
152  1.5100000000000D+00  1.0218333518093D-06  5.4047440297047D-07
153  1.5200000000000D+00  5.1716551220698D-07 -2.0463018049058D-07
154  1.5300000000000D+00  1.2578527094738D-08 -4.9770261336991D-09
155  1.5400000000000D+00  0.0000000000000D+00  0.0000000000000D+00
156  1.5500000000000D+00  0.0000000000000D+00  0.0000000000000D+00
157  1.5600000000000D+00  0.0000000000000D+00  0.0000000000000D+00
158  1.5700000000000D+00  0.0000000000000D+00  0.0000000000000D+00
159  1.5800000000000D+00  0.0000000000000D+00  0.0000000000000D+00
160  1.5900000000000D+00  0.0000000000000D+00  0.0000000000000D+00
161  1.6000000000000D+00  0.0000000000000D+00  0.0000000000000D+00
162  1.6100000000000D+00  0.0000000000000D+00  0.0000000000000D+00
163  1.6200000000000D+00  0.0000000000000D+00  0.0000000000000D+00
164  1.6300000000000D+00  0.0000000000000D+00  0.0000000000000D+00
165  1.6400000000000D+00  0.0000000000000D+00  0.0000000000000D+00
166  1.6500000000000D+00  0.0000000000000D+00  0.0000000000000D+00
167  1.6600000000000D+00  0.0000000000000D+00  0.0000000000000D+00
168  1.6700000000000D+00  0.0000000000000D+00  0.0000000000000D+00
169  1.6800000000000D+00  0.0000000000000D+00  0.0000000000000D+00
170  1.6900000000000D+00  0.0000000000000D+00  0.0000000000000D+00
171  1.7000000000000D+00  0.0000000000000D+00  0.0000000000000D+00
172  1.7100000000000D+00  0.0000000000000D+00  0.0000000000000D+00
173  1.7200000000000D+00  0.0000000000000D+00  0.0000000000000D+00
174  1.7300000000000D+00  0.0000000000000D+00  0.0000000000000D+00
175  1.7400000000000D+00  0.0000000000000D+00  0.0000000000000D+00
176  1.7500000000000D+00  0.0000000000000D+00  0.0000000000000D+00
177  1.7600000000000D+00  0.0000000000000D+00  0.0000000000000D+00
178  1.7700000000000D+00  0.0000000000000D+00  0.0000000000000D+00
179  1.7800000000000D+00  0.0000000000000D+00  0.0000000000000D+00
180  1.7900000000000D+00  0.0000000000000D+00  0.0000000000000D+00
181  1.8000000000000D+00  0.0000000000000D+00  0.0000000000000D+00
182  1.8100000000000D+00  0.0000000000000D+00  0.0000000000000D+00
183  1.8200000000000D+00  0.0000000000000D+00  0.0000000000000D+00
184  1.8300000000000D+00  0.0000000000000D+00  0.0000000000000D+00
185  1.8400000000000D+00  0.0000000000000D+00  0.0000000000000D+00
186  1.8500000000000D+00  0.0000000000000D+00  0.0000000000000D+00
187  1.8600000000000D+00  0.0000000000000D+00  0.0000000000000D+00
188  1.8700000000000D+00  0.0000000000000D+00  0.0000000000000D+00
189  1.8800000000000D+00  0.0000000000000D+00  0.0000000000000D+00
190  1.8900000000000D+00  0.0000000000000D+00  0.0000000000000D+00
191  1.9000000000000D+00  0.0000000000000D+00  0.0000000000000D+00
192  1.9100000000000D+00  0.0000000000000D+00  0.0000000000000D+00
193  1.9200000000000D+00  0.0000000000000D+00  0.0000000000000D+00
194  1.9300000000000D+00  0.0000000000000D+00  0.0000000000000D+00
195  1.9400000000000D+00  0.0000000000000D+00  0.0000000000000D+00
196  1.9500000000000D+00  0.0000000000000D+00  0.0000000000000D+00
197  1.9600000000000D+00  0.0000000000000D+00  0.0000000000000D+00
198  1.9700000000000D+00  0.0000000000000D+00  0.0000000000000D+00
199  1.9800000000000D+00  0.0000000000000D+00  0.0000000000000D+00
200  1.9900000000000D+00  0.0000000000000D+00  0.0000000000000D+00
201  2.0000000000000D+00  0.0000000000000D+00  0.0000000000000D+00
202  2.0100000000000D+00  0.0000000000000D+00  0.0000000000000D+00
203  2.0200000000000D+00  0.0000000000000D+00  0.0000000000000D+00
204  2.0300000000000D+00  0.0000000000000D+00  0.0000000000000D+00
205  2.0400000000000D+00  0.0000000000000D+00  0.0000000000000D+00
206  2.0500000000000D+00  0.0000000000000D+00  0.0000000000000D+00
207  2.0600000000000D+00  0.0000000000000D+00  0.0000000000000D+00
208  2.0700000000000D+00  0.0000000000000D+00  0.0000000000000D+00
209  2.0800000000000D+00  0.0000000000000D+00  0.0000000000000D+00
210  2.0900000000000D+00  0.0000000000000D+00  0.0000000000000D+00
211  2.1000000000000D+00  0.0000000000000D+00  0.0000000000000D+00
212  2.1100000000000D+00  0.0000000000000D+00  0.0000000000000D+00
213  2.1200000000000D+00  0.0000000000000D+00  0.0000000000000D+00
214  2.1300000000000D+00  0.0000000000000D+00  0.0000000000000D+00
215  2.1400000000000D+00  0.0000000000000D+00  0.0000000000000D+00
216  2.1500000000000D+00  0.0000000000000D+00  0.0000000000000D+00
217  2.1600000000000D+00  0.0000000000000D+00  0.0000000000000D+00
218  2.1700000000000D+00  0.0000000000000D+00  0.0000000000000D+00
219  2.1800000000000D+00  0.0000000000000D+00  0.0000000000000D+00
220  2.1900000000000D+00  0.0000000000000D+00  0.0000000000000D+00
221  2.2000000000000D+00  0.0000000000000D+00  0.0000000000000D+00
222  2.2100000000000D+00  0.0000000000000D+00  0.0000000000000D+00
223  2.2200000000000D+00  0.0000000000000D+00  0.0000000000000D+00
224  2.2300000000000D+00  0.0000000000000D+00  0.0000000000000D+00
225  2.2400000000000D+00  0.0000000000000D+00  0.0000000000000D+00
226  2.2500000000000D+00  0.0000000000000D+00  0.0000000000000D+00
227  2.2600000000000D+00  0.0000000000000D+00  0.0000000000000D+00
228  2.2700000000000D+00  0.0000000000000D+00  0.0000000000000D+00
229  2.2800000000000D+00  0.0000000000000D+00  0.0000000000000D+00
230  2.2900000000000D+00  0.0000000000000D+00  0.0000000000000D+00
231  2.3000000000000D+00  0.0000000000000D+00  0.0000000000000D+00
232  2.3100000000000D+00  0.0000000000000D+00  0.0000000000000D+00
233  2.3200000000000D+00  0.0000000000000D+00  0.0000000000000D+00
234  2.3300000000000D+00  0.0000000000000D+00  0.0000000000000D+00
235  2.3400000000000D+00  0.0000000000000D+00  0.0000000000000D+00
236  2.3500000000000D+00  0.0000000000000D+00  0.0000000000000D+00
237  2.3600000000000D+00  0.0000000000000D+00  0.0000000000000D+00
238  2.3700000000000D+00  0.0000000000000D+00  0.0000000000000D+00
239  2.3800000000000D+00  0.0000000000000D+00  0.0000000000000D+00
240  2.3900000000000D+00  0.0000000000000D+00  0.0000000000000D+00
241  2.4000000000000D+00  0.0000000000000D+00  0.0000000000000D+00
242  2.4100000000000D+00  0.0000000000000D+00  0.0000000000000D+00
243  2.4200000000000D+00  0.0000000000000D+00  0.0000000000000D+00
244  2.4300000000000D+00  0.0000000000000D+00  0.0000000000000D+00
245  2.4400000000000D+00  0.0000000000000D+00  0.0000000000000D+00
246  2.4500000000000D+00  0.0000000000000D+00  0.0000000000000D+00
247  2.4600000000000D+00  0.0000000000000D+00  0.0000000000000D+00
248  2.4700000000000D+00  0.0000000000000D+00  0.0000000000000D+00
249  2.4800000000000D+00  0.0000000000000D+00  0.0000000000000D+00
250  2.4900000000000D+00  0.0000000000000D+00  0.0000000000000D+00
251  2.5000000000000D+00  0.0000000000000D+00  0.0000000000000D+00
252  2.5100000000000D+00  0.0000000000000D+00  0.0000000000000D+00
253  2.5200000000000D+00  0.0000000000000D+00  0.0000000000000D+00
254  2.5300000000000D+00  0.0000000000000D+00  0.0000000000000D+00
255  2.5400000000000D+00  0.0000000000000D+00  0.0000000000000D+00
256  2.5500000000000D+00  0.0000000000000D+00  0.0000000000000D+00
257  2.5600000000000D+00  0.0000000000000D+00  0.0000000000000D+00
258  2.5700000000000D+00  0.0000000000000D+00  0.0000000000000D+00
259  2.5800000000000D+00  0.0000000000000D+00  0.0000000000000D+00
260  2.5900000000000D+00  0.0000000000000D+00  0.0000000000000D+00
261  2.6000000000000D+00  0.0000000000000D+00  0.0000000000000D+00
262  2.6100000000000D+00  0.0000000000000D+00  0.0000000000000D+00
263  2.6200000000000D+00  0.0000000000000D+00  0.0000000000000D+00
264  2.6300000000000D+00  0.0000000000000D+00  0.0000000000000D+00
265  2.6400000000000D+00  0.0000000000000D+00  0.0000000000000D+00
266  2.6500000000000D+00  0.0000000000000D+00  0.0000000000000D+00
267  2.6600000000000D+00  0.0000000000000D+00  0.0000000000000D+00
268  2.6700000000000D+00  0.0000000000000D+00  0.0000000000000D+00
269  2.6800000000000D+00  0.0000000000000D+00  0.0000000000000D+00
270  2.6900000000000D+00  0.0000000000000D+00  0.0000000000000D+00
271  2.7000000000000D+00  0.0000000000000D+00  0.0000000000000D+00
272  2.7100000000000D+00  0.0000000000000D+00  0.0000000000000D+00
273  2.7200000000000D+00  0.0000000000000D+00  0.0000000000000D+00
274  2.7300000000000D+00  0.0000000000000D+00  0.0000000000000D+00
275  2.7400000000000D+00  0.0000000000000D+00  0.0000000000000D+00
276  2.7500000000000D+00  0.0000000000000D+00  0.0000000000000D+00
277  2.7600000000000D+00  0.0000000000000D+00  0.0000000000000D+00
278  2.7700000000000D+00  0.0000000000000D+00  0.0000000000000D+00
279  2.7800000000000D+00  0.0000000000000D+00  0.0000000000000D+00
280  2.7900000000000D+00  0.0000000000000D+00  0.0000000000000D+00
281  2.8000000000000D+00  0.0000000000000D+00  0.0000000000000D+00
282  2.8100000000000D+00  0.0000000000000D+00  0.0000000000000D+00
283  2.8200000000000D+00  0.0000000000000D+00  0.0000000000000D+00
284  2.8300000000000D+00  0.0000000000000D+00  0.0000000000000D+00
285  2.8400000000000D+00  0.0000000000000D+00  0.0000000000000D+00
286  2.8500000000000D+00  0.0000000000000D+00  0.0000000000000D+00
287  2.8600000000000D+00  0.0000000000000D+00  0.0000000000000D+00
288  2.8700000000000D+00  0.0000000000000D+00  0.0000000000000D+00
289  2.8800000000000D+00  0.0000000000000D+00  0.0000000000000D+00
290  2.8900000000000D+00  0.0000000000000D+00  0.0000000000000D+00
291  2.9000000000000D+00  0.0000000000000D+00  0.0000000000000D+00
292  2.9100000000000D+00  0.0000000000000D+00  0.0000000000000D+00
293  2.9200000000000D+00  0.0000000000000D+00  0.0000000000000D+00
294  2.9300000000000D+00  0.0000000000000D+00  0.0000000000000D+00
295  2.9400000000000D+00  0.0000000000000D+00  0.0000000000000D+00
296  2.9500000000000D+00  0.0000000000000D+00  0.0000000000000D+00
297  2.9600000000000D+00  0.0000000000000D+00  0.0000000000000D+00
298  2.9700000000000D+00  0.0000000000000D+00  0.0000000000000D+00
299  2.9800000000000D+00  0.0000000000000D+00  0.0000000000000D+00
300  2.9900000000000D+00  0.0000000000000D+00  0.0000000000000D+00
301  3.0000000000000D+00  0.0000000000000D+00  0.0000000000000D+00
302  3.0100000000000D+00  0.0000000000000D+00  0.0000000000000D+00
303  3.0200000000000D+00  0.0000000000000D+00  0.0000000000000D+00
304  3.0300000000000D+00  0.0000000000000D+00  0.0000000000000D+00
305  3.0400000000000D+00  0.0000000000000D+00  0.0000000000000D+00
306  3.0500000000000D+00  0.0000000000000D+00  0.0000000000000D+00
307  3.0600000000000D+00  0.0000000000000D+00  0.0000000000000D+00
308  3.0700000000000D+00  0.0000000000000D+00  0.0000000000000D+00
309  3.0800000000000D+00  0.0000000000000D+00  0.0000000000000D+00
310  3.0900000000000D+00  0.0000000000000D+00  0.0000000000000D+00
311  3.1000000000000D+00  0.0000000000000D+00  0.0000000000000D+00
312  3.1100000000000D+00  0.0000000000000D+00  0.0000000000000D+00
313  3.1200000000000D+00  0.0000000000000D+00  0.0000000000000D+00
314  3.1300000000000D+00  0.0000000000000D+00  0.0000000000000D+00
315  3.1400000000000D+00  0.0000000000000D+00  0.0000000000000D+00
316  3.1500000000000D+00  0.0000000000000D+00  0.0000000000000D+00
317  3.1600000000000D+00  0.0000000000000D+00  0.0000000000000D+00
318  3.1700000000000D+00  0.0000000000000D+00  0.0000000000000D+00
319  3.1800000000000D+00  0.0000000000000D+00  0.0000000000000D+00
320  3.1900000000000D+00  0.0000000000000D+00  0.0000000000000D+00
321  3.2000000000000D+00  0.0000000000000D+00  0.0000000000000D+00
322  3.2100000000000D+00  0.0000000000000D+00  0.0000000000000D+00
323  3.2200000000000D+00  0.0000000000000D+00  0.0000000000000D+00
324  3.2300000000000D+00  0.0000000000000D+00  0.0000000000000D+00
325  3.2400000000000D+00  0.0000000000000D+00  0.0000000000000D+00
326  3.2500000000000D+00  0.0000000000000D+00  0.0000000000000D+00
327  3.2600000000000D+00  0.0000000000000D+00  0.0000000000000D+00
328  3.2700000000000D+00  0.0000000000000D+00  0.0000000000000D+00
329  3.2800000000000D+00  0.0000000000000D+00  0.0000000000000D+00
330  3.2900000000000D+00  0.0000000000000D+00  0.0000000000000D+00
331  3.3000000000000D+00  0.0000000000000D+00  0.0000000000000D+00
332  3.3100000000000D+00  0.0000000000000D+00  0.0000000000000D+00
333  3.3200000000000D+00  0.0000000000000D+00  0.0000000000000D+00
334  3.3300000000000D+00  0.0000000000000D+00  0.0000000000000D+00
335  3.3400000000000D+00  0.0000000000000D+00  0.0000000000000D+00
336  3.3500000000000D+00  0.0000000000000D+00  0.0000000000000D+00
337  3.3600000000000D+00  0.0000000000000D+00  0.0000000000000D+00
338  3.3700000000000D+00  0.0000000000000D+00  0.0000000000000D+00
339  3.3800000000000D+00  0.0000000000000D+00  0.0000000000000D+00
340  3.3900000000000D+00  0.0000000000000D+00  0.0000000000000D+00
341  3.4000000000000D+00  0.0000000000000D+00  0.0000000000000D+00
342  3.4100000000000D+00  0.0000000000000D+00  0.0000000000000D+00
343  3.4200000000000D+00  0.0000000000000D+00  0.0000000000000D+00
344  3.4300000000000D+00  0.0000000000000D+00  0.0000000000000D+00
345  3.4400000000000D+00  0.0000000000000D+00  0.0000000000000D+00
346  3.4500000000000D+00  0.0000000000000D+00  0.0000000000000D+00
347  3.4600000000000D+00  0.0000000000000D+00  0.0000000000000D+00
348  3.4700000000000D+00  0.0000000000000D+00  0.0000000000000D+00
349  3.4800000000000D+00  0.0000000000000D+00  0.0000000000000D+00
350  3.4900000000000D+00  0.0000000000000D+00  0.0000000000000D+00
351  3.5000000000000D+00  0.0000000000000D+00  0.0000000000000D+00
352  3.5100000000000D+00  0.0000000000000D+00  0.0000000000000D+00
353  3.5200000000000D+00  0.0000000000000D+00  0.0000000000000D+00
354  3.5300000000000D+00  0.0000000000000D+00  0.0000000000000D+00
355  3.5400000000000D+00  0.0000000000000D+00  0.0000000000000D+00
356  3.5500000000000D+00  0.0000000000000D+00  0.0000000000000D+00
357  3.5600000000000D+00  0.0000000000000D+00  0.0000000000000D+00
358  3.5700000000000D+00  0.0000000000000D+00  0.0000000000000D+00
359  3.5800000000000D+00  0.0000000000000D+00  0.0000000000000D+00
360  3.5900000000000D+00  0.0000000000000D+00  0.0000000000000D+00
361  3.6000000000000D+00  0.0000000000000D+00  0.0000000000000D+00
362  3.6100000000000D+00  0.0000000000000D+00  0.0000000000000D+00
363  3.6200000000000D+00  0.0000000000000D+00  0.0000000000000D+00
364  3.6300000000000D+00  0.0000000000000D+00  0.0000000000000D+00
365  3.6400000000000D+00  0.0000000000000D+00  0.0000000000000D+00
366  3.6500000000000D+00  0.0000000000000D+00  0.0000000000000D+00
367  3.6600000000000D+00  0.0000000000000D+00  0.0000000000000D+00
368  3.6700000000000D+00  0.0000000000000D+00  0.0000000000000D+00
369  3.6800000000000D+00  0.0000000000000D+00  0.0000000000000D+00
370  3.6900000000000D+00  0.0000000000000D+00  0.0000000000000D+00
371  3.7000000000000D+00  0.0000000000000D+00  0.0000000000000D+00
372  3.7100000000000D+00  0.0000000000000D+00  0.0000000000000D+00
373  3.7200000000000D+00  0.0000000000000D+00  0.0000000000000D+00
374  3.7300000000000D+00  0.0000000000000D+00  0.0000000000000D+00
375  3.7400000000000D+00  0.0000000000000D+00  0.0000000000000D+00
376  3.7500000000000D+00  0.0000000000000D+00  0.0000000000000D+00
377  3.7600000000000D+00  0.0000000000000D+00  0.0000000000000D+00
378  3.7700000000000D+00  0.0000000000000D+00  0.0000000000000D+00
379  3.7800000000000D+00  0.0000000000000D+00  0.0000000000000D+00
380  3.7900000000000D+00  0.0000000000000D+00  0.0000000000000D+00
381  3.8000000000000D+00  0.0000000000000D+00  0.0000000000000D+00
382  3.8100000000000D+00  0.0000000000000D+00  0.0000000000000D+00
383  3.8200000000000D+00  0.0000000000000D+00  0.0000000000000D+00
384  3.8300000000000D+00  0.0000000000000D+00  0.0000000000000D+00
385  3.8400000000000D+00  0.0000000000000D+00  0.0000000000000D+00
386  3.8500000000000D+00  0.0000000000000D+00  0.0000000000000D+00
387  3.8600000000000D+00  0.0000000000000D+00  0.0000000000000D+00
388  3.8700000000000D+00  0.0000000000000D+00  0.0000000000000D+00
389  3.8800000000000D+00  0.0000000000000D+00  0.0000000000000D+00
390  3.8900000000000D+00  0.0000000000000D+00  0.0000000000000D+00
391  3.9000000000000D+00  0.0000000000000D+00  0.0000000000000D+00
392  3.9100000000000D+00  0.0000000000000D+00  0.0000000000000D+00
393  3.9200000000000D+00  0.0000000000000D+00  0.0000000000000D+00
394  3.9300000000000D+00  0.0000000000000D+00  0.0000000000000D+00
395  3.9400000000000D+00  0.0000000000000D+00  0.0000000000000D+00
396  3.9500000000000D+00  0.0000000000000D+00  0.0000000000000D+00
397  3.9600000000000D+00  0.0000000000000D+00  0.0000000000000D+00
398  3.9700000000000D+00  0.0000000000000D+00  0.0000000000000D+00
399  3.9800000000000D+00  0.0000000000000D+00  0.0000000000000D+00
400  3.9900000000000D+00  0.0000000000000D+00  0.0000000000000D+00
1                         3.0504969845688D+00  4.7193154773589D-01
1  0.0000000000000D+00  2.9584166366670D-09 -7.6115272557020D-09
2  1.0000000000000D-02  1.9929858808588D-03 -1.3266379678827D-03
3  2.0000000000000D-02  7.9597314413670D-03 -5.2883075354811D-03
4  3.0000000000000D-02  1.7863719424898D-02 -1.1830542290580D-02
5  4.0000000000000D-02  3.1644482673558D-02 -2.0863449145770D-02
6  5.0000000000000D-02  4.9218190626751D-02 -3.2263019458615D-02
7  6.0000000000000D-02  7.0478458705487D-02 -4.5872934306735D-02
8  7.0000000000000D-02  9.5297369098402D-02 -6.1506834241720D-02
9  8.0000000000000D-02  1.2352668850698D-01 -7.8951016234296D-02
10  9.0000000000000D-02  1.5499926568485D-01 -9.7967513545203D-02
11  1.0000000000000D-01  1.8953058916217D-01 -1.1829750802680D-01
12  1.1000000000000D-01  2.2692048342083D-01 -1.3966501898728D-01
13  1.2000000000000D-01  2.6695492001456D-01 -1.6178080832375D-01
14  1.3000000000000D-01  3.0940791873668D-01 -1.8434643822727D-01
15  1.4000000000000D-01  3.5404351295122D-01 -2.0705841544185D-01
16  1.5000000000000D-01  4.0061775263395D-01 -2.2961235485904D-01
17  1.6000000000000D-01  4.4888071852841D-01 -2.5170709517350D-01
18  1.7000000000000D-01  4.9857852110774D-01 -2.7304870041210D-01
19  1.8000000000000D-01  5.4945525874216D-01 -2.9335428336549D-01
20  1.9000000000000D-01  6.0125491058909D-01 -3.1235559025640D-01
21  2.0000000000000D-01  6.5372314123004D-01 -3.2980229032211D-01
22  2.1000000000000D-01  7.0660899594767D-01 -3.4546491929261D-01
23  2.2000000000000D-01  7.5966646773665D-01 -3.5913743192472D-01
24  2.3000000000000D-01  8.1265591963324D-01 -3.7063932569938D-01
25  2.4000000000000D-01  8.6534534868965D-01 -3.7981730538721D-01
26  2.5000000000000D-01  9.1751148086106D-01 -3.8654646630652D-01
27  2.6000000000000D-01  9.6894068916644D-01 -3.9073098259987D-01
28  2.7000000000000D-01  1.0194297306739D+00 -3.9230429559339D-01
29  2.8000000000000D-01  1.0687863010939D+00 -3.9122880612792D-01
30  2.9000000000000D-01  1.1168294089810D+00 -3.8749508350902D-01
31  3.0000000000000D-01  1.1633895746938D+00 -3.8112061226333D-01
32  3.1000000000000D-01  1.2083088622860D+00 -3.7214810606079D-01
33  3.2000000000000D-01  1.2514407553470D+00 -3.6064342582422D-01
34  3.3000000000000D-01  1.2926498904321D+00 -3.4669314606369D-01
35  3.4000000000000D-01  1.3318116640639D+00 -3.3040181971721D-01
36  3.5000000000000D-01  1.3688117313232D+00 -3.1188899714074D-01
37  3.6000000000000D-01  1.4035454157243D+00 -2.9128605927022D-01
38  3.7000000000000D-01  1.4359170513708D+00 -2.6873292829545D-01
39  3.8000000000000D-01  1.4658392792846D+00 -2.4437472137640D-01
40  3.9000000000000D-01  1.4932323202734D+00 -2.1835841395172D-01
41  4.0000000000000D-01  1.5180232467462D+00 -1.9082957901365D-01
42  4.1000000000000D-01  1.5401452754993D+00 -1.6192926734670D-01
43  4.2000000000000D-01  1.5595371026787D+00 -1.3179109116788D-01