Mg    ONCVPSP  r_core=  2.32  2.11
12.0000      2.0000      151026    zatom,zion,pspd
8   -1013   1     4   400     0    pspcod,pspxc,lmax,lloc,mmax,r2well
3.99000000  4.00000000  0.00000000    rchrg fchrg qchrg
2     2     0     0     0    nproj
0                 extension_switch
0                         5.9441027127652D+00  6.1887179136281D-01
1  0.0000000000000D+00 -2.7862157025993D-12  2.0798036903802D-11
2  1.0000000000000D-02  2.7230529372455D-02 -4.7936968064133D-03
3  2.0000000000000D-02  5.4450772805230D-02 -9.5880796075777D-03
4  3.0000000000000D-02  8.1650433246395D-02 -1.4383847377814D-02
5  4.0000000000000D-02  1.0881919142922D-01 -1.9181724593354D-02
6  5.0000000000000D-02  1.3594669478974D-01 -2.3982472845549D-02
7  6.0000000000000D-02  1.6302254641635D-01 -2.8786901103620D-02
8  7.0000000000000D-02  1.9003629404528D-01 -3.3595874201387D-02
9  8.0000000000000D-02  2.1697741911881D-01 -3.8410319143209D-02
10  9.0000000000000D-02  2.4383532592634D-01 -4.3231228849926D-02
11  1.0000000000000D-01  2.7059933085246D-01 -4.8059662995844D-02
12  1.1000000000000D-01  2.9725865176062D-01 -5.2896745622222D-02
13  1.2000000000000D-01  3.2380239754609D-01 -5.7743659251232D-02
14  1.3000000000000D-01  3.5021955789722D-01 -6.2601635266379D-02
15  1.4000000000000D-01  3.7649899330947D-01 -6.7471940370632D-02
16  1.5000000000000D-01  4.0262942540310D-01 -7.2355858981601D-02
17  1.6000000000000D-01  4.2859942760088D-01 -7.7254671473327D-02
18  1.7000000000000D-01  4.5439741622880D-01 -8.2169628226523D-02
19  1.8000000000000D-01  4.8001164210846D-01 -8.7101919502472D-02
20  1.9000000000000D-01  5.0543018271621D-01 -9.2052641210143D-02
21  2.0000000000000D-01  5.3064093498928D-01 -9.7022756690473D-02
22  2.1000000000000D-01  5.5563160886501D-01 -1.0201305469618D-01
23  2.2000000000000D-01  5.8038972164401D-01 -1.0702410379864D-01
24  2.3000000000000D-01  6.0490259327253D-01 -1.1205620350564D-01
25  2.4000000000000D-01  6.2915734264310D-01 -1.1710933242370D-01
26  2.5000000000000D-01  6.5314088501566D-01 -1.2218309384659D-01
27  2.6000000000000D-01  6.7683993066358D-01 -1.2727665919634D-01
28  2.7000000000000D-01  7.0024098485026D-01 -1.3238870978439D-01
29  2.8000000000000D-01  7.2333034924274D-01 -1.3751737739806D-01
30  2.9000000000000D-01  7.4609412486758D-01 -1.4266018425098D-01
31  3.0000000000000D-01  7.6851821671299D-01 -1.4781398286413D-01
32  3.1000000000000D-01  7.9058834007804D-01 -1.5297489646839D-01
33  3.2000000000000D-01  8.1229002876572D-01 -1.5813826053698D-01
34  3.3000000000000D-01  8.3360864521123D-01 -1.6329856606935D-01
35  3.4000000000000D-01  8.5452939263033D-01 -1.6844940525450D-01
36  3.5000000000000D-01  8.7503732926456D-01 -1.7358342014259D-01
37  3.6000000000000D-01  8.9511738479114D-01 -1.7869225494851D-01
38  3.7000000000000D-01  9.1475437895459D-01 -1.8376651259968D-01
39  3.8000000000000D-01  9.3393304246579D-01 -1.8879571612241D-01
40  3.9000000000000D-01  9.5263804020092D-01 -1.9376827543817D-01
41  4.0000000000000D-01  9.7085399671885D-01 -1.9867146011081D-01
42  4.1000000000000D-01  9.8856552410024D-01 -2.0349137855086D-01
43  4.2000000000000D-01  1.0057572520954D+00 -2.0821296414182D-01
44  4.3000000000000D-01  1.0224138605505D+00 -2.1281996870725D-01
45  4.4000000000000D-01  1.0385201140650D+00 -2.1729496368630D-01
46  4.5000000000000D-01  1.0540608988110D+00 -2.2161934932961D-01
47  4.6000000000000D-01  1.0690212614308D+00 -2.2577337216784D-01
48  4.7000000000000D-01  1.0833864499048D+00 -2.2973615094179D-01
49  4.8000000000000D-01  1.0971419562621D+00 -2.3348571111673D-01
50  4.9000000000000D-01  1.1102735609897D+00 -2.3699902803476D-01
51  5.0000000000000D-01  1.1227673789689D+00 -2.4025207868860D-01
52  5.1000000000000D-01  1.1346099067537D+00 -2.4321990202837D-01
53  5.2000000000000D-01  1.1457880709812D+00 -2.4587666764088D-01
54  5.3000000000000D-01  1.1562892776865D+00 -2.4819575256888D-01
55  5.4000000000000D-01  1.1661014622752D+00 -2.5014982596701D-01
56  5.5000000000000D-01  1.1752131398886D+00 -2.5171094122194D-01
57  5.6000000000000D-01  1.1836134558774D+00 -2.5285063509761D-01
58  5.7000000000000D-01  1.1912922360882D+00 -2.5354003340276D-01
59  5.8000000000000D-01  1.1982400366473D+00 -2.5374996261911D-01
60  5.9000000000000D-01  1.2044481929168D+00 -2.5345106687339D-01
61  6.0000000000000D-01  1.2099088672862D+00 -2.5261392958764D-01
62  6.1000000000000D-01  1.2146150954510D+00 -2.5120919909896D-01
63  6.2000000000000D-01  1.2185608308264D+00 -2.4920771750418D-01
64  6.3000000000000D-01  1.2217409867354D+00 -2.4658065195606D-01
65  6.4000000000000D-01  1.2241514760116D+00 -2.4329962761738D-01
66  6.5000000000000D-01  1.2257892476531D+00 -2.3933686146767D-01
67  6.6000000000000D-01  1.2266523201707D+00 -2.3466529615458D-01
68  6.7000000000000D-01  1.2267398112756D+00 -2.2925873308926D-01
69  6.8000000000000D-01  1.2260519635628D+00 -2.2309196400239D-01
70  6.9000000000000D-01  1.2245901658558D+00 -2.1614090020489D-01
71  7.0000000000000D-01  1.2223569698949D+00 -2.0838269883581D-01
72  7.1000000000000D-01  1.2193561020661D+00 -1.9979588542890D-01
73  7.2000000000000D-01  1.2155924698923D+00 -1.9036047218954D-01
74  7.3000000000000D-01  1.2110721630281D+00 -1.8005807144460D-01
75  7.4000000000000D-01  1.2058024485314D+00 -1.6887200380996D-01
76  7.5000000000000D-01  1.1997917602110D+00 -1.5678740071280D-01
77  7.6000000000000D-01  1.1930496818859D+00 -1.4379130100979D-01
78  7.7000000000000D-01  1.1855869244280D+00 -1.2987274155526D-01
79  7.8000000000000D-01  1.1774152964990D+00 -1.1502284169740D-01
80  7.9000000000000D-01  1.1685476689341D+00 -9.9234881813257D-02
81  8.0000000000000D-01  1.1589979327731D+00 -8.2504376135308D-02
82  8.1000000000000D-01  1.1487809509840D+00 -6.4829140272153D-02
83  8.2000000000000D-01  1.1379125039775D+00 -4.6209353983651D-02
84  8.3000000000000D-01  1.1264092290607D+00 -2.6647619934844D-02
85  8.4000000000000D-01  1.1142885540358D+00 -6.1490193233454D-03
86  8.5000000000000D-01  1.1015686252028D+00  1.5278834550536D-02
87  8.6000000000000D-01  1.0882682300872D+00  3.7625743522348D-02
88  8.7000000000000D-01  1.0744067152693D+00  6.0878871180942D-02
89  8.8000000000000D-01  1.0600038997539D+00  8.5022687251251D-02
90  8.9000000000000D-01  1.0450799843812D+00  1.1003890794516D-01
91  9.0000000000000D-01  1.0296554578389D+00  1.3590643029991D-01
92  9.1000000000000D-01  1.0137509998990D+00  1.6260125834213D-01
93  9.2000000000000D-01  9.9738738256363D-01  1.9009641873773D-01
94  9.3000000000000D-01  9.8058536986520D-01  2.1836186341373D-01
95  9.4000000000000D-01  9.6336561712478D-01  2.4736435647104D-01
96  9.5000000000000D-01  9.4574857053349D-01  2.7706734254592D-01
97  9.6000000000000D-01  9.2775436797629D-01  3.0743079362585D-01
98  9.7000000000000D-01  9.0940274207361D-01  3.3841103118321D-01
99  9.8000000000000D-01  8.9071292628474D-01  3.6996051993416D-01
100  9.9000000000000D-01  8.7170356478307D-01  4.0202762856183D-01
101  1.0000000000000D+00  8.5239264385392D-01  4.3455639507573D-01
102  1.0100000000000D+00  8.3279734866395D-01  4.6748606242659D-01
103  1.0200000000000D+00  8.1293441076705D-01  5.0075168852676D-01
104  1.0300000000000D+00  7.9282082818721D-01  5.3428576295507D-01
105  1.0400000000000D+00  7.7247434803878D-01  5.6801954416280D-01
106  1.0500000000000D+00  7.5191336048551D-01  6.0188315342843D-01
107  1.0600000000000D+00  7.3115686763321D-01  6.3580583174192D-01
108  1.0700000000000D+00  7.1022443089852D-01  6.6971615678276D-01
109  1.0800000000000D+00  6.8913612156928D-01  7.0354227006472D-01
110  1.0900000000000D+00  6.6791246920816D-01  7.3721210199358D-01
111  1.1000000000000D+00  6.4657440948185D-01  7.7065359718777D-01
112  1.1100000000000D+00  6.2514323134601D-01  8.0379493886603D-01
113  1.1200000000000D+00  6.0364052372943D-01  8.3656477156298D-01
114  1.1300000000000D+00  5.8208812186132D-01  8.6889242143862D-01
115  1.1400000000000D+00  5.6050805338682D-01  9.0070811345819D-01
116  1.1500000000000D+00  5.3892248441546D-01  9.3194318472550D-01
117  1.1600000000000D+00  5.1735366564756D-01  9.6253029327098D-01
118  1.1700000000000D+00  4.9582387872265D-01  9.9240362160861D-01
119  1.1800000000000D+00  4.7435538293259D-01  1.0214990743979D+00
120  1.1900000000000D+00  4.5297036244150D-01  1.0497544695595D+00
121  1.2000000000000D+00  4.3169087415184D-01  1.0771097222271D+00
122  1.2100000000000D+00  4.1053879635351D-01  1.1035070209380D+00
123  1.2200000000000D+00  3.8953577829122D-01  1.1288909954913D+00
124  1.2300000000000D+00  3.6870319078140D-01  1.1532088759306D+00
125  1.2400000000000D+00  3.4806207800578D-01  1.1764106421532D+00
126  1.2500000000000D+00  3.2763311060594D-01  1.1984491636647D+00
127  1.2600000000000D+00  3.0743654019916D-01  1.2192803290366D+00
128  1.2700000000000D+00  2.8749215542886D-01  1.2388631646774D+00
129  1.2800000000000D+00  2.6781923965941D-01  1.2571599425525D+00
130  1.2900000000000D+00  2.4843653042174D-01  1.2741362765179D+00
131  1.3000000000000D+00  2.2936218070474D-01  1.2897612070106D+00
132  1.3100000000000D+00  2.1061372218603D-01  1.3040072738513D+00
133  1.3200000000000D+00  1.9220803049008D-01  1.3168505769506D+00
134  1.3300000000000D+00  1.7416129254718D-01  1.3282708248097D+00
135  1.3400000000000D+00  1.5648897612953D-01  1.3382513706825D+00
136  1.3500000000000D+00  1.3920580162878D-01  1.3467792363501D+00
137  1.3600000000000D+00  1.2232571612495D-01  1.3538451235368D+00
138  1.3700000000000D+00  1.0586186980599D-01  1.3594434129486D+00
139  1.3800000000000D+00  8.9826594770365D-02  1.3635721510700D+00
140  1.3900000000000D+00  7.4231386244578D-02  1.3662330248535D+00
141  1.4000000000000D+00  5.9086886249599D-02  1.3674313244295D+00
142  1.4100000000000D+00  4.4402869715601D-02  1.3671758941502D+00
143  1.4200000000000D+00  3.0188233066565D-02  1.3654790721575D+00
144  1.4300000000000D+00  1.6450985265379D-02  1.3623566188350D+00
145  1.4400000000000D+00  3.1982413043142D-03  1.3578276345175D+00
146  1.4500000000000D+00 -9.5637818620368D-03  1.3519144667852D+00
147  1.4600000000000D+00 -2.1829766993016D-02  1.3446426078871D+00
148  1.4700000000000D+00 -3.3595295858636D-02  1.3360405826593D+00
149  1.4800000000000D+00 -4.4856846219990D-02  1.3261398275313D+00
150  1.4900000000000D+00 -5.5611786537266D-02  1.3149745611232D+00
151  1.5000000000000D+00 -6.5858368460604D-02  1.3025816469952D+00
152  1.5100000000000D+00 -7.5595717187518D-02  1.2890004491995D+00
153  1.5200000000000D+00 -8.4823819734465D-02  1.2742726811753D+00
154  1.5300000000000D+00 -9.3543511234030D-02  1.2584422487228D+00
155  1.5400000000000D+00 -1.0175645931317D-01  1.2415550876275D+00
156  1.5500000000000D+00 -1.0946514667039D-01  1.2236589966817D+00
157  1.5600000000000D+00 -1.1667285192902D-01  1.2048034667367D+00
158  1.5700000000000D+00 -1.2338362887971D-01  1.1850395065140D+00
159  1.5800000000000D+00 -1.2960228421055D-01  1.1644194658464D+00
160  1.5900000000000D+00 -1.3533435383411D-01  1.1429968570760D+00
161  1.6000000000000D+00 -1.4058607792259D-01  1.1208261752683D+00
162  1.6100000000000D+00 -1.4536437476122D-01  1.0979627179899D+00
163  1.6200000000000D+00 -1.4967681353407D-01  1.0744624052526D+00
164  1.6300000000000D+00 -1.5353158615772D-01  1.0503816004110D+00
165  1.6400000000000D+00 -1.5693747827097D-01  1.0257769325198D+00
166  1.6500000000000D+00 -1.5990383950530D-01  1.0007051209920D+00
167  1.6600000000000D+00 -1.6244055313004D-01  9.7522280293527D-01
168  1.6700000000000D+00 -1.6455800520894D-01  9.4938636406932D-01
169  1.6800000000000D+00 -1.6626705334268D-01  9.2325177345595D-01
170  1.6900000000000D+00 -1.6757899514544D-01  8.9687442299409D-01
171  1.7000000000000D+00 -1.6850553650854D-01  8.7030897176796D-01
172  1.7100000000000D+00 -1.6905875980933D-01  8.4360919623833D-01
173  1.7200000000000D+00 -1.6925109209479D-01  8.1682784621318D-01
174  1.7300000000000D+00 -1.6909527340698D-01  7.9001650762026D-01
175  1.7400000000000D+00 -1.6860432525646D-01  7.6322547186981D-01
176  1.7500000000000D+00 -1.6779151941502D-01  7.3650361283855D-01
177  1.7600000000000D+00 -1.6667034701632D-01  7.0989827115052D-01
178  1.7700000000000D+00 -1.6525448813042D-01  6.8345514673108D-01
179  1.7800000000000D+00 -1.6355778179222D-01  6.5721819925866D-01
180  1.7900000000000D+00 -1.6159419663445D-01  6.3122955737488D-01
181  1.8000000000000D+00 -1.5937780210703D-01  6.0552943629151D-01
182  1.8100000000000D+00 -1.5692274040567D-01  5.8015606445556D-01
183  1.8200000000000D+00 -1.5424319910651D-01  5.5514561901651D-01
184  1.8300000000000D+00 -1.5135338458805D-01  5.3053217045948D-01
185  1.8400000000000D+00 -1.4826749626636D-01  5.0634763635701D-01
186  1.8500000000000D+00 -1.4499970166944D-01  4.8262174419982D-01
187  1.8600000000000D+00 -1.4156411241922D-01  4.5938200357354D-01
188  1.8700000000000D+00 -1.3797476108034D-01  4.3665368714262D-01
189  1.8800000000000D+00 -1.3424557899574D-01  4.1445982110026D-01
190  1.8900000000000D+00 -1.3039037499990D-01  3.9282118402493D-01
191  1.9000000000000D+00 -1.2642281516655D-01  3.7175631508787D-01
192  1.9100000000000D+00 -1.2235640345953D-01  3.5128153037675D-01
193  1.9200000000000D+00 -1.1820446340617D-01  3.3141094800299D-01
194  1.9300000000000D+00 -1.1398012071791D-01  3.1215652117805D-01
195  1.9400000000000D+00 -1.0969628688629D-01  2.9352807923436D-01
196  1.9500000000000D+00 -1.0536564376330D-01  2.7553337641799D-01
197  1.9600000000000D+00 -1.0100062905309D-01  2.5817814765791D-01
198  1.9700000000000D+00 -9.6613422802390D-02  2.4146617173202D-01
199  1.9800000000000D+00 -9.2215934750164D-02  2.2539934054045D-01
200  1.9900000000000D+00 -8.7819792635243D-02  2.0997773497634D-01
201  2.0000000000000D+00 -8.3436331347896D-02  1.9519970631275D-01
202  2.0100000000000D+00 -7.9076582944399D-02  1.8106196299320D-01
203  2.0200000000000D+00 -7.4751267503495D-02  1.6755966242516D-01
204  2.0300000000000D+00 -7.0470784739186D-02  1.5468650692845D-01
205  2.0400000000000D+00 -6.6245206422775D-02  1.4243484392620D-01
206  2.0500000000000D+00 -6.2084269489234D-02  1.3079576930398D-01
207  2.0600000000000D+00 -5.7997369859154D-02  1.1975923383766D-01
208  2.0700000000000D+00 -5.3993556906748D-02  1.0931415199899D-01
209  2.0800000000000D+00 -5.0081528529510D-02  9.9448512591239D-02
210  2.0900000000000D+00 -4.6269626808466D-02  9.0149490794303D-02
211  2.1000000000000D+00 -4.2565834182519D-02  8.1403561020669D-02
212  2.1100000000000D+00 -3.8977770119834D-02  7.3196610008212D-02
213  2.1200000000000D+00 -3.5512688234266D-02  6.5514049715527D-02
214  2.1300000000000D+00 -3.2177473805928D-02  5.8340929484045D-02
215  2.1400000000000D+00 -2.8978641655685D-02  5.1662046717677D-02
216  2.1500000000000D+00 -2.5922334356759D-02  4.5462056076482D-02
217  2.1600000000000D+00 -2.3014320702371D-02  3.9725576024599D-02
218  2.1700000000000D+00 -2.0259994419108D-02  3.4437292700691D-02
219  2.1800000000000D+00 -1.7664373095676D-02  2.9582060746542D-02
220  2.1900000000000D+00 -1.5232097223930D-02  2.5144999808146D-02
221  2.2000000000000D+00 -1.2967429416836D-02  2.1111587526578D-02
222  2.2100000000000D+00 -1.0874253674939D-02  1.7467747476367D-02
223  2.2200000000000D+00 -8.9560746891228D-03  1.4199931910846D-02
224  2.2300000000000D+00 -7.2160172442105D-03  1.1295200020998D-02
225  2.2400000000000D+00 -5.6572877163851D-03  8.7418903754409D-03
226  2.2500000000000D+00 -4.2821662143401D-03  6.5283768569872D-03
227  2.2600000000000D+00 -3.0907133834329D-03  4.6414471148429D-03
228  2.2700000000000D+00 -2.0816179872892D-03  3.0680069367925D-03
229  2.2800000000000D+00 -1.2627998523255D-03  1.8070116281321D-03
230  2.2900000000000D+00 -6.4239167431590D-04  8.5916545750263D-04
231  2.3000000000000D+00 -2.2212183159899D-04  2.1570388343195D-04
232  2.3100000000000D+00  1.9315605000524D-05 -1.4805160876101D-04
233  2.3200000000000D+00  1.1256921355645D-04 -2.7126213662304D-04
234  2.3300000000000D+00  9.7603762367414D-05 -2.0931289212186D-04
235  2.3400000000000D+00  3.6797455171152D-05 -7.5747480404007D-05
236  2.3500000000000D+00 -1.2470588806654D-05  2.5346278338465D-05
237  2.3600000000000D+00 -2.1949874638310D-05  4.3976603082170D-05
238  2.3700000000000D+00 -8.3257909808721D-06  1.6522706535839D-05
239  2.3800000000000D+00  3.1009593117190D-06 -6.4502505725618D-06
240  2.3900000000000D+00  4.3699251290656D-06 -9.0360728112904D-06
241  2.4000000000000D+00  1.1747710753101D-06 -2.4177188374177D-06
242  2.4100000000000D+00 -2.3348080534527D-07  5.8947436737159D-07
243  2.4200000000000D+00 -2.7601782652246D-07  6.9686856455716D-07
244  2.4300000000000D+00 -4.3483288823840D-08  1.0978326090988D-07
245  2.4400000000000D+00  0.0000000000000D+00  0.0000000000000D+00
246  2.4500000000000D+00  0.0000000000000D+00  0.0000000000000D+00
247  2.4600000000000D+00  0.0000000000000D+00  0.0000000000000D+00
248  2.4700000000000D+00  0.0000000000000D+00  0.0000000000000D+00
249  2.4800000000000D+00  0.0000000000000D+00  0.0000000000000D+00
250  2.4900000000000D+00  0.0000000000000D+00  0.0000000000000D+00
251  2.5000000000000D+00  0.0000000000000D+00  0.0000000000000D+00
252  2.5100000000000D+00  0.0000000000000D+00  0.0000000000000D+00
253  2.5200000000000D+00  0.0000000000000D+00  0.0000000000000D+00
254  2.5300000000000D+00  0.0000000000000D+00  0.0000000000000D+00
255  2.5400000000000D+00  0.0000000000000D+00  0.0000000000000D+00
256  2.5500000000000D+00  0.0000000000000D+00  0.0000000000000D+00
257  2.5600000000000D+00  0.0000000000000D+00  0.0000000000000D+00
258  2.5700000000000D+00  0.0000000000000D+00  0.0000000000000D+00
259  2.5800000000000D+00  0.0000000000000D+00  0.0000000000000D+00
260  2.5900000000000D+00  0.0000000000000D+00  0.0000000000000D+00
261  2.6000000000000D+00  0.0000000000000D+00  0.0000000000000D+00
262  2.6100000000000D+00  0.0000000000000D+00  0.0000000000000D+00
263  2.6200000000000D+00  0.0000000000000D+00  0.0000000000000D+00
264  2.6300000000000D+00  0.0000000000000D+00  0.0000000000000D+00
265  2.6400000000000D+00  0.0000000000000D+00  0.0000000000000D+00
266  2.6500000000000D+00  0.0000000000000D+00  0.0000000000000D+00
267  2.6600000000000D+00  0.0000000000000D+00  0.0000000000000D+00
268  2.6700000000000D+00  0.0000000000000D+00  0.0000000000000D+00
269  2.6800000000000D+00  0.0000000000000D+00  0.0000000000000D+00
270  2.6900000000000D+00  0.0000000000000D+00  0.0000000000000D+00
271  2.7000000000000D+00  0.0000000000000D+00  0.0000000000000D+00
272  2.7100000000000D+00  0.0000000000000D+00  0.0000000000000D+00
273  2.7200000000000D+00  0.0000000000000D+00  0.0000000000000D+00
274  2.7300000000000D+00  0.0000000000000D+00  0.0000000000000D+00
275  2.7400000000000D+00  0.0000000000000D+00  0.0000000000000D+00
276  2.7500000000000D+00  0.0000000000000D+00  0.0000000000000D+00
277  2.7600000000000D+00  0.0000000000000D+00  0.0000000000000D+00
278  2.7700000000000D+00  0.0000000000000D+00  0.0000000000000D+00
279  2.7800000000000D+00  0.0000000000000D+00  0.0000000000000D+00
280  2.7900000000000D+00  0.0000000000000D+00  0.0000000000000D+00
281  2.8000000000000D+00  0.0000000000000D+00  0.0000000000000D+00
282  2.8100000000000D+00  0.0000000000000D+00  0.0000000000000D+00
283  2.8200000000000D+00  0.0000000000000D+00  0.0000000000000D+00
284  2.8300000000000D+00  0.0000000000000D+00  0.0000000000000D+00
285  2.8400000000000D+00  0.0000000000000D+00  0.0000000000000D+00
286  2.8500000000000D+00  0.0000000000000D+00  0.0000000000000D+00
287  2.8600000000000D+00  0.0000000000000D+00  0.0000000000000D+00
288  2.8700000000000D+00  0.0000000000000D+00  0.0000000000000D+00
289  2.8800000000000D+00  0.0000000000000D+00  0.0000000000000D+00
290  2.8900000000000D+00  0.0000000000000D+00  0.0000000000000D+00
291  2.9000000000000D+00  0.0000000000000D+00  0.0000000000000D+00
292  2.9100000000000D+00  0.0000000000000D+00  0.0000000000000D+00
293  2.9200000000000D+00  0.0000000000000D+00  0.0000000000000D+00
294  2.9300000000000D+00  0.0000000000000D+00  0.0000000000000D+00
295  2.9400000000000D+00  0.0000000000000D+00  0.0000000000000D+00
296  2.9500000000000D+00  0.0000000000000D+00  0.0000000000000D+00
297  2.9600000000000D+00  0.0000000000000D+00  0.0000000000000D+00
298  2.9700000000000D+00  0.0000000000000D+00  0.0000000000000D+00
299  2.9800000000000D+00  0.0000000000000D+00  0.0000000000000D+00
300  2.9900000000000D+00  0.0000000000000D+00  0.0000000000000D+00
301  3.0000000000000D+00  0.0000000000000D+00  0.0000000000000D+00
302  3.0100000000000D+00  0.0000000000000D+00  0.0000000000000D+00
303  3.0200000000000D+00  0.0000000000000D+00  0.0000000000000D+00
304  3.0300000000000D+00  0.0000000000000D+00  0.0000000000000D+00
305  3.0400000000000D+00  0.0000000000000D+00  0.0000000000000D+00
306  3.0500000000000D+00  0.0000000000000D+00  0.0000000000000D+00
307  3.0600000000000D+00  0.0000000000000D+00  0.0000000000000D+00
308  3.0700000000000D+00  0.0000000000000D+00  0.0000000000000D+00
309  3.0800000000000D+00  0.0000000000000D+00  0.0000000000000D+00
310  3.0900000000000D+00  0.0000000000000D+00  0.0000000000000D+00
311  3.1000000000000D+00  0.0000000000000D+00  0.0000000000000D+00
312  3.1100000000000D+00  0.0000000000000D+00  0.0000000000000D+00
313  3.1200000000000D+00  0.0000000000000D+00  0.0000000000000D+00
314  3.1300000000000D+00  0.0000000000000D+00  0.0000000000000D+00
315  3.1400000000000D+00  0.0000000000000D+00  0.0000000000000D+00
316  3.1500000000000D+00  0.0000000000000D+00  0.0000000000000D+00
317  3.1600000000000D+00  0.0000000000000D+00  0.0000000000000D+00
318  3.1700000000000D+00  0.0000000000000D+00  0.0000000000000D+00
319  3.1800000000000D+00  0.0000000000000D+00  0.0000000000000D+00
320  3.1900000000000D+00  0.0000000000000D+00  0.0000000000000D+00
321  3.2000000000000D+00  0.0000000000000D+00  0.0000000000000D+00
322  3.2100000000000D+00  0.0000000000000D+00  0.0000000000000D+00
323  3.2200000000000D+00  0.0000000000000D+00  0.0000000000000D+00
324  3.2300000000000D+00  0.0000000000000D+00  0.0000000000000D+00
325  3.2400000000000D+00  0.0000000000000D+00  0.0000000000000D+00
326  3.2500000000000D+00  0.0000000000000D+00  0.0000000000000D+00
327  3.2600000000000D+00  0.0000000000000D+00  0.0000000000000D+00
328  3.2700000000000D+00  0.0000000000000D+00  0.0000000000000D+00
329  3.2800000000000D+00  0.0000000000000D+00  0.0000000000000D+00
330  3.2900000000000D+00  0.0000000000000D+00  0.0000000000000D+00
331  3.3000000000000D+00  0.0000000000000D+00  0.0000000000000D+00
332  3.3100000000000D+00  0.0000000000000D+00  0.0000000000000D+00
333  3.3200000000000D+00  0.0000000000000D+00  0.0000000000000D+00
334  3.3300000000000D+00  0.0000000000000D+00  0.0000000000000D+00
335  3.3400000000000D+00  0.0000000000000D+00  0.0000000000000D+00
336  3.3500000000000D+00  0.0000000000000D+00  0.0000000000000D+00
337  3.3600000000000D+00  0.0000000000000D+00  0.0000000000000D+00
338  3.3700000000000D+00  0.0000000000000D+00  0.0000000000000D+00
339  3.3800000000000D+00  0.0000000000000D+00  0.0000000000000D+00
340  3.3900000000000D+00  0.0000000000000D+00  0.0000000000000D+00
341  3.4000000000000D+00  0.0000000000000D+00  0.0000000000000D+00
342  3.4100000000000D+00  0.0000000000000D+00  0.0000000000000D+00
343  3.4200000000000D+00  0.0000000000000D+00  0.0000000000000D+00
344  3.4300000000000D+00  0.0000000000000D+00  0.0000000000000D+00
345  3.4400000000000D+00  0.0000000000000D+00  0.0000000000000D+00
346  3.4500000000000D+00  0.0000000000000D+00  0.0000000000000D+00
347  3.4600000000000D+00  0.0000000000000D+00  0.0000000000000D+00
348  3.4700000000000D+00  0.0000000000000D+00  0.0000000000000D+00
349  3.4800000000000D+00  0.0000000000000D+00  0.0000000000000D+00
350  3.4900000000000D+00  0.0000000000000D+00  0.0000000000000D+00
351  3.5000000000000D+00  0.0000000000000D+00  0.0000000000000D+00
352  3.5100000000000D+00  0.0000000000000D+00  0.0000000000000D+00
353  3.5200000000000D+00  0.0000000000000D+00  0.0000000000000D+00
354  3.5300000000000D+00  0.0000000000000D+00  0.0000000000000D+00
355  3.5400000000000D+00  0.0000000000000D+00  0.0000000000000D+00
356  3.5500000000000D+00  0.0000000000000D+00  0.0000000000000D+00
357  3.5600000000000D+00  0.0000000000000D+00  0.0000000000000D+00
358  3.5700000000000D+00  0.0000000000000D+00  0.0000000000000D+00
359  3.5800000000000D+00  0.0000000000000D+00  0.0000000000000D+00
360  3.5900000000000D+00  0.0000000000000D+00  0.0000000000000D+00
361  3.6000000000000D+00  0.0000000000000D+00  0.0000000000000D+00
362  3.6100000000000D+00  0.0000000000000D+00  0.0000000000000D+00
363  3.6200000000000D+00  0.0000000000000D+00  0.0000000000000D+00
364  3.6300000000000D+00  0.0000000000000D+00  0.0000000000000D+00
365  3.6400000000000D+00  0.0000000000000D+00  0.0000000000000D+00
366  3.6500000000000D+00  0.0000000000000D+00  0.0000000000000D+00
367  3.6600000000000D+00  0.0000000000000D+00  0.0000000000000D+00
368  3.6700000000000D+00  0.0000000000000D+00  0.0000000000000D+00
369  3.6800000000000D+00  0.0000000000000D+00  0.0000000000000D+00
370  3.6900000000000D+00  0.0000000000000D+00  0.0000000000000D+00
371  3.7000000000000D+00  0.0000000000000D+00  0.0000000000000D+00
372  3.7100000000000D+00  0.0000000000000D+00  0.0000000000000D+00
373  3.7200000000000D+00  0.0000000000000D+00  0.0000000000000D+00
374  3.7300000000000D+00  0.0000000000000D+00  0.0000000000000D+00
375  3.7400000000000D+00  0.0000000000000D+00  0.0000000000000D+00
376  3.7500000000000D+00  0.0000000000000D+00  0.0000000000000D+00
377  3.7600000000000D+00  0.0000000000000D+00  0.0000000000000D+00
378  3.7700000000000D+00  0.0000000000000D+00  0.0000000000000D+00
379  3.7800000000000D+00  0.0000000000000D+00  0.0000000000000D+00
380  3.7900000000000D+00  0.0000000000000D+00  0.0000000000000D+00
381  3.8000000000000D+00  0.0000000000000D+00  0.0000000000000D+00
382  3.8100000000000D+00  0.0000000000000D+00  0.0000000000000D+00
383  3.8200000000000D+00  0.0000000000000D+00  0.0000000000000D+00
384  3.8300000000000D+00  0.0000000000000D+00  0.0000000000000D+00
385  3.8400000000000D+00  0.0000000000000D+00  0.0000000000000D+00
386  3.8500000000000D+00  0.0000000000000D+00  0.0000000000000D+00
387  3.8600000000000D+00  0.0000000000000D+00  0.0000000000000D+00
388  3.8700000000000D+00  0.0000000000000D+00  0.0000000000000D+00
389  3.8800000000000D+00  0.0000000000000D+00  0.0000000000000D+00
390  3.8900000000000D+00  0.0000000000000D+00  0.0000000000000D+00
391  3.9000000000000D+00  0.0000000000000D+00  0.0000000000000D+00
392  3.9100000000000D+00  0.0000000000000D+00  0.0000000000000D+00
393  3.9200000000000D+00  0.0000000000000D+00  0.0000000000000D+00
394  3.9300000000000D+00  0.0000000000000D+00  0.0000000000000D+00
395  3.9400000000000D+00  0.0000000000000D+00  0.0000000000000D+00
396  3.9500000000000D+00  0.0000000000000D+00  0.0000000000000D+00
397  3.9600000000000D+00  0.0000000000000D+00  0.0000000000000D+00
398  3.9700000000000D+00  0.0000000000000D+00  0.0000000000000D+00
399  3.9800000000000D+00  0.0000000000000D+00  0.0000000000000D+00
400  3.9900000000000D+00  0.0000000000000D+00  0.0000000000000D+00
1                         3.9324437885016D+00  7.3447948097876D-01
1  0.0000000000000D+00  1.3521826713880D-10 -8.4994605104027D-11
2  1.0000000000000D-02  1.0518314784289D-03 -2.9195715189784D-04
3  2.0000000000000D-02  4.2023732238724D-03 -1.1648770147821D-03
4  3.0000000000000D-02  9.4367895366566D-03 -2.6099204853200D-03
5  4.0000000000000D-02  1.6730428751594D-02 -4.6124079358393D-03
6  5.0000000000000D-02  2.6048934760689D-02 -7.1518973938440D-03
7  6.0000000000000D-02  3.7348402686435D-02 -1.0202293717160D-02
8  7.0000000000000D-02  5.0575578244693D-02 -1.3731988484896D-02
9  8.0000000000000D-02  6.5668100200896D-02 -1.7704030239410D-02
10  9.0000000000000D-02  8.2554785185625D-02 -2.2076324625766D-02
11  1.0000000000000D-01  1.0115595399495D-01 -2.6801863882235D-02
12  1.1000000000000D-01  1.2138379835711D-01 -3.1828985037560D-02
13  1.2000000000000D-01  1.4314278700004D-01 -3.7101656067750D-02
14  1.3000000000000D-01  1.6633010970322D-01 -4.2559789156504D-02
15  1.4000000000000D-01  1.9083615786376D-01 -4.8139580089220D-02
16  1.5000000000000D-01  2.1654503994864D-01 -5.3773872690523D-02
17  1.6000000000000D-01  2.4333513004530D-01 -5.9392547089860D-02
18  1.7000000000000D-01  2.7107964755954D-01 -6.4922930469013D-02
19  1.8000000000000D-01  2.9964726594548D-01 -7.0290228810058D-02
20  1.9000000000000D-01  3.2890274818643D-01 -7.5417978022859D-02
21  2.0000000000000D-01  3.5870760657965D-01 -8.0228512688592D-02
22  2.1000000000000D-01  3.8892078421328D-01 -8.4643450510912D-02
23  2.2000000000000D-01  4.1939935536058D-01 -8.8584190420411D-02
24  2.3000000000000D-01  4.4999924185746D-01 -9.1972422132300D-02
25  2.4000000000000D-01  4.8057594237432D-01 -9.4730644813058D-02
26  2.5000000000000D-01  5.1098527134536D-01 -9.6782692370855D-02
27  2.6000000000000D-01  5.4108410417799D-01 -9.8054262748383D-02
28  2.7000000000000D-01  5.7073112523454D-01 -9.8473448467138D-02
29  2.8000000000000D-01  5.9978757495938D-01 -9.7971265550953D-02
30  2.9000000000000D-01  6.2811799241839D-01 -9.6482177845539D-02
31  3.0000000000000D-01  6.5559094942719D-01 -9.3944613651925D-02
32  3.1000000000000D-01  6.8207977236976D-01 -9.0301471506677D-02
33  3.2000000000000D-01  7.0746324775395D-01 -8.5500611872708D-02
34  3.3000000000000D-01  7.3162630751434D-01 -7.9495331453063D-02
35  3.4000000000000D-01  7.5446069005917D-01 -7.2244816807948D-02
36  3.5000000000000D-01  7.7586557306773D-01 -6.3714573944321D-02
37  3.6000000000000D-01  7.9574817407801D-01 -5.3876830558871D-02
38  3.7000000000000D-01  8.1402431496461D-01 -4.2710907650703D-02
39  3.8000000000000D-01  8.3061894649302D-01 -3.0203557280676D-02
40  3.9000000000000D-01  8.4546662925084D-01 -1.6349263341127D-02
41  4.0000000000000D-01  8.5851196739841D-01 -1.1505023134489D-03
42  4.1000000000000D-01  8.6970999185265D-01  1.5382038867702D-02
43  4.2000000000000D-01  8.7902648971740D-01  3.3229290555671D-02