Si    ONCVPSP  r_core=  1.60  1.72  1.60
14.0000      4.0000      150122    zatom,zion,pspd
8      11   2     2   600     0    pspcod,pspxc,lmax,lloc,mmax,r2well
5.99000000  0.50000000  0.00000000    rchrg fchrg qchrg
2     2     0     0     0    nproj
0                 extension_switch
0                         6.9891175020879D+00  8.7174088592199D-01
1  0.0000000000000D+00  0.0000000000000D+00 -0.0000000000000D+00
2  1.0000000000000D-02  4.2667267910030D-02 -5.7703398197800D-02
3  2.0000000000000D-02  8.5049885324846D-02 -1.1455388912562D-01
4  3.0000000000000D-02  1.2686768609155D-01 -1.6971274016327D-01
5  4.0000000000000D-02  1.6784940629506D-01 -2.2236934862818D-01
6  5.0000000000000D-02  2.0773696993246D-01 -2.7175476079171D-01
7  6.0000000000000D-02  2.4628957794252D-01 -3.1715454263267D-01
8  7.0000000000000D-02  2.8328753822216D-01 -3.5792079778678D-01
9  8.0000000000000D-02  3.1853577702913D-01 -3.9348313813719D-01
10  9.0000000000000D-02  3.5186697568819D-01 -4.2335842510281D-01
11  1.0000000000000D-01  3.8314428085761D-01 -4.4715911510964D-01
12  1.1000000000000D-01  4.1226354162094D-01 -4.6460006045385D-01
13  1.2000000000000D-01  4.3915503269136D-01 -4.7550363781416D-01
14  1.3000000000000D-01  4.6378462961361D-01 -4.7980309963575D-01
15  1.4000000000000D-01  4.8615440950005D-01 -4.7754406987799D-01
16  1.5000000000000D-01  5.0630265886180D-01 -4.6888413312143D-01
17  1.6000000000000D-01  5.2430327926349D-01 -4.5409049687855D-01
18  1.7000000000000D-01  5.4026459090659D-01 -4.3353573857710D-01
19  1.8000000000000D-01  5.5432754433600D-01 -4.0769168192333D-01
20  1.9000000000000D-01  5.6666335964768D-01 -3.7712147764954D-01
21  2.0000000000000D-01  5.7747062631817D-01 -3.4247000891772D-01
22  2.1000000000000D-01  5.8697190018120D-01 -3.0445275098274D-01
23  2.2000000000000D-01  5.9540985426157D-01 -2.6384328146156D-01
24  2.3000000000000D-01  6.0304303676592D-01 -2.2145962356883D-01
25  2.4000000000000D-01  6.1014131325069D-01 -1.7814968151168D-01
26  2.5000000000000D-01  6.1698105939529D-01 -1.3477599010423D-01
27  2.6000000000000D-01  6.2384019506443D-01 -9.2200077879323D-02
28  2.7000000000000D-01  6.3099313759708D-01 -5.1266698822635D-02
29  2.8000000000000D-01  6.3870578435354D-01 -1.2788287991581D-02
30  2.9000000000000D-01  6.4723058625361D-01  2.2470160506119D-02
31  3.0000000000000D-01  6.5680182335613D-01  5.3805440347129D-02
32  3.1000000000000D-01  6.6763116561469D-01  8.0589444412623D-02
33  3.2000000000000D-01  6.7990361319818D-01  1.0228114944657D-01
34  3.3000000000000D-01  6.9377388901096D-01  1.1843705527618D-01
35  3.4000000000000D-01  7.0936325450836D-01  1.2872016490455D-01
36  3.5000000000000D-01  7.2675713712427D-01  1.3290634698080D-01
37  3.6000000000000D-01  7.4600302506246D-01  1.3088971955814D-01
38  3.7000000000000D-01  7.6710940648777D-01  1.2268475574741D-01
39  3.8000000000000D-01  7.9004514033251D-01  1.0842695135094D-01
40  3.9000000000000D-01  8.1473957443438D-01  8.8371127299220D-02
41  4.0000000000000D-01  8.4108345704641D-01  6.2887289353287D-02
42  4.1000000000000D-01  8.6893044194137D-01  3.2454635525561D-02
43  4.2000000000000D-01  8.9809927777926D-01 -2.3465101723649D-03
44  4.3000000000000D-01  9.2837661773666D-01 -4.0844615525098D-02
45  4.4000000000000D-01  9.5952039887072D-01 -8.2288524215513D-02
46  4.5000000000000D-01  9.9126373170902D-01 -1.2586049422315D-01
47  4.6000000000000D-01  1.0233192320163D+00 -1.7069045352804D-01
48  4.7000000000000D-01  1.0553837180343D+00 -2.1587121135842D-01
49  4.8000000000000D-01  1.0871431528826D+00 -2.6047421966426D-01
50  4.9000000000000D-01  1.1182778224926D+00 -3.0356588000086D-01
51  5.0000000000000D-01  1.1484677852417D+00 -3.4422448409065D-01
52  5.1000000000000D-01  1.1773980203321D+00 -3.8155589125297D-01
53  5.2000000000000D-01  1.2047634050949D+00 -4.1470849217586D-01
54  5.3000000000000D-01  1.2302746673767D+00 -4.4289106973620D-01
55  5.4000000000000D-01  1.2536622384492D+00 -4.6538367976054D-01
56  5.5000000000000D-01  1.2746813895524D+00 -4.8155251003616D-01
57  5.6000000000000D-01  1.2931163720800D+00 -4.9086131100737D-01
58  5.7000000000000D-01  1.3087836354431D+00 -4.9287987141644D-01
59  5.8000000000000D-01  1.3215357490967D+00 -4.8729440208444D-01
60  5.9000000000000D-01  1.3312632525365D+00 -4.7391151619417D-01
61  6.0000000000000D-01  1.3378970225944D+00 -4.5266357693665D-01
62  6.1000000000000D-01  1.3414099152088D+00 -4.2361169251507D-01
63  6.2000000000000D-01  1.3418160274513D+00 -3.8694178442586D-01
64  6.3000000000000D-01  1.3391728679596D+00 -3.4296860440205D-01
65  6.4000000000000D-01  1.3335786568735D+00 -2.9212600691345D-01
66  6.5000000000000D-01  1.3251712722092D+00 -2.3496182254270D-01
67  6.6000000000000D-01  1.3141271481940D+00 -1.7213201759324D-01
68  6.7000000000000D-01  1.3006572676106D+00 -1.0438740241725D-01
69  6.8000000000000D-01  1.2850041246707D+00 -3.2562787616254D-02
70  6.9000000000000D-01  1.2674379439359D+00  4.2436102389658D-02
71  7.0000000000000D-01  1.2482520153450D+00  1.1964799304413D-01
72  7.1000000000000D-01  1.2277576572312D+00  1.9807185857561D-01
73  7.2000000000000D-01  1.2062789923895D+00  2.7668346264369D-01
74  7.3000000000000D-01  1.1841474641355D+00  3.5445217741048D-01
75  7.4000000000000D-01  1.1616959477453D+00  4.3035888102797D-01
76  7.5000000000000D-01  1.1392524761790D+00  5.0341466267331D-01
77  7.6000000000000D-01  1.1171348247150D+00  5.7267621285590D-01
78  7.7000000000000D-01  1.0956445721468D+00  6.3726287001955D-01
79  7.8000000000000D-01  1.0750615158384D+00  6.9637216783147D-01
80  7.9000000000000D-01  1.0556383953615D+00  7.4929416023695D-01
81  8.0000000000000D-01  1.0375960243463D+00  7.9542425416604D-01
82  8.1000000000000D-01  1.0211189245634D+00  8.3427430397947D-01
83  8.2000000000000D-01  1.0063515487043D+00  8.6548175110947D-01
84  8.3000000000000D-01  9.9339516899422D-01  8.8881662627695D-01
85  8.4000000000000D-01  9.8230549783689D-01  9.0418626943993D-01
86  8.5000000000000D-01  9.7309109436759D-01  9.1163766347533D-01
87  8.6000000000000D-01  9.6571259731693D-01  9.1135732071869D-01
88  8.7000000000000D-01  9.6008281019455D-01  9.0366870608964D-01
89  8.8000000000000D-01  9.5606764972780D-01  8.8902722584233D-01
90  8.9000000000000D-01  9.5348795296535D-01  8.6801285625567D-01
91  9.0000000000000D-01  9.5212212270540D-01  8.4132053108896D-01
92  9.1000000000000D-01  9.5170957516985D-01  8.0974844962900D-01
93  9.2000000000000D-01  9.5195493837238D-01  7.7418450784431D-01
94  9.3000000000000D-01  9.5253293471760D-01  7.3559109263884D-01
95  9.4000000000000D-01  9.5309386737397D-01  6.9498851241903D-01
96  9.5000000000000D-01  9.5326961731376D-01  6.5343736495109D-01
97  9.6000000000000D-01  9.5268004712144D-01  6.1202016443744D-01
98  9.7000000000000D-01  9.5093890922248D-01  5.7182512225398D-01
99  9.8000000000000D-01  9.4766241925740D-01  5.3392142375172D-01
100  9.9000000000000D-01  9.4247551141112D-01  4.9934357077231D-01
101  1.0000000000000D+00  9.3501873903520D-01  4.6907317074235D-01
102  1.0100000000000D+00  9.2495514027834D-01  4.4402135605627D-01
103  1.0200000000000D+00  9.1197671190221D-01  4.2501272759926D-01
104  1.0300000000000D+00  8.9580887606923D-01  4.1277511294453D-01
105  1.0400000000000D+00  8.7621857416961D-01  4.0791939943448D-01
106  1.0500000000000D+00  8.5302189230841D-01  4.1092188091313D-01
107  1.0600000000000D+00  8.2608355135801D-01  4.2212846553863D-01
108  1.0700000000000D+00  7.9532205821089D-01  4.4174341408743D-01
109  1.0800000000000D+00  7.6070966559231D-01  4.6983168957398D-01
110  1.0900000000000D+00  7.2228020168773D-01  5.0630149455757D-01
111  1.1000000000000D+00  6.8013105868972D-01  5.5090306932837D-01
112  1.1100000000000D+00  6.3441621948661D-01  6.0324867026170D-01
113  1.1200000000000D+00  5.8534654868356D-01  6.6281400008030D-01
114  1.1300000000000D+00  5.3318916360523D-01  7.2894187672760D-01
115  1.1400000000000D+00  4.7827301597967D-01  8.0083433759492D-01
116  1.1500000000000D+00  4.2097190297789D-01  8.7759416989048D-01
117  1.1600000000000D+00  3.6170323234091D-01  9.5822930107915D-01
118  1.1700000000000D+00  3.0092779760350D-01  1.0416571067866D+00
119  1.1800000000000D+00  2.3914087282052D-01  1.1267301106956D+00
120  1.1900000000000D+00  1.7686114470733D-01  1.2122598126494D+00
121  1.2000000000000D+00  1.1462995315371D-01  1.2970176603307D+00
122  1.2100000000000D+00  5.2998161209986D-02  1.3797771887780D+00
123  1.2200000000000D+00 -7.4827525072982D-03  1.4593262810826D+00
124  1.2300000000000D+00 -6.6259567350927D-02  1.5344639469174D+00
125  1.2400000000000D+00 -1.2279765770367D-01  1.6040551147604D+00
126  1.2500000000000D+00 -1.7658994998446D-01  1.6670461545741D+00
127  1.2600000000000D+00 -2.2714597584359D-01  1.7224348499845D+00
128  1.2700000000000D+00 -2.7402021750333D-01  1.7693415493491D+00
129  1.2800000000000D+00 -3.1682218750273D-01  1.8070268281875D+00
130  1.2900000000000D+00 -3.5518911554402D-01  1.8348240664600D+00
131  1.3000000000000D+00 -3.8883170306436D-01  1.8522474824963D+00
132  1.3100000000000D+00 -4.1752925942370D-01  1.8589732185761D+00
133  1.3200000000000D+00 -4.4109265409667D-01  1.8547551105577D+00
134  1.3300000000000D+00 -4.5943755485430D-01  1.8395870133648D+00
135  1.3400000000000D+00 -4.7253654829307D-01  1.8135892824787D+00
136  1.3500000000000D+00 -4.8040223560546D-01  1.7769756708209D+00
137  1.3600000000000D+00 -4.8316676995437D-01  1.7302156972482D+00
138  1.3700000000000D+00 -4.8098736511551D-01  1.6738332902189D+00
139  1.3800000000000D+00 -4.7409660181340D-01  1.6085117529423D+00
140  1.3900000000000D+00 -4.6279919263655D-01  1.5350766694498D+00
141  1.4000000000000D+00 -4.4742282782604D-01  1.4544053324875D+00
142  1.4100000000000D+00 -4.2837822526754D-01  1.3675295355249D+00
143  1.4200000000000D+00 -4.0609309093313D-01  1.2755131610166D+00
144  1.4300000000000D+00 -3.8103957372196D-01  1.1795019915819D+00
145  1.4400000000000D+00 -3.5371421616478D-01  1.0806700311358D+00
146  1.4500000000000D+00 -3.2463509476536D-01  9.8024000892635D-01
147  1.4600000000000D+00 -2.9432620641467D-01  8.7940995494333D-01
148  1.4700000000000D+00 -2.6332096209261D-01  7.7940082012224D-01
149  1.4800000000000D+00 -2.3214518506126D-01  6.8139245990488D-01
150  1.4900000000000D+00 -2.0130567679581D-01  5.8651328245485D-01
151  1.5000000000000D+00 -1.7131187473008D-01  4.9588776197080D-01
152  1.5100000000000D+00 -1.4260457829110D-01  4.1047467985298D-01
153  1.5200000000000D+00 -1.1565790902499D-01  3.3130490455684D-01
154  1.5300000000000D+00 -9.0825192563927D-02  2.5913192626315D-01
155  1.5400000000000D+00 -6.8498587608361D-02  1.9479485506679D-01
156  1.5500000000000D+00 -4.8952545101973D-02  1.3887100545702D-01
157  1.5600000000000D+00 -3.2465115155188D-02  9.1945872251084D-02
158  1.5700000000000D+00 -1.9225263144791D-02  5.4411420756916D-02
159  1.5800000000000D+00 -9.3838279999420D-03  2.6579769079617D-02
160  1.5900000000000D+00 -3.3244344924050D-03  9.4659323897481D-03
161  1.6000000000000D+00 -4.5904536715563D-04  1.3712661108807D-03
162  1.6100000000000D+00  3.9425608809951D-04 -1.0664121765903D-03
163  1.6200000000000D+00  1.2582179274968D-04 -3.4776681646053D-04
164  1.6300000000000D+00  2.4219791360047D-06 -1.1714487016957D-05
165  1.6400000000000D+00  5.6360410531332D-07 -2.7260073698601D-06
166  1.6500000000000D+00  0.0000000000000D+00  0.0000000000000D+00
167  1.6600000000000D+00  0.0000000000000D+00  0.0000000000000D+00
168  1.6700000000000D+00  0.0000000000000D+00  0.0000000000000D+00
169  1.6800000000000D+00  0.0000000000000D+00  0.0000000000000D+00
170  1.6900000000000D+00  0.0000000000000D+00  0.0000000000000D+00
171  1.7000000000000D+00  0.0000000000000D+00  0.0000000000000D+00
172  1.7100000000000D+00  0.0000000000000D+00  0.0000000000000D+00
173  1.7200000000000D+00  0.0000000000000D+00  0.0000000000000D+00
174  1.7300000000000D+00  0.0000000000000D+00  0.0000000000000D+00
175  1.7400000000000D+00  0.0000000000000D+00  0.0000000000000D+00
176  1.7500000000000D+00  0.0000000000000D+00  0.0000000000000D+00
177  1.7600000000000D+00  0.0000000000000D+00  0.0000000000000D+00
178  1.7700000000000D+00  0.0000000000000D+00  0.0000000000000D+00
179  1.7800000000000D+00  0.0000000000000D+00  0.0000000000000D+00
180  1.7900000000000D+00  0.0000000000000D+00  0.0000000000000D+00
181  1.8000000000000D+00  0.0000000000000D+00  0.0000000000000D+00
182  1.8100000000000D+00  0.0000000000000D+00  0.0000000000000D+00
183  1.8200000000000D+00  0.0000000000000D+00  0.0000000000000D+00
184  1.8300000000000D+00  0.0000000000000D+00  0.0000000000000D+00
185  1.8400000000000D+00  0.0000000000000D+00  0.0000000000000D+00
186  1.8500000000000D+00  0.0000000000000D+00  0.0000000000000D+00
187  1.8600000000000D+00  0.0000000000000D+00  0.0000000000000D+00
188  1.8700000000000D+00  0.0000000000000D+00  0.0000000000000D+00
189  1.8800000000000D+00  0.0000000000000D+00  0.0000000000000D+00
190  1.8900000000000D+00  0.0000000000000D+00  0.0000000000000D+00
191  1.9000000000000D+00  0.0000000000000D+00  0.0000000000000D+00
192  1.9100000000000D+00  0.0000000000000D+00  0.0000000000000D+00
193  1.9200000000000D+00  0.0000000000000D+00  0.0000000000000D+00
194  1.9300000000000D+00  0.0000000000000D+00  0.0000000000000D+00
195  1.9400000000000D+00  0.0000000000000D+00  0.0000000000000D+00
196  1.9500000000000D+00  0.0000000000000D+00  0.0000000000000D+00
197  1.9600000000000D+00  0.0000000000000D+00  0.0000000000000D+00
198  1.9700000000000D+00  0.0000000000000D+00  0.0000000000000D+00
199  1.9800000000000D+00  0.0000000000000D+00  0.0000000000000D+00
200  1.9900000000000D+00  0.0000000000000D+00  0.0000000000000D+00
201  2.0000000000000D+00  0.0000000000000D+00  0.0000000000000D+00
202  2.0100000000000D+00  0.0000000000000D+00  0.0000000000000D+00
203  2.0200000000000D+00  0.0000000000000D+00  0.0000000000000D+00
204  2.0300000000000D+00  0.0000000000000D+00  0.0000000000000D+00
205  2.0400000000000D+00  0.0000000000000D+00  0.0000000000000D+00
206  2.0500000000000D+00  0.0000000000000D+00  0.0000000000000D+00
207  2.0600000000000D+00  0.0000000000000D+00  0.0000000000000D+00
208  2.0700000000000D+00  0.0000000000000D+00  0.0000000000000D+00
209  2.0800000000000D+00  0.0000000000000D+00  0.0000000000000D+00
210  2.0900000000000D+00  0.0000000000000D+00  0.0000000000000D+00
211  2.1000000000000D+00  0.0000000000000D+00  0.0000000000000D+00
212  2.1100000000000D+00  0.0000000000000D+00  0.0000000000000D+00
213  2.1200000000000D+00  0.0000000000000D+00  0.0000000000000D+00
214  2.1300000000000D+00  0.0000000000000D+00  0.0000000000000D+00
215  2.1400000000000D+00  0.0000000000000D+00  0.0000000000000D+00
216  2.1500000000000D+00  0.0000000000000D+00  0.0000000000000D+00
217  2.1600000000000D+00  0.0000000000000D+00  0.0000000000000D+00
218  2.1700000000000D+00  0.0000000000000D+00  0.0000000000000D+00
219  2.1800000000000D+00  0.0000000000000D+00  0.0000000000000D+00
220  2.1900000000000D+00  0.0000000000000D+00  0.0000000000000D+00
221  2.2000000000000D+00  0.0000000000000D+00  0.0000000000000D+00
222  2.2100000000000D+00  0.0000000000000D+00  0.0000000000000D+00
223  2.2200000000000D+00  0.0000000000000D+00  0.0000000000000D+00
224  2.2300000000000D+00  0.0000000000000D+00  0.0000000000000D+00
225  2.2400000000000D+00  0.0000000000000D+00  0.0000000000000D+00
226  2.2500000000000D+00  0.0000000000000D+00  0.0000000000000D+00
227  2.2600000000000D+00  0.0000000000000D+00  0.0000000000000D+00
228  2.2700000000000D+00  0.0000000000000D+00  0.0000000000000D+00
229  2.2800000000000D+00  0.0000000000000D+00  0.0000000000000D+00
230  2.2900000000000D+00  0.0000000000000D+00  0.0000000000000D+00
231  2.3000000000000D+00  0.0000000000000D+00  0.0000000000000D+00
232  2.3100000000000D+00  0.0000000000000D+00  0.0000000000000D+00
233  2.3200000000000D+00  0.0000000000000D+00  0.0000000000000D+00
234  2.3300000000000D+00  0.0000000000000D+00  0.0000000000000D+00
235  2.3400000000000D+00  0.0000000000000D+00  0.0000000000000D+00
236  2.3500000000000D+00  0.0000000000000D+00  0.0000000000000D+00
237  2.3600000000000D+00  0.0000000000000D+00  0.0000000000000D+00
238  2.3700000000000D+00  0.0000000000000D+00  0.0000000000000D+00
239  2.3800000000000D+00  0.0000000000000D+00  0.0000000000000D+00
240  2.3900000000000D+00  0.0000000000000D+00  0.0000000000000D+00
241  2.4000000000000D+00  0.0000000000000D+00  0.0000000000000D+00
242  2.4100000000000D+00  0.0000000000000D+00  0.0000000000000D+00
243  2.4200000000000D+00  0.0000000000000D+00  0.0000000000000D+00
244  2.4300000000000D+00  0.0000000000000D+00  0.0000000000000D+00
245  2.4400000000000D+00  0.0000000000000D+00  0.0000000000000D+00
246  2.4500000000000D+00  0.0000000000000D+00  0.0000000000000D+00
247  2.4600000000000D+00  0.0000000000000D+00  0.0000000000000D+00
248  2.4700000000000D+00  0.0000000000000D+00  0.0000000000000D+00
249  2.4800000000000D+00  0.0000000000000D+00  0.0000000000000D+00
250  2.4900000000000D+00  0.0000000000000D+00  0.0000000000000D+00
251  2.5000000000000D+00  0.0000000000000D+00  0.0000000000000D+00
252  2.5100000000000D+00  0.0000000000000D+00  0.0000000000000D+00
253  2.5200000000000D+00  0.0000000000000D+00  0.0000000000000D+00
254  2.5300000000000D+00  0.0000000000000D+00  0.0000000000000D+00
255  2.5400000000000D+00  0.0000000000000D+00  0.0000000000000D+00
256  2.5500000000000D+00  0.0000000000000D+00  0.0000000000000D+00
257  2.5600000000000D+00  0.0000000000000D+00  0.0000000000000D+00
258  2.5700000000000D+00  0.0000000000000D+00  0.0000000000000D+00
259  2.5800000000000D+00  0.0000000000000D+00  0.0000000000000D+00
260  2.5900000000000D+00  0.0000000000000D+00  0.0000000000000D+00
261  2.6000000000000D+00  0.0000000000000D+00  0.0000000000000D+00
262  2.6100000000000D+00  0.0000000000000D+00  0.0000000000000D+00
263  2.6200000000000D+00  0.0000000000000D+00  0.0000000000000D+00
264  2.6300000000000D+00  0.0000000000000D+00  0.0000000000000D+00
265  2.6400000000000D+00  0.0000000000000D+00  0.0000000000000D+00
266  2.6500000000000D+00  0.0000000000000D+00  0.0000000000000D+00
267  2.6600000000000D+00  0.0000000000000D+00  0.0000000000000D+00
268  2.6700000000000D+00  0.0000000000000D+00  0.0000000000000D+00
269  2.6800000000000D+00  0.0000000000000D+00  0.0000000000000D+00
270  2.6900000000000D+00  0.0000000000000D+00  0.0000000000000D+00
271  2.7000000000000D+00  0.0000000000000D+00  0.0000000000000D+00
272  2.7100000000000D+00  0.0000000000000D+00  0.0000000000000D+00
273  2.7200000000000D+00  0.0000000000000D+00  0.0000000000000D+00
274  2.7300000000000D+00  0.0000000000000D+00  0.0000000000000D+00
275  2.7400000000000D+00  0.0000000000000D+00  0.0000000000000D+00
276  2.7500000000000D+00  0.0000000000000D+00  0.0000000000000D+00
277  2.7600000000000D+00  0.0000000000000D+00  0.0000000000000D+00
278  2.7700000000000D+00  0.0000000000000D+00  0.0000000000000D+00
279  2.7800000000000D+00  0.0000000000000D+00  0.0000000000000D+00
280  2.7900000000000D+00  0.0000000000000D+00  0.0000000000000D+00
281  2.8000000000000D+00  0.0000000000000D+00  0.0000000000000D+00
282  2.8100000000000D+00  0.0000000000000D+00  0.0000000000000D+00
283  2.8200000000000D+00  0.0000000000000D+00  0.0000000000000D+00
284  2.8300000000000D+00  0.0000000000000D+00  0.0000000000000D+00
285  2.8400000000000D+00  0.0000000000000D+00  0.0000000000000D+00
286  2.8500000000000D+00  0.0000000000000D+00  0.0000000000000D+00
287  2.8600000000000D+00  0.0000000000000D+00  0.0000000000000D+00
288  2.8700000000000D+00  0.0000000000000D+00  0.0000000000000D+00
289  2.8800000000000D+00  0.0000000000000D+00  0.0000000000000D+00
290  2.8900000000000D+00  0.0000000000000D+00  0.0000000000000D+00
291  2.9000000000000D+00  0.0000000000000D+00  0.0000000000000D+00
292  2.9100000000000D+00  0.0000000000000D+00  0.0000000000000D+00
293  2.9200000000000D+00  0.0000000000000D+00  0.0000000000000D+00
294  2.9300000000000D+00  0.0000000000000D+00  0.0000000000000D+00
295  2.9400000000000D+00  0.0000000000000D+00  0.0000000000000D+00
296  2.9500000000000D+00  0.0000000000000D+00  0.0000000000000D+00
297  2.9600000000000D+00  0.0000000000000D+00  0.0000000000000D+00
298  2.9700000000000D+00  0.0000000000000D+00  0.0000000000000D+00
299  2.9800000000000D+00  0.0000000000000D+00  0.0000000000000D+00
300  2.9900000000000D+00  0.0000000000000D+00  0.0000000000000D+00
301  3.0000000000000D+00  0.0000000000000D+00  0.0000000000000D+00
302  3.0100000000000D+00  0.0000000000000D+00  0.0000000000000D+00
303  3.0200000000000D+00  0.0000000000000D+00  0.0000000000000D+00
304  3.0300000000000D+00  0.0000000000000D+00  0.0000000000000D+00
305  3.0400000000000D+00  0.0000000000000D+00  0.0000000000000D+00
306  3.0500000000000D+00  0.0000000000000D+00  0.0000000000000D+00
307  3.0600000000000D+00  0.0000000000000D+00  0.0000000000000D+00
308  3.0700000000000D+00  0.0000000000000D+00  0.0000000000000D+00
309  3.0800000000000D+00  0.0000000000000D+00  0.0000000000000D+00
310  3.0900000000000D+00  0.0000000000000D+00  0.0000000000000D+00
311  3.1000000000000D+00  0.0000000000000D+00  0.0000000000000D+00
312  3.1100000000000D+00  0.0000000000000D+00  0.0000000000000D+00
313  3.1200000000000D+00  0.0000000000000D+00  0.0000000000000D+00
314  3.1300000000000D+00  0.0000000000000D+00  0.0000000000000D+00
315  3.1400000000000D+00  0.0000000000000D+00  0.0000000000000D+00
316  3.1500000000000D+00  0.0000000000000D+00  0.0000000000000D+00
317  3.1600000000000D+00  0.0000000000000D+00  0.0000000000000D+00
318  3.1700000000000D+00  0.0000000000000D+00  0.0000000000000D+00
319  3.1800000000000D+00  0.0000000000000D+00  0.0000000000000D+00
320  3.1900000000000D+00  0.0000000000000D+00  0.0000000000000D+00
321  3.2000000000000D+00  0.0000000000000D+00  0.0000000000000D+00
322  3.2100000000000D+00  0.0000000000000D+00  0.0000000000000D+00
323  3.2200000000000D+00  0.0000000000000D+00  0.0000000000000D+00
324  3.2300000000000D+00  0.0000000000000D+00  0.0000000000000D+00
325  3.2400000000000D+00  0.0000000000000D+00  0.0000000000000D+00
326  3.2500000000000D+00  0.0000000000000D+00  0.0000000000000D+00
327  3.2600000000000D+00  0.0000000000000D+00  0.0000000000000D+00
328  3.2700000000000D+00  0.0000000000000D+00  0.0000000000000D+00
329  3.2800000000000D+00  0.0000000000000D+00  0.0000000000000D+00
330  3.2900000000000D+00  0.0000000000000D+00  0.0000000000000D+00
331  3.3000000000000D+00  0.0000000000000D+00  0.0000000000000D+00
332  3.3100000000000D+00  0.0000000000000D+00  0.0000000000000D+00
333  3.3200000000000D+00  0.0000000000000D+00  0.0000000000000D+00
334  3.3300000000000D+00  0.0000000000000D+00  0.0000000000000D+00
335  3.3400000000000D+00  0.0000000000000D+00  0.0000000000000D+00
336  3.3500000000000D+00  0.0000000000000D+00  0.0000000000000D+00
337  3.3600000000000D+00  0.0000000000000D+00  0.0000000000000D+00
338  3.3700000000000D+00  0.0000000000000D+00  0.0000000000000D+00
339  3.3800000000000D+00  0.0000000000000D+00  0.0000000000000D+00
340  3.3900000000000D+00  0.0000000000000D+00  0.0000000000000D+00
341  3.4000000000000D+00  0.0000000000000D+00  0.0000000000000D+00
342  3.4100000000000D+00  0.0000000000000D+00  0.0000000000000D+00
343  3.4200000000000D+00  0.0000000000000D+00  0.0000000000000D+00
344  3.4300000000000D+00  0.0000000000000D+00  0.0000000000000D+00
345  3.4400000000000D+00  0.0000000000000D+00  0.0000000000000D+00
346  3.4500000000000D+00  0.0000000000000D+00  0.0000000000000D+00
347  3.4600000000000D+00  0.0000000000000D+00  0.0000000000000D+00
348  3.4700000000000D+00  0.0000000000000D+00  0.0000000000000D+00
349  3.4800000000000D+00  0.0000000000000D+00  0.0000000000000D+00
350  3.4900000000000D+00  0.0000000000000D+00  0.0000000000000D+00
351  3.5000000000000D+00  0.0000000000000D+00  0.0000000000000D+00
352  3.5100000000000D+00  0.0000000000000D+00  0.0000000000000D+00
353  3.5200000000000D+00  0.0000000000000D+00  0.0000000000000D+00
354  3.5300000000000D+00  0.0000000000000D+00  0.0000000000000D+00
355  3.5400000000000D+00  0.0000000000000D+00  0.0000000000000D+00
356  3.5500000000000D+00  0.0000000000000D+00  0.0000000000000D+00
357  3.5600000000000D+00  0.0000000000000D+00  0.0000000000000D+00
358  3.5700000000000D+00  0.0000000000000D+00  0.0000000000000D+00
359  3.5800000000000D+00  0.0000000000000D+00  0.0000000000000D+00
360  3.5900000000000D+00  0.0000000000000D+00  0.0000000000000D+00
361  3.6000000000000D+00  0.0000000000000D+00  0.0000000000000D+00
362  3.6100000000000D+00  0.0000000000000D+00  0.0000000000000D+00
363  3.6200000000000D+00  0.0000000000000D+00  0.0000000000000D+00
364  3.6300000000000D+00  0.0000000000000D+00  0.0000000000000D+00
365  3.6400000000000D+00  0.0000000000000D+00  0.0000000000000D+00
366  3.6500000000000D+00  0.0000000000000D+00  0.0000000000000D+00
367  3.6600000000000D+00  0.0000000000000D+00  0.0000000000000D+00
368  3.6700000000000D+00  0.0000000000000D+00  0.0000000000000D+00
369  3.6800000000000D+00  0.0000000000000D+00  0.0000000000000D+00
370  3.6900000000000D+00  0.0000000000000D+00  0.0000000000000D+00
371  3.7000000000000D+00  0.0000000000000D+00  0.0000000000000D+00
372  3.7100000000000D+00  0.0000000000000D+00  0.0000000000000D+00
373  3.7200000000000D+00  0.0000000000000D+00  0.0000000000000D+00
374  3.7300000000000D+00  0.0000000000000D+00  0.0000000000000D+00
375  3.7400000000000D+00  0.0000000000000D+00  0.0000000000000D+00
376  3.7500000000000D+00  0.0000000000000D+00  0.0000000000000D+00
377  3.7600000000000D+00  0.0000000000000D+00  0.0000000000000D+00
378  3.7700000000000D+00  0.0000000000000D+00  0.0000000000000D+00
379  3.7800000000000D+00  0.0000000000000D+00  0.0000000000000D+00
380  3.7900000000000D+00  0.0000000000000D+00  0.0000000000000D+00
381  3.8000000000000D+00  0.0000000000000D+00  0.0000000000000D+00
382  3.8100000000000D+00  0.0000000000000D+00  0.0000000000000D+00
383  3.8200000000000D+00  0.0000000000000D+00  0.0000000000000D+00
384  3.8300000000000D+00  0.0000000000000D+00  0.0000000000000D+00
385  3.8400000000000D+00  0.0000000000000D+00  0.0000000000000D+00
386  3.8500000000000D+00  0.0000000000000D+00  0.0000000000000D+00
387  3.8600000000000D+00  0.0000000000000D+00  0.0000000000000D+00
388  3.8700000000000D+00  0.0000000000000D+00  0.0000000000000D+00
389  3.8800000000000D+00  0.0000000000000D+00  0.0000000000000D+00
390  3.8900000000000D+00  0.0000000000000D+00  0.0000000000000D+00
391  3.9000000000000D+00  0.0000000000000D+00  0.0000000000000D+00
392  3.9100000000000D+00  0.0000000000000D+00  0.0000000000000D+00
393  3.9200000000000D+00  0.0000000000000D+00  0.0000000000000D+00
394  3.9300000000000D+00  0.0000000000000D+00  0.0000000000000D+00
395  3.9400000000000D+00  0.0000000000000D+00  0.0000000000000D+00
396  3.9500000000000D+00  0.0000000000000D+00  0.0000000000000D+00
397  3.9600000000000D+00  0.0000000000000D+00  0.0000000000000D+00
398  3.9700000000000D+00  0.0000000000000D+00  0.0000000000000D+00
399  3.9800000000000D+00  0.0000000000000D+00  0.0000000000000D+00
400  3.9900000000000D+00  0.0000000000000D+00  0.0000000000000D+00
401  4.0000000000000D+00  0.0000000000000D+00  0.0000000000000D+00
402  4.0100000000000D+00  0.0000000000000D+00  0.0000000000000D+00
403  4.0200000000000D+00  0.0000000000000D+00  0.0000000000000D+00
404  4.0300000000000D+00  0.0000000000000D+00  0.0000000000000D+00
405  4.0400000000000D+00  0.0000000000000D+00  0.0000000000000D+00
406  4.0500000000000D+00  0.0000000000000D+00  0.0000000000000D+00
407  4.0600000000000D+00  0.0000000000000D+00  0.0000000000000D+00
408  4.0700000000000D+00  0.0000000000000D+00  0.0000000000000D+00
409  4.0800000000000D+00  0.0000000000000D+00  0.0000000000000D+00
410  4.0900000000000D+00  0.0000000000000D+00  0.0000000000000D+00
411  4.1000000000000D+00  0.0000000000000D+00  0.0000000000000D+00
412  4.1100000000000D+00  0.0000000000000D+00  0.0000000000000D+00
413  4.1200000000000D+00  0.0000000000000D+00  0.0000000000000D+00
414  4.1300000000000D+00  0.0000000000000D+00  0.0000000000000D+00
415  4.1400000000000D+00  0.0000000000000D+00  0.0000000000000D+00
416  4.1500000000000D+00  0.0000000000000D+00  0.0000000000000D+00
417  4.1600000000000D+00  0.0000000000000D+00  0.0000000000000D+00
418  4.1700000000000D+00  0.0000000000000D+00  0.0000000000000D+00
419  4.1800000000000D+00  0.0000000000000D+00  0.0000000000000D+00
420  4.1900000000000D+00  0.0000000000000D+00  0.0000000000000D+00
421  4.2000000000000D+00  0.0000000000000D+00  0.0000000000000D+00
422  4.2100000000000D+00  0.0000000000000D+00  0.0000000000000D+00
423  4.2200000000000D+00  0.0000000000000D+00  0.0000000000000D+00
424  4.2300000000000D+00  0.0000000000000D+00  0.0000000000000D+00
425  4.2400000000000D+00  0.0000000000000D+00  0.0000000000000D+00
426  4.2500000000000D+00  0.0000000000000D+00  0.0000000000000D+00
427  4.2600000000000D+00  0.0000000000000D+00  0.0000000000000D+00
428  4.2700000000000D+00  0.0000000000000D+00  0.0000000000000D+00
429  4.2800000000000D+00  0.0000000000000D+00  0.0000000000000D+00
430  4.2900000000000D+00  0.0000000000000D+00  0.0000000000000D+00
431  4.3000000000000D+00  0.0000000000000D+00  0.0000000000000D+00
432  4.3100000000000D+00  0.0000000000000D+00  0.0000000000000D+00
433  4.3200000000000D+00  0.0000000000000D+00  0.0000000000000D+00
434  4.3300000000000D+00  0.0000000000000D+00  0.0000000000000D+00
435  4.3400000000000D+00  0.0000000000000D+00  0.0000000000000D+00
436  4.3500000000000D+00  0.0000000000000D+00  0.0000000000000D+00
437  4.3600000000000D+00  0.0000000000000D+00  0.0000000000000D+00
438  4.3700000000000D+00  0.0000000000000D+00  0.0000000000000D+00
439  4.3800000000000D+00  0.0000000000000D+00  0.0000000000000D+00
440  4.3900000000000D+00  0.0000000000000D+00  0.0000000000000D+00
441  4.4000000000000D+00  0.0000000000000D+00  0.0000000000000D+00
442  4.4100000000000D+00  0.0000000000000D+00  0.0000000000000D+00
443  4.4200000000000D+00  0.0000000000000D+00  0.0000000000000D+00
444  4.4300000000000D+00  0.0000000000000D+00  0.0000000000000D+00