Si    ONCVPSP  r_core=  1.60  1.70  1.92
14.0000      4.0000      141227    zatom,zion,pspd
8    11     2     4   601     0    pspcod,pspxc,lmax,lloc,mmax,r2well
6.00000000  0.50000000  0.00000000    rchrg fchrg qchrg
2     2     2     0     0    nproj
0                 extension_switch
0                         5.0775962034904D+00  8.4052478876533D-01
1  0.0000000000000D+00 -0.0000000000000D+00 -0.0000000000000D+00
2  1.0000000000000D-02 -4.2170194413036D-02 -2.5836652781340D-02
3  2.0000000000000D-02 -8.4006207779720D-02 -5.0960151364471D-02
4  3.0000000000000D-02 -1.2517967023105D-01 -7.4670379108843D-02
5  4.0000000000000D-02 -1.6537373326475D-01 -9.6293067465548D-02
6  5.0000000000000D-02 -2.0428857967722D-01 -1.1519215633051D-01
7  6.0000000000000D-02 -2.4164663737555D-01 -1.3078148872462D-01
8  7.0000000000000D-02 -2.7719740625279D-01 -1.4253563566053D-01
9  8.0000000000000D-02 -3.1072181389123D-01 -1.4999966186302D-01
10  9.0000000000000D-02 -3.4203602387932D-01 -1.5279766105439D-01
11  1.0000000000000D-01 -3.7099462990724D-01 -1.5063991061650D-01
12  1.1000000000000D-01 -3.9749317917480D-01 -1.4332851876748D-01
13  1.2000000000000D-01 -4.2146998023243D-01 -1.3076146345430D-01
14  1.3000000000000D-01 -4.4290716246677D-01 -1.1293494936194D-01
15  1.4000000000000D-01 -4.6183096739479D-01 -8.9944038569119D-02
16  1.5000000000000D-01 -4.7831126487636D-01 -6.1981539503779D-02
17  1.6000000000000D-01 -4.9246030084535D-01 -2.9335169182047D-02
18  1.7000000000000D-01 -5.0443069640764D-01  7.6169664828950D-03
19  1.8000000000000D-01 -5.1441273096601D-01  4.8412500722337D-02
20  1.9000000000000D-01 -5.2263095308366D-01  9.2512443876670D-02
21  2.0000000000000D-01 -5.2934017953538D-01  1.3931019519323D-01
22  2.1000000000000D-01 -5.3482094313637D-01  1.8814179215193D-01
23  2.2000000000000D-01 -5.3937447511519D-01  2.3829720429754D-01
24  2.3000000000000D-01 -5.4331729736071D-01  2.8903250217189D-01
25  2.4000000000000D-01 -5.4697552809671D-01  3.3958266839360D-01
26  2.5000000000000D-01 -5.5067898527972D-01  3.8917486136475D-01
27  2.6000000000000D-01 -5.5475520006708D-01  4.3704187895593D-01
28  2.7000000000000D-01 -5.5952343157519D-01  4.8243561713704D-01
29  2.8000000000000D-01 -5.6528881112651D-01  5.2464023534579D-01
30  2.9000000000000D-01 -5.7233668088196D-01  5.6298488285965D-01
31  3.0000000000000D-01 -5.8092725101103D-01  5.9685570714685D-01
32  3.1000000000000D-01 -5.9129066261045D-01  6.2570694834106D-01
33  3.2000000000000D-01 -6.0362255569253D-01  6.4907089679488D-01
34  3.3000000000000D-01 -6.1808021469806D-01  6.6656655113887D-01
35  3.4000000000000D-01 -6.3477925086134D-01  6.7790706854931D-01
36  3.5000000000000D-01 -6.5379125166020D-01  6.8290504055936D-01
37  3.6000000000000D-01 -6.7514177503234D-01  6.8147699356964D-01
38  3.7000000000000D-01 -6.9880955366395D-01  6.7364516969612D-01
39  3.8000000000000D-01 -7.2472621685420D-01  6.5953814481144D-01
40  3.9000000000000D-01 -7.5277688255876D-01  6.3938949177680D-01
41  4.0000000000000D-01 -7.8280165565310D-01  6.1353440859265D-01
42  4.1000000000000D-01 -8.1459781721501D-01  5.8240479549415D-01
43  4.2000000000000D-01 -8.4792279804361D-01  5.4652257216491D-01
44  4.3000000000000D-01 -8.8249786319183D-01  5.0649140019686D-01
45  4.4000000000000D-01 -9.1801244854717D-01  4.6298694388392D-01
46  4.5000000000000D-01 -9.5412908008292D-01  4.1674582581667D-01
47  4.6000000000000D-01 -9.9048879603870D-01  3.6855345700333D-01
48  4.7000000000000D-01 -1.0267169813719D+00  3.1923094572552D-01
49  4.8000000000000D-01 -1.0624294665496D+00  2.6962141777557D-01
50  4.9000000000000D-01 -1.0972388924750D+00  2.2057574465808D-01
51  5.0000000000000D-01 -1.1307613835501D+00  1.7293758664235D-01
52  5.1000000000000D-01 -1.1626227957671D+00  1.2752939553667D-01
53  5.2000000000000D-01 -1.1924647367180D+00  8.5138934907701D-02
54  5.3000000000000D-01 -1.2199517858893D+00  4.6503118300324D-02
55  5.4000000000000D-01 -1.2447760278171D+00  1.2297878408987D-02
56  5.5000000000000D-01 -1.2666631890158D+00 -1.6875549988038D-02
57  5.6000000000000D-01 -1.2853774738833D+00 -4.0501420920490D-02
58  5.7000000000000D-01 -1.3007252375204D+00 -5.8157656324618D-02
59  5.8000000000000D-01 -1.3125594677078D+00 -6.9525822977620D-02
60  5.9000000000000D-01 -1.3207816918341D+00 -7.4395339051417D-02
61  6.0000000000000D-01 -1.3253444585533D+00 -7.2668953232586D-02
62  6.1000000000000D-01 -1.3262528771167D+00 -6.4366103255143D-02
63  6.2000000000000D-01 -1.3235632895983D+00 -4.9619865985566D-02
64  6.3000000000000D-01 -1.3173852769058D+00 -2.8681321068022D-02
65  6.4000000000000D-01 -1.3078779205911D+00 -1.9111004755623D-03
66  6.5000000000000D-01 -1.2952479726266D+00  3.0224816557776D-02
67  6.6000000000000D-01 -1.2797477943329D+00  6.7159864123708D-02
68  6.7000000000000D-01 -1.2616700689859D+00  1.0823880918527D-01
69  6.8000000000000D-01 -1.2413435673621D+00  1.5272734695936D-01
70  6.9000000000000D-01 -1.2191279878301D+00  1.9982377814285D-01
71  7.0000000000000D-01 -1.1954078099545D+00  2.4867288272676D-01
72  7.1000000000000D-01 -1.1705858824293D+00  2.9838035471409D-01
73  7.2000000000000D-01 -1.1450767266691D+00  3.4802789332478D-01
74  7.3000000000000D-01 -1.1192996619283D+00  3.9668867004398D-01
75  7.4000000000000D-01 -1.0936714665778D+00  4.4344383549836D-01
76  7.5000000000000D-01 -1.0685986569118D+00  4.8739987062833D-01
77  7.6000000000000D-01 -1.0444710283763D+00  5.2770306090628D-01
78  7.7000000000000D-01 -1.0216545102923D+00  5.6355552280592D-01
79  7.8000000000000D-01 -1.0004845619357D+00  5.9422999034423D-01
80  7.9000000000000D-01 -9.8126000724883D-01  6.1908359976337D-01
81  8.0000000000000D-01 -9.6423741678244D-01  6.3757042844843D-01
82  8.1000000000000D-01 -9.4962613702182D-01  6.4925256337164D-01
83  8.2000000000000D-01 -9.3758405713825D-01  6.5380949730349D-01
84  8.3000000000000D-01 -9.2821419163588D-01  6.5104567725079D-01
85  8.4000000000000D-01 -9.2156214456017D-01  6.4089605857248D-01
86  8.5000000000000D-01 -9.1761450711271D-01  6.2342954949084D-01
87  8.6000000000000D-01 -9.1629822588648D-01  5.9885026379556D-01
88  8.7000000000000D-01 -9.1748096367860D-01  5.6749653401256D-01
89  8.8000000000000D-01 -9.2097245912060D-01  5.2983767280726D-01
90  8.9000000000000D-01 -9.2652687533292D-01  4.8646850658533D-01
91  9.0000000000000D-01 -9.3384611159828D-01  4.3810174183330D-01
92  9.1000000000000D-01 -9.4258403580214D-01  3.8555826137814D-01
93  9.2000000000000D-01 -9.5235157928204D-01  3.2975548404410D-01
94  9.3000000000000D-01 -9.6272261999274D-01  2.7169395662015D-01
95  9.4000000000000D-01 -9.7324056484673D-01  2.1244238090654D-01
96  9.5000000000000D-01 -9.8342552815630D-01  1.5312130991579D-01
97  9.6000000000000D-01 -9.9278199084083D-01  9.4885774804406D-02
98  9.7000000000000D-01 -1.0008058596588D+00  3.8909338458593D-02
99  9.8000000000000D-01 -1.0069947607006D+00 -1.3639348687764D-02
100  9.9000000000000D-01 -1.0108555370156D+00 -6.1613373195647D-02
101  1.0000000000000D+00 -1.0119125704039D+00 -1.0390637654181D-01
102  1.0100000000000D+00 -1.0097160938975D+00 -1.3947131926864D-01
103  1.0200000000000D+00 -1.0038500727932D+00 -1.6733824352556D-01
104  1.0300000000000D+00 -9.9393768964631D-01 -1.8662657478591D-01
105  1.0400000000000D+00 -9.7965127490442D-01 -1.9656755274298D-01
106  1.0500000000000D+00 -9.6072179090112D-01 -1.9652556958141D-01
107  1.0600000000000D+00 -9.3693844429920D-01 -1.8599709137508D-01
108  1.0700000000000D+00 -9.0815524459370D-01 -1.6462539115905D-01
109  1.0800000000000D+00 -8.7429121493737D-01 -1.3220088226370D-01
110  1.0900000000000D+00 -8.3534041107631D-01 -8.8683658973496D-02
111  1.1000000000000D+00 -7.9137502345054D-01 -3.4210288177550D-02
112  1.1100000000000D+00 -7.4253722546519D-01  3.0924791808928D-02
113  1.1200000000000D+00 -6.8904004177011D-01  1.0626744050563D-01
114  1.1300000000000D+00 -6.3116705645358D-01  1.9120460490969D-01
115  1.1400000000000D+00 -5.6928106111396D-01  2.8494514226789D-01
116  1.1500000000000D+00 -5.0380305963705D-01  3.8656729755616D-01
117  1.1600000000000D+00 -4.3521130312824D-01  4.9502098940604D-01
118  1.1700000000000D+00 -3.6404244610709D-01  6.0912546836712D-01
119  1.1800000000000D+00 -2.9088261616366D-01  7.2758985749059D-01
120  1.1900000000000D+00 -2.1635304159662D-01  8.4904547938201D-01
121  1.2000000000000D+00 -1.4110870165507D-01  9.7204883443832D-01
122  1.2100000000000D+00 -6.5828093712654D-02  1.0951057242608D+00
123  1.2200000000000D+00  8.8011322269707D-03  1.2167030969607D+00
124  1.2300000000000D+00  8.2081096460655D-02  1.3353065637813D+00
125  1.2400000000000D+00  1.5332385394103D-01  1.4494067624254D+00
126  1.2500000000000D+00  2.2186395988369D-01  1.5575474959265D+00
127  1.2600000000000D+00  2.8704789312281D-01  1.6583013596175D+00
128  1.2700000000000D+00  3.4826425523082D-01  1.7503387805226D+00
129  1.2800000000000D+00  4.0495794596078D-01  1.8324598711682D+00
130  1.2900000000000D+00  4.5660056649333D-01  1.9035268413002D+00
131  1.3000000000000D+00  5.0274239285914D-01  1.9625823532333D+00
132  1.3100000000000D+00  5.4301094379999D-01  2.0088457821069D+00
133  1.3200000000000D+00  5.7706698826575D-01  2.0416132412929D+00
134  1.3300000000000D+00  6.0469427317348D-01  2.0604612331246D+00
135  1.3400000000000D+00  6.2574617793812D-01  2.0651251063292D+00
136  1.3500000000000D+00  6.4012149191633D-01  2.0554443705253D+00
137  1.3600000000000D+00  6.4787355403713D-01  2.0316094567163D+00
138  1.3700000000000D+00  6.4908811107955D-01  1.9938850123835D+00
139  1.3800000000000D+00  6.4395035367664D-01  1.9427616198185D+00
140  1.3900000000000D+00  6.3275171791448D-01  1.8789703322917D+00
141  1.4000000000000D+00  6.1581155185196D-01  1.8033063819034D+00
142  1.4100000000000D+00  5.9358207282375D-01  1.7168647438520D+00
143  1.4200000000000D+00  5.6654417106319D-01  1.6208055132592D+00
144  1.4300000000000D+00  5.3525195958354D-01  1.5164541613975D+00
145  1.4400000000000D+00  5.0032187818501D-01  1.4052751693793D+00
146  1.4500000000000D+00  4.6239604731322D-01  1.2887923002447D+00
147  1.4600000000000D+00  4.2217334301553D-01  1.1686534680085D+00
148  1.4700000000000D+00  3.8036342073508D-01  1.0465317414549D+00
149  1.4800000000000D+00  3.3770067467115D-01  9.2415291913087D-01
150  1.4900000000000D+00  2.9491182313191D-01  8.0322321697401D-01
151  1.5000000000000D+00  2.5274187597005D-01  6.8548928368167D-01
152  1.5100000000000D+00  2.1187498962493D-01  5.7255425114257D-01
153  1.5200000000000D+00  1.7303952661096D-01  4.6612310746203D-01
154  1.5300000000000D+00  1.3683383209445D-01  3.6759761879558D-01
155  1.5400000000000D+00  1.0390516370470D-01  2.7849252902014D-01
156  1.5500000000000D+00  7.4759400884365D-02  1.9999432880630D-01
157  1.5600000000000D+00  4.9906307055595D-02  1.3329816885540D-01
158  1.5700000000000D+00  2.9739596899760D-02  7.9330352743538D-02
159  1.5800000000000D+00  1.4594796212744D-02  3.8882536715152D-02
160  1.5900000000000D+00  5.1913731357632D-03  1.3797187606525D-02
161  1.6000000000000D+00  6.9587794237758D-04  1.8166501278120D-03
162  1.6100000000000D+00 -6.3796484916910D-04 -1.7227007575447D-03
163  1.6200000000000D+00 -2.0019906076627D-04 -5.3732153241382D-04
164  1.6300000000000D+00 -1.5584487826170D-06 -1.9322971176303D-06
165  1.6400000000000D+00 -3.6265718343570D-07 -4.4965316669822D-07
166  1.6500000000000D+00  0.0000000000000D+00  0.0000000000000D+00
167  1.6600000000000D+00  0.0000000000000D+00  0.0000000000000D+00
168  1.6700000000000D+00  0.0000000000000D+00  0.0000000000000D+00
169  1.6800000000000D+00  0.0000000000000D+00  0.0000000000000D+00
170  1.6900000000000D+00  0.0000000000000D+00  0.0000000000000D+00
171  1.7000000000000D+00  0.0000000000000D+00  0.0000000000000D+00
172  1.7100000000000D+00  0.0000000000000D+00  0.0000000000000D+00
173  1.7200000000000D+00  0.0000000000000D+00  0.0000000000000D+00
174  1.7300000000000D+00  0.0000000000000D+00  0.0000000000000D+00
175  1.7400000000000D+00  0.0000000000000D+00  0.0000000000000D+00
176  1.7500000000000D+00  0.0000000000000D+00  0.0000000000000D+00
177  1.7600000000000D+00  0.0000000000000D+00  0.0000000000000D+00
178  1.7700000000000D+00  0.0000000000000D+00  0.0000000000000D+00
179  1.7800000000000D+00  0.0000000000000D+00  0.0000000000000D+00
180  1.7900000000000D+00  0.0000000000000D+00  0.0000000000000D+00
181  1.8000000000000D+00  0.0000000000000D+00  0.0000000000000D+00
182  1.8100000000000D+00  0.0000000000000D+00  0.0000000000000D+00
183  1.8200000000000D+00  0.0000000000000D+00  0.0000000000000D+00
184  1.8300000000000D+00  0.0000000000000D+00  0.0000000000000D+00
185  1.8400000000000D+00  0.0000000000000D+00  0.0000000000000D+00
186  1.8500000000000D+00  0.0000000000000D+00  0.0000000000000D+00
187  1.8600000000000D+00  0.0000000000000D+00  0.0000000000000D+00
188  1.8700000000000D+00  0.0000000000000D+00  0.0000000000000D+00
189  1.8800000000000D+00  0.0000000000000D+00  0.0000000000000D+00
190  1.8900000000000D+00  0.0000000000000D+00  0.0000000000000D+00
191  1.9000000000000D+00  0.0000000000000D+00  0.0000000000000D+00
192  1.9100000000000D+00  0.0000000000000D+00  0.0000000000000D+00
193  1.9200000000000D+00  0.0000000000000D+00  0.0000000000000D+00
194  1.9300000000000D+00  0.0000000000000D+00  0.0000000000000D+00
195  1.9400000000000D+00  0.0000000000000D+00  0.0000000000000D+00
196  1.9500000000000D+00  0.0000000000000D+00  0.0000000000000D+00
197  1.9600000000000D+00  0.0000000000000D+00  0.0000000000000D+00
198  1.9700000000000D+00  0.0000000000000D+00  0.0000000000000D+00
199  1.9800000000000D+00  0.0000000000000D+00  0.0000000000000D+00
200  1.9900000000000D+00  0.0000000000000D+00  0.0000000000000D+00
201  2.0000000000000D+00  0.0000000000000D+00  0.0000000000000D+00
202  2.0100000000000D+00  0.0000000000000D+00  0.0000000000000D+00
203  2.0200000000000D+00  0.0000000000000D+00  0.0000000000000D+00
204  2.0300000000000D+00  0.0000000000000D+00  0.0000000000000D+00
205  2.0400000000000D+00  0.0000000000000D+00  0.0000000000000D+00
206  2.0500000000000D+00  0.0000000000000D+00  0.0000000000000D+00
207  2.0600000000000D+00  0.0000000000000D+00  0.0000000000000D+00
208  2.0700000000000D+00  0.0000000000000D+00  0.0000000000000D+00
209  2.0800000000000D+00  0.0000000000000D+00  0.0000000000000D+00
210  2.0900000000000D+00  0.0000000000000D+00  0.0000000000000D+00
211  2.1000000000000D+00  0.0000000000000D+00  0.0000000000000D+00
212  2.1100000000000D+00  0.0000000000000D+00  0.0000000000000D+00
213  2.1200000000000D+00  0.0000000000000D+00  0.0000000000000D+00
214  2.1300000000000D+00  0.0000000000000D+00  0.0000000000000D+00
215  2.1400000000000D+00  0.0000000000000D+00  0.0000000000000D+00
216  2.1500000000000D+00  0.0000000000000D+00  0.0000000000000D+00
217  2.1600000000000D+00  0.0000000000000D+00  0.0000000000000D+00
218  2.1700000000000D+00  0.0000000000000D+00  0.0000000000000D+00
219  2.1800000000000D+00  0.0000000000000D+00  0.0000000000000D+00
220  2.1900000000000D+00  0.0000000000000D+00  0.0000000000000D+00
221  2.2000000000000D+00  0.0000000000000D+00  0.0000000000000D+00
222  2.2100000000000D+00  0.0000000000000D+00  0.0000000000000D+00
223  2.2200000000000D+00  0.0000000000000D+00  0.0000000000000D+00
224  2.2300000000000D+00  0.0000000000000D+00  0.0000000000000D+00
225  2.2400000000000D+00  0.0000000000000D+00  0.0000000000000D+00
226  2.2500000000000D+00  0.0000000000000D+00  0.0000000000000D+00
227  2.2600000000000D+00  0.0000000000000D+00  0.0000000000000D+00
228  2.2700000000000D+00  0.0000000000000D+00  0.0000000000000D+00
229  2.2800000000000D+00  0.0000000000000D+00  0.0000000000000D+00
230  2.2900000000000D+00  0.0000000000000D+00  0.0000000000000D+00
231  2.3000000000000D+00  0.0000000000000D+00  0.0000000000000D+00
232  2.3100000000000D+00  0.0000000000000D+00  0.0000000000000D+00
233  2.3200000000000D+00  0.0000000000000D+00  0.0000000000000D+00
234  2.3300000000000D+00  0.0000000000000D+00  0.0000000000000D+00
235  2.3400000000000D+00  0.0000000000000D+00  0.0000000000000D+00
236  2.3500000000000D+00  0.0000000000000D+00  0.0000000000000D+00
237  2.3600000000000D+00  0.0000000000000D+00  0.0000000000000D+00
238  2.3700000000000D+00  0.0000000000000D+00  0.0000000000000D+00
239  2.3800000000000D+00  0.0000000000000D+00  0.0000000000000D+00
240  2.3900000000000D+00  0.0000000000000D+00  0.0000000000000D+00
241  2.4000000000000D+00  0.0000000000000D+00  0.0000000000000D+00
242  2.4100000000000D+00  0.0000000000000D+00  0.0000000000000D+00
243  2.4200000000000D+00  0.0000000000000D+00  0.0000000000000D+00
244  2.4300000000000D+00  0.0000000000000D+00  0.0000000000000D+00
245  2.4400000000000D+00  0.0000000000000D+00  0.0000000000000D+00
246  2.4500000000000D+00  0.0000000000000D+00  0.0000000000000D+00
247  2.4600000000000D+00  0.0000000000000D+00  0.0000000000000D+00
248  2.4700000000000D+00  0.0000000000000D+00  0.0000000000000D+00
249  2.4800000000000D+00  0.0000000000000D+00  0.0000000000000D+00
250  2.4900000000000D+00  0.0000000000000D+00  0.0000000000000D+00
251  2.5000000000000D+00  0.0000000000000D+00  0.0000000000000D+00
252  2.5100000000000D+00  0.0000000000000D+00  0.0000000000000D+00
253  2.5200000000000D+00  0.0000000000000D+00  0.0000000000000D+00
254  2.5300000000000D+00  0.0000000000000D+00  0.0000000000000D+00
255  2.5400000000000D+00  0.0000000000000D+00  0.0000000000000D+00
256  2.5500000000000D+00  0.0000000000000D+00  0.0000000000000D+00
257  2.5600000000000D+00  0.0000000000000D+00  0.0000000000000D+00
258  2.5700000000000D+00  0.0000000000000D+00  0.0000000000000D+00
259  2.5800000000000D+00  0.0000000000000D+00  0.0000000000000D+00
260  2.5900000000000D+00  0.0000000000000D+00  0.0000000000000D+00
261  2.6000000000000D+00  0.0000000000000D+00  0.0000000000000D+00
262  2.6100000000000D+00  0.0000000000000D+00  0.0000000000000D+00
263  2.6200000000000D+00  0.0000000000000D+00  0.0000000000000D+00
264  2.6300000000000D+00  0.0000000000000D+00  0.0000000000000D+00
265  2.6400000000000D+00  0.0000000000000D+00  0.0000000000000D+00
266  2.6500000000000D+00  0.0000000000000D+00  0.0000000000000D+00
267  2.6600000000000D+00  0.0000000000000D+00  0.0000000000000D+00
268  2.6700000000000D+00  0.0000000000000D+00  0.0000000000000D+00
269  2.6800000000000D+00  0.0000000000000D+00  0.0000000000000D+00
270  2.6900000000000D+00  0.0000000000000D+00  0.0000000000000D+00
271  2.7000000000000D+00  0.0000000000000D+00  0.0000000000000D+00
272  2.7100000000000D+00  0.0000000000000D+00  0.0000000000000D+00
273  2.7200000000000D+00  0.0000000000000D+00  0.0000000000000D+00
274  2.7300000000000D+00  0.0000000000000D+00  0.0000000000000D+00
275  2.7400000000000D+00  0.0000000000000D+00  0.0000000000000D+00
276  2.7500000000000D+00  0.0000000000000D+00  0.0000000000000D+00
277  2.7600000000000D+00  0.0000000000000D+00  0.0000000000000D+00
278  2.7700000000000D+00  0.0000000000000D+00  0.0000000000000D+00
279  2.7800000000000D+00  0.0000000000000D+00  0.0000000000000D+00
280  2.7900000000000D+00  0.0000000000000D+00  0.0000000000000D+00
281  2.8000000000000D+00  0.0000000000000D+00  0.0000000000000D+00
282  2.8100000000000D+00  0.0000000000000D+00  0.0000000000000D+00
283  2.8200000000000D+00  0.0000000000000D+00  0.0000000000000D+00
284  2.8300000000000D+00  0.0000000000000D+00  0.0000000000000D+00
285  2.8400000000000D+00  0.0000000000000D+00  0.0000000000000D+00
286  2.8500000000000D+00  0.0000000000000D+00  0.0000000000000D+00
287  2.8600000000000D+00  0.0000000000000D+00  0.0000000000000D+00
288  2.8700000000000D+00  0.0000000000000D+00  0.0000000000000D+00
289  2.8800000000000D+00  0.0000000000000D+00  0.0000000000000D+00
290  2.8900000000000D+00  0.0000000000000D+00  0.0000000000000D+00
291  2.9000000000000D+00  0.0000000000000D+00  0.0000000000000D+00
292  2.9100000000000D+00  0.0000000000000D+00  0.0000000000000D+00
293  2.9200000000000D+00  0.0000000000000D+00  0.0000000000000D+00
294  2.9300000000000D+00  0.0000000000000D+00  0.0000000000000D+00
295  2.9400000000000D+00  0.0000000000000D+00  0.0000000000000D+00
296  2.9500000000000D+00  0.0000000000000D+00  0.0000000000000D+00
297  2.9600000000000D+00  0.0000000000000D+00  0.0000000000000D+00
298  2.9700000000000D+00  0.0000000000000D+00  0.0000000000000D+00
299  2.9800000000000D+00  0.0000000000000D+00  0.0000000000000D+00
300  2.9900000000000D+00  0.0000000000000D+00  0.0000000000000D+00
301  3.0000000000000D+00  0.0000000000000D+00  0.0000000000000D+00
302  3.0100000000000D+00  0.0000000000000D+00  0.0000000000000D+00
303  3.0200000000000D+00  0.0000000000000D+00  0.0000000000000D+00
304  3.0300000000000D+00  0.0000000000000D+00  0.0000000000000D+00
305  3.0400000000000D+00  0.0000000000000D+00  0.0000000000000D+00
306  3.0500000000000D+00  0.0000000000000D+00  0.0000000000000D+00
307  3.0600000000000D+00  0.0000000000000D+00  0.0000000000000D+00
308  3.0700000000000D+00  0.0000000000000D+00  0.0000000000000D+00
309  3.0800000000000D+00  0.0000000000000D+00  0.0000000000000D+00
310  3.0900000000000D+00  0.0000000000000D+00  0.0000000000000D+00
311  3.1000000000000D+00  0.0000000000000D+00  0.0000000000000D+00
312  3.1100000000000D+00  0.0000000000000D+00  0.0000000000000D+00
313  3.1200000000000D+00  0.0000000000000D+00  0.0000000000000D+00
314  3.1300000000000D+00  0.0000000000000D+00  0.0000000000000D+00
315  3.1400000000000D+00  0.0000000000000D+00  0.0000000000000D+00
316  3.1500000000000D+00  0.0000000000000D+00  0.0000000000000D+00
317  3.1600000000000D+00  0.0000000000000D+00  0.0000000000000D+00
318  3.1700000000000D+00  0.0000000000000D+00  0.0000000000000D+00
319  3.1800000000000D+00  0.0000000000000D+00  0.0000000000000D+00
320  3.1900000000000D+00  0.0000000000000D+00  0.0000000000000D+00
321  3.2000000000000D+00  0.0000000000000D+00  0.0000000000000D+00
322  3.2100000000000D+00  0.0000000000000D+00  0.0000000000000D+00
323  3.2200000000000D+00  0.0000000000000D+00  0.0000000000000D+00
324  3.2300000000000D+00  0.0000000000000D+00  0.0000000000000D+00
325  3.2400000000000D+00  0.0000000000000D+00  0.0000000000000D+00
326  3.2500000000000D+00  0.0000000000000D+00  0.0000000000000D+00
327  3.2600000000000D+00  0.0000000000000D+00  0.0000000000000D+00
328  3.2700000000000D+00  0.0000000000000D+00  0.0000000000000D+00
329  3.2800000000000D+00  0.0000000000000D+00  0.0000000000000D+00
330  3.2900000000000D+00  0.0000000000000D+00  0.0000000000000D+00
331  3.3000000000000D+00  0.0000000000000D+00  0.0000000000000D+00
332  3.3100000000000D+00  0.0000000000000D+00  0.0000000000000D+00
333  3.3200000000000D+00  0.0000000000000D+00  0.0000000000000D+00
334  3.3300000000000D+00  0.0000000000000D+00  0.0000000000000D+00
335  3.3400000000000D+00  0.0000000000000D+00  0.0000000000000D+00
336  3.3500000000000D+00  0.0000000000000D+00  0.0000000000000D+00
337  3.3600000000000D+00  0.0000000000000D+00  0.0000000000000D+00
338  3.3700000000000D+00  0.0000000000000D+00  0.0000000000000D+00
339  3.3800000000000D+00  0.0000000000000D+00  0.0000000000000D+00
340  3.3900000000000D+00  0.0000000000000D+00  0.0000000000000D+00
341  3.4000000000000D+00  0.0000000000000D+00  0.0000000000000D+00
342  3.4100000000000D+00  0.0000000000000D+00  0.0000000000000D+00
343  3.4200000000000D+00  0.0000000000000D+00  0.0000000000000D+00
344  3.4300000000000D+00  0.0000000000000D+00  0.0000000000000D+00
345  3.4400000000000D+00  0.0000000000000D+00  0.0000000000000D+00
346  3.4500000000000D+00  0.0000000000000D+00  0.0000000000000D+00
347  3.4600000000000D+00  0.0000000000000D+00  0.0000000000000D+00
348  3.4700000000000D+00  0.0000000000000D+00  0.0000000000000D+00
349  3.4800000000000D+00  0.0000000000000D+00  0.0000000000000D+00
350  3.4900000000000D+00  0.0000000000000D+00  0.0000000000000D+00
351  3.5000000000000D+00  0.0000000000000D+00  0.0000000000000D+00
352  3.5100000000000D+00  0.0000000000000D+00  0.0000000000000D+00
353  3.5200000000000D+00  0.0000000000000D+00  0.0000000000000D+00
354  3.5300000000000D+00  0.0000000000000D+00  0.0000000000000D+00
355  3.5400000000000D+00  0.0000000000000D+00  0.0000000000000D+00
356  3.5500000000000D+00  0.0000000000000D+00  0.0000000000000D+00
357  3.5600000000000D+00  0.0000000000000D+00  0.0000000000000D+00
358  3.5700000000000D+00  0.0000000000000D+00  0.0000000000000D+00
359  3.5800000000000D+00  0.0000000000000D+00  0.0000000000000D+00
360  3.5900000000000D+00  0.0000000000000D+00  0.0000000000000D+00
361  3.6000000000000D+00  0.0000000000000D+00  0.0000000000000D+00
362  3.6100000000000D+00  0.0000000000000D+00  0.0000000000000D+00
363  3.6200000000000D+00  0.0000000000000D+00  0.0000000000000D+00
364  3.6300000000000D+00  0.0000000000000D+00  0.0000000000000D+00
365  3.6400000000000D+00  0.0000000000000D+00  0.0000000000000D+00
366  3.6500000000000D+00  0.0000000000000D+00  0.0000000000000D+00
367  3.6600000000000D+00  0.0000000000000D+00  0.0000000000000D+00
368  3.6700000000000D+00  0.0000000000000D+00  0.0000000000000D+00
369  3.6800000000000D+00  0.0000000000000D+00  0.0000000000000D+00
370  3.6900000000000D+00  0.0000000000000D+00  0.0000000000000D+00
371  3.7000000000000D+00  0.0000000000000D+00  0.0000000000000D+00
372  3.7100000000000D+00  0.0000000000000D+00  0.0000000000000D+00
373  3.7200000000000D+00  0.0000000000000D+00  0.0000000000000D+00
374  3.7300000000000D+00  0.0000000000000D+00  0.0000000000000D+00
375  3.7400000000000D+00  0.0000000000000D+00  0.0000000000000D+00
376  3.7500000000000D+00  0.0000000000000D+00  0.0000000000000D+00
377  3.7600000000000D+00  0.0000000000000D+00  0.0000000000000D+00
378  3.7700000000000D+00  0.0000000000000D+00  0.0000000000000D+00
379  3.7800000000000D+00  0.0000000000000D+00  0.0000000000000D+00
380  3.7900000000000D+00  0.0000000000000D+00  0.0000000000000D+00
381  3.8000000000000D+00  0.0000000000000D+00  0.0000000000000D+00
382  3.8100000000000D+00  0.0000000000000D+00  0.0000000000000D+00
383  3.8200000000000D+00  0.0000000000000D+00  0.0000000000000D+00
384  3.8300000000000D+00  0.0000000000000D+00  0.0000000000000D+00
385  3.8400000000000D+00  0.0000000000000D+00  0.0000000000000D+00
386  3.8500000000000D+00  0.0000000000000D+00  0.0000000000000D+00
387  3.8600000000000D+00  0.0000000000000D+00  0.0000000000000D+00
388  3.8700000000000D+00  0.0000000000000D+00  0.0000000000000D+00
389  3.8800000000000D+00  0.0000000000000D+00  0.0000000000000D+00
390  3.8900000000000D+00  0.0000000000000D+00  0.0000000000000D+00
391  3.9000000000000D+00  0.0000000000000D+00  0.0000000000000D+00
392  3.9100000000000D+00  0.0000000000000D+00  0.0000000000000D+00
393  3.9200000000000D+00  0.0000000000000D+00  0.0000000000000D+00
394  3.9300000000000D+00  0.0000000000000D+00  0.0000000000000D+00
395  3.9400000000000D+00  0.0000000000000D+00  0.0000000000000D+00
396  3.9500000000000D+00  0.0000000000000D+00  0.0000000000000D+00
397  3.9600000000000D+00  0.0000000000000D+00  0.0000000000000D+00
398  3.9700000000000D+00  0.0000000000000D+00  0.0000000000000D+00
399  3.9800000000000D+00  0.0000000000000D+00  0.0000000000000D+00
400  3.9900000000000D+00  0.0000000000000D+00  0.0000000000000D+00
401  4.0000000000000D+00  0.0000000000000D+00  0.0000000000000D+00
402  4.0100000000000D+00  0.0000000000000D+00  0.0000000000000D+00
403  4.0200000000000D+00  0.0000000000000D+00  0.0000000000000D+00
404  4.0300000000000D+00  0.0000000000000D+00  0.0000000000000D+00
405  4.0400000000000D+00  0.0000000000000D+00  0.0000000000000D+00
406  4.0500000000000D+00  0.0000000000000D+00  0.0000000000000D+00
407  4.0600000000000D+00  0.0000000000000D+00  0.0000000000000D+00
408  4.0700000000000D+00  0.0000000000000D+00  0.0000000000000D+00
409  4.0800000000000D+00  0.0000000000000D+00  0.0000000000000D+00
410  4.0900000000000D+00  0.0000000000000D+00  0.0000000000000D+00
411  4.1000000000000D+00  0.0000000000000D+00  0.0000000000000D+00
412  4.1100000000000D+00  0.0000000000000D+00  0.0000000000000D+00
413  4.1200000000000D+00  0.0000000000000D+00  0.0000000000000D+00
414  4.1300000000000D+00  0.0000000000000D+00  0.0000000000000D+00
415  4.1400000000000D+00  0.0000000000000D+00  0.0000000000000D+00
416  4.1500000000000D+00  0.0000000000000D+00  0.0000000000000D+00
417  4.1600000000000D+00  0.0000000000000D+00  0.0000000000000D+00
418  4.1700000000000D+00  0.0000000000000D+00  0.0000000000000D+00
419  4.1800000000000D+00  0.0000000000000D+00  0.0000000000000D+00
420  4.1900000000000D+00  0.0000000000000D+00  0.0000000000000D+00
421  4.2000000000000D+00  0.0000000000000D+00  0.0000000000000D+00
422  4.2100000000000D+00  0.0000000000000D+00  0.0000000000000D+00
423  4.2200000000000D+00  0.0000000000000D+00  0.0000000000000D+00
424  4.2300000000000D+00  0.0000000000000D+00  0.0000000000000D+00
425  4.2400000000000D+00  0.0000000000000D+00  0.0000000000000D+00
426  4.2500000000000D+00  0.0000000000000D+00  0.0000000000000D+00
427  4.2600000000000D+00  0.0000000000000D+00  0.0000000000000D+00
428  4.2700000000000D+00  0.0000000000000D+00  0.0000000000000D+00
429  4.2800000000000D+00  0.0000000000000D+00  0.0000000000000D+00
430  4.2900000000000D+00  0.0000000000000D+00  0.0000000000000D+00
431  4.3000000000000D+00  0.0000000000000D+00  0.0000000000000D+00
432  4.3100000000000D+00  0.0000000000000D+00  0.0000000000000D+00
433  4.3200000000000D+00  0.0000000000000D+00  0.0000000000000D+00
434  4.3300000000000D+00  0.0000000000000D+00  0.0000000000000D+00
435  4.3400000000000D+00  0.0000000000000D+00  0.0000000000000D+00
436  4.3500000000000D+00  0.0000000000000D+00  0.0000000000000D+00
437  4.3600000000000D+00  0.0000000000000D+00  0.0000000000000D+00
438  4.3700000000000D+00  0.0000000000000D+00  0.0000000000000D+00
439  4.3800000000000D+00  0.0000000000000D+00  0.0000000000000D+00
440  4.3900000000000D+00  0.0000000000000D+00  0.0000000000000D+00
441  4.4000000000000D+00  0.0000000000000D+00  0.0000000000000D+00
442  4.4100000000000D+00  0.0000000000000D+00  0.0000000000000D+00
443  4.4200000000000D+00  0.0000000000000D+00  0.0000000000000D+00
444  4.4300000000000D+00  0.0000000000000D+00  0.0000000000000D+00