Y     ONCVPSP-3.3.0  r_core=   1.60520   1.51226   1.56736
39.0000     11.0000      180112    zatom,zion,pspd
8 -116133   2     4   600     0    pspcod,pspxc,lmax,lloc,mmax,r2well
5.99000000  4.00000000  0.00000000    rchrg fchrg qchrg
2     2     2     0     0    nproj
1     1           extension_switch
0                         1.0130767612966D+01  8.6650412365886D-01
1  0.0000000000000D+00  7.0623451531304D-11 -2.5740239106842D-10
2  1.0000000000000D-02  4.9089690663841D-02 -9.4122706919706D-03
3  2.0000000000000D-02  9.8145562443430D-02 -1.8882188917493D-02
4  3.0000000000000D-02  1.4713359040228D-01 -2.8466438135457D-02
5  4.0000000000000D-02  1.9601933981313D-01 -3.8219782255577D-02
6  5.0000000000000D-02  2.4476776702869D-01 -4.8194127298725D-02
7  6.0000000000000D-02  2.9334302722179D-01 -5.8437608596254D-02
8  7.0000000000000D-02  3.4170829120110D-01 -6.8993711737772D-02
9  8.0000000000000D-02  3.8982557343859D-01 -7.9900435219431D-02
10  9.0000000000000D-02  4.3765557335699D-01 -9.1189502426248D-02
11  1.0000000000000D-01  4.8515753182236D-01 -1.0288563020460D-01
12  1.1000000000000D-01  5.3228910466762D-01 -1.1500586084765D-01
13  1.2000000000000D-01  5.7900625493973D-01 -1.2755896382947D-01
14  1.3000000000000D-01  6.2526316541558D-01 -1.4054491308715D-01
15  1.4000000000000D-01  6.7101217277204D-01 -1.5395444506741D-01
16  1.5000000000000D-01  7.1620372462412D-01 -1.6776870212930D-01
17  1.6000000000000D-01  7.6078636046346D-01 -1.8195896523245D-01
18  1.7000000000000D-01  8.0470671733837D-01 -1.9648647914444D-01
19  1.8000000000000D-01  8.4790956091848D-01 -2.1130237267763D-01
20  1.9000000000000D-01  8.9033784238170D-01 -2.2634767571902D-01
21  2.0000000000000D-01  9.3193278135188D-01 -2.4155343405281D-01
22  2.1000000000000D-01  9.7263397490229D-01 -2.5684092219860D-01
23  2.2000000000000D-01  1.0123795324251D+00 -2.7212195370575D-01
24  2.3000000000000D-01  1.0511062359518D+00 -2.8729928756015D-01
25  2.4000000000000D-01  1.0887497252962D+00 -3.0226712858127D-01
26  2.5000000000000D-01  1.1252447071794D+00 -3.1691171891873D-01
27  2.6000000000000D-01  1.1605251872907D+00 -3.3111201700555D-01
28  2.7000000000000D-01  1.1945247240372D+00 -3.4474045959579D-01
29  2.8000000000000D-01  1.2271767025416D+00 -3.5766380181110D-01
30  2.9000000000000D-01  1.2584146272640D+00 -3.6974402945161D-01
31  3.0000000000000D-01  1.2881724314487D+00 -3.8083933719480D-01
32  3.1000000000000D-01  1.3163848014357D+00 -3.9080516571761D-01
33  3.2000000000000D-01  1.3429875137276D+00 -3.9949529023653D-01
34  3.3000000000000D-01  1.3679177825657D+00 -4.0676295247191D-01
35  3.4000000000000D-01  1.3911146156534D+00 -4.1246202761040D-01
36  3.5000000000000D-01  1.4125191755571D+00 -4.1644821746808D-01
37  3.6000000000000D-01  1.4320751442327D+00 -4.1858026074720D-01
38  3.7000000000000D-01  1.4497290880556D+00 -4.1872115103793D-01
39  3.8000000000000D-01  1.4654308206840D+00 -4.1673935304227D-01
40  3.9000000000000D-01  1.4791337610548D+00 -4.1251000739476D-01
41  4.0000000000000D-01  1.4907952838016D+00 -4.0591611442363D-01
42  4.1000000000000D-01  1.5003770593945D+00 -3.9684968723868D-01
43  4.2000000000000D-01  1.5078453813300D+00 -3.8521286464817D-01
44  4.3000000000000D-01  1.5131714777503D+00 -3.7091897459708D-01
45  4.4000000000000D-01  1.5163318049417D+00 -3.5389353908086D-01
46  4.5000000000000D-01  1.5173083202498D+00 -3.3407521182413D-01
47  4.6000000000000D-01  1.5160887320591D+00 -3.1141664041728D-01
48  4.7000000000000D-01  1.5126667246120D+00 -2.8588524507650D-01
49  4.8000000000000D-01  1.5070421555872D+00 -2.5746390672943D-01
50  4.9000000000000D-01  1.4992212245183D+00 -2.2615155772746D-01
51  5.0000000000000D-01  1.4892166103145D+00 -1.9196366914156D-01
52  5.1000000000000D-01  1.4770475763353D+00 -1.5493262930900D-01
53  5.2000000000000D-01  1.4627400416791D+00 -1.1510800905570D-01
54  5.3000000000000D-01  1.4463266175636D+00 -7.2556709822161D-02
55  5.4000000000000D-01  1.4278466079064D+00 -2.7362991758822D-02
56  5.5000000000000D-01  1.4073459734496D+00  2.0371620269684D-02
57  5.6000000000000D-01  1.3848772590232D+00  7.0528553936750D-02
58  5.7000000000000D-01  1.3604994837866D+00  1.2297253021016D-01
59  5.8000000000000D-01  1.3342779945506D+00  1.7755202693277D-01
60  5.9000000000000D-01  1.3062842825326D+00  2.3409986361341D-01
61  6.0000000000000D-01  1.2765957641599D+00  2.9243390488305D-01
62  6.1000000000000D-01  1.2452955267901D+00  3.5235787914655D-01
63  6.2000000000000D-01  1.2124720404683D+00  4.1366230805711D-01
64  6.3000000000000D-01  1.1782188370906D+00  4.7612554155286D-01
65  6.4000000000000D-01  1.1426341585767D+00  5.3951489234726D-01
66  6.5000000000000D-01  1.1058205758907D+00  6.0358786294654D-01
67  6.6000000000000D-01  1.0678845809598D+00  6.6809345749664D-01
68  6.7000000000000D-01  1.0289361537537D+00  7.3277357004461D-01
69  6.8000000000000D-01  9.8908830696978D-01  7.9736444013230D-01
70  6.9000000000000D-01  9.4845661095245D-01  8.6159816604186D-01
71  7.0000000000000D-01  9.0715870162352D-01  9.2520426547840D-01
72  7.1000000000000D-01  8.6531377434461D-01  9.8791127301668D-01
73  7.2000000000000D-01  8.2304206674680D-01  1.0494483632545D+00
74  7.3000000000000D-01  7.8046433366069D-01  1.1095469883146D+00
75  7.4000000000000D-01  7.3770131735379D-01  1.1679425181207D+00
76  7.5000000000000D-01  6.9487321633374D-01  1.2243758717417D+00
77  7.6000000000000D-01  6.5209915600397D-01  1.2785951280579D+00
78  7.7000000000000D-01  6.0949666446242D-01  1.3303571040521D+00
79  7.8000000000000D-01  5.6718115671406D-01  1.3794288891674D+00
80  7.9000000000000D-01  5.2526543052386D-01  1.4255893244050D+00
81  8.0000000000000D-01  4.8385917706913D-01  1.4686304151545D+00
82  8.1000000000000D-01  4.4306850945842D-01  1.5083586671571D+00
83  8.2000000000000D-01  4.0299551206966D-01  1.5445963354972D+00
84  8.3000000000000D-01  3.6373781352372D-01  1.5771825770919D+00
85  8.4000000000000D-01  3.2538818595072D-01  1.6059744978056D+00
86  8.5000000000000D-01  2.8803417302863D-01  1.6308480860440D+00
87  8.6000000000000D-01  2.5175774907565D-01  1.6516990254830D+00
88  8.7000000000000D-01  2.1663501126295D-01  1.6684433804472D+00
89  8.8000000000000D-01  1.8273590678308D-01  1.6810181483754D+00
90  8.9000000000000D-01  1.5012399656409D-01  1.6893816747765D+00
91  9.0000000000000D-01  1.1885625686114D-01  1.6935139270962D+00
92  9.1000000000000D-01  8.8982919789283D-02  1.6934166249575D+00
93  9.2000000000000D-01  6.0547353584028D-02  1.6891132253177D+00
94  9.3000000000000D-01  3.3585983093236D-02  1.6806487621740D+00
95  9.4000000000000D-01  8.1282507165649D-03  1.6680895415570D+00
96  9.5000000000000D-01 -1.5803382280177D-02  1.6515226936512D+00
97  9.6000000000000D-01 -3.8193394436699D-02  1.6310555849796D+00
98  9.7000000000000D-01 -5.9033123405427D-02  1.6068150946787D+00
99  9.8000000000000D-01 -7.8320646817836D-02  1.5789467599180D+00
100  9.9000000000000D-01 -9.6060625914326D-02  1.5476137965654D+00
101  1.0000000000000D+00 -1.1226411340196D-01  1.5129960021612D+00
102  1.0100000000000D+00 -1.2694832725677D-01  1.4752885491872D+00
103  1.0200000000000D+00 -1.4013639242605D-01  1.4347006774847D+00
104  1.0300000000000D+00 -1.5185705260802D-01  1.3914542954701D+00
105  1.0400000000000D+00 -1.6214435449513D-01  1.3457825005313D+00
106  1.0500000000000D+00 -1.7103730704026D-01  1.2979280295919D+00
107  1.0600000000000D+00 -1.7857951848785D-01  1.2481416514426D+00
108  1.0700000000000D+00 -1.8481881404005D-01  1.1966805128595D+00
109  1.0800000000000D+00 -1.8980683715218D-01  1.1438064509118D+00
110  1.0900000000000D+00 -1.9359863754617D-01  1.0897842841247D+00
111  1.1000000000000D+00 -1.9625224909357D-01  1.0348800953242D+00
112  1.1100000000000D+00 -1.9782826077284D-01  9.7935951906624D-01
113  1.1200000000000D+00 -1.9838938391366D-01  9.2348604648924D-01
114  1.1300000000000D+00 -1.9800001892803D-01  8.6751936025641D-01
115  1.1400000000000D+00 -1.9672582470010D-01  8.1171371204458D-01
116  1.1500000000000D+00 -1.9463329373912D-01  7.5631635464093D-01
117  1.1600000000000D+00 -1.9178933611031D-01  7.0156604024855D-01
118  1.1700000000000D+00 -1.8826087502447D-01  6.4769159594746D-01
119  1.1800000000000D+00 -1.8411445688086D-01  5.9491058683724D-01
120  1.1900000000000D+00 -1.7941587834208D-01  5.4342807638384D-01
121  1.2000000000000D+00 -1.7422983285305D-01  4.9343549274435D-01
122  1.2100000000000D+00 -1.6861957880758D-01  4.4510960891158D-01
123  1.2200000000000D+00 -1.6264663139934D-01  3.9861164377361D-01
124  1.2300000000000D+00 -1.5637047986416D-01  3.5408648974439D-01
125  1.2400000000000D+00 -1.4984833156574D-01  3.1166207152843D-01
126  1.2500000000000D+00 -1.4313488429376D-01  2.7144884021172D-01
127  1.2600000000000D+00 -1.3628212761149D-01  2.3353940459914D-01
128  1.2700000000000D+00 -1.2933917389221D-01  1.9800830089528D-01
129  1.2800000000000D+00 -1.2235211958688D-01  1.6491190140214D-01
130  1.2900000000000D+00 -1.1536393668156D-01  1.3428846045411D-01
131  1.3000000000000D+00 -1.0841439408067D-01  1.0615829490000D-01
132  1.3100000000000D+00 -1.0154000864803D-01  8.0524096408891D-02
133  1.3200000000000D+00 -9.4774024916651D-02  5.7371369892057D-02
134  1.3300000000000D+00 -8.8146422402639D-02  3.6668992046182D-02
135  1.3400000000000D+00 -8.1683949419766D-02  1.8369883838316D-02
136  1.3500000000000D+00 -7.5410181520544D-02  2.4117876237205D-03
137  1.3600000000000D+00 -6.9345602884812D-02 -1.1281859602882D-02
138  1.3700000000000D+00 -6.3507708657244D-02 -2.2800966641690D-02
139  1.3800000000000D+00 -5.7911125743272D-02 -3.2247753954619D-02
140  1.3900000000000D+00 -5.2567749872724D-02 -3.9735655534291D-02
141  1.4000000000000D+00 -4.7486896124559D-02 -4.5388169779836D-02
142  1.4100000000000D+00 -4.2675460175566D-02 -4.9337672039059D-02
143  1.4200000000000D+00 -3.8138087496003D-02 -5.1724201720948D-02
144  1.4300000000000D+00 -3.3877347341065D-02 -5.2694238164087D-02
145  1.4400000000000D+00 -2.9893908655257D-02 -5.2399478511515D-02
146  1.4500000000000D+00 -2.6186714667214D-02 -5.0995632035600D-02
147  1.4600000000000D+00 -2.2753152915991D-02 -4.8641245724331D-02
148  1.4700000000000D+00 -1.9589217575959D-02 -4.5496575147355D-02
149  1.4800000000000D+00 -1.6689661123868D-02 -4.1722512598406D-02
150  1.4900000000000D+00 -1.4048144378765D-02 -3.7479531414695D-02
151  1.5000000000000D+00 -1.1657397519077D-02 -3.2926567872960D-02
152  1.5100000000000D+00 -9.5090852814940D-03 -2.8221399538527D-02
153  1.5200000000000D+00 -7.5942607877887D-03 -2.3518056593524D-02
154  1.5300000000000D+00 -5.9041602401966D-03 -1.8962470585128D-02
155  1.5400000000000D+00 -4.4309425497165D-03 -1.4688659438111D-02
156  1.5500000000000D+00 -3.1687953247465D-03 -1.0814460604250D-02
157  1.5600000000000D+00 -2.1140188432223D-03 -7.4413929567630D-03
158  1.5700000000000D+00 -1.2613822190461D-03 -4.6364865503993D-03
159  1.5800000000000D+00 -6.1381600695253D-04 -2.4769471257104D-03
160  1.5900000000000D+00 -1.8495269313223D-04 -1.0797192186014D-03
161  1.6000000000000D+00  3.2764416885384D-05 -3.8388149989967D-04
162  1.6100000000000D+00  7.6650820020553D-05 -1.0441476598630D-04
163  1.6200000000000D+00  2.6069854443653D-05 -1.1957387792463D-05
164  1.6300000000000D+00 -1.2622958848816D-05  2.4412397474905D-06
165  1.6400000000000D+00 -7.2564768429616D-06  8.9386395705461D-08
166  1.6500000000000D+00  2.5739516943944D-06 -1.2328856659472D-06
167  1.6600000000000D+00  1.4933053795073D-06 -5.8038535604074D-07
168  1.6700000000000D+00 -1.8808593647783D-07  5.2479185593551D-07
169  1.6800000000000D+00 -1.0926546427128D-07  3.0486928931732D-07
170  1.6900000000000D+00  0.0000000000000D+00  0.0000000000000D+00
171  1.7000000000000D+00  0.0000000000000D+00  0.0000000000000D+00
172  1.7100000000000D+00  0.0000000000000D+00  0.0000000000000D+00
173  1.7200000000000D+00  0.0000000000000D+00  0.0000000000000D+00
174  1.7300000000000D+00  0.0000000000000D+00  0.0000000000000D+00
175  1.7400000000000D+00  0.0000000000000D+00  0.0000000000000D+00
176  1.7500000000000D+00  0.0000000000000D+00  0.0000000000000D+00
177  1.7600000000000D+00  0.0000000000000D+00  0.0000000000000D+00
178  1.7700000000000D+00  0.0000000000000D+00  0.0000000000000D+00
179  1.7800000000000D+00  0.0000000000000D+00  0.0000000000000D+00
180  1.7900000000000D+00  0.0000000000000D+00  0.0000000000000D+00
181  1.8000000000000D+00  0.0000000000000D+00  0.0000000000000D+00
182  1.8100000000000D+00  0.0000000000000D+00  0.0000000000000D+00
183  1.8200000000000D+00  0.0000000000000D+00  0.0000000000000D+00
184  1.8300000000000D+00  0.0000000000000D+00  0.0000000000000D+00
185  1.8400000000000D+00  0.0000000000000D+00  0.0000000000000D+00
186  1.8500000000000D+00  0.0000000000000D+00  0.0000000000000D+00
187  1.8600000000000D+00  0.0000000000000D+00  0.0000000000000D+00
188  1.8700000000000D+00  0.0000000000000D+00  0.0000000000000D+00
189  1.8800000000000D+00  0.0000000000000D+00  0.0000000000000D+00
190  1.8900000000000D+00  0.0000000000000D+00  0.0000000000000D+00
191  1.9000000000000D+00  0.0000000000000D+00  0.0000000000000D+00
192  1.9100000000000D+00  0.0000000000000D+00  0.0000000000000D+00
193  1.9200000000000D+00  0.0000000000000D+00  0.0000000000000D+00
194  1.9300000000000D+00  0.0000000000000D+00  0.0000000000000D+00
195  1.9400000000000D+00  0.0000000000000D+00  0.0000000000000D+00
196  1.9500000000000D+00  0.0000000000000D+00  0.0000000000000D+00
197  1.9600000000000D+00  0.0000000000000D+00  0.0000000000000D+00
198  1.9700000000000D+00  0.0000000000000D+00  0.0000000000000D+00
199  1.9800000000000D+00  0.0000000000000D+00  0.0000000000000D+00
200  1.9900000000000D+00  0.0000000000000D+00  0.0000000000000D+00
201  2.0000000000000D+00  0.0000000000000D+00  0.0000000000000D+00
202  2.0100000000000D+00  0.0000000000000D+00  0.0000000000000D+00
203  2.0200000000000D+00  0.0000000000000D+00  0.0000000000000D+00
204  2.0300000000000D+00  0.0000000000000D+00  0.0000000000000D+00
205  2.0400000000000D+00  0.0000000000000D+00  0.0000000000000D+00
206  2.0500000000000D+00  0.0000000000000D+00  0.0000000000000D+00
207  2.0600000000000D+00  0.0000000000000D+00  0.0000000000000D+00
208  2.0700000000000D+00  0.0000000000000D+00  0.0000000000000D+00
209  2.0800000000000D+00  0.0000000000000D+00  0.0000000000000D+00
210  2.0900000000000D+00  0.0000000000000D+00  0.0000000000000D+00
211  2.1000000000000D+00  0.0000000000000D+00  0.0000000000000D+00
212  2.1100000000000D+00  0.0000000000000D+00  0.0000000000000D+00
213  2.1200000000000D+00  0.0000000000000D+00  0.0000000000000D+00
214  2.1300000000000D+00  0.0000000000000D+00  0.0000000000000D+00
215  2.1400000000000D+00  0.0000000000000D+00  0.0000000000000D+00
216  2.1500000000000D+00  0.0000000000000D+00  0.0000000000000D+00
217  2.1600000000000D+00  0.0000000000000D+00  0.0000000000000D+00
218  2.1700000000000D+00  0.0000000000000D+00  0.0000000000000D+00
219  2.1800000000000D+00  0.0000000000000D+00  0.0000000000000D+00
220  2.1900000000000D+00  0.0000000000000D+00  0.0000000000000D+00
221  2.2000000000000D+00  0.0000000000000D+00  0.0000000000000D+00
222  2.2100000000000D+00  0.0000000000000D+00  0.0000000000000D+00
223  2.2200000000000D+00  0.0000000000000D+00  0.0000000000000D+00
224  2.2300000000000D+00  0.0000000000000D+00  0.0000000000000D+00
225  2.2400000000000D+00  0.0000000000000D+00  0.0000000000000D+00
226  2.2500000000000D+00  0.0000000000000D+00  0.0000000000000D+00
227  2.2600000000000D+00  0.0000000000000D+00  0.0000000000000D+00
228  2.2700000000000D+00  0.0000000000000D+00  0.0000000000000D+00
229  2.2800000000000D+00  0.0000000000000D+00  0.0000000000000D+00
230  2.2900000000000D+00  0.0000000000000D+00  0.0000000000000D+00
231  2.3000000000000D+00  0.0000000000000D+00  0.0000000000000D+00
232  2.3100000000000D+00  0.0000000000000D+00  0.0000000000000D+00
233  2.3200000000000D+00  0.0000000000000D+00  0.0000000000000D+00
234  2.3300000000000D+00  0.0000000000000D+00  0.0000000000000D+00
235  2.3400000000000D+00  0.0000000000000D+00  0.0000000000000D+00
236  2.3500000000000D+00  0.0000000000000D+00  0.0000000000000D+00
237  2.3600000000000D+00  0.0000000000000D+00  0.0000000000000D+00
238  2.3700000000000D+00  0.0000000000000D+00  0.0000000000000D+00
239  2.3800000000000D+00  0.0000000000000D+00  0.0000000000000D+00
240  2.3900000000000D+00  0.0000000000000D+00  0.0000000000000D+00
241  2.4000000000000D+00  0.0000000000000D+00  0.0000000000000D+00
242  2.4100000000000D+00  0.0000000000000D+00  0.0000000000000D+00
243  2.4200000000000D+00  0.0000000000000D+00  0.0000000000000D+00
244  2.4300000000000D+00  0.0000000000000D+00  0.0000000000000D+00
245  2.4400000000000D+00  0.0000000000000D+00  0.0000000000000D+00
246  2.4500000000000D+00  0.0000000000000D+00  0.0000000000000D+00
247  2.4600000000000D+00  0.0000000000000D+00  0.0000000000000D+00
248  2.4700000000000D+00  0.0000000000000D+00  0.0000000000000D+00
249  2.4800000000000D+00  0.0000000000000D+00  0.0000000000000D+00
250  2.4900000000000D+00  0.0000000000000D+00  0.0000000000000D+00
251  2.5000000000000D+00  0.0000000000000D+00  0.0000000000000D+00
252  2.5100000000000D+00  0.0000000000000D+00  0.0000000000000D+00
253  2.5200000000000D+00  0.0000000000000D+00  0.0000000000000D+00
254  2.5300000000000D+00  0.0000000000000D+00  0.0000000000000D+00
255  2.5400000000000D+00  0.0000000000000D+00  0.0000000000000D+00
256  2.5500000000000D+00  0.0000000000000D+00  0.0000000000000D+00
257  2.5600000000000D+00  0.0000000000000D+00  0.0000000000000D+00
258  2.5700000000000D+00  0.0000000000000D+00  0.0000000000000D+00
259  2.5800000000000D+00  0.0000000000000D+00  0.0000000000000D+00
260  2.5900000000000D+00  0.0000000000000D+00  0.0000000000000D+00
261  2.6000000000000D+00  0.0000000000000D+00  0.0000000000000D+00
262  2.6100000000000D+00  0.0000000000000D+00  0.0000000000000D+00
263  2.6200000000000D+00  0.0000000000000D+00  0.0000000000000D+00
264  2.6300000000000D+00  0.0000000000000D+00  0.0000000000000D+00
265  2.6400000000000D+00  0.0000000000000D+00  0.0000000000000D+00
266  2.6500000000000D+00  0.0000000000000D+00  0.0000000000000D+00
267  2.6600000000000D+00  0.0000000000000D+00  0.0000000000000D+00
268  2.6700000000000D+00  0.0000000000000D+00  0.0000000000000D+00
269  2.6800000000000D+00  0.0000000000000D+00  0.0000000000000D+00
270  2.6900000000000D+00  0.0000000000000D+00  0.0000000000000D+00
271  2.7000000000000D+00  0.0000000000000D+00  0.0000000000000D+00
272  2.7100000000000D+00  0.0000000000000D+00  0.0000000000000D+00
273  2.7200000000000D+00  0.0000000000000D+00  0.0000000000000D+00
274  2.7300000000000D+00  0.0000000000000D+00  0.0000000000000D+00
275  2.7400000000000D+00  0.0000000000000D+00  0.0000000000000D+00
276  2.7500000000000D+00  0.0000000000000D+00  0.0000000000000D+00
277  2.7600000000000D+00  0.0000000000000D+00  0.0000000000000D+00
278  2.7700000000000D+00  0.0000000000000D+00  0.0000000000000D+00
279  2.7800000000000D+00  0.0000000000000D+00  0.0000000000000D+00
280  2.7900000000000D+00  0.0000000000000D+00  0.0000000000000D+00
281  2.8000000000000D+00  0.0000000000000D+00  0.0000000000000D+00
282  2.8100000000000D+00  0.0000000000000D+00  0.0000000000000D+00
283  2.8200000000000D+00  0.0000000000000D+00  0.0000000000000D+00
284  2.8300000000000D+00  0.0000000000000D+00  0.0000000000000D+00
285  2.8400000000000D+00  0.0000000000000D+00  0.0000000000000D+00
286  2.8500000000000D+00  0.0000000000000D+00  0.0000000000000D+00
287  2.8600000000000D+00  0.0000000000000D+00  0.0000000000000D+00
288  2.8700000000000D+00  0.0000000000000D+00  0.0000000000000D+00
289  2.8800000000000D+00  0.0000000000000D+00  0.0000000000000D+00
290  2.8900000000000D+00  0.0000000000000D+00  0.0000000000000D+00
291  2.9000000000000D+00  0.0000000000000D+00  0.0000000000000D+00
292  2.9100000000000D+00  0.0000000000000D+00  0.0000000000000D+00
293  2.9200000000000D+00  0.0000000000000D+00  0.0000000000000D+00
294  2.9300000000000D+00  0.0000000000000D+00  0.0000000000000D+00
295  2.9400000000000D+00  0.0000000000000D+00  0.0000000000000D+00
296  2.9500000000000D+00  0.0000000000000D+00  0.0000000000000D+00
297  2.9600000000000D+00  0.0000000000000D+00  0.0000000000000D+00
298  2.9700000000000D+00  0.0000000000000D+00  0.0000000000000D+00
299  2.9800000000000D+00  0.0000000000000D+00  0.0000000000000D+00
300  2.9900000000000D+00  0.0000000000000D+00  0.0000000000000D+00
301  3.0000000000000D+00  0.0000000000000D+00  0.0000000000000D+00
302  3.0100000000000D+00  0.0000000000000D+00  0.0000000000000D+00
303  3.0200000000000D+00  0.0000000000000D+00  0.0000000000000D+00
304  3.0300000000000D+00  0.0000000000000D+00  0.0000000000000D+00
305  3.0400000000000D+00  0.0000000000000D+00  0.0000000000000D+00
306  3.0500000000000D+00  0.0000000000000D+00  0.0000000000000D+00
307  3.0600000000000D+00  0.0000000000000D+00  0.0000000000000D+00
308  3.0700000000000D+00  0.0000000000000D+00  0.0000000000000D+00
309  3.0800000000000D+00  0.0000000000000D+00  0.0000000000000D+00
310  3.0900000000000D+00  0.0000000000000D+00  0.0000000000000D+00
311  3.1000000000000D+00  0.0000000000000D+00  0.0000000000000D+00
312  3.1100000000000D+00  0.0000000000000D+00  0.0000000000000D+00
313  3.1200000000000D+00  0.0000000000000D+00  0.0000000000000D+00
314  3.1300000000000D+00  0.0000000000000D+00  0.0000000000000D+00
315  3.1400000000000D+00  0.0000000000000D+00  0.0000000000000D+00
316  3.1500000000000D+00  0.0000000000000D+00  0.0000000000000D+00
317  3.1600000000000D+00  0.0000000000000D+00  0.0000000000000D+00
318  3.1700000000000D+00  0.0000000000000D+00  0.0000000000000D+00
319  3.1800000000000D+00  0.0000000000000D+00  0.0000000000000D+00
320  3.1900000000000D+00  0.0000000000000D+00  0.0000000000000D+00
321  3.2000000000000D+00  0.0000000000000D+00  0.0000000000000D+00
322  3.2100000000000D+00  0.0000000000000D+00  0.0000000000000D+00
323  3.2200000000000D+00  0.0000000000000D+00  0.0000000000000D+00
324  3.2300000000000D+00  0.0000000000000D+00  0.0000000000000D+00
325  3.2400000000000D+00  0.0000000000000D+00  0.0000000000000D+00
326  3.2500000000000D+00  0.0000000000000D+00  0.0000000000000D+00
327  3.2600000000000D+00  0.0000000000000D+00  0.0000000000000D+00
328  3.2700000000000D+00  0.0000000000000D+00  0.0000000000000D+00
329  3.2800000000000D+00  0.0000000000000D+00  0.0000000000000D+00
330  3.2900000000000D+00  0.0000000000000D+00  0.0000000000000D+00
331  3.3000000000000D+00  0.0000000000000D+00  0.0000000000000D+00
332  3.3100000000000D+00  0.0000000000000D+00  0.0000000000000D+00
333  3.3200000000000D+00  0.0000000000000D+00  0.0000000000000D+00
334  3.3300000000000D+00  0.0000000000000D+00  0.0000000000000D+00
335  3.3400000000000D+00  0.0000000000000D+00  0.0000000000000D+00
336  3.3500000000000D+00  0.0000000000000D+00  0.0000000000000D+00
337  3.3600000000000D+00  0.0000000000000D+00  0.0000000000000D+00
338  3.3700000000000D+00  0.0000000000000D+00  0.0000000000000D+00
339  3.3800000000000D+00  0.0000000000000D+00  0.0000000000000D+00
340  3.3900000000000D+00  0.0000000000000D+00  0.0000000000000D+00
341  3.4000000000000D+00  0.0000000000000D+00  0.0000000000000D+00
342  3.4100000000000D+00  0.0000000000000D+00  0.0000000000000D+00
343  3.4200000000000D+00  0.0000000000000D+00  0.0000000000000D+00
344  3.4300000000000D+00  0.0000000000000D+00  0.0000000000000D+00
345  3.4400000000000D+00  0.0000000000000D+00  0.0000000000000D+00
346  3.4500000000000D+00  0.0000000000000D+00  0.0000000000000D+00
347  3.4600000000000D+00  0.0000000000000D+00  0.0000000000000D+00
348  3.4700000000000D+00  0.0000000000000D+00  0.0000000000000D+00
349  3.4800000000000D+00  0.0000000000000D+00  0.0000000000000D+00
350  3.4900000000000D+00  0.0000000000000D+00  0.0000000000000D+00
351  3.5000000000000D+00  0.0000000000000D+00  0.0000000000000D+00
352  3.5100000000000D+00  0.0000000000000D+00  0.0000000000000D+00
353  3.5200000000000D+00  0.0000000000000D+00  0.0000000000000D+00
354  3.5300000000000D+00  0.0000000000000D+00  0.0000000000000D+00
355  3.5400000000000D+00  0.0000000000000D+00  0.0000000000000D+00
356  3.5500000000000D+00  0.0000000000000D+00  0.0000000000000D+00
357  3.5600000000000D+00  0.0000000000000D+00  0.0000000000000D+00
358  3.5700000000000D+00  0.0000000000000D+00  0.0000000000000D+00
359  3.5800000000000D+00  0.0000000000000D+00  0.0000000000000D+00
360  3.5900000000000D+00  0.0000000000000D+00  0.0000000000000D+00
361  3.6000000000000D+00  0.0000000000000D+00  0.0000000000000D+00
362  3.6100000000000D+00  0.0000000000000D+00  0.0000000000000D+00
363  3.6200000000000D+00  0.0000000000000D+00  0.0000000000000D+00
364  3.6300000000000D+00  0.0000000000000D+00  0.0000000000000D+00
365  3.6400000000000D+00  0.0000000000000D+00  0.0000000000000D+00
366  3.6500000000000D+00  0.0000000000000D+00  0.0000000000000D+00
367  3.6600000000000D+00  0.0000000000000D+00  0.0000000000000D+00
368  3.6700000000000D+00  0.0000000000000D+00  0.0000000000000D+00
369  3.6800000000000D+00  0.0000000000000D+00  0.0000000000000D+00
370  3.6900000000000D+00  0.0000000000000D+00  0.0000000000000D+00
371  3.7000000000000D+00  0.0000000000000D+00  0.0000000000000D+00
372  3.7100000000000D+00  0.0000000000000D+00  0.0000000000000D+00
373  3.7200000000000D+00  0.0000000000000D+00  0.0000000000000D+00
374  3.7300000000000D+00  0.0000000000000D+00  0.0000000000000D+00
375  3.7400000000000D+00  0.0000000000000D+00  0.0000000000000D+00
376  3.7500000000000D+00  0.0000000000000D+00  0.0000000000000D+00
377  3.7600000000000D+00  0.0000000000000D+00  0.0000000000000D+00
378  3.7700000000000D+00  0.0000000000000D+00  0.0000000000000D+00
379  3.7800000000000D+00  0.0000000000000D+00  0.0000000000000D+00
380  3.7900000000000D+00  0.0000000000000D+00  0.0000000000000D+00
381  3.8000000000000D+00  0.0000000000000D+00  0.0000000000000D+00
382  3.8100000000000D+00  0.0000000000000D+00  0.0000000000000D+00
383  3.8200000000000D+00  0.0000000000000D+00  0.0000000000000D+00
384  3.8300000000000D+00  0.0000000000000D+00  0.0000000000000D+00
385  3.8400000000000D+00  0.0000000000000D+00  0.0000000000000D+00
386  3.8500000000000D+00  0.0000000000000D+00  0.0000000000000D+00
387  3.8600000000000D+00  0.0000000000000D+00  0.0000000000000D+00
388  3.8700000000000D+00  0.0000000000000D+00  0.0000000000000D+00
389  3.8800000000000D+00  0.0000000000000D+00  0.0000000000000D+00
390  3.8900000000000D+00  0.0000000000000D+00  0.0000000000000D+00
391  3.9000000000000D+00  0.0000000000000D+00  0.0000000000000D+00
392  3.9100000000000D+00  0.0000000000000D+00  0.0000000000000D+00
393  3.9200000000000D+00  0.0000000000000D+00  0.0000000000000D+00
394  3.9300000000000D+00  0.0000000000000D+00  0.0000000000000D+00
395  3.9400000000000D+00  0.0000000000000D+00  0.0000000000000D+00
396  3.9500000000000D+00  0.0000000000000D+00  0.0000000000000D+00
397  3.9600000000000D+00  0.0000000000000D+00  0.0000000000000D+00
398  3.9700000000000D+00  0.0000000000000D+00  0.0000000000000D+00
399  3.9800000000000D+00  0.0000000000000D+00  0.0000000000000D+00
400  3.9900000000000D+00  0.0000000000000D+00  0.0000000000000D+00
401  4.0000000000000D+00  0.0000000000000D+00  0.0000000000000D+00
402  4.0100000000000D+00  0.0000000000000D+00  0.0000000000000D+00
403  4.0200000000000D+00  0.0000000000000D+00  0.0000000000000D+00
404  4.0300000000000D+00  0.0000000000000D+00  0.0000000000000D+00
405  4.0400000000000D+00  0.0000000000000D+00  0.0000000000000D+00
406  4.0500000000000D+00  0.0000000000000D+00  0.0000000000000D+00
407  4.0600000000000D+00  0.0000000000000D+00  0.0000000000000D+00
408  4.0700000000000D+00  0.0000000000000D+00  0.0000000000000D+00
409  4.0800000000000D+00  0.0000000000000D+00  0.0000000000000D+00
410  4.0900000000000D+00  0.0000000000000D+00  0.0000000000000D+00
411  4.1000000000000D+00  0.0000000000000D+00  0.0000000000000D+00
412  4.1100000000000D+00  0.0000000000000D+00  0.0000000000000D+00
413  4.1200000000000D+00  0.0000000000000D+00  0.0000000000000D+00
414  4.1300000000000D+00  0.0000000000000D+00  0.0000000000000D+00
415  4.1400000000000D+00  0.0000000000000D+00  0.0000000000000D+00
416  4.1500000000000D+00  0.0000000000000D+00  0.0000000000000D+00
417  4.1600000000000D+00  0.0000000000000D+00  0.0000000000000D+00
418  4.1700000000000D+00  0.0000000000000D+00  0.0000000000000D+00
419  4.1800000000000D+00  0.0000000000000D+00  0.0000000000000D+00
420  4.1900000000000D+00  0.0000000000000D+00  0.0000000000000D+00
421  4.2000000000000D+00  0.0000000000000D+00  0.0000000000000D+00
422  4.2100000000000D+00  0.0000000000000D+00  0.0000000000000D+00
423  4.2200000000000D+00  0.0000000000000D+00  0.0000000000000D+00
424  4.2300000000000D+00  0.0000000000000D+00  0.0000000000000D+00
425  4.2400000000000D+00  0.0000000000000D+00  0.0000000000000D+00
426  4.2500000000000D+00  0.0000000000000D+00  0.0000000000000D+00
427  4.2600000000000D+00  0.0000000000000D+00  0.0000000000000D+00
428  4.2700000000000D+00  0.0000000000000D+00  0.0000000000000D+00
429  4.2800000000000D+00  0.0000000000000D+00  0.0000000000000D+00
430  4.2900000000000D+00  0.0000000000000D+00  0.0000000000000D+00
431  4.3000000000000D+00  0.0000000000000D+00  0.0000000000000D+00
432  4.3100000000000D+00  0.0000000000000D+00  0.0000000000000D+00
433  4.3200000000000D+00  0.0000000000000D+00  0.0000000000000D+00
434  4.3300000000000D+00  0.0000000000000D+00  0.0000000000000D+00
435  4.3400000000000D+00  0.0000000000000D+00  0.0000000000000D+00
436  4.3500000000000D+00  0.0000000000000D+00  0.0000000000000D+00
437  4.3600000000000D+00  0.0000000000000D+00  0.0000000000000D+00
438  4.3700000000000D+00  0.0000000000000D+00  0.0000000000000D+00
439  4.3800000000000D+00  0.0000000000000D+00  0.0000000000000D+00
440  4.3900000000000D+00  0.0000000000000D+00  0.0000000000000D+00
441  4.4000000000000D+00  0.0000000000000D+00  0.0000000000000D+00
442  4.4100000000000D+00  0.0000000000000D+00  0.0000000000000D+00
443  4.4200000000000D+00  0.0000000000000D+00  0.0000000000000D+00