Ba    ONCVPSP-3.2.3  r_core=   2.15444   1.91218   2.15444
56.0000     10.0000      170222    zatom,zion,pspd
8      11   2     4   600     0    pspcod,pspxc,lmax,lloc,mmax,r2well
5.99000000  5.00000000  0.00000000    rchrg fchrg qchrg
2     4     4     0    nproj
3     1           extension_switch
4     4     0    nprojso
0                         6.7813965288509D-01  6.7344461081084D+00
1  0.0000000000000D+00 -1.6143704428817D-11  5.6487869937172D-12
2  1.0000000000000D-02 -1.7575348483631D-03  2.7019502507750D-02
3  2.0000000000000D-02 -3.5497933694267D-03  5.4039983436730D-02
4  3.0000000000000D-02 -5.4112658041785D-03  8.1062341126048D-02
5  4.0000000000000D-02 -7.3759765815835D-03  1.0808731412412D-01
6  5.0000000000000D-02 -9.4772540370159D-03  1.3511540222573D-01
7  6.0000000000000D-02 -1.1747503268623D-02  1.6214678862406D-01
8  7.0000000000000D-02 -1.4217983158640D-02  1.8918126354259D-01
9  8.0000000000000D-02 -1.6918588570519D-02  2.1621814970634D-01
10  9.0000000000000D-02 -1.9877638712617D-02  2.4325623000471D-01
11  1.0000000000000D-01 -2.3121672635222D-02  2.7029367768984D-01
12  1.1000000000000D-01 -2.6675252799877D-02  2.9732798944478D-01
13  1.2000000000000D-01 -3.0560777628544D-02  3.2435592164455D-01
14  1.3000000000000D-01 -3.4798303905058D-02  3.5137343012124D-01
15  1.4000000000000D-01 -3.9405379862677D-02  3.7837561373036D-01
16  1.5000000000000D-01 -4.4396889749808D-02  4.0535666200142D-01
17  1.6000000000000D-01 -4.9784910620688D-02  4.3230980713975D-01
18  1.7000000000000D-01 -5.5578582049744D-02  4.5922728062965D-01
19  1.8000000000000D-01 -6.1783989417269D-02  4.8610027467137D-01
20  1.9000000000000D-01 -6.8404061360264D-02  5.1291890866533D-01
21  2.0000000000000D-01 -7.5438481925996D-02  5.3967220093743D-01
22  2.1000000000000D-01 -8.2883617907139D-02  5.6634804587899D-01
23  2.2000000000000D-01 -9.0732461776676D-02  5.9293319665318D-01
24  2.3000000000000D-01 -9.8974590577973D-02  6.1941325359832D-01
25  2.4000000000000D-01 -1.0759614106101D-01  6.4577265843567D-01
26  2.5000000000000D-01 -1.1657980128998D-01  6.7199469436643D-01
27  2.6000000000000D-01 -1.2590481888037D-01  6.9806149211900D-01
28  2.7000000000000D-01 -1.3554702595535D-01  7.2395404198421D-01
29  2.8000000000000D-01 -1.4547888084282D-01  7.4965221185147D-01
30  2.9000000000000D-01 -1.5566952646477D-01  7.7513477123527D-01
31  3.0000000000000D-01 -1.6608486530135D-01  8.0037942125660D-01
32  3.1000000000000D-01 -1.7668765074226D-01  8.2536283051978D-01
33  3.2000000000000D-01 -1.8743759456910D-01  8.5006067680083D-01
34  3.3000000000000D-01 -1.9829149024337D-01  8.7444769443960D-01
35  3.4000000000000D-01 -2.0920335160715D-01  8.9849772730398D-01
36  3.5000000000000D-01 -2.2012456653650D-01  9.2218378717094D-01
37  3.6000000000000D-01 -2.3100406502244D-01  9.4547811734670D-01
38  3.7000000000000D-01 -2.4178850109032D-01  9.6835226132515D-01
39  3.8000000000000D-01 -2.5242244790641D-01  9.9077713626261D-01
40  3.9000000000000D-01 -2.6284860536097D-01  1.0127231110252D+00
41  4.0000000000000D-01 -2.7300801935940D-01  1.0341600885458D+00
42  4.1000000000000D-01 -2.8284031199800D-01  1.0550575922064D+00
43  4.2000000000000D-01 -2.9228392174947D-01  1.0753848559461D+00
44  4.3000000000000D-01 -3.0127635273383D-01  1.0951109177741D+00
45  4.4000000000000D-01 -3.0975443210500D-01  1.1142047163538D+00
46  4.5000000000000D-01 -3.1765457454139D-01  1.1326351903075D+00
47  4.6000000000000D-01 -3.2491305279020D-01  1.1503713798768D+00
48  4.7000000000000D-01 -3.3146627318089D-01  1.1673825305638D+00
49  4.8000000000000D-01 -3.3725105499259D-01  1.1836381983635D+00
50  4.9000000000000D-01 -3.4220491253476D-01  1.1991083561915D+00
51  5.0000000000000D-01 -3.4626633877757D-01  1.2137635011000D+00
52  5.1000000000000D-01 -3.4937508935252D-01  1.2275747618711D+00
53  5.2000000000000D-01 -3.5147246573011D-01  1.2405140065686D+00
54  5.3000000000000D-01 -3.5250159637429D-01  1.2525539496276D+00
55  5.4000000000000D-01 -3.5240771467008D-01  1.2636682580594D+00
56  5.5000000000000D-01 -3.5113843242266D-01  1.2738316563473D+00
57  5.6000000000000D-01 -3.4864400773296D-01  1.2830200296124D+00
58  5.7000000000000D-01 -3.4487760606673D-01  1.2912105246298D+00
59  5.8000000000000D-01 -3.3979555335073D-01  1.2983816482808D+00
60  5.9000000000000D-01 -3.3335757995106D-01  1.3045133630344D+00
61  6.0000000000000D-01 -3.2552705441578D-01  1.3095871790560D+00
62  6.1000000000000D-01 -3.1627120589490D-01  1.3135862425562D+00
63  6.2000000000000D-01 -3.0556133418735D-01  1.3164954199978D+00
64  6.3000000000000D-01 -2.9337300640552D-01  1.3183013777970D+00
65  6.4000000000000D-01 -2.7968623929307D-01  1.3189926571667D+00
66  6.5000000000000D-01 -2.6448566628234D-01  1.3185597437648D+00
67  6.6000000000000D-01 -2.4776068843106D-01  1.3169951318322D+00
68  6.7000000000000D-01 -2.2950560843713D-01  1.3142933825174D+00
69  6.8000000000000D-01 -2.0971974699199D-01  1.3104511761110D+00
70  6.9000000000000D-01 -1.8840754079949D-01  1.3054673579305D+00
71  7.0000000000000D-01 -1.6557862165569D-01  1.2993429776201D+00
72  7.1000000000000D-01 -1.4124787605878D-01  1.2920813216541D+00
73  7.2000000000000D-01 -1.1543548489266D-01  1.2836879388558D+00
74  7.3000000000000D-01 -8.8166942806825D-02  1.2741706587709D+00
75  7.4000000000000D-01 -5.9473056994850D-02  1.2635396027602D+00
76  7.5000000000000D-01 -2.9389925156951D-02  1.2518071877025D+00
77  7.6000000000000D-01  2.0411074839604D-03  1.2389881222293D+00
78  7.7000000000000D-01  3.4773512157741D-02  1.2250993954372D+00
79  7.8000000000000D-01  6.8755661472357D-02  1.2101602580565D+00
80  7.9000000000000D-01  1.0393093516023D-01  1.1941921960809D+00
81  8.0000000000000D-01  1.4023784642902D-01  1.1772188968929D+00
82  8.1000000000000D-01  1.7761018861326D-01  1.1592662079500D+00
83  8.2000000000000D-01  2.1597720173556D-01  1.1403620881249D+00
84  8.3000000000000D-01  2.5526375850071D-01  1.1205365518204D+00
85  8.4000000000000D-01  2.9539056916056D-01  1.0998216060131D+00
86  8.5000000000000D-01  3.3627440460426D-01  1.0782511804017D+00
87  8.6000000000000D-01  3.7782833694755D-01  1.0558610508696D+00
88  8.7000000000000D-01  4.1996199681502D-01  1.0326887564941D+00
89  8.8000000000000D-01  4.6258184643369D-01  1.0087735103634D+00
90  8.9000000000000D-01  5.0559146758273D-01  9.8415610448645D-01
91  9.0000000000000D-01  5.4889186337428D-01  9.5887880910540D-01
92  9.1000000000000D-01  5.9238177277450D-01  9.3298526674468D-01
93  9.2000000000000D-01  6.3595799671215D-01  9.0652038135059D-01
94  9.3000000000000D-01  6.7951573456401D-01  8.7953020289792D-01
95  9.4000000000000D-01  7.2294892975420D-01  8.5206180785826D-01
96  9.5000000000000D-01  7.6615062315644D-01  8.2416317594267D-01
97  9.6000000000000D-01  8.0901331294547D-01  7.9588306354734D-01
98  9.7000000000000D-01  8.5142931950696D-01  7.6727087434559D-01
99  9.8000000000000D-01  8.9329115398375D-01  7.3837652748185D-01
100  9.9000000000000D-01  9.3449188901074D-01  7.0925032383430D-01
101  1.0000000000000D+00  9.7492553017109D-01  6.7994281082193D-01
102  1.0100000000000D+00  1.0144873866932D+00  6.5050464623853D-01
103  1.0200000000000D+00  1.0530744399007D+00  6.2098646160156D-01
104  1.0300000000000D+00  1.0905857079279D+00  5.9143872550669D-01
105  1.0400000000000D+00  1.1269226052168D+00  5.6191160748007D-01
106  1.0500000000000D+00  1.1619892953267D+00  5.3245484281926D-01
107  1.0600000000000D+00  1.1956930356058D+00  5.0311759891079D-01
108  1.0700000000000D+00  1.2279445122953D+00  4.7394834350756D-01
109  1.0800000000000D+00  1.2586581646745D+00  4.4499471544199D-01
110  1.0900000000000D+00  1.2877524968886D+00  4.1630339824169D-01
111  1.1000000000000D+00  1.3151503761466D+00  3.8791999710354D-01
112  1.1100000000000D+00  1.3407793160279D+00  3.5988891966904D-01
113  1.1200000000000D+00  1.3645717436855D+00  3.3225326102985D-01
114  1.1300000000000D+00  1.3864652498066D+00  3.0505469337405D-01
115  1.1400000000000D+00  1.4064028202484D+00  2.7833336066637D-01
116  1.1500000000000D+00  1.4243330483460D+00  2.5212777873499D-01
117  1.1600000000000D+00  1.4402103269533D+00  2.2647474111838D-01
118  1.1700000000000D+00  1.4539950193772D+00  2.0140923099817D-01
119  1.1800000000000D+00  1.4656536084444D+00  1.7696433952054D-01
120  1.1900000000000D+00  1.4751588230157D+00  1.5317119078713D-01
121  1.2000000000000D+00  1.4824897413710D+00  1.3005887376514D-01
122  1.2100000000000D+00  1.4876318709828D+00  1.0765438133731D-01
123  1.2200000000000D+00  1.4905772042994D+00  8.5982556683471D-02
124  1.2300000000000D+00  1.4913242502197D+00  6.5066047165828D-02
125  1.2400000000000D+00  1.4898780411028D+00  4.4925265842720D-02
126  1.2500000000000D+00  1.4862501152438D+00  2.5578360708734D-02
127  1.2600000000000D+00  1.4804584747834D+00  7.0411917478254D-03
128  1.2700000000000D+00  1.4725275192262D+00 -1.0672684176086D-02
129  1.2800000000000D+00  1.4624879548071D+00 -2.7552020588113D-02
130  1.2900000000000D+00  1.4503766799804D+00 -4.3587880836808D-02
131  1.3000000000000D+00  1.4362366475175D+00 -5.8773629766791D-02
132  1.3100000000000D+00  1.4201167037708D+00 -7.3104917724535D-02
133  1.3200000000000D+00  1.4020714056527D+00 -8.6579656988600D-02
134  1.3300000000000D+00  1.3821608161467D+00 -9.9197990801804D-02
135  1.3400000000000D+00  1.3604502791583D+00 -1.1096225517870D-01
136  1.3500000000000D+00  1.3370101745544D+00 -1.2187693367556D-01
137  1.3600000000000D+00  1.3119156544870D+00 -1.3194860538961D-01
138  1.3700000000000D+00  1.2852463620110D+00 -1.4118588642742D-01
139  1.3800000000000D+00  1.2570861331526D+00 -1.4959936512860D-01
140  1.3900000000000D+00  1.2275226837222D+00 -1.5720153138029D-01
141  1.4000000000000D+00  1.1966472820540D+00 -1.6400670031704D-01
142  1.4100000000000D+00  1.1645544091192D+00 -1.7003093079376D-01
143  1.4200000000000D+00  1.1313414073706D+00 -1.7529193898977D-01
144  1.4300000000000D+00  1.0971081197506D+00 -1.7980900752450D-01
145  1.4400000000000D+00  1.0619565204132D+00 -1.8360289051646D-01
146  1.4500000000000D+00  1.0259903386026D+00 -1.8669571496988D-01
147  1.4600000000000D+00  9.8931467730759D-01 -1.8911087894841D-01
148  1.4700000000000D+00  9.5203562820484D-01 -1.9087294695513D-01
149  1.4800000000000D+00  9.1425988450644D-01 -1.9200754297314D-01
150  1.4900000000000D+00  8.7609435325093D-01 -1.9254124161479D-01
151  1.5000000000000D+00  8.3764576867070D-01 -1.9250145783454D-01
152  1.5100000000000D+00  7.9902030812403D-01 -1.9191633565477D-01
153  1.5200000000000D+00  7.6032321222243D-01 -1.9081463636454D-01
154  1.5300000000000D+00  7.2165841059865D-01 -1.8922562663185D-01
155  1.5400000000000D+00  6.8312815483469D-01 -1.8717896697385D-01
156  1.5500000000000D+00  6.4483266002372D-01 -1.8470460102986D-01
157  1.5600000000000D+00  6.0686975624250D-01 -1.8183264603153D-01
158  1.5700000000000D+00  5.6933455150472D-01 -1.7859328493770D-01
159  1.5800000000000D+00  5.3231910711401D-01 -1.7501666054445D-01
160  1.5900000000000D+00  4.9591212713473D-01 -1.7113277207613D-01
161  1.6000000000000D+00  4.6019866245994D-01 -1.6697137445833D-01
162  1.6100000000000D+00  4.2525983132245D-01 -1.6256188081393D-01
163  1.6200000000000D+00  3.9117255636072D-01 -1.5793326828796D-01
164  1.6300000000000D+00  3.5800932000231D-01 -1.5311398772519D-01
165  1.6400000000000D+00  3.2583793809272D-01 -1.4813187725513D-01
166  1.6500000000000D+00  2.9472135330119D-01 -1.4301408025273D-01
167  1.6600000000000D+00  2.6471744808046D-01 -1.3778696768633D-01
168  1.6700000000000D+00  2.3587887846241D-01 -1.3247606525885D-01
169  1.6800000000000D+00  2.0825292828803D-01 -1.2710598530355D-01
170  1.6900000000000D+00  1.8188138492570D-01 -1.2170036378210D-01
171  1.7000000000000D+00  1.5680043584278D-01 -1.1628180228091D-01
172  1.7100000000000D+00  1.3304058691251D-01 -1.1087181530981D-01
173  1.7200000000000D+00  1.1062660150937D-01 -1.0549078271113D-01
174  1.7300000000000D+00  8.9577461187650D-02 -1.0015790746249D-01
175  1.7400000000000D+00  6.9906346590887D-02 -9.4891178566670D-02
176  1.7500000000000D+00  5.1620639402268D-02 -8.9707339319374D-02
177  1.7600000000000D+00  3.4721943483274D-02 -8.4621860505220D-02
178  1.7700000000000D+00  1.9206126128459D-02 -7.9648918850454D-02
179  1.7800000000000D+00  5.0633770109565D-03 -7.4801380115701D-02
180  1.7900000000000D+00 -7.7217140692259D-03 -7.0090787216399D-02
181  1.8000000000000D+00 -1.9170063614169D-02 -6.5527352588038D-02
182  1.8100000000000D+00 -2.9307983862232D-02 -6.1119955210119D-02
183  1.8200000000000D+00 -3.8167058371970D-02 -5.6876141448729D-02
184  1.8300000000000D+00 -4.5784003092070D-02 -5.2802129993950D-02
185  1.8400000000000D+00 -5.2200515604118D-02 -4.8902820175447D-02
186  1.8500000000000D+00 -5.7463117753249D-02 -4.5181802579872D-02
187  1.8600000000000D+00 -6.1622966123245D-02 -4.1641377515317D-02
188  1.8700000000000D+00 -6.4735705614757D-02 -3.8282564582316D-02
189  1.8800000000000D+00 -6.6861254494212D-02 -3.5105128624560D-02
190  1.8900000000000D+00 -6.8063492694759D-02 -3.2107627864825D-02
191  1.9000000000000D+00 -6.8410256856442D-02 -2.9287391690675D-02
192  1.9100000000000D+00 -6.7973647355607D-02 -2.6640437355880D-02
193  1.9200000000000D+00 -6.6828458914325D-02 -2.4161794377296D-02
194  1.9300000000000D+00 -6.5051300913568D-02 -2.1845674723952D-02
195  1.9400000000000D+00 -6.2719554679496D-02 -1.9685702967462D-02
196  1.9500000000000D+00 -5.9909942380224D-02 -1.7675233110717D-02
197  1.9600000000000D+00 -5.6697730581023D-02 -1.5807528085991D-02
198  1.9700000000000D+00 -5.3156729623126D-02 -1.4075767992452D-02
199  1.9800000000000D+00 -4.9359127498033D-02 -1.2473099209233D-02
200  1.9900000000000D+00 -4.5374852519182D-02 -1.0992778731738D-02
201  2.0000000000000D+00 -4.1271340422951D-02 -9.6282349064470D-03
202  2.0100000000000D+00 -3.7113178232579D-02 -8.3731537990336D-03
203  2.0200000000000D+00 -3.2961784106964D-02 -7.2215577526956D-03
204  2.0300000000000D+00 -2.8875107516607D-02 -6.1678793169830D-03
205  2.0400000000000D+00 -2.4907345595563D-02 -5.2070313085764D-03
206  2.0500000000000D+00 -2.1108678232115D-02 -4.3344724836345D-03
207  2.0600000000000D+00 -1.7525021306585D-02 -3.5462687664620D-03
208  2.0700000000000D+00 -1.4197798109157D-02 -2.8391501444854D-03
209  2.0800000000000D+00 -1.1164183215225D-02 -2.2106462654211D-03
210  2.0900000000000D+00 -8.4576083405855D-03 -1.6592615166222D-03
211  2.1000000000000D+00 -6.0990486499325D-03 -1.1828734458973D-03
212  2.1100000000000D+00 -4.1011847517418D-03 -7.8006962569178D-04
213  2.1200000000000D+00 -2.5010166913279D-03 -4.5472206387969D-04
214  2.1300000000000D+00 -1.3342865533764D-03 -2.1198735842560D-04
215  2.1400000000000D+00 -6.0724319066480D-04 -5.3128868096879D-05
216  2.1500000000000D+00 -2.1676775262088D-04  3.0077965390348D-05
217  2.1600000000000D+00 -4.5452038473352D-05  4.9731476119664D-05
218  2.1700000000000D+00  4.8131567686261D-06  3.0035646963006D-05
219  2.1800000000000D+00  4.0440604105175D-07  7.5615597214034D-07
220  2.1900000000000D+00 -6.9363869679163D-06 -9.1936729295587D-06
221  2.2000000000000D+00 -5.2100144664362D-06 -5.7244434323274D-06
222  2.2100000000000D+00  2.9893552556107D-07  9.1017284669186D-07
223  2.2200000000000D+00  8.0246713952858D-07  1.8827688668401D-06
224  2.2300000000000D+00  2.9876479813617D-07  5.9478787630517D-07
225  2.2400000000000D+00  2.7619182580816D-07 -1.0405790203345D-07
226  2.2500000000000D+00  3.0611764994306D-07 -1.1533274142085D-07
227  2.2600000000000D+00  0.0000000000000D+00  0.0000000000000D+00
228  2.2700000000000D+00  0.0000000000000D+00  0.0000000000000D+00
229  2.2800000000000D+00  0.0000000000000D+00  0.0000000000000D+00
230  2.2900000000000D+00  0.0000000000000D+00  0.0000000000000D+00
231  2.3000000000000D+00  0.0000000000000D+00  0.0000000000000D+00
232  2.3100000000000D+00  0.0000000000000D+00  0.0000000000000D+00
233  2.3200000000000D+00  0.0000000000000D+00  0.0000000000000D+00
234  2.3300000000000D+00  0.0000000000000D+00  0.0000000000000D+00
235  2.3400000000000D+00  0.0000000000000D+00  0.0000000000000D+00
236  2.3500000000000D+00  0.0000000000000D+00  0.0000000000000D+00
237  2.3600000000000D+00  0.0000000000000D+00  0.0000000000000D+00
238  2.3700000000000D+00  0.0000000000000D+00  0.0000000000000D+00
239  2.3800000000000D+00  0.0000000000000D+00  0.0000000000000D+00
240  2.3900000000000D+00  0.0000000000000D+00  0.0000000000000D+00
241  2.4000000000000D+00  0.0000000000000D+00  0.0000000000000D+00
242  2.4100000000000D+00  0.0000000000000D+00  0.0000000000000D+00
243  2.4200000000000D+00  0.0000000000000D+00  0.0000000000000D+00
244  2.4300000000000D+00  0.0000000000000D+00  0.0000000000000D+00
245  2.4400000000000D+00  0.0000000000000D+00  0.0000000000000D+00
246  2.4500000000000D+00  0.0000000000000D+00  0.0000000000000D+00
247  2.4600000000000D+00  0.0000000000000D+00  0.0000000000000D+00
248  2.4700000000000D+00  0.0000000000000D+00  0.0000000000000D+00
249  2.4800000000000D+00  0.0000000000000D+00  0.0000000000000D+00
250  2.4900000000000D+00  0.0000000000000D+00  0.0000000000000D+00
251  2.5000000000000D+00  0.0000000000000D+00  0.0000000000000D+00
252  2.5100000000000D+00  0.0000000000000D+00  0.0000000000000D+00
253  2.5200000000000D+00  0.0000000000000D+00  0.0000000000000D+00
254  2.5300000000000D+00  0.0000000000000D+00  0.0000000000000D+00
255  2.5400000000000D+00  0.0000000000000D+00  0.0000000000000D+00
256  2.5500000000000D+00  0.0000000000000D+00  0.0000000000000D+00
257  2.5600000000000D+00  0.0000000000000D+00  0.0000000000000D+00
258  2.5700000000000D+00  0.0000000000000D+00  0.0000000000000D+00
259  2.5800000000000D+00  0.0000000000000D+00  0.0000000000000D+00
260  2.5900000000000D+00  0.0000000000000D+00  0.0000000000000D+00
261  2.6000000000000D+00  0.0000000000000D+00  0.0000000000000D+00
262  2.6100000000000D+00  0.0000000000000D+00  0.0000000000000D+00
263  2.6200000000000D+00  0.0000000000000D+00  0.0000000000000D+00
264  2.6300000000000D+00  0.0000000000000D+00  0.0000000000000D+00
265  2.6400000000000D+00  0.0000000000000D+00  0.0000000000000D+00
266  2.6500000000000D+00  0.0000000000000D+00  0.0000000000000D+00
267  2.6600000000000D+00  0.0000000000000D+00  0.0000000000000D+00
268  2.6700000000000D+00  0.0000000000000D+00  0.0000000000000D+00
269  2.6800000000000D+00  0.0000000000000D+00  0.0000000000000D+00
270  2.6900000000000D+00  0.0000000000000D+00  0.0000000000000D+00
271  2.7000000000000D+00  0.0000000000000D+00  0.0000000000000D+00
272  2.7100000000000D+00  0.0000000000000D+00  0.0000000000000D+00
273  2.7200000000000D+00  0.0000000000000D+00  0.0000000000000D+00
274  2.7300000000000D+00  0.0000000000000D+00  0.0000000000000D+00
275  2.7400000000000D+00  0.0000000000000D+00  0.0000000000000D+00
276  2.7500000000000D+00  0.0000000000000D+00  0.0000000000000D+00
277  2.7600000000000D+00  0.0000000000000D+00  0.0000000000000D+00
278  2.7700000000000D+00  0.0000000000000D+00  0.0000000000000D+00
279  2.7800000000000D+00  0.0000000000000D+00  0.0000000000000D+00
280  2.7900000000000D+00  0.0000000000000D+00  0.0000000000000D+00
281  2.8000000000000D+00  0.0000000000000D+00  0.0000000000000D+00
282  2.8100000000000D+00  0.0000000000000D+00  0.0000000000000D+00
283  2.8200000000000D+00  0.0000000000000D+00  0.0000000000000D+00
284  2.8300000000000D+00  0.0000000000000D+00  0.0000000000000D+00
285  2.8400000000000D+00  0.0000000000000D+00  0.0000000000000D+00
286  2.8500000000000D+00  0.0000000000000D+00  0.0000000000000D+00
287  2.8600000000000D+00  0.0000000000000D+00  0.0000000000000D+00
288  2.8700000000000D+00  0.0000000000000D+00  0.0000000000000D+00
289  2.8800000000000D+00  0.0000000000000D+00  0.0000000000000D+00
290  2.8900000000000D+00  0.0000000000000D+00  0.0000000000000D+00
291  2.9000000000000D+00  0.0000000000000D+00  0.0000000000000D+00
292  2.9100000000000D+00  0.0000000000000D+00  0.0000000000000D+00
293  2.9200000000000D+00  0.0000000000000D+00  0.0000000000000D+00
294  2.9300000000000D+00  0.0000000000000D+00  0.0000000000000D+00
295  2.9400000000000D+00  0.0000000000000D+00  0.0000000000000D+00
296  2.9500000000000D+00  0.0000000000000D+00  0.0000000000000D+00
297  2.9600000000000D+00  0.0000000000000D+00  0.0000000000000D+00
298  2.9700000000000D+00  0.0000000000000D+00  0.0000000000000D+00
299  2.9800000000000D+00  0.0000000000000D+00  0.0000000000000D+00
300  2.9900000000000D+00  0.0000000000000D+00  0.0000000000000D+00
301  3.0000000000000D+00  0.0000000000000D+00  0.0000000000000D+00
302  3.0100000000000D+00  0.0000000000000D+00  0.0000000000000D+00
303  3.0200000000000D+00  0.0000000000000D+00  0.0000000000000D+00
304  3.0300000000000D+00  0.0000000000000D+00  0.0000000000000D+00
305  3.0400000000000D+00  0.0000000000000D+00  0.0000000000000D+00
306  3.0500000000000D+00  0.0000000000000D+00  0.0000000000000D+00
307  3.0600000000000D+00  0.0000000000000D+00  0.0000000000000D+00
308  3.0700000000000D+00  0.0000000000000D+00  0.0000000000000D+00
309  3.0800000000000D+00  0.0000000000000D+00  0.0000000000000D+00
310  3.0900000000000D+00  0.0000000000000D+00  0.0000000000000D+00
311  3.1000000000000D+00  0.0000000000000D+00  0.0000000000000D+00
312  3.1100000000000D+00  0.0000000000000D+00  0.0000000000000D+00
313  3.1200000000000D+00  0.0000000000000D+00  0.0000000000000D+00
314  3.1300000000000D+00  0.0000000000000D+00  0.0000000000000D+00
315  3.1400000000000D+00  0.0000000000000D+00  0.0000000000000D+00
316  3.1500000000000D+00  0.0000000000000D+00  0.0000000000000D+00
317  3.1600000000000D+00  0.0000000000000D+00  0.0000000000000D+00
318  3.1700000000000D+00  0.0000000000000D+00  0.0000000000000D+00
319  3.1800000000000D+00  0.0000000000000D+00  0.0000000000000D+00
320  3.1900000000000D+00  0.0000000000000D+00  0.0000000000000D+00
321  3.2000000000000D+00  0.0000000000000D+00  0.0000000000000D+00
322  3.2100000000000D+00  0.0000000000000D+00  0.0000000000000D+00
323  3.2200000000000D+00  0.0000000000000D+00  0.0000000000000D+00
324  3.2300000000000D+00  0.0000000000000D+00  0.0000000000000D+00
325  3.2400000000000D+00  0.0000000000000D+00  0.0000000000000D+00
326  3.2500000000000D+00  0.0000000000000D+00  0.0000000000000D+00
327  3.2600000000000D+00  0.0000000000000D+00  0.0000000000000D+00
328  3.2700000000000D+00  0.0000000000000D+00  0.0000000000000D+00
329  3.2800000000000D+00  0.0000000000000D+00  0.0000000000000D+00
330  3.2900000000000D+00  0.0000000000000D+00  0.0000000000000D+00
331  3.3000000000000D+00  0.0000000000000D+00  0.0000000000000D+00
332  3.3100000000000D+00  0.0000000000000D+00  0.0000000000000D+00
333  3.3200000000000D+00  0.0000000000000D+00  0.0000000000000D+00
334  3.3300000000000D+00  0.0000000000000D+00  0.0000000000000D+00
335  3.3400000000000D+00  0.0000000000000D+00  0.0000000000000D+00
336  3.3500000000000D+00  0.0000000000000D+00  0.0000000000000D+00
337  3.3600000000000D+00  0.0000000000000D+00  0.0000000000000D+00
338  3.3700000000000D+00  0.0000000000000D+00  0.0000000000000D+00
339  3.3800000000000D+00  0.0000000000000D+00  0.0000000000000D+00
340  3.3900000000000D+00  0.0000000000000D+00  0.0000000000000D+00
341  3.4000000000000D+00  0.0000000000000D+00  0.0000000000000D+00
342  3.4100000000000D+00  0.0000000000000D+00  0.0000000000000D+00
343  3.4200000000000D+00  0.0000000000000D+00  0.0000000000000D+00
344  3.4300000000000D+00  0.0000000000000D+00  0.0000000000000D+00
345  3.4400000000000D+00  0.0000000000000D+00  0.0000000000000D+00
346  3.4500000000000D+00  0.0000000000000D+00  0.0000000000000D+00
347  3.4600000000000D+00  0.0000000000000D+00  0.0000000000000D+00
348  3.4700000000000D+00  0.0000000000000D+00  0.0000000000000D+00
349  3.4800000000000D+00  0.0000000000000D+00  0.0000000000000D+00
350  3.4900000000000D+00  0.0000000000000D+00  0.0000000000000D+00
351  3.5000000000000D+00  0.0000000000000D+00  0.0000000000000D+00
352  3.5100000000000D+00  0.0000000000000D+00  0.0000000000000D+00
353  3.5200000000000D+00  0.0000000000000D+00  0.0000000000000D+00
354  3.5300000000000D+00  0.0000000000000D+00  0.0000000000000D+00
355  3.5400000000000D+00  0.0000000000000D+00  0.0000000000000D+00
356  3.5500000000000D+00  0.0000000000000D+00  0.0000000000000D+00
357  3.5600000000000D+00  0.0000000000000D+00  0.0000000000000D+00
358  3.5700000000000D+00  0.0000000000000D+00  0.0000000000000D+00
359  3.5800000000000D+00  0.0000000000000D+00  0.0000000000000D+00
360  3.5900000000000D+00  0.0000000000000D+00  0.0000000000000D+00
361  3.6000000000000D+00  0.0000000000000D+00  0.0000000000000D+00
362  3.6100000000000D+00  0.0000000000000D+00  0.0000000000000D+00
363  3.6200000000000D+00  0.0000000000000D+00  0.0000000000000D+00
364  3.6300000000000D+00  0.0000000000000D+00  0.0000000000000D+00
365  3.6400000000000D+00  0.0000000000000D+00  0.0000000000000D+00
366  3.6500000000000D+00  0.0000000000000D+00  0.0000000000000D+00
367  3.6600000000000D+00  0.0000000000000D+00  0.0000000000000D+00
368  3.6700000000000D+00  0.0000000000000D+00  0.0000000000000D+00
369  3.6800000000000D+00  0.0000000000000D+00  0.0000000000000D+00
370  3.6900000000000D+00  0.0000000000000D+00  0.0000000000000D+00
371  3.7000000000000D+00  0.0000000000000D+00  0.0000000000000D+00
372  3.7100000000000D+00  0.0000000000000D+00  0.0000000000000D+00
373  3.7200000000000D+00  0.0000000000000D+00  0.0000000000000D+00
374  3.7300000000000D+00  0.0000000000000D+00  0.0000000000000D+00
375  3.7400000000000D+00  0.0000000000000D+00  0.0000000000000D+00
376  3.7500000000000D+00  0.0000000000000D+00  0.0000000000000D+00
377  3.7600000000000D+00  0.0000000000000D+00  0.0000000000000D+00
378  3.7700000000000D+00  0.0000000000000D+00  0.0000000000000D+00
379  3.7800000000000D+00  0.0000000000000D+00  0.0000000000000D+00
380  3.7900000000000D+00  0.0000000000000D+00  0.0000000000000D+00
381  3.8000000000000D+00  0.0000000000000D+00  0.0000000000000D+00
382  3.8100000000000D+00  0.0000000000000D+00  0.0000000000000D+00
383  3.8200000000000D+00  0.0000000000000D+00  0.0000000000000D+00
384  3.8300000000000D+00  0.0000000000000D+00  0.0000000000000D+00
385  3.8400000000000D+00  0.0000000000000D+00  0.0000000000000D+00
386  3.8500000000000D+00  0.0000000000000D+00  0.0000000000000D+00
387  3.8600000000000D+00  0.0000000000000D+00  0.0000000000000D+00
388  3.8700000000000D+00  0.0000000000000D+00  0.0000000000000D+00
389  3.8800000000000D+00  0.0000000000000D+00  0.0000000000000D+00
390  3.8900000000000D+00  0.0000000000000D+00  0.0000000000000D+00
391  3.9000000000000D+00  0.0000000000000D+00  0.0000000000000D+00
392  3.9100000000000D+00  0.0000000000000D+00  0.0000000000000D+00
393  3.9200000000000D+00  0.0000000000000D+00  0.0000000000000D+00
394  3.9300000000000D+00  0.0000000000000D+00  0.0000000000000D+00
395  3.9400000000000D+00  0.0000000000000D+00  0.0000000000000D+00
396  3.9500000000000D+00  0.0000000000000D+00  0.0000000000000D+00
397  3.9600000000000D+00  0.0000000000000D+00  0.0000000000000D+00
398  3.9700000000000D+00  0.0000000000000D+00  0.0000000000000D+00
399  3.9800000000000D+00  0.0000000000000D+00  0.0000000000000D+00
400  3.9900000000000D+00  0.0000000000000D+00  0.0000000000000D+00
401  4.0000000000000D+00  0.0000000000000D+00  0.0000000000000D+00
402  4.0100000000000D+00  0.0000000000000D+00  0.0000000000000D+00
403  4.0200000000000D+00  0.0000000000000D+00  0.0000000000000D+00
404  4.0300000000000D+00  0.0000000000000D+00  0.0000000000000D+00
405  4.0400000000000D+00  0.0000000000000D+00  0.0000000000000D+00
406  4.0500000000000D+00  0.0000000000000D+00  0.0000000000000D+00
407  4.0600000000000D+00  0.0000000000000D+00  0.0000000000000D+00
408  4.0700000000000D+00  0.0000000000000D+00  0.0000000000000D+00
409  4.0800000000000D+00  0.0000000000000D+00  0.0000000000000D+00
410  4.0900000000000D+00  0.0000000000000D+00  0.0000000000000D+00
411  4.1000000000000D+00  0.0000000000000D+00  0.0000000000000D+00
412  4.1100000000000D+00  0.0000000000000D+00  0.0000000000000D+00
413  4.1200000000000D+00  0.0000000000000D+00  0.0000000000000D+00
414  4.1300000000000D+00  0.0000000000000D+00  0.0000000000000D+00
415  4.1400000000000D+00  0.0000000000000D+00  0.0000000000000D+00
416  4.1500000000000D+00  0.0000000000000D+00  0.0000000000000D+00
417  4.1600000000000D+00  0.0000000000000D+00  0.0000000000000D+00
418  4.1700000000000D+00  0.0000000000000D+00  0.0000000000000D+00
419  4.1800000000000D+00  0.0000000000000D+00  0.0000000000000D+00
420  4.1900000000000D+00  0.0000000000000D+00  0.0000000000000D+00
421  4.2000000000000D+00  0.0000000000000D+00  0.0000000000000D+00
422  4.2100000000000D+00  0.0000000000000D+00  0.0000000000000D+00
423  4.2200000000000D+00  0.0000000000000D+00  0.0000000000000D+00
424  4.2300000000000D+00  0.0000000000000D+00  0.0000000000000D+00
425  4.2400000000000D+00  0.0000000000000D+00  0.0000000000000D+00
426  4.2500000000000D+00  0.0000000000000D+00  0.0000000000000D+00
427  4.2600000000000D+00  0.0000000000000D+00  0.0000000000000D+00
428  4.2700000000000D+00  0.0000000000000D+00  0.0000000000000D+00
429  4.2800000000000D+00  0.0000000000000D+00  0.0000000000000D+00
430  4.2900000000000D+00  0.0000000000000D+00  0.0000000000000D+00
431  4.3000000000000D+00  0.0000000000000D+00  0.0000000000000D+00
432  4.3100000000000D+00  0.0000000000000D+00  0.0000000000000D+00
433  4.3200000000000D+00  0.0000000000000D+00  0.0000000000000D+00
434  4.3300000000000D+00  0.0000000000000D+00  0.0000000000000D+00
435  4.3400000000000D+00  0.0000000000000D+00  0.0000000000000D+00
436  4.3500000000000D+00  0.0000000000000D+00  0.0000000000000D+00
437  4.3600000000000D+00  0.0000000000000D+00  0.0000000000000D+00
438  4.3700000000000D+00  0.0000000000000D+00  0.0000000000000D+00
439  4.3800000000000D+00  0.0000000000000D+00  0.0000000000000D+00
440  4.3900000000000D+00  0.0000000000000D+00  0.0000000000000D+00
441  4.4000000000000D+00  0.0000000000000D+00  0.0000000000000D+00
442  4.4100000000000D+00  0.0000000000000D+00  0.0000000000000D+00
443  4.4200000000000D+00  0.0000000000000D+00  0.0000000000000D+00