Og    ONCVPSP-3.2.3  r_core=   2.62362   3.21344   2.41344
118.0000     18.0000      170331    zatom,zion,pspd
8      11   2     4   600     0    pspcod,pspxc,lmax,lloc,mmax,r2well
5.99000000  8.00000000  0.00000000    rchrg fchrg qchrg
2     4     4     0    nproj
3     1           extension_switch
4     4     0    nprojso
0                         5.6681508075011D-01  5.4295548621021D+00
1  0.0000000000000D+00 -2.5544011350576D-12  1.1235179453450D-12
2  1.0000000000000D-02 -2.9509536521299D-03  2.3813785673066D-02
3  2.0000000000000D-02 -5.9117859574019D-03  4.7623758508324D-02
4  3.0000000000000D-02 -8.8923105619571D-03  7.1426079989216D-02
5  4.0000000000000D-02 -1.1902211321485D-02  9.5216860339046D-02
6  5.0000000000000D-02 -1.4950977964229D-02  1.1899213313403D-01
7  6.0000000000000D-02 -1.8047842422063D-02  1.4274783020733D-01
8  7.0000000000000D-02 -2.1201716049321D-02  1.6647975693968D-01
9  8.0000000000000D-02 -2.4421127946514D-02  1.9018356803124D-01
10  9.0000000000000D-02 -2.7714164602847D-02  2.1385474384777D-01
11  1.0000000000000D-01 -3.1088411067671D-02  2.3748856743267D-01
12  1.1000000000000D-01 -3.4550893856528D-02  2.6108010227438D-01
13  1.2000000000000D-01 -3.8108025792499D-02  2.8462417091657D-01
14  1.3000000000000D-01 -4.1765552977853D-02  3.0811533449602D-01
15  1.4000000000000D-01 -4.5528504084923D-02  3.3154787329031D-01
16  1.5000000000000D-01 -4.9401142148302D-02  3.5491576835476D-01
17  1.6000000000000D-01 -5.3386919033225D-02  3.7821268432455D-01
18  1.7000000000000D-01 -5.7488432747183D-02  4.0143195345481D-01
19  1.8000000000000D-01 -6.1707387753537D-02  4.2456656096767D-01
20  1.9000000000000D-01 -6.6044558437114D-02  4.4760913177154D-01
21  2.0000000000000D-01 -7.0499755862494D-02  4.7055191861389D-01
22  2.1000000000000D-01 -7.5071797956118D-02  4.9338679172433D-01
23  2.2000000000000D-01 -7.9758483233209D-02  5.1610523000077D-01
24  2.3000000000000D-01 -8.4556568180056D-02  5.3869831378663D-01
25  2.4000000000000D-01 -8.9461748391454D-02  5.6115671928236D-01
26  2.5000000000000D-01 -9.4468643551903D-02  5.8347071462986D-01
27  2.6000000000000D-01 -9.9570786337783D-02  6.0563015770317D-01
28  2.7000000000000D-01 -1.0476061530610D-01  6.2762449563394D-01
29  2.8000000000000D-01 -1.1002947182327D-01  6.4944276609478D-01
30  2.9000000000000D-01 -1.1536760107566D-01  6.7107360035851D-01
31  3.0000000000000D-01 -1.2076415719081D-01  6.9250522814580D-01
32  3.1000000000000D-01 -1.2620721248640D-01  7.1372548426844D-01
33  3.2000000000000D-01 -1.3168377085110D-01  7.3472181706986D-01
34  3.3000000000000D-01 -1.3717978524879D-01  7.5548129865915D-01
35  3.4000000000000D-01 -1.4268017932566D-01  7.7599063692936D-01
36  3.5000000000000D-01 -1.4816887308607D-01  7.9623618934525D-01
37  3.6000000000000D-01 -1.5362881259141D-01  8.1620397848020D-01
38  3.7000000000000D-01 -1.5904200362306D-01  8.3587970927673D-01
39  3.8000000000000D-01 -1.6438954923845D-01  8.5524878799932D-01
40  3.9000000000000D-01 -1.6965169113678D-01  8.7429634284329D-01
41  4.0000000000000D-01 -1.7480785473905D-01  8.9300724615793D-01
42  4.1000000000000D-01 -1.7983669787494D-01  9.1136613823704D-01
43  4.2000000000000D-01 -1.8471616295771D-01  9.2935745262487D-01
44  4.3000000000000D-01 -1.8942353251656D-01  9.4696544288077D-01
45  4.4000000000000D-01 -1.9393548794531D-01  9.6417421074068D-01
46  4.5000000000000D-01 -1.9822817131519D-01  9.8096773560912D-01
47  4.6000000000000D-01 -2.0227725008924D-01  9.9732990531100D-01
48  4.7000000000000D-01 -2.0605798456612D-01  1.0132445480279D+00
49  4.8000000000000D-01 -2.0954529787149D-01  1.0286954653396D+00
50  4.9000000000000D-01 -2.1271384830591D-01  1.0436664662878D+00
51  5.0000000000000D-01 -2.1553810385020D-01  1.0581414023745D+00
52  5.1000000000000D-01 -2.1799241862061D-01  1.0721042034054D+00
53  5.2000000000000D-01 -2.2005111105918D-01  1.0855389140842D+00
54  5.3000000000000D-01 -2.2168854363727D-01  1.0984297312608D+00
55  5.4000000000000D-01 -2.2287920384465D-01  1.1107610417347D+00
56  5.5000000000000D-01 -2.2359778623019D-01  1.1225174605104D+00
57  5.6000000000000D-01 -2.2381927525538D-01  1.1336838694023D+00
58  5.7000000000000D-01 -2.2351902871785D-01  1.1442454558814D+00
59  5.8000000000000D-01 -2.2267286149776D-01  1.1541877520568D+00
60  5.9000000000000D-01 -2.2125712937751D-01  1.1634966736827D+00
61  6.0000000000000D-01 -2.1924881268229D-01  1.1721585590810D+00
62  6.1000000000000D-01 -2.1662559948797D-01  1.1801602078672D+00
63  6.2000000000000D-01 -2.1336596814149D-01  1.1874889193708D+00
64  6.3000000000000D-01 -2.0944926883901D-01  1.1941325306353D+00
65  6.4000000000000D-01 -2.0485580400747D-01  1.2000794538896D+00
66  6.5000000000000D-01 -1.9956690723672D-01  1.2053187133778D+00
67  6.6000000000000D-01 -1.9356502051114D-01  1.2098399814377D+00
68  6.7000000000000D-01 -1.8683376949301D-01  1.2136336137198D+00
69  6.8000000000000D-01 -1.7935803661260D-01  1.2166906834389D+00
70  6.9000000000000D-01 -1.7112403172497D-01  1.2190030145514D+00
71  7.0000000000000D-01 -1.6211936009807D-01  1.2205632137570D+00
72  7.1000000000000D-01 -1.5233308750268D-01  1.2213647012205D+00
73  7.2000000000000D-01 -1.4175580218054D-01  1.2214017399170D+00
74  7.3000000000000D-01 -1.3037967347522D-01  1.2206694635045D+00
75  7.4000000000000D-01 -1.1819850691688D-01  1.2191639026305D+00
76  7.5000000000000D-01 -1.0520779556136D-01  1.2168820095837D+00
77  7.6000000000000D-01 -9.1404767392747D-02  1.2138216812068D+00
78  7.7000000000000D-01 -7.6788428608328D-02  1.2099817799879D+00
79  7.8000000000000D-01 -6.1359602615294D-02  1.2053621532536D+00
80  7.9000000000000D-01 -4.5120964579220D-02  1.1999636503930D+00
81  8.0000000000000D-01 -2.8077071375982D-02  1.1937881380430D+00
82  8.1000000000000D-01 -1.0234386810458D-02  1.1868385131741D+00
83  8.2000000000000D-01  8.3986980216917D-03  1.1791187140184D+00
84  8.3000000000000D-01  2.7811849340699D-02  1.1706337287882D+00
85  8.4000000000000D-01  4.7992780355501D-02  1.1613896021389D+00
86  8.5000000000000D-01  6.8927246086768D-02  1.1513934393356D+00
87  8.6000000000000D-01  9.0599043410375D-02  1.1406534080886D+00
88  8.7000000000000D-01  1.1299001637707D-01  1.1291787380300D+00
89  8.8000000000000D-01  1.3608006684934D-01  1.1169797178068D+00
90  8.9000000000000D-01  1.5984717048185D-01  1.1040676897772D+00
91  9.0000000000000D-01  1.8426739805661D-01  1.0904550422978D+00
92  9.1000000000000D-01  2.0931494216888D-01  1.0761551995994D+00
93  9.2000000000000D-01  2.3496214924463D-01  1.0611826092543D+00
94  9.3000000000000D-01  2.6117955685464D-01  1.0455527272438D+00
95  9.4000000000000D-01  2.8793593627553D-01  1.0292820006433D+00
96  9.5000000000000D-01  3.1519834023212D-01  1.0123878479456D+00
97  9.6000000000000D-01  3.4293215574041D-01  9.9488863705339D-01
98  9.7000000000000D-01  3.7110116195567D-01  9.7680366097414D-01
99  9.8000000000000D-01  3.9966759291449D-01  9.5815311126093D-01
100  9.9000000000000D-01  4.2859220504529D-01  9.3895804924618D-01
101  1.0000000000000D+00  4.5783434930726D-01  9.1924037512278D-01
102  1.0100000000000D+00  4.8735204780326D-01  8.9902279493283D-01
103  1.0200000000000D+00  5.1710207469854D-01  8.7832878553027D-01
104  1.0300000000000D+00  5.4704004126314D-01  8.5718255758942D-01
105  1.0400000000000D+00  5.7712048484394D-01  8.3560901673670D-01
106  1.0500000000000D+00  6.0729696155813D-01  8.1363372288904D-01
107  1.0600000000000D+00  6.3752214248903D-01  7.9128284788686D-01
108  1.0700000000000D+00  6.6774791315312D-01  7.6858313151510D-01
109  1.0800000000000D+00  6.9792547599597D-01  7.4556183601035D-01
110  1.0900000000000D+00  7.2800545566548D-01  7.2224669915639D-01
111  1.1000000000000D+00  7.5793800679979D-01  6.9866588607522D-01
112  1.1100000000000D+00  7.8767292405907D-01  6.7484793982435D-01
113  1.1200000000000D+00  8.1715975412207D-01  6.5082173091484D-01
114  1.1300000000000D+00  8.4634790936067D-01  6.2661640586789D-01
115  1.1400000000000D+00  8.7518678289935D-01  6.0226133493102D-01
116  1.1500000000000D+00  9.0362586475980D-01  5.7778605907759D-01
117  1.1600000000000D+00  9.3161485878655D-01  5.5322023641590D-01
118  1.1700000000000D+00  9.5910380004511D-01  5.2859358813583D-01
119  1.1800000000000D+00  9.8604317238087D-01  5.0393584412320D-01
120  1.1900000000000D+00  1.0123840258239D+00  4.7927668837312D-01
121  1.2000000000000D+00  1.0380780935240D+00  4.5464570433478D-01
122  1.2100000000000D+00  1.0630779078999D+00  4.3007232032035D-01
123  1.2200000000000D+00  1.0873369156851D+00  4.0558575511177D-01
124  1.2300000000000D+00  1.1108095915561D+00  3.8121496389808D-01
125  1.2400000000000D+00  1.1334515500307D+00  3.5698858467633D-01
126  1.2500000000000D+00  1.1552196553239D+00  3.3293488524804D-01
127  1.2600000000000D+00  1.1760721288581D+00  3.0908171094147D-01
128  1.2700000000000D+00  1.1959686541254D+00  2.8545643318894D-01
129  1.2800000000000D+00  1.2148704786049D+00  2.6208589908699D-01
130  1.2900000000000D+00  1.2327405124491D+00  2.3899638206294D-01
131  1.3000000000000D+00  1.2495434236574D+00  2.1621353377083D-01
132  1.3100000000000D+00  1.2652457294603D+00  1.9376233733668D-01
133  1.3200000000000D+00  1.2798158836574D+00  1.7166706206654D-01
134  1.3300000000000D+00  1.2932243596497D+00  1.4995121973167D-01
135  1.3400000000000D+00  1.3054437289233D+00  1.2863752253916D-01
136  1.3500000000000D+00  1.3164487347626D+00  1.0774784288786D-01
137  1.3600000000000D+00  1.3262163609592D+00  8.7303175014972D-02
138  1.3700000000000D+00  1.3347258953212D+00  6.7323598622972D-02
139  1.3800000000000D+00  1.3419589877935D+00  4.7828244575106D-02
140  1.3900000000000D+00  1.3478997029940D+00  2.8835262749934D-02
141  1.4000000000000D+00  1.3525345670274D+00  1.0361792122874D-02
142  1.4100000000000D+00  1.3558526084068D+00 -7.5760668447563D-03
143  1.4200000000000D+00  1.3578453929593D+00 -2.4963277445792D-02
144  1.4300000000000D+00  1.3585070526148D+00 -4.1785889543104D-02
145  1.4400000000000D+00  1.3578343079424D+00 -5.8031059893646D-02
146  1.4500000000000D+00  1.3558264844004D+00 -7.3687069952702D-02
147  1.4600000000000D+00  1.3524855221922D+00 -8.8743341102152D-02
148  1.4700000000000D+00  1.3478159797067D+00 -1.0319044727920D-01
149  1.4800000000000D+00  1.3418250305160D+00 -1.1702012498126D-01
150  1.4900000000000D+00  1.3345224538860D+00 -1.3022528061433D-01
151  1.5000000000000D+00  1.3259206188699D+00 -1.4279999519902D-01
152  1.5100000000000D+00  1.3160344619263D+00 -1.5473952639559D-01
153  1.5200000000000D+00  1.3048814581901D+00 -1.6604030788585D-01
154  1.5300000000000D+00  1.2924815863867D+00 -1.7669994609252D-01
155  1.5400000000000D+00  1.2788572875135D+00 -1.8671721427181D-01
156  1.5500000000000D+00  1.2640334173673D+00 -1.9609204399563D-01
157  1.5600000000000D+00  1.2480371930185D+00 -2.0482551404977D-01
158  1.5700000000000D+00  1.2308981334040D+00 -2.1291983680203D-01
159  1.5800000000000D+00  1.2126479941161D+00 -2.2037834205690D-01
160  1.5900000000000D+00  1.1933206966451D+00 -2.2720545848612D-01
161  1.6000000000000D+00  1.1729522521372D+00 -2.3340669264489D-01
162  1.6100000000000D+00  1.1515806799952D+00 -2.3898860569198D-01
163  1.6200000000000D+00  1.1292459213878D+00 -2.4395878782507D-01
164  1.6300000000000D+00  1.1059897480310D+00 -2.4832583056477D-01
165  1.6400000000000D+00  1.0818556663449D+00 -2.5209929691383D-01
166  1.6500000000000D+00  1.0568888173538D+00 -2.5528968952781D-01
167  1.6600000000000D+00  1.0311358724816D+00 -2.5790841694308D-01
168  1.6700000000000D+00  1.0046449256106D+00 -2.5996775799988D-01
169  1.6800000000000D+00  9.7746538159649D-01 -2.6148082452282D-01
170  1.6900000000000D+00  9.4964784161012D-01 -2.6246152239899D-01
171  1.7000000000000D+00  9.2124398553129D-01 -2.6292451112889D-01
172  1.7100000000000D+00  8.9230645176820D-01 -2.6288516199363D-01
173  1.7200000000000D+00  8.6288871475279D-01 -2.6235951492353D-01
174  1.7300000000000D+00  8.3304496048731D-01 -2.6136423421429D-01
175  1.7400000000000D+00  8.0282996041373D-01 -2.5991656318421D-01
176  1.7500000000000D+00  7.7229894397503D-01 -2.5803427791903D-01
177  1.7600000000000D+00  7.4150747016490D-01 -2.5573564020659D-01
178  1.7700000000000D+00  7.1051129841320D-01 -2.5303934980365D-01
179  1.7800000000000D+00  6.7936625913999D-01 -2.4996449614887D-01
180  1.7900000000000D+00  6.4812812427987D-01 -2.4653050965202D-01
181  1.8000000000000D+00  6.1685247816166D-01 -2.4275711269114D-01
182  1.8100000000000D+00  5.8559458898288D-01 -2.3866427042759D-01
183  1.8200000000000D+00  5.5440928130976D-01 -2.3427214158921D-01
184  1.8300000000000D+00  5.2335080979404D-01 -2.2960102931283D-01
185  1.8400000000000D+00  4.9247273454724D-01 -2.2467133220483D-01
186  1.8500000000000D+00  4.6182779835467D-01 -2.1950349570415D-01
187  1.8600000000000D+00  4.3146780612087D-01 -2.1411796389520D-01
188  1.8700000000000D+00  4.0144350678301D-01 -2.0853513186982D-01
189  1.8800000000000D+00  3.7180447795166D-01 -2.0277529874516D-01
190  1.8900000000000D+00  3.4259901365676D-01 -1.9685862148200D-01
191  1.9000000000000D+00  3.1387401522691D-01 -1.9080506953432D-01
192  1.9100000000000D+00  2.8567488589385D-01 -1.8463438054701D-01
193  1.9200000000000D+00  2.5804542890281D-01 -1.7836601704756D-01
194  1.9300000000000D+00  2.3102774983804D-01 -1.7201912439114D-01
195  1.9400000000000D+00  2.0466216290755D-01 -1.6561248988972D-01
196  1.9500000000000D+00  1.7898710170943D-01 -1.5916450332300D-01
197  1.9600000000000D+00  1.5403903450296D-01 -1.5269311885638D-01
198  1.9700000000000D+00  1.2985238404515D-01 -1.4621581840450D-01
199  1.9800000000000D+00  1.0645945249534D-01 -1.3974957663295D-01
200  1.9900000000000D+00  8.3890350877007D-02 -1.3331082743513D-01
201  2.0000000000000D+00  6.2172934000213D-02 -1.2691543222014D-01
202  2.0100000000000D+00  4.1332740147826D-02 -1.2057864978041D-01
203  2.0200000000000D+00  2.1392936142657D-02 -1.1431510797555D-01
204  2.0300000000000D+00  2.3742676629125D-03 -1.0813877720085D-01
205  2.0400000000000D+00 -1.5704985417814D-02 -1.0206294557592D-01
206  2.0500000000000D+00 -3.2829048007592D-02 -9.6100196107521D-02
207  2.0600000000000D+00 -4.8984683987069D-02 -9.0262385516888D-02
208  2.0700000000000D+00 -6.4161224761979D-02 -8.4560625058440D-02
209  2.0800000000000D+00 -7.8350592822368D-02 -7.9005263109618D-02
210  2.0900000000000D+00 -9.1547320261297D-02 -7.3605869565391D-02
211  2.1000000000000D+00 -1.0374856190515D-01 -6.8371222182273D-02
212  2.1100000000000D+00 -1.1495410400561D-01 -6.3309294535618D-02
213  2.1200000000000D+00 -1.2516636762010D-01 -5.8427245932484D-02
214  2.1300000000000D+00 -1.3439040757583D-01 -5.3731412961682D-02
215  2.1400000000000D+00 -1.4263390694598D-01 -4.9227302724858D-02
216  2.1500000000000D+00 -1.4990716681999D-01 -4.4919587848862D-02
217  2.1600000000000D+00 -1.5622309236549D-01 -4.0812102917020D-02
218  2.1700000000000D+00 -1.6159717447876D-01 -3.6907842607551D-02
219  2.1800000000000D+00 -1.6604746782997D-01 -3.3208961246934D-02
220  2.1900000000000D+00 -1.6959456551357D-01 -2.9716773715191D-02
221  2.2000000000000D+00 -1.7226157000748D-01 -2.6431757840673D-02
222  2.2100000000000D+00 -1.7407406146144D-01 -2.3353557900465D-02
223  2.2200000000000D+00 -1.7506006296411D-01 -2.0480989389803D-02
224  2.2300000000000D+00 -1.7525001303317D-01 -1.7812042390855D-02
225  2.2400000000000D+00 -1.7467668602278D-01 -1.5343898681022D-02
226  2.2500000000000D+00 -1.7337523136614D-01 -1.3072918653543D-02
227  2.2600000000000D+00 -1.7138306048898D-01 -1.0994668190624D-02
228  2.2700000000000D+00 -1.6873969806569D-01 -9.1039552316421D-03
229  2.2800000000000D+00 -1.6548686766937D-01 -7.3948038398726D-03
230  2.2900000000000D+00 -1.6166885369861D-01 -5.8603622429334D-03
231  2.3000000000000D+00 -1.5733200824049D-01 -4.4930270482116D-03
232  2.3100000000000D+00 -1.5252407177540D-01 -3.2846183468673D-03
233  2.3200000000000D+00 -1.4729375173173D-01 -2.2264802084866D-03
234  2.3300000000000D+00 -1.4169019811152D-01 -1.3096286680443D-03
235  2.3400000000000D+00 -1.3576253664078D-01 -5.2487799885603D-04
236  2.3500000000000D+00 -1.2955879697698D-01  1.3687546857688D-04
237  2.3600000000000D+00 -1.2312644310603D-01  6.8477956364142D-04
238  2.3700000000000D+00 -1.1651216407784D-01  1.1279606335352D-03
239  2.3800000000000D+00 -1.0976191054506D-01  1.4755204585731D-03
240  2.3900000000000D+00 -1.0292054025189D-01  1.7364376680266D-03
241  2.4000000000000D+00 -9.6031791866897D-02  1.9195497993879D-03
242  2.4100000000000D+00 -8.9138172152717D-02  2.0335142195159D-03
243  2.4200000000000D+00 -8.2280824422559D-02  2.0867645814395D-03
244  2.4300000000000D+00 -7.5499426112670D-02  2.0874747631309D-03
245  2.4400000000000D+00 -6.8832084442013D-02  2.0435226482003D-03
246  2.4500000000000D+00 -6.2315236728964D-02  1.9624553873821D-03
247  2.4600000000000D+00 -5.5983554269813D-02  1.8514557985588D-03
248  2.4700000000000D+00 -4.9869852669213D-02  1.7173108473024D-03
249  2.4800000000000D+00 -4.4005006589951D-02  1.5663815969494D-03
250  2.4900000000000D+00 -3.8417870938687D-02  1.4045751374889D-03
251  2.5000000000000D+00 -3.3135205579546D-02  1.2373178857029D-03
252  2.5100000000000D+00 -2.8181607622733D-02  1.0695312597289D-03
253  2.5200000000000D+00 -2.3579444646802D-02  9.0560787467070D-04
254  2.5300000000000D+00 -1.9348802029387D-02  7.4939207538596D-04
255  2.5400000000000D+00 -1.5510867577226D-02  6.0427584241453D-04
256  2.5500000000000D+00 -1.2075266923744D-02  4.7276238141038D-04
257  2.5600000000000D+00 -9.0526442445386D-03  3.5687196565262D-04
258  2.5700000000000D+00 -6.4403666961570D-03  2.5740204959704D-04
259  2.5800000000000D+00 -4.2757133122066D-03  1.7659827224789D-04
260  2.5900000000000D+00 -2.5828570424763D-03  1.1551953815750D-04
261  2.6000000000000D+00 -1.3825359725624D-03  7.5291344621047D-05
262  2.6100000000000D+00 -6.1269732468244D-04  5.0911038577629D-05
263  2.6200000000000D+00 -1.8347226199211D-04  3.6219864270496D-05
264  2.6300000000000D+00  8.6320669563565D-06  2.4032776835244D-05
265  2.6400000000000D+00  5.2893471541299D-05  1.2738034737770D-05
266  2.6500000000000D+00  2.3360039731974D-05  3.5641158822416D-06
267  2.6600000000000D+00 -1.2551904624725D-05 -1.5203840299892D-06
268  2.6700000000000D+00 -2.3345249233430D-05 -2.3639430364600D-06
269  2.6800000000000D+00 -1.3609198865793D-05 -1.2214623935586D-06
270  2.6900000000000D+00  1.2515005984437D-06  2.0745565921011D-07
271  2.7000000000000D+00  3.7255592476846D-06  5.6277605825648D-07
272  2.7100000000000D+00  2.9076635966285D-06  4.0800071303804D-07
273  2.7200000000000D+00  2.4239366284509D-08 -8.3630873145997D-09
274  2.7300000000000D+00  2.3934138164021D-07 -8.2577772420278D-08
275  2.7400000000000D+00  2.3246487388598D-07 -8.0205233712249D-08
276  2.7500000000000D+00  4.3861978857026D-08 -1.5133298233414D-08
277  2.7600000000000D+00  0.0000000000000D+00  0.0000000000000D+00
278  2.7700000000000D+00  0.0000000000000D+00  0.0000000000000D+00
279  2.7800000000000D+00  0.0000000000000D+00  0.0000000000000D+00
280  2.7900000000000D+00  0.0000000000000D+00  0.0000000000000D+00
281  2.8000000000000D+00  0.0000000000000D+00  0.0000000000000D+00
282  2.8100000000000D+00  0.0000000000000D+00  0.0000000000000D+00
283  2.8200000000000D+00  0.0000000000000D+00  0.0000000000000D+00
284  2.8300000000000D+00  0.0000000000000D+00  0.0000000000000D+00
285  2.8400000000000D+00  0.0000000000000D+00  0.0000000000000D+00
286  2.8500000000000D+00  0.0000000000000D+00  0.0000000000000D+00
287  2.8600000000000D+00  0.0000000000000D+00  0.0000000000000D+00
288  2.8700000000000D+00  0.0000000000000D+00  0.0000000000000D+00
289  2.8800000000000D+00  0.0000000000000D+00  0.0000000000000D+00
290  2.8900000000000D+00  0.0000000000000D+00  0.0000000000000D+00
291  2.9000000000000D+00  0.0000000000000D+00  0.0000000000000D+00
292  2.9100000000000D+00  0.0000000000000D+00  0.0000000000000D+00
293  2.9200000000000D+00  0.0000000000000D+00  0.0000000000000D+00
294  2.9300000000000D+00  0.0000000000000D+00  0.0000000000000D+00
295  2.9400000000000D+00  0.0000000000000D+00  0.0000000000000D+00
296  2.9500000000000D+00  0.0000000000000D+00  0.0000000000000D+00
297  2.9600000000000D+00  0.0000000000000D+00  0.0000000000000D+00
298  2.9700000000000D+00  0.0000000000000D+00  0.0000000000000D+00
299  2.9800000000000D+00  0.0000000000000D+00  0.0000000000000D+00
300  2.9900000000000D+00  0.0000000000000D+00  0.0000000000000D+00
301  3.0000000000000D+00  0.0000000000000D+00  0.0000000000000D+00
302  3.0100000000000D+00  0.0000000000000D+00  0.0000000000000D+00
303  3.0200000000000D+00  0.0000000000000D+00  0.0000000000000D+00
304  3.0300000000000D+00  0.0000000000000D+00  0.0000000000000D+00
305  3.0400000000000D+00  0.0000000000000D+00  0.0000000000000D+00
306  3.0500000000000D+00  0.0000000000000D+00  0.0000000000000D+00
307  3.0600000000000D+00  0.0000000000000D+00  0.0000000000000D+00
308  3.0700000000000D+00  0.0000000000000D+00  0.0000000000000D+00
309  3.0800000000000D+00  0.0000000000000D+00  0.0000000000000D+00
310  3.0900000000000D+00  0.0000000000000D+00  0.0000000000000D+00
311  3.1000000000000D+00  0.0000000000000D+00  0.0000000000000D+00
312  3.1100000000000D+00  0.0000000000000D+00  0.0000000000000D+00
313  3.1200000000000D+00  0.0000000000000D+00  0.0000000000000D+00
314  3.1300000000000D+00  0.0000000000000D+00  0.0000000000000D+00
315  3.1400000000000D+00  0.0000000000000D+00  0.0000000000000D+00
316  3.1500000000000D+00  0.0000000000000D+00  0.0000000000000D+00
317  3.1600000000000D+00  0.0000000000000D+00  0.0000000000000D+00
318  3.1700000000000D+00  0.0000000000000D+00  0.0000000000000D+00
319  3.1800000000000D+00  0.0000000000000D+00  0.0000000000000D+00
320  3.1900000000000D+00  0.0000000000000D+00  0.0000000000000D+00
321  3.2000000000000D+00  0.0000000000000D+00  0.0000000000000D+00
322  3.2100000000000D+00  0.0000000000000D+00  0.0000000000000D+00
323  3.2200000000000D+00  0.0000000000000D+00  0.0000000000000D+00
324  3.2300000000000D+00  0.0000000000000D+00  0.0000000000000D+00
325  3.2400000000000D+00  0.0000000000000D+00  0.0000000000000D+00
326  3.2500000000000D+00  0.0000000000000D+00  0.0000000000000D+00
327  3.2600000000000D+00  0.0000000000000D+00  0.0000000000000D+00
328  3.2700000000000D+00  0.0000000000000D+00  0.0000000000000D+00
329  3.2800000000000D+00  0.0000000000000D+00  0.0000000000000D+00
330  3.2900000000000D+00  0.0000000000000D+00  0.0000000000000D+00
331  3.3000000000000D+00  0.0000000000000D+00  0.0000000000000D+00
332  3.3100000000000D+00  0.0000000000000D+00  0.0000000000000D+00
333  3.3200000000000D+00  0.0000000000000D+00  0.0000000000000D+00
334  3.3300000000000D+00  0.0000000000000D+00  0.0000000000000D+00
335  3.3400000000000D+00  0.0000000000000D+00  0.0000000000000D+00
336  3.3500000000000D+00  0.0000000000000D+00  0.0000000000000D+00
337  3.3600000000000D+00  0.0000000000000D+00  0.0000000000000D+00
338  3.3700000000000D+00  0.0000000000000D+00  0.0000000000000D+00
339  3.3800000000000D+00  0.0000000000000D+00  0.0000000000000D+00
340  3.3900000000000D+00  0.0000000000000D+00  0.0000000000000D+00
341  3.4000000000000D+00  0.0000000000000D+00  0.0000000000000D+00
342  3.4100000000000D+00  0.0000000000000D+00  0.0000000000000D+00
343  3.4200000000000D+00  0.0000000000000D+00  0.0000000000000D+00
344  3.4300000000000D+00  0.0000000000000D+00  0.0000000000000D+00
345  3.4400000000000D+00  0.0000000000000D+00  0.0000000000000D+00
346  3.4500000000000D+00  0.0000000000000D+00  0.0000000000000D+00
347  3.4600000000000D+00  0.0000000000000D+00  0.0000000000000D+00
348  3.4700000000000D+00  0.0000000000000D+00  0.0000000000000D+00
349  3.4800000000000D+00  0.0000000000000D+00  0.0000000000000D+00
350  3.4900000000000D+00  0.0000000000000D+00  0.0000000000000D+00
351  3.5000000000000D+00  0.0000000000000D+00  0.0000000000000D+00
352  3.5100000000000D+00  0.0000000000000D+00  0.0000000000000D+00
353  3.5200000000000D+00  0.0000000000000D+00  0.0000000000000D+00
354  3.5300000000000D+00  0.0000000000000D+00  0.0000000000000D+00
355  3.5400000000000D+00  0.0000000000000D+00  0.0000000000000D+00
356  3.5500000000000D+00  0.0000000000000D+00  0.0000000000000D+00
357  3.5600000000000D+00  0.0000000000000D+00  0.0000000000000D+00
358  3.5700000000000D+00  0.0000000000000D+00  0.0000000000000D+00
359  3.5800000000000D+00  0.0000000000000D+00  0.0000000000000D+00
360  3.5900000000000D+00  0.0000000000000D+00  0.0000000000000D+00
361  3.6000000000000D+00  0.0000000000000D+00  0.0000000000000D+00
362  3.6100000000000D+00  0.0000000000000D+00  0.0000000000000D+00
363  3.6200000000000D+00  0.0000000000000D+00  0.0000000000000D+00
364  3.6300000000000D+00  0.0000000000000D+00  0.0000000000000D+00
365  3.6400000000000D+00  0.0000000000000D+00  0.0000000000000D+00
366  3.6500000000000D+00  0.0000000000000D+00  0.0000000000000D+00
367  3.6600000000000D+00  0.0000000000000D+00  0.0000000000000D+00
368  3.6700000000000D+00  0.0000000000000D+00  0.0000000000000D+00
369  3.6800000000000D+00  0.0000000000000D+00  0.0000000000000D+00
370  3.6900000000000D+00  0.0000000000000D+00  0.0000000000000D+00
371  3.7000000000000D+00  0.0000000000000D+00  0.0000000000000D+00
372  3.7100000000000D+00  0.0000000000000D+00  0.0000000000000D+00
373  3.7200000000000D+00  0.0000000000000D+00  0.0000000000000D+00
374  3.7300000000000D+00  0.0000000000000D+00  0.0000000000000D+00
375  3.7400000000000D+00  0.0000000000000D+00  0.0000000000000D+00
376  3.7500000000000D+00  0.0000000000000D+00  0.0000000000000D+00
377  3.7600000000000D+00  0.0000000000000D+00  0.0000000000000D+00
378  3.7700000000000D+00  0.0000000000000D+00  0.0000000000000D+00
379  3.7800000000000D+00  0.0000000000000D+00  0.0000000000000D+00
380  3.7900000000000D+00  0.0000000000000D+00  0.0000000000000D+00
381  3.8000000000000D+00  0.0000000000000D+00  0.0000000000000D+00
382  3.8100000000000D+00  0.0000000000000D+00  0.0000000000000D+00
383  3.8200000000000D+00  0.0000000000000D+00  0.0000000000000D+00
384  3.8300000000000D+00  0.0000000000000D+00  0.0000000000000D+00
385  3.8400000000000D+00  0.0000000000000D+00  0.0000000000000D+00
386  3.8500000000000D+00  0.0000000000000D+00  0.0000000000000D+00
387  3.8600000000000D+00  0.0000000000000D+00  0.0000000000000D+00
388  3.8700000000000D+00  0.0000000000000D+00  0.0000000000000D+00
389  3.8800000000000D+00  0.0000000000000D+00  0.0000000000000D+00
390  3.8900000000000D+00  0.0000000000000D+00  0.0000000000000D+00
391  3.9000000000000D+00  0.0000000000000D+00  0.0000000000000D+00
392  3.9100000000000D+00  0.0000000000000D+00  0.0000000000000D+00
393  3.9200000000000D+00  0.0000000000000D+00  0.0000000000000D+00
394  3.9300000000000D+00  0.0000000000000D+00  0.0000000000000D+00
395  3.9400000000000D+00  0.0000000000000D+00  0.0000000000000D+00
396  3.9500000000000D+00  0.0000000000000D+00  0.0000000000000D+00
397  3.9600000000000D+00  0.0000000000000D+00  0.0000000000000D+00
398  3.9700000000000D+00  0.0000000000000D+00  0.0000000000000D+00
399  3.9800000000000D+00  0.0000000000000D+00  0.0000000000000D+00
400  3.9900000000000D+00  0.0000000000000D+00  0.0000000000000D+00
401  4.0000000000000D+00  0.0000000000000D+00  0.0000000000000D+00
402  4.0100000000000D+00  0.0000000000000D+00  0.0000000000000D+00
403  4.0200000000000D+00  0.0000000000000D+00  0.0000000000000D+00
404  4.0300000000000D+00  0.0000000000000D+00  0.0000000000000D+00
405  4.0400000000000D+00  0.0000000000000D+00  0.0000000000000D+00
406  4.0500000000000D+00  0.0000000000000D+00  0.0000000000000D+00
407  4.0600000000000D+00  0.0000000000000D+00  0.0000000000000D+00
408  4.0700000000000D+00  0.0000000000000D+00  0.0000000000000D+00
409  4.0800000000000D+00  0.0000000000000D+00  0.0000000000000D+00
410  4.0900000000000D+00  0.0000000000000D+00  0.0000000000000D+00
411  4.1000000000000D+00  0.0000000000000D+00  0.0000000000000D+00
412  4.1100000000000D+00  0.0000000000000D+00  0.0000000000000D+00
413  4.1200000000000D+00  0.0000000000000D+00  0.0000000000000D+00
414  4.1300000000000D+00  0.0000000000000D+00  0.0000000000000D+00
415  4.1400000000000D+00  0.0000000000000D+00  0.0000000000000D+00
416  4.1500000000000D+00  0.0000000000000D+00  0.0000000000000D+00
417  4.1600000000000D+00  0.0000000000000D+00  0.0000000000000D+00
418  4.1700000000000D+00  0.0000000000000D+00  0.0000000000000D+00
419  4.1800000000000D+00  0.0000000000000D+00  0.0000000000000D+00
420  4.1900000000000D+00  0.0000000000000D+00  0.0000000000000D+00
421  4.2000000000000D+00  0.0000000000000D+00  0.0000000000000D+00
422  4.2100000000000D+00  0.0000000000000D+00  0.0000000000000D+00
423  4.2200000000000D+00  0.0000000000000D+00  0.0000000000000D+00
424  4.2300000000000D+00  0.0000000000000D+00  0.0000000000000D+00
425  4.2400000000000D+00  0.0000000000000D+00  0.0000000000000D+00
426  4.2500000000000D+00  0.0000000000000D+00  0.0000000000000D+00
427  4.2600000000000D+00  0.0000000000000D+00  0.0000000000000D+00
428  4.2700000000000D+00  0.0000000000000D+00  0.0000000000000D+00
429  4.2800000000000D+00  0.0000000000000D+00  0.0000000000000D+00
430  4.2900000000000D+00  0.0000000000000D+00  0.0000000000000D+00
431  4.3000000000000D+00  0.0000000000000D+00  0.0000000000000D+00
432  4.3100000000000D+00  0.0000000000000D+00  0.0000000000000D+00
433  4.3200000000000D+00  0.0000000000000D+00  0.0000000000000D+00
434  4.3300000000000D+00  0.0000000000000D+00  0.0000000000000D+00
435  4.3400000000000D+00  0.0000000000000D+00  0.0000000000000D+00
436  4.3500000000000D+00  0.0000000000000D+00  0.0000000000000D+00
437  4.3600000000000D+00  0.0000000000000D+00  0.0000000000000D+00
438  4.3700000000000D+00  0.0000000000000D+00  0.0000000000000D+00
439  4.3800000000000D+00  0.0000000000000D+00  0.0000000000000D+00
440  4.3900000000000D+00  0.0000000000000D+00  0.0000000000000D+00
441  4.4000000000000D+00  0.0000000000000D+00  0.0000000000000D+00
442  4.4100000000000D+00  0.0000000000000D+00  0.0000000000000D+00
443  4.4200000000000D+00  0.0000000000000D+00  0.0000000000000D+00