La    ONCVPSP-3.3.0  r_core=   2.11664   1.60878   1.85636   1.66739
57.0000     11.0000      180112    zatom,zion,pspd
8 -116133   3     4   600     0    pspcod,pspxc,lmax,lloc,mmax,r2well
5.99000000  5.00000000  0.00000000    rchrg fchrg qchrg
2     2     2     2     0    nproj
1     1           extension_switch
0                         6.6955999654135D+00  6.3904663196968D-01
1  0.0000000000000D+00 -3.6845526629747D-12  3.7598923974258D-11
2  1.0000000000000D-02  3.1055612298168D-02 -1.0447555898236D-02
3  2.0000000000000D-02  6.2095891187290D-02 -2.0858121640369D-02
4  3.0000000000000D-02  9.3105500768163D-02 -3.1194919645311D-02
5  4.0000000000000D-02  1.2406910011601D-01 -4.1421595981973D-02
6  5.0000000000000D-02  1.5497134065549D-01 -5.1502428453732D-02
7  6.0000000000000D-02  1.8579686340363D-01 -6.1402530220903D-02
8  7.0000000000000D-02  2.1653029604120D-01 -7.1088047518223D-02
9  8.0000000000000D-02  2.4715624977641D-01 -8.0526350061977D-02
10  9.0000000000000D-02  2.7765931596978D-01 -8.9686212788138D-02
11  1.0000000000000D-01  3.0802406249405D-01 -9.8537987618547D-02
12  1.1000000000000D-01  3.3823502980971D-01 -1.0705376401610D-01
13  1.2000000000000D-01  3.6827672674305D-01 -1.1520751716242D-01
14  1.3000000000000D-01  3.9813362596198D-01 -1.2297524267137D-01
15  1.4000000000000D-01  4.2779015915253D-01 -1.3033507683957D-01
16  1.5000000000000D-01  4.5723071190819D-01 -1.3726740152942D-01
17  1.6000000000000D-01  4.8643961835343D-01 -1.4375493288090D-01
18  1.7000000000000D-01  5.1540115553240D-01 -1.4978279315564D-01
19  1.8000000000000D-01  5.4409953760387D-01 -1.5533856512831D-01
20  1.9000000000000D-01  5.7251890989389D-01 -1.6041232855764D-01
21  2.0000000000000D-01  6.0064334286776D-01 -1.6499667838973D-01
22  2.1000000000000D-01  6.2845682609345D-01 -1.6908672447076D-01
23  2.2000000000000D-01  6.5594326227904D-01 -1.7268007267262D-01
24  2.3000000000000D-01  6.8308646147655D-01 -1.7577678746360D-01
25  2.4000000000000D-01  7.0987013555468D-01 -1.7837933608597D-01
26  2.5000000000000D-01  7.3627789305218D-01 -1.8049251463179D-01
27  2.6000000000000D-01  7.6229323453251D-01 -1.8212335643799D-01
28  2.7000000000000D-01  7.8789954856849D-01 -1.8328102334919D-01
29  2.8000000000000D-01  8.1308010849347D-01 -1.8397668052291D-01
30  2.9000000000000D-01  8.3781807006141D-01 -1.8422335557382D-01
31  3.0000000000000D-01  8.6209647016461D-01 -1.8403578297286D-01
32  3.1000000000000D-01  8.8589822676144D-01 -1.8343023473071D-01
33  3.2000000000000D-01  9.0920614017027D-01 -1.8242433850343D-01
34  3.3000000000000D-01  9.3200289588723D-01 -1.8103688436012D-01
35  3.4000000000000D-01  9.5427106908609D-01 -1.7928762154710D-01
36  3.5000000000000D-01  9.7599313095737D-01 -1.7719704667005D-01
37  3.6000000000000D-01  9.9715145704119D-01 -1.7478618479339D-01
38  3.7000000000000D-01  1.0177283377041D+00 -1.7207636502530D-01
39  3.8000000000000D-01  1.0377059909036D+00 -1.6908899221533D-01
40  3.9000000000000D-01  1.0570665773778D+00 -1.6584531643962D-01
41  4.0000000000000D-01  1.0757922183846D+00 -1.6236620198596D-01
42  4.1000000000000D-01  1.0938650161088D+00 -1.5867189757643D-01
43  4.2000000000000D-01  1.1112670768360D+00 -1.5478180957856D-01
44  4.3000000000000D-01  1.1279805369822D+00 -1.5071427995732D-01
45  4.4000000000000D-01  1.1439875920483D+00 -1.4648637070886D-01
46  4.5000000000000D-01  1.1592705285510D+00 -1.4211365649296D-01
47  4.6000000000000D-01  1.1738117589612D+00 -1.3761002714409D-01
48  4.7000000000000D-01  1.1875938596592D+00 -1.3298750169180D-01
49  4.8000000000000D-01  1.2005996118928D+00 -1.2825605545894D-01
50  4.9000000000000D-01  1.2128120456991D+00 -1.2342346173186D-01
51  5.0000000000000D-01  1.2242144867261D+00 -1.1849514941017D-01
52  5.1000000000000D-01  1.2347906058620D+00 -1.1347407794614D-01
53  5.2000000000000D-01  1.2445244715527D+00 -1.0836063077407D-01
54  5.3000000000000D-01  1.2534006046610D+00 -1.0315252831164D-01
55  5.4000000000000D-01  1.2614040356898D+00 -9.7844761485035D-02
56  5.5000000000000D-01  1.2685203641646D+00 -9.2429546593141D-02
57  5.6000000000000D-01  1.2747358199403D+00 -8.6896302179701D-02
58  5.7000000000000D-01  1.2800373261707D+00 -8.1231648430040D-02
59  5.8000000000000D-01  1.2844125636485D+00 -7.5419429451493D-02
60  5.9000000000000D-01  1.2878500361995D+00 -6.9440758633100D-02
61  6.0000000000000D-01  1.2903391367864D+00 -6.3274087115529D-02
62  6.1000000000000D-01  1.2918702139563D+00 -5.6895295233375D-02
63  6.2000000000000D-01  1.2924346382410D+00 -5.0277806624662D-02
64  6.3000000000000D-01  1.2920248681004D+00 -4.3392724534619D-02
65  6.4000000000000D-01  1.2906345149833D+00 -3.6208989675565D-02
66  6.5000000000000D-01  1.2882584070617D+00 -2.8693558844355D-02
67  6.6000000000000D-01  1.2848926511858D+00 -2.0811603341776D-02
68  6.7000000000000D-01  1.2805346925986D+00 -1.2526726089710D-02
69  6.8000000000000D-01  1.2751833719425D+00 -3.8011962002913D-03
70  6.9000000000000D-01  1.2688389790913D+00  5.4038003801614D-03
71  7.0000000000000D-01  1.2615033033444D+00  1.5127895651678D-02
72  7.1000000000000D-01  1.2531796795258D+00  2.5411261372498D-02
73  7.2000000000000D-01  1.2438730295467D+00  3.6294319606585D-02
74  7.3000000000000D-01  1.2335898990010D+00  4.7817443792094D-02
75  7.4000000000000D-01  1.2223384883920D+00  6.0020652183356D-02
76  7.5000000000000D-01  1.2101286786079D+00  7.2943295569829D-02
77  7.6000000000000D-01  1.1969720502982D+00  8.6623741210741D-02
78  7.7000000000000D-01  1.1828818968387D+00  1.0109905494113D-01
79  7.8000000000000D-01  1.1678732306090D+00  1.1640468340706D-01
80  7.9000000000000D-01  1.1519627823564D+00  1.3257413837058D-01
81  8.0000000000000D-01  1.1351689934617D+00  1.4963868499246D-01
82  8.1000000000000D-01  1.1175120009801D+00  1.6762703595083D-01
83  8.2000000000000D-01  1.0990136153830D+00  1.8656505318769D-01
84  8.3000000000000D-01  1.0796972909844D+00  2.0647545899470D-01
85  8.4000000000000D-01  1.0595880890999D+00  2.2737755805394D-01
86  8.5000000000000D-01  1.0387126340444D+00  2.4928697194125D-01
87  8.6000000000000D-01  1.0170990621457D+00  2.7221538747933D-01
88  8.7000000000000D-01  9.9477696400862D-01  2.9617032019847D-01
89  8.8000000000000D-01  9.7177732033813D-01  3.2115489402414D-01
90  8.9000000000000D-01  9.4813243168706D-01  3.4716763816689D-01
91  9.0000000000000D-01  9.2387584256341D-01  3.7420230204149D-01
92  9.1000000000000D-01  8.9904226038991D-01  4.0224768889304D-01
93  9.2000000000000D-01  8.7366746986824D-01  4.3128750865841D-01
94  9.3000000000000D-01  8.4778824335410D-01  4.6130025044608D-01
95  9.4000000000000D-01  8.2144224789900D-01  4.9225907487836D-01
96  9.5000000000000D-01  7.9466794965832D-01  5.2413172640822D-01
97  9.6000000000000D-01  7.6750451640272D-01  5.5688046560473D-01
98  9.7000000000000D-01  7.3999171889932D-01  5.9046202129505D-01
99  9.8000000000000D-01  7.1216983195167D-01  6.2482756236146D-01
100  9.9000000000000D-01  6.8407953589911D-01  6.5992268892261D-01
101  1.0000000000000D+00  6.5576181937982D-01  6.9568744257902D-01
102  1.0100000000000D+00  6.2725788415397D-01  7.3205633537705D-01
103  1.0200000000000D+00  5.9860905276477D-01  7.6895839714520D-01
104  1.0300000000000D+00  5.6985667978411D-01  8.0631724088477D-01
105  1.0400000000000D+00  5.4104206735061D-01  8.4405114594487D-01
106  1.0500000000000D+00  5.1220638564925D-01  8.8207315880111D-01
107  1.0600000000000D+00  4.8339059891801D-01  9.2029121136393D-01
108  1.0700000000000D+00  4.5463539748780D-01  9.5860825688179D-01
109  1.0800000000000D+00  4.2598113626362D-01  9.9692242368527D-01
110  1.0900000000000D+00  3.9746777996747D-01  1.0351271871820D+00
111  1.1000000000000D+00  3.6913485533042D-01  1.0731115607662D+00
112  1.1100000000000D+00  3.4102141030693D-01  1.1107603065260D+00
113  1.1200000000000D+00  3.1316598024050D-01  1.1479541669077D+00
114  1.1300000000000D+00  2.8560656077296D-01  1.1845701187557D+00
115  1.1400000000000D+00  2.5838058713959D-01  1.2204816514303D+00
116  1.1500000000000D+00  2.3152491931977D-01  1.2555590710208D+00
117  1.1600000000000D+00  2.0507583235408D-01  1.2896698329517D+00
118  1.1700000000000D+00  1.7906901098981D-01  1.3226789055289D+00
119  1.1800000000000D+00  1.5353954763901D-01  1.3544491672691D+00
120  1.1900000000000D+00  1.2852194246190D-01  1.3848418411022D+00
121  1.2000000000000D+00  1.0405010422487D-01  1.4137169687200D+00
122  1.2100000000000D+00  8.0157350490350D-02  1.4409339284765D+00
123  1.2200000000000D+00  5.6876405466213D-02  1.4663520004364D+00
124  1.2300000000000D+00  3.4239393770436D-02  1.4898309820988D+00
125  1.2400000000000D+00  1.2277828273246D-02  1.5112318583263D+00
126  1.2500000000000D+00 -8.9774099524531D-03  1.5304175289406D+00
127  1.2600000000000D+00 -2.9496101578279D-02  1.5472535970204D+00
128  1.2700000000000D+00 -4.9248730876850D-02  1.5616092206707D+00
129  1.2800000000000D+00 -6.8206541562890D-02  1.5733580307493D+00
130  1.2900000000000D+00 -8.6341608568613D-02  1.5823791157885D+00
131  1.3000000000000D+00 -1.0362692764686D-01  1.5885580750013D+00
132  1.3100000000000D+00 -1.2003652466757D-01  1.5917881395510D+00
133  1.3200000000000D+00 -1.3554558601091D-01  1.5919713596268D+00
134  1.3300000000000D+00 -1.5013061151401D-01  1.5890198551907D+00
135  1.3400000000000D+00 -1.6376959108642D-01  1.5828571260576D+00
136  1.3500000000000D+00 -1.7644220517935D-01  1.5734194126578D+00
137  1.3600000000000D+00 -1.8813004992717D-01  1.5606571016938D+00
138  1.3700000000000D+00 -1.9881688617964D-01  1.5445361632147D+00
139  1.3800000000000D+00 -2.0848891113284D-01  1.5250396037532D+00
140  1.3900000000000D+00 -2.1713505194174D-01  1.5021689227031D+00
141  1.4000000000000D+00 -2.2474727723731D-01  1.4759455442752D+00
142  1.4100000000000D+00 -2.3132092430563D-01  1.4464122053202D+00
143  1.4200000000000D+00 -2.3685503729383D-01  1.4136342688440D+00
144  1.4300000000000D+00 -2.4135270913699D-01  1.3777009224956D+00
145  1.4400000000000D+00 -2.4482142355933D-01  1.3387262358418D+00
146  1.4500000000000D+00 -2.4727338457823D-01  1.2968500142558D+00
147  1.4600000000000D+00 -2.4872582720959D-01  1.2522384125515D+00
148  1.4700000000000D+00 -2.4920129591402D-01  1.2050842425900D+00
149  1.4800000000000D+00 -2.4872787595926D-01  1.1556069042342D+00
150  1.4900000000000D+00 -2.4733936722215D-01  1.1040518855245D+00
151  1.5000000000000D+00 -2.4507537340187D-01  1.0506897138068D+00
152  1.5100000000000D+00 -2.4198129877687D-01  9.9581431369408D-01
153  1.5200000000000D+00 -2.3810821668119D-01  9.3974061960259D-01
154  1.5300000000000D+00 -2.3351259502833D-01  8.8280137236528D-01
155  1.5400000000000D+00 -2.2825584342367D-01  8.2534294918402D-01
156  1.5500000000000D+00 -2.2240365164035D-01  7.6772009667686D-01
157  1.5600000000000D+00 -2.1602507410441D-01  7.1028932971618D-01
158  1.5700000000000D+00 -2.0919140972410D-01  6.5340150252054D-01
159  1.5800000000000D+00 -2.0197443194113D-01  5.9739050708871D-01
160  1.5900000000000D+00 -1.9444529572781D-01  5.4256730818684D-01
161  1.6000000000000D+00 -1.8667120759336D-01  4.8920009990207D-01
162  1.6100000000000D+00 -1.7871191334075D-01  4.3749257675662D-01
163  1.6200000000000D+00 -1.7062064678881D-01  3.8759767925994D-01
164  1.6300000000000D+00 -1.6244408299117D-01  3.3962375373603D-01
165  1.6400000000000D+00 -1.5422525294163D-01  2.9365700451041D-01
166  1.6500000000000D+00 -1.4600627115502D-01  2.4978334880219D-01
167  1.6600000000000D+00 -1.3782690597425D-01  2.0807830149980D-01
168  1.6700000000000D+00 -1.2972432211666D-01  1.6860500324923D-01
169  1.6800000000000D+00 -1.2173332872018D-01  1.3141692497816D-01
170  1.6900000000000D+00 -1.1388613361978D-01  9.6556330902848D-02
171  1.7000000000000D+00 -1.0621233628738D-01  6.4054595271436D-02
172  1.7100000000000D+00 -9.8738861218113D-02  3.3932002597090D-02
173  1.7200000000000D+00 -9.1489920949003D-02  6.1977174637545D-03
174  1.7300000000000D+00 -8.4486994414830D-02 -1.9150183924133D-02
175  1.7400000000000D+00 -7.7748821694736D-02 -4.2124615931045D-02
176  1.7500000000000D+00 -7.1291413915357D-02 -6.2749324709724D-02
177  1.7600000000000D+00 -6.5128079480365D-02 -8.1058663449460D-02
178  1.7700000000000D+00 -5.9269464853043D-02 -9.7097309228537D-02
179  1.7800000000000D+00 -5.3723611261282D-02 -1.1091991564576D-01
180  1.7900000000000D+00 -4.8496024964692D-02 -1.2259071127393D-01
181  1.8000000000000D+00 -4.3589762611954D-02 -1.3218303746936D-01
182  1.8100000000000D+00 -3.9005529008010D-02 -1.3977883690445D-01
183  1.8200000000000D+00 -3.4741788504109D-02 -1.4546808772384D-01
184  1.8300000000000D+00 -3.0794887588796D-02 -1.4934819356775D-01
185  1.8400000000000D+00 -2.7159189133923D-02 -1.5152332759170D-01
186  1.8500000000000D+00 -2.3827216450992D-02 -1.5210373827249D-01
187  1.8600000000000D+00 -2.0789806706305D-02 -1.5120501895242D-01
188  1.8700000000000D+00 -1.8036272505066D-02 -1.4894734615978D-01
189  1.8800000000000D+00 -1.5554570363516D-02 -1.4545469212520D-01
190  1.8900000000000D+00 -1.3331475423041D-02 -1.4085401425227D-01
191  1.9000000000000D+00 -1.1352760601244D-02 -1.3527442912989D-01
192  1.9100000000000D+00 -9.6033795644535D-03 -1.2884637383751D-01
193  1.9200000000000D+00 -8.0676518175266D-03 -1.2170076163527D-01
194  1.9300000000000D+00 -6.7294491178595D-03 -1.1396813533260D-01
195  1.9400000000000D+00 -5.5723818261573D-03 -1.0577782425868D-01
196  1.9500000000000D+00 -4.5799837488542D-03 -9.7257111022081D-02
197  1.9600000000000D+00 -3.7358944955209D-03 -8.8530412121688D-02
198  1.9700000000000D+00 -3.0240382167202D-03 -7.9718477164644D-02
199  1.9800000000000D+00 -2.4287967963159D-03 -7.0937614942798D-02
200  1.9900000000000D+00 -1.9351777333430D-03 -6.2298945315260D-02
201  2.0000000000000D+00 -1.5289740623361D-03 -5.3907687823027D-02
202  2.0100000000000D+00 -1.1969170036031D-03 -4.5862484345353D-02
203  2.0200000000000D+00 -9.2681862747223D-04 -3.8254767309316D-02
204  2.0300000000000D+00 -7.0770426970892D-04 -3.1168174502392D-02
205  2.0400000000000D+00 -5.2993482427080D-04 -2.4678009853995D-02
206  2.0500000000000D+00 -3.8541246075768D-04 -1.8855500045433D-02
207  2.0600000000000D+00 -2.6729399086677D-04 -1.3748594924797D-02
208  2.0700000000000D+00 -1.7047336288323D-04 -9.3910395648005D-03
209  2.0800000000000D+00 -9.1792851865833D-05 -5.8319557438586D-03
210  2.0900000000000D+00 -3.0004428974364D-05 -3.1601807175543D-03
211  2.1000000000000D+00  1.5928542481687D-05 -1.4218980987044D-03
212  2.1100000000000D+00  4.1821119683779D-05 -4.5840586261201D-04
213  2.1200000000000D+00  4.3997790389928D-05 -4.2879652562052D-05
214  2.1300000000000D+00  2.5913426344484D-05  5.6406567379945D-05
215  2.1400000000000D+00  3.8125125622258D-06  1.3221114133148D-05
216  2.1500000000000D+00 -5.6825548624807D-06 -2.3967141164306D-05
217  2.1600000000000D+00 -4.3379817613532D-06 -2.0776600540269D-05
218  2.1700000000000D+00  4.3166841510476D-07  1.2805779546350D-06
219  2.1800000000000D+00  1.3121714727470D-06  4.2878998193395D-06
220  2.1900000000000D+00  5.2297165046835D-07  1.8339476906081D-06
221  2.2000000000000D+00 -9.7716805330045D-08  2.9116422235832D-07
222  2.2100000000000D+00 -1.2005984128675D-07  3.5773918525734D-07
223  2.2200000000000D+00 -1.2731134423119D-09  3.7934629990477D-09
224  2.2300000000000D+00  0.0000000000000D+00  0.0000000000000D+00
225  2.2400000000000D+00  0.0000000000000D+00  0.0000000000000D+00
226  2.2500000000000D+00  0.0000000000000D+00  0.0000000000000D+00
227  2.2600000000000D+00  0.0000000000000D+00  0.0000000000000D+00
228  2.2700000000000D+00  0.0000000000000D+00  0.0000000000000D+00
229  2.2800000000000D+00  0.0000000000000D+00  0.0000000000000D+00
230  2.2900000000000D+00  0.0000000000000D+00  0.0000000000000D+00
231  2.3000000000000D+00  0.0000000000000D+00  0.0000000000000D+00
232  2.3100000000000D+00  0.0000000000000D+00  0.0000000000000D+00
233  2.3200000000000D+00  0.0000000000000D+00  0.0000000000000D+00
234  2.3300000000000D+00  0.0000000000000D+00  0.0000000000000D+00
235  2.3400000000000D+00  0.0000000000000D+00  0.0000000000000D+00
236  2.3500000000000D+00  0.0000000000000D+00  0.0000000000000D+00
237  2.3600000000000D+00  0.0000000000000D+00  0.0000000000000D+00
238  2.3700000000000D+00  0.0000000000000D+00  0.0000000000000D+00
239  2.3800000000000D+00  0.0000000000000D+00  0.0000000000000D+00
240  2.3900000000000D+00  0.0000000000000D+00  0.0000000000000D+00
241  2.4000000000000D+00  0.0000000000000D+00  0.0000000000000D+00
242  2.4100000000000D+00  0.0000000000000D+00  0.0000000000000D+00
243  2.4200000000000D+00  0.0000000000000D+00  0.0000000000000D+00
244  2.4300000000000D+00  0.0000000000000D+00  0.0000000000000D+00
245  2.4400000000000D+00  0.0000000000000D+00  0.0000000000000D+00
246  2.4500000000000D+00  0.0000000000000D+00  0.0000000000000D+00
247  2.4600000000000D+00  0.0000000000000D+00  0.0000000000000D+00
248  2.4700000000000D+00  0.0000000000000D+00  0.0000000000000D+00
249  2.4800000000000D+00  0.0000000000000D+00  0.0000000000000D+00
250  2.4900000000000D+00  0.0000000000000D+00  0.0000000000000D+00
251  2.5000000000000D+00  0.0000000000000D+00  0.0000000000000D+00
252  2.5100000000000D+00  0.0000000000000D+00  0.0000000000000D+00
253  2.5200000000000D+00  0.0000000000000D+00  0.0000000000000D+00
254  2.5300000000000D+00  0.0000000000000D+00  0.0000000000000D+00
255  2.5400000000000D+00  0.0000000000000D+00  0.0000000000000D+00
256  2.5500000000000D+00  0.0000000000000D+00  0.0000000000000D+00
257  2.5600000000000D+00  0.0000000000000D+00  0.0000000000000D+00
258  2.5700000000000D+00  0.0000000000000D+00  0.0000000000000D+00
259  2.5800000000000D+00  0.0000000000000D+00  0.0000000000000D+00
260  2.5900000000000D+00  0.0000000000000D+00  0.0000000000000D+00
261  2.6000000000000D+00  0.0000000000000D+00  0.0000000000000D+00
262  2.6100000000000D+00  0.0000000000000D+00  0.0000000000000D+00
263  2.6200000000000D+00  0.0000000000000D+00  0.0000000000000D+00
264  2.6300000000000D+00  0.0000000000000D+00  0.0000000000000D+00
265  2.6400000000000D+00  0.0000000000000D+00  0.0000000000000D+00
266  2.6500000000000D+00  0.0000000000000D+00  0.0000000000000D+00
267  2.6600000000000D+00  0.0000000000000D+00  0.0000000000000D+00
268  2.6700000000000D+00  0.0000000000000D+00  0.0000000000000D+00
269  2.6800000000000D+00  0.0000000000000D+00  0.0000000000000D+00
270  2.6900000000000D+00  0.0000000000000D+00  0.0000000000000D+00
271  2.7000000000000D+00  0.0000000000000D+00  0.0000000000000D+00
272  2.7100000000000D+00  0.0000000000000D+00  0.0000000000000D+00
273  2.7200000000000D+00  0.0000000000000D+00  0.0000000000000D+00
274  2.7300000000000D+00  0.0000000000000D+00  0.0000000000000D+00
275  2.7400000000000D+00  0.0000000000000D+00  0.0000000000000D+00
276  2.7500000000000D+00  0.0000000000000D+00  0.0000000000000D+00
277  2.7600000000000D+00  0.0000000000000D+00  0.0000000000000D+00
278  2.7700000000000D+00  0.0000000000000D+00  0.0000000000000D+00
279  2.7800000000000D+00  0.0000000000000D+00  0.0000000000000D+00
280  2.7900000000000D+00  0.0000000000000D+00  0.0000000000000D+00
281  2.8000000000000D+00  0.0000000000000D+00  0.0000000000000D+00
282  2.8100000000000D+00  0.0000000000000D+00  0.0000000000000D+00
283  2.8200000000000D+00  0.0000000000000D+00  0.0000000000000D+00
284  2.8300000000000D+00  0.0000000000000D+00  0.0000000000000D+00
285  2.8400000000000D+00  0.0000000000000D+00  0.0000000000000D+00
286  2.8500000000000D+00  0.0000000000000D+00  0.0000000000000D+00
287  2.8600000000000D+00  0.0000000000000D+00  0.0000000000000D+00
288  2.8700000000000D+00  0.0000000000000D+00  0.0000000000000D+00
289  2.8800000000000D+00  0.0000000000000D+00  0.0000000000000D+00
290  2.8900000000000D+00  0.0000000000000D+00  0.0000000000000D+00
291  2.9000000000000D+00  0.0000000000000D+00  0.0000000000000D+00
292  2.9100000000000D+00  0.0000000000000D+00  0.0000000000000D+00
293  2.9200000000000D+00  0.0000000000000D+00  0.0000000000000D+00
294  2.9300000000000D+00  0.0000000000000D+00  0.0000000000000D+00
295  2.9400000000000D+00  0.0000000000000D+00  0.0000000000000D+00
296  2.9500000000000D+00  0.0000000000000D+00  0.0000000000000D+00
297  2.9600000000000D+00  0.0000000000000D+00  0.0000000000000D+00
298  2.9700000000000D+00  0.0000000000000D+00  0.0000000000000D+00
299  2.9800000000000D+00  0.0000000000000D+00  0.0000000000000D+00
300  2.9900000000000D+00  0.0000000000000D+00  0.0000000000000D+00
301  3.0000000000000D+00  0.0000000000000D+00  0.0000000000000D+00
302  3.0100000000000D+00  0.0000000000000D+00  0.0000000000000D+00
303  3.0200000000000D+00  0.0000000000000D+00  0.0000000000000D+00
304  3.0300000000000D+00  0.0000000000000D+00  0.0000000000000D+00
305  3.0400000000000D+00  0.0000000000000D+00  0.0000000000000D+00
306  3.0500000000000D+00  0.0000000000000D+00  0.0000000000000D+00
307  3.0600000000000D+00  0.0000000000000D+00  0.0000000000000D+00
308  3.0700000000000D+00  0.0000000000000D+00  0.0000000000000D+00
309  3.0800000000000D+00  0.0000000000000D+00  0.0000000000000D+00
310  3.0900000000000D+00  0.0000000000000D+00  0.0000000000000D+00
311  3.1000000000000D+00  0.0000000000000D+00  0.0000000000000D+00
312  3.1100000000000D+00  0.0000000000000D+00  0.0000000000000D+00
313  3.1200000000000D+00  0.0000000000000D+00  0.0000000000000D+00
314  3.1300000000000D+00  0.0000000000000D+00  0.0000000000000D+00
315  3.1400000000000D+00  0.0000000000000D+00  0.0000000000000D+00
316  3.1500000000000D+00  0.0000000000000D+00  0.0000000000000D+00
317  3.1600000000000D+00  0.0000000000000D+00  0.0000000000000D+00
318  3.1700000000000D+00  0.0000000000000D+00  0.0000000000000D+00
319  3.1800000000000D+00  0.0000000000000D+00  0.0000000000000D+00
320  3.1900000000000D+00  0.0000000000000D+00  0.0000000000000D+00
321  3.2000000000000D+00  0.0000000000000D+00  0.0000000000000D+00
322  3.2100000000000D+00  0.0000000000000D+00  0.0000000000000D+00
323  3.2200000000000D+00  0.0000000000000D+00  0.0000000000000D+00
324  3.2300000000000D+00  0.0000000000000D+00  0.0000000000000D+00
325  3.2400000000000D+00  0.0000000000000D+00  0.0000000000000D+00
326  3.2500000000000D+00  0.0000000000000D+00  0.0000000000000D+00
327  3.2600000000000D+00  0.0000000000000D+00  0.0000000000000D+00
328  3.2700000000000D+00  0.0000000000000D+00  0.0000000000000D+00
329  3.2800000000000D+00  0.0000000000000D+00  0.0000000000000D+00
330  3.2900000000000D+00  0.0000000000000D+00  0.0000000000000D+00
331  3.3000000000000D+00  0.0000000000000D+00  0.0000000000000D+00
332  3.3100000000000D+00  0.0000000000000D+00  0.0000000000000D+00
333  3.3200000000000D+00  0.0000000000000D+00  0.0000000000000D+00
334  3.3300000000000D+00  0.0000000000000D+00  0.0000000000000D+00
335  3.3400000000000D+00  0.0000000000000D+00  0.0000000000000D+00
336  3.3500000000000D+00  0.0000000000000D+00  0.0000000000000D+00
337  3.3600000000000D+00  0.0000000000000D+00  0.0000000000000D+00
338  3.3700000000000D+00  0.0000000000000D+00  0.0000000000000D+00
339  3.3800000000000D+00  0.0000000000000D+00  0.0000000000000D+00
340  3.3900000000000D+00  0.0000000000000D+00  0.0000000000000D+00
341  3.4000000000000D+00  0.0000000000000D+00  0.0000000000000D+00
342  3.4100000000000D+00  0.0000000000000D+00  0.0000000000000D+00
343  3.4200000000000D+00  0.0000000000000D+00  0.0000000000000D+00
344  3.4300000000000D+00  0.0000000000000D+00  0.0000000000000D+00
345  3.4400000000000D+00  0.0000000000000D+00  0.0000000000000D+00
346  3.4500000000000D+00  0.0000000000000D+00  0.0000000000000D+00
347  3.4600000000000D+00  0.0000000000000D+00  0.0000000000000D+00
348  3.4700000000000D+00  0.0000000000000D+00  0.0000000000000D+00
349  3.4800000000000D+00  0.0000000000000D+00  0.0000000000000D+00
350  3.4900000000000D+00  0.0000000000000D+00  0.0000000000000D+00
351  3.5000000000000D+00  0.0000000000000D+00  0.0000000000000D+00
352  3.5100000000000D+00  0.0000000000000D+00  0.0000000000000D+00
353  3.5200000000000D+00  0.0000000000000D+00  0.0000000000000D+00
354  3.5300000000000D+00  0.0000000000000D+00  0.0000000000000D+00
355  3.5400000000000D+00  0.0000000000000D+00  0.0000000000000D+00
356  3.5500000000000D+00  0.0000000000000D+00  0.0000000000000D+00
357  3.5600000000000D+00  0.0000000000000D+00  0.0000000000000D+00
358  3.5700000000000D+00  0.0000000000000D+00  0.0000000000000D+00
359  3.5800000000000D+00  0.0000000000000D+00  0.0000000000000D+00
360  3.5900000000000D+00  0.0000000000000D+00  0.0000000000000D+00
361  3.6000000000000D+00  0.0000000000000D+00  0.0000000000000D+00
362  3.6100000000000D+00  0.0000000000000D+00  0.0000000000000D+00
363  3.6200000000000D+00  0.0000000000000D+00  0.0000000000000D+00
364  3.6300000000000D+00  0.0000000000000D+00  0.0000000000000D+00
365  3.6400000000000D+00  0.0000000000000D+00  0.0000000000000D+00
366  3.6500000000000D+00  0.0000000000000D+00  0.0000000000000D+00
367  3.6600000000000D+00  0.0000000000000D+00  0.0000000000000D+00
368  3.6700000000000D+00  0.0000000000000D+00  0.0000000000000D+00
369  3.6800000000000D+00  0.0000000000000D+00  0.0000000000000D+00
370  3.6900000000000D+00  0.0000000000000D+00  0.0000000000000D+00
371  3.7000000000000D+00  0.0000000000000D+00  0.0000000000000D+00
372  3.7100000000000D+00  0.0000000000000D+00  0.0000000000000D+00
373  3.7200000000000D+00  0.0000000000000D+00  0.0000000000000D+00
374  3.7300000000000D+00  0.0000000000000D+00  0.0000000000000D+00
375  3.7400000000000D+00  0.0000000000000D+00  0.0000000000000D+00
376  3.7500000000000D+00  0.0000000000000D+00  0.0000000000000D+00
377  3.7600000000000D+00  0.0000000000000D+00  0.0000000000000D+00
378  3.7700000000000D+00  0.0000000000000D+00  0.0000000000000D+00
379  3.7800000000000D+00  0.0000000000000D+00  0.0000000000000D+00
380  3.7900000000000D+00  0.0000000000000D+00  0.0000000000000D+00
381  3.8000000000000D+00  0.0000000000000D+00  0.0000000000000D+00
382  3.8100000000000D+00  0.0000000000000D+00  0.0000000000000D+00
383  3.8200000000000D+00  0.0000000000000D+00  0.0000000000000D+00
384  3.8300000000000D+00  0.0000000000000D+00  0.0000000000000D+00
385  3.8400000000000D+00  0.0000000000000D+00  0.0000000000000D+00
386  3.8500000000000D+00  0.0000000000000D+00  0.0000000000000D+00
387  3.8600000000000D+00  0.0000000000000D+00  0.0000000000000D+00
388  3.8700000000000D+00  0.0000000000000D+00  0.0000000000000D+00
389  3.8800000000000D+00  0.0000000000000D+00  0.0000000000000D+00
390  3.8900000000000D+00  0.0000000000000D+00  0.0000000000000D+00
391  3.9000000000000D+00  0.0000000000000D+00  0.0000000000000D+00
392  3.9100000000000D+00  0.0000000000000D+00  0.0000000000000D+00
393  3.9200000000000D+00  0.0000000000000D+00  0.0000000000000D+00
394  3.9300000000000D+00  0.0000000000000D+00  0.0000000000000D+00
395  3.9400000000000D+00  0.0000000000000D+00  0.0000000000000D+00
396  3.9500000000000D+00  0.0000000000000D+00  0.0000000000000D+00
397  3.9600000000000D+00  0.0000000000000D+00  0.0000000000000D+00
398  3.9700000000000D+00  0.0000000000000D+00  0.0000000000000D+00
399  3.9800000000000D+00  0.0000000000000D+00  0.0000000000000D+00
400  3.9900000000000D+00  0.0000000000000D+00  0.0000000000000D+00
401  4.0000000000000D+00  0.0000000000000D+00  0.0000000000000D+00
402  4.0100000000000D+00  0.0000000000000D+00  0.0000000000000D+00
403  4.0200000000000D+00  0.0000000000000D+00  0.0000000000000D+00
404  4.0300000000000D+00  0.0000000000000D+00  0.0000000000000D+00
405  4.0400000000000D+00  0.0000000000000D+00  0.0000000000000D+00
406  4.0500000000000D+00  0.0000000000000D+00  0.0000000000000D+00
407  4.0600000000000D+00  0.0000000000000D+00  0.0000000000000D+00
408  4.0700000000000D+00  0.0000000000000D+00  0.0000000000000D+00
409  4.0800000000000D+00  0.0000000000000D+00  0.0000000000000D+00
410  4.0900000000000D+00  0.0000000000000D+00  0.0000000000000D+00
411  4.1000000000000D+00  0.0000000000000D+00  0.0000000000000D+00
412  4.1100000000000D+00  0.0000000000000D+00  0.0000000000000D+00
413  4.1200000000000D+00  0.0000000000000D+00  0.0000000000000D+00
414  4.1300000000000D+00  0.0000000000000D+00  0.0000000000000D+00
415  4.1400000000000D+00  0.0000000000000D+00  0.0000000000000D+00
416  4.1500000000000D+00  0.0000000000000D+00  0.0000000000000D+00
417  4.1600000000000D+00  0.0000000000000D+00  0.0000000000000D+00
418  4.1700000000000D+00  0.0000000000000D+00  0.0000000000000D+00
419  4.1800000000000D+00  0.0000000000000D+00  0.0000000000000D+00
420  4.1900000000000D+00  0.0000000000000D+00  0.0000000000000D+00
421  4.2000000000000D+00  0.0000000000000D+00  0.0000000000000D+00
422  4.2100000000000D+00  0.0000000000000D+00  0.0000000000000D+00
423  4.2200000000000D+00  0.0000000000000D+00  0.0000000000000D+00
424  4.2300000000000D+00  0.0000000000000D+00  0.0000000000000D+00
425  4.2400000000000D+00  0.0000000000000D+00  0.0000000000000D+00
426  4.2500000000000D+00  0.0000000000000D+00  0.0000000000000D+00
427  4.2600000000000D+00  0.0000000000000D+00  0.0000000000000D+00
428  4.2700000000000D+00  0.0000000000000D+00  0.0000000000000D+00
429  4.2800000000000D+00  0.0000000000000D+00  0.0000000000000D+00
430  4.2900000000000D+00  0.0000000000000D+00  0.0000000000000D+00
431  4.3000000000000D+00  0.0000000000000D+00  0.0000000000000D+00
432  4.3100000000000D+00  0.0000000000000D+00  0.0000000000000D+00
433  4.3200000000000D+00  0.0000000000000D+00  0.0000000000000D+00
434  4.3300000000000D+00  0.0000000000000D+00  0.0000000000000D+00
435  4.3400000000000D+00  0.0000000000000D+00  0.0000000000000D+00
436  4.3500000000000D+00  0.0000000000000D+00  0.0000000000000D+00
437  4.3600000000000D+00  0.0000000000000D+00  0.0000000000000D+00
438  4.3700000000000D+00  0.0000000000000D+00  0.0000000000000D+00
439  4.3800000000000D+00  0.0000000000000D+00  0.0000000000000D+00
440  4.3900000000000D+00  0.0000000000000D+00  0.0000000000000D+00
441  4.4000000000000D+00  0.0000000000000D+00  0.0000000000000D+00
442  4.4100000000000D+00  0.0000000000000D+00  0.0000000000000D+00
443  4.4200000000000D+00  0.0000000000000D+00  0.0000000000000D+00