Hg    ONCVPSP  r_core=  1.60  1.60  1.46  1.60
80.0000     20.0000      161209    zatom,zion,pspd
8 -116133   3     4   600     0    pspcod,pspxc,lmax,lloc,mmax,r2well
5.99000000  5.00000000  0.00000000    rchrg fchrg qchrg
2     2     2     1     0    nproj
1                 extension_switch
0                         1.3759688496379D+01  1.9156521548832D+00
1  0.0000000000000D+00 -4.1509096160297D-10  7.9057162205576D-10
2  1.0000000000000D-02  7.6560090507029D-02 -1.0560780852670D-02
3  2.0000000000000D-02  1.5290615707112D-01 -2.0945035889757D-02
4  3.0000000000000D-02  2.2882524265036D-01 -3.0977827266224D-02
5  4.0000000000000D-02  3.0410651449784D-01 -4.0487375631677D-02
6  5.0000000000000D-02  3.7854230264849D-01 -4.9306595964980D-02
7  6.0000000000000D-02  4.5192911031075D-01 -5.7274581880680D-02
8  7.0000000000000D-02  5.2406858729077D-01 -6.4238022169594D-02
9  8.0000000000000D-02  5.9476845799193D-01 -7.0052534126412D-02
10  9.0000000000000D-02  6.6384339604239D-01 -7.4583899188731D-02
11  1.0000000000000D-01  7.3111583820243D-01 -7.7709187553095D-02
12  1.1000000000000D-01  7.9641673088505D-01 -7.9317759731659D-02
13  1.2000000000000D-01  8.5958620337887D-01 -7.9312134453380D-02
14  1.3000000000000D-01  9.2047416268451D-01 -7.7608713879423D-02
15  1.4000000000000D-01  9.7894080575392D-01 -7.4138358776257D-02
16  1.5000000000000D-01  1.0348570458469D+00 -6.8846808052262D-02
17  1.6000000000000D-01  1.0881048506799D+00 -6.1694938894453D-02
18  1.7000000000000D-01  1.1385774910270D+00 -5.2658865620011D-02
19  1.8000000000000D-01  1.1861796994322D+00 -4.1729877260850D-02
20  1.9000000000000D-01  1.2308277396921D+00 -2.8914215806317D-02
21  2.0000000000000D-01  1.2724493887574D+00 -1.4232698917122D-02
22  2.1000000000000D-01  1.3109838336713D+00  2.2798072298725D-03
23  2.2000000000000D-01  1.3463814870976D+00  2.0575057522863D-02
24  2.3000000000000D-01  1.3786037258811D+00  4.0592230780196D-02
25  2.4000000000000D-01  1.4076225579190D+00  6.2258855163304D-02
26  2.5000000000000D-01  1.4334202233942D+00  8.5491843932112D-02
27  2.6000000000000D-01  1.4559887371130D+00  1.1019862801057D-01
28  2.7000000000000D-01  1.4753293793052D+00  1.3627837066270D-01
29  2.8000000000000D-01  1.4914521427651D+00  1.6362324858628D-01
30  2.9000000000000D-01  1.5043751446327D+00  1.9211978292532D-01
31  3.0000000000000D-01  1.5141240114374D+00  2.2165020309515D-01
32  3.1000000000000D-01  1.5207312462337D+00  2.5209382591320D-01
33  3.2000000000000D-01  1.5242355867639D+00  2.8332843234166D-01
34  3.3000000000000D-01  1.5246813635641D+00  3.1523162417886D-01
35  3.4000000000000D-01  1.5221178668075D+00  3.4768214328524D-01
36  3.5000000000000D-01  1.5165987304366D+00  3.8056113639746D-01
37  3.6000000000000D-01  1.5081813417861D+00  4.1375334926529D-01
38  3.7000000000000D-01  1.4969262844395D+00  4.4714823473534D-01
39  3.8000000000000D-01  1.4828968215026D+00  4.8064096049358D-01
40  3.9000000000000D-01  1.4661584258182D+00  5.1413330345520D-01
41  4.0000000000000D-01  1.4467783629003D+00  5.4753441923932D-01
42  4.1000000000000D-01  1.4248253315407D+00  5.8076147677508D-01
43  4.2000000000000D-01  1.4003691661399D+00  6.1374014983279D-01
44  4.3000000000000D-01  1.3734806038579D+00  6.4640495914246D-01
45  4.4000000000000D-01  1.3442311186740D+00  6.7869946072795D-01
46  4.5000000000000D-01  1.3126928233985D+00  7.1057627812702D-01
47  4.6000000000000D-01  1.2789384396158D+00  7.4199697825943D-01
48  4.7000000000000D-01  1.2430413344580D+00  7.7293179282330D-01
49  4.8000000000000D-01  1.2050756220368D+00  8.0335918921703D-01
50  4.9000000000000D-01  1.1651163263054D+00  8.3326529707405D-01
51  5.0000000000000D-01  1.1232396010951D+00  8.6264319853447D-01
52  5.1000000000000D-01  1.0795230020974D+00  8.9149209233445D-01
53  5.2000000000000D-01  1.0340458046342D+00  9.1981634364528D-01
54  5.3000000000000D-01  9.8688936021658D-01  9.4762443331673D-01
55  5.4000000000000D-01  9.3813748412315D-01  9.7492782174499D-01
56  5.5000000000000D-01  8.8787686555854D-01  1.0017397439799D+00
57  5.6000000000000D-01  8.3619749138925D-01  1.0280739538803D+00
58  5.7000000000000D-01  7.8319307400254D-01  1.0539434361103D+00
59  5.8000000000000D-01  7.2896147350642D-01  1.0793591055200D+00
60  5.9000000000000D-01  6.7360510429067D-01  1.1043285139652D+00
61  6.0000000000000D-01  6.1723131590447D-01  1.1288545848763D+00
62  6.1000000000000D-01  5.5995273827938D-01  1.1529343958810D+00
63  6.2000000000000D-01  5.0188758154014D-01  1.1765580295172D+00
64  6.3000000000000D-01  4.4315988099802D-01  1.1997075115352D+00
65  6.4000000000000D-01  3.8389967841116D-01  1.2223558554904D+00
66  6.5000000000000D-01  3.2424313122312D-01  1.2444662312651D+00
67  6.6000000000000D-01  2.6433254224313D-01  1.2659912738545D+00
68  6.7000000000000D-01  2.0431630310753D-01  1.2868725472055D+00
69  6.8000000000000D-01  1.4434874585315D-01  1.3070401761259D+00
70  6.9000000000000D-01  8.4589898026328D-02  1.3264126573092D+00
71  7.0000000000000D-01  2.5205137930908D-02  1.3448968583768D+00
72  7.1000000000000D-01 -3.3635252112301D-02  1.3623882115083D+00
73  7.2000000000000D-01 -9.1756635300671D-02  1.3787711057990D+00
74  7.3000000000000D-01 -1.4898067210990D-01  1.3939194799270D+00
75  7.4000000000000D-01 -2.0512607230157D-01  1.4076976140865D+00
76  7.5000000000000D-01 -2.6000944378615D-01  1.4199611174886D+00
77  7.6000000000000D-01 -3.1344623352325D-01  1.4305581050406D+00
78  7.7000000000000D-01 -3.6525175425204D-01  1.4393305541713D+00
79  7.8000000000000D-01 -4.1524228948506D-01  1.4461158301784D+00
80  7.9000000000000D-01 -4.6323626790081D-01  1.4507483659642D+00
81  8.0000000000000D-01 -5.0905549704653D-01  1.4530614796580D+00
82  8.1000000000000D-01 -5.5252644513162D-01  1.4528893113950D+00
83  8.2000000000000D-01 -5.9348155866971D-01  1.4500688584947D+00
84  8.3000000000000D-01 -6.3176060282902D-01  1.4444420864644D+00
85  8.4000000000000D-01 -6.6721201059059D-01  1.4358580916812D+00
86  8.5000000000000D-01 -6.9969422620409D-01  1.4241752903030D+00
87  8.6000000000000D-01 -7.2907702798351D-01  1.4092636069425D+00
88  8.7000000000000D-01 -7.5524281520776D-01  1.3910066359342D+00
89  8.8000000000000D-01 -7.7808784379238D-01  1.3693037476350D+00
90  8.9000000000000D-01 -7.9752339548336D-01  1.3440721121499D+00
91  9.0000000000000D-01 -8.1347686559415D-01  1.3152486131579D+00
92  9.1000000000000D-01 -8.2589275476516D-01  1.2827916251468D+00
93  9.2000000000000D-01 -8.3473355086783D-01  1.2466826283304D+00
94  9.3000000000000D-01 -8.3998048799982D-01  1.2069276368316D+00
95  9.4000000000000D-01 -8.4163417051798D-01  1.1635584173419D+00
96  9.5000000000000D-01 -8.3971505122197D-01  1.1166334774100D+00
97  9.6000000000000D-01 -8.3426375412394D-01  1.0662388047454D+00
98  9.7000000000000D-01 -8.2534123370556D-01  1.0124883414258D+00
99  9.8000000000000D-01 -8.1302876415074D-01  9.5552417963375D-01
100  9.9000000000000D-01 -7.9742775378606D-01  8.9551646857610D-01
101  1.0000000000000D+00 -7.7865938166878D-01  8.3266302522588D-01
102  1.0100000000000D+00 -7.5686405524664D-01  7.6718864501221D-01
103  1.0200000000000D+00 -7.3220068986064D-01  6.9934411184968D-01
104  1.0300000000000D+00 -7.0484581284342D-01  6.2940491041414D-01
105  1.0400000000000D+00 -6.7499249691342D-01  5.5766964704328D-01
106  1.0500000000000D+00 -6.4284912957343D-01  4.8445818923681D-01
107  1.0600000000000D+00 -6.0863802697590D-01  4.1010953688198D-01
108  1.0700000000000D+00 -5.7259390273942D-01  3.3497944197879D-01
109  1.0800000000000D+00 -5.3496220385432D-01  2.5943779663837D-01
110  1.0900000000000D+00 -4.9599732747238D-01  1.8386581214525D-01
111  1.1000000000000D+00 -4.5596073397794D-01  1.0865301481110D-01
112  1.1100000000000D+00 -4.1511897289120D-01  3.4194086469352D-02
113  1.1200000000000D+00 -3.7374163965261D-01 -3.9114419757901D-02
114  1.1300000000000D+00 -3.3209928213612D-01 -1.1087745628408D-01
115  1.1400000000000D+00 -2.9046127664973D-01 -1.8070491659712D-01
116  1.1500000000000D+00 -2.4909369370105D-01 -2.4821509462851D-01
117  1.1600000000000D+00 -2.0825717432531D-01 -3.1303813200886D-01
118  1.1700000000000D+00 -1.6820483784079D-01 -3.7481941704881D-01
119  1.1800000000000D+00 -1.2918024170387D-01 -4.3322289950031D-01
120  1.1900000000000D+00 -9.1415414123655D-02 -4.8793428511008D-01
121  1.2000000000000D+00 -5.5128979264242D-02 -5.3866407529171D-01
122  1.2100000000000D+00 -2.0524394076868D-02 -5.8515041857122D-01
123  1.2200000000000D+00  1.2211685025290D-02 -6.2716174184340D-01
124  1.2300000000000D+00  4.2910888613766D-02 -6.6449913146518D-01
125  1.2400000000000D+00  7.1424458637208D-02 -6.9699843742124D-01
126  1.2500000000000D+00  9.7624396982578D-02 -7.2453207622394D-01
127  1.2600000000000D+00  1.2140442552456D-01 -7.4701051009271D-01
128  1.2700000000000D+00  1.4268074831294D-01 -7.6438338577367D-01
129  1.2800000000000D+00  1.6139260794484D-01 -7.7664031881990D-01
130  1.2900000000000D+00  1.7750262918850D-01 -7.8381131091864D-01
131  1.3000000000000D+00  1.9099694767885D-01 -7.8596679621662D-01
132  1.3100000000000D+00  2.0188512213601D-01 -7.8321731372011D-01
133  1.3200000000000D+00  2.1019983011052D-01 -7.7571280556395D-01
134  1.3300000000000D+00  2.1599635269423D-01 -7.6364155056046D-01
135  1.3400000000000D+00  2.1935185279174D-01 -7.4722874095153D-01
136  1.3500000000000D+00  2.2036445481674D-01 -7.2673471606209D-01
137  1.3600000000000D+00  2.1915213811164D-01 -7.0245287443376D-01
138  1.3700000000000D+00  2.1585145408876D-01 -6.7470728192779D-01
139  1.3800000000000D+00  2.1061608326605D-01 -6.4385000425132D-01
140  1.3900000000000D+00  2.0361524871758D-01 -6.1025819299150D-01
141  1.4000000000000D+00  1.9503200195701D-01 -5.7433095333731D-01
142  1.4100000000000D+00  1.8506140837336D-01 -5.3648604256906D-01
143  1.4200000000000D+00  1.7390861675464D-01 -4.9715636376559D-01
144  1.4300000000000D+00  1.6178697003130D-01 -4.5678656364290D-01
145  1.4400000000000D+00  1.4891571161901D-01 -4.1582884100895D-01
146  1.4500000000000D+00  1.3551848645472D-01 -3.7474034904795D-01
147  1.4600000000000D+00  1.2182119713098D-01 -3.3397932648569D-01
148  1.4700000000000D+00  1.0804735219489D-01 -2.9399617238498D-01
149  1.4800000000000D+00  9.4413950320520D-02 -2.5522567677094D-01
150  1.4900000000000D+00  8.1126810310841D-02 -2.1807821312654D-01
151  1.5000000000000D+00  6.8378231267102D-02 -1.8293559366617D-01
152  1.5100000000000D+00  5.6345743981485D-02 -1.5014912396924D-01
153  1.5200000000000D+00  4.5190021912332D-02 -1.2003589998020D-01
154  1.5300000000000D+00  3.5053389855887D-02 -9.2876279856538D-02
155  1.5400000000000D+00  2.6058381460131D-02 -6.8911405171433D-02
156  1.5500000000000D+00  1.8310712386228D-02 -4.8352232569492D-02
157  1.5600000000000D+00  1.1880485510745D-02 -3.1330672824590D-02
158  1.5700000000000D+00  6.7965364369354D-03 -1.7886584079928D-02
159  1.5800000000000D+00  3.1767602791618D-03 -8.3083059992401D-03
160  1.5900000000000D+00  1.0936208217021D-03 -2.7779008600660D-03
161  1.6000000000000D+00  2.0019722879436D-04 -4.1227093196540D-04
162  1.6100000000000D+00 -3.2267180328478D-05  1.4853746771146D-04
163  1.6200000000000D+00 -1.3455644124873D-08  4.6108837499681D-08
164  1.6300000000000D+00  2.1347756044658D-05 -6.8749577309113D-05
165  1.6400000000000D+00 -3.1094312921714D-07  1.1441590130638D-06
166  1.6500000000000D+00 -3.1601389619081D-06  1.1098855841182D-05
167  1.6600000000000D+00 -7.7536187403559D-08  1.5082124737604D-07
168  1.6700000000000D+00 -4.5615261990927D-07  8.8729546076965D-07
169  1.6800000000000D+00  0.0000000000000D+00  0.0000000000000D+00
170  1.6900000000000D+00  0.0000000000000D+00  0.0000000000000D+00
171  1.7000000000000D+00  0.0000000000000D+00  0.0000000000000D+00
172  1.7100000000000D+00  0.0000000000000D+00  0.0000000000000D+00
173  1.7200000000000D+00  0.0000000000000D+00  0.0000000000000D+00
174  1.7300000000000D+00  0.0000000000000D+00  0.0000000000000D+00
175  1.7400000000000D+00  0.0000000000000D+00  0.0000000000000D+00
176  1.7500000000000D+00  0.0000000000000D+00  0.0000000000000D+00
177  1.7600000000000D+00  0.0000000000000D+00  0.0000000000000D+00
178  1.7700000000000D+00  0.0000000000000D+00  0.0000000000000D+00
179  1.7800000000000D+00  0.0000000000000D+00  0.0000000000000D+00
180  1.7900000000000D+00  0.0000000000000D+00  0.0000000000000D+00
181  1.8000000000000D+00  0.0000000000000D+00  0.0000000000000D+00
182  1.8100000000000D+00  0.0000000000000D+00  0.0000000000000D+00
183  1.8200000000000D+00  0.0000000000000D+00  0.0000000000000D+00
184  1.8300000000000D+00  0.0000000000000D+00  0.0000000000000D+00
185  1.8400000000000D+00  0.0000000000000D+00  0.0000000000000D+00
186  1.8500000000000D+00  0.0000000000000D+00  0.0000000000000D+00
187  1.8600000000000D+00  0.0000000000000D+00  0.0000000000000D+00
188  1.8700000000000D+00  0.0000000000000D+00  0.0000000000000D+00
189  1.8800000000000D+00  0.0000000000000D+00  0.0000000000000D+00
190  1.8900000000000D+00  0.0000000000000D+00  0.0000000000000D+00
191  1.9000000000000D+00  0.0000000000000D+00  0.0000000000000D+00
192  1.9100000000000D+00  0.0000000000000D+00  0.0000000000000D+00
193  1.9200000000000D+00  0.0000000000000D+00  0.0000000000000D+00
194  1.9300000000000D+00  0.0000000000000D+00  0.0000000000000D+00
195  1.9400000000000D+00  0.0000000000000D+00  0.0000000000000D+00
196  1.9500000000000D+00  0.0000000000000D+00  0.0000000000000D+00
197  1.9600000000000D+00  0.0000000000000D+00  0.0000000000000D+00
198  1.9700000000000D+00  0.0000000000000D+00  0.0000000000000D+00
199  1.9800000000000D+00  0.0000000000000D+00  0.0000000000000D+00
200  1.9900000000000D+00  0.0000000000000D+00  0.0000000000000D+00
201  2.0000000000000D+00  0.0000000000000D+00  0.0000000000000D+00
202  2.0100000000000D+00  0.0000000000000D+00  0.0000000000000D+00
203  2.0200000000000D+00  0.0000000000000D+00  0.0000000000000D+00
204  2.0300000000000D+00  0.0000000000000D+00  0.0000000000000D+00
205  2.0400000000000D+00  0.0000000000000D+00  0.0000000000000D+00
206  2.0500000000000D+00  0.0000000000000D+00  0.0000000000000D+00
207  2.0600000000000D+00  0.0000000000000D+00  0.0000000000000D+00
208  2.0700000000000D+00  0.0000000000000D+00  0.0000000000000D+00
209  2.0800000000000D+00  0.0000000000000D+00  0.0000000000000D+00
210  2.0900000000000D+00  0.0000000000000D+00  0.0000000000000D+00
211  2.1000000000000D+00  0.0000000000000D+00  0.0000000000000D+00
212  2.1100000000000D+00  0.0000000000000D+00  0.0000000000000D+00
213  2.1200000000000D+00  0.0000000000000D+00  0.0000000000000D+00
214  2.1300000000000D+00  0.0000000000000D+00  0.0000000000000D+00
215  2.1400000000000D+00  0.0000000000000D+00  0.0000000000000D+00
216  2.1500000000000D+00  0.0000000000000D+00  0.0000000000000D+00
217  2.1600000000000D+00  0.0000000000000D+00  0.0000000000000D+00
218  2.1700000000000D+00  0.0000000000000D+00  0.0000000000000D+00
219  2.1800000000000D+00  0.0000000000000D+00  0.0000000000000D+00
220  2.1900000000000D+00  0.0000000000000D+00  0.0000000000000D+00
221  2.2000000000000D+00  0.0000000000000D+00  0.0000000000000D+00
222  2.2100000000000D+00  0.0000000000000D+00  0.0000000000000D+00
223  2.2200000000000D+00  0.0000000000000D+00  0.0000000000000D+00
224  2.2300000000000D+00  0.0000000000000D+00  0.0000000000000D+00
225  2.2400000000000D+00  0.0000000000000D+00  0.0000000000000D+00
226  2.2500000000000D+00  0.0000000000000D+00  0.0000000000000D+00
227  2.2600000000000D+00  0.0000000000000D+00  0.0000000000000D+00
228  2.2700000000000D+00  0.0000000000000D+00  0.0000000000000D+00
229  2.2800000000000D+00  0.0000000000000D+00  0.0000000000000D+00
230  2.2900000000000D+00  0.0000000000000D+00  0.0000000000000D+00
231  2.3000000000000D+00  0.0000000000000D+00  0.0000000000000D+00
232  2.3100000000000D+00  0.0000000000000D+00  0.0000000000000D+00
233  2.3200000000000D+00  0.0000000000000D+00  0.0000000000000D+00
234  2.3300000000000D+00  0.0000000000000D+00  0.0000000000000D+00
235  2.3400000000000D+00  0.0000000000000D+00  0.0000000000000D+00
236  2.3500000000000D+00  0.0000000000000D+00  0.0000000000000D+00
237  2.3600000000000D+00  0.0000000000000D+00  0.0000000000000D+00
238  2.3700000000000D+00  0.0000000000000D+00  0.0000000000000D+00
239  2.3800000000000D+00  0.0000000000000D+00  0.0000000000000D+00
240  2.3900000000000D+00  0.0000000000000D+00  0.0000000000000D+00
241  2.4000000000000D+00  0.0000000000000D+00  0.0000000000000D+00
242  2.4100000000000D+00  0.0000000000000D+00  0.0000000000000D+00
243  2.4200000000000D+00  0.0000000000000D+00  0.0000000000000D+00
244  2.4300000000000D+00  0.0000000000000D+00  0.0000000000000D+00
245  2.4400000000000D+00  0.0000000000000D+00  0.0000000000000D+00
246  2.4500000000000D+00  0.0000000000000D+00  0.0000000000000D+00
247  2.4600000000000D+00  0.0000000000000D+00  0.0000000000000D+00
248  2.4700000000000D+00  0.0000000000000D+00  0.0000000000000D+00
249  2.4800000000000D+00  0.0000000000000D+00  0.0000000000000D+00
250  2.4900000000000D+00  0.0000000000000D+00  0.0000000000000D+00
251  2.5000000000000D+00  0.0000000000000D+00  0.0000000000000D+00
252  2.5100000000000D+00  0.0000000000000D+00  0.0000000000000D+00
253  2.5200000000000D+00  0.0000000000000D+00  0.0000000000000D+00
254  2.5300000000000D+00  0.0000000000000D+00  0.0000000000000D+00
255  2.5400000000000D+00  0.0000000000000D+00  0.0000000000000D+00
256  2.5500000000000D+00  0.0000000000000D+00  0.0000000000000D+00
257  2.5600000000000D+00  0.0000000000000D+00  0.0000000000000D+00
258  2.5700000000000D+00  0.0000000000000D+00  0.0000000000000D+00
259  2.5800000000000D+00  0.0000000000000D+00  0.0000000000000D+00
260  2.5900000000000D+00  0.0000000000000D+00  0.0000000000000D+00
261  2.6000000000000D+00  0.0000000000000D+00  0.0000000000000D+00
262  2.6100000000000D+00  0.0000000000000D+00  0.0000000000000D+00
263  2.6200000000000D+00  0.0000000000000D+00  0.0000000000000D+00
264  2.6300000000000D+00  0.0000000000000D+00  0.0000000000000D+00
265  2.6400000000000D+00  0.0000000000000D+00  0.0000000000000D+00
266  2.6500000000000D+00  0.0000000000000D+00  0.0000000000000D+00
267  2.6600000000000D+00  0.0000000000000D+00  0.0000000000000D+00
268  2.6700000000000D+00  0.0000000000000D+00  0.0000000000000D+00
269  2.6800000000000D+00  0.0000000000000D+00  0.0000000000000D+00
270  2.6900000000000D+00  0.0000000000000D+00  0.0000000000000D+00
271  2.7000000000000D+00  0.0000000000000D+00  0.0000000000000D+00
272  2.7100000000000D+00  0.0000000000000D+00  0.0000000000000D+00
273  2.7200000000000D+00  0.0000000000000D+00  0.0000000000000D+00
274  2.7300000000000D+00  0.0000000000000D+00  0.0000000000000D+00
275  2.7400000000000D+00  0.0000000000000D+00  0.0000000000000D+00
276  2.7500000000000D+00  0.0000000000000D+00  0.0000000000000D+00
277  2.7600000000000D+00  0.0000000000000D+00  0.0000000000000D+00
278  2.7700000000000D+00  0.0000000000000D+00  0.0000000000000D+00
279  2.7800000000000D+00  0.0000000000000D+00  0.0000000000000D+00
280  2.7900000000000D+00  0.0000000000000D+00  0.0000000000000D+00
281  2.8000000000000D+00  0.0000000000000D+00  0.0000000000000D+00
282  2.8100000000000D+00  0.0000000000000D+00  0.0000000000000D+00
283  2.8200000000000D+00  0.0000000000000D+00  0.0000000000000D+00
284  2.8300000000000D+00  0.0000000000000D+00  0.0000000000000D+00
285  2.8400000000000D+00  0.0000000000000D+00  0.0000000000000D+00
286  2.8500000000000D+00  0.0000000000000D+00  0.0000000000000D+00
287  2.8600000000000D+00  0.0000000000000D+00  0.0000000000000D+00
288  2.8700000000000D+00  0.0000000000000D+00  0.0000000000000D+00
289  2.8800000000000D+00  0.0000000000000D+00  0.0000000000000D+00
290  2.8900000000000D+00  0.0000000000000D+00  0.0000000000000D+00
291  2.9000000000000D+00  0.0000000000000D+00  0.0000000000000D+00
292  2.9100000000000D+00  0.0000000000000D+00  0.0000000000000D+00
293  2.9200000000000D+00  0.0000000000000D+00  0.0000000000000D+00
294  2.9300000000000D+00  0.0000000000000D+00  0.0000000000000D+00
295  2.9400000000000D+00  0.0000000000000D+00  0.0000000000000D+00
296  2.9500000000000D+00  0.0000000000000D+00  0.0000000000000D+00
297  2.9600000000000D+00  0.0000000000000D+00  0.0000000000000D+00
298  2.9700000000000D+00  0.0000000000000D+00  0.0000000000000D+00
299  2.9800000000000D+00  0.0000000000000D+00  0.0000000000000D+00
300  2.9900000000000D+00  0.0000000000000D+00  0.0000000000000D+00
301  3.0000000000000D+00  0.0000000000000D+00  0.0000000000000D+00
302  3.0100000000000D+00  0.0000000000000D+00  0.0000000000000D+00
303  3.0200000000000D+00  0.0000000000000D+00  0.0000000000000D+00
304  3.0300000000000D+00  0.0000000000000D+00  0.0000000000000D+00
305  3.0400000000000D+00  0.0000000000000D+00  0.0000000000000D+00
306  3.0500000000000D+00  0.0000000000000D+00  0.0000000000000D+00
307  3.0600000000000D+00  0.0000000000000D+00  0.0000000000000D+00
308  3.0700000000000D+00  0.0000000000000D+00  0.0000000000000D+00
309  3.0800000000000D+00  0.0000000000000D+00  0.0000000000000D+00
310  3.0900000000000D+00  0.0000000000000D+00  0.0000000000000D+00
311  3.1000000000000D+00  0.0000000000000D+00  0.0000000000000D+00
312  3.1100000000000D+00  0.0000000000000D+00  0.0000000000000D+00
313  3.1200000000000D+00  0.0000000000000D+00  0.0000000000000D+00
314  3.1300000000000D+00  0.0000000000000D+00  0.0000000000000D+00
315  3.1400000000000D+00  0.0000000000000D+00  0.0000000000000D+00
316  3.1500000000000D+00  0.0000000000000D+00  0.0000000000000D+00
317  3.1600000000000D+00  0.0000000000000D+00  0.0000000000000D+00
318  3.1700000000000D+00  0.0000000000000D+00  0.0000000000000D+00
319  3.1800000000000D+00  0.0000000000000D+00  0.0000000000000D+00
320  3.1900000000000D+00  0.0000000000000D+00  0.0000000000000D+00
321  3.2000000000000D+00  0.0000000000000D+00  0.0000000000000D+00
322  3.2100000000000D+00  0.0000000000000D+00  0.0000000000000D+00
323  3.2200000000000D+00  0.0000000000000D+00  0.0000000000000D+00
324  3.2300000000000D+00  0.0000000000000D+00  0.0000000000000D+00
325  3.2400000000000D+00  0.0000000000000D+00  0.0000000000000D+00
326  3.2500000000000D+00  0.0000000000000D+00  0.0000000000000D+00
327  3.2600000000000D+00  0.0000000000000D+00  0.0000000000000D+00
328  3.2700000000000D+00  0.0000000000000D+00  0.0000000000000D+00
329  3.2800000000000D+00  0.0000000000000D+00  0.0000000000000D+00
330  3.2900000000000D+00  0.0000000000000D+00  0.0000000000000D+00
331  3.3000000000000D+00  0.0000000000000D+00  0.0000000000000D+00
332  3.3100000000000D+00  0.0000000000000D+00  0.0000000000000D+00
333  3.3200000000000D+00  0.0000000000000D+00  0.0000000000000D+00
334  3.3300000000000D+00  0.0000000000000D+00  0.0000000000000D+00
335  3.3400000000000D+00  0.0000000000000D+00  0.0000000000000D+00
336  3.3500000000000D+00  0.0000000000000D+00  0.0000000000000D+00
337  3.3600000000000D+00  0.0000000000000D+00  0.0000000000000D+00
338  3.3700000000000D+00  0.0000000000000D+00  0.0000000000000D+00
339  3.3800000000000D+00  0.0000000000000D+00  0.0000000000000D+00
340  3.3900000000000D+00  0.0000000000000D+00  0.0000000000000D+00
341  3.4000000000000D+00  0.0000000000000D+00  0.0000000000000D+00
342  3.4100000000000D+00  0.0000000000000D+00  0.0000000000000D+00
343  3.4200000000000D+00  0.0000000000000D+00  0.0000000000000D+00
344  3.4300000000000D+00  0.0000000000000D+00  0.0000000000000D+00
345  3.4400000000000D+00  0.0000000000000D+00  0.0000000000000D+00
346  3.4500000000000D+00  0.0000000000000D+00  0.0000000000000D+00
347  3.4600000000000D+00  0.0000000000000D+00  0.0000000000000D+00
348  3.4700000000000D+00  0.0000000000000D+00  0.0000000000000D+00
349  3.4800000000000D+00  0.0000000000000D+00  0.0000000000000D+00
350  3.4900000000000D+00  0.0000000000000D+00  0.0000000000000D+00
351  3.5000000000000D+00  0.0000000000000D+00  0.0000000000000D+00
352  3.5100000000000D+00  0.0000000000000D+00  0.0000000000000D+00
353  3.5200000000000D+00  0.0000000000000D+00  0.0000000000000D+00
354  3.5300000000000D+00  0.0000000000000D+00  0.0000000000000D+00
355  3.5400000000000D+00  0.0000000000000D+00  0.0000000000000D+00
356  3.5500000000000D+00  0.0000000000000D+00  0.0000000000000D+00
357  3.5600000000000D+00  0.0000000000000D+00  0.0000000000000D+00
358  3.5700000000000D+00  0.0000000000000D+00  0.0000000000000D+00
359  3.5800000000000D+00  0.0000000000000D+00  0.0000000000000D+00
360  3.5900000000000D+00  0.0000000000000D+00  0.0000000000000D+00
361  3.6000000000000D+00  0.0000000000000D+00  0.0000000000000D+00
362  3.6100000000000D+00  0.0000000000000D+00  0.0000000000000D+00
363  3.6200000000000D+00  0.0000000000000D+00  0.0000000000000D+00
364  3.6300000000000D+00  0.0000000000000D+00  0.0000000000000D+00
365  3.6400000000000D+00  0.0000000000000D+00  0.0000000000000D+00
366  3.6500000000000D+00  0.0000000000000D+00  0.0000000000000D+00
367  3.6600000000000D+00  0.0000000000000D+00  0.0000000000000D+00
368  3.6700000000000D+00  0.0000000000000D+00  0.0000000000000D+00
369  3.6800000000000D+00  0.0000000000000D+00  0.0000000000000D+00
370  3.6900000000000D+00  0.0000000000000D+00  0.0000000000000D+00
371  3.7000000000000D+00  0.0000000000000D+00  0.0000000000000D+00
372  3.7100000000000D+00  0.0000000000000D+00  0.0000000000000D+00
373  3.7200000000000D+00  0.0000000000000D+00  0.0000000000000D+00
374  3.7300000000000D+00  0.0000000000000D+00  0.0000000000000D+00
375  3.7400000000000D+00  0.0000000000000D+00  0.0000000000000D+00
376  3.7500000000000D+00  0.0000000000000D+00  0.0000000000000D+00
377  3.7600000000000D+00  0.0000000000000D+00  0.0000000000000D+00
378  3.7700000000000D+00  0.0000000000000D+00  0.0000000000000D+00
379  3.7800000000000D+00  0.0000000000000D+00  0.0000000000000D+00
380  3.7900000000000D+00  0.0000000000000D+00  0.0000000000000D+00
381  3.8000000000000D+00  0.0000000000000D+00  0.0000000000000D+00
382  3.8100000000000D+00  0.0000000000000D+00  0.0000000000000D+00
383  3.8200000000000D+00  0.0000000000000D+00  0.0000000000000D+00
384  3.8300000000000D+00  0.0000000000000D+00  0.0000000000000D+00
385  3.8400000000000D+00  0.0000000000000D+00  0.0000000000000D+00
386  3.8500000000000D+00  0.0000000000000D+00  0.0000000000000D+00
387  3.8600000000000D+00  0.0000000000000D+00  0.0000000000000D+00
388  3.8700000000000D+00  0.0000000000000D+00  0.0000000000000D+00
389  3.8800000000000D+00  0.0000000000000D+00  0.0000000000000D+00
390  3.8900000000000D+00  0.0000000000000D+00  0.0000000000000D+00
391  3.9000000000000D+00  0.0000000000000D+00  0.0000000000000D+00
392  3.9100000000000D+00  0.0000000000000D+00  0.0000000000000D+00
393  3.9200000000000D+00  0.0000000000000D+00  0.0000000000000D+00
394  3.9300000000000D+00  0.0000000000000D+00  0.0000000000000D+00
395  3.9400000000000D+00  0.0000000000000D+00  0.0000000000000D+00
396  3.9500000000000D+00  0.0000000000000D+00  0.0000000000000D+00
397  3.9600000000000D+00  0.0000000000000D+00  0.0000000000000D+00
398  3.9700000000000D+00  0.0000000000000D+00  0.0000000000000D+00
399  3.9800000000000D+00  0.0000000000000D+00  0.0000000000000D+00
400  3.9900000000000D+00  0.0000000000000D+00  0.0000000000000D+00
401  4.0000000000000D+00  0.0000000000000D+00  0.0000000000000D+00
402  4.0100000000000D+00  0.0000000000000D+00  0.0000000000000D+00
403  4.0200000000000D+00  0.0000000000000D+00  0.0000000000000D+00
404  4.0300000000000D+00  0.0000000000000D+00  0.0000000000000D+00
405  4.0400000000000D+00  0.0000000000000D+00  0.0000000000000D+00
406  4.0500000000000D+00  0.0000000000000D+00  0.0000000000000D+00
407  4.0600000000000D+00  0.0000000000000D+00  0.0000000000000D+00
408  4.0700000000000D+00  0.0000000000000D+00  0.0000000000000D+00
409  4.0800000000000D+00  0.0000000000000D+00  0.0000000000000D+00
410  4.0900000000000D+00  0.0000000000000D+00  0.0000000000000D+00
411  4.1000000000000D+00  0.0000000000000D+00  0.0000000000000D+00
412  4.1100000000000D+00  0.0000000000000D+00  0.0000000000000D+00
413  4.1200000000000D+00  0.0000000000000D+00  0.0000000000000D+00
414  4.1300000000000D+00  0.0000000000000D+00  0.0000000000000D+00
415  4.1400000000000D+00  0.0000000000000D+00  0.0000000000000D+00
416  4.1500000000000D+00  0.0000000000000D+00  0.0000000000000D+00
417  4.1600000000000D+00  0.0000000000000D+00  0.0000000000000D+00
418  4.1700000000000D+00  0.0000000000000D+00  0.0000000000000D+00
419  4.1800000000000D+00  0.0000000000000D+00  0.0000000000000D+00
420  4.1900000000000D+00  0.0000000000000D+00  0.0000000000000D+00
421  4.2000000000000D+00  0.0000000000000D+00  0.0000000000000D+00
422  4.2100000000000D+00  0.0000000000000D+00  0.0000000000000D+00
423  4.2200000000000D+00  0.0000000000000D+00  0.0000000000000D+00
424  4.2300000000000D+00  0.0000000000000D+00  0.0000000000000D+00
425  4.2400000000000D+00  0.0000000000000D+00  0.0000000000000D+00
426  4.2500000000000D+00  0.0000000000000D+00  0.0000000000000D+00
427  4.2600000000000D+00  0.0000000000000D+00  0.0000000000000D+00
428  4.2700000000000D+00  0.0000000000000D+00  0.0000000000000D+00
429  4.2800000000000D+00  0.0000000000000D+00  0.0000000000000D+00
430  4.2900000000000D+00  0.0000000000000D+00  0.0000000000000D+00
431  4.3000000000000D+00  0.0000000000000D+00  0.0000000000000D+00
432  4.3100000000000D+00  0.0000000000000D+00  0.0000000000000D+00
433  4.3200000000000D+00  0.0000000000000D+00  0.0000000000000D+00
434  4.3300000000000D+00  0.0000000000000D+00  0.0000000000000D+00
435  4.3400000000000D+00  0.0000000000000D+00  0.0000000000000D+00
436  4.3500000000000D+00  0.0000000000000D+00  0.0000000000000D+00
437  4.3600000000000D+00  0.0000000000000D+00  0.0000000000000D+00
438  4.3700000000000D+00  0.0000000000000D+00  0.0000000000000D+00
439  4.3800000000000D+00  0.0000000000000D+00  0.0000000000000D+00
440  4.3900000000000D+00  0.0000000000000D+00  0.0000000000000D+00
441  4.4000000000000D+00  0.0000000000000D+00  0.0000000000000D+00
442  4.4100000000000D+00  0.0000000000000D+00  0.0000000000000D+00
443  4.4200000000000D+00  0.0000000000000D+00  0.0000000000000D+00