Hg    ONCVPSP  r_core=  1.56  1.60  1.46
80.0000     20.0000      161004    zatom,zion,pspd
8 -116133   2     4   600     0    pspcod,pspxc,lmax,lloc,mmax,r2well
5.99000000  9.00000000  0.00000000    rchrg fchrg qchrg
2     2     2     0     0    nproj
1                 extension_switch
0                         3.3595942713863D+01  2.6842419889522D+00
1  0.0000000000000D+00 -1.0304487263468D-09  1.3235261220323D-09
2  1.0000000000000D-02  8.0699535127329D-02  3.4968449605780D-04
3  2.0000000000000D-02  1.6110811972661D-01  8.9198882197155D-04
4  3.0000000000000D-02  2.4093681548926D-01  1.8172985964138D-03
5  4.0000000000000D-02  3.1990068674561D-01  3.3115585095010D-03
6  5.0000000000000D-02  3.9772074754996D-01  5.5541202520439D-03
7  6.0000000000000D-02  4.7412584442435D-01  8.7156715663550D-03
8  7.0000000000000D-02  5.4885445453846D-01  1.2956271886785D-02
9  8.0000000000000D-02  6.2165638013301D-01  1.8423518714629D-02
10  9.0000000000000D-02  6.9229432125925D-01  2.5250867247464D-02
11  1.0000000000000D-01  7.6054531039061D-01  3.3556123876877D-02
12  1.1000000000000D-01  8.2620199414814D-01  4.3440132003616D-02
13  1.2000000000000D-01  8.8907374924739D-01  5.4985666221602D-02
14  1.3000000000000D-01  9.4898762179934D-01  6.8256548320728D-02
15  1.4000000000000D-01  1.0057890812569D+00  8.3296995784126D-02
16  1.5000000000000D-01  1.0593425825649D+00  1.0013121054264D-01
17  1.6000000000000D-01  1.1095319324204D+00  1.1876321273232D-01
18  1.7000000000000D-01  1.1562604579455D+00  1.3917692111711D-01
19  1.8000000000000D-01  1.1994509785016D+00  1.6133647872572D-01
20  1.9000000000000D-01  1.2390455837829D+00  1.8518681914818D-01
21  2.0000000000000D-01  1.2750052237063D+00  2.1065446588003D-01
22  2.1000000000000D-01  1.3073091179260D+00  2.3764855413160D-01
23  2.2000000000000D-01  1.3359539950115D+00  2.6606206167014D-01
24  2.3000000000000D-01  1.3609531734235D+00  2.9577323257218D-01
25  2.4000000000000D-01  1.3823354983585D+00  3.2664717526518D-01
26  2.5000000000000D-01  1.4001441503016D+00  3.5853761396431D-01
27  2.6000000000000D-01  1.4144353426920D+00  3.9128877059034D-01
28  2.7000000000000D-01  1.4252769274570D+00  4.2473735251706D-01
29  2.8000000000000D-01  1.4327469282808D+00  4.5871462006243D-01
30  2.9000000000000D-01  1.4369320223337D+00  4.9304850652836D-01
31  3.0000000000000D-01  1.4379259917835D+00  5.2756576282601D-01
32  3.1000000000000D-01  1.4358281667310D+00  5.6209409830704D-01
33  3.2000000000000D-01  1.4307418812531D+00  5.9646428936699D-01
34  3.3000000000000D-01  1.4227729639949D+00  6.3051222769606D-01
35  3.4000000000000D-01  1.4120282842293D+00  6.6408088072563D-01
36  3.5000000000000D-01  1.3986143735041D+00  6.9702213784984D-01
37  3.6000000000000D-01  1.3826361419244D+00  7.2919851738107D-01
38  3.7000000000000D-01  1.3641957067943D+00  7.6048471091125D-01
39  3.8000000000000D-01  1.3433913497706D+00  7.9076894377983D-01
40  3.9000000000000D-01  1.3203166168852D+00  8.1995413267085D-01
41  4.0000000000000D-01  1.2950595737956D+00  8.4795882394918D-01
42  4.1000000000000D-01  1.2677022264432D+00  8.7471789916985D-01
43  4.2000000000000D-01  1.2383201149651D+00  9.0018303722062D-01
44  4.3000000000000D-01  1.2069820862462D+00  9.2432292575041D-01
45  4.4000000000000D-01  1.1737502479472D+00  9.4712321785575D-01
46  4.5000000000000D-01  1.1386801042248D+00  9.6858623340292D-01
47  4.6000000000000D-01  1.1018208707175D+00  9.8873040781315D-01
48  4.7000000000000D-01  1.0632159637292D+00  1.0075894945870D+00
49  4.8000000000000D-01  1.0229036559403D+00  1.0252115312486D+00
50  4.9000000000000D-01  9.8091788845140D-01  1.0416575817074D+00
51  5.0000000000000D-01  9.3728922654224D-01  1.0570002712171D+00
52  5.1000000000000D-01  8.9204594425359D-01  1.0713221331214D+00
53  5.2000000000000D-01  8.4521522079201D-01  1.0847137893675D+00
54  5.3000000000000D-01  7.9682442985662D-01  1.0972719893068D+00
55  5.4000000000000D-01  7.4690250131596D-01  1.1090975335469D+00
56  5.5000000000000D-01  6.9548133324748D-01  1.1202931115427D+00
57  5.6000000000000D-01  6.4259723121633D-01  1.1309610831829D+00
58  5.7000000000000D-01  5.8829235083264D-01  1.1412012358172D+00
59  5.8000000000000D-01  5.3261611910074D-01  1.1511085489625D+00
60  5.9000000000000D-01  4.7562660987598D-01  1.1607709993006D+00
61  6.0000000000000D-01  4.1739184887854D-01  1.1702674385288D+00
62  6.1000000000000D-01  3.5799102418427D-01  1.1796655761453D+00
63  6.2000000000000D-01  2.9751557892138D-01  1.1890200983350D+00
64  6.3000000000000D-01  2.3607016404073D-01  1.1983709527790D+00
65  6.4000000000000D-01  1.7377343048496D-01  1.2077418274643D+00
66  6.5000000000000D-01  1.1075864185725D-01  1.2171388494015D+00
67  6.6000000000000D-01  4.7174090743817D-02  1.2265495266395D+00
68  6.7000000000000D-01 -1.6816695827152D-02  1.2359419540795D+00
69  6.8000000000000D-01 -8.1034973734052D-02  1.2452643003912D+00
70  6.9000000000000D-01 -1.4528703107771D-01  1.2544445898467D+00
71  7.0000000000000D-01 -2.0936467567294D-01  1.2633907891882D+00
72  7.1000000000000D-01 -2.7304596379835D-01  1.2719912057004D+00
73  7.2000000000000D-01 -3.3609617008474D-01  1.2801151986128D+00
74  7.3000000000000D-01 -3.9826899513667D-01  1.2876142017870D+00
75  7.4000000000000D-01 -4.5930800417234D-01  1.2943230514335D+00
76  7.5000000000000D-01 -5.1894828669137D-01  1.3000616084168D+00
77  7.6000000000000D-01 -5.7691832393345D-01  1.3046366605510D+00
78  7.7000000000000D-01 -6.3294204778273D-01  1.3078440862850D+00
79  7.8000000000000D-01 -6.8674107179016D-01  1.3094712573266D+00
80  7.9000000000000D-01 -7.3803707219891D-01  1.3092996541325D+00
81  8.0000000000000D-01 -7.8655429429718D-01  1.3071076648462D+00
82  8.1000000000000D-01 -8.3202215712724D-01  1.3026735352429D+00
83  8.2000000000000D-01 -8.7417792758382D-01  1.2957784345857D+00
84  8.3000000000000D-01 -9.1276943327018D-01  1.2862096000475D+00
85  8.4000000000000D-01 -9.4755778217349D-01  1.2737635205520D+00
86  8.5000000000000D-01 -9.7832005629696D-01  1.2582491195525D+00
87  8.6000000000000D-01 -1.0048519458619D+00  1.2394908954392D+00
88  8.7000000000000D-01 -1.0269702905836D+00  1.2173319779468D+00
89  8.8000000000000D-01 -1.0445154948384D+00  1.1916370591517D+00
90  8.9000000000000D-01 -1.0573537842800D+00  1.1622951583947D+00
91  9.0000000000000D-01 -1.0653792726294D+00  1.1292221817522D+00
92  9.1000000000000D-01 -1.0685158089431D+00  1.0923632384835D+00
93  9.2000000000000D-01 -1.0667185776540D+00  1.0516946792046D+00
94  9.3000000000000D-01 -1.0599754260497D+00  1.0072258233458D+00
95  9.4000000000000D-01 -1.0483078965889D+00  9.5900034671838D-01
96  9.5000000000000D-01 -1.0317719445259D+00  9.0709730370878D-01
97  9.6000000000000D-01 -1.0104583246780D+00  8.5163176269786D-01
98  9.7000000000000D-01 -9.8449263480555D-01  7.9275503771530D-01
99  9.8000000000000D-01 -9.5403500690680D-01  7.3065450402541D-01
100  9.9000000000000D-01 -9.1927944184283D-01  6.6555299037503D-01
101  1.0000000000000D+00 -8.8045278665499D-01  5.9770774548614D-01
102  1.0100000000000D+00 -8.3781335842319D-01  5.2740898190032D-01
103  1.0200000000000D+00 -7.9164922258935D-01  4.5497800531743D-01
104  1.0300000000000D+00 -7.4227613795828D-01  3.8076494287901D-01
105  1.0400000000000D+00 -6.9003518470242D-01  3.0514608895135D-01
106  1.0500000000000D+00 -6.3529009582190D-01  2.2852089209502D-01
107  1.0600000000000D+00 -5.7842431603480D-01  1.5130861129997D-01
108  1.0700000000000D+00 -5.1983781600652D-01  7.3944674482033D-02
109  1.0800000000000D+00 -4.5994369290759D-01 -3.1232238977499D-03
110  1.0900000000000D+00 -3.9916459127998D-01 -7.9439245468749D-02
111  1.1000000000000D+00 -3.3792898088313D-01 -1.5454370681275D-01
112  1.1100000000000D+00 -2.7666733006967D-01 -2.2797750813988D-01
113  1.1200000000000D+00 -2.1580821540957D-01 -2.9928664258407D-01
114  1.1300000000000D+00 -1.5577440921936D-01 -3.6802673569347D-01
115  1.1400000000000D+00 -9.6978987482802D-02 -4.3376756356642D-01
116  1.1500000000000D+00 -3.9821500960372D-02 -4.9609749763057D-01
117  1.1600000000000D+00  1.5315747919840D-02 -5.5462782420712D-01
118  1.1700000000000D+00  6.8071280616496D-02 -6.0899688793939D-01
119  1.1800000000000D+00  1.1810783040892D-01 -6.5887401017738D-01
120  1.1900000000000D+00  1.6511550331786D-01 -7.0396313419174D-01
121  1.2000000000000D+00  2.0881467611747D-01 -7.4400615328864D-01
122  1.2100000000000D+00  2.4895859793773D-01 -7.7878588080721D-01
123  1.2200000000000D+00  2.8533566468532D-01 -8.0812862428573D-01
124  1.2300000000000D+00  3.1777133911491D-01 -8.3190633046163D-01
125  1.2400000000000D+00  3.4612969434436D-01 -8.5003827383339D-01
126  1.2500000000000D+00  3.7031456214326D-01 -8.6249226584070D-01
127  1.2600000000000D+00  3.9027027035964D-01 -8.6928536542420D-01
128  1.2700000000000D+00  4.0598196183424D-01 -8.7048408152242D-01
129  1.2800000000000D+00  4.1747549015806D-01 -8.6620406176370D-01
130  1.2900000000000D+00  4.2481689032685D-01 -8.5660926491304D-01
131  1.3000000000000D+00  4.2811143269023D-01 -8.4191062736089D-01
132  1.3100000000000D+00  4.2750226959928D-01 -8.2236423518763D-01
133  1.3200000000000D+00  4.2316868789071D-01 -7.9826901792434D-01
134  1.3300000000000D+00  4.1532399091625D-01 -7.6996399316392D-01
135  1.3400000000000D+00  4.0421303193554D-01 -7.3782508884829D-01
136  1.3500000000000D+00  3.9010942744840D-01 -7.0226157838519D-01
137  1.3600000000000D+00  3.7331248615373D-01 -6.6371217252964D-01
138  1.3700000000000D+00  3.5414388558559D-01 -6.2264080747379D-01
139  1.3800000000000D+00  3.3294413889351D-01 -5.7953218144779D-01
140  1.3900000000000D+00  3.1006889326015D-01 -5.3488709093113D-01
141  1.4000000000000D+00  2.8588510239194D-01 -4.8921761874090D-01
142  1.4100000000000D+00  2.6076712931169D-01 -4.4304224404586D-01
143  1.4200000000000D+00  2.3509277251974D-01 -3.9688086045450D-01
144  1.4300000000000D+00  2.0923946823522D-01 -3.5125003378193D-01
145  1.4400000000000D+00  1.8358000714922D-01 -3.0665761605462D-01
146  1.4500000000000D+00  1.5847959191559D-01 -2.6359913579587D-01
147  1.4600000000000D+00  1.3429207004798D-01 -2.2255309113098D-01
148  1.4700000000000D+00  1.1135252700480D-01 -1.8397135156304D-01
149  1.4800000000000D+00  8.9970875465341D-02 -1.4827093502293D-01
150  1.4900000000000D+00  7.0424795835647D-02 -1.1582495907723D-01
151  1.5000000000000D+00  5.2956378798836D-02 -8.6958510260038D-02
152  1.5100000000000D+00  3.7773573972170D-02 -6.1951836426597D-02
153  1.5200000000000D+00  2.5041984049868D-02 -4.1027961316322D-02
154  1.5300000000000D+00  1.4831514533516D-02 -2.4266439172913D-02
155  1.5400000000000D+00  7.3007265387455D-03 -1.1904383734137D-02
156  1.5500000000000D+00  2.6851954759641D-03 -4.3146168645836D-03
157  1.5600000000000D+00  5.6492882775491D-04 -8.2668288469864D-04
158  1.5700000000000D+00 -5.1447574228980D-05  1.4857539305228D-04
159  1.5800000000000D+00 -2.3957716272754D-05  4.7501762561012D-05
160  1.5900000000000D+00  4.2101321670217D-05 -7.9674898975460D-05
161  1.6000000000000D+00  5.0773461148188D-06 -9.4164098494702D-06
162  1.6100000000000D+00 -6.5213070522796D-06  1.3043556751678D-05
163  1.6200000000000D+00 -2.2512476068048D-09  4.4190203429099D-09
164  1.6300000000000D+00 -7.5644989559624D-07  9.7069590546949D-07
165  1.6400000000000D+00  0.0000000000000D+00  0.0000000000000D+00
166  1.6500000000000D+00  0.0000000000000D+00  0.0000000000000D+00
167  1.6600000000000D+00  0.0000000000000D+00  0.0000000000000D+00
168  1.6700000000000D+00  0.0000000000000D+00  0.0000000000000D+00
169  1.6800000000000D+00  0.0000000000000D+00  0.0000000000000D+00
170  1.6900000000000D+00  0.0000000000000D+00  0.0000000000000D+00
171  1.7000000000000D+00  0.0000000000000D+00  0.0000000000000D+00
172  1.7100000000000D+00  0.0000000000000D+00  0.0000000000000D+00
173  1.7200000000000D+00  0.0000000000000D+00  0.0000000000000D+00
174  1.7300000000000D+00  0.0000000000000D+00  0.0000000000000D+00
175  1.7400000000000D+00  0.0000000000000D+00  0.0000000000000D+00
176  1.7500000000000D+00  0.0000000000000D+00  0.0000000000000D+00
177  1.7600000000000D+00  0.0000000000000D+00  0.0000000000000D+00
178  1.7700000000000D+00  0.0000000000000D+00  0.0000000000000D+00
179  1.7800000000000D+00  0.0000000000000D+00  0.0000000000000D+00
180  1.7900000000000D+00  0.0000000000000D+00  0.0000000000000D+00
181  1.8000000000000D+00  0.0000000000000D+00  0.0000000000000D+00
182  1.8100000000000D+00  0.0000000000000D+00  0.0000000000000D+00
183  1.8200000000000D+00  0.0000000000000D+00  0.0000000000000D+00
184  1.8300000000000D+00  0.0000000000000D+00  0.0000000000000D+00
185  1.8400000000000D+00  0.0000000000000D+00  0.0000000000000D+00
186  1.8500000000000D+00  0.0000000000000D+00  0.0000000000000D+00
187  1.8600000000000D+00  0.0000000000000D+00  0.0000000000000D+00
188  1.8700000000000D+00  0.0000000000000D+00  0.0000000000000D+00
189  1.8800000000000D+00  0.0000000000000D+00  0.0000000000000D+00
190  1.8900000000000D+00  0.0000000000000D+00  0.0000000000000D+00
191  1.9000000000000D+00  0.0000000000000D+00  0.0000000000000D+00
192  1.9100000000000D+00  0.0000000000000D+00  0.0000000000000D+00
193  1.9200000000000D+00  0.0000000000000D+00  0.0000000000000D+00
194  1.9300000000000D+00  0.0000000000000D+00  0.0000000000000D+00
195  1.9400000000000D+00  0.0000000000000D+00  0.0000000000000D+00
196  1.9500000000000D+00  0.0000000000000D+00  0.0000000000000D+00
197  1.9600000000000D+00  0.0000000000000D+00  0.0000000000000D+00
198  1.9700000000000D+00  0.0000000000000D+00  0.0000000000000D+00
199  1.9800000000000D+00  0.0000000000000D+00  0.0000000000000D+00
200  1.9900000000000D+00  0.0000000000000D+00  0.0000000000000D+00
201  2.0000000000000D+00  0.0000000000000D+00  0.0000000000000D+00
202  2.0100000000000D+00  0.0000000000000D+00  0.0000000000000D+00
203  2.0200000000000D+00  0.0000000000000D+00  0.0000000000000D+00
204  2.0300000000000D+00  0.0000000000000D+00  0.0000000000000D+00
205  2.0400000000000D+00  0.0000000000000D+00  0.0000000000000D+00
206  2.0500000000000D+00  0.0000000000000D+00  0.0000000000000D+00
207  2.0600000000000D+00  0.0000000000000D+00  0.0000000000000D+00
208  2.0700000000000D+00  0.0000000000000D+00  0.0000000000000D+00
209  2.0800000000000D+00  0.0000000000000D+00  0.0000000000000D+00
210  2.0900000000000D+00  0.0000000000000D+00  0.0000000000000D+00
211  2.1000000000000D+00  0.0000000000000D+00  0.0000000000000D+00
212  2.1100000000000D+00  0.0000000000000D+00  0.0000000000000D+00
213  2.1200000000000D+00  0.0000000000000D+00  0.0000000000000D+00
214  2.1300000000000D+00  0.0000000000000D+00  0.0000000000000D+00
215  2.1400000000000D+00  0.0000000000000D+00  0.0000000000000D+00
216  2.1500000000000D+00  0.0000000000000D+00  0.0000000000000D+00
217  2.1600000000000D+00  0.0000000000000D+00  0.0000000000000D+00
218  2.1700000000000D+00  0.0000000000000D+00  0.0000000000000D+00
219  2.1800000000000D+00  0.0000000000000D+00  0.0000000000000D+00
220  2.1900000000000D+00  0.0000000000000D+00  0.0000000000000D+00
221  2.2000000000000D+00  0.0000000000000D+00  0.0000000000000D+00
222  2.2100000000000D+00  0.0000000000000D+00  0.0000000000000D+00
223  2.2200000000000D+00  0.0000000000000D+00  0.0000000000000D+00
224  2.2300000000000D+00  0.0000000000000D+00  0.0000000000000D+00
225  2.2400000000000D+00  0.0000000000000D+00  0.0000000000000D+00
226  2.2500000000000D+00  0.0000000000000D+00  0.0000000000000D+00
227  2.2600000000000D+00  0.0000000000000D+00  0.0000000000000D+00
228  2.2700000000000D+00  0.0000000000000D+00  0.0000000000000D+00
229  2.2800000000000D+00  0.0000000000000D+00  0.0000000000000D+00
230  2.2900000000000D+00  0.0000000000000D+00  0.0000000000000D+00
231  2.3000000000000D+00  0.0000000000000D+00  0.0000000000000D+00
232  2.3100000000000D+00  0.0000000000000D+00  0.0000000000000D+00
233  2.3200000000000D+00  0.0000000000000D+00  0.0000000000000D+00
234  2.3300000000000D+00  0.0000000000000D+00  0.0000000000000D+00
235  2.3400000000000D+00  0.0000000000000D+00  0.0000000000000D+00
236  2.3500000000000D+00  0.0000000000000D+00  0.0000000000000D+00
237  2.3600000000000D+00  0.0000000000000D+00  0.0000000000000D+00
238  2.3700000000000D+00  0.0000000000000D+00  0.0000000000000D+00
239  2.3800000000000D+00  0.0000000000000D+00  0.0000000000000D+00
240  2.3900000000000D+00  0.0000000000000D+00  0.0000000000000D+00
241  2.4000000000000D+00  0.0000000000000D+00  0.0000000000000D+00
242  2.4100000000000D+00  0.0000000000000D+00  0.0000000000000D+00
243  2.4200000000000D+00  0.0000000000000D+00  0.0000000000000D+00
244  2.4300000000000D+00  0.0000000000000D+00  0.0000000000000D+00
245  2.4400000000000D+00  0.0000000000000D+00  0.0000000000000D+00
246  2.4500000000000D+00  0.0000000000000D+00  0.0000000000000D+00
247  2.4600000000000D+00  0.0000000000000D+00  0.0000000000000D+00
248  2.4700000000000D+00  0.0000000000000D+00  0.0000000000000D+00
249  2.4800000000000D+00  0.0000000000000D+00  0.0000000000000D+00
250  2.4900000000000D+00  0.0000000000000D+00  0.0000000000000D+00
251  2.5000000000000D+00  0.0000000000000D+00  0.0000000000000D+00
252  2.5100000000000D+00  0.0000000000000D+00  0.0000000000000D+00
253  2.5200000000000D+00  0.0000000000000D+00  0.0000000000000D+00
254  2.5300000000000D+00  0.0000000000000D+00  0.0000000000000D+00
255  2.5400000000000D+00  0.0000000000000D+00  0.0000000000000D+00
256  2.5500000000000D+00  0.0000000000000D+00  0.0000000000000D+00
257  2.5600000000000D+00  0.0000000000000D+00  0.0000000000000D+00
258  2.5700000000000D+00  0.0000000000000D+00  0.0000000000000D+00
259  2.5800000000000D+00  0.0000000000000D+00  0.0000000000000D+00
260  2.5900000000000D+00  0.0000000000000D+00  0.0000000000000D+00
261  2.6000000000000D+00  0.0000000000000D+00  0.0000000000000D+00
262  2.6100000000000D+00  0.0000000000000D+00  0.0000000000000D+00
263  2.6200000000000D+00  0.0000000000000D+00  0.0000000000000D+00
264  2.6300000000000D+00  0.0000000000000D+00  0.0000000000000D+00
265  2.6400000000000D+00  0.0000000000000D+00  0.0000000000000D+00
266  2.6500000000000D+00  0.0000000000000D+00  0.0000000000000D+00
267  2.6600000000000D+00  0.0000000000000D+00  0.0000000000000D+00
268  2.6700000000000D+00  0.0000000000000D+00  0.0000000000000D+00
269  2.6800000000000D+00  0.0000000000000D+00  0.0000000000000D+00
270  2.6900000000000D+00  0.0000000000000D+00  0.0000000000000D+00
271  2.7000000000000D+00  0.0000000000000D+00  0.0000000000000D+00
272  2.7100000000000D+00  0.0000000000000D+00  0.0000000000000D+00
273  2.7200000000000D+00  0.0000000000000D+00  0.0000000000000D+00
274  2.7300000000000D+00  0.0000000000000D+00  0.0000000000000D+00
275  2.7400000000000D+00  0.0000000000000D+00  0.0000000000000D+00
276  2.7500000000000D+00  0.0000000000000D+00  0.0000000000000D+00
277  2.7600000000000D+00  0.0000000000000D+00  0.0000000000000D+00
278  2.7700000000000D+00  0.0000000000000D+00  0.0000000000000D+00
279  2.7800000000000D+00  0.0000000000000D+00  0.0000000000000D+00
280  2.7900000000000D+00  0.0000000000000D+00  0.0000000000000D+00
281  2.8000000000000D+00  0.0000000000000D+00  0.0000000000000D+00
282  2.8100000000000D+00  0.0000000000000D+00  0.0000000000000D+00
283  2.8200000000000D+00  0.0000000000000D+00  0.0000000000000D+00
284  2.8300000000000D+00  0.0000000000000D+00  0.0000000000000D+00
285  2.8400000000000D+00  0.0000000000000D+00  0.0000000000000D+00
286  2.8500000000000D+00  0.0000000000000D+00  0.0000000000000D+00
287  2.8600000000000D+00  0.0000000000000D+00  0.0000000000000D+00
288  2.8700000000000D+00  0.0000000000000D+00  0.0000000000000D+00
289  2.8800000000000D+00  0.0000000000000D+00  0.0000000000000D+00
290  2.8900000000000D+00  0.0000000000000D+00  0.0000000000000D+00
291  2.9000000000000D+00  0.0000000000000D+00  0.0000000000000D+00
292  2.9100000000000D+00  0.0000000000000D+00  0.0000000000000D+00
293  2.9200000000000D+00  0.0000000000000D+00  0.0000000000000D+00
294  2.9300000000000D+00  0.0000000000000D+00  0.0000000000000D+00
295  2.9400000000000D+00  0.0000000000000D+00  0.0000000000000D+00
296  2.9500000000000D+00  0.0000000000000D+00  0.0000000000000D+00
297  2.9600000000000D+00  0.0000000000000D+00  0.0000000000000D+00
298  2.9700000000000D+00  0.0000000000000D+00  0.0000000000000D+00
299  2.9800000000000D+00  0.0000000000000D+00  0.0000000000000D+00
300  2.9900000000000D+00  0.0000000000000D+00  0.0000000000000D+00
301  3.0000000000000D+00  0.0000000000000D+00  0.0000000000000D+00
302  3.0100000000000D+00  0.0000000000000D+00  0.0000000000000D+00
303  3.0200000000000D+00  0.0000000000000D+00  0.0000000000000D+00
304  3.0300000000000D+00  0.0000000000000D+00  0.0000000000000D+00
305  3.0400000000000D+00  0.0000000000000D+00  0.0000000000000D+00
306  3.0500000000000D+00  0.0000000000000D+00  0.0000000000000D+00
307  3.0600000000000D+00  0.0000000000000D+00  0.0000000000000D+00
308  3.0700000000000D+00  0.0000000000000D+00  0.0000000000000D+00
309  3.0800000000000D+00  0.0000000000000D+00  0.0000000000000D+00
310  3.0900000000000D+00  0.0000000000000D+00  0.0000000000000D+00
311  3.1000000000000D+00  0.0000000000000D+00  0.0000000000000D+00
312  3.1100000000000D+00  0.0000000000000D+00  0.0000000000000D+00
313  3.1200000000000D+00  0.0000000000000D+00  0.0000000000000D+00
314  3.1300000000000D+00  0.0000000000000D+00  0.0000000000000D+00
315  3.1400000000000D+00  0.0000000000000D+00  0.0000000000000D+00
316  3.1500000000000D+00  0.0000000000000D+00  0.0000000000000D+00
317  3.1600000000000D+00  0.0000000000000D+00  0.0000000000000D+00
318  3.1700000000000D+00  0.0000000000000D+00  0.0000000000000D+00
319  3.1800000000000D+00  0.0000000000000D+00  0.0000000000000D+00
320  3.1900000000000D+00  0.0000000000000D+00  0.0000000000000D+00
321  3.2000000000000D+00  0.0000000000000D+00  0.0000000000000D+00
322  3.2100000000000D+00  0.0000000000000D+00  0.0000000000000D+00
323  3.2200000000000D+00  0.0000000000000D+00  0.0000000000000D+00
324  3.2300000000000D+00  0.0000000000000D+00  0.0000000000000D+00
325  3.2400000000000D+00  0.0000000000000D+00  0.0000000000000D+00
326  3.2500000000000D+00  0.0000000000000D+00  0.0000000000000D+00
327  3.2600000000000D+00  0.0000000000000D+00  0.0000000000000D+00
328  3.2700000000000D+00  0.0000000000000D+00  0.0000000000000D+00
329  3.2800000000000D+00  0.0000000000000D+00  0.0000000000000D+00
330  3.2900000000000D+00  0.0000000000000D+00  0.0000000000000D+00
331  3.3000000000000D+00  0.0000000000000D+00  0.0000000000000D+00
332  3.3100000000000D+00  0.0000000000000D+00  0.0000000000000D+00
333  3.3200000000000D+00  0.0000000000000D+00  0.0000000000000D+00
334  3.3300000000000D+00  0.0000000000000D+00  0.0000000000000D+00
335  3.3400000000000D+00  0.0000000000000D+00  0.0000000000000D+00
336  3.3500000000000D+00  0.0000000000000D+00  0.0000000000000D+00
337  3.3600000000000D+00  0.0000000000000D+00  0.0000000000000D+00
338  3.3700000000000D+00  0.0000000000000D+00  0.0000000000000D+00
339  3.3800000000000D+00  0.0000000000000D+00  0.0000000000000D+00
340  3.3900000000000D+00  0.0000000000000D+00  0.0000000000000D+00
341  3.4000000000000D+00  0.0000000000000D+00  0.0000000000000D+00
342  3.4100000000000D+00  0.0000000000000D+00  0.0000000000000D+00
343  3.4200000000000D+00  0.0000000000000D+00  0.0000000000000D+00
344  3.4300000000000D+00  0.0000000000000D+00  0.0000000000000D+00
345  3.4400000000000D+00  0.0000000000000D+00  0.0000000000000D+00
346  3.4500000000000D+00  0.0000000000000D+00  0.0000000000000D+00
347  3.4600000000000D+00  0.0000000000000D+00  0.0000000000000D+00
348  3.4700000000000D+00  0.0000000000000D+00  0.0000000000000D+00
349  3.4800000000000D+00  0.0000000000000D+00  0.0000000000000D+00
350  3.4900000000000D+00  0.0000000000000D+00  0.0000000000000D+00
351  3.5000000000000D+00  0.0000000000000D+00  0.0000000000000D+00
352  3.5100000000000D+00  0.0000000000000D+00  0.0000000000000D+00
353  3.5200000000000D+00  0.0000000000000D+00  0.0000000000000D+00
354  3.5300000000000D+00  0.0000000000000D+00  0.0000000000000D+00
355  3.5400000000000D+00  0.0000000000000D+00  0.0000000000000D+00
356  3.5500000000000D+00  0.0000000000000D+00  0.0000000000000D+00
357  3.5600000000000D+00  0.0000000000000D+00  0.0000000000000D+00
358  3.5700000000000D+00  0.0000000000000D+00  0.0000000000000D+00
359  3.5800000000000D+00  0.0000000000000D+00  0.0000000000000D+00
360  3.5900000000000D+00  0.0000000000000D+00  0.0000000000000D+00
361  3.6000000000000D+00  0.0000000000000D+00  0.0000000000000D+00
362  3.6100000000000D+00  0.0000000000000D+00  0.0000000000000D+00
363  3.6200000000000D+00  0.0000000000000D+00  0.0000000000000D+00
364  3.6300000000000D+00  0.0000000000000D+00  0.0000000000000D+00
365  3.6400000000000D+00  0.0000000000000D+00  0.0000000000000D+00
366  3.6500000000000D+00  0.0000000000000D+00  0.0000000000000D+00
367  3.6600000000000D+00  0.0000000000000D+00  0.0000000000000D+00
368  3.6700000000000D+00  0.0000000000000D+00  0.0000000000000D+00
369  3.6800000000000D+00  0.0000000000000D+00  0.0000000000000D+00
370  3.6900000000000D+00  0.0000000000000D+00  0.0000000000000D+00
371  3.7000000000000D+00  0.0000000000000D+00  0.0000000000000D+00
372  3.7100000000000D+00  0.0000000000000D+00  0.0000000000000D+00
373  3.7200000000000D+00  0.0000000000000D+00  0.0000000000000D+00
374  3.7300000000000D+00  0.0000000000000D+00  0.0000000000000D+00
375  3.7400000000000D+00  0.0000000000000D+00  0.0000000000000D+00
376  3.7500000000000D+00  0.0000000000000D+00  0.0000000000000D+00
377  3.7600000000000D+00  0.0000000000000D+00  0.0000000000000D+00
378  3.7700000000000D+00  0.0000000000000D+00  0.0000000000000D+00
379  3.7800000000000D+00  0.0000000000000D+00  0.0000000000000D+00
380  3.7900000000000D+00  0.0000000000000D+00  0.0000000000000D+00
381  3.8000000000000D+00  0.0000000000000D+00  0.0000000000000D+00
382  3.8100000000000D+00  0.0000000000000D+00  0.0000000000000D+00
383  3.8200000000000D+00  0.0000000000000D+00  0.0000000000000D+00
384  3.8300000000000D+00  0.0000000000000D+00  0.0000000000000D+00
385  3.8400000000000D+00  0.0000000000000D+00  0.0000000000000D+00
386  3.8500000000000D+00  0.0000000000000D+00  0.0000000000000D+00
387  3.8600000000000D+00  0.0000000000000D+00  0.0000000000000D+00
388  3.8700000000000D+00  0.0000000000000D+00  0.0000000000000D+00
389  3.8800000000000D+00  0.0000000000000D+00  0.0000000000000D+00
390  3.8900000000000D+00  0.0000000000000D+00  0.0000000000000D+00
391  3.9000000000000D+00  0.0000000000000D+00  0.0000000000000D+00
392  3.9100000000000D+00  0.0000000000000D+00  0.0000000000000D+00
393  3.9200000000000D+00  0.0000000000000D+00  0.0000000000000D+00
394  3.9300000000000D+00  0.0000000000000D+00  0.0000000000000D+00
395  3.9400000000000D+00  0.0000000000000D+00  0.0000000000000D+00
396  3.9500000000000D+00  0.0000000000000D+00  0.0000000000000D+00
397  3.9600000000000D+00  0.0000000000000D+00  0.0000000000000D+00
398  3.9700000000000D+00  0.0000000000000D+00  0.0000000000000D+00
399  3.9800000000000D+00  0.0000000000000D+00  0.0000000000000D+00
400  3.9900000000000D+00  0.0000000000000D+00  0.0000000000000D+00
401  4.0000000000000D+00  0.0000000000000D+00  0.0000000000000D+00
402  4.0100000000000D+00  0.0000000000000D+00  0.0000000000000D+00
403  4.0200000000000D+00  0.0000000000000D+00  0.0000000000000D+00
404  4.0300000000000D+00  0.0000000000000D+00  0.0000000000000D+00
405  4.0400000000000D+00  0.0000000000000D+00  0.0000000000000D+00
406  4.0500000000000D+00  0.0000000000000D+00  0.0000000000000D+00
407  4.0600000000000D+00  0.0000000000000D+00  0.0000000000000D+00
408  4.0700000000000D+00  0.0000000000000D+00  0.0000000000000D+00
409  4.0800000000000D+00  0.0000000000000D+00  0.0000000000000D+00
410  4.0900000000000D+00  0.0000000000000D+00  0.0000000000000D+00
411  4.1000000000000D+00  0.0000000000000D+00  0.0000000000000D+00
412  4.1100000000000D+00  0.0000000000000D+00  0.0000000000000D+00
413  4.1200000000000D+00  0.0000000000000D+00  0.0000000000000D+00
414  4.1300000000000D+00  0.0000000000000D+00  0.0000000000000D+00
415  4.1400000000000D+00  0.0000000000000D+00  0.0000000000000D+00
416  4.1500000000000D+00  0.0000000000000D+00  0.0000000000000D+00
417  4.1600000000000D+00  0.0000000000000D+00  0.0000000000000D+00
418  4.1700000000000D+00  0.0000000000000D+00  0.0000000000000D+00
419  4.1800000000000D+00  0.0000000000000D+00  0.0000000000000D+00
420  4.1900000000000D+00  0.0000000000000D+00  0.0000000000000D+00
421  4.2000000000000D+00  0.0000000000000D+00  0.0000000000000D+00
422  4.2100000000000D+00  0.0000000000000D+00  0.0000000000000D+00
423  4.2200000000000D+00  0.0000000000000D+00  0.0000000000000D+00
424  4.2300000000000D+00  0.0000000000000D+00  0.0000000000000D+00
425  4.2400000000000D+00  0.0000000000000D+00  0.0000000000000D+00
426  4.2500000000000D+00  0.0000000000000D+00  0.0000000000000D+00
427  4.2600000000000D+00  0.0000000000000D+00  0.0000000000000D+00
428  4.2700000000000D+00  0.0000000000000D+00  0.0000000000000D+00
429  4.2800000000000D+00  0.0000000000000D+00  0.0000000000000D+00
430  4.2900000000000D+00  0.0000000000000D+00  0.0000000000000D+00
431  4.3000000000000D+00  0.0000000000000D+00  0.0000000000000D+00
432  4.3100000000000D+00  0.0000000000000D+00  0.0000000000000D+00
433  4.3200000000000D+00  0.0000000000000D+00  0.0000000000000D+00
434  4.3300000000000D+00  0.0000000000000D+00  0.0000000000000D+00
435  4.3400000000000D+00  0.0000000000000D+00  0.0000000000000D+00
436  4.3500000000000D+00  0.0000000000000D+00  0.0000000000000D+00
437  4.3600000000000D+00  0.0000000000000D+00  0.0000000000000D+00
438  4.3700000000000D+00  0.0000000000000D+00  0.0000000000000D+00
439  4.3800000000000D+00  0.0000000000000D+00  0.0000000000000D+00
440  4.3900000000000D+00  0.0000000000000D+00  0.0000000000000D+00
441  4.4000000000000D+00  0.0000000000000D+00  0.0000000000000D+00
442  4.4100000000000D+00  0.0000000000000D+00  0.0000000000000D+00
443  4.4200000000000D+00  0.0000000000000D+00  0.0000000000000D+00
444  4.4300000000000D+00  0.0000000000000D+00  0.0000000000000D+00