Rb    ONCVPSP  r_core=  1.65  1.61  1.95
37.0000     19.0000      140905    zatom,zion,pspd
8    11     2     4   601     0    pspcod,pspxc,lmax,lloc,mmax,r2well
6.00000000  0.15000000  0.00000000    rchrg fchrg qchrg
2     2     2     0     0    nproj
0                 extension_switch
0                         7.7593711558786D+00  5.2315983103048D-01
1  0.0000000000000D+00 -0.0000000000000D+00 -0.0000000000000D+00
2  1.0000000000000D-02 -4.6166120311581D-02 -3.0259642246868D-02
3  2.0000000000000D-02 -9.2251425997600D-02 -6.0243185543386D-02
4  3.0000000000000D-02 -1.3817561467006D-01 -8.9677610662795D-02
5  4.0000000000000D-02 -1.8385940292983D-01 -1.1829602261836D-01
6  5.0000000000000D-02 -2.2922502220616D-01 -1.4584062515547D-01
7  6.0000000000000D-02 -2.7419669838030D-01 -1.7206559118091D-01
8  7.0000000000000D-02 -3.1870111006714D-01 -1.9673979623520D-01
9  8.0000000000000D-02 -3.6266782066785D-01 -2.1964938364642D-01
10  9.0000000000000D-02 -4.0602967959912D-01 -2.4060013188159D-01
11  1.0000000000000D-01 -4.4872318843191D-01 -2.5941959672115D-01
12  1.1000000000000D-01 -4.9068882809671D-01 -2.7595900358512D-01
13  1.2000000000000D-01 -5.3187134369632D-01 -2.9009486783209D-01
14  1.3000000000000D-01 -5.7221998398949D-01 -3.0173032417631D-01
15  1.4000000000000D-01 -6.1168869306732D-01 -3.1079614934161D-01
16  1.5000000000000D-01 -6.5023625231967D-01 -3.1725146573618D-01
17  1.6000000000000D-01 -6.8782637131676D-01 -3.2108411734075D-01
18  1.7000000000000D-01 -7.2442772681104D-01 -3.2231071270665D-01
19  1.8000000000000D-01 -7.6001394962744D-01 -3.2097633362569D-01
20  1.9000000000000D-01 -7.9456355984358D-01 -3.1715391210707D-01
21  2.0000000000000D-01 -8.2805985119493D-01 -3.1094328136013D-01
22  2.1000000000000D-01 -8.6049072629073D-01 -3.0246991178548D-01
23  2.2000000000000D-01 -8.9184848451925D-01 -2.9188334275711D-01
24  2.3000000000000D-01 -9.2212956573582D-01 -2.7935533172159D-01
25  2.4000000000000D-01 -9.5133425192959D-01 -2.6507773285213D-01
26  2.5000000000000D-01 -9.7946633195918D-01 -2.4926014017239D-01
27  2.6000000000000D-01 -1.0065327315360D+00 -2.3212730683650D-01
28  2.7000000000000D-01 -1.0325431156238D+00 -2.1391638930879D-01
29  2.8000000000000D-01 -1.0575094632074D+00 -1.9487401235843D-01
30  2.9000000000000D-01 -1.0814456258777D+00 -1.7525323324423D-01
31  3.0000000000000D-01 -1.1043668705823D+00 -1.5531040362543D-01
32  3.1000000000000D-01 -1.1262894154147D+00 -1.3530198855246D-01
33  3.2000000000000D-01 -1.1472299570663D+00 -1.1548133004405D-01
34  3.3000000000000D-01 -1.1672052077801D+00 -9.6095476436807D-02
35  3.4000000000000D-01 -1.1862314427526D+00 -7.7382080737302D-02
36  3.5000000000000D-01 -1.2043240417244D+00 -5.9566253345247D-02
37  3.6000000000000D-01 -1.2214970845839D+00 -4.2857780175341D-02
38  3.7000000000000D-01 -1.2377629339851D+00 -2.7448240540553D-02
39  3.8000000000000D-01 -1.2531318744014D+00 -1.3508502415216D-02
40  3.9000000000000D-01 -1.2676117774548D+00 -1.1863846327509D-03
41  4.0000000000000D-01 -1.2812078056047D+00  9.3954322392721D-03
42  4.1000000000000D-01 -1.2939221506304D+00  1.8141273292094D-02
43  4.2000000000000D-01 -1.3057538335582D+00  2.4983931074754D-02
44  4.3000000000000D-01 -1.3166985449316D+00  2.9885869458043D-02
45  4.4000000000000D-01 -1.3267485376723D+00  3.2840085579409D-02
46  4.5000000000000D-01 -1.3358925749265D+00  3.3870613481575D-02
47  4.6000000000000D-01 -1.3441159329163D+00  3.3032668982089D-02
48  4.7000000000000D-01 -1.3514004510982D+00  3.0412493712063D-02
49  4.8000000000000D-01 -1.3577246532640D+00  2.6126725140082D-02
50  4.9000000000000D-01 -1.3630639140601D+00  2.0321476083873D-02
51  5.0000000000000D-01 -1.3673906825199D+00  1.3171032073929D-02
52  5.1000000000000D-01 -1.3706747476488D+00  4.8762945996060D-03
53  5.2000000000000D-01 -1.3728835716751D+00 -4.3372385713894D-03
54  5.3000000000000D-01 -1.3739826521630D+00 -1.4221706659051D-02
55  5.4000000000000D-01 -1.3739359432810D+00 -2.4509443490992D-02
56  5.5000000000000D-01 -1.3727063012456D+00 -3.4915778989498D-02
57  5.6000000000000D-01 -1.3702559676896D+00 -4.5142044650228D-02
58  5.7000000000000D-01 -1.3665471027603D+00 -5.4878919078739D-02
59  5.8000000000000D-01 -1.3615422954384D+00 -6.3809663095714D-02
60  5.9000000000000D-01 -1.3552051505575D+00 -7.1613829313818D-02
61  6.0000000000000D-01 -1.3475008571601D+00 -7.7970884069798D-02
62  6.1000000000000D-01 -1.3383966995807D+00 -8.2563499382547D-02
63  6.2000000000000D-01 -1.3278627868677D+00 -8.5082188565054D-02
64  6.3000000000000D-01 -1.3158724223286D+00 -8.5227760794455D-02
65  6.4000000000000D-01 -1.3024028072632D+00 -8.2715837196132D-02
66  6.5000000000000D-01 -1.2874355767533D+00 -7.7280357137571D-02
67  6.6000000000000D-01 -1.2709571932855D+00 -6.8676203869474D-02
68  6.7000000000000D-01 -1.2529594866361D+00 -5.6682757461102D-02
69  6.8000000000000D-01 -1.2334402242508D+00 -4.1107674120894D-02
70  6.9000000000000D-01 -1.2124033315047D+00 -2.1788463372104D-02
71  7.0000000000000D-01 -1.1898592991941D+00  1.4047332156686D-03
72  7.1000000000000D-01 -1.1658254294143D+00  2.8567375883368D-02
73  7.2000000000000D-01 -1.1403263041861D+00  5.9757279578801D-02
74  7.3000000000000D-01 -1.1133937319491D+00  9.4994722768042D-02
75  7.4000000000000D-01 -1.0850669442484D+00  1.3426090994647D-01
76  7.5000000000000D-01 -1.0553926530606D+00  1.7749730382611D-01
77  7.6000000000000D-01 -1.0244250407588D+00  2.2460536243502D-01
78  7.7000000000000D-01 -9.9222568076682D-01  2.7544669400009D-01
79  7.8000000000000D-01 -9.5886336469085D-01  3.2984380642021D-01
80  7.9000000000000D-01 -9.2441398127232D-01  3.8758040491474D-01
81  8.0000000000000D-01 -8.8896012596131D-01  4.4840352475608D-01
82  8.1000000000000D-01 -8.5259079232387D-01  5.1202502603646D-01
83  8.2000000000000D-01 -8.1540096205025D-01  5.7812373173190D-01
84  8.3000000000000D-01 -7.7749113520575D-01  6.4634792233563D-01
85  8.4000000000000D-01 -7.3896680446364D-01  7.1631816362633D-01
86  8.5000000000000D-01 -6.9993787764685D-01  7.8763044050913D-01
87  8.6000000000000D-01 -6.6051805345443D-01  8.5985956649817D-01
88  8.7000000000000D-01 -6.2082415575624D-01  9.3256283531091D-01
89  8.8000000000000D-01 -5.8097543230521D-01  1.0052838782314D+00
90  8.9000000000000D-01 -5.4109282413541D-01  1.0775566883963D+00
91  9.0000000000000D-01 -5.0129821228264D-01  1.1489097709909D+00
92  9.1000000000000D-01 -4.6171364877538D-01  1.2188703765606D+00
93  9.2000000000000D-01 -4.2246067914680D-01  1.2869682779884D+00
94  9.3000000000000D-01 -3.8365931394025D-01  1.3527412569719D+00
95  9.4000000000000D-01 -3.4542744026437D-01  1.4157384413949D+00
96  9.5000000000000D-01 -3.0788002221269D-01  1.4755246151491D+00
97  9.6000000000000D-01 -2.7112834967171D-01  1.5316842638402D+00
98  9.7000000000000D-01 -2.3527932230158D-01  1.5838254027507D+00
99  9.8000000000000D-01 -2.0043476818267D-01  1.6315831818081D+00
100  9.9000000000000D-01 -1.6669080377518D-01  1.6746232284806D+00
101  1.0000000000000D+00 -1.3413748078901D-01  1.7126434736885D+00
102  1.0100000000000D+00 -1.0285774330715D-01  1.7453794491521D+00
103  1.0200000000000D+00 -7.2926935625411D-02  1.7726066807394D+00
104  1.0300000000000D+00 -4.4412787808920D-02  1.7941405905533D+00
105  1.0400000000000D+00 -1.7374875189420D-02  1.8098390173019D+00
106  1.0500000000000D+00  8.1356709797378D-03  1.8196033897574D+00
107  1.0600000000000D+00  3.2075735948182D-02  1.8233763508492D+00
108  1.0700000000000D+00  5.4412478024756D-02  1.8211524206111D+00
109  1.0800000000000D+00  7.5121410223638D-02  1.8129679754367D+00
110  1.0900000000000D+00  9.4186970861418D-02  1.7989035303224D+00
111  1.1000000000000D+00  1.1160216339111D-01  1.7790814930145D+00
112  1.1100000000000D+00  1.2736906569606D-01  1.7536679084591D+00
113  1.1200000000000D+00  1.4149902201681D-01  1.7228721133081D+00
114  1.1300000000000D+00  1.5401120061296D-01  1.6869393342756D+00
115  1.1400000000000D+00  1.6493247715210D-01  1.6461495167687D+00
116  1.1500000000000D+00  1.7429767049178D-01  1.6008172815622D+00
117  1.1600000000000D+00  1.8214934891295D-01  1.5512888596938D+00
118  1.1700000000000D+00  1.8853626313420D-01  1.4979349093976D+00
119  1.1800000000000D+00  1.9351310223429D-01  1.4411492662201D+00
120  1.1900000000000D+00  1.9714087536448D-01  1.3813466121518D+00
121  1.2000000000000D+00  1.9948527159184D-01  1.3189550930755D+00
122  1.2100000000000D+00  2.0061621954492D-01  1.2544148121699D+00
123  1.2200000000000D+00  2.0060770008776D-01  1.1881747292604D+00
124  1.2300000000000D+00  1.9953645491386D-01  1.1206823042744D+00
125  1.2400000000000D+00  1.9748160993635D-01  1.0523859275246D+00
126  1.2500000000000D+00  1.9452465761683D-01  9.8373382523497D-01
127  1.2600000000000D+00  1.9074700588571D-01  9.1515392517408D-01
128  1.2700000000000D+00  1.8623094686463D-01  8.4706672900254D-01
129  1.2800000000000D+00  1.8105959772172D-01  7.7988365576941D-01
130  1.2900000000000D+00  1.7531303626248D-01  7.1397847324798D-01
131  1.3000000000000D+00  1.6907130076610D-01  6.4971307226683D-01
132  1.3100000000000D+00  1.6241324446075D-01  5.8742791592961D-01
133  1.3200000000000D+00  1.5541258683473D-01  5.2741579733253D-01
134  1.3300000000000D+00  1.4814274087687D-01  4.6995721312942D-01
135  1.3400000000000D+00  1.4067288538280D-01  4.1529281013526D-01
136  1.3500000000000D+00  1.3306681260567D-01  3.6361827035780D-01
137  1.3600000000000D+00  1.2538813573204D-01  3.1511839228058D-01
138  1.3700000000000D+00  1.1769206397731D-01  2.6991488392638D-01
139  1.3800000000000D+00  1.1003121238858D-01  2.2810545946295D-01
140  1.3900000000000D+00  1.0245538382327D-01  1.8976111587038D-01
141  1.4000000000000D+00  9.5005372645059D-02  1.5489186905536D-01
142  1.4100000000000D+00  8.7722233888231D-02  1.2350120703191D-01
143  1.4200000000000D+00  8.0638646041400D-02  9.5537472630938D-02
144  1.4300000000000D+00  7.3784093380024D-02  7.0925708735510D-02
145  1.4400000000000D+00  6.7185238224191D-02  4.9567437812718D-02
146  1.4500000000000D+00  6.0860779573414D-02  3.1319895619092D-02
147  1.4600000000000D+00  5.4830210934210D-02  1.6036066982828D-02
148  1.4700000000000D+00  4.9104732238462D-02  3.5275704465430D-03
149  1.4800000000000D+00  4.3695336936846D-02 -6.3996640442738D-03
150  1.4900000000000D+00  3.8608498557466D-02 -1.3962730332333D-02
151  1.5000000000000D+00  3.3847894960610D-02 -1.9387910534493D-02
152  1.5100000000000D+00  2.9415927854129D-02 -2.2913763744120D-02
153  1.5200000000000D+00  2.5311164597585D-02 -2.4779734133513D-02
154  1.5300000000000D+00  2.1532527661634D-02 -2.5237258258713D-02
155  1.5400000000000D+00  1.8075764085159D-02 -2.4523495594031D-02
156  1.5500000000000D+00  1.4937003621557D-02 -2.2886500718171D-02
157  1.5600000000000D+00  1.2110986285326D-02 -2.0553403804926D-02
158  1.5700000000000D+00  9.5925355070209D-03 -1.7752566172222D-02
159  1.5800000000000D+00  7.3762087210386D-03 -1.4692839769279D-02
160  1.5900000000000D+00  5.4570067295729D-03 -1.1569731799698D-02
161  1.6000000000000D+00  3.8299860050508D-03 -8.5663300571924D-03
162  1.6100000000000D+00  2.4914270255256D-03 -5.8354397317561D-03
163  1.6200000000000D+00  1.4371857680838D-03 -3.5294308456887D-03
164  1.6300000000000D+00  6.6634254855534D-04 -1.7461153659333D-03
165  1.6400000000000D+00  2.0528091962520D-04 -6.6868241373816D-04
166  1.6500000000000D+00 -1.1412779798277D-05 -1.4324403698444D-04
167  1.6600000000000D+00 -5.7201657065488D-05  3.6055610880179D-05
168  1.6700000000000D+00 -1.2080311099393D-05  1.4694773755733D-05
169  1.6800000000000D+00  2.2231930517778D-06  5.5913051462501D-06
170  1.6900000000000D+00  5.6782004224103D-07  1.4280609242582D-06
171  1.7000000000000D+00  0.0000000000000D+00  0.0000000000000D+00
172  1.7100000000000D+00  0.0000000000000D+00  0.0000000000000D+00
173  1.7200000000000D+00  0.0000000000000D+00  0.0000000000000D+00
174  1.7300000000000D+00  0.0000000000000D+00  0.0000000000000D+00
175  1.7400000000000D+00  0.0000000000000D+00  0.0000000000000D+00
176  1.7500000000000D+00  0.0000000000000D+00  0.0000000000000D+00
177  1.7600000000000D+00  0.0000000000000D+00  0.0000000000000D+00
178  1.7700000000000D+00  0.0000000000000D+00  0.0000000000000D+00
179  1.7800000000000D+00  0.0000000000000D+00  0.0000000000000D+00
180  1.7900000000000D+00  0.0000000000000D+00  0.0000000000000D+00
181  1.8000000000000D+00  0.0000000000000D+00  0.0000000000000D+00
182  1.8100000000000D+00  0.0000000000000D+00  0.0000000000000D+00
183  1.8200000000000D+00  0.0000000000000D+00  0.0000000000000D+00
184  1.8300000000000D+00  0.0000000000000D+00  0.0000000000000D+00
185  1.8400000000000D+00  0.0000000000000D+00  0.0000000000000D+00
186  1.8500000000000D+00  0.0000000000000D+00  0.0000000000000D+00
187  1.8600000000000D+00  0.0000000000000D+00  0.0000000000000D+00
188  1.8700000000000D+00  0.0000000000000D+00  0.0000000000000D+00
189  1.8800000000000D+00  0.0000000000000D+00  0.0000000000000D+00
190  1.8900000000000D+00  0.0000000000000D+00  0.0000000000000D+00
191  1.9000000000000D+00  0.0000000000000D+00  0.0000000000000D+00
192  1.9100000000000D+00  0.0000000000000D+00  0.0000000000000D+00
193  1.9200000000000D+00  0.0000000000000D+00  0.0000000000000D+00
194  1.9300000000000D+00  0.0000000000000D+00  0.0000000000000D+00
195  1.9400000000000D+00  0.0000000000000D+00  0.0000000000000D+00
196  1.9500000000000D+00  0.0000000000000D+00  0.0000000000000D+00
197  1.9600000000000D+00  0.0000000000000D+00  0.0000000000000D+00
198  1.9700000000000D+00  0.0000000000000D+00  0.0000000000000D+00
199  1.9800000000000D+00  0.0000000000000D+00  0.0000000000000D+00
200  1.9900000000000D+00  0.0000000000000D+00  0.0000000000000D+00
201  2.0000000000000D+00  0.0000000000000D+00  0.0000000000000D+00
202  2.0100000000000D+00  0.0000000000000D+00  0.0000000000000D+00
203  2.0200000000000D+00  0.0000000000000D+00  0.0000000000000D+00
204  2.0300000000000D+00  0.0000000000000D+00  0.0000000000000D+00
205  2.0400000000000D+00  0.0000000000000D+00  0.0000000000000D+00
206  2.0500000000000D+00  0.0000000000000D+00  0.0000000000000D+00
207  2.0600000000000D+00  0.0000000000000D+00  0.0000000000000D+00
208  2.0700000000000D+00  0.0000000000000D+00  0.0000000000000D+00
209  2.0800000000000D+00  0.0000000000000D+00  0.0000000000000D+00
210  2.0900000000000D+00  0.0000000000000D+00  0.0000000000000D+00
211  2.1000000000000D+00  0.0000000000000D+00  0.0000000000000D+00
212  2.1100000000000D+00  0.0000000000000D+00  0.0000000000000D+00
213  2.1200000000000D+00  0.0000000000000D+00  0.0000000000000D+00
214  2.1300000000000D+00  0.0000000000000D+00  0.0000000000000D+00
215  2.1400000000000D+00  0.0000000000000D+00  0.0000000000000D+00
216  2.1500000000000D+00  0.0000000000000D+00  0.0000000000000D+00
217  2.1600000000000D+00  0.0000000000000D+00  0.0000000000000D+00
218  2.1700000000000D+00  0.0000000000000D+00  0.0000000000000D+00
219  2.1800000000000D+00  0.0000000000000D+00  0.0000000000000D+00
220  2.1900000000000D+00  0.0000000000000D+00  0.0000000000000D+00
221  2.2000000000000D+00  0.0000000000000D+00  0.0000000000000D+00
222  2.2100000000000D+00  0.0000000000000D+00  0.0000000000000D+00
223  2.2200000000000D+00  0.0000000000000D+00  0.0000000000000D+00
224  2.2300000000000D+00  0.0000000000000D+00  0.0000000000000D+00
225  2.2400000000000D+00  0.0000000000000D+00  0.0000000000000D+00
226  2.2500000000000D+00  0.0000000000000D+00  0.0000000000000D+00
227  2.2600000000000D+00  0.0000000000000D+00  0.0000000000000D+00
228  2.2700000000000D+00  0.0000000000000D+00  0.0000000000000D+00
229  2.2800000000000D+00  0.0000000000000D+00  0.0000000000000D+00
230  2.2900000000000D+00  0.0000000000000D+00  0.0000000000000D+00
231  2.3000000000000D+00  0.0000000000000D+00  0.0000000000000D+00
232  2.3100000000000D+00  0.0000000000000D+00  0.0000000000000D+00
233  2.3200000000000D+00  0.0000000000000D+00  0.0000000000000D+00
234  2.3300000000000D+00  0.0000000000000D+00  0.0000000000000D+00
235  2.3400000000000D+00  0.0000000000000D+00  0.0000000000000D+00
236  2.3500000000000D+00  0.0000000000000D+00  0.0000000000000D+00
237  2.3600000000000D+00  0.0000000000000D+00  0.0000000000000D+00
238  2.3700000000000D+00  0.0000000000000D+00  0.0000000000000D+00
239  2.3800000000000D+00  0.0000000000000D+00  0.0000000000000D+00
240  2.3900000000000D+00  0.0000000000000D+00  0.0000000000000D+00
241  2.4000000000000D+00  0.0000000000000D+00  0.0000000000000D+00
242  2.4100000000000D+00  0.0000000000000D+00  0.0000000000000D+00
243  2.4200000000000D+00  0.0000000000000D+00  0.0000000000000D+00
244  2.4300000000000D+00  0.0000000000000D+00  0.0000000000000D+00
245  2.4400000000000D+00  0.0000000000000D+00  0.0000000000000D+00
246  2.4500000000000D+00  0.0000000000000D+00  0.0000000000000D+00
247  2.4600000000000D+00  0.0000000000000D+00  0.0000000000000D+00
248  2.4700000000000D+00  0.0000000000000D+00  0.0000000000000D+00
249  2.4800000000000D+00  0.0000000000000D+00  0.0000000000000D+00
250  2.4900000000000D+00  0.0000000000000D+00  0.0000000000000D+00
251  2.5000000000000D+00  0.0000000000000D+00  0.0000000000000D+00
252  2.5100000000000D+00  0.0000000000000D+00  0.0000000000000D+00
253  2.5200000000000D+00  0.0000000000000D+00  0.0000000000000D+00
254  2.5300000000000D+00  0.0000000000000D+00  0.0000000000000D+00
255  2.5400000000000D+00  0.0000000000000D+00  0.0000000000000D+00
256  2.5500000000000D+00  0.0000000000000D+00  0.0000000000000D+00
257  2.5600000000000D+00  0.0000000000000D+00  0.0000000000000D+00
258  2.5700000000000D+00  0.0000000000000D+00  0.0000000000000D+00
259  2.5800000000000D+00  0.0000000000000D+00  0.0000000000000D+00
260  2.5900000000000D+00  0.0000000000000D+00  0.0000000000000D+00
261  2.6000000000000D+00  0.0000000000000D+00  0.0000000000000D+00
262  2.6100000000000D+00  0.0000000000000D+00  0.0000000000000D+00
263  2.6200000000000D+00  0.0000000000000D+00  0.0000000000000D+00
264  2.6300000000000D+00  0.0000000000000D+00  0.0000000000000D+00
265  2.6400000000000D+00  0.0000000000000D+00  0.0000000000000D+00
266  2.6500000000000D+00  0.0000000000000D+00  0.0000000000000D+00
267  2.6600000000000D+00  0.0000000000000D+00  0.0000000000000D+00
268  2.6700000000000D+00  0.0000000000000D+00  0.0000000000000D+00
269  2.6800000000000D+00  0.0000000000000D+00  0.0000000000000D+00
270  2.6900000000000D+00  0.0000000000000D+00  0.0000000000000D+00
271  2.7000000000000D+00  0.0000000000000D+00  0.0000000000000D+00
272  2.7100000000000D+00  0.0000000000000D+00  0.0000000000000D+00
273  2.7200000000000D+00  0.0000000000000D+00  0.0000000000000D+00
274  2.7300000000000D+00  0.0000000000000D+00  0.0000000000000D+00
275  2.7400000000000D+00  0.0000000000000D+00  0.0000000000000D+00
276  2.7500000000000D+00  0.0000000000000D+00  0.0000000000000D+00
277  2.7600000000000D+00  0.0000000000000D+00  0.0000000000000D+00
278  2.7700000000000D+00  0.0000000000000D+00  0.0000000000000D+00
279  2.7800000000000D+00  0.0000000000000D+00  0.0000000000000D+00
280  2.7900000000000D+00  0.0000000000000D+00  0.0000000000000D+00
281  2.8000000000000D+00  0.0000000000000D+00  0.0000000000000D+00
282  2.8100000000000D+00  0.0000000000000D+00  0.0000000000000D+00
283  2.8200000000000D+00  0.0000000000000D+00  0.0000000000000D+00
284  2.8300000000000D+00  0.0000000000000D+00  0.0000000000000D+00
285  2.8400000000000D+00  0.0000000000000D+00  0.0000000000000D+00
286  2.8500000000000D+00  0.0000000000000D+00  0.0000000000000D+00
287  2.8600000000000D+00  0.0000000000000D+00  0.0000000000000D+00
288  2.8700000000000D+00  0.0000000000000D+00  0.0000000000000D+00
289  2.8800000000000D+00  0.0000000000000D+00  0.0000000000000D+00
290  2.8900000000000D+00  0.0000000000000D+00  0.0000000000000D+00
291  2.9000000000000D+00  0.0000000000000D+00  0.0000000000000D+00
292  2.9100000000000D+00  0.0000000000000D+00  0.0000000000000D+00
293  2.9200000000000D+00  0.0000000000000D+00  0.0000000000000D+00
294  2.9300000000000D+00  0.0000000000000D+00  0.0000000000000D+00
295  2.9400000000000D+00  0.0000000000000D+00  0.0000000000000D+00
296  2.9500000000000D+00  0.0000000000000D+00  0.0000000000000D+00
297  2.9600000000000D+00  0.0000000000000D+00  0.0000000000000D+00
298  2.9700000000000D+00  0.0000000000000D+00  0.0000000000000D+00
299  2.9800000000000D+00  0.0000000000000D+00  0.0000000000000D+00
300  2.9900000000000D+00  0.0000000000000D+00  0.0000000000000D+00
301  3.0000000000000D+00  0.0000000000000D+00  0.0000000000000D+00
302  3.0100000000000D+00  0.0000000000000D+00  0.0000000000000D+00
303  3.0200000000000D+00  0.0000000000000D+00  0.0000000000000D+00
304  3.0300000000000D+00  0.0000000000000D+00  0.0000000000000D+00
305  3.0400000000000D+00  0.0000000000000D+00  0.0000000000000D+00
306  3.0500000000000D+00  0.0000000000000D+00  0.0000000000000D+00
307  3.0600000000000D+00  0.0000000000000D+00  0.0000000000000D+00
308  3.0700000000000D+00  0.0000000000000D+00  0.0000000000000D+00
309  3.0800000000000D+00  0.0000000000000D+00  0.0000000000000D+00
310  3.0900000000000D+00  0.0000000000000D+00  0.0000000000000D+00
311  3.1000000000000D+00  0.0000000000000D+00  0.0000000000000D+00
312  3.1100000000000D+00  0.0000000000000D+00  0.0000000000000D+00
313  3.1200000000000D+00  0.0000000000000D+00  0.0000000000000D+00
314  3.1300000000000D+00  0.0000000000000D+00  0.0000000000000D+00
315  3.1400000000000D+00  0.0000000000000D+00  0.0000000000000D+00
316  3.1500000000000D+00  0.0000000000000D+00  0.0000000000000D+00
317  3.1600000000000D+00  0.0000000000000D+00  0.0000000000000D+00
318  3.1700000000000D+00  0.0000000000000D+00  0.0000000000000D+00
319  3.1800000000000D+00  0.0000000000000D+00  0.0000000000000D+00
320  3.1900000000000D+00  0.0000000000000D+00  0.0000000000000D+00
321  3.2000000000000D+00  0.0000000000000D+00  0.0000000000000D+00
322  3.2100000000000D+00  0.0000000000000D+00  0.0000000000000D+00
323  3.2200000000000D+00  0.0000000000000D+00  0.0000000000000D+00
324  3.2300000000000D+00  0.0000000000000D+00  0.0000000000000D+00
325  3.2400000000000D+00  0.0000000000000D+00  0.0000000000000D+00
326  3.2500000000000D+00  0.0000000000000D+00  0.0000000000000D+00
327  3.2600000000000D+00  0.0000000000000D+00  0.0000000000000D+00
328  3.2700000000000D+00  0.0000000000000D+00  0.0000000000000D+00
329  3.2800000000000D+00  0.0000000000000D+00  0.0000000000000D+00
330  3.2900000000000D+00  0.0000000000000D+00  0.0000000000000D+00
331  3.3000000000000D+00  0.0000000000000D+00  0.0000000000000D+00
332  3.3100000000000D+00  0.0000000000000D+00  0.0000000000000D+00
333  3.3200000000000D+00  0.0000000000000D+00  0.0000000000000D+00
334  3.3300000000000D+00  0.0000000000000D+00  0.0000000000000D+00
335  3.3400000000000D+00  0.0000000000000D+00  0.0000000000000D+00
336  3.3500000000000D+00  0.0000000000000D+00  0.0000000000000D+00
337  3.3600000000000D+00  0.0000000000000D+00  0.0000000000000D+00
338  3.3700000000000D+00  0.0000000000000D+00  0.0000000000000D+00
339  3.3800000000000D+00  0.0000000000000D+00  0.0000000000000D+00
340  3.3900000000000D+00  0.0000000000000D+00  0.0000000000000D+00
341  3.4000000000000D+00  0.0000000000000D+00  0.0000000000000D+00
342  3.4100000000000D+00  0.0000000000000D+00  0.0000000000000D+00
343  3.4200000000000D+00  0.0000000000000D+00  0.0000000000000D+00
344  3.4300000000000D+00  0.0000000000000D+00  0.0000000000000D+00
345  3.4400000000000D+00  0.0000000000000D+00  0.0000000000000D+00
346  3.4500000000000D+00  0.0000000000000D+00  0.0000000000000D+00
347  3.4600000000000D+00  0.0000000000000D+00  0.0000000000000D+00
348  3.4700000000000D+00  0.0000000000000D+00  0.0000000000000D+00
349  3.4800000000000D+00  0.0000000000000D+00  0.0000000000000D+00
350  3.4900000000000D+00  0.0000000000000D+00  0.0000000000000D+00
351  3.5000000000000D+00  0.0000000000000D+00  0.0000000000000D+00
352  3.5100000000000D+00  0.0000000000000D+00  0.0000000000000D+00
353  3.5200000000000D+00  0.0000000000000D+00  0.0000000000000D+00
354  3.5300000000000D+00  0.0000000000000D+00  0.0000000000000D+00
355  3.5400000000000D+00  0.0000000000000D+00  0.0000000000000D+00
356  3.5500000000000D+00  0.0000000000000D+00  0.0000000000000D+00
357  3.5600000000000D+00  0.0000000000000D+00  0.0000000000000D+00
358  3.5700000000000D+00  0.0000000000000D+00  0.0000000000000D+00
359  3.5800000000000D+00  0.0000000000000D+00  0.0000000000000D+00
360  3.5900000000000D+00  0.0000000000000D+00  0.0000000000000D+00
361  3.6000000000000D+00  0.0000000000000D+00  0.0000000000000D+00
362  3.6100000000000D+00  0.0000000000000D+00  0.0000000000000D+00
363  3.6200000000000D+00  0.0000000000000D+00  0.0000000000000D+00
364  3.6300000000000D+00  0.0000000000000D+00  0.0000000000000D+00
365  3.6400000000000D+00  0.0000000000000D+00  0.0000000000000D+00
366  3.6500000000000D+00  0.0000000000000D+00  0.0000000000000D+00
367  3.6600000000000D+00  0.0000000000000D+00  0.0000000000000D+00
368  3.6700000000000D+00  0.0000000000000D+00  0.0000000000000D+00
369  3.6800000000000D+00  0.0000000000000D+00  0.0000000000000D+00
370  3.6900000000000D+00  0.0000000000000D+00  0.0000000000000D+00
371  3.7000000000000D+00  0.0000000000000D+00  0.0000000000000D+00
372  3.7100000000000D+00  0.0000000000000D+00  0.0000000000000D+00
373  3.7200000000000D+00  0.0000000000000D+00  0.0000000000000D+00
374  3.7300000000000D+00  0.0000000000000D+00  0.0000000000000D+00
375  3.7400000000000D+00  0.0000000000000D+00  0.0000000000000D+00
376  3.7500000000000D+00  0.0000000000000D+00  0.0000000000000D+00
377  3.7600000000000D+00  0.0000000000000D+00  0.0000000000000D+00
378  3.7700000000000D+00  0.0000000000000D+00  0.0000000000000D+00
379  3.7800000000000D+00  0.0000000000000D+00  0.0000000000000D+00
380  3.7900000000000D+00  0.0000000000000D+00  0.0000000000000D+00
381  3.8000000000000D+00  0.0000000000000D+00  0.0000000000000D+00
382  3.8100000000000D+00  0.0000000000000D+00  0.0000000000000D+00
383  3.8200000000000D+00  0.0000000000000D+00  0.0000000000000D+00
384  3.8300000000000D+00  0.0000000000000D+00  0.0000000000000D+00
385  3.8400000000000D+00  0.0000000000000D+00  0.0000000000000D+00
386  3.8500000000000D+00  0.0000000000000D+00  0.0000000000000D+00
387  3.8600000000000D+00  0.0000000000000D+00  0.0000000000000D+00
388  3.8700000000000D+00  0.0000000000000D+00  0.0000000000000D+00
389  3.8800000000000D+00  0.0000000000000D+00  0.0000000000000D+00
390  3.8900000000000D+00  0.0000000000000D+00  0.0000000000000D+00
391  3.9000000000000D+00  0.0000000000000D+00  0.0000000000000D+00
392  3.9100000000000D+00  0.0000000000000D+00  0.0000000000000D+00
393  3.9200000000000D+00  0.0000000000000D+00  0.0000000000000D+00
394  3.9300000000000D+00  0.0000000000000D+00  0.0000000000000D+00
395  3.9400000000000D+00  0.0000000000000D+00  0.0000000000000D+00
396  3.9500000000000D+00  0.0000000000000D+00  0.0000000000000D+00
397  3.9600000000000D+00  0.0000000000000D+00  0.0000000000000D+00
398  3.9700000000000D+00  0.0000000000000D+00  0.0000000000000D+00
399  3.9800000000000D+00  0.0000000000000D+00  0.0000000000000D+00
400  3.9900000000000D+00  0.0000000000000D+00  0.0000000000000D+00
401  4.0000000000000D+00  0.0000000000000D+00  0.0000000000000D+00
402  4.0100000000000D+00  0.0000000000000D+00  0.0000000000000D+00
403  4.0200000000000D+00  0.0000000000000D+00  0.0000000000000D+00
404  4.0300000000000D+00  0.0000000000000D+00  0.0000000000000D+00
405  4.0400000000000D+00  0.0000000000000D+00  0.0000000000000D+00
406  4.0500000000000D+00  0.0000000000000D+00  0.0000000000000D+00
407  4.0600000000000D+00  0.0000000000000D+00  0.0000000000000D+00
408  4.0700000000000D+00  0.0000000000000D+00  0.0000000000000D+00
409  4.0800000000000D+00  0.0000000000000D+00  0.0000000000000D+00
410  4.0900000000000D+00  0.0000000000000D+00  0.0000000000000D+00
411  4.1000000000000D+00  0.0000000000000D+00  0.0000000000000D+00
412  4.1100000000000D+00  0.0000000000000D+00  0.0000000000000D+00
413  4.1200000000000D+00  0.0000000000000D+00  0.0000000000000D+00
414  4.1300000000000D+00  0.0000000000000D+00  0.0000000000000D+00
415  4.1400000000000D+00  0.0000000000000D+00  0.0000000000000D+00
416  4.1500000000000D+00  0.0000000000000D+00  0.0000000000000D+00
417  4.1600000000000D+00  0.0000000000000D+00  0.0000000000000D+00
418  4.1700000000000D+00  0.0000000000000D+00  0.0000000000000D+00
419  4.1800000000000D+00  0.0000000000000D+00  0.0000000000000D+00
420  4.1900000000000D+00  0.0000000000000D+00  0.0000000000000D+00
421  4.2000000000000D+00  0.0000000000000D+00  0.0000000000000D+00
422  4.2100000000000D+00  0.0000000000000D+00  0.0000000000000D+00
423  4.2200000000000D+00  0.0000000000000D+00  0.0000000000000D+00
424  4.2300000000000D+00  0.0000000000000D+00  0.0000000000000D+00
425  4.2400000000000D+00  0.0000000000000D+00  0.0000000000000D+00
426  4.2500000000000D+00  0.0000000000000D+00  0.0000000000000D+00
427  4.2600000000000D+00  0.0000000000000D+00  0.0000000000000D+00
428  4.2700000000000D+00  0.0000000000000D+00  0.0000000000000D+00
429  4.2800000000000D+00  0.0000000000000D+00  0.0000000000000D+00
430  4.2900000000000D+00  0.0000000000000D+00  0.0000000000000D+00
431  4.3000000000000D+00  0.0000000000000D+00  0.0000000000000D+00
432  4.3100000000000D+00  0.0000000000000D+00  0.0000000000000D+00
433  4.3200000000000D+00  0.0000000000000D+00  0.0000000000000D+00
434  4.3300000000000D+00  0.0000000000000D+00  0.0000000000000D+00
435  4.3400000000000D+00  0.0000000000000D+00  0.0000000000000D+00
436  4.3500000000000D+00  0.0000000000000D+00  0.0000000000000D+00
437  4.3600000000000D+00  0.0000000000000D+00  0.0000000000000D+00
438  4.3700000000000D+00  0.0000000000000D+00  0.0000000000000D+00
439  4.3800000000000D+00  0.0000000000000D+00  0.0000000000000D+00
440  4.3900000000000D+00  0.0000000000000D+00  0.0000000000000D+00
441  4.4000000000000D+00  0.0000000000000D+00  0.0000000000000D+00
442  4.4100000000000D+00  0.0000000000000D+00  0.0000000000000D+00
443  4.4200000000000D+00  0.0000000000000D+00  0.0000000000000D+00
444  4.4300000000000D+00  0.0000000000000D+00  0.0000000000000D+00