Ca    ONCVPSP  r_core=  1.46  1.46  1.85
20.0000     10.0000      150628    zatom,zion,pspd
8      11   2     4   400     0    pspcod,pspxc,lmax,lloc,mmax,r2well
3.99000000  1.00000000  0.00000000    rchrg fchrg qchrg
2     2     2     0     0    nproj
1                 extension_switch
0                         9.7368532757540D+00  8.8996727760543D-01
1  0.0000000000000D+00 -5.8003513103699D-10  2.4770424600362D-09
2  1.0000000000000D-02  6.9858472215778D-02 -3.9806392423350D-02
3  2.0000000000000D-02  1.3954920237657D-01 -7.9301625269109D-02
4  3.0000000000000D-02  2.0890539146532D-01 -1.1817783644187D-01
5  4.0000000000000D-02  2.7776211579159D-01 -1.5613371377767D-01
6  5.0000000000000D-02  3.4595723793208D-01 -1.9287765806868D-01
7  6.0000000000000D-02  4.1333228602225D-01 -2.2813081354600D-01
8  7.0000000000000D-02  4.7973329154088D-01 -2.6162992459149D-01
9  8.0000000000000D-02  5.4501157630918D-01 -2.9312997992678D-01
10  9.0000000000000D-02  6.0902448013591D-01 -3.2240660855842D-01
11  1.0000000000000D-01  6.7163602136875D-01 -3.4925819529993D-01
12  1.1000000000000D-01  7.3271748354963D-01 -3.7350768769522D-01
13  1.2000000000000D-01  7.9214792240302D-01 -3.9500407057762D-01
14  1.3000000000000D-01  8.4981458849812D-01 -4.1362348925107D-01
15  1.4000000000000D-01  9.0561326210194D-01 -4.2927000731051D-01
16  1.5000000000000D-01  9.5944849796392D-01 -4.4187599035412D-01
17  1.6000000000000D-01  1.0112337790269D+00 -4.5140211220800D-01
18  1.7000000000000D-01  1.0608915793254D+00 -4.5783698570806D-01
19  1.8000000000000D-01  1.1083533375935D+00 -4.6119642548719D-01
20  1.9000000000000D-01  1.1535593443404D+00 -4.6152235552113D-01
21  2.0000000000000D-01  1.1964585463492D+00 -4.5888137931840D-01
22  2.1000000000000D-01  1.2370082736886D+00 -4.5336303552433D-01
23  2.2000000000000D-01  1.2751738953909D+00 -4.4507776627607D-01
24  2.3000000000000D-01  1.3109284109196D+00 -4.3415462982857D-01
25  2.4000000000000D-01  1.3442519854136D+00 -4.2073879270893D-01
26  2.5000000000000D-01  1.3751314374471D+00 -4.0498883989445D-01
27  2.6000000000000D-01  1.4035596886572D+00 -3.8707394419779D-01
28  2.7000000000000D-01  1.4295351850773D+00 -3.6717093814203D-01
29  2.8000000000000D-01  1.4530613003426D+00 -3.4546133308486D-01
30  2.9000000000000D-01  1.4741457311217D+00 -3.2212833118080D-01
31  3.0000000000000D-01  1.4927998951522D+00 -2.9735387593841D-01
32  3.1000000000000D-01  1.5090383421316D+00 -2.7131578662965D-01
33  3.2000000000000D-01  1.5228781874314D+00 -2.4418502064433D-01
34  3.3000000000000D-01  1.5343385781672D+00 -2.1612310606679D-01
35  3.4000000000000D-01  1.5434402005764D+00 -1.8727978430710D-01
36  3.5000000000000D-01  1.5502048369363D+00 -1.5779089957648D-01
37  3.6000000000000D-01  1.5546549794071D+00 -1.2777656839507D-01
38  3.7000000000000D-01  1.5568135072187D+00 -9.7339658210358D-02
39  3.8000000000000D-01  1.5567034325514D+00 -6.6564599639073D-02
40  3.9000000000000D-01  1.5543477193038D+00 -3.5516551889052D-02
41  4.0000000000000D-01  1.5497691777091D+00 -4.2409356399293D-03
42  4.1000000000000D-01  1.5429904364791D+00  2.7236657868423D-02
43  4.2000000000000D-01  1.5340339928314D+00  5.8910178487560D-02
44  4.3000000000000D-01  1.5229223394206D+00  9.0792452289892D-02
45  4.4000000000000D-01  1.5096781658559D+00  1.2291414870874D-01
46  4.5000000000000D-01  1.4943246311785D+00  1.5532239394022D-01
47  4.6000000000000D-01  1.4768857023989D+00  1.8807905041654D-01
48  4.7000000000000D-01  1.4573865529881D+00  2.2125868747557D-01
49  4.8000000000000D-01  1.4358540140856D+00  2.5494627334611D-01
50  4.9000000000000D-01  1.4123170701588D+00  2.8923462316511D-01
51  5.0000000000000D-01  1.3868073899308D+00  3.2422164187257D-01
52  5.1000000000000D-01  1.3593598826047D+00  3.6000740442828D-01
53  5.2000000000000D-01  1.3300132687699D+00  3.9669111880381D-01
54  5.3000000000000D-01  1.2988106548829D+00  4.3436801957167D-01
55  5.4000000000000D-01  1.2658000998858D+00  4.7312624160646D-01
56  5.5000000000000D-01  1.2310351623695D+00  5.1304372439020D-01
57  5.6000000000000D-01  1.1945754167025D+00  5.5418519766220D-01
58  5.7000000000000D-01  1.1564869267380D+00  5.9659929865558D-01
59  5.8000000000000D-01  1.1168426660845D+00  6.4031586991948D-01
60  5.9000000000000D-01  1.0757228744616D+00  6.8534348474858D-01
61  6.0000000000000D-01  1.0332153403791D+00  7.3166724454982D-01
62  6.1000000000000D-01  9.8941560124198D-01  7.7924688909357D-01
63  6.2000000000000D-01  9.4442705300544D-01  8.2801525658978D-01
64  6.3000000000000D-01  8.9836096266276D-01  8.7787712589693D-01
65  6.4000000000000D-01  8.5133637812175D-01  9.2870846805163D-01
66  6.5000000000000D-01  8.0347993141358D-01  9.8035612868067D-01
67  6.6000000000000D-01  7.5492553264827D-01  1.0326379568585D+00
68  6.7000000000000D-01  7.0581395366348D-01  1.0853433896886D+00
69  6.8000000000000D-01  6.5629230190150D-01  1.1382344953400D+00
70  6.9000000000000D-01  6.0651338665278D-01  1.1910474706282D+00
71  7.0000000000000D-01  5.5663498141369D-01  1.2434945825346D+00
72  7.1000000000000D-01  5.0681898768423D-01  1.2952665364547D+00
73  7.2000000000000D-01  4.5723050708000D-01  1.3460352474618D+00
74  7.3000000000000D-01  4.0803683009669D-01  1.3954569846816D+00
75  7.4000000000000D-01  3.5940635124857D-01  1.4431758529895D+00
76  7.5000000000000D-01  3.1150742157305D-01  1.4888275707973D+00
77  7.6000000000000D-01  2.6450715062900D-01  1.5320434977825D+00
78  7.7000000000000D-01  2.1857017111030D-01  1.5724548620597D+00
79  7.8000000000000D-01  1.7385738001849D-01  1.6096971326274D+00
80  7.9000000000000D-01  1.3052467098461D-01  1.6434144799673D+00
81  8.0000000000000D-01  8.8721672785018D-02  1.6732642654842D+00
82  8.1000000000000D-01  4.8590509351256D-02  1.6989214991016D+00
83  8.2000000000000D-01  1.0264596622723D-02  1.7200832037894D+00
84  8.3000000000000D-01 -2.6132508569699D-02  1.7364726261191D+00
85  8.4000000000000D-01 -6.0488192771970D-02  1.7478432331237D+00
86  8.5000000000000D-01 -9.2701789088577D-02  1.7539824377677D+00
87  8.6000000000000D-01 -1.2268548581975D-01  1.7547149982018D+00
88  8.7000000000000D-01 -1.5036512807120D-01  1.7499060396433D+00
89  8.8000000000000D-01 -1.7568090101046D-01  1.7394636521454D+00
90  8.9000000000000D-01 -1.9858788476984D-01  1.7233410226486D+00
91  9.0000000000000D-01 -2.1905647247423D-01  1.7015380654695D+00
92  9.1000000000000D-01 -2.3707264448298D-01  1.6741025217075D+00
93  9.2000000000000D-01 -2.5263809365882D-01  1.6411305048535D+00
94  9.3000000000000D-01 -2.6577019828996D-01  1.6027664770692D+00
95  9.4000000000000D-01 -2.7650184116991D-01  1.5592026480848D+00
96  9.5000000000000D-01 -2.8488107525755D-01  1.5106777963157D+00
97  9.6000000000000D-01 -2.9097063826893D-01  1.4574755195251D+00
98  9.7000000000000D-01 -2.9484732048706D-01  1.3999219301273D+00
99  9.8000000000000D-01 -2.9660119191970D-01  1.3383828176472D+00
100  9.9000000000000D-01 -2.9633469678017D-01  1.2732603082942D+00
101  1.0000000000000D+00 -2.9416162497639D-01  1.2049890585291D+00
102  1.0100000000000D+00 -2.9020597188847D-01  1.1340320259658D+00
103  1.0200000000000D+00 -2.8460069918372D-01  1.0608758669222D+00
104  1.0300000000000D+00 -2.7748641071429D-01  9.8602601521842D-01
105  1.0400000000000D+00 -2.6900995868157D-01  9.1000150148335D-01
106  1.0500000000000D+00 -2.5932299611136D-01  8.3332957576401D-01
107  1.0600000000000D+00 -2.4858049248395D-01  7.5654019954575D-01
108  1.0700000000000D+00 -2.3693922977426D-01  6.8016047502352D-01
109  1.0800000000000D+00 -2.2455629644678D-01  6.0470908071411D-01
110  1.0900000000000D+00 -2.1158759691361D-01  5.3069078243853D-01
111  1.1000000000000D+00 -1.9818639382969D-01  4.5859108822834D-01
112  1.1100000000000D+00 -1.8450190005254D-01  3.8887111359582D-01
113  1.1200000000000D+00 -1.7067793645337D-01  3.2196272108288D-01
114  1.1300000000000D+00 -1.5685167074377D-01  2.5826399395258D-01
115  1.1400000000000D+00 -1.4315245152643D-01  1.9813510008175D-01
116  1.1500000000000D+00 -1.2970075033499D-01  1.4189459635254D-01
117  1.1600000000000D+00 -1.1660722291686D-01  8.9816217787094D-02
118  1.1700000000000D+00 -1.0397189917947D-01  4.2126188313729D-02
119  1.1800000000000D+00 -9.1883509940585D-02 -9.9891508370240D-04
120  1.1900000000000D+00 -8.0418956112000D-02 -3.9433723176958D-02
121  1.2000000000000D+00 -6.9642924142858D-02 -7.3105045869593D-02
122  1.2100000000000D+00 -5.9607649435363D-02 -1.0199224825436D-01
123  1.2200000000000D+00 -5.0352827850243D-02 -1.2612703189330D-01
124  1.2300000000000D+00 -4.1905672411615D-02 -1.4559263398969D-01
125  1.2400000000000D+00 -3.4281110526445D-02 -1.6052246435927D-01
126  1.2500000000000D+00 -2.7482116108007D-02 -1.7109820384017D-01
127  1.2600000000000D+00 -2.1500167289567D-02 -1.7754740272145D-01
128  1.2700000000000D+00 -1.6315818059839D-02 -1.8014062926939D-01
129  1.2800000000000D+00 -1.1899381345265D-02 -1.7918816674715D-01
130  1.2900000000000D+00 -8.2116786158946D-03 -1.7503648441901D-01
131  1.3000000000000D+00 -5.2049684711253D-03 -1.6806385695334D-01
132  1.3100000000000D+00 -2.8235766439545D-03 -1.5867769020923D-01
133  1.3200000000000D+00 -1.0053497157653D-03 -1.4730745060728D-01
134  1.3300000000000D+00  3.1623272384899D-04 -1.3439405768008D-01
135  1.3400000000000D+00  1.2097290127660D-03 -1.2037864385780D-01
136  1.3500000000000D+00  1.7437760842056D-03 -1.0569346369852D-01
137  1.3600000000000D+00  1.9859913175024D-03 -9.0757647337486D-02
138  1.3700000000000D+00  2.0016031326573D-03 -7.5971376423667D-02
139  1.3800000000000D+00  1.8522041928671D-03 -6.1710674648788D-02
140  1.3900000000000D+00  1.5945702848767D-03 -4.8322469947350D-02
141  1.4000000000000D+00  1.2795790581029D-03 -3.6120090401830D-02
142  1.4100000000000D+00  9.5137283402782D-04 -2.5382178137669D-02
143  1.4200000000000D+00  6.4608306583583D-04 -1.6340175825797D-02
144  1.4300000000000D+00  3.8888501610834D-04 -9.1380171800575D-03
145  1.4400000000000D+00  2.0492097742673D-04 -4.0289065636677D-03
146  1.4500000000000D+00  1.1127451345273D-04 -1.2084511980073D-03
147  1.4600000000000D+00  6.5584197885534D-05 -1.2781623413237D-04
148  1.4700000000000D+00  2.1044665544632D-05  5.4600279053212D-05
149  1.4800000000000D+00 -4.4718934429996D-06 -2.0162896236163D-05
150  1.4900000000000D+00 -3.1442220884361D-06 -1.8803002853743D-05
151  1.5000000000000D+00  1.2759339924608D-06  4.0564055096229D-06
152  1.5100000000000D+00  4.2104567113753D-07  1.5523296383121D-06
153  1.5200000000000D+00 -2.0044237366128D-07  5.4489338435821D-07
154  1.5300000000000D+00 -4.8751700732569D-09  1.3252925875982D-08
155  1.5400000000000D+00  0.0000000000000D+00  0.0000000000000D+00
156  1.5500000000000D+00  0.0000000000000D+00  0.0000000000000D+00
157  1.5600000000000D+00  0.0000000000000D+00  0.0000000000000D+00
158  1.5700000000000D+00  0.0000000000000D+00  0.0000000000000D+00
159  1.5800000000000D+00  0.0000000000000D+00  0.0000000000000D+00
160  1.5900000000000D+00  0.0000000000000D+00  0.0000000000000D+00
161  1.6000000000000D+00  0.0000000000000D+00  0.0000000000000D+00
162  1.6100000000000D+00  0.0000000000000D+00  0.0000000000000D+00
163  1.6200000000000D+00  0.0000000000000D+00  0.0000000000000D+00
164  1.6300000000000D+00  0.0000000000000D+00  0.0000000000000D+00
165  1.6400000000000D+00  0.0000000000000D+00  0.0000000000000D+00
166  1.6500000000000D+00  0.0000000000000D+00  0.0000000000000D+00
167  1.6600000000000D+00  0.0000000000000D+00  0.0000000000000D+00
168  1.6700000000000D+00  0.0000000000000D+00  0.0000000000000D+00
169  1.6800000000000D+00  0.0000000000000D+00  0.0000000000000D+00
170  1.6900000000000D+00  0.0000000000000D+00  0.0000000000000D+00
171  1.7000000000000D+00  0.0000000000000D+00  0.0000000000000D+00
172  1.7100000000000D+00  0.0000000000000D+00  0.0000000000000D+00
173  1.7200000000000D+00  0.0000000000000D+00  0.0000000000000D+00
174  1.7300000000000D+00  0.0000000000000D+00  0.0000000000000D+00
175  1.7400000000000D+00  0.0000000000000D+00  0.0000000000000D+00
176  1.7500000000000D+00  0.0000000000000D+00  0.0000000000000D+00
177  1.7600000000000D+00  0.0000000000000D+00  0.0000000000000D+00
178  1.7700000000000D+00  0.0000000000000D+00  0.0000000000000D+00
179  1.7800000000000D+00  0.0000000000000D+00  0.0000000000000D+00
180  1.7900000000000D+00  0.0000000000000D+00  0.0000000000000D+00
181  1.8000000000000D+00  0.0000000000000D+00  0.0000000000000D+00
182  1.8100000000000D+00  0.0000000000000D+00  0.0000000000000D+00
183  1.8200000000000D+00  0.0000000000000D+00  0.0000000000000D+00
184  1.8300000000000D+00  0.0000000000000D+00  0.0000000000000D+00
185  1.8400000000000D+00  0.0000000000000D+00  0.0000000000000D+00
186  1.8500000000000D+00  0.0000000000000D+00  0.0000000000000D+00
187  1.8600000000000D+00  0.0000000000000D+00  0.0000000000000D+00
188  1.8700000000000D+00  0.0000000000000D+00  0.0000000000000D+00
189  1.8800000000000D+00  0.0000000000000D+00  0.0000000000000D+00
190  1.8900000000000D+00  0.0000000000000D+00  0.0000000000000D+00
191  1.9000000000000D+00  0.0000000000000D+00  0.0000000000000D+00
192  1.9100000000000D+00  0.0000000000000D+00  0.0000000000000D+00
193  1.9200000000000D+00  0.0000000000000D+00  0.0000000000000D+00
194  1.9300000000000D+00  0.0000000000000D+00  0.0000000000000D+00
195  1.9400000000000D+00  0.0000000000000D+00  0.0000000000000D+00
196  1.9500000000000D+00  0.0000000000000D+00  0.0000000000000D+00
197  1.9600000000000D+00  0.0000000000000D+00  0.0000000000000D+00
198  1.9700000000000D+00  0.0000000000000D+00  0.0000000000000D+00
199  1.9800000000000D+00  0.0000000000000D+00  0.0000000000000D+00
200  1.9900000000000D+00  0.0000000000000D+00  0.0000000000000D+00
201  2.0000000000000D+00  0.0000000000000D+00  0.0000000000000D+00
202  2.0100000000000D+00  0.0000000000000D+00  0.0000000000000D+00
203  2.0200000000000D+00  0.0000000000000D+00  0.0000000000000D+00
204  2.0300000000000D+00  0.0000000000000D+00  0.0000000000000D+00
205  2.0400000000000D+00  0.0000000000000D+00  0.0000000000000D+00
206  2.0500000000000D+00  0.0000000000000D+00  0.0000000000000D+00
207  2.0600000000000D+00  0.0000000000000D+00  0.0000000000000D+00
208  2.0700000000000D+00  0.0000000000000D+00  0.0000000000000D+00
209  2.0800000000000D+00  0.0000000000000D+00  0.0000000000000D+00
210  2.0900000000000D+00  0.0000000000000D+00  0.0000000000000D+00
211  2.1000000000000D+00  0.0000000000000D+00  0.0000000000000D+00
212  2.1100000000000D+00  0.0000000000000D+00  0.0000000000000D+00
213  2.1200000000000D+00  0.0000000000000D+00  0.0000000000000D+00
214  2.1300000000000D+00  0.0000000000000D+00  0.0000000000000D+00
215  2.1400000000000D+00  0.0000000000000D+00  0.0000000000000D+00
216  2.1500000000000D+00  0.0000000000000D+00  0.0000000000000D+00
217  2.1600000000000D+00  0.0000000000000D+00  0.0000000000000D+00
218  2.1700000000000D+00  0.0000000000000D+00  0.0000000000000D+00
219  2.1800000000000D+00  0.0000000000000D+00  0.0000000000000D+00
220  2.1900000000000D+00  0.0000000000000D+00  0.0000000000000D+00
221  2.2000000000000D+00  0.0000000000000D+00  0.0000000000000D+00
222  2.2100000000000D+00  0.0000000000000D+00  0.0000000000000D+00
223  2.2200000000000D+00  0.0000000000000D+00  0.0000000000000D+00
224  2.2300000000000D+00  0.0000000000000D+00  0.0000000000000D+00
225  2.2400000000000D+00  0.0000000000000D+00  0.0000000000000D+00
226  2.2500000000000D+00  0.0000000000000D+00  0.0000000000000D+00
227  2.2600000000000D+00  0.0000000000000D+00  0.0000000000000D+00
228  2.2700000000000D+00  0.0000000000000D+00  0.0000000000000D+00
229  2.2800000000000D+00  0.0000000000000D+00  0.0000000000000D+00
230  2.2900000000000D+00  0.0000000000000D+00  0.0000000000000D+00
231  2.3000000000000D+00  0.0000000000000D+00  0.0000000000000D+00
232  2.3100000000000D+00  0.0000000000000D+00  0.0000000000000D+00
233  2.3200000000000D+00  0.0000000000000D+00  0.0000000000000D+00
234  2.3300000000000D+00  0.0000000000000D+00  0.0000000000000D+00
235  2.3400000000000D+00  0.0000000000000D+00  0.0000000000000D+00
236  2.3500000000000D+00  0.0000000000000D+00  0.0000000000000D+00
237  2.3600000000000D+00  0.0000000000000D+00  0.0000000000000D+00
238  2.3700000000000D+00  0.0000000000000D+00  0.0000000000000D+00
239  2.3800000000000D+00  0.0000000000000D+00  0.0000000000000D+00
240  2.3900000000000D+00  0.0000000000000D+00  0.0000000000000D+00
241  2.4000000000000D+00  0.0000000000000D+00  0.0000000000000D+00
242  2.4100000000000D+00  0.0000000000000D+00  0.0000000000000D+00
243  2.4200000000000D+00  0.0000000000000D+00  0.0000000000000D+00
244  2.4300000000000D+00  0.0000000000000D+00  0.0000000000000D+00
245  2.4400000000000D+00  0.0000000000000D+00  0.0000000000000D+00
246  2.4500000000000D+00  0.0000000000000D+00  0.0000000000000D+00
247  2.4600000000000D+00  0.0000000000000D+00  0.0000000000000D+00
248  2.4700000000000D+00  0.0000000000000D+00  0.0000000000000D+00
249  2.4800000000000D+00  0.0000000000000D+00  0.0000000000000D+00
250  2.4900000000000D+00  0.0000000000000D+00  0.0000000000000D+00
251  2.5000000000000D+00  0.0000000000000D+00  0.0000000000000D+00
252  2.5100000000000D+00  0.0000000000000D+00  0.0000000000000D+00
253  2.5200000000000D+00  0.0000000000000D+00  0.0000000000000D+00
254  2.5300000000000D+00  0.0000000000000D+00  0.0000000000000D+00
255  2.5400000000000D+00  0.0000000000000D+00  0.0000000000000D+00
256  2.5500000000000D+00  0.0000000000000D+00  0.0000000000000D+00
257  2.5600000000000D+00  0.0000000000000D+00  0.0000000000000D+00
258  2.5700000000000D+00  0.0000000000000D+00  0.0000000000000D+00
259  2.5800000000000D+00  0.0000000000000D+00  0.0000000000000D+00
260  2.5900000000000D+00  0.0000000000000D+00  0.0000000000000D+00
261  2.6000000000000D+00  0.0000000000000D+00  0.0000000000000D+00
262  2.6100000000000D+00  0.0000000000000D+00  0.0000000000000D+00
263  2.6200000000000D+00  0.0000000000000D+00  0.0000000000000D+00
264  2.6300000000000D+00  0.0000000000000D+00  0.0000000000000D+00
265  2.6400000000000D+00  0.0000000000000D+00  0.0000000000000D+00
266  2.6500000000000D+00  0.0000000000000D+00  0.0000000000000D+00
267  2.6600000000000D+00  0.0000000000000D+00  0.0000000000000D+00
268  2.6700000000000D+00  0.0000000000000D+00  0.0000000000000D+00
269  2.6800000000000D+00  0.0000000000000D+00  0.0000000000000D+00
270  2.6900000000000D+00  0.0000000000000D+00  0.0000000000000D+00
271  2.7000000000000D+00  0.0000000000000D+00  0.0000000000000D+00
272  2.7100000000000D+00  0.0000000000000D+00  0.0000000000000D+00
273  2.7200000000000D+00  0.0000000000000D+00  0.0000000000000D+00
274  2.7300000000000D+00  0.0000000000000D+00  0.0000000000000D+00
275  2.7400000000000D+00  0.0000000000000D+00  0.0000000000000D+00
276  2.7500000000000D+00  0.0000000000000D+00  0.0000000000000D+00
277  2.7600000000000D+00  0.0000000000000D+00  0.0000000000000D+00
278  2.7700000000000D+00  0.0000000000000D+00  0.0000000000000D+00
279  2.7800000000000D+00  0.0000000000000D+00  0.0000000000000D+00
280  2.7900000000000D+00  0.0000000000000D+00  0.0000000000000D+00
281  2.8000000000000D+00  0.0000000000000D+00  0.0000000000000D+00
282  2.8100000000000D+00  0.0000000000000D+00  0.0000000000000D+00
283  2.8200000000000D+00  0.0000000000000D+00  0.0000000000000D+00
284  2.8300000000000D+00  0.0000000000000D+00  0.0000000000000D+00
285  2.8400000000000D+00  0.0000000000000D+00  0.0000000000000D+00
286  2.8500000000000D+00  0.0000000000000D+00  0.0000000000000D+00
287  2.8600000000000D+00  0.0000000000000D+00  0.0000000000000D+00
288  2.8700000000000D+00  0.0000000000000D+00  0.0000000000000D+00
289  2.8800000000000D+00  0.0000000000000D+00  0.0000000000000D+00
290  2.8900000000000D+00  0.0000000000000D+00  0.0000000000000D+00
291  2.9000000000000D+00  0.0000000000000D+00  0.0000000000000D+00
292  2.9100000000000D+00  0.0000000000000D+00  0.0000000000000D+00
293  2.9200000000000D+00  0.0000000000000D+00  0.0000000000000D+00
294  2.9300000000000D+00  0.0000000000000D+00  0.0000000000000D+00
295  2.9400000000000D+00  0.0000000000000D+00  0.0000000000000D+00
296  2.9500000000000D+00  0.0000000000000D+00  0.0000000000000D+00
297  2.9600000000000D+00  0.0000000000000D+00  0.0000000000000D+00
298  2.9700000000000D+00  0.0000000000000D+00  0.0000000000000D+00
299  2.9800000000000D+00  0.0000000000000D+00  0.0000000000000D+00
300  2.9900000000000D+00  0.0000000000000D+00  0.0000000000000D+00
301  3.0000000000000D+00  0.0000000000000D+00  0.0000000000000D+00
302  3.0100000000000D+00  0.0000000000000D+00  0.0000000000000D+00
303  3.0200000000000D+00  0.0000000000000D+00  0.0000000000000D+00
304  3.0300000000000D+00  0.0000000000000D+00  0.0000000000000D+00
305  3.0400000000000D+00  0.0000000000000D+00  0.0000000000000D+00
306  3.0500000000000D+00  0.0000000000000D+00  0.0000000000000D+00
307  3.0600000000000D+00  0.0000000000000D+00  0.0000000000000D+00
308  3.0700000000000D+00  0.0000000000000D+00  0.0000000000000D+00
309  3.0800000000000D+00  0.0000000000000D+00  0.0000000000000D+00
310  3.0900000000000D+00  0.0000000000000D+00  0.0000000000000D+00
311  3.1000000000000D+00  0.0000000000000D+00  0.0000000000000D+00
312  3.1100000000000D+00  0.0000000000000D+00  0.0000000000000D+00
313  3.1200000000000D+00  0.0000000000000D+00  0.0000000000000D+00
314  3.1300000000000D+00  0.0000000000000D+00  0.0000000000000D+00
315  3.1400000000000D+00  0.0000000000000D+00  0.0000000000000D+00
316  3.1500000000000D+00  0.0000000000000D+00  0.0000000000000D+00
317  3.1600000000000D+00  0.0000000000000D+00  0.0000000000000D+00
318  3.1700000000000D+00  0.0000000000000D+00  0.0000000000000D+00
319  3.1800000000000D+00  0.0000000000000D+00  0.0000000000000D+00
320  3.1900000000000D+00  0.0000000000000D+00  0.0000000000000D+00
321  3.2000000000000D+00  0.0000000000000D+00  0.0000000000000D+00
322  3.2100000000000D+00  0.0000000000000D+00  0.0000000000000D+00
323  3.2200000000000D+00  0.0000000000000D+00  0.0000000000000D+00
324  3.2300000000000D+00  0.0000000000000D+00  0.0000000000000D+00
325  3.2400000000000D+00  0.0000000000000D+00  0.0000000000000D+00
326  3.2500000000000D+00  0.0000000000000D+00  0.0000000000000D+00
327  3.2600000000000D+00  0.0000000000000D+00  0.0000000000000D+00
328  3.2700000000000D+00  0.0000000000000D+00  0.0000000000000D+00
329  3.2800000000000D+00  0.0000000000000D+00  0.0000000000000D+00
330  3.2900000000000D+00  0.0000000000000D+00  0.0000000000000D+00
331  3.3000000000000D+00  0.0000000000000D+00  0.0000000000000D+00
332  3.3100000000000D+00  0.0000000000000D+00  0.0000000000000D+00
333  3.3200000000000D+00  0.0000000000000D+00  0.0000000000000D+00
334  3.3300000000000D+00  0.0000000000000D+00  0.0000000000000D+00
335  3.3400000000000D+00  0.0000000000000D+00  0.0000000000000D+00
336  3.3500000000000D+00  0.0000000000000D+00  0.0000000000000D+00
337  3.3600000000000D+00  0.0000000000000D+00  0.0000000000000D+00
338  3.3700000000000D+00  0.0000000000000D+00  0.0000000000000D+00
339  3.3800000000000D+00  0.0000000000000D+00  0.0000000000000D+00
340  3.3900000000000D+00  0.0000000000000D+00  0.0000000000000D+00
341  3.4000000000000D+00  0.0000000000000D+00  0.0000000000000D+00
342  3.4100000000000D+00  0.0000000000000D+00  0.0000000000000D+00
343  3.4200000000000D+00  0.0000000000000D+00  0.0000000000000D+00
344  3.4300000000000D+00  0.0000000000000D+00  0.0000000000000D+00
345  3.4400000000000D+00  0.0000000000000D+00  0.0000000000000D+00
346  3.4500000000000D+00  0.0000000000000D+00  0.0000000000000D+00
347  3.4600000000000D+00  0.0000000000000D+00  0.0000000000000D+00
348  3.4700000000000D+00  0.0000000000000D+00  0.0000000000000D+00
349  3.4800000000000D+00  0.0000000000000D+00  0.0000000000000D+00
350  3.4900000000000D+00  0.0000000000000D+00  0.0000000000000D+00
351  3.5000000000000D+00  0.0000000000000D+00  0.0000000000000D+00
352  3.5100000000000D+00  0.0000000000000D+00  0.0000000000000D+00
353  3.5200000000000D+00  0.0000000000000D+00  0.0000000000000D+00
354  3.5300000000000D+00  0.0000000000000D+00  0.0000000000000D+00
355  3.5400000000000D+00  0.0000000000000D+00  0.0000000000000D+00
356  3.5500000000000D+00  0.0000000000000D+00  0.0000000000000D+00
357  3.5600000000000D+00  0.0000000000000D+00  0.0000000000000D+00
358  3.5700000000000D+00  0.0000000000000D+00  0.0000000000000D+00
359  3.5800000000000D+00  0.0000000000000D+00  0.0000000000000D+00
360  3.5900000000000D+00  0.0000000000000D+00  0.0000000000000D+00
361  3.6000000000000D+00  0.0000000000000D+00  0.0000000000000D+00
362  3.6100000000000D+00  0.0000000000000D+00  0.0000000000000D+00
363  3.6200000000000D+00  0.0000000000000D+00  0.0000000000000D+00
364  3.6300000000000D+00  0.0000000000000D+00  0.0000000000000D+00
365  3.6400000000000D+00  0.0000000000000D+00  0.0000000000000D+00
366  3.6500000000000D+00  0.0000000000000D+00  0.0000000000000D+00
367  3.6600000000000D+00  0.0000000000000D+00  0.0000000000000D+00
368  3.6700000000000D+00  0.0000000000000D+00  0.0000000000000D+00
369  3.6800000000000D+00  0.0000000000000D+00  0.0000000000000D+00
370  3.6900000000000D+00  0.0000000000000D+00  0.0000000000000D+00
371  3.7000000000000D+00  0.0000000000000D+00  0.0000000000000D+00
372  3.7100000000000D+00  0.0000000000000D+00  0.0000000000000D+00
373  3.7200000000000D+00  0.0000000000000D+00  0.0000000000000D+00
374  3.7300000000000D+00  0.0000000000000D+00  0.0000000000000D+00
375  3.7400000000000D+00  0.0000000000000D+00  0.0000000000000D+00
376  3.7500000000000D+00  0.0000000000000D+00  0.0000000000000D+00
377  3.7600000000000D+00  0.0000000000000D+00  0.0000000000000D+00
378  3.7700000000000D+00  0.0000000000000D+00  0.0000000000000D+00
379  3.7800000000000D+00  0.0000000000000D+00  0.0000000000000D+00
380  3.7900000000000D+00  0.0000000000000D+00  0.0000000000000D+00
381  3.8000000000000D+00  0.0000000000000D+00  0.0000000000000D+00
382  3.8100000000000D+00  0.0000000000000D+00  0.0000000000000D+00
383  3.8200000000000D+00  0.0000000000000D+00  0.0000000000000D+00
384  3.8300000000000D+00  0.0000000000000D+00  0.0000000000000D+00
385  3.8400000000000D+00  0.0000000000000D+00  0.0000000000000D+00
386  3.8500000000000D+00  0.0000000000000D+00  0.0000000000000D+00
387  3.8600000000000D+00  0.0000000000000D+00  0.0000000000000D+00
388  3.8700000000000D+00  0.0000000000000D+00  0.0000000000000D+00
389  3.8800000000000D+00  0.0000000000000D+00  0.0000000000000D+00
390  3.8900000000000D+00  0.0000000000000D+00  0.0000000000000D+00
391  3.9000000000000D+00  0.0000000000000D+00  0.0000000000000D+00
392  3.9100000000000D+00  0.0000000000000D+00  0.0000000000000D+00
393  3.9200000000000D+00  0.0000000000000D+00  0.0000000000000D+00
394  3.9300000000000D+00  0.0000000000000D+00  0.0000000000000D+00
395  3.9400000000000D+00  0.0000000000000D+00  0.0000000000000D+00
396  3.9500000000000D+00  0.0000000000000D+00  0.0000000000000D+00
397  3.9600000000000D+00  0.0000000000000D+00  0.0000000000000D+00
398  3.9700000000000D+00  0.0000000000000D+00  0.0000000000000D+00
399  3.9800000000000D+00  0.0000000000000D+00  0.0000000000000D+00
400  3.9900000000000D+00  0.0000000000000D+00  0.0000000000000D+00
1                         2.8778470253621D+00  5.7795622451503D-01
1  0.0000000000000D+00  1.5224226129762D-08 -3.2522721529760D-08
2  1.0000000000000D-02  2.4927373909768D-03 -2.1920552343487D-03
3  2.0000000000000D-02  9.9397579438232D-03 -8.7122349482103D-03
4  3.0000000000000D-02  2.2248000838581D-02 -1.9393647403643D-02
5  4.0000000000000D-02  3.9264069415399D-02 -3.3961675065585D-02
6  5.0000000000000D-02  6.0776757718430D-02 -5.2039212380970D-02
7  6.0000000000000D-02  8.6520527149906D-02 -7.3153869274650D-02
8  7.0000000000000D-02  1.1617987394393D-01 -9.6747013589999D-02
9  8.0000000000000D-02  1.4939451294533D-01 -1.2218449317941D-01
10  9.0000000000000D-02  1.8576528920309D-01 -1.4876884851725D-01
11  1.0000000000000D-01  2.2486071639547D-01 -1.7575280007190D-01
12  1.1000000000000D-01  2.6622403030578D-01 -2.0235377168754D-01
13  1.2000000000000D-01  3.0938063664756D-01 -2.2776919228596D-01
14  1.3000000000000D-01  3.5384582564642D-01 -2.5119230362928D-01
15  1.4000000000000D-01  3.9913262104449D-01 -2.7182819194375D-01
16  1.5000000000000D-01  4.4475962868339D-01 -2.8890975607066D-01
17  1.6000000000000D-01  4.9025874959111D-01 -3.0171332458249D-01
18  1.7000000000000D-01  5.3518262455680D-01 -3.0957363900086D-01
19  1.8000000000000D-01  5.7911168149493D-01 -3.1189792981176D-01
20  1.9000000000000D-01  6.2166066341223D-01 -3.0817882625120D-01
21  2.0000000000000D-01  6.6248452339331D-01 -2.9800585960622D-01
22  2.1000000000000D-01  7.0128358357711D-01 -2.8107534274409D-01
23  2.2000000000000D-01  7.3780786743511D-01 -2.5719843537706D-01
24  2.3000000000000D-01  7.7186052858402D-01 -2.2630723475727D-01
25  2.4000000000000D-01  8.0330031464163D-01 -1.8845876458371D-01
26  2.5000000000000D-01  8.3204302101545D-01 -1.4383677034792D-01
27  2.6000000000000D-01  8.5806190672801D-01 -9.2751266563362D-02
28  2.7000000000000D-01  8.8138706214651D-01 -3.5635819699202D-02
29  2.8000000000000D-01  9.0210373650169D-01  2.6957410466285D-02
30  2.9000000000000D-01  9.2034965105122D-01  9.4364809593574D-02
31  3.0000000000000D-01  9.3631134136443D-01  1.6582052817030D-01
32  3.1000000000000D-01  9.5021958918150D-01  2.4046764552143D-01
33  3.2000000000000D-01  9.6234402034282D-01  3.1737110790859D-01
34  3.3000000000000D-01  9.7298696012013D-01  3.9553223830817D-01
35  3.4000000000000D-01  9.8247665065399D-01  4.7390458676513D-01
36  3.5000000000000D-01  9.9115994688145D-01  5.5141086521317D-01
37  3.6000000000000D-01  9.9939461711656D-01  6.2696068977379D-01
38  3.7000000000000D-01  1.0075413821507D+00  6.9946883717386D-01
39  3.8000000000000D-01  1.0159558322273D+00  7.6787371035643D-01
40  3.9000000000000D-01  1.0249803644127D+00  8.3115570183034D-01
41  4.0000000000000D-01  1.0349362836593D+00  8.8835514195240D-01
42  4.1000000000000D-01  1.0461162092188D+00  9.3858952322319D-01
43  4.2000000000000D-01  1.0587769240129D+00  9.8106970077326D-01