Be    ONCVPSP  r_core=  1.51  1.20
4.0000      4.0000      141210    zatom,zion,pspd
8    11     1     4   401     0    pspcod,pspxc,lmax,lloc,mmax,r2well
4.00000000  0.00000000  0.00000000    rchrg fchrg qchrg
2     2     0     0     0    nproj
0                 extension_switch
0                        -6.1021850145553D+00 -2.4875343105086D+00
1  0.0000000000000D+00  0.0000000000000D+00  0.0000000000000D+00
2  1.0000000000000D-02  8.5122805384876D-02  3.9127194954408D-02
3  2.0000000000000D-02  1.7002865134477D-01  7.8015116319941D-02
4  3.0000000000000D-02  2.5450118004857D-01  1.1642543466759D-01
5  4.0000000000000D-02  3.3832523602379D-01  1.5412170675990D-01
6  5.0000000000000D-02  4.2128746525133D-01  1.9087031331138D-01
7  6.0000000000000D-02  5.0317691172557D-01  2.2644139030482D-01
8  7.0000000000000D-02  5.8378561058128D-01  2.6060975164840D-01
9  8.0000000000000D-02  6.6290917684199D-01  2.9315580090005D-01
10  9.0000000000000D-02  7.4034738878920D-01  3.2386642971750D-01
11  1.0000000000000D-01  8.1590476489347D-01  3.5253590062294D-01
12  1.1000000000000D-01  8.8939113316205D-01  3.7896671156276D-01
13  1.2000000000000D-01  9.6062219170039D-01  4.0297043968242D-01
14  1.3000000000000D-01  1.0294200591766D+00  4.2436856160218D-01
15  1.4000000000000D-01  1.0956138138256D+00  4.4299324743296D-01
16  1.5000000000000D-01  1.1590400194911D+00  4.5868812560185D-01
17  1.6000000000000D-01  1.2195432371800D+00  4.7130901555779D-01
18  1.7000000000000D-01  1.2769765204092D+00  4.8072462518922D-01
19  1.8000000000000D-01  1.3312018926777D+00  4.8681720990845D-01
20  1.9000000000000D-01  1.3820908054678D+00  4.8948319048631D-01
21  2.0000000000000D-01  1.4295245740441D+00  4.8863372520458D-01
22  2.1000000000000D-01  1.4733947906531D+00  4.8419523518473D-01
23  2.2000000000000D-01  1.5136037112480D+00  4.7610987700919D-01
24  2.3000000000000D-01  1.5500646154567D+00  4.6433596173932D-01
25  2.4000000000000D-01  1.5827021361799D+00  4.4884831503883D-01
26  2.5000000000000D-01  1.6114525584699D+00  4.2963857742785D-01
27  2.6000000000000D-01  1.6362640836526D+00  4.0671543911349D-01
28  2.7000000000000D-01  1.6570970589480D+00  3.8010480920448D-01
29  2.8000000000000D-01  1.6739241677002D+00  3.4984991323550D-01
30  2.9000000000000D-01  1.6867305814816D+00  3.1601131997642D-01
31  3.0000000000000D-01  1.6955140701920D+00  2.7866689281925D-01
32  3.1000000000000D-01  1.7002850689391D+00  2.3791166423929D-01
33  3.2000000000000D-01  1.7010666997013D+00  1.9385763152398D-01
34  3.3000000000000D-01  1.6978947474444D+00  1.4663347345276D-01
35  3.4000000000000D-01  1.6908175900243D+00  9.6384183758870D-02
36  3.5000000000000D-01  1.6798960751768D+00  4.3270627511167D-02
37  3.6000000000000D-01  1.6652033543325D+00 -1.2530993944311D-02
38  3.7000000000000D-01  1.6468246608462D+00 -7.0829747578764D-02
39  3.8000000000000D-01  1.6248570420441D+00 -1.3142066040003D-01
40  3.9000000000000D-01  1.5994090369584D+00 -1.9408550004654D-01
41  4.0000000000000D-01  1.5706003072278D+00 -2.5859361586352D-01
42  4.1000000000000D-01  1.5385612165080D+00 -3.2470286781862D-01
43  4.2000000000000D-01  1.5034323609180D+00 -3.9216062630575D-01
44  4.3000000000000D-01  1.4653640514347D+00 -4.6070484196821D-01
45  4.4000000000000D-01  1.4245157495967D+00 -5.3006518182450D-01
46  4.5000000000000D-01  1.3810554581561D+00 -5.9996422746180D-01
47  4.6000000000000D-01  1.3351590687089D+00 -6.7011873035032D-01
48  4.7000000000000D-01  1.2870096688948D+00 -7.4024091832463D-01
49  4.8000000000000D-01  1.2367968218521D+00 -8.1003982694945D-01
50  4.9000000000000D-01  1.1847157905300D+00 -8.7922271343494D-01
51  5.0000000000000D-01  1.1309667203881D+00 -9.4749651864745D-01
52  5.1000000000000D-01  1.0757538465043D+00 -1.0145692494050D+00
53  5.2000000000000D-01  1.0192846806295D+00 -1.0801513785791D+00
54  5.3000000000000D-01  9.6176899356732D-01 -1.1439576020929D+00
55  5.4000000000000D-01  9.0341811682480D-01 -1.2057079578969D+00
56  5.5000000000000D-01  8.4444391114140D-01 -1.2651295519977D+00
57  5.6000000000000D-01  7.8505789569725D-01 -1.3219579451239D+00
58  5.7000000000000D-01  7.2547039203959D-01 -1.3759384969510D+00
59  5.8000000000000D-01  6.6588950944572D-01 -1.4268279567221D+00
60  5.9000000000000D-01  6.0652034851038D-01 -1.4743956456830D+00
61  6.0000000000000D-01  5.4756409019075D-01 -1.5184248103335D+00
62  6.1000000000000D-01  4.8921697557270D-01 -1.5587141279493D+00
63  6.2000000000000D-01  4.3166986121605D-01 -1.5950782261410D+00
64  6.3000000000000D-01  3.7510678589354D-01 -1.6273498025285D+00
65  6.4000000000000D-01  3.1970466001620D-01 -1.6553798707780D+00
66  6.5000000000000D-01  2.6563255433789D-01 -1.6790386585977D+00
67  6.6000000000000D-01  2.1305041916568D-01 -1.6982173380024D+00
68  6.7000000000000D-01  1.6210895177997D-01 -1.7128279384337D+00
69  6.8000000000000D-01  1.1294887518839D-01 -1.7228041615613D+00
70  6.9000000000000D-01  6.5700258407751D-02 -1.7281020852031D+00
71  7.0000000000000D-01  2.0481850849747D-02 -1.7287007933903D+00
72  7.1000000000000D-01 -2.2599100914738D-02 -1.7246022917461D+00
73  7.2000000000000D-01 -6.3447364215340D-02 -1.7158318646093D+00
74  7.3000000000000D-01 -1.0198003863708D-01 -1.7024381280627D+00
75  7.4000000000000D-01 -1.3812683951224D-01 -1.6844930043921D+00
76  7.5000000000000D-01 -1.7183051437573D-01 -1.6620918023034D+00
77  7.6000000000000D-01 -2.0304671847309D-01 -1.6353526030792D+00
78  7.7000000000000D-01 -2.3174419914872D-01 -1.6044159980908D+00
79  7.8000000000000D-01 -2.5790481595590D-01 -1.5694445881205D+00
80  7.9000000000000D-01 -2.8152349532254D-01 -1.5306223732191D+00
81  8.0000000000000D-01 -3.0260812094882D-01 -1.4881540381117D+00
82  8.1000000000000D-01 -3.2117936157579D-01 -1.4422641389832D+00
83  8.2000000000000D-01 -3.3727043820539D-01 -1.3931961982386D+00
84  8.3000000000000D-01 -3.5092683327110D-01 -1.3412117145448D+00
85  8.4000000000000D-01 -3.6220594465311D-01 -1.2865890961110D+00
86  8.5000000000000D-01 -3.7117668780169D-01 -1.2296225257618D+00
87  8.6000000000000D-01 -3.7791904957940D-01 -1.1706207669004D+00
88  8.7000000000000D-01 -3.8252359775688D-01 -1.1099059199493D+00
89  8.8000000000000D-01 -3.8509095040121D-01 -1.0478121392978D+00
90  8.9000000000000D-01 -3.8573120968058D-01 -9.8468432117801D-01
91  9.0000000000000D-01 -3.8456336487613D-01 -9.2087677323541D-01
92  9.1000000000000D-01 -3.8171466963970D-01 -8.5675187684636D-01
93  9.2000000000000D-01 -3.7731999876281D-01 -7.9267875345816D-01
94  9.3000000000000D-01 -3.7152118992180D-01 -7.2903194636805D-01
95  9.4000000000000D-01 -3.6446637602817D-01 -6.6619012939515D-01
96  9.5000000000000D-01 -3.5630933075428D-01 -6.0453492588404D-01
97  9.6000000000000D-01 -3.4720872157821D-01 -5.4444936593345D-01
98  9.7000000000000D-01 -3.3732736033375D-01 -4.8631610601769D-01
99  9.8000000000000D-01 -3.2682668855618D-01 -4.3049648970567D-01
100  9.9000000000000D-01 -3.1585918389185D-01 -3.7730232426890D-01
101  1.0000000000000D+00 -3.0456257393031D-01 -3.2697786388975D-01
102  1.0100000000000D+00 -2.9305412549654D-01 -2.7968314044880D-01
103  1.0200000000000D+00 -2.8142539473713D-01 -2.3547985396462D-01
104  1.0300000000000D+00 -2.6973932386575D-01 -1.9432536632956D-01
105  1.0400000000000D+00 -2.5802419487886D-01 -1.5605851950648D-01
106  1.0500000000000D+00 -2.4627472435611D-01 -1.2041051549646D-01
107  1.0600000000000D+00 -2.3445848065414D-01 -8.7031328293921D-02
108  1.0700000000000D+00 -2.2252261906825D-01 -5.5517786172480D-02
109  1.0800000000000D+00 -2.1040290970707D-01 -2.5445967116124D-02
110  1.0900000000000D+00 -1.9803681730790D-01  3.5776058748078D-03
111  1.1000000000000D+00 -1.8538225579819D-01  3.1855177806065D-02
112  1.1100000000000D+00 -1.7242604159732D-01  5.9575316144817D-02
113  1.1200000000000D+00 -1.5918943426022D-01  8.6797734911701D-02
114  1.1300000000000D+00 -1.4573564102496D-01  1.1343172931443D-01
115  1.1400000000000D+00 -1.3217177867923D-01  1.3923727039353D-01
116  1.1500000000000D+00 -1.1862972100082D-01  1.6389544799859D-01
117  1.1600000000000D+00 -1.0526118182149D-01  1.8702612868894D-01
118  1.1700000000000D+00 -9.2227759291741D-02  2.0822410551875D-01
119  1.1800000000000D+00 -7.9680246295205D-02  2.2712726145343D-01
120  1.1900000000000D+00 -6.7754564212336D-02  2.4342728214073D-01
121  1.2000000000000D+00 -5.6571827660941D-02  2.5686967562743D-01
122  1.2100000000000D+00 -4.6213159809892D-02  2.6732987840202D-01
123  1.2200000000000D+00 -3.6738887486607D-02  2.7474908211358D-01
124  1.2300000000000D+00 -2.8188064121862D-02  2.7913623519505D-01
125  1.2400000000000D+00 -2.0568244978095D-02  2.8059359630223D-01
126  1.2500000000000D+00 -1.3870165668480D-02  2.7926991070795D-01
127  1.2600000000000D+00 -8.0717473260241D-03  2.7535049338462D-01
128  1.2700000000000D+00 -3.1340962895194D-03  2.6906268903065D-01
129  1.2800000000000D+00  9.8945865729512D-04  2.6064904892718D-01
130  1.2900000000000D+00  4.3514130279337D-03  2.5036596449007D-01
131  1.3000000000000D+00  7.0104818298502D-03  2.3847673993666D-01
132  1.3100000000000D+00  9.0270008177819D-03  2.2524170618663D-01
133  1.3200000000000D+00  1.0463965828146D-02  2.1092573248045D-01
134  1.3300000000000D+00  1.1383902254630D-02  1.9577890954952D-01
135  1.3400000000000D+00  1.1849050597781D-02  1.8004591217472D-01
136  1.3500000000000D+00  1.1922358404822D-02  1.6396895243606D-01
137  1.3600000000000D+00  1.1662396350789D-02  1.4776511264343D-01
138  1.3700000000000D+00  1.1128192585650D-02  1.3165130575021D-01
139  1.3800000000000D+00  1.0375701854004D-02  1.1582740605181D-01
140  1.3900000000000D+00  9.4566304589380D-03  1.0047373163668D-01
141  1.4000000000000D+00  8.4235548433714D-03  8.5771880072660D-02
142  1.4100000000000D+00  7.3208453598877D-03  7.1868858306834D-02
143  1.4200000000000D+00  6.1927766543704D-03  5.8910287878925D-02
144  1.4300000000000D+00  5.0791001894589D-03  4.7022695947805D-02
145  1.4400000000000D+00  4.0133788895540D-03  3.6308749842232D-02
146  1.4500000000000D+00  3.0300373666617D-03  2.6872728426880D-02
147  1.4600000000000D+00  2.1524361463919D-03  1.8778065122076D-02
148  1.4700000000000D+00  1.4053805610469D-03  1.2092340151152D-02
149  1.4800000000000D+00  8.0534447119694D-04  6.8526748875657D-03
150  1.4900000000000D+00  3.6556323695703D-04  3.0840896582083D-03
151  1.5000000000000D+00  1.1066699317443D-04  9.2311353904275D-04
152  1.5100000000000D+00  4.7470097647556D-07  2.6518123213516D-06
153  1.5200000000000D+00 -1.9303274585390D-05 -1.6297629341085D-04
154  1.5300000000000D+00  6.1122334056318D-08  5.2606120481565D-07
155  1.5400000000000D+00  1.6438488660603D-07  1.4148103608376D-06
156  1.5500000000000D+00  0.0000000000000D+00  0.0000000000000D+00
157  1.5600000000000D+00  0.0000000000000D+00  0.0000000000000D+00
158  1.5700000000000D+00  0.0000000000000D+00  0.0000000000000D+00
159  1.5800000000000D+00  0.0000000000000D+00  0.0000000000000D+00
160  1.5900000000000D+00  0.0000000000000D+00  0.0000000000000D+00
161  1.6000000000000D+00  0.0000000000000D+00  0.0000000000000D+00
162  1.6100000000000D+00  0.0000000000000D+00  0.0000000000000D+00
163  1.6200000000000D+00  0.0000000000000D+00  0.0000000000000D+00
164  1.6300000000000D+00  0.0000000000000D+00  0.0000000000000D+00
165  1.6400000000000D+00  0.0000000000000D+00  0.0000000000000D+00
166  1.6500000000000D+00  0.0000000000000D+00  0.0000000000000D+00
167  1.6600000000000D+00  0.0000000000000D+00  0.0000000000000D+00
168  1.6700000000000D+00  0.0000000000000D+00  0.0000000000000D+00
169  1.6800000000000D+00  0.0000000000000D+00  0.0000000000000D+00
170  1.6900000000000D+00  0.0000000000000D+00  0.0000000000000D+00
171  1.7000000000000D+00  0.0000000000000D+00  0.0000000000000D+00
172  1.7100000000000D+00  0.0000000000000D+00  0.0000000000000D+00
173  1.7200000000000D+00  0.0000000000000D+00  0.0000000000000D+00
174  1.7300000000000D+00  0.0000000000000D+00  0.0000000000000D+00
175  1.7400000000000D+00  0.0000000000000D+00  0.0000000000000D+00
176  1.7500000000000D+00  0.0000000000000D+00  0.0000000000000D+00
177  1.7600000000000D+00  0.0000000000000D+00  0.0000000000000D+00
178  1.7700000000000D+00  0.0000000000000D+00  0.0000000000000D+00
179  1.7800000000000D+00  0.0000000000000D+00  0.0000000000000D+00
180  1.7900000000000D+00  0.0000000000000D+00  0.0000000000000D+00
181  1.8000000000000D+00  0.0000000000000D+00  0.0000000000000D+00
182  1.8100000000000D+00  0.0000000000000D+00  0.0000000000000D+00
183  1.8200000000000D+00  0.0000000000000D+00  0.0000000000000D+00
184  1.8300000000000D+00  0.0000000000000D+00  0.0000000000000D+00
185  1.8400000000000D+00  0.0000000000000D+00  0.0000000000000D+00
186  1.8500000000000D+00  0.0000000000000D+00  0.0000000000000D+00
187  1.8600000000000D+00  0.0000000000000D+00  0.0000000000000D+00
188  1.8700000000000D+00  0.0000000000000D+00  0.0000000000000D+00
189  1.8800000000000D+00  0.0000000000000D+00  0.0000000000000D+00
190  1.8900000000000D+00  0.0000000000000D+00  0.0000000000000D+00
191  1.9000000000000D+00  0.0000000000000D+00  0.0000000000000D+00
192  1.9100000000000D+00  0.0000000000000D+00  0.0000000000000D+00
193  1.9200000000000D+00  0.0000000000000D+00  0.0000000000000D+00
194  1.9300000000000D+00  0.0000000000000D+00  0.0000000000000D+00
195  1.9400000000000D+00  0.0000000000000D+00  0.0000000000000D+00
196  1.9500000000000D+00  0.0000000000000D+00  0.0000000000000D+00
197  1.9600000000000D+00  0.0000000000000D+00  0.0000000000000D+00
198  1.9700000000000D+00  0.0000000000000D+00  0.0000000000000D+00
199  1.9800000000000D+00  0.0000000000000D+00  0.0000000000000D+00
200  1.9900000000000D+00  0.0000000000000D+00  0.0000000000000D+00
201  2.0000000000000D+00  0.0000000000000D+00  0.0000000000000D+00
202  2.0100000000000D+00  0.0000000000000D+00  0.0000000000000D+00
203  2.0200000000000D+00  0.0000000000000D+00  0.0000000000000D+00
204  2.0300000000000D+00  0.0000000000000D+00  0.0000000000000D+00
205  2.0400000000000D+00  0.0000000000000D+00  0.0000000000000D+00
206  2.0500000000000D+00  0.0000000000000D+00  0.0000000000000D+00
207  2.0600000000000D+00  0.0000000000000D+00  0.0000000000000D+00
208  2.0700000000000D+00  0.0000000000000D+00  0.0000000000000D+00
209  2.0800000000000D+00  0.0000000000000D+00  0.0000000000000D+00
210  2.0900000000000D+00  0.0000000000000D+00  0.0000000000000D+00
211  2.1000000000000D+00  0.0000000000000D+00  0.0000000000000D+00
212  2.1100000000000D+00  0.0000000000000D+00  0.0000000000000D+00
213  2.1200000000000D+00  0.0000000000000D+00  0.0000000000000D+00
214  2.1300000000000D+00  0.0000000000000D+00  0.0000000000000D+00
215  2.1400000000000D+00  0.0000000000000D+00  0.0000000000000D+00
216  2.1500000000000D+00  0.0000000000000D+00  0.0000000000000D+00
217  2.1600000000000D+00  0.0000000000000D+00  0.0000000000000D+00
218  2.1700000000000D+00  0.0000000000000D+00  0.0000000000000D+00
219  2.1800000000000D+00  0.0000000000000D+00  0.0000000000000D+00
220  2.1900000000000D+00  0.0000000000000D+00  0.0000000000000D+00
221  2.2000000000000D+00  0.0000000000000D+00  0.0000000000000D+00
222  2.2100000000000D+00  0.0000000000000D+00  0.0000000000000D+00
223  2.2200000000000D+00  0.0000000000000D+00  0.0000000000000D+00
224  2.2300000000000D+00  0.0000000000000D+00  0.0000000000000D+00
225  2.2400000000000D+00  0.0000000000000D+00  0.0000000000000D+00
226  2.2500000000000D+00  0.0000000000000D+00  0.0000000000000D+00
227  2.2600000000000D+00  0.0000000000000D+00  0.0000000000000D+00
228  2.2700000000000D+00  0.0000000000000D+00  0.0000000000000D+00
229  2.2800000000000D+00  0.0000000000000D+00  0.0000000000000D+00
230  2.2900000000000D+00  0.0000000000000D+00  0.0000000000000D+00
231  2.3000000000000D+00  0.0000000000000D+00  0.0000000000000D+00
232  2.3100000000000D+00  0.0000000000000D+00  0.0000000000000D+00
233  2.3200000000000D+00  0.0000000000000D+00  0.0000000000000D+00
234  2.3300000000000D+00  0.0000000000000D+00  0.0000000000000D+00
235  2.3400000000000D+00  0.0000000000000D+00  0.0000000000000D+00
236  2.3500000000000D+00  0.0000000000000D+00  0.0000000000000D+00
237  2.3600000000000D+00  0.0000000000000D+00  0.0000000000000D+00
238  2.3700000000000D+00  0.0000000000000D+00  0.0000000000000D+00
239  2.3800000000000D+00  0.0000000000000D+00  0.0000000000000D+00
240  2.3900000000000D+00  0.0000000000000D+00  0.0000000000000D+00
241  2.4000000000000D+00  0.0000000000000D+00  0.0000000000000D+00
242  2.4100000000000D+00  0.0000000000000D+00  0.0000000000000D+00
243  2.4200000000000D+00  0.0000000000000D+00  0.0000000000000D+00
244  2.4300000000000D+00  0.0000000000000D+00  0.0000000000000D+00
245  2.4400000000000D+00  0.0000000000000D+00  0.0000000000000D+00
246  2.4500000000000D+00  0.0000000000000D+00  0.0000000000000D+00
247  2.4600000000000D+00  0.0000000000000D+00  0.0000000000000D+00
248  2.4700000000000D+00  0.0000000000000D+00  0.0000000000000D+00
249  2.4800000000000D+00  0.0000000000000D+00  0.0000000000000D+00
250  2.4900000000000D+00  0.0000000000000D+00  0.0000000000000D+00
251  2.5000000000000D+00  0.0000000000000D+00  0.0000000000000D+00
252  2.5100000000000D+00  0.0000000000000D+00  0.0000000000000D+00
253  2.5200000000000D+00  0.0000000000000D+00  0.0000000000000D+00
254  2.5300000000000D+00  0.0000000000000D+00  0.0000000000000D+00
255  2.5400000000000D+00  0.0000000000000D+00  0.0000000000000D+00
256  2.5500000000000D+00  0.0000000000000D+00  0.0000000000000D+00
257  2.5600000000000D+00  0.0000000000000D+00  0.0000000000000D+00
258  2.5700000000000D+00  0.0000000000000D+00  0.0000000000000D+00
259  2.5800000000000D+00  0.0000000000000D+00  0.0000000000000D+00
260  2.5900000000000D+00  0.0000000000000D+00  0.0000000000000D+00
261  2.6000000000000D+00  0.0000000000000D+00  0.0000000000000D+00
262  2.6100000000000D+00  0.0000000000000D+00  0.0000000000000D+00
263  2.6200000000000D+00  0.0000000000000D+00  0.0000000000000D+00
264  2.6300000000000D+00  0.0000000000000D+00  0.0000000000000D+00
265  2.6400000000000D+00  0.0000000000000D+00  0.0000000000000D+00
266  2.6500000000000D+00  0.0000000000000D+00  0.0000000000000D+00
267  2.6600000000000D+00  0.0000000000000D+00  0.0000000000000D+00
268  2.6700000000000D+00  0.0000000000000D+00  0.0000000000000D+00
269  2.6800000000000D+00  0.0000000000000D+00  0.0000000000000D+00
270  2.6900000000000D+00  0.0000000000000D+00  0.0000000000000D+00
271  2.7000000000000D+00  0.0000000000000D+00  0.0000000000000D+00
272  2.7100000000000D+00  0.0000000000000D+00  0.0000000000000D+00
273  2.7200000000000D+00  0.0000000000000D+00  0.0000000000000D+00
274  2.7300000000000D+00  0.0000000000000D+00  0.0000000000000D+00
275  2.7400000000000D+00  0.0000000000000D+00  0.0000000000000D+00
276  2.7500000000000D+00  0.0000000000000D+00  0.0000000000000D+00
277  2.7600000000000D+00  0.0000000000000D+00  0.0000000000000D+00
278  2.7700000000000D+00  0.0000000000000D+00  0.0000000000000D+00
279  2.7800000000000D+00  0.0000000000000D+00  0.0000000000000D+00
280  2.7900000000000D+00  0.0000000000000D+00  0.0000000000000D+00
281  2.8000000000000D+00  0.0000000000000D+00  0.0000000000000D+00
282  2.8100000000000D+00  0.0000000000000D+00  0.0000000000000D+00
283  2.8200000000000D+00  0.0000000000000D+00  0.0000000000000D+00
284  2.8300000000000D+00  0.0000000000000D+00  0.0000000000000D+00
285  2.8400000000000D+00  0.0000000000000D+00  0.0000000000000D+00
286  2.8500000000000D+00  0.0000000000000D+00  0.0000000000000D+00
287  2.8600000000000D+00  0.0000000000000D+00  0.0000000000000D+00
288  2.8700000000000D+00  0.0000000000000D+00  0.0000000000000D+00
289  2.8800000000000D+00  0.0000000000000D+00  0.0000000000000D+00
290  2.8900000000000D+00  0.0000000000000D+00  0.0000000000000D+00
291  2.9000000000000D+00  0.0000000000000D+00  0.0000000000000D+00
292  2.9100000000000D+00  0.0000000000000D+00  0.0000000000000D+00
293  2.9200000000000D+00  0.0000000000000D+00  0.0000000000000D+00
294  2.9300000000000D+00  0.0000000000000D+00  0.0000000000000D+00
295  2.9400000000000D+00  0.0000000000000D+00  0.0000000000000D+00
296  2.9500000000000D+00  0.0000000000000D+00  0.0000000000000D+00
297  2.9600000000000D+00  0.0000000000000D+00  0.0000000000000D+00
298  2.9700000000000D+00  0.0000000000000D+00  0.0000000000000D+00
299  2.9800000000000D+00  0.0000000000000D+00  0.0000000000000D+00
300  2.9900000000000D+00  0.0000000000000D+00  0.0000000000000D+00
301  3.0000000000000D+00  0.0000000000000D+00  0.0000000000000D+00
302  3.0100000000000D+00  0.0000000000000D+00  0.0000000000000D+00
303  3.0200000000000D+00  0.0000000000000D+00  0.0000000000000D+00
304  3.0300000000000D+00  0.0000000000000D+00  0.0000000000000D+00
305  3.0400000000000D+00  0.0000000000000D+00  0.0000000000000D+00
306  3.0500000000000D+00  0.0000000000000D+00  0.0000000000000D+00
307  3.0600000000000D+00  0.0000000000000D+00  0.0000000000000D+00
308  3.0700000000000D+00  0.0000000000000D+00  0.0000000000000D+00
309  3.0800000000000D+00  0.0000000000000D+00  0.0000000000000D+00
310  3.0900000000000D+00  0.0000000000000D+00  0.0000000000000D+00
311  3.1000000000000D+00  0.0000000000000D+00  0.0000000000000D+00
312  3.1100000000000D+00  0.0000000000000D+00  0.0000000000000D+00
313  3.1200000000000D+00  0.0000000000000D+00  0.0000000000000D+00
314  3.1300000000000D+00  0.0000000000000D+00  0.0000000000000D+00
315  3.1400000000000D+00  0.0000000000000D+00  0.0000000000000D+00
316  3.1500000000000D+00  0.0000000000000D+00  0.0000000000000D+00
317  3.1600000000000D+00  0.0000000000000D+00  0.0000000000000D+00
318  3.1700000000000D+00  0.0000000000000D+00  0.0000000000000D+00
319  3.1800000000000D+00  0.0000000000000D+00  0.0000000000000D+00
320  3.1900000000000D+00  0.0000000000000D+00  0.0000000000000D+00
321  3.2000000000000D+00  0.0000000000000D+00  0.0000000000000D+00
322  3.2100000000000D+00  0.0000000000000D+00  0.0000000000000D+00
323  3.2200000000000D+00  0.0000000000000D+00  0.0000000000000D+00
324  3.2300000000000D+00  0.0000000000000D+00  0.0000000000000D+00
325  3.2400000000000D+00  0.0000000000000D+00  0.0000000000000D+00
326  3.2500000000000D+00  0.0000000000000D+00  0.0000000000000D+00
327  3.2600000000000D+00  0.0000000000000D+00  0.0000000000000D+00
328  3.2700000000000D+00  0.0000000000000D+00  0.0000000000000D+00
329  3.2800000000000D+00  0.0000000000000D+00  0.0000000000000D+00
330  3.2900000000000D+00  0.0000000000000D+00  0.0000000000000D+00
331  3.3000000000000D+00  0.0000000000000D+00  0.0000000000000D+00
332  3.3100000000000D+00  0.0000000000000D+00  0.0000000000000D+00
333  3.3200000000000D+00  0.0000000000000D+00  0.0000000000000D+00
334  3.3300000000000D+00  0.0000000000000D+00  0.0000000000000D+00
335  3.3400000000000D+00  0.0000000000000D+00  0.0000000000000D+00
336  3.3500000000000D+00  0.0000000000000D+00  0.0000000000000D+00
337  3.3600000000000D+00  0.0000000000000D+00  0.0000000000000D+00
338  3.3700000000000D+00  0.0000000000000D+00  0.0000000000000D+00
339  3.3800000000000D+00  0.0000000000000D+00  0.0000000000000D+00
340  3.3900000000000D+00  0.0000000000000D+00  0.0000000000000D+00
341  3.4000000000000D+00  0.0000000000000D+00  0.0000000000000D+00
342  3.4100000000000D+00  0.0000000000000D+00  0.0000000000000D+00
343  3.4200000000000D+00  0.0000000000000D+00  0.0000000000000D+00
344  3.4300000000000D+00  0.0000000000000D+00  0.0000000000000D+00
345  3.4400000000000D+00  0.0000000000000D+00  0.0000000000000D+00
346  3.4500000000000D+00  0.0000000000000D+00  0.0000000000000D+00
347  3.4600000000000D+00  0.0000000000000D+00  0.0000000000000D+00
348  3.4700000000000D+00  0.0000000000000D+00  0.0000000000000D+00
349  3.4800000000000D+00  0.0000000000000D+00  0.0000000000000D+00
350  3.4900000000000D+00  0.0000000000000D+00  0.0000000000000D+00
351  3.5000000000000D+00  0.0000000000000D+00  0.0000000000000D+00
352  3.5100000000000D+00  0.0000000000000D+00  0.0000000000000D+00
353  3.5200000000000D+00  0.0000000000000D+00  0.0000000000000D+00
354  3.5300000000000D+00  0.0000000000000D+00  0.0000000000000D+00
355  3.5400000000000D+00  0.0000000000000D+00  0.0000000000000D+00
356  3.5500000000000D+00  0.0000000000000D+00  0.0000000000000D+00
357  3.5600000000000D+00  0.0000000000000D+00  0.0000000000000D+00
358  3.5700000000000D+00  0.0000000000000D+00  0.0000000000000D+00
359  3.5800000000000D+00  0.0000000000000D+00  0.0000000000000D+00
360  3.5900000000000D+00  0.0000000000000D+00  0.0000000000000D+00
361  3.6000000000000D+00  0.0000000000000D+00  0.0000000000000D+00
362  3.6100000000000D+00  0.0000000000000D+00  0.0000000000000D+00
363  3.6200000000000D+00  0.0000000000000D+00  0.0000000000000D+00
364  3.6300000000000D+00  0.0000000000000D+00  0.0000000000000D+00
365  3.6400000000000D+00  0.0000000000000D+00  0.0000000000000D+00
366  3.6500000000000D+00  0.0000000000000D+00  0.0000000000000D+00
367  3.6600000000000D+00  0.0000000000000D+00  0.0000000000000D+00
368  3.6700000000000D+00  0.0000000000000D+00  0.0000000000000D+00
369  3.6800000000000D+00  0.0000000000000D+00  0.0000000000000D+00
370  3.6900000000000D+00  0.0000000000000D+00  0.0000000000000D+00
371  3.7000000000000D+00  0.0000000000000D+00  0.0000000000000D+00
372  3.7100000000000D+00  0.0000000000000D+00  0.0000000000000D+00
373  3.7200000000000D+00  0.0000000000000D+00  0.0000000000000D+00
374  3.7300000000000D+00  0.0000000000000D+00  0.0000000000000D+00
375  3.7400000000000D+00  0.0000000000000D+00  0.0000000000000D+00
376  3.7500000000000D+00  0.0000000000000D+00  0.0000000000000D+00
377  3.7600000000000D+00  0.0000000000000D+00  0.0000000000000D+00
378  3.7700000000000D+00  0.0000000000000D+00  0.0000000000000D+00
379  3.7800000000000D+00  0.0000000000000D+00  0.0000000000000D+00
380  3.7900000000000D+00  0.0000000000000D+00  0.0000000000000D+00
381  3.8000000000000D+00  0.0000000000000D+00  0.0000000000000D+00
382  3.8100000000000D+00  0.0000000000000D+00  0.0000000000000D+00
383  3.8200000000000D+00  0.0000000000000D+00  0.0000000000000D+00
384  3.8300000000000D+00  0.0000000000000D+00  0.0000000000000D+00
385  3.8400000000000D+00  0.0000000000000D+00  0.0000000000000D+00
386  3.8500000000000D+00  0.0000000000000D+00  0.0000000000000D+00
387  3.8600000000000D+00  0.0000000000000D+00  0.0000000000000D+00
388  3.8700000000000D+00  0.0000000000000D+00  0.0000000000000D+00
389  3.8800000000000D+00  0.0000000000000D+00  0.0000000000000D+00
390  3.8900000000000D+00  0.0000000000000D+00  0.0000000000000D+00
391  3.9000000000000D+00  0.0000000000000D+00  0.0000000000000D+00
392  3.9100000000000D+00  0.0000000000000D+00  0.0000000000000D+00
393  3.9200000000000D+00  0.0000000000000D+00  0.0000000000000D+00
394  3.9300000000000D+00  0.0000000000000D+00  0.0000000000000D+00
395  3.9400000000000D+00  0.0000000000000D+00  0.0000000000000D+00
396  3.9500000000000D+00  0.0000000000000D+00  0.0000000000000D+00
397  3.9600000000000D+00  0.0000000000000D+00  0.0000000000000D+00
398  3.9700000000000D+00  0.0000000000000D+00  0.0000000000000D+00
399  3.9800000000000D+00  0.0000000000000D+00  0.0000000000000D+00
400  3.9900000000000D+00  0.0000000000000D+00  0.0000000000000D+00
401  4.0000000000000D+00  0.0000000000000D+00  0.0000000000000D+00
1                        -1.5888995233605D+01 -1.2596771374481D+00
1  0.0000000000000D+00 -0.0000000000000D+00 -0.0000000000000D+00
2  1.0000000000000D-02 -7.9612040840069D-03 -2.4835746808403D-05
3  2.0000000000000D-02 -3.1727989429111D-02 -1.1840527812891D-04
4  3.0000000000000D-02 -7.0951569482103D-02 -3.3753558917358D-04
5  4.0000000000000D-02 -1.2505625522722D-01 -7.7574450599285D-04
6  5.0000000000000D-02 -1.9324779981548D-01 -1.5614700029970D-03
7  6.0000000000000D-02 -2.7452490596820D-01 -2.8556310597747D-03
8  7.0000000000000D-02 -3.6769372428853D-01 -4.8485591244473D-03
9  8.0000000000000D-02 -4.7138512603001D-01 -7.7563493643582D-03
10  9.0000000000000D-02 -5.8407449258889D-01 -1.1816690232298D-02
11  1.0000000000000D-01 -7.0410372667358D-01 -1.7284238304535D-02
12  1.1000000000000D-01 -8.2970515716318D-01 -2.4425612758198D-02
13  1.2000000000000D-01 -9.5902698193832D-01 -3.3514090063739D-02
14  1.3000000000000D-01 -1.0901598703846D+00 -4.4824084476663D-02
15  1.4000000000000D-01 -1.2211643307902D+00 -5.8625503517245D-02
16  1.5000000000000D-01 -1.3500984369251D+00 -7.5178069931851D-02
17  1.6000000000000D-01 -1.4750455038976D+00 -9.4725702395392D-02
18  1.7000000000000D-01 -1.5941413047685D+00 -1.1749104665386D-01
19  1.8000000000000D-01 -1.7056004279758D+00 -1.4367024663765D-01
20  1.9000000000000D-01 -1.8077413889218D+00 -1.7342804183913D-01
21  2.0000000000000D-01 -1.8990101292837D+00 -2.0689327204834D-01
22  2.1000000000000D-01 -1.9780015625866D+00 -2.4415486525684D-01
23  2.2000000000000D-01 -2.0434788575158D+00 -2.8525837570863D-01
24  2.3000000000000D-01 -2.0943901796275D+00 -3.3020313322914D-01
25  2.4000000000000D-01 -2.1298826643904D+00 -3.7894005165676D-01
26  2.5000000000000D-01 -2.1493134131596D+00 -4.3137014079024D-01
27  2.6000000000000D-01 -2.1522573865639D+00 -4.8734374567123D-01
28  2.7000000000000D-01 -2.1385120610347D+00 -5.4666054041359D-01
29  2.8000000000000D-01 -2.1080988579880D+00 -6.0907026851257D-01
30  2.9000000000000D-01 -2.0612612753616D+00 -6.7427424219007D-01
31  3.0000000000000D-01 -1.9984598103647D+00 -7.4192757449168D-01
32  3.1000000000000D-01 -1.9203637617773D+00 -8.1164211885193D-01
33  3.2000000000000D-01 -1.8278400976345D+00 -8.8299006792364D-01
34  3.3000000000000D-01 -1.7219395401858D+00 -9.5550817195278D-01
35  3.4000000000000D-01 -1.6038798308166D+00 -1.0287025803768D+00
36  3.5000000000000D-01 -1.4750274736361D+00 -1.1020539995232D+00
37  3.6000000000000D-01 -1.3368762403279D+00 -1.1750235619458D+00
38  3.7000000000000D-01 -1.1910254102047D+00 -1.2470587116103D+00
39  3.8000000000000D-01 -1.0391558846159D+00 -1.3175995334364D+00
40  3.9000000000000D-01 -8.8300520021403D-01 -1.3860852822689D+00
41  4.0000000000000D-01 -7.2434279411649D-01 -1.4519607991265D+00
42  4.1000000000000D-01 -5.6494452013557D-01 -1.5146830380953D+00