Be    ONCVPSP  r_core=  1.41  1.11
4.0000      4.0000      141229    zatom,zion,pspd
8    11     1     4   401     0    pspcod,pspxc,lmax,lloc,mmax,r2well
4.00000000  0.00000000  0.00000000    rchrg fchrg qchrg
2     2     0     0     0    nproj
0                 extension_switch
0                        -6.6011723694463D+00 -2.4537133086156D+00
1  0.0000000000000D+00  0.0000000000000D+00  0.0000000000000D+00
2  1.0000000000000D-02  9.1252131971294D-02  3.8580465678206D-02
3  2.0000000000000D-02  1.8225976706104D-01  7.6946977079922D-02
4  3.0000000000000D-02  2.7277879866372D-01  1.1488514859106D-01
5  4.0000000000000D-02  3.6256591010939D-01  1.5217976913775D-01
6  5.0000000000000D-02  4.5137899281249D-01  1.8861448152508D-01
7  6.0000000000000D-02  5.3897759146627D-01  2.2397156956423D-01
8  7.0000000000000D-02  6.2512338403174D-01  2.5803188449340D-01
9  8.0000000000000D-02  7.0958070322074D-01  2.9057493853594D-01
10  9.0000000000000D-02  7.9211710490705D-01  3.2137918901914D-01
11  1.0000000000000D-01  8.7250398745388D-01  3.5022253140742D-01
12  1.1000000000000D-01  9.5051726432494D-01  3.7688301398070D-01
13  1.2000000000000D-01  1.0259380906454D+00  4.0113978087915D-01
14  1.3000000000000D-01  1.0985536425515D+00  4.2277424391345D-01
15  1.4000000000000D-01  1.1681579463763D+00  4.4157147717381D-01
16  1.5000000000000D-01  1.2345527528260D+00  4.5732182197349D-01
17  1.6000000000000D-01  1.2975484496192D+00  4.6982268358503D-01
18  1.7000000000000D-01  1.3569650042030D+00  4.7888049499539D-01
19  1.8000000000000D-01  1.4126329268333D+00  4.8431281785156D-01
20  1.9000000000000D-01  1.4643942432637D+00  4.8595054669200D-01
21  2.0000000000000D-01  1.5121034630426D+00  4.8364017399133D-01
22  2.1000000000000D-01  1.5556285331112D+00  4.7724607998400D-01
23  2.2000000000000D-01  1.5948517590350D+00  4.6665279453655D-01
24  2.3000000000000D-01  1.6296706830246D+00  4.5176719246847D-01
25  2.4000000000000D-01  1.6599989010136D+00  4.3252056817195D-01
26  2.5000000000000D-01  1.6857668082814D+00  4.0887055206198D-01
27  2.6000000000000D-01  1.7069222554632D+00  3.8080281386998D-01
28  2.7000000000000D-01  1.7234311071201D+00  3.4833252304017D-01
29  2.8000000000000D-01  1.7352776843619D+00  3.1150551167940D-01
30  2.9000000000000D-01  1.7424650883178D+00  2.7039912400717D-01
31  3.0000000000000D-01  1.7450153907669D+00  2.2512271202233D-01
32  3.1000000000000D-01  1.7429696859181D+00  1.7581775740827D-01
33  3.2000000000000D-01  1.7363879974725D+00  1.2265760188872D-01
34  3.3000000000000D-01  1.7253490406166D+00  6.5846783867534D-02
35  3.4000000000000D-01  1.7099498368171D+00  5.6199752585898D-03
36  3.5000000000000D-01  1.6903051785728D+00 -5.7759482721809D-02
37  3.6000000000000D-01  1.6665469548819D+00 -1.2400142129890D-01
38  3.7000000000000D-01  1.6388233399926D+00 -1.9279104068455D-01
39  3.8000000000000D-01  1.6072978559497D+00 -2.6379143655459D-01
40  3.9000000000000D-01  1.5721483040507D+00 -3.3664645876383D-01
41  4.0000000000000D-01  1.5335656083057D+00 -4.1098377661727D-01
42  4.1000000000000D-01  1.4917525545214D+00 -4.8641818968306D-01
43  4.2000000000000D-01  1.4469224532209D+00 -5.6255509679868D-01
44  4.3000000000000D-01  1.3992977403913D+00 -6.3899407645132D-01
45  4.4000000000000D-01  1.3491085327876D+00 -7.1533252383556D-01
46  4.5000000000000D-01  1.2965911549893D+00 -7.9116928877978D-01
47  4.6000000000000D-01  1.2419866558299D+00 -8.6610825802751D-01
48  4.7000000000000D-01  1.1855393322542D+00 -9.3976182505098D-01
49  4.8000000000000D-01  1.1274953004509D+00 -1.0117541394373D+00
50  4.9000000000000D-01  1.0681010547166D+00 -1.0817242737903D+00
51  5.0000000000000D-01  1.0076020692908D+00 -1.1493291510495D+00
52  5.1000000000000D-01  9.4624158506244D-01 -1.2142458977261D+00
53  5.2000000000000D-01  8.8425946007011D-01 -1.2761739310991D+00
54  5.3000000000000D-01  8.2189076789006D-01 -1.3348374360749D+00
55  5.4000000000000D-01  7.5936514103663D-01 -1.3899860281139D+00
56  5.5000000000000D-01  6.9690559757880D-01 -1.4413964115104D+00
57  5.6000000000000D-01  6.3472781428519D-01 -1.4888728769254D+00
58  5.7000000000000D-01  5.7303949417648D-01 -1.5322475038932D+00
59  5.8000000000000D-01  5.1203963240325D-01 -1.5713803408477D+00
60  5.9000000000000D-01  4.5191817344020D-01 -1.6061587418976D+00
61  6.0000000000000D-01  3.9285560193626D-01 -1.6364966603472D+00
62  6.1000000000000D-01  3.3502249386554D-01 -1.6623338189625D+00
63  6.2000000000000D-01  2.7857975435538D-01 -1.6836338510284D+00
64  6.3000000000000D-01  2.2367788157666D-01 -1.7003834851354D+00
65  6.4000000000000D-01  1.7045740962537D-01 -1.7125902801838D+00
66  6.5000000000000D-01  1.1904890582347D-01 -1.7202809562560D+00
67  6.6000000000000D-01  6.9572591533616D-02 -1.7234996824789D+00
68  6.7000000000000D-01  2.2138859329007D-02 -1.7223059548204D+00
69  6.8000000000000D-01 -2.3151720416244D-02 -1.7167728515735D+00
70  6.9000000000000D-01 -6.6208356106329D-02 -1.7069852507233D+00
71  7.0000000000000D-01 -1.0694999370992D-01 -1.6930380783527D+00
72  7.1000000000000D-01 -1.4530506010701D-01 -1.6750349441518D+00
73  7.2000000000000D-01 -1.8121145448349D-01 -1.6530868539445D+00
74  7.3000000000000D-01 -2.1461649260936D-01 -1.6273112072260D+00
75  7.4000000000000D-01 -2.4547689862943D-01 -1.5978310342000D+00
76  7.5000000000000D-01 -2.7375892449763D-01 -1.5647743445702D+00
77  7.6000000000000D-01 -2.9943829520685D-01 -1.5282741593224D+00
78  7.7000000000000D-01 -3.2250036628032D-01 -1.4884685308949D+00
79  7.8000000000000D-01 -3.4294027367763D-01 -1.4455009208829D+00
80  7.9000000000000D-01 -3.6076311789137D-01 -1.3995208445099D+00
81  8.0000000000000D-01 -3.7598417636527D-01 -1.3506847591577D+00
82  8.1000000000000D-01 -3.8862913659087D-01 -1.2991571670554D+00
83  8.2000000000000D-01 -3.9873434067018D-01 -1.2451118957908D+00
84  8.3000000000000D-01 -4.0634703080551D-01 -1.1887335147751D+00
85  8.4000000000000D-01 -4.1152558412925D-01 -1.1302188412826D+00
86  8.5000000000000D-01 -4.1433972454123D-01 -1.0697784862899D+00
87  8.6000000000000D-01 -4.1487069879754D-01 -1.0076383881198D+00
88  8.7000000000000D-01 -4.1321140400591D-01 -9.4404128089853D-01
89  8.8000000000000D-01 -4.0946645393713D-01 -8.7924804507770D-01
90  8.9000000000000D-01 -4.0375217216530D-01 -8.1353888878396D-01
91  9.0000000000000D-01 -3.9619650100631D-01 -7.4721431154243D-01
92  9.1000000000000D-01 -3.8693881653532D-01 -6.8059580598383D-01
93  9.2000000000000D-01 -3.7612964162942D-01 -6.1402625849279D-01
94  9.3000000000000D-01 -3.6393025099358D-01 -5.4787001636660D-01
95  9.4000000000000D-01 -3.5051216446758D-01 -4.8251259688229D-01
96  9.5000000000000D-01 -3.3605654638835D-01 -4.1836010252259D-01
97  9.6000000000000D-01 -3.2075338445355D-01 -3.5583778104407D-01
98  9.7000000000000D-01 -3.0480048068559D-01 -2.9538746062151D-01
99  9.8000000000000D-01 -2.8839736934319D-01 -2.3744535214371D-01
100  9.9000000000000D-01 -2.7173633534699D-01 -1.8240798765078D-01
101  1.0000000000000D+00 -2.5499585740262D-01 -1.3061120470200D-01
102  1.0100000000000D+00 -2.3833399741690D-01 -8.2309653844560D-02
103  1.0200000000000D+00 -2.2188225076659D-01 -3.7658758892647D-02
104  1.0300000000000D+00 -2.0574194979520D-01  3.2945342325119D-03
105  1.0400000000000D+00 -1.8997715261423D-01  4.0630305804003D-02
106  1.0500000000000D+00 -1.7461511375865D-01  7.4547574445134D-02
107  1.0600000000000D+00 -1.5965264493823D-01  1.0533803100263D-01
108  1.0700000000000D+00 -1.4506264117682D-01  1.3335806850298D-01
109  1.0800000000000D+00 -1.3080332868321D-01  1.5899490084556D-01
110  1.0900000000000D+00 -1.1683098131794D-01  1.8261464671329D-01
111  1.1000000000000D+00 -1.0311905299782D-01  2.0449765892713D-01
112  1.1100000000000D+00 -8.9666784991270D-02  2.2481420510469D-01
113  1.1200000000000D+00 -7.6504500639037D-02  2.4360901368709D-01
114  1.1300000000000D+00 -6.3700607453805D-02  2.6077975083370D-01
115  1.1400000000000D+00 -5.1361645232546D-02  2.7608305909563D-01
116  1.1500000000000D+00 -3.9613168623239D-02  2.8920837767739D-01
117  1.1600000000000D+00 -2.8594323558148D-02  2.9979798645160D-01
118  1.1700000000000D+00 -1.8445641918829D-02  3.0749151040448D-01
119  1.1800000000000D+00 -9.2873393473700D-03  3.1200119227048D-01
120  1.1900000000000D+00 -1.2168093638895D-03  3.1311903863254D-01
121  1.2000000000000D+00  5.6908482271904D-03  3.1071547598900D-01
122  1.2100000000000D+00  1.1411438587799D-02  3.0483082686409D-01
123  1.2200000000000D+00  1.5947116541069D-02  2.9559161209920D-01
124  1.2300000000000D+00  1.9327169266761D-02  2.8321351675975D-01
125  1.2400000000000D+00  2.1618343670855D-02  2.6802935504236D-01
126  1.2500000000000D+00  2.2906639618395D-02  2.5042850728628D-01
127  1.2600000000000D+00  2.3293268733518D-02  2.3084610024831D-01
128  1.2700000000000D+00  2.2896622948194D-02  2.0976272149627D-01
129  1.2800000000000D+00  2.1840463780849D-02  1.8766679001404D-01
130  1.2900000000000D+00  2.0253897728690D-02  1.6505908644357D-01
131  1.3000000000000D+00  1.8266357530974D-02  1.4242810201940D-01
132  1.3100000000000D+00  1.6002315436912D-02  1.2023672806709D-01
133  1.3200000000000D+00  1.3586715182621D-02  9.8944578466653D-02
134  1.3300000000000D+00  1.1130400129294D-02  7.8949851038660D-02
135  1.3400000000000D+00  8.7368845782636D-03  6.0620406739557D-02
136  1.3500000000000D+00  6.5049303069061D-03  4.4302393932724D-02
137  1.3600000000000D+00  4.5097836391692D-03  3.0250225348904D-02
138  1.3700000000000D+00  2.8233137750115D-03  1.8703991598213D-02
139  1.3800000000000D+00  1.5001481516003D-03  9.8369692973037D-03
140  1.3900000000000D+00  5.7820022371415D-04  3.7652374715693D-03
141  1.4000000000000D+00  1.2102287428338D-04  7.7510393694082D-04
142  1.4100000000000D+00 -3.6358680000204D-05 -2.3861898181906D-04
143  1.4200000000000D+00 -2.0117002844961D-05 -1.3148160440742D-04
144  1.4300000000000D+00  3.3809162917483D-07  2.3393308989316D-06
145  1.4400000000000D+00  1.1980971431438D-08  8.2898996160254D-08
146  1.4500000000000D+00  0.0000000000000D+00  0.0000000000000D+00
147  1.4600000000000D+00  0.0000000000000D+00  0.0000000000000D+00
148  1.4700000000000D+00  0.0000000000000D+00  0.0000000000000D+00
149  1.4800000000000D+00  0.0000000000000D+00  0.0000000000000D+00
150  1.4900000000000D+00  0.0000000000000D+00  0.0000000000000D+00
151  1.5000000000000D+00  0.0000000000000D+00  0.0000000000000D+00
152  1.5100000000000D+00  0.0000000000000D+00  0.0000000000000D+00
153  1.5200000000000D+00  0.0000000000000D+00  0.0000000000000D+00
154  1.5300000000000D+00  0.0000000000000D+00  0.0000000000000D+00
155  1.5400000000000D+00  0.0000000000000D+00  0.0000000000000D+00
156  1.5500000000000D+00  0.0000000000000D+00  0.0000000000000D+00
157  1.5600000000000D+00  0.0000000000000D+00  0.0000000000000D+00
158  1.5700000000000D+00  0.0000000000000D+00  0.0000000000000D+00
159  1.5800000000000D+00  0.0000000000000D+00  0.0000000000000D+00
160  1.5900000000000D+00  0.0000000000000D+00  0.0000000000000D+00
161  1.6000000000000D+00  0.0000000000000D+00  0.0000000000000D+00
162  1.6100000000000D+00  0.0000000000000D+00  0.0000000000000D+00
163  1.6200000000000D+00  0.0000000000000D+00  0.0000000000000D+00
164  1.6300000000000D+00  0.0000000000000D+00  0.0000000000000D+00
165  1.6400000000000D+00  0.0000000000000D+00  0.0000000000000D+00
166  1.6500000000000D+00  0.0000000000000D+00  0.0000000000000D+00
167  1.6600000000000D+00  0.0000000000000D+00  0.0000000000000D+00
168  1.6700000000000D+00  0.0000000000000D+00  0.0000000000000D+00
169  1.6800000000000D+00  0.0000000000000D+00  0.0000000000000D+00
170  1.6900000000000D+00  0.0000000000000D+00  0.0000000000000D+00
171  1.7000000000000D+00  0.0000000000000D+00  0.0000000000000D+00
172  1.7100000000000D+00  0.0000000000000D+00  0.0000000000000D+00
173  1.7200000000000D+00  0.0000000000000D+00  0.0000000000000D+00
174  1.7300000000000D+00  0.0000000000000D+00  0.0000000000000D+00
175  1.7400000000000D+00  0.0000000000000D+00  0.0000000000000D+00
176  1.7500000000000D+00  0.0000000000000D+00  0.0000000000000D+00
177  1.7600000000000D+00  0.0000000000000D+00  0.0000000000000D+00
178  1.7700000000000D+00  0.0000000000000D+00  0.0000000000000D+00
179  1.7800000000000D+00  0.0000000000000D+00  0.0000000000000D+00
180  1.7900000000000D+00  0.0000000000000D+00  0.0000000000000D+00
181  1.8000000000000D+00  0.0000000000000D+00  0.0000000000000D+00
182  1.8100000000000D+00  0.0000000000000D+00  0.0000000000000D+00
183  1.8200000000000D+00  0.0000000000000D+00  0.0000000000000D+00
184  1.8300000000000D+00  0.0000000000000D+00  0.0000000000000D+00
185  1.8400000000000D+00  0.0000000000000D+00  0.0000000000000D+00
186  1.8500000000000D+00  0.0000000000000D+00  0.0000000000000D+00
187  1.8600000000000D+00  0.0000000000000D+00  0.0000000000000D+00
188  1.8700000000000D+00  0.0000000000000D+00  0.0000000000000D+00
189  1.8800000000000D+00  0.0000000000000D+00  0.0000000000000D+00
190  1.8900000000000D+00  0.0000000000000D+00  0.0000000000000D+00
191  1.9000000000000D+00  0.0000000000000D+00  0.0000000000000D+00
192  1.9100000000000D+00  0.0000000000000D+00  0.0000000000000D+00
193  1.9200000000000D+00  0.0000000000000D+00  0.0000000000000D+00
194  1.9300000000000D+00  0.0000000000000D+00  0.0000000000000D+00
195  1.9400000000000D+00  0.0000000000000D+00  0.0000000000000D+00
196  1.9500000000000D+00  0.0000000000000D+00  0.0000000000000D+00
197  1.9600000000000D+00  0.0000000000000D+00  0.0000000000000D+00
198  1.9700000000000D+00  0.0000000000000D+00  0.0000000000000D+00
199  1.9800000000000D+00  0.0000000000000D+00  0.0000000000000D+00
200  1.9900000000000D+00  0.0000000000000D+00  0.0000000000000D+00
201  2.0000000000000D+00  0.0000000000000D+00  0.0000000000000D+00
202  2.0100000000000D+00  0.0000000000000D+00  0.0000000000000D+00
203  2.0200000000000D+00  0.0000000000000D+00  0.0000000000000D+00
204  2.0300000000000D+00  0.0000000000000D+00  0.0000000000000D+00
205  2.0400000000000D+00  0.0000000000000D+00  0.0000000000000D+00
206  2.0500000000000D+00  0.0000000000000D+00  0.0000000000000D+00
207  2.0600000000000D+00  0.0000000000000D+00  0.0000000000000D+00
208  2.0700000000000D+00  0.0000000000000D+00  0.0000000000000D+00
209  2.0800000000000D+00  0.0000000000000D+00  0.0000000000000D+00
210  2.0900000000000D+00  0.0000000000000D+00  0.0000000000000D+00
211  2.1000000000000D+00  0.0000000000000D+00  0.0000000000000D+00
212  2.1100000000000D+00  0.0000000000000D+00  0.0000000000000D+00
213  2.1200000000000D+00  0.0000000000000D+00  0.0000000000000D+00
214  2.1300000000000D+00  0.0000000000000D+00  0.0000000000000D+00
215  2.1400000000000D+00  0.0000000000000D+00  0.0000000000000D+00
216  2.1500000000000D+00  0.0000000000000D+00  0.0000000000000D+00
217  2.1600000000000D+00  0.0000000000000D+00  0.0000000000000D+00
218  2.1700000000000D+00  0.0000000000000D+00  0.0000000000000D+00
219  2.1800000000000D+00  0.0000000000000D+00  0.0000000000000D+00
220  2.1900000000000D+00  0.0000000000000D+00  0.0000000000000D+00
221  2.2000000000000D+00  0.0000000000000D+00  0.0000000000000D+00
222  2.2100000000000D+00  0.0000000000000D+00  0.0000000000000D+00
223  2.2200000000000D+00  0.0000000000000D+00  0.0000000000000D+00
224  2.2300000000000D+00  0.0000000000000D+00  0.0000000000000D+00
225  2.2400000000000D+00  0.0000000000000D+00  0.0000000000000D+00
226  2.2500000000000D+00  0.0000000000000D+00  0.0000000000000D+00
227  2.2600000000000D+00  0.0000000000000D+00  0.0000000000000D+00
228  2.2700000000000D+00  0.0000000000000D+00  0.0000000000000D+00
229  2.2800000000000D+00  0.0000000000000D+00  0.0000000000000D+00
230  2.2900000000000D+00  0.0000000000000D+00  0.0000000000000D+00
231  2.3000000000000D+00  0.0000000000000D+00  0.0000000000000D+00
232  2.3100000000000D+00  0.0000000000000D+00  0.0000000000000D+00
233  2.3200000000000D+00  0.0000000000000D+00  0.0000000000000D+00
234  2.3300000000000D+00  0.0000000000000D+00  0.0000000000000D+00
235  2.3400000000000D+00  0.0000000000000D+00  0.0000000000000D+00
236  2.3500000000000D+00  0.0000000000000D+00  0.0000000000000D+00
237  2.3600000000000D+00  0.0000000000000D+00  0.0000000000000D+00
238  2.3700000000000D+00  0.0000000000000D+00  0.0000000000000D+00
239  2.3800000000000D+00  0.0000000000000D+00  0.0000000000000D+00
240  2.3900000000000D+00  0.0000000000000D+00  0.0000000000000D+00
241  2.4000000000000D+00  0.0000000000000D+00  0.0000000000000D+00
242  2.4100000000000D+00  0.0000000000000D+00  0.0000000000000D+00
243  2.4200000000000D+00  0.0000000000000D+00  0.0000000000000D+00
244  2.4300000000000D+00  0.0000000000000D+00  0.0000000000000D+00
245  2.4400000000000D+00  0.0000000000000D+00  0.0000000000000D+00
246  2.4500000000000D+00  0.0000000000000D+00  0.0000000000000D+00
247  2.4600000000000D+00  0.0000000000000D+00  0.0000000000000D+00
248  2.4700000000000D+00  0.0000000000000D+00  0.0000000000000D+00
249  2.4800000000000D+00  0.0000000000000D+00  0.0000000000000D+00
250  2.4900000000000D+00  0.0000000000000D+00  0.0000000000000D+00
251  2.5000000000000D+00  0.0000000000000D+00  0.0000000000000D+00
252  2.5100000000000D+00  0.0000000000000D+00  0.0000000000000D+00
253  2.5200000000000D+00  0.0000000000000D+00  0.0000000000000D+00
254  2.5300000000000D+00  0.0000000000000D+00  0.0000000000000D+00
255  2.5400000000000D+00  0.0000000000000D+00  0.0000000000000D+00
256  2.5500000000000D+00  0.0000000000000D+00  0.0000000000000D+00
257  2.5600000000000D+00  0.0000000000000D+00  0.0000000000000D+00
258  2.5700000000000D+00  0.0000000000000D+00  0.0000000000000D+00
259  2.5800000000000D+00  0.0000000000000D+00  0.0000000000000D+00
260  2.5900000000000D+00  0.0000000000000D+00  0.0000000000000D+00
261  2.6000000000000D+00  0.0000000000000D+00  0.0000000000000D+00
262  2.6100000000000D+00  0.0000000000000D+00  0.0000000000000D+00
263  2.6200000000000D+00  0.0000000000000D+00  0.0000000000000D+00
264  2.6300000000000D+00  0.0000000000000D+00  0.0000000000000D+00
265  2.6400000000000D+00  0.0000000000000D+00  0.0000000000000D+00
266  2.6500000000000D+00  0.0000000000000D+00  0.0000000000000D+00
267  2.6600000000000D+00  0.0000000000000D+00  0.0000000000000D+00
268  2.6700000000000D+00  0.0000000000000D+00  0.0000000000000D+00
269  2.6800000000000D+00  0.0000000000000D+00  0.0000000000000D+00
270  2.6900000000000D+00  0.0000000000000D+00  0.0000000000000D+00
271  2.7000000000000D+00  0.0000000000000D+00  0.0000000000000D+00
272  2.7100000000000D+00  0.0000000000000D+00  0.0000000000000D+00
273  2.7200000000000D+00  0.0000000000000D+00  0.0000000000000D+00
274  2.7300000000000D+00  0.0000000000000D+00  0.0000000000000D+00
275  2.7400000000000D+00  0.0000000000000D+00  0.0000000000000D+00
276  2.7500000000000D+00  0.0000000000000D+00  0.0000000000000D+00
277  2.7600000000000D+00  0.0000000000000D+00  0.0000000000000D+00
278  2.7700000000000D+00  0.0000000000000D+00  0.0000000000000D+00
279  2.7800000000000D+00  0.0000000000000D+00  0.0000000000000D+00
280  2.7900000000000D+00  0.0000000000000D+00  0.0000000000000D+00
281  2.8000000000000D+00  0.0000000000000D+00  0.0000000000000D+00
282  2.8100000000000D+00  0.0000000000000D+00  0.0000000000000D+00
283  2.8200000000000D+00  0.0000000000000D+00  0.0000000000000D+00
284  2.8300000000000D+00  0.0000000000000D+00  0.0000000000000D+00
285  2.8400000000000D+00  0.0000000000000D+00  0.0000000000000D+00
286  2.8500000000000D+00  0.0000000000000D+00  0.0000000000000D+00
287  2.8600000000000D+00  0.0000000000000D+00  0.0000000000000D+00
288  2.8700000000000D+00  0.0000000000000D+00  0.0000000000000D+00
289  2.8800000000000D+00  0.0000000000000D+00  0.0000000000000D+00
290  2.8900000000000D+00  0.0000000000000D+00  0.0000000000000D+00
291  2.9000000000000D+00  0.0000000000000D+00  0.0000000000000D+00
292  2.9100000000000D+00  0.0000000000000D+00  0.0000000000000D+00
293  2.9200000000000D+00  0.0000000000000D+00  0.0000000000000D+00
294  2.9300000000000D+00  0.0000000000000D+00  0.0000000000000D+00
295  2.9400000000000D+00  0.0000000000000D+00  0.0000000000000D+00
296  2.9500000000000D+00  0.0000000000000D+00  0.0000000000000D+00
297  2.9600000000000D+00  0.0000000000000D+00  0.0000000000000D+00
298  2.9700000000000D+00  0.0000000000000D+00  0.0000000000000D+00
299  2.9800000000000D+00  0.0000000000000D+00  0.0000000000000D+00
300  2.9900000000000D+00  0.0000000000000D+00  0.0000000000000D+00
301  3.0000000000000D+00  0.0000000000000D+00  0.0000000000000D+00
302  3.0100000000000D+00  0.0000000000000D+00  0.0000000000000D+00
303  3.0200000000000D+00  0.0000000000000D+00  0.0000000000000D+00
304  3.0300000000000D+00  0.0000000000000D+00  0.0000000000000D+00
305  3.0400000000000D+00  0.0000000000000D+00  0.0000000000000D+00
306  3.0500000000000D+00  0.0000000000000D+00  0.0000000000000D+00
307  3.0600000000000D+00  0.0000000000000D+00  0.0000000000000D+00
308  3.0700000000000D+00  0.0000000000000D+00  0.0000000000000D+00
309  3.0800000000000D+00  0.0000000000000D+00  0.0000000000000D+00
310  3.0900000000000D+00  0.0000000000000D+00  0.0000000000000D+00
311  3.1000000000000D+00  0.0000000000000D+00  0.0000000000000D+00
312  3.1100000000000D+00  0.0000000000000D+00  0.0000000000000D+00
313  3.1200000000000D+00  0.0000000000000D+00  0.0000000000000D+00
314  3.1300000000000D+00  0.0000000000000D+00  0.0000000000000D+00
315  3.1400000000000D+00  0.0000000000000D+00  0.0000000000000D+00
316  3.1500000000000D+00  0.0000000000000D+00  0.0000000000000D+00
317  3.1600000000000D+00  0.0000000000000D+00  0.0000000000000D+00
318  3.1700000000000D+00  0.0000000000000D+00  0.0000000000000D+00
319  3.1800000000000D+00  0.0000000000000D+00  0.0000000000000D+00
320  3.1900000000000D+00  0.0000000000000D+00  0.0000000000000D+00
321  3.2000000000000D+00  0.0000000000000D+00  0.0000000000000D+00
322  3.2100000000000D+00  0.0000000000000D+00  0.0000000000000D+00
323  3.2200000000000D+00  0.0000000000000D+00  0.0000000000000D+00
324  3.2300000000000D+00  0.0000000000000D+00  0.0000000000000D+00
325  3.2400000000000D+00  0.0000000000000D+00  0.0000000000000D+00
326  3.2500000000000D+00  0.0000000000000D+00  0.0000000000000D+00
327  3.2600000000000D+00  0.0000000000000D+00  0.0000000000000D+00
328  3.2700000000000D+00  0.0000000000000D+00  0.0000000000000D+00
329  3.2800000000000D+00  0.0000000000000D+00  0.0000000000000D+00
330  3.2900000000000D+00  0.0000000000000D+00  0.0000000000000D+00
331  3.3000000000000D+00  0.0000000000000D+00  0.0000000000000D+00
332  3.3100000000000D+00  0.0000000000000D+00  0.0000000000000D+00
333  3.3200000000000D+00  0.0000000000000D+00  0.0000000000000D+00
334  3.3300000000000D+00  0.0000000000000D+00  0.0000000000000D+00
335  3.3400000000000D+00  0.0000000000000D+00  0.0000000000000D+00
336  3.3500000000000D+00  0.0000000000000D+00  0.0000000000000D+00
337  3.3600000000000D+00  0.0000000000000D+00  0.0000000000000D+00
338  3.3700000000000D+00  0.0000000000000D+00  0.0000000000000D+00
339  3.3800000000000D+00  0.0000000000000D+00  0.0000000000000D+00
340  3.3900000000000D+00  0.0000000000000D+00  0.0000000000000D+00
341  3.4000000000000D+00  0.0000000000000D+00  0.0000000000000D+00
342  3.4100000000000D+00  0.0000000000000D+00  0.0000000000000D+00
343  3.4200000000000D+00  0.0000000000000D+00  0.0000000000000D+00
344  3.4300000000000D+00  0.0000000000000D+00  0.0000000000000D+00
345  3.4400000000000D+00  0.0000000000000D+00  0.0000000000000D+00
346  3.4500000000000D+00  0.0000000000000D+00  0.0000000000000D+00
347  3.4600000000000D+00  0.0000000000000D+00  0.0000000000000D+00
348  3.4700000000000D+00  0.0000000000000D+00  0.0000000000000D+00
349  3.4800000000000D+00  0.0000000000000D+00  0.0000000000000D+00
350  3.4900000000000D+00  0.0000000000000D+00  0.0000000000000D+00
351  3.5000000000000D+00  0.0000000000000D+00  0.0000000000000D+00
352  3.5100000000000D+00  0.0000000000000D+00  0.0000000000000D+00
353  3.5200000000000D+00  0.0000000000000D+00  0.0000000000000D+00
354  3.5300000000000D+00  0.0000000000000D+00  0.0000000000000D+00
355  3.5400000000000D+00  0.0000000000000D+00  0.0000000000000D+00
356  3.5500000000000D+00  0.0000000000000D+00  0.0000000000000D+00
357  3.5600000000000D+00  0.0000000000000D+00  0.0000000000000D+00
358  3.5700000000000D+00  0.0000000000000D+00  0.0000000000000D+00
359  3.5800000000000D+00  0.0000000000000D+00  0.0000000000000D+00
360  3.5900000000000D+00  0.0000000000000D+00  0.0000000000000D+00
361  3.6000000000000D+00  0.0000000000000D+00  0.0000000000000D+00
362  3.6100000000000D+00  0.0000000000000D+00  0.0000000000000D+00
363  3.6200000000000D+00  0.0000000000000D+00  0.0000000000000D+00
364  3.6300000000000D+00  0.0000000000000D+00  0.0000000000000D+00
365  3.6400000000000D+00  0.0000000000000D+00  0.0000000000000D+00
366  3.6500000000000D+00  0.0000000000000D+00  0.0000000000000D+00
367  3.6600000000000D+00  0.0000000000000D+00  0.0000000000000D+00
368  3.6700000000000D+00  0.0000000000000D+00  0.0000000000000D+00
369  3.6800000000000D+00  0.0000000000000D+00  0.0000000000000D+00
370  3.6900000000000D+00  0.0000000000000D+00  0.0000000000000D+00
371  3.7000000000000D+00  0.0000000000000D+00  0.0000000000000D+00
372  3.7100000000000D+00  0.0000000000000D+00  0.0000000000000D+00
373  3.7200000000000D+00  0.0000000000000D+00  0.0000000000000D+00
374  3.7300000000000D+00  0.0000000000000D+00  0.0000000000000D+00
375  3.7400000000000D+00  0.0000000000000D+00  0.0000000000000D+00
376  3.7500000000000D+00  0.0000000000000D+00  0.0000000000000D+00
377  3.7600000000000D+00  0.0000000000000D+00  0.0000000000000D+00
378  3.7700000000000D+00  0.0000000000000D+00  0.0000000000000D+00
379  3.7800000000000D+00  0.0000000000000D+00  0.0000000000000D+00
380  3.7900000000000D+00  0.0000000000000D+00  0.0000000000000D+00
381  3.8000000000000D+00  0.0000000000000D+00  0.0000000000000D+00
382  3.8100000000000D+00  0.0000000000000D+00  0.0000000000000D+00
383  3.8200000000000D+00  0.0000000000000D+00  0.0000000000000D+00
384  3.8300000000000D+00  0.0000000000000D+00  0.0000000000000D+00
385  3.8400000000000D+00  0.0000000000000D+00  0.0000000000000D+00
386  3.8500000000000D+00  0.0000000000000D+00  0.0000000000000D+00
387  3.8600000000000D+00  0.0000000000000D+00  0.0000000000000D+00
388  3.8700000000000D+00  0.0000000000000D+00  0.0000000000000D+00
389  3.8800000000000D+00  0.0000000000000D+00  0.0000000000000D+00
390  3.8900000000000D+00  0.0000000000000D+00  0.0000000000000D+00
391  3.9000000000000D+00  0.0000000000000D+00  0.0000000000000D+00
392  3.9100000000000D+00  0.0000000000000D+00  0.0000000000000D+00
393  3.9200000000000D+00  0.0000000000000D+00  0.0000000000000D+00
394  3.9300000000000D+00  0.0000000000000D+00  0.0000000000000D+00
395  3.9400000000000D+00  0.0000000000000D+00  0.0000000000000D+00
396  3.9500000000000D+00  0.0000000000000D+00  0.0000000000000D+00
397  3.9600000000000D+00  0.0000000000000D+00  0.0000000000000D+00
398  3.9700000000000D+00  0.0000000000000D+00  0.0000000000000D+00
399  3.9800000000000D+00  0.0000000000000D+00  0.0000000000000D+00
400  3.9900000000000D+00  0.0000000000000D+00  0.0000000000000D+00
401  4.0000000000000D+00  0.0000000000000D+00  0.0000000000000D+00
1                        -1.8916251098180D+01 -1.3608315180466D+00
1  0.0000000000000D+00 -0.0000000000000D+00  0.0000000000000D+00
2  1.0000000000000D-02 -1.0178386543036D-02  1.0955430339634D-04
3  2.0000000000000D-02 -4.0532850186307D-02  4.0938534530297D-04
4  3.0000000000000D-02 -9.0524465151494D-02  8.1362413961997D-04
5  4.0000000000000D-02 -1.5926550554661D-01  1.1812326394104D-03
6  5.0000000000000D-02 -2.4553497301229D-01  1.3190780523273D-03
7  6.0000000000000D-02 -3.4779994323854D-01  9.8615550288610D-04
8  7.0000000000000D-02 -4.6424234781924D-01 -1.0112053143520D-04
9  8.0000000000000D-02 -5.9279071049452D-01 -2.2626557795067D-03
10  9.0000000000000D-02 -7.3115626823984D-01 -5.8475648543142D-03
11  1.0000000000000D-01 -8.7687282958062D-01 -1.1226343332463D-02
12  1.1000000000000D-01 -1.0273396560848D+00 -1.8782471242206D-02
13  1.2000000000000D-01 -1.1798666000116D+00 -2.8903606885820D-02
14  1.3000000000000D-01 -1.3317206916988D+00 -4.1972537996961D-02
15  1.4000000000000D-01 -1.4801733461789D+00 -5.8358062120584D-02
16  1.5000000000000D-01 -1.6225473488947D+00 -7.8405969947450D-02
17  1.6000000000000D-01 -1.7562627869040D+00 -1.0243030382837D-01
18  1.7000000000000D-01 -1.8788811129895D+00 -1.3070505910823D-01
19  1.8000000000000D-01 -1.9881465669362D+00 -1.6345648808515D-01
20  1.9000000000000D-01 -2.0820242258920D+00 -2.0085615632740D-01
21  2.0000000000000D-01 -2.1587340258155D+00 -2.4301488587876D-01
22  2.1000000000000D-01 -2.2167801570067D+00 -2.8997770775819D-01
23  2.2000000000000D-01 -2.2549753468725D+00 -3.4171992173799D-01
24  2.3000000000000D-01 -2.2724596043722D+00 -3.9814434964732D-01
25  2.4000000000000D-01 -2.2687131488576D+00 -4.5907983597403D-01
26  2.5000000000000D-01 -2.2435632830861D+00 -5.2428104287404D-01
27  2.6000000000000D-01 -2.1971851807007D+00 -5.9342954082972D-01
28  2.7000000000000D-01 -2.1300965271135D+00 -6.6613620442005D-01
29  2.8000000000000D-01 -2.0431462883295D+00 -7.4194484968010D-01
30  2.9000000000000D-01 -1.9374976892775D+00 -8.2033709264989D-01
31  3.0000000000000D-01 -1.8146058415802D+00 -9.0073833083944D-01
32  3.1000000000000D-01 -1.6761904405933D+00 -9.8252475447549D-01
33  3.2000000000000D-01 -1.5242041392522D+00 -1.0650312542298D+00
34  3.3000000000000D-01 -1.3607971201693D+00 -1.1475601108464D+00
35  3.4000000000000D-01 -1.1882780649573D+00 -1.2293904198142D+00
36  3.5000000000000D-01 -1.0090741164558D+00 -1.3097876949954D+00
37  3.6000000000000D-01 -8.2568694253186D-01 -1.3880142611325D+00
38  3.7000000000000D-01 -6.4065042947635D-01 -1.4633392567546D+00
39  3.8000000000000D-01 -4.5648682823242D-01 -1.5350489169815D+00
40  3.9000000000000D-01 -2.7566343970004D-01 -1.6024566854362D+00
41  4.0000000000000D-01 -1.0055208050992D-01 -1.6649126798844D+00
42  4.1000000000000D-01  6.6610166819899D-02 -1.7218128180981D+00