Dy    ONCVPSP-3.3.0  r_core=   1.80633   1.51039   1.66163   1.70175
66.0000     20.0000      180112    zatom,zion,pspd
8 -116133   3     4   600     0    pspcod,pspxc,lmax,lloc,mmax,r2well
5.99000000  0.25000000  0.00000000    rchrg fchrg qchrg
2     2     2     2     0    nproj
1     1           extension_switch
0                         8.7588621380174D+00  6.1314577530561D-01
1  0.0000000000000D+00 -5.8866078678221D-11  3.8248640366056D-10
2  1.0000000000000D-02  4.9262363611720D-02 -2.4457269983499D-02
3  2.0000000000000D-02  9.8457759213454D-02 -4.8762967414943D-02
4  3.0000000000000D-02  1.4751941417641D-01 -7.2766687284601D-02
5  4.0000000000000D-02  1.9638094513544D-01 -9.6320348976241D-02
6  5.0000000000000D-02  2.4497654888902D-01 -1.1927933183370D-01
7  6.0000000000000D-02  2.9324118886313D-01 -1.4150357904393D-01
8  7.0000000000000D-02  3.4111077572988D-01 -1.6285865972734D-01
9  8.0000000000000D-02  3.8852234083076D-01 -1.8321677950879D-01
10  9.0000000000000D-02  4.3541420112679D-01 -2.0245773031461D-01
11  1.0000000000000D-01  4.8172611448356D-01 -2.2046977069836D-01
12  1.1000000000000D-01  5.2739942419666D-01 -2.3715042863647D-01
13  1.2000000000000D-01  5.7237719177236D-01 -2.5240721944820D-01
14  1.3000000000000D-01  6.1660431709730D-01 -2.6615827227688D-01
15  1.4000000000000D-01  6.6002764525972D-01 -2.7833285941453D-01
16  1.5000000000000D-01  7.0259605942075D-01 -2.8887182365181D-01
17  1.6000000000000D-01  7.4426055927729D-01 -2.9772789978243D-01
18  1.7000000000000D-01  7.8497432480598D-01 -3.0486592737747D-01
19  1.8000000000000D-01  8.2469276512967D-01 -3.1026295296102D-01
20  1.9000000000000D-01  8.6337355250165D-01 -3.1390822075671D-01
21  2.0000000000000D-01  9.0097664155775D-01 -3.1580305222362D-01
22  2.1000000000000D-01  9.3746427414029D-01 -3.1596061565245D-01
23  2.2000000000000D-01  9.7280097014938D-01 -3.1440558813767D-01
24  2.3000000000000D-01  1.0069535050243D+00 -3.1117371326982D-01
25  2.4000000000000D-01  1.0398908746002D+00 -3.0631125889405D-01
26  2.5000000000000D-01  1.0715842482187D+00 -2.9987438024781D-01
27  2.6000000000000D-01  1.1020069111003D+00 -2.9192839471246D-01
28  2.7000000000000D-01  1.1311341970989D+00 -2.8254697528158D-01
29  2.8000000000000D-01  1.1589434130674D+00 -2.7181127065512D-01
30  2.9000000000000D-01  1.1854137561532D+00 -2.5980896060434D-01
31  3.0000000000000D-01  1.2105262254235D+00 -2.4663325591059D-01
32  3.1000000000000D-01  1.2342635292824D+00 -2.3238185275490D-01
33  3.2000000000000D-01  1.2566099901916D+00 -2.1715585191801D-01
34  3.3000000000000D-01  1.2775514482384D+00 -2.0105865353678D-01
35  3.4000000000000D-01  1.2970751651087D+00 -1.8419483844896D-01
36  3.5000000000000D-01  1.3151697300222D+00 -1.6666904733888D-01
37  3.6000000000000D-01  1.3318249691645D+00 -1.4858486896974D-01
38  3.7000000000000D-01  1.3470318601148D+00 -1.3004374875211D-01
39  3.8000000000000D-01  1.3607824527106D+00 -1.1114392875163D-01
40  3.9000000000000D-01  1.3730697977179D+00 -9.1979429981618D-02
41  4.0000000000000D-01  1.3838878845845D+00 -7.2639087460511D-02
42  4.1000000000000D-01  1.3932315894472D+00 -5.3205648041229D-02
43  4.2000000000000D-01  1.4010966344402D+00 -3.3754940442775D-02
44  4.3000000000000D-01  1.4074795592148D+00 -1.4355126239347D-02
45  4.4000000000000D-01  1.4123777054304D+00  4.9339602076807D-03
46  4.5000000000000D-01  1.4157892148106D+00  2.4061375744988D-02
47  4.6000000000000D-01  1.4177130411880D+00  4.2985530157648D-02
48  4.7000000000000D-01  1.4181489767759D+00  6.1674540449173D-02
49  4.8000000000000D-01  1.4170976927146D+00  8.0106473556540D-02
50  4.9000000000000D-01  1.4145607937475D+00  9.8269474507790D-02
51  5.0000000000000D-01  1.4105408866806D+00  1.1616177819434D-01
52  5.1000000000000D-01  1.4050416620812D+00  1.3379160412308D-01
53  5.2000000000000D-01  1.3980679884729D+00  1.5117693472762D-01
54  5.3000000000000D-01  1.3896260180886D+00  1.6834517903507D-01
55  5.4000000000000D-01  1.3797233030558D+00  1.8533272469714D-01
56  5.5000000000000D-01  1.3683689207056D+00  2.0218438258752D-01
57  5.6000000000000D-01  1.3555736065275D+00  2.1895272932658D-01
58  5.7000000000000D-01  1.3413498931337D+00  2.3569735421064D-01
59  5.8000000000000D-01  1.3257122534549D+00  2.5248401808019D-01
60  5.9000000000000D-01  1.3086772462616D+00  2.6938373264951D-01
61  6.0000000000000D-01  1.2902636619993D+00  2.8647176972669D-01
62  6.1000000000000D-01  1.2704926668391D+00  3.0382661056695D-01
63  6.2000000000000D-01  1.2493879427817D+00  3.2152884631275D-01
64  6.3000000000000D-01  1.2269758216118D+00  3.3966004107498D-01
65  6.4000000000000D-01  1.2032854104857D+00  3.5830156968553D-01
66  6.5000000000000D-01  1.1783487069448D+00  3.7753344250511D-01
67  6.6000000000000D-01  1.1522007011867D+00  3.9743312988622D-01
68  6.7000000000000D-01  1.1248794634884D+00  4.1807439897189D-01
69  6.8000000000000D-01  1.0964262147700D+00  4.3952617544893D-01
70  6.9000000000000D-01  1.0668853784055D+00  4.6185144267159D-01
71  7.0000000000000D-01  1.0363046115313D+00  4.8510619022566D-01
72  7.1000000000000D-01  1.0047348142772D+00  5.0933842351844D-01
73  7.2000000000000D-01  9.7223011553770D-01  5.3458724535597D-01
74  7.3000000000000D-01  9.3884783412057D-01  5.6088201971696D-01
75  7.4000000000000D-01  9.0464841434977D-01  5.8824162705364D-01
76  7.5000000000000D-01  8.6969533545773D-01  6.1667381945677D-01
77  7.6000000000000D-01  8.3405499437602D-01  6.4617468292525D-01
78  7.7000000000000D-01  7.9779656182321D-01  6.7672821278371D-01
79  7.8000000000000D-01  7.6099181188618D-01  7.0830600702350D-01
80  7.9000000000000D-01  7.2371492559780D-01  7.4086708100243D-01
81  8.0000000000000D-01  6.8604226932314D-01  7.7435780555152D-01
82  8.1000000000000D-01  6.4805214907615D-01  8.0871196911708D-01
83  8.2000000000000D-01  6.0982454219431D-01  8.4385096313108D-01
84  8.3000000000000D-01  5.7144080809653D-01  8.7968408837153D-01
85  8.4000000000000D-01  5.3298338013542D-01  9.1610897866581D-01
86  8.5000000000000D-01  4.9453544082495D-01  9.5301213692274D-01
87  8.6000000000000D-01  4.5618058297463D-01  9.9026957717312D-01
88  8.7000000000000D-01  4.1800245948735D-01  1.0277475650723D+00
89  8.8000000000000D-01  3.8008442477648D-01  1.0653034481908D+00
90  8.9000000000000D-01  3.4250917092523D-01  1.1027865664064D+00
91  9.0000000000000D-01  3.0535836184390D-01  1.1400392318338D+00
92  9.1000000000000D-01  2.6871226877564D-01  1.1768977669949D+00
93  9.2000000000000D-01  2.3264941055626D-01  1.2131935893662D+00
94  9.3000000000000D-01  1.9724620204583D-01  1.2487543300428D+00
95  9.4000000000000D-01  1.6257661411739D-01  1.2834049740484D+00
96  9.5000000000000D-01  1.2871184851024D-01  1.3169690098029D+00
97  9.6000000000000D-01  9.5720030730448D-02  1.3492695754338D+00
98  9.7000000000000D-01  6.3665924010907D-02  1.3801305899963D+00
99  9.8000000000000D-01  3.2610667119362D-02  1.4093778582583D+00
100  9.9000000000000D-01  2.6115385520679D-03  1.4368401384436D+00
101  1.0000000000000D+00 -2.6278250671450D-02  1.4623501633344D+00
102  1.0100000000000D+00 -5.4009733736833D-02  1.4857456062522D+00
103  1.0200000000000D+00 -8.0538332801403D-02  1.5068699847594D+00
104  1.0300000000000D+00 -1.0582397073446D-01  1.5255734963825D+00
105  1.0400000000000D+00 -1.2983114922903D-01  1.5417137822946D+00
106  1.0500000000000D+00 -1.5252899314814D-01  1.5551566165556D+00
107  1.0600000000000D+00 -1.7389126147086D-01  1.5657765203228D+00
108  1.0700000000000D+00 -1.9389632573178D-01  1.5734573023638D+00
109  1.0800000000000D+00 -2.1252711734723D-01  1.5780925290162D+00
110  1.0900000000000D+00 -2.2977104576651D-01  1.5795859287220D+00
111  1.1000000000000D+00 -2.4561988986515D-01  1.5778517379844D+00
112  1.1100000000000D+00 -2.6006966551362D-01  1.5728149974530D+00
113  1.1200000000000D+00 -2.7312047273818D-01  1.5644118085366D+00
114  1.1300000000000D+00 -2.8477632630922D-01  1.5525895623777D+00
115  1.1400000000000D+00 -2.9504497399006D-01  1.5373071543219D+00
116  1.1500000000000D+00 -3.0393770700113D-01  1.5185351980505D+00
117  1.1600000000000D+00 -3.1146916758969D-01  1.4962562544661D+00
118  1.1700000000000D+00 -3.1765715874550D-01  1.4704650906594D+00
119  1.1800000000000D+00 -3.2252246122611D-01  1.4411689843582D+00
120  1.1900000000000D+00 -3.2608866313760D-01  1.4083880891255D+00
121  1.2000000000000D+00 -3.2838200722098D-01  1.3721558745629D+00
122  1.2100000000000D+00 -3.2943126068894D-01  1.3325196538325D+00
123  1.2200000000000D+00 -3.2926761243124D-01  1.2895412104233D+00
124  1.2300000000000D+00 -3.2792460171924D-01  1.2432975320709D+00
125  1.2400000000000D+00 -3.2543808189272D-01  1.1938816563890D+00
126  1.2500000000000D+00 -3.2184622212292D-01  1.1414036306131D+00
127  1.2600000000000D+00 -3.1718954926443D-01  1.0859915821752D+00
128  1.2700000000000D+00 -3.1151103033381D-01  1.0277928894635D+00
129  1.2800000000000D+00 -3.0485619563526D-01  9.6697543949501D-01
130  1.2900000000000D+00 -2.9727330093566D-01  9.0372895108330D-01
131  1.3000000000000D+00 -2.8881352436278D-01  8.3826632876331D-01
132  1.3100000000000D+00 -2.7953119365472D-01  7.7082501248341D-01
133  1.3200000000000D+00 -2.6948403647000D-01  7.0166827375489D-01
134  1.3300000000000D+00 -2.5873344232238D-01  6.3108638896804D-01
135  1.3400000000000D+00 -2.4734472642768D-01  5.5939762885305D-01
136  1.3500000000000D+00 -2.3538737903867D-01  4.8694897062644D-01
137  1.3600000000000D+00 -2.2293528018994D-01  4.1411642187186D-01
138  1.3700000000000D+00 -2.1006686325795D-01  3.4130486187324D-01
139  1.3800000000000D+00 -1.9686519656629D-01  2.6894723800752D-01
140  1.3900000000000D+00 -1.8341795643395D-01  1.9750297483241D-01
141  1.4000000000000D+00 -1.6981726073488D-01  1.2745543272210D-01
142  1.4100000000000D+00 -1.5615931639109D-01  5.9308177681537D-02
143  1.4200000000000D+00 -1.4254384936223D-01 -6.4201032142111D-03
144  1.4300000000000D+00 -1.2907325811624D-01 -6.9202338900855D-02
145  1.4400000000000D+00 -1.1585143963884D-01 -1.2851172339528D-01
146  1.4500000000000D+00 -1.0298223420746D-01 -1.8383254965848D-01
147  1.4600000000000D+00 -9.0567389456560D-02 -2.3467374522007D-01
148  1.4700000000000D+00 -7.8704065256091D-02 -2.8058489994474D-01
149  1.4800000000000D+00 -6.7481471101084D-02 -3.2117724282675D-01
150  1.4900000000000D+00 -5.6977742229227D-02 -3.5614247547734D-01
151  1.5000000000000D+00 -4.7254929067615D-02 -3.8528247930173D-01
152  1.5100000000000D+00 -3.8350060672786D-02 -4.0856436606033D-01
153  1.5200000000000D+00 -3.0276940969413D-02 -4.2610305526837D-01
154  1.5300000000000D+00 -2.3029311272855D-02 -4.3813362509919D-01
155  1.5400000000000D+00 -1.6588939289482D-02 -4.4495687059676D-01
156  1.5500000000000D+00 -1.0934422531490D-02 -4.4688008422385D-01
157  1.5600000000000D+00 -6.0385645072802D-03 -4.4423504325841D-01
158  1.5700000000000D+00 -1.8685072394094D-03 -4.3737808867217D-01
159  1.5800000000000D+00  1.6130492717847D-03 -4.2668229227464D-01
160  1.5900000000000D+00  4.4475983960992D-03 -4.1253653825947D-01
161  1.6000000000000D+00  6.6801559113681D-03 -3.9534175202954D-01
162  1.6100000000000D+00  8.3586957980291D-03 -3.7550790004792D-01
163  1.6200000000000D+00  9.5335446947235D-03 -3.5345074893162D-01
164  1.6300000000000D+00  1.0256763907043D-02 -3.2958857125235D-01
165  1.6400000000000D+00  1.0581524454966D-02 -3.0433882614829D-01
166  1.6500000000000D+00  1.0561481090278D-02 -2.7811484539317D-01
167  1.6600000000000D+00  1.0250149804415D-02 -2.5132254750741D-01
168  1.6700000000000D+00  9.7002950764071D-03 -2.2435721167141D-01
169  1.6800000000000D+00  8.9633307495251D-03 -1.9760033125900D-01
170  1.6900000000000D+00  8.0887411332335D-03 -1.7141658014905D-01
171  1.7000000000000D+00  7.1235250020637D-03 -1.4615090556828D-01
172  1.7100000000000D+00  6.1116704322286D-03 -1.2212578797302D-01
173  1.7200000000000D+00  5.0936611201513D-03 -9.9638671047970D-02
174  1.7300000000000D+00  4.1060225666828D-03 -7.8959604427217D-02
175  1.7400000000000D+00  3.1809073328600D-03 -6.0329095048212D-02
176  1.7500000000000D+00  2.3463865299257D-03 -4.3968137918591D-02
177  1.7600000000000D+00  1.6233102470181D-03 -3.0025527932528D-02
178  1.7700000000000D+00  1.0250784215978D-03 -1.8586026308796D-02
179  1.7800000000000D+00  5.7205036663079D-04 -9.8985873925428D-03
180  1.7900000000000D+00  2.8240881386888D-04 -4.2111599815620D-03
181  1.8000000000000D+00  1.3224764666336D-04 -1.2133526633684D-03
182  1.8100000000000D+00  5.9352213850630D-05 -5.5382693145196D-05
183  1.8200000000000D+00  1.7704242780556D-05  1.2356390451968D-04
184  1.8300000000000D+00 -1.7241285378079D-06 -2.1250984367333D-05
185  1.8400000000000D+00 -3.4034551417814D-06 -6.2276858230425D-05
186  1.8500000000000D+00  1.1166086505224D-08  8.8470151080783D-08
187  1.8600000000000D+00  1.0554628223646D-06  1.0085410379376D-05
188  1.8700000000000D+00  2.6976880600074D-07  2.9565487294303D-06
189  1.8800000000000D+00 -2.1724093938236D-07  8.7386058521658D-07
190  1.8900000000000D+00 -1.3320544349223D-07  5.3582435766986D-07
191  1.9000000000000D+00  0.0000000000000D+00  0.0000000000000D+00
192  1.9100000000000D+00  0.0000000000000D+00  0.0000000000000D+00
193  1.9200000000000D+00  0.0000000000000D+00  0.0000000000000D+00
194  1.9300000000000D+00  0.0000000000000D+00  0.0000000000000D+00
195  1.9400000000000D+00  0.0000000000000D+00  0.0000000000000D+00
196  1.9500000000000D+00  0.0000000000000D+00  0.0000000000000D+00
197  1.9600000000000D+00  0.0000000000000D+00  0.0000000000000D+00
198  1.9700000000000D+00  0.0000000000000D+00  0.0000000000000D+00
199  1.9800000000000D+00  0.0000000000000D+00  0.0000000000000D+00
200  1.9900000000000D+00  0.0000000000000D+00  0.0000000000000D+00
201  2.0000000000000D+00  0.0000000000000D+00  0.0000000000000D+00
202  2.0100000000000D+00  0.0000000000000D+00  0.0000000000000D+00
203  2.0200000000000D+00  0.0000000000000D+00  0.0000000000000D+00
204  2.0300000000000D+00  0.0000000000000D+00  0.0000000000000D+00
205  2.0400000000000D+00  0.0000000000000D+00  0.0000000000000D+00
206  2.0500000000000D+00  0.0000000000000D+00  0.0000000000000D+00
207  2.0600000000000D+00  0.0000000000000D+00  0.0000000000000D+00
208  2.0700000000000D+00  0.0000000000000D+00  0.0000000000000D+00
209  2.0800000000000D+00  0.0000000000000D+00  0.0000000000000D+00
210  2.0900000000000D+00  0.0000000000000D+00  0.0000000000000D+00
211  2.1000000000000D+00  0.0000000000000D+00  0.0000000000000D+00
212  2.1100000000000D+00  0.0000000000000D+00  0.0000000000000D+00
213  2.1200000000000D+00  0.0000000000000D+00  0.0000000000000D+00
214  2.1300000000000D+00  0.0000000000000D+00  0.0000000000000D+00
215  2.1400000000000D+00  0.0000000000000D+00  0.0000000000000D+00
216  2.1500000000000D+00  0.0000000000000D+00  0.0000000000000D+00
217  2.1600000000000D+00  0.0000000000000D+00  0.0000000000000D+00
218  2.1700000000000D+00  0.0000000000000D+00  0.0000000000000D+00
219  2.1800000000000D+00  0.0000000000000D+00  0.0000000000000D+00
220  2.1900000000000D+00  0.0000000000000D+00  0.0000000000000D+00
221  2.2000000000000D+00  0.0000000000000D+00  0.0000000000000D+00
222  2.2100000000000D+00  0.0000000000000D+00  0.0000000000000D+00
223  2.2200000000000D+00  0.0000000000000D+00  0.0000000000000D+00
224  2.2300000000000D+00  0.0000000000000D+00  0.0000000000000D+00
225  2.2400000000000D+00  0.0000000000000D+00  0.0000000000000D+00
226  2.2500000000000D+00  0.0000000000000D+00  0.0000000000000D+00
227  2.2600000000000D+00  0.0000000000000D+00  0.0000000000000D+00
228  2.2700000000000D+00  0.0000000000000D+00  0.0000000000000D+00
229  2.2800000000000D+00  0.0000000000000D+00  0.0000000000000D+00
230  2.2900000000000D+00  0.0000000000000D+00  0.0000000000000D+00
231  2.3000000000000D+00  0.0000000000000D+00  0.0000000000000D+00
232  2.3100000000000D+00  0.0000000000000D+00  0.0000000000000D+00
233  2.3200000000000D+00  0.0000000000000D+00  0.0000000000000D+00
234  2.3300000000000D+00  0.0000000000000D+00  0.0000000000000D+00
235  2.3400000000000D+00  0.0000000000000D+00  0.0000000000000D+00
236  2.3500000000000D+00  0.0000000000000D+00  0.0000000000000D+00
237  2.3600000000000D+00  0.0000000000000D+00  0.0000000000000D+00
238  2.3700000000000D+00  0.0000000000000D+00  0.0000000000000D+00
239  2.3800000000000D+00  0.0000000000000D+00  0.0000000000000D+00
240  2.3900000000000D+00  0.0000000000000D+00  0.0000000000000D+00
241  2.4000000000000D+00  0.0000000000000D+00  0.0000000000000D+00
242  2.4100000000000D+00  0.0000000000000D+00  0.0000000000000D+00
243  2.4200000000000D+00  0.0000000000000D+00  0.0000000000000D+00
244  2.4300000000000D+00  0.0000000000000D+00  0.0000000000000D+00
245  2.4400000000000D+00  0.0000000000000D+00  0.0000000000000D+00
246  2.4500000000000D+00  0.0000000000000D+00  0.0000000000000D+00
247  2.4600000000000D+00  0.0000000000000D+00  0.0000000000000D+00
248  2.4700000000000D+00  0.0000000000000D+00  0.0000000000000D+00
249  2.4800000000000D+00  0.0000000000000D+00  0.0000000000000D+00
250  2.4900000000000D+00  0.0000000000000D+00  0.0000000000000D+00
251  2.5000000000000D+00  0.0000000000000D+00  0.0000000000000D+00
252  2.5100000000000D+00  0.0000000000000D+00  0.0000000000000D+00
253  2.5200000000000D+00  0.0000000000000D+00  0.0000000000000D+00
254  2.5300000000000D+00  0.0000000000000D+00  0.0000000000000D+00
255  2.5400000000000D+00  0.0000000000000D+00  0.0000000000000D+00
256  2.5500000000000D+00  0.0000000000000D+00  0.0000000000000D+00
257  2.5600000000000D+00  0.0000000000000D+00  0.0000000000000D+00
258  2.5700000000000D+00  0.0000000000000D+00  0.0000000000000D+00
259  2.5800000000000D+00  0.0000000000000D+00  0.0000000000000D+00
260  2.5900000000000D+00  0.0000000000000D+00  0.0000000000000D+00
261  2.6000000000000D+00  0.0000000000000D+00  0.0000000000000D+00
262  2.6100000000000D+00  0.0000000000000D+00  0.0000000000000D+00
263  2.6200000000000D+00  0.0000000000000D+00  0.0000000000000D+00
264  2.6300000000000D+00  0.0000000000000D+00  0.0000000000000D+00
265  2.6400000000000D+00  0.0000000000000D+00  0.0000000000000D+00
266  2.6500000000000D+00  0.0000000000000D+00  0.0000000000000D+00
267  2.6600000000000D+00  0.0000000000000D+00  0.0000000000000D+00
268  2.6700000000000D+00  0.0000000000000D+00  0.0000000000000D+00
269  2.6800000000000D+00  0.0000000000000D+00  0.0000000000000D+00
270  2.6900000000000D+00  0.0000000000000D+00  0.0000000000000D+00
271  2.7000000000000D+00  0.0000000000000D+00  0.0000000000000D+00
272  2.7100000000000D+00  0.0000000000000D+00  0.0000000000000D+00
273  2.7200000000000D+00  0.0000000000000D+00  0.0000000000000D+00
274  2.7300000000000D+00  0.0000000000000D+00  0.0000000000000D+00
275  2.7400000000000D+00  0.0000000000000D+00  0.0000000000000D+00
276  2.7500000000000D+00  0.0000000000000D+00  0.0000000000000D+00
277  2.7600000000000D+00  0.0000000000000D+00  0.0000000000000D+00
278  2.7700000000000D+00  0.0000000000000D+00  0.0000000000000D+00
279  2.7800000000000D+00  0.0000000000000D+00  0.0000000000000D+00
280  2.7900000000000D+00  0.0000000000000D+00  0.0000000000000D+00
281  2.8000000000000D+00  0.0000000000000D+00  0.0000000000000D+00
282  2.8100000000000D+00  0.0000000000000D+00  0.0000000000000D+00
283  2.8200000000000D+00  0.0000000000000D+00  0.0000000000000D+00
284  2.8300000000000D+00  0.0000000000000D+00  0.0000000000000D+00
285  2.8400000000000D+00  0.0000000000000D+00  0.0000000000000D+00
286  2.8500000000000D+00  0.0000000000000D+00  0.0000000000000D+00
287  2.8600000000000D+00  0.0000000000000D+00  0.0000000000000D+00
288  2.8700000000000D+00  0.0000000000000D+00  0.0000000000000D+00
289  2.8800000000000D+00  0.0000000000000D+00  0.0000000000000D+00
290  2.8900000000000D+00  0.0000000000000D+00  0.0000000000000D+00
291  2.9000000000000D+00  0.0000000000000D+00  0.0000000000000D+00
292  2.9100000000000D+00  0.0000000000000D+00  0.0000000000000D+00
293  2.9200000000000D+00  0.0000000000000D+00  0.0000000000000D+00
294  2.9300000000000D+00  0.0000000000000D+00  0.0000000000000D+00
295  2.9400000000000D+00  0.0000000000000D+00  0.0000000000000D+00
296  2.9500000000000D+00  0.0000000000000D+00  0.0000000000000D+00
297  2.9600000000000D+00  0.0000000000000D+00  0.0000000000000D+00
298  2.9700000000000D+00  0.0000000000000D+00  0.0000000000000D+00
299  2.9800000000000D+00  0.0000000000000D+00  0.0000000000000D+00
300  2.9900000000000D+00  0.0000000000000D+00  0.0000000000000D+00
301  3.0000000000000D+00  0.0000000000000D+00  0.0000000000000D+00
302  3.0100000000000D+00  0.0000000000000D+00  0.0000000000000D+00
303  3.0200000000000D+00  0.0000000000000D+00  0.0000000000000D+00
304  3.0300000000000D+00  0.0000000000000D+00  0.0000000000000D+00
305  3.0400000000000D+00  0.0000000000000D+00  0.0000000000000D+00
306  3.0500000000000D+00  0.0000000000000D+00  0.0000000000000D+00
307  3.0600000000000D+00  0.0000000000000D+00  0.0000000000000D+00
308  3.0700000000000D+00  0.0000000000000D+00  0.0000000000000D+00
309  3.0800000000000D+00  0.0000000000000D+00  0.0000000000000D+00
310  3.0900000000000D+00  0.0000000000000D+00  0.0000000000000D+00
311  3.1000000000000D+00  0.0000000000000D+00  0.0000000000000D+00
312  3.1100000000000D+00  0.0000000000000D+00  0.0000000000000D+00
313  3.1200000000000D+00  0.0000000000000D+00  0.0000000000000D+00
314  3.1300000000000D+00  0.0000000000000D+00  0.0000000000000D+00
315  3.1400000000000D+00  0.0000000000000D+00  0.0000000000000D+00
316  3.1500000000000D+00  0.0000000000000D+00  0.0000000000000D+00
317  3.1600000000000D+00  0.0000000000000D+00  0.0000000000000D+00
318  3.1700000000000D+00  0.0000000000000D+00  0.0000000000000D+00
319  3.1800000000000D+00  0.0000000000000D+00  0.0000000000000D+00
320  3.1900000000000D+00  0.0000000000000D+00  0.0000000000000D+00
321  3.2000000000000D+00  0.0000000000000D+00  0.0000000000000D+00
322  3.2100000000000D+00  0.0000000000000D+00  0.0000000000000D+00
323  3.2200000000000D+00  0.0000000000000D+00  0.0000000000000D+00
324  3.2300000000000D+00  0.0000000000000D+00  0.0000000000000D+00
325  3.2400000000000D+00  0.0000000000000D+00  0.0000000000000D+00
326  3.2500000000000D+00  0.0000000000000D+00  0.0000000000000D+00
327  3.2600000000000D+00  0.0000000000000D+00  0.0000000000000D+00
328  3.2700000000000D+00  0.0000000000000D+00  0.0000000000000D+00
329  3.2800000000000D+00  0.0000000000000D+00  0.0000000000000D+00
330  3.2900000000000D+00  0.0000000000000D+00  0.0000000000000D+00
331  3.3000000000000D+00  0.0000000000000D+00  0.0000000000000D+00
332  3.3100000000000D+00  0.0000000000000D+00  0.0000000000000D+00
333  3.3200000000000D+00  0.0000000000000D+00  0.0000000000000D+00
334  3.3300000000000D+00  0.0000000000000D+00  0.0000000000000D+00
335  3.3400000000000D+00  0.0000000000000D+00  0.0000000000000D+00
336  3.3500000000000D+00  0.0000000000000D+00  0.0000000000000D+00
337  3.3600000000000D+00  0.0000000000000D+00  0.0000000000000D+00
338  3.3700000000000D+00  0.0000000000000D+00  0.0000000000000D+00
339  3.3800000000000D+00  0.0000000000000D+00  0.0000000000000D+00
340  3.3900000000000D+00  0.0000000000000D+00  0.0000000000000D+00
341  3.4000000000000D+00  0.0000000000000D+00  0.0000000000000D+00
342  3.4100000000000D+00  0.0000000000000D+00  0.0000000000000D+00
343  3.4200000000000D+00  0.0000000000000D+00  0.0000000000000D+00
344  3.4300000000000D+00  0.0000000000000D+00  0.0000000000000D+00
345  3.4400000000000D+00  0.0000000000000D+00  0.0000000000000D+00
346  3.4500000000000D+00  0.0000000000000D+00  0.0000000000000D+00
347  3.4600000000000D+00  0.0000000000000D+00  0.0000000000000D+00
348  3.4700000000000D+00  0.0000000000000D+00  0.0000000000000D+00
349  3.4800000000000D+00  0.0000000000000D+00  0.0000000000000D+00
350  3.4900000000000D+00  0.0000000000000D+00  0.0000000000000D+00
351  3.5000000000000D+00  0.0000000000000D+00  0.0000000000000D+00
352  3.5100000000000D+00  0.0000000000000D+00  0.0000000000000D+00
353  3.5200000000000D+00  0.0000000000000D+00  0.0000000000000D+00
354  3.5300000000000D+00  0.0000000000000D+00  0.0000000000000D+00
355  3.5400000000000D+00  0.0000000000000D+00  0.0000000000000D+00
356  3.5500000000000D+00  0.0000000000000D+00  0.0000000000000D+00
357  3.5600000000000D+00  0.0000000000000D+00  0.0000000000000D+00
358  3.5700000000000D+00  0.0000000000000D+00  0.0000000000000D+00
359  3.5800000000000D+00  0.0000000000000D+00  0.0000000000000D+00
360  3.5900000000000D+00  0.0000000000000D+00  0.0000000000000D+00
361  3.6000000000000D+00  0.0000000000000D+00  0.0000000000000D+00
362  3.6100000000000D+00  0.0000000000000D+00  0.0000000000000D+00
363  3.6200000000000D+00  0.0000000000000D+00  0.0000000000000D+00
364  3.6300000000000D+00  0.0000000000000D+00  0.0000000000000D+00
365  3.6400000000000D+00  0.0000000000000D+00  0.0000000000000D+00
366  3.6500000000000D+00  0.0000000000000D+00  0.0000000000000D+00
367  3.6600000000000D+00  0.0000000000000D+00  0.0000000000000D+00
368  3.6700000000000D+00  0.0000000000000D+00  0.0000000000000D+00
369  3.6800000000000D+00  0.0000000000000D+00  0.0000000000000D+00
370  3.6900000000000D+00  0.0000000000000D+00  0.0000000000000D+00
371  3.7000000000000D+00  0.0000000000000D+00  0.0000000000000D+00
372  3.7100000000000D+00  0.0000000000000D+00  0.0000000000000D+00
373  3.7200000000000D+00  0.0000000000000D+00  0.0000000000000D+00
374  3.7300000000000D+00  0.0000000000000D+00  0.0000000000000D+00
375  3.7400000000000D+00  0.0000000000000D+00  0.0000000000000D+00
376  3.7500000000000D+00  0.0000000000000D+00  0.0000000000000D+00
377  3.7600000000000D+00  0.0000000000000D+00  0.0000000000000D+00
378  3.7700000000000D+00  0.0000000000000D+00  0.0000000000000D+00
379  3.7800000000000D+00  0.0000000000000D+00  0.0000000000000D+00
380  3.7900000000000D+00  0.0000000000000D+00  0.0000000000000D+00
381  3.8000000000000D+00  0.0000000000000D+00  0.0000000000000D+00
382  3.8100000000000D+00  0.0000000000000D+00  0.0000000000000D+00
383  3.8200000000000D+00  0.0000000000000D+00  0.0000000000000D+00
384  3.8300000000000D+00  0.0000000000000D+00  0.0000000000000D+00
385  3.8400000000000D+00  0.0000000000000D+00  0.0000000000000D+00
386  3.8500000000000D+00  0.0000000000000D+00  0.0000000000000D+00
387  3.8600000000000D+00  0.0000000000000D+00  0.0000000000000D+00
388  3.8700000000000D+00  0.0000000000000D+00  0.0000000000000D+00
389  3.8800000000000D+00  0.0000000000000D+00  0.0000000000000D+00
390  3.8900000000000D+00  0.0000000000000D+00  0.0000000000000D+00
391  3.9000000000000D+00  0.0000000000000D+00  0.0000000000000D+00
392  3.9100000000000D+00  0.0000000000000D+00  0.0000000000000D+00
393  3.9200000000000D+00  0.0000000000000D+00  0.0000000000000D+00
394  3.9300000000000D+00  0.0000000000000D+00  0.0000000000000D+00
395  3.9400000000000D+00  0.0000000000000D+00  0.0000000000000D+00
396  3.9500000000000D+00  0.0000000000000D+00  0.0000000000000D+00
397  3.9600000000000D+00  0.0000000000000D+00  0.0000000000000D+00
398  3.9700000000000D+00  0.0000000000000D+00  0.0000000000000D+00
399  3.9800000000000D+00  0.0000000000000D+00  0.0000000000000D+00
400  3.9900000000000D+00  0.0000000000000D+00  0.0000000000000D+00
401  4.0000000000000D+00  0.0000000000000D+00  0.0000000000000D+00
402  4.0100000000000D+00  0.0000000000000D+00  0.0000000000000D+00
403  4.0200000000000D+00  0.0000000000000D+00  0.0000000000000D+00
404  4.0300000000000D+00  0.0000000000000D+00  0.0000000000000D+00
405  4.0400000000000D+00  0.0000000000000D+00  0.0000000000000D+00
406  4.0500000000000D+00  0.0000000000000D+00  0.0000000000000D+00
407  4.0600000000000D+00  0.0000000000000D+00  0.0000000000000D+00
408  4.0700000000000D+00  0.0000000000000D+00  0.0000000000000D+00
409  4.0800000000000D+00  0.0000000000000D+00  0.0000000000000D+00
410  4.0900000000000D+00  0.0000000000000D+00  0.0000000000000D+00
411  4.1000000000000D+00  0.0000000000000D+00  0.0000000000000D+00
412  4.1100000000000D+00  0.0000000000000D+00  0.0000000000000D+00
413  4.1200000000000D+00  0.0000000000000D+00  0.0000000000000D+00
414  4.1300000000000D+00  0.0000000000000D+00  0.0000000000000D+00
415  4.1400000000000D+00  0.0000000000000D+00  0.0000000000000D+00
416  4.1500000000000D+00  0.0000000000000D+00  0.0000000000000D+00
417  4.1600000000000D+00  0.0000000000000D+00  0.0000000000000D+00
418  4.1700000000000D+00  0.0000000000000D+00  0.0000000000000D+00
419  4.1800000000000D+00  0.0000000000000D+00  0.0000000000000D+00
420  4.1900000000000D+00  0.0000000000000D+00  0.0000000000000D+00
421  4.2000000000000D+00  0.0000000000000D+00  0.0000000000000D+00
422  4.2100000000000D+00  0.0000000000000D+00  0.0000000000000D+00
423  4.2200000000000D+00  0.0000000000000D+00  0.0000000000000D+00
424  4.2300000000000D+00  0.0000000000000D+00  0.0000000000000D+00
425  4.2400000000000D+00  0.0000000000000D+00  0.0000000000000D+00
426  4.2500000000000D+00  0.0000000000000D+00  0.0000000000000D+00
427  4.2600000000000D+00  0.0000000000000D+00  0.0000000000000D+00
428  4.2700000000000D+00  0.0000000000000D+00  0.0000000000000D+00
429  4.2800000000000D+00  0.0000000000000D+00  0.0000000000000D+00
430  4.2900000000000D+00  0.0000000000000D+00  0.0000000000000D+00
431  4.3000000000000D+00  0.0000000000000D+00  0.0000000000000D+00
432  4.3100000000000D+00  0.0000000000000D+00  0.0000000000000D+00
433  4.3200000000000D+00  0.0000000000000D+00  0.0000000000000D+00
434  4.3300000000000D+00  0.0000000000000D+00  0.0000000000000D+00
435  4.3400000000000D+00  0.0000000000000D+00  0.0000000000000D+00
436  4.3500000000000D+00  0.0000000000000D+00  0.0000000000000D+00
437  4.3600000000000D+00  0.0000000000000D+00  0.0000000000000D+00
438  4.3700000000000D+00  0.0000000000000D+00  0.0000000000000D+00
439  4.3800000000000D+00  0.0000000000000D+00  0.0000000000000D+00
440  4.3900000000000D+00  0.0000000000000D+00  0.0000000000000D+00
441  4.4000000000000D+00  0.0000000000000D+00  0.0000000000000D+00
442  4.4100000000000D+00  0.0000000000000D+00  0.0000000000000D+00
443  4.4200000000000D+00  0.0000000000000D+00  0.0000000000000D+00