Dy    ONCVPSP-3.3.0  r_core=   2.05960   1.87215   1.80633   2.52262
66.0000     11.0000      180112    zatom,zion,pspd
8 -116133   3     4   600     0    pspcod,pspxc,lmax,lloc,mmax,r2well
5.99000000  5.40000000  0.00000000    rchrg fchrg qchrg
2     2     2     1     0    nproj
1     1           extension_switch
0                         3.8587430683670D+00 -1.3120643197924D-01
1  0.0000000000000D+00 -8.4843798653367D-12 -1.3022738443169D-10
2  1.0000000000000D-02  4.9198210060012D-02  3.4203972646392D-02
3  2.0000000000000D-02  9.8328880929102D-02  6.8274787996705D-02
4  3.0000000000000D-02  1.4732461606377D-01  1.0207998156936D-01
5  4.0000000000000D-02  1.9611830375321D-01  1.3548846993533D-01
6  5.0000000000000D-02  2.4464325838251D-01  1.6837122983664D-01
7  6.0000000000000D-02  2.9283336031794D-01  2.0060196370813D-01
8  7.0000000000000D-02  3.4062319396524D-01  2.3205774722439D-01
9  8.0000000000000D-02  3.8794818355983D-01  2.6261965462373D-01
10  9.0000000000000D-02  4.3474472625886D-01  2.9217335772269D-01
11  1.0000000000000D-01  4.8095032211710D-01  3.2060969472490D-01
12  1.1000000000000D-01  5.2650370054314D-01  3.4782520514725D-01
13  1.2000000000000D-01  5.7134494284871D-01  3.7372262743170D-01
14  1.3000000000000D-01  6.1541560052157D-01  3.9821135608075D-01
15  1.4000000000000D-01  6.5865880887198D-01  4.2120785544765D-01
16  1.5000000000000D-01  7.0101939572393D-01  4.4263602762543D-01
17  1.6000000000000D-01  7.4244398484450D-01  4.6242753220956D-01
18  1.7000000000000D-01  7.8288109382832D-01  4.8052205605693D-01
19  1.8000000000000D-01  8.2228122617915D-01  4.9686753152267D-01
20  1.9000000000000D-01  8.6059695735597D-01  5.1142030202744D-01
21  2.0000000000000D-01  8.9778301457776D-01  5.2414523418547D-01
22  2.1000000000000D-01  9.3379635020839D-01  5.3501577610631D-01
23  2.2000000000000D-01  9.6859620857073D-01  5.4401396186835D-01
24  2.3000000000000D-01  1.0021441860673D+00  5.5113036254573D-01
25  2.4000000000000D-01  1.0344042845133D+00  5.5636398455081D-01
26  2.5000000000000D-01  1.0653429576159D+00  5.5972211642776D-01
27  2.6000000000000D-01  1.0949291505630D+00  5.6122012559769D-01
28  2.7000000000000D-01  1.1231343327110D+00  5.6088120690790D-01
29  2.8000000000000D-01  1.1499325233915D+00  5.5873608517616D-01
30  2.9000000000000D-01  1.1753003108811D+00  5.5482267424176D-01
31  3.0000000000000D-01  1.1992168646078D+00  5.4918569533702D-01
32  3.1000000000000D-01  1.2216639406911D+00  5.4187625787284D-01
33  3.2000000000000D-01  1.2426258809381D+00  5.3295140598890D-01
34  3.3000000000000D-01  1.2620896054442D+00  5.2247363444994D-01
35  3.4000000000000D-01  1.2800445989639D+00  5.1051037767430D-01
36  3.5000000000000D-01  1.2964828912457D+00  4.9713347585603D-01
37  3.6000000000000D-01  1.3113990315381D+00  4.8241862228816D-01
38  3.7000000000000D-01  1.3247900574975D+00  4.6644479610995D-01
39  3.8000000000000D-01  1.3366554587419D+00  4.4929368478436D-01
40  3.9000000000000D-01  1.3469971353124D+00  4.3104910066353D-01
41  4.0000000000000D-01  1.3558193513147D+00  4.1179639601954D-01
42  4.1000000000000D-01  1.3631286840298D+00  3.9162188090372D-01
43  4.2000000000000D-01  1.3689339687869D+00  3.7061224815258D-01
44  4.3000000000000D-01  1.3732462399054D+00  3.4885400978057D-01
45  4.4000000000000D-01  1.3760786680158D+00  3.2643294889089D-01
46  4.5000000000000D-01  1.3774464940760D+00  3.0343359109618D-01
47  4.6000000000000D-01  1.3773669604018D+00  2.7993869927256D-01
48  4.7000000000000D-01  1.3758592390310D+00  2.5602879527284D-01
49  4.8000000000000D-01  1.3729443577422D+00  2.3178171200228D-01
50  4.9000000000000D-01  1.3686451240436D+00  2.0727217901149D-01
51  5.0000000000000D-01  1.3629860474476D+00  1.8257144448982D-01
52  5.1000000000000D-01  1.3559932603376D+00  1.5774693625054D-01
53  5.2000000000000D-01  1.3476944377292D+00  1.3286196398800D-01
54  5.3000000000000D-01  1.3381187162187D+00  1.0797546475891D-01
55  5.4000000000000D-01  1.3272966124027D+00  8.3141793299261D-02
56  5.5000000000000D-01  1.3152599410396D+00  5.8410558433971D-02
57  5.6000000000000D-01  1.3020417332162D+00  3.3826506474812D-02
58  5.7000000000000D-01  1.2876761547642D+00  9.4294521338367D-03
59  5.8000000000000D-01  1.2721984251616D+00 -1.4745742893338D-02
60  5.9000000000000D-01  1.2556447371374D+00 -3.8669143892530D-02
61  6.0000000000000D-01  1.2380521771819D+00 -6.2315670233456D-02
62  6.1000000000000D-01  1.2194586471516D+00 -8.5664976566587D-02
63  6.2000000000000D-01  1.1999027871366D+00 -1.0870128942897D-01
64  6.3000000000000D-01  1.1794238997473D+00 -1.3141320092604D-01
65  6.4000000000000D-01  1.1580618759549D+00 -1.5379342149033D-01
66  6.5000000000000D-01  1.1358571226061D+00 -1.7583849404405D-01
67  6.6000000000000D-01  1.1128504917153D+00 -1.9754847219570D-01
68  6.7000000000000D-01  1.0890832116187D+00 -2.1892656538757D-01
69  6.8000000000000D-01  1.0645968200601D+00 -2.3997875417608D-01
70  6.9000000000000D-01  1.0394330992616D+00 -2.6071337906814D-01
71  7.0000000000000D-01  1.0136340130148D+00 -2.8114070655240D-01
72  7.1000000000000D-01  9.8724164581582D-01 -3.0127247615463D-01
73  7.2000000000000D-01  9.6029814405062D-01 -3.2112143250721D-01
74  7.3000000000000D-01  9.3284565922456D-01 -3.4070084655579D-01
75  7.4000000000000D-01  9.0492629321672D-01 -3.6002403012721D-01
76  7.5000000000000D-01  8.7658204552807D-01 -3.7910384815385D-01
77  7.6000000000000D-01  8.4785476248109D-01 -3.9795223288938D-01
78  7.7000000000000D-01  8.1878608831907D-01 -4.1657970445757D-01
79  7.8000000000000D-01  7.8941741814405D-01 -4.3499490205075D-01
80  7.9000000000000D-01  7.5978985262503D-01 -4.5320413003853D-01
81  8.0000000000000D-01  7.2994415440158D-01 -4.7121092315786D-01
82  8.1000000000000D-01  6.9992070610238D-01 -4.8901563483616D-01
83  8.2000000000000D-01  6.6975946989468D-01 -5.0661505254960D-01
84  8.3000000000000D-01  6.3949994847714D-01 -5.2400204393779D-01
85  8.4000000000000D-01  6.0918114742746D-01 -5.4116523718951D-01
86  8.5000000000000D-01  5.7884153881527D-01 -5.5808873897860D-01
87  8.6000000000000D-01  5.4851902599163D-01 -5.7475189296850D-01
88  8.7000000000000D-01  5.1825090946825D-01 -5.9112908162128D-01
89  8.8000000000000D-01  4.8807385380240D-01 -6.0718957373981D-01
90  8.9000000000000D-01  4.5802385540743D-01 -6.2289741984717D-01
91  9.0000000000000D-01  4.2813621121377D-01 -6.3821139716423D-01
92  9.1000000000000D-01  3.9844548811087D-01 -6.5308500558770D-01
93  9.2000000000000D-01  3.6898549310756D-01 -6.6746651570000D-01
94  9.3000000000000D-01  3.3978924415545D-01 -6.8129906946087D-01
95  9.4000000000000D-01  3.1088894158816D-01 -6.9452083384118D-01
96  9.5000000000000D-01  2.8231594013795D-01 -7.0706520726507D-01
97  9.6000000000000D-01  2.5410072150045D-01 -7.1886107832998D-01
98  9.7000000000000D-01  2.2627286742779D-01 -7.2983313587830D-01
99  9.8000000000000D-01  1.9886103334052D-01 -7.3990222909493D-01
100  9.9000000000000D-01  1.7189292245843D-01 -7.4898577593297D-01
101  1.0000000000000D+00  1.4539526046104D-01 -7.5699821777064D-01
102  1.0100000000000D+00  1.1939377069859D-01 -7.6385151784822D-01
103  1.0200000000000D+00  9.3913149984345D-02 -7.6945570067519D-01
104  1.0300000000000D+00  6.8977045009115D-02 -7.7371942926042D-01
105  1.0400000000000D+00  4.4608029428564D-02 -7.7655061669495D-01
106  1.0500000000000D+00  2.0827581682767D-02 -7.7785706832696D-01
107  1.0600000000000D+00 -2.3439363835847D-03 -7.7754715048869D-01
108  1.0700000000000D+00 -2.4887300023722D-02 -7.7553048147994D-01
109  1.0800000000000D+00 -4.6784441130310D-02 -7.7171864029935D-01
110  1.0900000000000D+00 -6.8018466725186D-02 -7.6602588841228D-01
111  1.1000000000000D+00 -8.8573676301140D-02 -7.5836989969076D-01
112  1.1100000000000D+00 -1.0843557791426D-01 -7.4867249351950D-01
113  1.1200000000000D+00 -1.2759090292144D-01 -7.3686036596400D-01
114  1.1300000000000D+00 -1.4602761925477D-01 -7.2286581383567D-01
115  1.1400000000000D+00 -1.6373494312291D-01 -7.0662744646119D-01
116  1.1500000000000D+00 -1.8070334902817D-01 -6.8809087995380D-01
117  1.1600000000000D+00 -1.9692457798871D-01 -6.6720940883375D-01
118  1.1700000000000D+00 -2.1239164385716D-01 -6.4394464992557D-01
119  1.1800000000000D+00 -2.2709883762893D-01 -6.1826715355985D-01
120  1.1900000000000D+00 -2.4104172963743D-01 -5.9015697723433D-01
121  1.2000000000000D+00 -2.5421716953853D-01 -5.5960421709558D-01
122  1.2100000000000D+00 -2.6662328399451D-01 -5.2660949284800D-01
123  1.2200000000000D+00 -2.7825947196987D-01 -4.9118438178946D-01
124  1.2300000000000D+00 -2.8912639756541D-01 -4.5335179811990D-01
125  1.2400000000000D+00 -2.9922598032474D-01 -4.1314631392628D-01
126  1.2500000000000D+00 -3.0856138295410D-01 -3.7061441845223D-01
127  1.2600000000000D+00 -3.1713699641090D-01 -3.2581471272754D-01
128  1.2700000000000D+00 -3.2495842233095D-01 -2.7881803707837D-01
129  1.2800000000000D+00 -3.3203245276981D-01 -2.2970752920542D-01
130  1.2900000000000D+00 -3.3836704725086D-01 -1.7857861105148D-01
131  1.3000000000000D+00 -3.4397130713303D-01 -1.2553890328954D-01
132  1.3100000000000D+00 -3.4885544731174D-01 -7.0708066282030D-02
133  1.3200000000000D+00 -3.5303076529048D-01 -1.4217567087018D-02
134  1.3300000000000D+00 -3.5650960768221D-01  4.3789627268213D-02
135  1.3400000000000D+00 -3.5930533419215D-01  1.0315943025376D-01
136  1.3500000000000D+00 -3.6143227917236D-01  1.6372708888603D-01
137  1.3600000000000D+00 -3.6290571084812D-01  2.2531770792545D-01
138  1.3700000000000D+00 -3.6374178830860D-01  2.8774684400529D-01
139  1.3800000000000D+00 -3.6395751640778D-01  3.5082116689120D-01
140  1.3900000000000D+00 -3.6357069870066D-01  4.1433918568502D-01
141  1.4000000000000D+00 -3.6259988856480D-01  4.7809203705570D-01
142  1.4100000000000D+00 -3.6106433868610D-01  5.4186433169248D-01
143  1.4200000000000D+00 -3.5898394906056D-01  6.0543505602068D-01
144  1.4300000000000D+00 -3.5637921371934D-01  6.6857852451875D-01
145  1.4400000000000D+00 -3.5327116635929D-01  7.3106537873374D-01
146  1.4500000000000D+00 -3.4968132508278D-01  7.9266362846414D-01
147  1.4600000000000D+00 -3.4563163646519D-01  8.5313973004290D-01
148  1.4700000000000D+00 -3.4114441915137D-01  9.1225969728617D-01
149  1.4800000000000D+00 -3.3624230721421D-01  9.6979023953008D-01
150  1.4900000000000D+00 -3.3094819348590D-01  1.0254999219774D+00
151  1.5000000000000D+00 -3.2528517309336D-01  1.0791603428334D+00
152  1.5100000000000D+00 -3.1927648740859D-01  1.1305473222611D+00
153  1.5200000000000D+00 -3.1294546865134D-01  1.1794420975407D+00
154  1.5300000000000D+00 -3.0631548532971D-01  1.2256325199255D+00
155  1.5400000000000D+00 -2.9940988877062D-01  1.2689142472410D+00
156  1.5500000000000D+00 -2.9225196089045D-01  1.3090919285171D+00
157  1.5600000000000D+00 -2.8486486345301D-01  1.3459803747630D+00
158  1.5700000000000D+00 -2.7727158894741D-01  1.3794057126258D+00
159  1.5800000000000D+00 -2.6949491329416D-01  1.4092065159195D+00
160  1.5900000000000D+00 -2.6155735051327D-01  1.4352349117597D+00
161  1.6000000000000D+00 -2.5348110949657D-01  1.4573576578778D+00
162  1.6100000000000D+00 -2.4528805303094D-01  1.4754571875323D+00
163  1.6200000000000D+00 -2.3699965912821D-01  1.4894326207164D+00
164  1.6300000000000D+00 -2.2863698482869D-01  1.4992007375732D+00
165  1.6400000000000D+00 -2.2022063243354D-01  1.5046969152105D+00
166  1.6500000000000D+00 -2.1177071835469D-01  1.5058760232790D+00
167  1.6600000000000D+00 -2.0330684443171D-01  1.5027132821473D+00
168  1.6700000000000D+00 -1.9484807192063D-01  1.4952050786233D+00
169  1.6800000000000D+00 -1.8641289790190D-01  1.4833697456121D+00
170  1.6900000000000D+00 -1.7801923431677D-01  1.4672483005510D+00
171  1.7000000000000D+00 -1.6968438928986D-01  1.4469051512443D+00
172  1.7100000000000D+00 -1.6142505093301D-01  1.4224287643047D+00
173  1.7200000000000D+00 -1.5325727322039D-01  1.3939323065002D+00
174  1.7300000000000D+00 -1.4519646409109D-01  1.3615542552059D+00
175  1.7400000000000D+00 -1.3725737533154D-01  1.3254589891665D+00
176  1.7500000000000D+00 -1.2945409493459D-01  1.2858374149021D+00
177  1.7600000000000D+00 -1.2180003766488D-01  1.2429072795719D+00
178  1.7700000000000D+00 -1.1430794608355D-01  1.1969144394870D+00
179  1.7800000000000D+00 -1.0698987382603D-01  1.1481317979724D+00
180  1.7900000000000D+00 -9.9857181451378D-02  1.0968604286791D+00
181  1.8000000000000D+00 -9.2920582716921D-02  1.0434345078629D+00
182  1.8100000000000D+00 -8.6190097734626D-02  9.8821742153229D-01
183  1.8200000000000D+00 -7.9674912327512D-02  9.3159064527677D-01
184  1.8300000000000D+00 -7.3383307447063D-02  8.7394554820581D-01
185  1.8400000000000D+00 -6.7322643260351D-02  8.1567325307786D-01
186  1.8500000000000D+00 -6.1499313804403D-02  7.5715295066314D-01
187  1.8600000000000D+00 -5.5918877768988D-02  6.9875503359220D-01
188  1.8700000000000D+00 -5.0586193683009D-02  6.4084222062109D-01
189  1.8800000000000D+00 -4.5505455815000D-02  5.8376522672014D-01
190  1.8900000000000D+00 -4.0680292608080D-02  5.2786244175864D-01
191  1.9000000000000D+00 -3.6113844549289D-02  4.7345840735369D-01
192  1.9100000000000D+00 -3.1808841852322D-02  4.2086248435046D-01
193  1.9200000000000D+00 -2.7767680153704D-02  3.7036763576601D-01
194  1.9300000000000D+00 -2.3992492815044D-02  3.2224924919323D-01
195  1.9400000000000D+00 -2.0485219916419D-02  2.7676402401330D-01
196  1.9500000000000D+00 -1.7247673130417D-02  2.3414893914525D-01
197  1.9600000000000D+00 -1.4281596955934D-02  1.9462029393692D-01
198  1.9700000000000D+00 -1.1588724938601D-02  1.5837283994225D-01
199  1.9800000000000D+00 -9.1708316932916D-03  1.2557899492721D-01
200  1.9900000000000D+00 -7.0304177500927D-03  9.6396742248947D-02
201  2.0000000000000D+00 -5.1694869477245D-03  7.0952036033202D-02
202  2.0100000000000D+00 -3.5866563327943D-03  4.9298941149730D-02
203  2.0200000000000D+00 -2.2783605742235D-03  3.1428535046610D-02
204  2.0300000000000D+00 -1.2678317361079D-03  1.7685571703810D-02
205  2.0400000000000D+00 -5.7064782376117D-04  8.2894774777121D-03
206  2.0500000000000D+00 -1.6380658857387D-04  2.8573672773529D-03
207  2.0600000000000D+00  1.8550219684791D-05  3.6641362672140D-04
208  2.0700000000000D+00  5.2931652939522D-05 -3.3214880762876D-04
209  2.0800000000000D+00  1.8863335435715D-05 -1.5298432961731D-04
210  2.0900000000000D+00 -1.1608354099830D-05  1.0183661780577D-04
211  2.1000000000000D+00 -1.3202331979918D-05  1.2126135087802D-04
212  2.1100000000000D+00  2.8609128541124D-07 -2.2536864369280D-06
213  2.1200000000000D+00  2.8118179424956D-06 -2.2970573317886D-05
214  2.1300000000000D+00  1.4582052505550D-06 -1.2221278498189D-05
215  2.1400000000000D+00 -2.7974161798611D-08 -8.0984326515863D-07
216  2.1500000000000D+00 -3.8558990474241D-08 -1.1162707562673D-06
217  2.1600000000000D+00 -1.2425464452517D-09 -3.5971332316518D-08
218  2.1700000000000D+00  0.0000000000000D+00  0.0000000000000D+00
219  2.1800000000000D+00  0.0000000000000D+00  0.0000000000000D+00
220  2.1900000000000D+00  0.0000000000000D+00  0.0000000000000D+00
221  2.2000000000000D+00  0.0000000000000D+00  0.0000000000000D+00
222  2.2100000000000D+00  0.0000000000000D+00  0.0000000000000D+00
223  2.2200000000000D+00  0.0000000000000D+00  0.0000000000000D+00
224  2.2300000000000D+00  0.0000000000000D+00  0.0000000000000D+00
225  2.2400000000000D+00  0.0000000000000D+00  0.0000000000000D+00
226  2.2500000000000D+00  0.0000000000000D+00  0.0000000000000D+00
227  2.2600000000000D+00  0.0000000000000D+00  0.0000000000000D+00
228  2.2700000000000D+00  0.0000000000000D+00  0.0000000000000D+00
229  2.2800000000000D+00  0.0000000000000D+00  0.0000000000000D+00
230  2.2900000000000D+00  0.0000000000000D+00  0.0000000000000D+00
231  2.3000000000000D+00  0.0000000000000D+00  0.0000000000000D+00
232  2.3100000000000D+00  0.0000000000000D+00  0.0000000000000D+00
233  2.3200000000000D+00  0.0000000000000D+00  0.0000000000000D+00
234  2.3300000000000D+00  0.0000000000000D+00  0.0000000000000D+00
235  2.3400000000000D+00  0.0000000000000D+00  0.0000000000000D+00
236  2.3500000000000D+00  0.0000000000000D+00  0.0000000000000D+00
237  2.3600000000000D+00  0.0000000000000D+00  0.0000000000000D+00
238  2.3700000000000D+00  0.0000000000000D+00  0.0000000000000D+00
239  2.3800000000000D+00  0.0000000000000D+00  0.0000000000000D+00
240  2.3900000000000D+00  0.0000000000000D+00  0.0000000000000D+00
241  2.4000000000000D+00  0.0000000000000D+00  0.0000000000000D+00
242  2.4100000000000D+00  0.0000000000000D+00  0.0000000000000D+00
243  2.4200000000000D+00  0.0000000000000D+00  0.0000000000000D+00
244  2.4300000000000D+00  0.0000000000000D+00  0.0000000000000D+00
245  2.4400000000000D+00  0.0000000000000D+00  0.0000000000000D+00
246  2.4500000000000D+00  0.0000000000000D+00  0.0000000000000D+00
247  2.4600000000000D+00  0.0000000000000D+00  0.0000000000000D+00
248  2.4700000000000D+00  0.0000000000000D+00  0.0000000000000D+00
249  2.4800000000000D+00  0.0000000000000D+00  0.0000000000000D+00
250  2.4900000000000D+00  0.0000000000000D+00  0.0000000000000D+00
251  2.5000000000000D+00  0.0000000000000D+00  0.0000000000000D+00
252  2.5100000000000D+00  0.0000000000000D+00  0.0000000000000D+00
253  2.5200000000000D+00  0.0000000000000D+00  0.0000000000000D+00
254  2.5300000000000D+00  0.0000000000000D+00  0.0000000000000D+00
255  2.5400000000000D+00  0.0000000000000D+00  0.0000000000000D+00
256  2.5500000000000D+00  0.0000000000000D+00  0.0000000000000D+00
257  2.5600000000000D+00  0.0000000000000D+00  0.0000000000000D+00
258  2.5700000000000D+00  0.0000000000000D+00  0.0000000000000D+00
259  2.5800000000000D+00  0.0000000000000D+00  0.0000000000000D+00
260  2.5900000000000D+00  0.0000000000000D+00  0.0000000000000D+00
261  2.6000000000000D+00  0.0000000000000D+00  0.0000000000000D+00
262  2.6100000000000D+00  0.0000000000000D+00  0.0000000000000D+00
263  2.6200000000000D+00  0.0000000000000D+00  0.0000000000000D+00
264  2.6300000000000D+00  0.0000000000000D+00  0.0000000000000D+00
265  2.6400000000000D+00  0.0000000000000D+00  0.0000000000000D+00
266  2.6500000000000D+00  0.0000000000000D+00  0.0000000000000D+00
267  2.6600000000000D+00  0.0000000000000D+00  0.0000000000000D+00
268  2.6700000000000D+00  0.0000000000000D+00  0.0000000000000D+00
269  2.6800000000000D+00  0.0000000000000D+00  0.0000000000000D+00
270  2.6900000000000D+00  0.0000000000000D+00  0.0000000000000D+00
271  2.7000000000000D+00  0.0000000000000D+00  0.0000000000000D+00
272  2.7100000000000D+00  0.0000000000000D+00  0.0000000000000D+00
273  2.7200000000000D+00  0.0000000000000D+00  0.0000000000000D+00
274  2.7300000000000D+00  0.0000000000000D+00  0.0000000000000D+00
275  2.7400000000000D+00  0.0000000000000D+00  0.0000000000000D+00
276  2.7500000000000D+00  0.0000000000000D+00  0.0000000000000D+00
277  2.7600000000000D+00  0.0000000000000D+00  0.0000000000000D+00
278  2.7700000000000D+00  0.0000000000000D+00  0.0000000000000D+00
279  2.7800000000000D+00  0.0000000000000D+00  0.0000000000000D+00
280  2.7900000000000D+00  0.0000000000000D+00  0.0000000000000D+00
281  2.8000000000000D+00  0.0000000000000D+00  0.0000000000000D+00
282  2.8100000000000D+00  0.0000000000000D+00  0.0000000000000D+00
283  2.8200000000000D+00  0.0000000000000D+00  0.0000000000000D+00
284  2.8300000000000D+00  0.0000000000000D+00  0.0000000000000D+00
285  2.8400000000000D+00  0.0000000000000D+00  0.0000000000000D+00
286  2.8500000000000D+00  0.0000000000000D+00  0.0000000000000D+00
287  2.8600000000000D+00  0.0000000000000D+00  0.0000000000000D+00
288  2.8700000000000D+00  0.0000000000000D+00  0.0000000000000D+00
289  2.8800000000000D+00  0.0000000000000D+00  0.0000000000000D+00
290  2.8900000000000D+00  0.0000000000000D+00  0.0000000000000D+00
291  2.9000000000000D+00  0.0000000000000D+00  0.0000000000000D+00
292  2.9100000000000D+00  0.0000000000000D+00  0.0000000000000D+00
293  2.9200000000000D+00  0.0000000000000D+00  0.0000000000000D+00
294  2.9300000000000D+00  0.0000000000000D+00  0.0000000000000D+00
295  2.9400000000000D+00  0.0000000000000D+00  0.0000000000000D+00
296  2.9500000000000D+00  0.0000000000000D+00  0.0000000000000D+00
297  2.9600000000000D+00  0.0000000000000D+00  0.0000000000000D+00
298  2.9700000000000D+00  0.0000000000000D+00  0.0000000000000D+00
299  2.9800000000000D+00  0.0000000000000D+00  0.0000000000000D+00
300  2.9900000000000D+00  0.0000000000000D+00  0.0000000000000D+00
301  3.0000000000000D+00  0.0000000000000D+00  0.0000000000000D+00
302  3.0100000000000D+00  0.0000000000000D+00  0.0000000000000D+00
303  3.0200000000000D+00  0.0000000000000D+00  0.0000000000000D+00
304  3.0300000000000D+00  0.0000000000000D+00  0.0000000000000D+00
305  3.0400000000000D+00  0.0000000000000D+00  0.0000000000000D+00
306  3.0500000000000D+00  0.0000000000000D+00  0.0000000000000D+00
307  3.0600000000000D+00  0.0000000000000D+00  0.0000000000000D+00
308  3.0700000000000D+00  0.0000000000000D+00  0.0000000000000D+00
309  3.0800000000000D+00  0.0000000000000D+00  0.0000000000000D+00
310  3.0900000000000D+00  0.0000000000000D+00  0.0000000000000D+00
311  3.1000000000000D+00  0.0000000000000D+00  0.0000000000000D+00
312  3.1100000000000D+00  0.0000000000000D+00  0.0000000000000D+00
313  3.1200000000000D+00  0.0000000000000D+00  0.0000000000000D+00
314  3.1300000000000D+00  0.0000000000000D+00  0.0000000000000D+00
315  3.1400000000000D+00  0.0000000000000D+00  0.0000000000000D+00
316  3.1500000000000D+00  0.0000000000000D+00  0.0000000000000D+00
317  3.1600000000000D+00  0.0000000000000D+00  0.0000000000000D+00
318  3.1700000000000D+00  0.0000000000000D+00  0.0000000000000D+00
319  3.1800000000000D+00  0.0000000000000D+00  0.0000000000000D+00
320  3.1900000000000D+00  0.0000000000000D+00  0.0000000000000D+00
321  3.2000000000000D+00  0.0000000000000D+00  0.0000000000000D+00
322  3.2100000000000D+00  0.0000000000000D+00  0.0000000000000D+00
323  3.2200000000000D+00  0.0000000000000D+00  0.0000000000000D+00
324  3.2300000000000D+00  0.0000000000000D+00  0.0000000000000D+00
325  3.2400000000000D+00  0.0000000000000D+00  0.0000000000000D+00
326  3.2500000000000D+00  0.0000000000000D+00  0.0000000000000D+00
327  3.2600000000000D+00  0.0000000000000D+00  0.0000000000000D+00
328  3.2700000000000D+00  0.0000000000000D+00  0.0000000000000D+00
329  3.2800000000000D+00  0.0000000000000D+00  0.0000000000000D+00
330  3.2900000000000D+00  0.0000000000000D+00  0.0000000000000D+00
331  3.3000000000000D+00  0.0000000000000D+00  0.0000000000000D+00
332  3.3100000000000D+00  0.0000000000000D+00  0.0000000000000D+00
333  3.3200000000000D+00  0.0000000000000D+00  0.0000000000000D+00
334  3.3300000000000D+00  0.0000000000000D+00  0.0000000000000D+00
335  3.3400000000000D+00  0.0000000000000D+00  0.0000000000000D+00
336  3.3500000000000D+00  0.0000000000000D+00  0.0000000000000D+00
337  3.3600000000000D+00  0.0000000000000D+00  0.0000000000000D+00
338  3.3700000000000D+00  0.0000000000000D+00  0.0000000000000D+00
339  3.3800000000000D+00  0.0000000000000D+00  0.0000000000000D+00
340  3.3900000000000D+00  0.0000000000000D+00  0.0000000000000D+00
341  3.4000000000000D+00  0.0000000000000D+00  0.0000000000000D+00
342  3.4100000000000D+00  0.0000000000000D+00  0.0000000000000D+00
343  3.4200000000000D+00  0.0000000000000D+00  0.0000000000000D+00
344  3.4300000000000D+00  0.0000000000000D+00  0.0000000000000D+00
345  3.4400000000000D+00  0.0000000000000D+00  0.0000000000000D+00
346  3.4500000000000D+00  0.0000000000000D+00  0.0000000000000D+00
347  3.4600000000000D+00  0.0000000000000D+00  0.0000000000000D+00
348  3.4700000000000D+00  0.0000000000000D+00  0.0000000000000D+00
349  3.4800000000000D+00  0.0000000000000D+00  0.0000000000000D+00
350  3.4900000000000D+00  0.0000000000000D+00  0.0000000000000D+00
351  3.5000000000000D+00  0.0000000000000D+00  0.0000000000000D+00
352  3.5100000000000D+00  0.0000000000000D+00  0.0000000000000D+00
353  3.5200000000000D+00  0.0000000000000D+00  0.0000000000000D+00
354  3.5300000000000D+00  0.0000000000000D+00  0.0000000000000D+00
355  3.5400000000000D+00  0.0000000000000D+00  0.0000000000000D+00
356  3.5500000000000D+00  0.0000000000000D+00  0.0000000000000D+00
357  3.5600000000000D+00  0.0000000000000D+00  0.0000000000000D+00
358  3.5700000000000D+00  0.0000000000000D+00  0.0000000000000D+00
359  3.5800000000000D+00  0.0000000000000D+00  0.0000000000000D+00
360  3.5900000000000D+00  0.0000000000000D+00  0.0000000000000D+00
361  3.6000000000000D+00  0.0000000000000D+00  0.0000000000000D+00
362  3.6100000000000D+00  0.0000000000000D+00  0.0000000000000D+00
363  3.6200000000000D+00  0.0000000000000D+00  0.0000000000000D+00
364  3.6300000000000D+00  0.0000000000000D+00  0.0000000000000D+00
365  3.6400000000000D+00  0.0000000000000D+00  0.0000000000000D+00
366  3.6500000000000D+00  0.0000000000000D+00  0.0000000000000D+00
367  3.6600000000000D+00  0.0000000000000D+00  0.0000000000000D+00
368  3.6700000000000D+00  0.0000000000000D+00  0.0000000000000D+00
369  3.6800000000000D+00  0.0000000000000D+00  0.0000000000000D+00
370  3.6900000000000D+00  0.0000000000000D+00  0.0000000000000D+00
371  3.7000000000000D+00  0.0000000000000D+00  0.0000000000000D+00
372  3.7100000000000D+00  0.0000000000000D+00  0.0000000000000D+00
373  3.7200000000000D+00  0.0000000000000D+00  0.0000000000000D+00
374  3.7300000000000D+00  0.0000000000000D+00  0.0000000000000D+00
375  3.7400000000000D+00  0.0000000000000D+00  0.0000000000000D+00
376  3.7500000000000D+00  0.0000000000000D+00  0.0000000000000D+00
377  3.7600000000000D+00  0.0000000000000D+00  0.0000000000000D+00
378  3.7700000000000D+00  0.0000000000000D+00  0.0000000000000D+00
379  3.7800000000000D+00  0.0000000000000D+00  0.0000000000000D+00
380  3.7900000000000D+00  0.0000000000000D+00  0.0000000000000D+00
381  3.8000000000000D+00  0.0000000000000D+00  0.0000000000000D+00
382  3.8100000000000D+00  0.0000000000000D+00  0.0000000000000D+00
383  3.8200000000000D+00  0.0000000000000D+00  0.0000000000000D+00
384  3.8300000000000D+00  0.0000000000000D+00  0.0000000000000D+00
385  3.8400000000000D+00  0.0000000000000D+00  0.0000000000000D+00
386  3.8500000000000D+00  0.0000000000000D+00  0.0000000000000D+00
387  3.8600000000000D+00  0.0000000000000D+00  0.0000000000000D+00
388  3.8700000000000D+00  0.0000000000000D+00  0.0000000000000D+00
389  3.8800000000000D+00  0.0000000000000D+00  0.0000000000000D+00
390  3.8900000000000D+00  0.0000000000000D+00  0.0000000000000D+00
391  3.9000000000000D+00  0.0000000000000D+00  0.0000000000000D+00
392  3.9100000000000D+00  0.0000000000000D+00  0.0000000000000D+00
393  3.9200000000000D+00  0.0000000000000D+00  0.0000000000000D+00
394  3.9300000000000D+00  0.0000000000000D+00  0.0000000000000D+00
395  3.9400000000000D+00  0.0000000000000D+00  0.0000000000000D+00
396  3.9500000000000D+00  0.0000000000000D+00  0.0000000000000D+00
397  3.9600000000000D+00  0.0000000000000D+00  0.0000000000000D+00
398  3.9700000000000D+00  0.0000000000000D+00  0.0000000000000D+00
399  3.9800000000000D+00  0.0000000000000D+00  0.0000000000000D+00
400  3.9900000000000D+00  0.0000000000000D+00  0.0000000000000D+00
401  4.0000000000000D+00  0.0000000000000D+00  0.0000000000000D+00
402  4.0100000000000D+00  0.0000000000000D+00  0.0000000000000D+00
403  4.0200000000000D+00  0.0000000000000D+00  0.0000000000000D+00
404  4.0300000000000D+00  0.0000000000000D+00  0.0000000000000D+00
405  4.0400000000000D+00  0.0000000000000D+00  0.0000000000000D+00
406  4.0500000000000D+00  0.0000000000000D+00  0.0000000000000D+00
407  4.0600000000000D+00  0.0000000000000D+00  0.0000000000000D+00
408  4.0700000000000D+00  0.0000000000000D+00  0.0000000000000D+00
409  4.0800000000000D+00  0.0000000000000D+00  0.0000000000000D+00
410  4.0900000000000D+00  0.0000000000000D+00  0.0000000000000D+00
411  4.1000000000000D+00  0.0000000000000D+00  0.0000000000000D+00
412  4.1100000000000D+00  0.0000000000000D+00  0.0000000000000D+00
413  4.1200000000000D+00  0.0000000000000D+00  0.0000000000000D+00
414  4.1300000000000D+00  0.0000000000000D+00  0.0000000000000D+00
415  4.1400000000000D+00  0.0000000000000D+00  0.0000000000000D+00
416  4.1500000000000D+00  0.0000000000000D+00  0.0000000000000D+00
417  4.1600000000000D+00  0.0000000000000D+00  0.0000000000000D+00
418  4.1700000000000D+00  0.0000000000000D+00  0.0000000000000D+00
419  4.1800000000000D+00  0.0000000000000D+00  0.0000000000000D+00
420  4.1900000000000D+00  0.0000000000000D+00  0.0000000000000D+00
421  4.2000000000000D+00  0.0000000000000D+00  0.0000000000000D+00
422  4.2100000000000D+00  0.0000000000000D+00  0.0000000000000D+00
423  4.2200000000000D+00  0.0000000000000D+00  0.0000000000000D+00
424  4.2300000000000D+00  0.0000000000000D+00  0.0000000000000D+00
425  4.2400000000000D+00  0.0000000000000D+00  0.0000000000000D+00
426  4.2500000000000D+00  0.0000000000000D+00  0.0000000000000D+00
427  4.2600000000000D+00  0.0000000000000D+00  0.0000000000000D+00
428  4.2700000000000D+00  0.0000000000000D+00  0.0000000000000D+00
429  4.2800000000000D+00  0.0000000000000D+00  0.0000000000000D+00
430  4.2900000000000D+00  0.0000000000000D+00  0.0000000000000D+00
431  4.3000000000000D+00  0.0000000000000D+00  0.0000000000000D+00
432  4.3100000000000D+00  0.0000000000000D+00  0.0000000000000D+00
433  4.3200000000000D+00  0.0000000000000D+00  0.0000000000000D+00
434  4.3300000000000D+00  0.0000000000000D+00  0.0000000000000D+00
435  4.3400000000000D+00  0.0000000000000D+00  0.0000000000000D+00
436  4.3500000000000D+00  0.0000000000000D+00  0.0000000000000D+00
437  4.3600000000000D+00  0.0000000000000D+00  0.0000000000000D+00
438  4.3700000000000D+00  0.0000000000000D+00  0.0000000000000D+00
439  4.3800000000000D+00  0.0000000000000D+00  0.0000000000000D+00
440  4.3900000000000D+00  0.0000000000000D+00  0.0000000000000D+00
441  4.4000000000000D+00  0.0000000000000D+00  0.0000000000000D+00
442  4.4100000000000D+00  0.0000000000000D+00  0.0000000000000D+00
443  4.4200000000000D+00  0.0000000000000D+00  0.0000000000000D+00