Kr    ONCVPSP-3.3.0  r_core=   1.75984   1.50704   1.80233
36.0000      8.0000      180423    zatom,zion,pspd
8      11   2     4   600     0    pspcod,pspxc,lmax,lloc,mmax,r2well
5.99000000  7.00000000  0.00000000    rchrg fchrg qchrg
2     3     3     0    nproj
3     1           extension_switch
4     4     0    nprojso
0                         8.2078724003485D-01  8.3612227096297D+00
1  0.0000000000000D+00  4.0442987847555D-10 -9.4976582154516D-11
2  1.0000000000000D-02 -1.6999679204480D-02  3.9482290975573D-02
3  2.0000000000000D-02 -3.3906571549164D-02  7.8922925183152D-02
4  3.0000000000000D-02 -5.0628782655081D-02  1.1828043618742D-01
5  4.0000000000000D-02 -6.7076193149732D-02  1.5751373601414D-01
6  5.0000000000000D-02 -8.3161321385978D-02  1.9658229889435D-01
7  6.0000000000000D-02 -9.8800156708764D-02  2.3544633849290D-01
8  7.0000000000000D-02 -1.1391295393100D-01  2.7406697656185D-01
9  8.0000000000000D-02 -1.2842498008436D-01  3.1240640105440D-01
10  9.0000000000000D-02 -1.4226720500884D-01  3.5042801185175D-01
11  1.0000000000000D-01 -1.5537692793191D-01  3.8809655239318D-01
12  1.1000000000000D-01 -1.6769833285832D-01  4.2537822565678D-01
13  1.2000000000000D-01 -1.7918296633855D-01  4.6224079311313D-01
14  1.3000000000000D-01 -1.8979013200001D-01  4.9865365546555D-01
15  1.4000000000000D-01 -1.9948719710331D-01  5.3458791419568D-01
16  1.5000000000000D-01 -2.0824980731602D-01  5.7001641315060D-01
17  1.6000000000000D-01 -2.1606200687139D-01  6.0491375963490D-01
18  1.7000000000000D-01 -2.2291626228758D-01  6.3925632470645D-01
19  1.8000000000000D-01 -2.2881338885632D-01  6.7302222261398D-01
20  1.9000000000000D-01 -2.3376238015642D-01  7.0619126955835D-01
21  2.0000000000000D-01 -2.3778014189822D-01  7.3874492220178D-01
22  2.1000000000000D-01 -2.4089113244874D-01  7.7066619659074D-01
23  2.2000000000000D-01 -2.4312691341323D-01  8.0193956839370D-01
24  2.3000000000000D-01 -2.4452561464747D-01  8.3255085558430D-01
25  2.4000000000000D-01 -2.4513131903554D-01  8.6248708491915D-01
26  2.5000000000000D-01 -2.4499337328050D-01  8.9173634376665D-01
27  2.6000000000000D-01 -2.4416563181061D-01  9.2028761903579D-01
28  2.7000000000000D-01 -2.4270564169311D-01  9.4813062513027D-01
29  2.8000000000000D-01 -2.4067377716168D-01  9.7525562301076D-01
30  2.9000000000000D-01 -2.3813233299590D-01  1.0016532325858D+00
31  3.0000000000000D-01 -2.3514458653368D-01  1.0273142407671D+00
32  3.1000000000000D-01 -2.3177383854432D-01  1.0522294076178D+00
33  3.2000000000000D-01 -2.2808244353637D-01  1.0763892730879D+00
34  3.3000000000000D-01 -2.2413084031491D-01  1.0997839668765D+00
35  3.4000000000000D-01 -2.1997659373526D-01  1.1224030239713D+00
36  3.5000000000000D-01 -2.1567345862098D-01  1.1442352084094D+00
37  3.6000000000000D-01 -2.1127047672327D-01  1.1652683477602D+00
38  3.7000000000000D-01 -2.0681111739428D-01  1.1854891807703D+00
39  3.8000000000000D-01 -2.0233247233238D-01  1.2048832205135D+00
40  3.9000000000000D-01 -1.9786451433115D-01  1.2234346352733D+00
41  4.0000000000000D-01 -1.9342942943286D-01  1.2411261492404D+00
42  4.1000000000000D-01 -1.8904103125194D-01  1.2579389649381D+00
43  4.2000000000000D-01 -1.8470426550260D-01  1.2738527090985D+00
44  4.3000000000000D-01 -1.8041481194131D-01  1.2888454034975D+00
45  4.4000000000000D-01 -1.7615879002734D-01  1.3028934620263D+00
46  4.5000000000000D-01 -1.7191257362160D-01  1.3159717150238D+00
47  4.6000000000000D-01 -1.6764271899278D-01  1.3280534616307D+00
48  4.7000000000000D-01 -1.6330600929152D-01  1.3391105506461D+00
49  4.8000000000000D-01 -1.5884961749732D-01  1.3491134900785D+00
50  4.9000000000000D-01 -1.5421138865069D-01  1.3580315852858D+00
51  5.0000000000000D-01 -1.4932024096467D-01  1.3658331052970D+00
52  5.1000000000000D-01 -1.4409668417923D-01  1.3724854766039D+00
53  5.2000000000000D-01 -1.3845345228863D-01  1.3779555034088D+00
54  5.3000000000000D-01 -1.3229624654954D-01  1.3822096130138D+00
55  5.4000000000000D-01 -1.2552458347822D-01  1.3852141247460D+00
56  5.5000000000000D-01 -1.1803274138083D-01  1.3869355405307D+00
57  5.6000000000000D-01 -1.0971079784105D-01  1.3873408549541D+00
58  5.7000000000000D-01 -1.0044574953306D-01  1.3863978824048D+00
59  5.8000000000000D-01 -9.0122704733443D-02  1.3840755986470D+00
60  5.9000000000000D-01 -7.8626138000839D-02  1.3803444939646D+00
61  6.0000000000000D-01 -6.5841195667612D-02  1.3751769348249D+00
62  6.1000000000000D-01 -5.1655040072379D-02  1.3685475308445D+00
63  6.2000000000000D-01 -3.5958219846799D-02  1.3604335037056D+00
64  6.3000000000000D-01 -1.8646053075074D-02  1.3508150545595D+00
65  6.4000000000000D-01  3.7999023052451D-04  1.3396757263807D+00
66  6.5000000000000D-01  2.1210920143157D-02  1.3270027576894D+00
67  6.6000000000000D-01  4.3928887244688D-02  1.3127874240512D+00
68  6.7000000000000D-01  6.8605885362134D-02  1.2970253637822D+00
69  6.8000000000000D-01  9.5302510366939D-02  1.2797168843501D+00
70  6.9000000000000D-01  1.2406678849580D-01  1.2608672460508D+00
71  7.0000000000000D-01  1.5493308722891D-01  1.2404869196664D+00
72  7.1000000000000D-01  1.8792112119985D-01  1.2185918149703D+00
73  7.2000000000000D-01  2.2303506492629D-01  1.1952034771366D+00
74  7.3000000000000D-01  2.6026278333602D-01  1.1703492483342D+00
75  7.4000000000000D-01  2.9957519013428D-01  1.1440623920383D+00
76  7.5000000000000D-01  3.4092574301635D-01  1.1163821778698D+00
77  7.6000000000000D-01  3.8425008358335D-01  1.0873539250832D+00
78  7.7000000000000D-01  4.2946582858546D-01  1.0570290031457D+00
79  7.8000000000000D-01  4.7647251779626D-01  1.0254647882032D+00
80  7.9000000000000D-01  5.2515172243448D-01  9.9272457459174D-01
81  8.0000000000000D-01  5.7536731660193D-01  9.5887744093222D-01
82  8.1000000000000D-01  6.2696591271568D-01  9.2399807073749D-01
83  8.2000000000000D-01  6.7977746039066D-01  8.8816652785638D-01
84  8.3000000000000D-01  7.3361600669004D-01  8.5146798748030D-01
85  8.4000000000000D-01  7.8828061412039D-01  8.1399242383817D-01
86  8.5000000000000D-01  8.4355643122125D-01  7.7583425610147D-01
87  8.6000000000000D-01  8.9921590909811D-01  7.3709195440980D-01
88  8.7000000000000D-01  9.5502015579101D-01  6.9786760830427D-01
89  8.8000000000000D-01  1.0107204189698D+00  6.5826646021785D-01
90  8.9000000000000D-01  1.0660596861175D+00  6.1839640701537D-01
91  9.0000000000000D-01  1.1207743901187D+00  5.7836747289623D-01
92  9.1000000000000D-01  1.1745962070220D+00  5.3829125726953D-01
93  9.2000000000000D-01  1.2272539317082D+00  4.9828036147764D-01
94  9.3000000000000D-01  1.2784754162785D+00  4.5844779848097D-01
95  9.4000000000000D-01  1.3279895551925D+00  4.1890638981860D-01
96  9.5000000000000D-01  1.3755283005384D+00  3.7976815432545D-01
97  9.6000000000000D-01  1.4208286903200D+00  3.4114369321517D-01
98  9.7000000000000D-01  1.4636348723027D+00  3.0314157622611D-01
99  9.8000000000000D-01  1.5037001057724D+00  2.6586773357582D-01
100  9.9000000000000D-01  1.5407887235431D+00  2.2942485847449D-01
101  1.0000000000000D+00  1.5746780366883D+00  1.9391182491256D-01
102  1.0100000000000D+00  1.6051601647723D+00  1.5942312535994D-01
103  1.0200000000000D+00  1.6320437748362D+00  1.2604833289172D-01
104  1.0300000000000D+00  1.6551557130186D+00  9.3871592095707D-02
105  1.0400000000000D+00  1.6743425134695D+00  6.2971142915694D-02
106  1.0500000000000D+00  1.6894717701807D+00  3.3418881338733D-02
107  1.0600000000000D+00  1.7004333583954D+00  5.2799605661676D-03
108  1.0700000000000D+00  1.7071404934696D+00 -2.1387564001785D-02
109  1.0800000000000D+00  1.7095306164450D+00 -4.6533042994589D-02
110  1.0900000000000D+00  1.7075660969661D+00 -7.0113491893115D-02
111  1.1000000000000D+00  1.7012347458341D+00 -9.2093798251482D-02
112  1.1100000000000D+00  1.6905501309175D+00 -1.1244687549337D-01
113  1.1200000000000D+00  1.6755516920208D+00 -1.3115376194228D-01
114  1.1300000000000D+00  1.6563046519931D+00 -1.4820366417824D-01
115  1.1400000000000D+00  1.6328997232153D+00 -1.6359394429340D-01
116  1.1500000000000D+00  1.6054526102435D+00 -1.7733005104260D-01
117  1.1600000000000D+00  1.5741033113049D+00 -1.8942539538150D-01
118  1.1700000000000D+00  1.5390152232088D+00 -1.9990117136923D-01
119  1.1800000000000D+00  1.5003740560498D+00 -2.0878612388412D-01
120  1.1900000000000D+00  1.4583865653458D+00 -2.1611626493112D-01
121  1.2000000000000D+00  1.4132791115117D+00 -2.2193454090775D-01
122  1.2100000000000D+00  1.3652960578797D+00 -2.2629045354080D-01
123  1.2200000000000D+00  1.3146980198914D+00 -2.2923963757813D-01
124  1.2300000000000D+00  1.2617599793497D+00 -2.3084339865133D-01
125  1.2400000000000D+00  1.2067692793113D+00 -2.3116821517741D-01
126  1.2500000000000D+00  1.1500235159504D+00 -2.3028520837092D-01
127  1.2600000000000D+00  1.0918283444340D+00 -2.2826958462638D-01
128  1.2700000000000D+00  1.0324952173775D+00 -2.2520005494994D-01
129  1.2800000000000D+00  9.7233907444455D-01 -2.2115823613269D-01
130  1.2900000000000D+00  9.1167600221787D-01 -2.1622803850286D-01
131  1.3000000000000D+00  8.5082088413203D-01 -2.1049504530712D-01
132  1.3100000000000D+00  7.9008505970918D-01 -2.0404588864008D-01
133  1.3200000000000D+00  7.2977401297352D-01 -1.9696762700551D-01
134  1.3300000000000D+00  6.7018510907820D-01 -1.8934712943231D-01
135  1.3400000000000D+00  6.1160539772435D-01 -1.8127047095020D-01
136  1.3500000000000D+00  5.5430950228110D-01 -1.7282234432781D-01
137  1.3600000000000D+00  4.9855761091707D-01 -1.6408549237119D-01
138  1.3700000000000D+00  4.4459358690279D-01 -1.5514016527501D-01
139  1.3800000000000D+00  3.9264321364411D-01 -1.4606360715531D-01
140  1.3900000000000D+00  3.4291258663134D-01 -1.3692957507369D-01
141  1.4000000000000D+00  2.9558666797333D-01 -1.2780789470818D-01
142  1.4100000000000D+00  2.5082801167128D-01 -1.1876405501482D-01
143  1.4200000000000D+00  2.0877567047273D-01 -1.0985884486454D-01
144  1.4300000000000D+00  1.6954429326161D-01 -1.0114803419563D-01
145  1.4400000000000D+00  1.3322341519159D-01 -9.2682100560824D-02
146  1.4500000000000D+00  9.9876950324767D-02 -8.4506003806723D-02
147  1.4600000000000D+00  6.9542879235338D-02 -7.6659007711540D-02
148  1.4700000000000D+00  4.2233163977305D-02 -6.9174554631174D-02
149  1.4800000000000D+00  1.7933776676737D-02 -6.2080174084810D-02
150  1.4900000000000D+00 -3.3947966862800D-03 -5.5397487482268D-02
151  1.5000000000000D+00 -2.1817359066788D-02 -4.9142172777729D-02
152  1.5100000000000D+00 -3.7423612599116D-02 -4.3323982734610D-02
153  1.5200000000000D+00 -5.0325310181169D-02 -3.7947178383753D-02
154  1.5300000000000D+00 -6.0653607186386D-02 -3.3010960680790D-02
155  1.5400000000000D+00 -6.8555719974770D-02 -2.8510066527515D-02
156  1.5500000000000D+00 -7.4192436148479D-02 -2.4435237702751D-02
157  1.5600000000000D+00 -7.7736923864870D-02 -2.0773498431000D-02
158  1.5700000000000D+00 -7.9372753092910D-02 -1.7508569260862D-02
159  1.5800000000000D+00 -7.9291905900781D-02 -1.4621290816690D-02
160  1.5900000000000D+00 -7.7692767581447D-02 -1.2090059726776D-02
161  1.6000000000000D+00 -7.4778062981935D-02 -9.8912793855718D-03
162  1.6100000000000D+00 -7.0752774422642D-02 -7.9998185373312D-03
163  1.6200000000000D+00 -6.5822053975411D-02 -6.3894738998257D-03
164  1.6300000000000D+00 -6.0189151928503D-02 -5.0334316731006D-03
165  1.6400000000000D+00 -5.4053378650553D-02 -3.9047237044699D-03
166  1.6500000000000D+00 -4.7608122493485D-02 -2.9766727885386D-03
167  1.6600000000000D+00 -4.1038937098886D-02 -2.2233238133350D-03
168  1.6700000000000D+00 -3.4521722561735D-02 -1.6198547813889D-03
169  1.6800000000000D+00 -2.8221009455305D-02 -1.1429654839048D-03
170  1.6900000000000D+00 -2.2288371306675D-02 -7.7123757306476D-04
171  1.7000000000000D+00 -1.6862557415172D-02 -4.8541964694438D-04
172  1.7100000000000D+00 -1.2065796856714D-02 -2.6879039858655D-04
173  1.7200000000000D+00 -7.9826305889124D-03 -1.0822814070785D-04
174  1.7300000000000D+00 -4.7009161335289D-03  6.9245068819813D-06
175  1.7400000000000D+00 -2.3904986200436D-03  9.0756220922331D-05
176  1.7500000000000D+00 -1.0920030115106D-03  1.4921806201712D-04
177  1.7600000000000D+00 -4.7213441621530D-04  1.5389441701659D-04
178  1.7700000000000D+00 -1.5056057818996D-04  8.5013545971507D-05
179  1.7800000000000D+00 -7.5949667833004D-06  6.0065259378142D-06
180  1.7900000000000D+00  1.8091266836942D-05 -1.7558500899424D-05
181  1.8000000000000D+00  3.9358636158119D-06 -4.7156015974191D-06
182  1.8100000000000D+00 -5.3271575472839D-06  3.6967247141664D-06
183  1.8200000000000D+00 -2.6023827473708D-06  1.9270286353107D-06
184  1.8300000000000D+00  1.1103056116121D-06 -3.5793320948243D-07
185  1.8400000000000D+00  9.6309545053683D-07 -3.1047654091207D-07
186  1.8500000000000D+00  0.0000000000000D+00  0.0000000000000D+00
187  1.8600000000000D+00  0.0000000000000D+00  0.0000000000000D+00
188  1.8700000000000D+00  0.0000000000000D+00  0.0000000000000D+00
189  1.8800000000000D+00  0.0000000000000D+00  0.0000000000000D+00
190  1.8900000000000D+00  0.0000000000000D+00  0.0000000000000D+00
191  1.9000000000000D+00  0.0000000000000D+00  0.0000000000000D+00
192  1.9100000000000D+00  0.0000000000000D+00  0.0000000000000D+00
193  1.9200000000000D+00  0.0000000000000D+00  0.0000000000000D+00
194  1.9300000000000D+00  0.0000000000000D+00  0.0000000000000D+00
195  1.9400000000000D+00  0.0000000000000D+00  0.0000000000000D+00
196  1.9500000000000D+00  0.0000000000000D+00  0.0000000000000D+00
197  1.9600000000000D+00  0.0000000000000D+00  0.0000000000000D+00
198  1.9700000000000D+00  0.0000000000000D+00  0.0000000000000D+00
199  1.9800000000000D+00  0.0000000000000D+00  0.0000000000000D+00
200  1.9900000000000D+00  0.0000000000000D+00  0.0000000000000D+00
201  2.0000000000000D+00  0.0000000000000D+00  0.0000000000000D+00
202  2.0100000000000D+00  0.0000000000000D+00  0.0000000000000D+00
203  2.0200000000000D+00  0.0000000000000D+00  0.0000000000000D+00
204  2.0300000000000D+00  0.0000000000000D+00  0.0000000000000D+00
205  2.0400000000000D+00  0.0000000000000D+00  0.0000000000000D+00
206  2.0500000000000D+00  0.0000000000000D+00  0.0000000000000D+00
207  2.0600000000000D+00  0.0000000000000D+00  0.0000000000000D+00
208  2.0700000000000D+00  0.0000000000000D+00  0.0000000000000D+00
209  2.0800000000000D+00  0.0000000000000D+00  0.0000000000000D+00
210  2.0900000000000D+00  0.0000000000000D+00  0.0000000000000D+00
211  2.1000000000000D+00  0.0000000000000D+00  0.0000000000000D+00
212  2.1100000000000D+00  0.0000000000000D+00  0.0000000000000D+00
213  2.1200000000000D+00  0.0000000000000D+00  0.0000000000000D+00
214  2.1300000000000D+00  0.0000000000000D+00  0.0000000000000D+00
215  2.1400000000000D+00  0.0000000000000D+00  0.0000000000000D+00
216  2.1500000000000D+00  0.0000000000000D+00  0.0000000000000D+00
217  2.1600000000000D+00  0.0000000000000D+00  0.0000000000000D+00
218  2.1700000000000D+00  0.0000000000000D+00  0.0000000000000D+00
219  2.1800000000000D+00  0.0000000000000D+00  0.0000000000000D+00
220  2.1900000000000D+00  0.0000000000000D+00  0.0000000000000D+00
221  2.2000000000000D+00  0.0000000000000D+00  0.0000000000000D+00
222  2.2100000000000D+00  0.0000000000000D+00  0.0000000000000D+00
223  2.2200000000000D+00  0.0000000000000D+00  0.0000000000000D+00
224  2.2300000000000D+00  0.0000000000000D+00  0.0000000000000D+00
225  2.2400000000000D+00  0.0000000000000D+00  0.0000000000000D+00
226  2.2500000000000D+00  0.0000000000000D+00  0.0000000000000D+00
227  2.2600000000000D+00  0.0000000000000D+00  0.0000000000000D+00
228  2.2700000000000D+00  0.0000000000000D+00  0.0000000000000D+00
229  2.2800000000000D+00  0.0000000000000D+00  0.0000000000000D+00
230  2.2900000000000D+00  0.0000000000000D+00  0.0000000000000D+00
231  2.3000000000000D+00  0.0000000000000D+00  0.0000000000000D+00
232  2.3100000000000D+00  0.0000000000000D+00  0.0000000000000D+00
233  2.3200000000000D+00  0.0000000000000D+00  0.0000000000000D+00
234  2.3300000000000D+00  0.0000000000000D+00  0.0000000000000D+00
235  2.3400000000000D+00  0.0000000000000D+00  0.0000000000000D+00
236  2.3500000000000D+00  0.0000000000000D+00  0.0000000000000D+00
237  2.3600000000000D+00  0.0000000000000D+00  0.0000000000000D+00
238  2.3700000000000D+00  0.0000000000000D+00  0.0000000000000D+00
239  2.3800000000000D+00  0.0000000000000D+00  0.0000000000000D+00
240  2.3900000000000D+00  0.0000000000000D+00  0.0000000000000D+00
241  2.4000000000000D+00  0.0000000000000D+00  0.0000000000000D+00
242  2.4100000000000D+00  0.0000000000000D+00  0.0000000000000D+00
243  2.4200000000000D+00  0.0000000000000D+00  0.0000000000000D+00
244  2.4300000000000D+00  0.0000000000000D+00  0.0000000000000D+00
245  2.4400000000000D+00  0.0000000000000D+00  0.0000000000000D+00
246  2.4500000000000D+00  0.0000000000000D+00  0.0000000000000D+00
247  2.4600000000000D+00  0.0000000000000D+00  0.0000000000000D+00
248  2.4700000000000D+00  0.0000000000000D+00  0.0000000000000D+00
249  2.4800000000000D+00  0.0000000000000D+00  0.0000000000000D+00
250  2.4900000000000D+00  0.0000000000000D+00  0.0000000000000D+00
251  2.5000000000000D+00  0.0000000000000D+00  0.0000000000000D+00
252  2.5100000000000D+00  0.0000000000000D+00  0.0000000000000D+00
253  2.5200000000000D+00  0.0000000000000D+00  0.0000000000000D+00
254  2.5300000000000D+00  0.0000000000000D+00  0.0000000000000D+00
255  2.5400000000000D+00  0.0000000000000D+00  0.0000000000000D+00
256  2.5500000000000D+00  0.0000000000000D+00  0.0000000000000D+00
257  2.5600000000000D+00  0.0000000000000D+00  0.0000000000000D+00
258  2.5700000000000D+00  0.0000000000000D+00  0.0000000000000D+00
259  2.5800000000000D+00  0.0000000000000D+00  0.0000000000000D+00
260  2.5900000000000D+00  0.0000000000000D+00  0.0000000000000D+00
261  2.6000000000000D+00  0.0000000000000D+00  0.0000000000000D+00
262  2.6100000000000D+00  0.0000000000000D+00  0.0000000000000D+00
263  2.6200000000000D+00  0.0000000000000D+00  0.0000000000000D+00
264  2.6300000000000D+00  0.0000000000000D+00  0.0000000000000D+00
265  2.6400000000000D+00  0.0000000000000D+00  0.0000000000000D+00
266  2.6500000000000D+00  0.0000000000000D+00  0.0000000000000D+00
267  2.6600000000000D+00  0.0000000000000D+00  0.0000000000000D+00
268  2.6700000000000D+00  0.0000000000000D+00  0.0000000000000D+00
269  2.6800000000000D+00  0.0000000000000D+00  0.0000000000000D+00
270  2.6900000000000D+00  0.0000000000000D+00  0.0000000000000D+00
271  2.7000000000000D+00  0.0000000000000D+00  0.0000000000000D+00
272  2.7100000000000D+00  0.0000000000000D+00  0.0000000000000D+00
273  2.7200000000000D+00  0.0000000000000D+00  0.0000000000000D+00
274  2.7300000000000D+00  0.0000000000000D+00  0.0000000000000D+00
275  2.7400000000000D+00  0.0000000000000D+00  0.0000000000000D+00
276  2.7500000000000D+00  0.0000000000000D+00  0.0000000000000D+00
277  2.7600000000000D+00  0.0000000000000D+00  0.0000000000000D+00
278  2.7700000000000D+00  0.0000000000000D+00  0.0000000000000D+00
279  2.7800000000000D+00  0.0000000000000D+00  0.0000000000000D+00
280  2.7900000000000D+00  0.0000000000000D+00  0.0000000000000D+00
281  2.8000000000000D+00  0.0000000000000D+00  0.0000000000000D+00
282  2.8100000000000D+00  0.0000000000000D+00  0.0000000000000D+00
283  2.8200000000000D+00  0.0000000000000D+00  0.0000000000000D+00
284  2.8300000000000D+00  0.0000000000000D+00  0.0000000000000D+00
285  2.8400000000000D+00  0.0000000000000D+00  0.0000000000000D+00
286  2.8500000000000D+00  0.0000000000000D+00  0.0000000000000D+00
287  2.8600000000000D+00  0.0000000000000D+00  0.0000000000000D+00
288  2.8700000000000D+00  0.0000000000000D+00  0.0000000000000D+00
289  2.8800000000000D+00  0.0000000000000D+00  0.0000000000000D+00
290  2.8900000000000D+00  0.0000000000000D+00  0.0000000000000D+00
291  2.9000000000000D+00  0.0000000000000D+00  0.0000000000000D+00
292  2.9100000000000D+00  0.0000000000000D+00  0.0000000000000D+00
293  2.9200000000000D+00  0.0000000000000D+00  0.0000000000000D+00
294  2.9300000000000D+00  0.0000000000000D+00  0.0000000000000D+00
295  2.9400000000000D+00  0.0000000000000D+00  0.0000000000000D+00
296  2.9500000000000D+00  0.0000000000000D+00  0.0000000000000D+00
297  2.9600000000000D+00  0.0000000000000D+00  0.0000000000000D+00
298  2.9700000000000D+00  0.0000000000000D+00  0.0000000000000D+00
299  2.9800000000000D+00  0.0000000000000D+00  0.0000000000000D+00
300  2.9900000000000D+00  0.0000000000000D+00  0.0000000000000D+00
301  3.0000000000000D+00  0.0000000000000D+00  0.0000000000000D+00
302  3.0100000000000D+00  0.0000000000000D+00  0.0000000000000D+00
303  3.0200000000000D+00  0.0000000000000D+00  0.0000000000000D+00
304  3.0300000000000D+00  0.0000000000000D+00  0.0000000000000D+00
305  3.0400000000000D+00  0.0000000000000D+00  0.0000000000000D+00
306  3.0500000000000D+00  0.0000000000000D+00  0.0000000000000D+00
307  3.0600000000000D+00  0.0000000000000D+00  0.0000000000000D+00
308  3.0700000000000D+00  0.0000000000000D+00  0.0000000000000D+00
309  3.0800000000000D+00  0.0000000000000D+00  0.0000000000000D+00
310  3.0900000000000D+00  0.0000000000000D+00  0.0000000000000D+00
311  3.1000000000000D+00  0.0000000000000D+00  0.0000000000000D+00
312  3.1100000000000D+00  0.0000000000000D+00  0.0000000000000D+00
313  3.1200000000000D+00  0.0000000000000D+00  0.0000000000000D+00
314  3.1300000000000D+00  0.0000000000000D+00  0.0000000000000D+00
315  3.1400000000000D+00  0.0000000000000D+00  0.0000000000000D+00
316  3.1500000000000D+00  0.0000000000000D+00  0.0000000000000D+00
317  3.1600000000000D+00  0.0000000000000D+00  0.0000000000000D+00
318  3.1700000000000D+00  0.0000000000000D+00  0.0000000000000D+00
319  3.1800000000000D+00  0.0000000000000D+00  0.0000000000000D+00
320  3.1900000000000D+00  0.0000000000000D+00  0.0000000000000D+00
321  3.2000000000000D+00  0.0000000000000D+00  0.0000000000000D+00
322  3.2100000000000D+00  0.0000000000000D+00  0.0000000000000D+00
323  3.2200000000000D+00  0.0000000000000D+00  0.0000000000000D+00
324  3.2300000000000D+00  0.0000000000000D+00  0.0000000000000D+00
325  3.2400000000000D+00  0.0000000000000D+00  0.0000000000000D+00
326  3.2500000000000D+00  0.0000000000000D+00  0.0000000000000D+00
327  3.2600000000000D+00  0.0000000000000D+00  0.0000000000000D+00
328  3.2700000000000D+00  0.0000000000000D+00  0.0000000000000D+00
329  3.2800000000000D+00  0.0000000000000D+00  0.0000000000000D+00
330  3.2900000000000D+00  0.0000000000000D+00  0.0000000000000D+00
331  3.3000000000000D+00  0.0000000000000D+00  0.0000000000000D+00
332  3.3100000000000D+00  0.0000000000000D+00  0.0000000000000D+00
333  3.3200000000000D+00  0.0000000000000D+00  0.0000000000000D+00
334  3.3300000000000D+00  0.0000000000000D+00  0.0000000000000D+00
335  3.3400000000000D+00  0.0000000000000D+00  0.0000000000000D+00
336  3.3500000000000D+00  0.0000000000000D+00  0.0000000000000D+00
337  3.3600000000000D+00  0.0000000000000D+00  0.0000000000000D+00
338  3.3700000000000D+00  0.0000000000000D+00  0.0000000000000D+00
339  3.3800000000000D+00  0.0000000000000D+00  0.0000000000000D+00
340  3.3900000000000D+00  0.0000000000000D+00  0.0000000000000D+00
341  3.4000000000000D+00  0.0000000000000D+00  0.0000000000000D+00
342  3.4100000000000D+00  0.0000000000000D+00  0.0000000000000D+00
343  3.4200000000000D+00  0.0000000000000D+00  0.0000000000000D+00
344  3.4300000000000D+00  0.0000000000000D+00  0.0000000000000D+00
345  3.4400000000000D+00  0.0000000000000D+00  0.0000000000000D+00
346  3.4500000000000D+00  0.0000000000000D+00  0.0000000000000D+00
347  3.4600000000000D+00  0.0000000000000D+00  0.0000000000000D+00
348  3.4700000000000D+00  0.0000000000000D+00  0.0000000000000D+00
349  3.4800000000000D+00  0.0000000000000D+00  0.0000000000000D+00
350  3.4900000000000D+00  0.0000000000000D+00  0.0000000000000D+00
351  3.5000000000000D+00  0.0000000000000D+00  0.0000000000000D+00
352  3.5100000000000D+00  0.0000000000000D+00  0.0000000000000D+00
353  3.5200000000000D+00  0.0000000000000D+00  0.0000000000000D+00
354  3.5300000000000D+00  0.0000000000000D+00  0.0000000000000D+00
355  3.5400000000000D+00  0.0000000000000D+00  0.0000000000000D+00
356  3.5500000000000D+00  0.0000000000000D+00  0.0000000000000D+00
357  3.5600000000000D+00  0.0000000000000D+00  0.0000000000000D+00
358  3.5700000000000D+00  0.0000000000000D+00  0.0000000000000D+00
359  3.5800000000000D+00  0.0000000000000D+00  0.0000000000000D+00
360  3.5900000000000D+00  0.0000000000000D+00  0.0000000000000D+00
361  3.6000000000000D+00  0.0000000000000D+00  0.0000000000000D+00
362  3.6100000000000D+00  0.0000000000000D+00  0.0000000000000D+00
363  3.6200000000000D+00  0.0000000000000D+00  0.0000000000000D+00
364  3.6300000000000D+00  0.0000000000000D+00  0.0000000000000D+00
365  3.6400000000000D+00  0.0000000000000D+00  0.0000000000000D+00
366  3.6500000000000D+00  0.0000000000000D+00  0.0000000000000D+00
367  3.6600000000000D+00  0.0000000000000D+00  0.0000000000000D+00
368  3.6700000000000D+00  0.0000000000000D+00  0.0000000000000D+00
369  3.6800000000000D+00  0.0000000000000D+00  0.0000000000000D+00
370  3.6900000000000D+00  0.0000000000000D+00  0.0000000000000D+00
371  3.7000000000000D+00  0.0000000000000D+00  0.0000000000000D+00
372  3.7100000000000D+00  0.0000000000000D+00  0.0000000000000D+00
373  3.7200000000000D+00  0.0000000000000D+00  0.0000000000000D+00
374  3.7300000000000D+00  0.0000000000000D+00  0.0000000000000D+00
375  3.7400000000000D+00  0.0000000000000D+00  0.0000000000000D+00
376  3.7500000000000D+00  0.0000000000000D+00  0.0000000000000D+00
377  3.7600000000000D+00  0.0000000000000D+00  0.0000000000000D+00
378  3.7700000000000D+00  0.0000000000000D+00  0.0000000000000D+00
379  3.7800000000000D+00  0.0000000000000D+00  0.0000000000000D+00
380  3.7900000000000D+00  0.0000000000000D+00  0.0000000000000D+00
381  3.8000000000000D+00  0.0000000000000D+00  0.0000000000000D+00
382  3.8100000000000D+00  0.0000000000000D+00  0.0000000000000D+00
383  3.8200000000000D+00  0.0000000000000D+00  0.0000000000000D+00
384  3.8300000000000D+00  0.0000000000000D+00  0.0000000000000D+00
385  3.8400000000000D+00  0.0000000000000D+00  0.0000000000000D+00
386  3.8500000000000D+00  0.0000000000000D+00  0.0000000000000D+00
387  3.8600000000000D+00  0.0000000000000D+00  0.0000000000000D+00
388  3.8700000000000D+00  0.0000000000000D+00  0.0000000000000D+00
389  3.8800000000000D+00  0.0000000000000D+00  0.0000000000000D+00
390  3.8900000000000D+00  0.0000000000000D+00  0.0000000000000D+00
391  3.9000000000000D+00  0.0000000000000D+00  0.0000000000000D+00
392  3.9100000000000D+00  0.0000000000000D+00  0.0000000000000D+00
393  3.9200000000000D+00  0.0000000000000D+00  0.0000000000000D+00
394  3.9300000000000D+00  0.0000000000000D+00  0.0000000000000D+00
395  3.9400000000000D+00  0.0000000000000D+00  0.0000000000000D+00
396  3.9500000000000D+00  0.0000000000000D+00  0.0000000000000D+00
397  3.9600000000000D+00  0.0000000000000D+00  0.0000000000000D+00
398  3.9700000000000D+00  0.0000000000000D+00  0.0000000000000D+00
399  3.9800000000000D+00  0.0000000000000D+00  0.0000000000000D+00
400  3.9900000000000D+00  0.0000000000000D+00  0.0000000000000D+00
401  4.0000000000000D+00  0.0000000000000D+00  0.0000000000000D+00
402  4.0100000000000D+00  0.0000000000000D+00  0.0000000000000D+00
403  4.0200000000000D+00  0.0000000000000D+00  0.0000000000000D+00
404  4.0300000000000D+00  0.0000000000000D+00  0.0000000000000D+00
405  4.0400000000000D+00  0.0000000000000D+00  0.0000000000000D+00
406  4.0500000000000D+00  0.0000000000000D+00  0.0000000000000D+00
407  4.0600000000000D+00  0.0000000000000D+00  0.0000000000000D+00
408  4.0700000000000D+00  0.0000000000000D+00  0.0000000000000D+00
409  4.0800000000000D+00  0.0000000000000D+00  0.0000000000000D+00
410  4.0900000000000D+00  0.0000000000000D+00  0.0000000000000D+00
411  4.1000000000000D+00  0.0000000000000D+00  0.0000000000000D+00
412  4.1100000000000D+00  0.0000000000000D+00  0.0000000000000D+00
413  4.1200000000000D+00  0.0000000000000D+00  0.0000000000000D+00
414  4.1300000000000D+00  0.0000000000000D+00  0.0000000000000D+00
415  4.1400000000000D+00  0.0000000000000D+00  0.0000000000000D+00
416  4.1500000000000D+00  0.0000000000000D+00  0.0000000000000D+00
417  4.1600000000000D+00  0.0000000000000D+00  0.0000000000000D+00
418  4.1700000000000D+00  0.0000000000000D+00  0.0000000000000D+00
419  4.1800000000000D+00  0.0000000000000D+00  0.0000000000000D+00
420  4.1900000000000D+00  0.0000000000000D+00  0.0000000000000D+00
421  4.2000000000000D+00  0.0000000000000D+00  0.0000000000000D+00
422  4.2100000000000D+00  0.0000000000000D+00  0.0000000000000D+00
423  4.2200000000000D+00  0.0000000000000D+00  0.0000000000000D+00
424  4.2300000000000D+00  0.0000000000000D+00  0.0000000000000D+00
425  4.2400000000000D+00  0.0000000000000D+00  0.0000000000000D+00
426  4.2500000000000D+00  0.0000000000000D+00  0.0000000000000D+00
427  4.2600000000000D+00  0.0000000000000D+00  0.0000000000000D+00
428  4.2700000000000D+00  0.0000000000000D+00  0.0000000000000D+00
429  4.2800000000000D+00  0.0000000000000D+00  0.0000000000000D+00
430  4.2900000000000D+00  0.0000000000000D+00  0.0000000000000D+00
431  4.3000000000000D+00  0.0000000000000D+00  0.0000000000000D+00
432  4.3100000000000D+00  0.0000000000000D+00  0.0000000000000D+00
433  4.3200000000000D+00  0.0000000000000D+00  0.0000000000000D+00
434  4.3300000000000D+00  0.0000000000000D+00  0.0000000000000D+00
435  4.3400000000000D+00  0.0000000000000D+00  0.0000000000000D+00
436  4.3500000000000D+00  0.0000000000000D+00  0.0000000000000D+00
437  4.3600000000000D+00  0.0000000000000D+00  0.0000000000000D+00
438  4.3700000000000D+00  0.0000000000000D+00  0.0000000000000D+00
439  4.3800000000000D+00  0.0000000000000D+00  0.0000000000000D+00
440  4.3900000000000D+00  0.0000000000000D+00  0.0000000000000D+00
441  4.4000000000000D+00  0.0000000000000D+00  0.0000000000000D+00
442  4.4100000000000D+00  0.0000000000000D+00  0.0000000000000D+00
443  4.4200000000000D+00  0.0000000000000D+00  0.0000000000000D+00