Rn    ONCVPSP-3.2.3  r_core=   2.20741   2.00650   1.80225
86.0000     18.0000      170222    zatom,zion,pspd
8      11   2     4   600     0    pspcod,pspxc,lmax,lloc,mmax,r2well
5.99000000  6.00000000  0.00000000    rchrg fchrg qchrg
2     4     4     0    nproj
3     1           extension_switch
4     4     0    nprojso
0                         1.4239783271950D+00  7.5545653117335D+00
1  0.0000000000000D+00 -1.0575651465672D-11  3.8881120545398D-12
2  1.0000000000000D-02  1.3656609568379D-02  1.4496456907604D-02
3  2.0000000000000D-02  2.7239034765047D-02  2.9018423444027D-02
4  3.0000000000000D-02  4.0673398482897D-02  4.3591289168372D-02
5  4.0000000000000D-02  5.3886437110650D-02  5.8240203882368D-02
6  5.0000000000000D-02  6.6805804699965D-02  7.2989958705855D-02
7  6.0000000000000D-02  7.9360374042967D-02  8.7864868294565D-02
8  7.0000000000000D-02  9.1480533642635D-02  1.0288865457646D-01
9  8.0000000000000D-02  1.0309847956903D-01  1.1808433237900D-01
10  9.0000000000000D-02  1.1414850120751D-01  1.3347409731488D-01
11  1.0000000000000D-01  1.2456725992085D-01  1.4907921628809D-01
12  1.1000000000000D-01  1.3429405966568D-01  1.6491992097531D-01
13  1.2000000000000D-01  1.4327110862442D-01  1.8101530463000D-01
14  1.3000000000000D-01  1.5144377093787D-01  1.9738322254806D-01
15  1.4000000000000D-01  1.5876080764938D-01  2.1404019652436D-01
16  1.5000000000000D-01  1.6517460600054D-01  2.3100132361889D-01
17  1.6000000000000D-01  1.7064139624955D-01  2.4828018954019D-01
18  1.7000000000000D-01  1.7512145521712D-01  2.6588878694136D-01
19  1.8000000000000D-01  1.7857929580102D-01  2.8383743891094D-01
20  1.9000000000000D-01  1.8098384173937D-01  3.0213472792698D-01
21  2.0000000000000D-01  1.8230858694339D-01  3.2078743052802D-01
22  2.1000000000000D-01  1.8253173876431D-01  3.3980045793906D-01
23  2.2000000000000D-01  1.8163634460450D-01  3.5917680287424D-01
24  2.3000000000000D-01  1.7961040133108D-01  3.7891749272106D-01
25  2.4000000000000D-01  1.7644694700043D-01  3.9902154929303D-01
26  2.5000000000000D-01  1.7214413445410D-01  4.1948595531925D-01
27  2.6000000000000D-01  1.6670528640112D-01  4.4030562782027D-01
28  2.7000000000000D-01  1.6013893165751D-01  4.6147339849991D-01
29  2.8000000000000D-01  1.5245882227206D-01  4.8298000126225D-01
30  2.9000000000000D-01  1.4368393132676D-01  5.0481406694244D-01
31  3.0000000000000D-01  1.3383843126159D-01  5.2696212531833D-01
32  3.1000000000000D-01  1.2295165263578D-01  5.4940861444840D-01
33  3.2000000000000D-01  1.1105802330157D-01  5.7213589735926D-01
34  3.3000000000000D-01  9.8196988031312D-02  5.9512428608336D-01
35  3.4000000000000D-01  8.4412908704583D-02  6.1835207302522D-01
36  3.5000000000000D-01  6.9754945228643D-02  6.4179556961083D-01
37  3.6000000000000D-01  5.4276917432541D-02  6.6542915215263D-01
38  3.7000000000000D-01  3.8037148242750D-02  6.8922531483839D-01
39  3.8000000000000D-01  2.1098288515835D-02  7.1315472972984D-01
40  3.9000000000000D-01  3.5271239711173D-03  7.3718631363320D-01
41  4.0000000000000D-01 -1.4605635266312D-02  7.6128730168102D-01
42  4.1000000000000D-01 -3.3225581935432D-02  7.8542332744171D-01
43  4.2000000000000D-01 -5.2254855078937D-02  8.0955850935068D-01
44  4.3000000000000D-01 -7.1612398945063D-02  8.3365554323469D-01
45  4.4000000000000D-01 -9.1214236580246D-02  8.5767580067926D-01
46  4.5000000000000D-01 -1.1097375727918D-01  8.8157943296751D-01
47  4.6000000000000D-01 -1.3080201699870D-01  9.0532548029842D-01
48  4.7000000000000D-01 -1.5060805078379D-01  9.2887198597203D-01
49  4.8000000000000D-01 -1.7029919619798D-01  9.5217611521002D-01
50  4.9000000000000D-01 -1.8978142669765D-01  9.7519427826161D-01
51  5.0000000000000D-01 -2.0895969383878D-01  9.9788225742691D-01
52  5.1000000000000D-01 -2.2773827715823D-01  1.0201953376134D+00
53  5.2000000000000D-01 -2.4602114052720D-01  1.0420884400259D+00
54  5.3000000000000D-01 -2.6371229373470D-01  1.0635162585747D+00
55  5.4000000000000D-01 -2.8071615802263D-01  1.0844333985754D+00
56  5.5000000000000D-01 -2.9693793426164D-01  1.1047945173000D+00
57  5.6000000000000D-01 -3.1228397242936D-01  1.1245544659290D+00
58  5.7000000000000D-01 -3.2666214102931D-01  1.1436684324453D+00
59  5.8000000000000D-01 -3.3998219507024D-01  1.1620920850015D+00
60  5.9000000000000D-01 -3.5215614121207D-01  1.1797817152885D+00
61  6.0000000000000D-01 -3.6309859867635D-01  1.1966943814254D+00
62  6.1000000000000D-01 -3.7272715451557D-01  1.2127880498894D+00
63  6.2000000000000D-01 -3.8096271183845D-01  1.2280217360036D+00
64  6.3000000000000D-01 -3.8772982959523D-01  1.2423556424981D+00
65  6.4000000000000D-01 -3.9295705254115D-01  1.2557512956645D+00
66  6.5000000000000D-01 -3.9657723001438D-01  1.2681716786255D+00
67  6.6000000000000D-01 -3.9852782219003D-01  1.2795813612484D+00
68  6.7000000000000D-01 -3.9875119250157D-01  1.2899466262364D+00
69  6.8000000000000D-01 -3.9719488495749D-01  1.2992355909413D+00
70  6.9000000000000D-01 -3.9381188512258D-01  1.3074183244534D+00
71  7.0000000000000D-01 -3.8856086358031D-01  1.3144669595338D+00
72  7.1000000000000D-01 -3.8140640074608D-01  1.3203557989699D+00
73  7.2000000000000D-01 -3.7231919195888D-01  1.3250614159516D+00
74  7.3000000000000D-01 -3.6127623184281D-01  1.3285627480804D+00
75  7.4000000000000D-01 -3.4826097699821D-01  1.3308411846451D+00
76  7.5000000000000D-01 -3.3326348615578D-01  1.3318806468179D+00
77  7.6000000000000D-01 -3.1628053700527D-01  1.3316676604439D+00
78  7.7000000000000D-01 -2.9731571899290D-01  1.3301914211259D+00
79  7.8000000000000D-01 -2.7637950146824D-01  1.3274438513256D+00
80  7.9000000000000D-01 -2.5348927665219D-01  1.3234196492318D+00
81  8.0000000000000D-01 -2.2866937699136D-01  1.3181163291731D+00
82  8.1000000000000D-01 -2.0195106656189D-01  1.3115342533798D+00
83  8.2000000000000D-01 -1.7337250628528D-01  1.3036766549303D+00
84  8.3000000000000D-01 -1.4297869282177D-01  1.2945496517470D+00
85  8.4000000000000D-01 -1.1082137111069D-01  1.2841622515382D+00
86  8.5000000000000D-01 -7.6958920633965D-02  1.2725263476144D+00
87  8.6000000000000D-01 -4.1456215585061D-02  1.2596567055389D+00
88  8.7000000000000D-01 -4.3844592345202D-03  1.2455709406065D+00
89  8.8000000000000D-01  3.4179007109622D-02  1.2302894861767D+00
90  8.9000000000000D-01  7.4150920040006D-02  1.2138355529214D+00
91  9.0000000000000D-01  1.1544233427366D-01  1.1962350790792D+00
92  9.1000000000000D-01  1.5795888644210D-01  1.1775166718435D+00
93  9.2000000000000D-01  2.0160108162514D-01  1.1577115400444D+00
94  9.3000000000000D-01  2.4626460170382D-01  1.1368534183137D+00
95  9.4000000000000D-01  2.9184063450883D-01  1.1149784829612D+00
96  9.5000000000000D-01  3.3821622264537D-01  1.0921252598136D+00
97  9.6000000000000D-01  3.8527463078300D-01  1.0683345243065D+00
98  9.7000000000000D-01  4.3289573011120D-01  1.0436491941425D+00
99  9.8000000000000D-01  4.8095639857827D-01  1.0181142148627D+00
100  9.9000000000000D-01  5.2933093545229D-01  9.9177643870346D-01
101  1.0000000000000D+00  5.7789148867095D-01  9.6468449713731D-01
102  1.0100000000000D+00  6.2650849337980D-01  9.3688866752301D-01
103  1.0200000000000D+00  6.7505111999678D-01  9.0844073431134D-01
104  1.0300000000000D+00  7.2338773008823D-01  8.7939384527666D-01
105  1.0400000000000D+00  7.7138633829328D-01  8.4980236326340D-01
106  1.0500000000000D+00  8.1891507849374D-01  8.1972171395544D-01
107  1.0600000000000D+00  8.6584267239456D-01  7.8920823019227D-01
108  1.0700000000000D+00  9.1203889865439D-01  7.5831899337029D-01
109  1.0800000000000D+00  9.5737506068863D-01  7.2711167248048D-01
110  1.0900000000000D+00  1.0017244512587D+00  6.9564436134297D-01
111  1.1000000000000D+00  1.0449628119615D+00  6.6397541460779D-01
112  1.1100000000000D+00  1.0869687857388D+00  6.3216328309609D-01
113  1.1200000000000D+00  1.1276243605421D+00  6.0026634906053D-01
114  1.1300000000000D+00  1.1668153023137D+00  5.6834276194419D-01
115  1.1400000000000D+00  1.2044315754789D+00  5.3645027521625D-01
116  1.1500000000000D+00  1.2403677491803D+00  5.0464608485939D-01
117  1.1600000000000D+00  1.2745233875342D+00  4.7298667007896D-01
118  1.1700000000000D+00  1.3068034222496D+00  4.4152763679512D-01
119  1.1800000000000D+00  1.3371185060195D+00  4.1032356446754D-01
120  1.1900000000000D+00  1.3653853451447D+00  3.7942785679439D-01
121  1.2000000000000D+00  1.3915270099514D+00  3.4889259680853D-01
122  1.2100000000000D+00  1.4154732216447D+00  3.1876840687757D-01
123  1.2200000000000D+00  1.4371606143334D+00  2.8910431409605D-01
124  1.2300000000000D+00  1.4565329710330D+00  2.5994762154282D-01
125  1.2400000000000D+00  1.4735414326061D+00  2.3134378584428D-01
126  1.2500000000000D+00  1.4881446786966D+00  2.0333630146091D-01
127  1.2600000000000D+00  1.5003090797621D+00  1.7596659210579D-01
128  1.2700000000000D+00  1.5100088195286D+00  1.4927390965137D-01
129  1.2800000000000D+00  1.5172259872900D+00  1.2329524085739D-01
130  1.2900000000000D+00  1.5219506394864D+00  9.8065222250325D-02
131  1.3000000000000D+00  1.5241808303001D+00  7.3616063410776D-02
132  1.3100000000000D+00  1.5239226110595D+00  4.9977478909968D-02
133  1.3200000000000D+00  1.5211899982643D+00  2.7176629132691D-02
134  1.3300000000000D+00  1.5160049104003D+00  5.2380701323751D-03
135  1.3400000000000D+00  1.5083970736867D+00 -1.5816287331805D-02
136  1.3500000000000D+00  1.4984038969959D+00 -3.5967209448612D-02
137  1.3600000000000D+00  1.4860703165331D+00 -5.5198161668255D-02
138  1.3700000000000D+00  1.4714486107298D+00 -7.3495321608725D-02
139  1.3800000000000D+00  1.4545981860727D+00 -9.0847582559823D-02
140  1.3900000000000D+00  1.4355853348204D+00 -1.0724654766007D-01
141  1.4000000000000D+00  1.4144829653243D+00 -1.2268651475050D-01
142  1.4100000000000D+00  1.3913703062520D+00 -1.3716445208089D-01
143  1.4200000000000D+00  1.3663325857650D+00 -1.5067996497523D-01
144  1.4300000000000D+00  1.3394606869055D+00 -1.6323525361771D-01
145  1.4400000000000D+00  1.3108507807525D+00 -1.7483506222793D-01
146  1.4500000000000D+00  1.2806039385670D+00 -1.8548661977444D-01
147  1.4600000000000D+00  1.2488257247547D+00 -1.9519957258557D-01
148  1.4700000000000D+00  1.2156257721204D+00 -2.0398590909663D-01
149  1.4800000000000D+00  1.1811173411998D+00 -2.1185987707565D-01
150  1.4900000000000D+00  1.1454168655064D+00 -2.1883789370830D-01
151  1.5000000000000D+00  1.1086434844136D+00 -2.2493844885352D-01
152  1.5100000000000D+00  1.0709185657393D+00 -2.3018200195776D-01
153  1.5200000000000D+00  1.0323652198001D+00 -2.3459087295333D-01
154  1.5300000000000D+00  9.9310780704702D-01 -2.3818912766384D-01
155  1.5400000000000D+00  9.5327144117242D-01 -2.4100245811109D-01
156  1.5500000000000D+00  9.1298148976693D-01 -2.4305805823091D-01
157  1.5600000000000D+00  8.7236307447064D-01 -2.4438449546687D-01
158  1.5700000000000D+00  8.3154057271028D-01 -2.4501157873519D-01
159  1.5800000000000D+00  7.9063712287962D-01 -2.4497022327452D-01
160  1.5900000000000D+00  7.4977413514117D-01 -2.4429231287679D-01
161  1.6000000000000D+00  7.0907080947624D-01 -2.4301056002186D-01
162  1.6100000000000D+00  6.6864366330457D-01 -2.4115836443328D-01
163  1.6200000000000D+00  6.2860606997791D-01 -2.3876967055399D-01
164  1.6300000000000D+00  5.8906781058213D-01 -2.3587882449051D-01
165  1.6400000000000D+00  5.5013464005066D-01 -2.3252043088212D-01
166  1.6500000000000D+00  5.1190787001359D-01 -2.2872921026761D-01
167  1.6600000000000D+00  4.7448396914253D-01 -2.2453985735998D-01
168  1.6700000000000D+00  4.3795418332487D-01 -2.1998690081297D-01
169  1.6800000000000D+00  4.0240417616880D-01 -2.1510456483854D-01
170  1.6900000000000D+00  3.6791369207459D-01 -2.0992663326422D-01
171  1.7000000000000D+00  3.3455624205396D-01 -2.0448631632647D-01
172  1.7100000000000D+00  3.0239881447115D-01 -1.9881612079615D-01
173  1.7200000000000D+00  2.7150161047286D-01 -1.9294772364991D-01
174  1.7300000000000D+00  2.4191780629757D-01 -1.8691184990309D-01
175  1.7400000000000D+00  2.1369334096324D-01 -1.8073815451626D-01
176  1.7500000000000D+00  1.8686673194708D-01 -1.7445510910994D-01
177  1.7600000000000D+00  1.6146893462547D-01 -1.6808989794682D-01
178  1.7700000000000D+00  1.3752314903690D-01 -1.6166829753377D-01
179  1.7800000000000D+00  1.1504490622921D-01 -1.5521463056001D-01
180  1.7900000000000D+00  9.4041830118771D-02 -1.4875162596730D-01
181  1.8000000000000D+00  7.4513242552718D-02 -1.4230024614860D-01
182  1.8100000000000D+00  5.6451028418889D-02 -1.3587983681708D-01
183  1.8200000000000D+00  3.9840277307001D-02 -1.2950821307014D-01
184  1.8300000000000D+00  2.4659967242528D-02 -1.2320178862886D-01
185  1.8400000000000D+00  1.0884014563943D-02 -1.1697580400133D-01
186  1.8500000000000D+00 -1.5183579702723D-03 -1.1084437811789D-01
187  1.8600000000000D+00 -1.2582648026976D-02 -1.0482046340784D-01
188  1.8700000000000D+00 -2.2348851491992D-02 -9.8915864870830D-02
189  1.8800000000000D+00 -3.0861081201580D-02 -9.3141294595547D-02
190  1.8900000000000D+00 -3.8167340065985D-02 -8.7506389981578D-02
191  1.9000000000000D+00 -4.4319199747838D-02 -8.2019754916222D-02
192  1.9100000000000D+00 -4.9371494535325D-02 -7.6688997240972D-02
193  1.9200000000000D+00 -5.3381997731726D-02 -7.1520770687784D-02
194  1.9300000000000D+00 -5.6411088861797D-02 -6.6520819331017D-02
195  1.9400000000000D+00 -5.8521412017267D-02 -6.1694024568277D-02
196  1.9500000000000D+00 -5.9777527463265D-02 -5.7044454184087D-02
197  1.9600000000000D+00 -6.0245558027857D-02 -5.2575413216767D-02
198  1.9700000000000D+00 -5.9992831625757D-02 -4.8289496393534D-02
199  1.9800000000000D+00 -5.9087521866835D-02 -4.4188641697348D-02
200  1.9900000000000D+00 -5.7598288212176D-02 -4.0274184861959D-02
201  2.0000000000000D+00 -5.5593917175532D-02 -3.6546914414496D-02
202  2.0100000000000D+00 -5.3142966614861D-02 -3.3007126931612D-02
203  2.0200000000000D+00 -5.0313414260044D-02 -2.9654682240784D-02
204  2.0300000000000D+00 -4.7172312202630D-02 -2.6489058227689D-02
205  2.0400000000000D+00 -4.3785449520034D-02 -2.3509404840513D-02
206  2.0500000000000D+00 -4.0217022933848D-02 -2.0714597259454D-02
207  2.0600000000000D+00 -3.6529319471192D-02 -1.8103287490183D-02
208  2.0700000000000D+00 -3.2782409959023D-02 -1.5673954564810D-02
209  2.0800000000000D+00 -2.9033856441716D-02 -1.3424952749663D-02
210  2.0900000000000D+00 -2.5338434934840D-02 -1.1354557470541D-02
211  2.1000000000000D+00 -2.1747872323770D-02 -9.4610091736565D-03
212  2.1100000000000D+00 -1.8310603028013D-02 -7.7425540068844D-03
213  2.1200000000000D+00 -1.5071541589599D-02 -6.1974820721041D-03
214  2.1300000000000D+00 -1.2071951455698D-02 -4.8241818852379D-03
215  2.1400000000000D+00 -9.3522417700714D-03 -3.6219404740192D-03
216  2.1500000000000D+00 -6.9382576619507D-03 -2.5874823758346D-03
217  2.1600000000000D+00 -4.8499405228798D-03 -1.7179384033601D-03
218  2.1700000000000D+00 -3.1258996248373D-03 -1.0152122727747D-03
219  2.1800000000000D+00 -1.8185167553814D-03 -4.8495509947737D-04
220  2.1900000000000D+00 -9.6371101877997D-04 -1.2631533276379D-04
221  2.2000000000000D+00 -4.6737798313653D-04  7.3236990181537D-05
222  2.2100000000000D+00 -2.0811098389974D-04  1.3581014220573D-04
223  2.2200000000000D+00 -7.0616124836058D-05  9.7995432787854D-05
224  2.2300000000000D+00 -1.1012589911076D-05  2.5832002755262D-05
225  2.2400000000000D+00  5.5590095620968D-06 -1.7927323954176D-05
226  2.2500000000000D+00  4.0363740787364D-06 -2.0136192567357D-05
227  2.2600000000000D+00  1.9615931487410D-07 -1.5342626121482D-06
228  2.2700000000000D+00 -2.1788312118568D-06  4.4387682873493D-06
229  2.2800000000000D+00 -1.5655173042677D-06  3.5245748367695D-06
230  2.2900000000000D+00  2.1377751877686D-07 -1.0779236914459D-07
231  2.3000000000000D+00  7.4286777766490D-07 -3.7457389427025D-07
232  2.3100000000000D+00  4.0166084218137D-07 -2.0252818920840D-07
233  2.3200000000000D+00  0.0000000000000D+00  0.0000000000000D+00
234  2.3300000000000D+00  0.0000000000000D+00  0.0000000000000D+00
235  2.3400000000000D+00  0.0000000000000D+00  0.0000000000000D+00
236  2.3500000000000D+00  0.0000000000000D+00  0.0000000000000D+00
237  2.3600000000000D+00  0.0000000000000D+00  0.0000000000000D+00
238  2.3700000000000D+00  0.0000000000000D+00  0.0000000000000D+00
239  2.3800000000000D+00  0.0000000000000D+00  0.0000000000000D+00
240  2.3900000000000D+00  0.0000000000000D+00  0.0000000000000D+00
241  2.4000000000000D+00  0.0000000000000D+00  0.0000000000000D+00
242  2.4100000000000D+00  0.0000000000000D+00  0.0000000000000D+00
243  2.4200000000000D+00  0.0000000000000D+00  0.0000000000000D+00
244  2.4300000000000D+00  0.0000000000000D+00  0.0000000000000D+00
245  2.4400000000000D+00  0.0000000000000D+00  0.0000000000000D+00
246  2.4500000000000D+00  0.0000000000000D+00  0.0000000000000D+00
247  2.4600000000000D+00  0.0000000000000D+00  0.0000000000000D+00
248  2.4700000000000D+00  0.0000000000000D+00  0.0000000000000D+00
249  2.4800000000000D+00  0.0000000000000D+00  0.0000000000000D+00
250  2.4900000000000D+00  0.0000000000000D+00  0.0000000000000D+00
251  2.5000000000000D+00  0.0000000000000D+00  0.0000000000000D+00
252  2.5100000000000D+00  0.0000000000000D+00  0.0000000000000D+00
253  2.5200000000000D+00  0.0000000000000D+00  0.0000000000000D+00
254  2.5300000000000D+00  0.0000000000000D+00  0.0000000000000D+00
255  2.5400000000000D+00  0.0000000000000D+00  0.0000000000000D+00
256  2.5500000000000D+00  0.0000000000000D+00  0.0000000000000D+00
257  2.5600000000000D+00  0.0000000000000D+00  0.0000000000000D+00
258  2.5700000000000D+00  0.0000000000000D+00  0.0000000000000D+00
259  2.5800000000000D+00  0.0000000000000D+00  0.0000000000000D+00
260  2.5900000000000D+00  0.0000000000000D+00  0.0000000000000D+00
261  2.6000000000000D+00  0.0000000000000D+00  0.0000000000000D+00
262  2.6100000000000D+00  0.0000000000000D+00  0.0000000000000D+00
263  2.6200000000000D+00  0.0000000000000D+00  0.0000000000000D+00
264  2.6300000000000D+00  0.0000000000000D+00  0.0000000000000D+00
265  2.6400000000000D+00  0.0000000000000D+00  0.0000000000000D+00
266  2.6500000000000D+00  0.0000000000000D+00  0.0000000000000D+00
267  2.6600000000000D+00  0.0000000000000D+00  0.0000000000000D+00
268  2.6700000000000D+00  0.0000000000000D+00  0.0000000000000D+00
269  2.6800000000000D+00  0.0000000000000D+00  0.0000000000000D+00
270  2.6900000000000D+00  0.0000000000000D+00  0.0000000000000D+00
271  2.7000000000000D+00  0.0000000000000D+00  0.0000000000000D+00
272  2.7100000000000D+00  0.0000000000000D+00  0.0000000000000D+00
273  2.7200000000000D+00  0.0000000000000D+00  0.0000000000000D+00
274  2.7300000000000D+00  0.0000000000000D+00  0.0000000000000D+00
275  2.7400000000000D+00  0.0000000000000D+00  0.0000000000000D+00
276  2.7500000000000D+00  0.0000000000000D+00  0.0000000000000D+00
277  2.7600000000000D+00  0.0000000000000D+00  0.0000000000000D+00
278  2.7700000000000D+00  0.0000000000000D+00  0.0000000000000D+00
279  2.7800000000000D+00  0.0000000000000D+00  0.0000000000000D+00
280  2.7900000000000D+00  0.0000000000000D+00  0.0000000000000D+00
281  2.8000000000000D+00  0.0000000000000D+00  0.0000000000000D+00
282  2.8100000000000D+00  0.0000000000000D+00  0.0000000000000D+00
283  2.8200000000000D+00  0.0000000000000D+00  0.0000000000000D+00
284  2.8300000000000D+00  0.0000000000000D+00  0.0000000000000D+00
285  2.8400000000000D+00  0.0000000000000D+00  0.0000000000000D+00
286  2.8500000000000D+00  0.0000000000000D+00  0.0000000000000D+00
287  2.8600000000000D+00  0.0000000000000D+00  0.0000000000000D+00
288  2.8700000000000D+00  0.0000000000000D+00  0.0000000000000D+00
289  2.8800000000000D+00  0.0000000000000D+00  0.0000000000000D+00
290  2.8900000000000D+00  0.0000000000000D+00  0.0000000000000D+00
291  2.9000000000000D+00  0.0000000000000D+00  0.0000000000000D+00
292  2.9100000000000D+00  0.0000000000000D+00  0.0000000000000D+00
293  2.9200000000000D+00  0.0000000000000D+00  0.0000000000000D+00
294  2.9300000000000D+00  0.0000000000000D+00  0.0000000000000D+00
295  2.9400000000000D+00  0.0000000000000D+00  0.0000000000000D+00
296  2.9500000000000D+00  0.0000000000000D+00  0.0000000000000D+00
297  2.9600000000000D+00  0.0000000000000D+00  0.0000000000000D+00
298  2.9700000000000D+00  0.0000000000000D+00  0.0000000000000D+00
299  2.9800000000000D+00  0.0000000000000D+00  0.0000000000000D+00
300  2.9900000000000D+00  0.0000000000000D+00  0.0000000000000D+00
301  3.0000000000000D+00  0.0000000000000D+00  0.0000000000000D+00
302  3.0100000000000D+00  0.0000000000000D+00  0.0000000000000D+00
303  3.0200000000000D+00  0.0000000000000D+00  0.0000000000000D+00
304  3.0300000000000D+00  0.0000000000000D+00  0.0000000000000D+00
305  3.0400000000000D+00  0.0000000000000D+00  0.0000000000000D+00
306  3.0500000000000D+00  0.0000000000000D+00  0.0000000000000D+00
307  3.0600000000000D+00  0.0000000000000D+00  0.0000000000000D+00
308  3.0700000000000D+00  0.0000000000000D+00  0.0000000000000D+00
309  3.0800000000000D+00  0.0000000000000D+00  0.0000000000000D+00
310  3.0900000000000D+00  0.0000000000000D+00  0.0000000000000D+00
311  3.1000000000000D+00  0.0000000000000D+00  0.0000000000000D+00
312  3.1100000000000D+00  0.0000000000000D+00  0.0000000000000D+00
313  3.1200000000000D+00  0.0000000000000D+00  0.0000000000000D+00
314  3.1300000000000D+00  0.0000000000000D+00  0.0000000000000D+00
315  3.1400000000000D+00  0.0000000000000D+00  0.0000000000000D+00
316  3.1500000000000D+00  0.0000000000000D+00  0.0000000000000D+00
317  3.1600000000000D+00  0.0000000000000D+00  0.0000000000000D+00
318  3.1700000000000D+00  0.0000000000000D+00  0.0000000000000D+00
319  3.1800000000000D+00  0.0000000000000D+00  0.0000000000000D+00
320  3.1900000000000D+00  0.0000000000000D+00  0.0000000000000D+00
321  3.2000000000000D+00  0.0000000000000D+00  0.0000000000000D+00
322  3.2100000000000D+00  0.0000000000000D+00  0.0000000000000D+00
323  3.2200000000000D+00  0.0000000000000D+00  0.0000000000000D+00
324  3.2300000000000D+00  0.0000000000000D+00  0.0000000000000D+00
325  3.2400000000000D+00  0.0000000000000D+00  0.0000000000000D+00
326  3.2500000000000D+00  0.0000000000000D+00  0.0000000000000D+00
327  3.2600000000000D+00  0.0000000000000D+00  0.0000000000000D+00
328  3.2700000000000D+00  0.0000000000000D+00  0.0000000000000D+00
329  3.2800000000000D+00  0.0000000000000D+00  0.0000000000000D+00
330  3.2900000000000D+00  0.0000000000000D+00  0.0000000000000D+00
331  3.3000000000000D+00  0.0000000000000D+00  0.0000000000000D+00
332  3.3100000000000D+00  0.0000000000000D+00  0.0000000000000D+00
333  3.3200000000000D+00  0.0000000000000D+00  0.0000000000000D+00
334  3.3300000000000D+00  0.0000000000000D+00  0.0000000000000D+00
335  3.3400000000000D+00  0.0000000000000D+00  0.0000000000000D+00
336  3.3500000000000D+00  0.0000000000000D+00  0.0000000000000D+00
337  3.3600000000000D+00  0.0000000000000D+00  0.0000000000000D+00
338  3.3700000000000D+00  0.0000000000000D+00  0.0000000000000D+00
339  3.3800000000000D+00  0.0000000000000D+00  0.0000000000000D+00
340  3.3900000000000D+00  0.0000000000000D+00  0.0000000000000D+00
341  3.4000000000000D+00  0.0000000000000D+00  0.0000000000000D+00
342  3.4100000000000D+00  0.0000000000000D+00  0.0000000000000D+00
343  3.4200000000000D+00  0.0000000000000D+00  0.0000000000000D+00
344  3.4300000000000D+00  0.0000000000000D+00  0.0000000000000D+00
345  3.4400000000000D+00  0.0000000000000D+00  0.0000000000000D+00
346  3.4500000000000D+00  0.0000000000000D+00  0.0000000000000D+00
347  3.4600000000000D+00  0.0000000000000D+00  0.0000000000000D+00
348  3.4700000000000D+00  0.0000000000000D+00  0.0000000000000D+00
349  3.4800000000000D+00  0.0000000000000D+00  0.0000000000000D+00
350  3.4900000000000D+00  0.0000000000000D+00  0.0000000000000D+00
351  3.5000000000000D+00  0.0000000000000D+00  0.0000000000000D+00
352  3.5100000000000D+00  0.0000000000000D+00  0.0000000000000D+00
353  3.5200000000000D+00  0.0000000000000D+00  0.0000000000000D+00
354  3.5300000000000D+00  0.0000000000000D+00  0.0000000000000D+00
355  3.5400000000000D+00  0.0000000000000D+00  0.0000000000000D+00
356  3.5500000000000D+00  0.0000000000000D+00  0.0000000000000D+00
357  3.5600000000000D+00  0.0000000000000D+00  0.0000000000000D+00
358  3.5700000000000D+00  0.0000000000000D+00  0.0000000000000D+00
359  3.5800000000000D+00  0.0000000000000D+00  0.0000000000000D+00
360  3.5900000000000D+00  0.0000000000000D+00  0.0000000000000D+00
361  3.6000000000000D+00  0.0000000000000D+00  0.0000000000000D+00
362  3.6100000000000D+00  0.0000000000000D+00  0.0000000000000D+00
363  3.6200000000000D+00  0.0000000000000D+00  0.0000000000000D+00
364  3.6300000000000D+00  0.0000000000000D+00  0.0000000000000D+00
365  3.6400000000000D+00  0.0000000000000D+00  0.0000000000000D+00
366  3.6500000000000D+00  0.0000000000000D+00  0.0000000000000D+00
367  3.6600000000000D+00  0.0000000000000D+00  0.0000000000000D+00
368  3.6700000000000D+00  0.0000000000000D+00  0.0000000000000D+00
369  3.6800000000000D+00  0.0000000000000D+00  0.0000000000000D+00
370  3.6900000000000D+00  0.0000000000000D+00  0.0000000000000D+00
371  3.7000000000000D+00  0.0000000000000D+00  0.0000000000000D+00
372  3.7100000000000D+00  0.0000000000000D+00  0.0000000000000D+00
373  3.7200000000000D+00  0.0000000000000D+00  0.0000000000000D+00
374  3.7300000000000D+00  0.0000000000000D+00  0.0000000000000D+00
375  3.7400000000000D+00  0.0000000000000D+00  0.0000000000000D+00
376  3.7500000000000D+00  0.0000000000000D+00  0.0000000000000D+00
377  3.7600000000000D+00  0.0000000000000D+00  0.0000000000000D+00
378  3.7700000000000D+00  0.0000000000000D+00  0.0000000000000D+00
379  3.7800000000000D+00  0.0000000000000D+00  0.0000000000000D+00
380  3.7900000000000D+00  0.0000000000000D+00  0.0000000000000D+00
381  3.8000000000000D+00  0.0000000000000D+00  0.0000000000000D+00
382  3.8100000000000D+00  0.0000000000000D+00  0.0000000000000D+00
383  3.8200000000000D+00  0.0000000000000D+00  0.0000000000000D+00
384  3.8300000000000D+00  0.0000000000000D+00  0.0000000000000D+00
385  3.8400000000000D+00  0.0000000000000D+00  0.0000000000000D+00
386  3.8500000000000D+00  0.0000000000000D+00  0.0000000000000D+00
387  3.8600000000000D+00  0.0000000000000D+00  0.0000000000000D+00
388  3.8700000000000D+00  0.0000000000000D+00  0.0000000000000D+00
389  3.8800000000000D+00  0.0000000000000D+00  0.0000000000000D+00
390  3.8900000000000D+00  0.0000000000000D+00  0.0000000000000D+00
391  3.9000000000000D+00  0.0000000000000D+00  0.0000000000000D+00
392  3.9100000000000D+00  0.0000000000000D+00  0.0000000000000D+00
393  3.9200000000000D+00  0.0000000000000D+00  0.0000000000000D+00
394  3.9300000000000D+00  0.0000000000000D+00  0.0000000000000D+00
395  3.9400000000000D+00  0.0000000000000D+00  0.0000000000000D+00
396  3.9500000000000D+00  0.0000000000000D+00  0.0000000000000D+00
397  3.9600000000000D+00  0.0000000000000D+00  0.0000000000000D+00
398  3.9700000000000D+00  0.0000000000000D+00  0.0000000000000D+00
399  3.9800000000000D+00  0.0000000000000D+00  0.0000000000000D+00
400  3.9900000000000D+00  0.0000000000000D+00  0.0000000000000D+00
401  4.0000000000000D+00  0.0000000000000D+00  0.0000000000000D+00
402  4.0100000000000D+00  0.0000000000000D+00  0.0000000000000D+00
403  4.0200000000000D+00  0.0000000000000D+00  0.0000000000000D+00
404  4.0300000000000D+00  0.0000000000000D+00  0.0000000000000D+00
405  4.0400000000000D+00  0.0000000000000D+00  0.0000000000000D+00
406  4.0500000000000D+00  0.0000000000000D+00  0.0000000000000D+00
407  4.0600000000000D+00  0.0000000000000D+00  0.0000000000000D+00
408  4.0700000000000D+00  0.0000000000000D+00  0.0000000000000D+00
409  4.0800000000000D+00  0.0000000000000D+00  0.0000000000000D+00
410  4.0900000000000D+00  0.0000000000000D+00  0.0000000000000D+00
411  4.1000000000000D+00  0.0000000000000D+00  0.0000000000000D+00
412  4.1100000000000D+00  0.0000000000000D+00  0.0000000000000D+00
413  4.1200000000000D+00  0.0000000000000D+00  0.0000000000000D+00
414  4.1300000000000D+00  0.0000000000000D+00  0.0000000000000D+00
415  4.1400000000000D+00  0.0000000000000D+00  0.0000000000000D+00
416  4.1500000000000D+00  0.0000000000000D+00  0.0000000000000D+00
417  4.1600000000000D+00  0.0000000000000D+00  0.0000000000000D+00
418  4.1700000000000D+00  0.0000000000000D+00  0.0000000000000D+00
419  4.1800000000000D+00  0.0000000000000D+00  0.0000000000000D+00
420  4.1900000000000D+00  0.0000000000000D+00  0.0000000000000D+00
421  4.2000000000000D+00  0.0000000000000D+00  0.0000000000000D+00
422  4.2100000000000D+00  0.0000000000000D+00  0.0000000000000D+00
423  4.2200000000000D+00  0.0000000000000D+00  0.0000000000000D+00
424  4.2300000000000D+00  0.0000000000000D+00  0.0000000000000D+00
425  4.2400000000000D+00  0.0000000000000D+00  0.0000000000000D+00
426  4.2500000000000D+00  0.0000000000000D+00  0.0000000000000D+00
427  4.2600000000000D+00  0.0000000000000D+00  0.0000000000000D+00
428  4.2700000000000D+00  0.0000000000000D+00  0.0000000000000D+00
429  4.2800000000000D+00  0.0000000000000D+00  0.0000000000000D+00
430  4.2900000000000D+00  0.0000000000000D+00  0.0000000000000D+00
431  4.3000000000000D+00  0.0000000000000D+00  0.0000000000000D+00
432  4.3100000000000D+00  0.0000000000000D+00  0.0000000000000D+00
433  4.3200000000000D+00  0.0000000000000D+00  0.0000000000000D+00
434  4.3300000000000D+00  0.0000000000000D+00  0.0000000000000D+00
435  4.3400000000000D+00  0.0000000000000D+00  0.0000000000000D+00
436  4.3500000000000D+00  0.0000000000000D+00  0.0000000000000D+00
437  4.3600000000000D+00  0.0000000000000D+00  0.0000000000000D+00
438  4.3700000000000D+00  0.0000000000000D+00  0.0000000000000D+00
439  4.3800000000000D+00  0.0000000000000D+00  0.0000000000000D+00
440  4.3900000000000D+00  0.0000000000000D+00  0.0000000000000D+00
441  4.4000000000000D+00  0.0000000000000D+00  0.0000000000000D+00
442  4.4100000000000D+00  0.0000000000000D+00  0.0000000000000D+00
443  4.4200000000000D+00  0.0000000000000D+00  0.0000000000000D+00