Pb    ONCVPSP  r_core=  2.32  2.61  2.10
82.0000     14.0000      150909    zatom,zion,pspd
8   -1013   2     4   600     0    pspcod,pspxc,lmax,lloc,mmax,r2well
5.99000000  6.00000000  0.00000000    rchrg fchrg qchrg
2     2     2     0     0    nproj
1                 extension_switch
0                         5.1106000545165D+00  6.4690511993652D-01
1  0.0000000000000D+00  7.6641470947436D-13 -7.4421580009698D-12
2  1.0000000000000D-02  1.4570724855682D-02  6.3561048938933D-03
3  2.0000000000000D-02  2.9149864948274D-02  1.2663704159993D-02
4  3.0000000000000D-02  4.3745798971508D-02  1.8874481834439D-02
5  4.0000000000000D-02  5.8366832621750D-02  2.4940500659702D-02
6  5.0000000000000D-02  7.3021162321602D-02  3.0814389885783D-02
7  6.0000000000000D-02  8.7716839209703D-02  3.6449531214281D-02
8  7.0000000000000D-02  1.0246173348456D-01  4.1800242274991D-02
9  8.0000000000000D-02  1.1726349918949D-01  4.6821957032130D-02
10  9.0000000000000D-02  1.3212953952470D-01  5.1471402526548D-02
11  1.0000000000000D-01  1.4706697277157D-01  5.5706771371283D-02
12  1.1000000000000D-01  1.6208259891267D-01  5.9487889430733D-02
13  1.2000000000000D-01  1.7718286702966D-01  6.2776378128160D-02
14  1.3000000000000D-01  1.9237384355943D-01  6.5535810842557D-02
15  1.4000000000000D-01  2.0766118148713D-01  6.7731862873770D-02
16  1.5000000000000D-01  2.2305009055245D-01  6.9332454474323D-02
17  1.6000000000000D-01  2.3854530854358D-01  7.0307886467307D-02
18  1.7000000000000D-01  2.5415107375069D-01  7.0630967992436D-02
19  1.8000000000000D-01  2.6987109864838D-01  7.0277135946165D-02
20  1.9000000000000D-01  2.8570854487382D-01  6.9224565707197D-02
21  2.0000000000000D-01  3.0166599956444D-01  6.7454272765382D-02
22  2.1000000000000D-01  3.1774545311617D-01  6.4950204899784D-02
23  2.2000000000000D-01  3.3394827842012D-01  6.1699324580751D-02
24  2.3000000000000D-01  3.5027521163216D-01  5.7691681300935D-02
25  2.4000000000000D-01  3.6672633452689D-01  5.2920473571282D-02
26  2.5000000000000D-01  3.8330105848366D-01  4.7382100349876D-02
27  2.6000000000000D-01  3.9999811014911D-01  4.1076201704419D-02
28  2.7000000000000D-01  4.1681551881655D-01  3.4005688542553D-02
29  2.8000000000000D-01  4.3375060555939D-01  2.6176761278397D-02
30  2.9000000000000D-01  4.5079997415141D-01  1.7598917338146D-02
31  3.0000000000000D-01  4.6795950380307D-01  8.2849474428514D-03
32  3.1000000000000D-01  4.8522434373908D-01 -1.7490793582887D-03
33  3.2000000000000D-01  5.0258890963827D-01 -1.2483841895174D-02
34  3.3000000000000D-01  5.2004688195286D-01 -2.3896804279914D-02
35  3.4000000000000D-01  5.3759120612009D-01 -3.5962264425425D-02
36  3.5000000000000D-01  5.5521409467487D-01 -4.8651413563646D-02
37  3.6000000000000D-01  5.7290703126819D-01 -6.1932406611823D-02
38  3.7000000000000D-01  5.9066077659162D-01 -7.5770443200818D-02
39  3.8000000000000D-01  6.0846537620401D-01 -9.0127859143912D-02
40  3.9000000000000D-01  6.2631017025260D-01 -1.0496422809143D-01
41  4.0000000000000D-01  6.4418380507612D-01 -1.2023647308217D-01
42  4.1000000000000D-01  6.6207424667367D-01 -1.3589898767057D-01
43  4.2000000000000D-01  6.7996879601873D-01 -1.5190376627628D-01
44  4.3000000000000D-01  6.9785410619380D-01 -1.6820054337201D-01
45  4.4000000000000D-01  7.1571620131678D-01 -1.8473694109586D-01
46  4.5000000000000D-01  7.3354049722662D-01 -2.0145862484531D-01
47  4.6000000000000D-01  7.5131182389123D-01 -2.1830946638285D-01
48  4.7000000000000D-01  7.6901444949736D-01 -2.3523171395718D-01
49  4.8000000000000D-01  7.8663210617777D-01 -2.5216616891897D-01
50  4.9000000000000D-01  8.0414801732779D-01 -2.6905236828754D-01
51  5.0000000000000D-01  8.2154492645921D-01 -2.8582877270262D-01
52  5.1000000000000D-01  8.3880512753641D-01 -3.0243295917636D-01
53  5.2000000000000D-01  8.5591049673558D-01 -3.1880181804195D-01
54  5.3000000000000D-01  8.7284252556524D-01 -3.3487175347942D-01
55  5.4000000000000D-01  8.8958235528234D-01 -3.5057888698473D-01
56  5.5000000000000D-01  9.0611081253574D-01 -3.6585926313609D-01
57  5.6000000000000D-01  9.2240844616526D-01 -3.8064905700043D-01
58  5.7000000000000D-01  9.3845556508242D-01 -3.9488478251582D-01
59  5.8000000000000D-01  9.5423227715553D-01 -4.0850350117819D-01
60  5.9000000000000D-01  9.6971852901965D-01 -4.2144303035751D-01
61  6.0000000000000D-01  9.8489414672958D-01 -4.3364215056624D-01
62  6.1000000000000D-01  9.9973887717157D-01 -4.4504081100359D-01
63  6.2000000000000D-01  1.0142324301475D+00 -4.5558033270105D-01
64  6.3000000000000D-01  1.0283545210432D+00 -4.6520360859987D-01
65  6.4000000000000D-01  1.0420849139913D+00 -4.7385529989799D-01
66  6.5000000000000D-01  1.0554034654367D+00 -4.8148202801274D-01
67  6.6000000000000D-01  1.0682901680119D+00 -4.8803256151744D-01
68  6.7000000000000D-01  1.0807251946280D+00 -4.9345799742312D-01
69  6.8000000000000D-01  1.0926889426862D+00 -4.9771193619257D-01
70  6.9000000000000D-01  1.1041620783143D+00 -5.0075064989129D-01
71  7.0000000000000D-01  1.1151255805302D+00 -5.0253324290009D-01
72  7.1000000000000D-01  1.1255607852365D+00 -5.0302180463569D-01
73  7.2000000000000D-01  1.1354494289487D+00 -5.0218155374953D-01
74  7.3000000000000D-01  1.1447736921585D+00 -4.9998097330067D-01
75  7.4000000000000D-01  1.1535162422359D+00 -4.9639193642606D-01
76  7.5000000000000D-01  1.1616602757724D+00 -4.9138982206072D-01
77  7.6000000000000D-01  1.1691895602694D+00 -4.8495362029123D-01
78  7.7000000000000D-01  1.1760884750745D+00 -4.7706602695850D-01
79  7.8000000000000D-01  1.1823420514732D+00 -4.6771352715919D-01
80  7.9000000000000D-01  1.1879360118391D+00 -4.5688646733092D-01
81  8.0000000000000D-01  1.1928568077531D+00 -4.4457911564248D-01
82  8.1000000000000D-01  1.1970916569986D+00 -4.3078971044818D-01
83  8.2000000000000D-01  1.2006285793433D+00 -4.1552049660335D-01
84  8.3000000000000D-01  1.2034564310222D+00 -3.9877774947847D-01
85  8.4000000000000D-01  1.2055649378335D+00 -3.8057178654869D-01
86  8.5000000000000D-01  1.2069447267667D+00 -3.6091696647678D-01
87  8.6000000000000D-01  1.2075873560814D+00 -3.3983167564848D-01
88  8.7000000000000D-01  1.2074853437580D+00 -3.1733830216139D-01
89  8.8000000000000D-01  1.2066321942465D+00 -2.9346319730946D-01
90  8.9000000000000D-01  1.2050224234406D+00 -2.6823662464767D-01
91  9.0000000000000D-01  1.2026515818077D+00 -2.4169269676288D-01
92  9.1000000000000D-01  1.1995162756098D+00 -2.1386929991828D-01
93  9.2000000000000D-01  1.1956141861523D+00 -1.8480800677996D-01
94  9.3000000000000D-01  1.1909440870036D+00 -1.5455397747458D-01
95  9.4000000000000D-01  1.1855058591292D+00 -1.2315584926701D-01
96  9.5000000000000D-01  1.1793005038906D+00 -9.0665615185603D-02
97  9.6000000000000D-01  1.1723301538619D+00 -5.7138491960743D-02
98  9.7000000000000D-01  1.1645980814223D+00 -2.2632777679417D-02
99  9.8000000000000D-01  1.1561087050859D+00  1.2790300406307D-02
100  9.9000000000000D-01  1.1468675935357D+00  4.9066747444479D-02
101  1.0000000000000D+00  1.1368814673327D+00  8.6129971417301D-02
102  1.0100000000000D+00  1.1261581982758D+00  1.2391096190816D-01
103  1.0200000000000D+00  1.1147068063941D+00  1.6233847663645D-01
104  1.0300000000000D+00  1.1025374545556D+00  2.0133923516787D-01
105  1.0400000000000D+00  1.0896614406842D+00  2.4083811918246D-01
106  1.0500000000000D+00  1.0760911875805D+00  2.8075837865922D-01
107  1.0600000000000D+00  1.0618402303454D+00  3.2102184331572D-01
108  1.0700000000000D+00  1.0469232014158D+00  3.6154913862188D-01
109  1.0800000000000D+00  1.0313558132196D+00  4.0225990569070D-01
110  1.0900000000000D+00  1.0151548384698D+00  4.4307302433503D-01
111  1.1000000000000D+00  9.9833808811700D-01  4.8390683856763D-01
112  1.1100000000000D+00  9.8092438698898D-01  5.2467938381368D-01
113  1.1200000000000D+00  9.6293354714824D-01  5.6530861509741D-01
114  1.1300000000000D+00  9.4438633900591D-01  6.0571263546144D-01
115  1.1400000000000D+00  9.2530446023474D-01  6.4580992387659D-01
116  1.1500000000000D+00  9.0571050252900D-01  6.8551956190123D-01
117  1.1600000000000D+00  8.8562791626438D-01  7.2476145835264D-01
118  1.1700000000000D+00  8.6508097311659D-01  7.6345657126082D-01
119  1.1800000000000D+00  8.4409472670223D-01  8.0152712638595D-01
120  1.1900000000000D+00  8.2269497130955D-01  8.3889683158860D-01
121  1.2000000000000D+00  8.0090819879282D-01  8.7549108636007D-01
122  1.2100000000000D+00  7.7876155370870D-01  9.1123718583735D-01
123  1.2200000000000D+00  7.5628278677696D-01  9.4606451864713D-01
124  1.2300000000000D+00  7.3350020675235D-01  9.7990475793824D-01
125  1.2400000000000D+00  7.1044263079987D-01  1.0126920449974D+00
126  1.2500000000000D+00  6.8713933346991D-01  1.0443631648690D+00
127  1.2600000000000D+00  6.6361999437112D-01  1.0748577134087D+00
128  1.2700000000000D+00  6.3991464464683D-01  1.1041182552584D+00
129  1.2800000000000D+00  6.1605361236254D-01  1.1320904722576D+00
130  1.2900000000000D+00  5.9206746691354D-01  1.1587233018084D+00
131  1.3000000000000D+00  5.6798696256908D-01  1.1839690647949D+00
132  1.3100000000000D+00  5.4384298127040D-01  1.2077835826778D+00
133  1.3200000000000D+00  5.1966647480086D-01  1.2301262833861D+00
134  1.3300000000000D+00  4.9548840645359D-01  1.2509602957375D+00
135  1.3400000000000D+00  4.7133969232067D-01  1.2702525321143D+00
136  1.3500000000000D+00  4.4725114233048D-01  1.2879737591458D+00
137  1.3600000000000D+00  4.2325340116419D-01  1.3040986562663D+00
138  1.3700000000000D+00  3.9937688918026D-01  1.3186058619758D+00
139  1.3800000000000D+00  3.7565174347992D-01  1.3314780077123D+00
140  1.3900000000000D+00  3.5210775924658D-01  1.3427017393365D+00
141  1.4000000000000D+00  3.2877433149192D-01  1.3522677261430D+00
142  1.4100000000000D+00  3.0568039734382D-01  1.3601706575181D+00
143  1.4200000000000D+00  2.8285437900882D-01  1.3664092272919D+00
144  1.4300000000000D+00  2.6032412754469D-01  1.3709861058865D+00
145  1.4400000000000D+00  2.3811686757352D-01  1.3739079005158D+00
146  1.4500000000000D+00  2.1625914307128D-01  1.3751851035287D+00
147  1.4600000000000D+00  1.9477676436156D-01  1.3748320292629D+00
148  1.4700000000000D+00  1.7369475644468D-01  1.3728667396311D+00
149  1.4800000000000D+00  1.5303730879142D-01  1.3693109587798D+00
150  1.4900000000000D+00  1.3282772672127D-01  1.3641899772415D+00
151  1.5000000000000D+00  1.1308838449825D-01  1.3575325458776D+00
152  1.5100000000000D+00  9.3840680250904D-02  1.3493707601884D+00
153  1.5200000000000D+00  7.5104992848883D-02  1.3397399353114D+00
154  1.5300000000000D+00  5.6900640835606D-02  1.3286784723349D+00
155  1.5400000000000D+00  3.9245843536995D-02  1.3162277163608D+00
156  1.5500000000000D+00  2.2157684448192D-02  1.3024318069171D+00
157  1.5600000000000D+00  5.6520769962708D-03  1.2873375212835D+00
158  1.5700000000000D+00 -1.0256267212206D-02  1.2709941113050D+00
159  1.5800000000000D+00 -2.5553867588212D-02  1.2534531343502D+00
160  1.5900000000000D+00 -4.0228501083447D-02  1.2347682789826D+00
161  1.6000000000000D+00 -5.4269226000473D-02  1.2149951860552D+00
162  1.6100000000000D+00 -6.7666402962115D-02  1.1941912658135D+00
163  1.6200000000000D+00 -8.0411713030078D-02  1.1724155117208D+00
164  1.6300000000000D+00 -9.2498172844629D-02  1.1497283116355D+00
165  1.6400000000000D+00 -1.0392014679434D-01  1.1261912570187D+00
166  1.6500000000000D+00 -1.1467335609904D-01  1.1018669508488D+00
167  1.6600000000000D+00 -1.2475488482701D-01  1.0768188148728D+00
168  1.6700000000000D+00 -1.3416318274482D-01  1.0511108969054D+00
169  1.6800000000000D+00 -1.4289806503395D-01  1.0248076787466D+00
170  1.6900000000000D+00 -1.5096070878600D-01  9.9797388545362D-01
171  1.7000000000000D+00 -1.5835364632785D-01  9.7067429646634D-01
172  1.7100000000000D+00 -1.6508075529775D-01  9.4297355934364D-01
173  1.7200000000000D+00 -1.7114724554686D-01  9.1493600651131D-01
174  1.7300000000000D+00 -1.7655964279045D-01  8.8662547581766D-01
175  1.7400000000000D+00 -1.8132576911356D-01  8.5810513515633D-01
176  1.7500000000000D+00 -1.8545472025102D-01  8.2943731202140D-01
177  1.7600000000000D+00 -1.8895683978535D-01  8.0068332805822D-01
178  1.7700000000000D+00 -1.9184369016931D-01  7.7190333959081D-01
179  1.7800000000000D+00 -1.9412802076337D-01  7.4315618392710D-01
180  1.7900000000000D+00 -1.9582373277801D-01  7.1449923257437D-01
181  1.8000000000000D+00 -1.9694584134989D-01  6.8598825090766D-01
182  1.8100000000000D+00 -1.9751043464746D-01  6.5767726548010D-01
183  1.8200000000000D+00 -1.9753463023889D-01  6.2961843841506D-01
184  1.8300000000000D+00 -1.9703652866112D-01  6.0186194992206D-01
185  1.8400000000000D+00 -1.9603516439188D-01  5.7445588847294D-01
186  1.8500000000000D+00 -1.9455045423310D-01  5.4744614934157D-01
187  1.8600000000000D+00 -1.9260314325494D-01  5.2087634131382D-01
188  1.8700000000000D+00 -1.9021474839484D-01  4.9478770175870D-01
189  1.8800000000000D+00 -1.8740749979322D-01  4.6921902030508D-01
190  1.8900000000000D+00 -1.8420428005487D-01  4.4420657064760D-01
191  1.9000000000000D+00 -1.8062856144627D-01  4.1978405128716D-01
192  1.9100000000000D+00 -1.7670434130272D-01  3.9598253401555D-01
193  1.9200000000000D+00 -1.7245607561437D-01  3.7283042137547D-01
194  1.9300000000000D+00 -1.6790861108075D-01  3.5035341166442D-01
195  1.9400000000000D+00 -1.6308711565891D-01  3.2857447235432D-01
196  1.9500000000000D+00 -1.5801700781664D-01  3.0751382108237D-01
197  1.9600000000000D+00 -1.5272388462217D-01  2.8718891416411D-01
198  1.9700000000000D+00 -1.4723344879429D-01  2.6761444264045D-01
199  1.9800000000000D+00 -1.4157143492882D-01  2.4880233484376D-01
200  1.9900000000000D+00 -1.3576353497839D-01  2.3076176617951D-01
201  2.0000000000000D+00 -1.2983532321889D-01  2.1349917467681D-01
202  2.0100000000000D+00 -1.2381218081066D-01  1.9701828283108D-01
203  2.0200000000000D+00 -1.1771922013875D-01  1.8132012480357D-01
204  2.0300000000000D+00 -1.1158120909226D-01  1.6640307866145D-01
205  2.0400000000000D+00 -1.0542249435706D-01  1.5226289801412D-01
206  2.0500000000000D+00 -9.9266930698688D-02  1.3889277654766D-01
207  2.0600000000000D+00 -9.3137794038180D-02  1.2628333386264D-01
208  2.0700000000000D+00 -8.7057727346770D-02  1.1442276123579D-01
209  2.0800000000000D+00 -8.1048660980416D-02  1.0329684433855D-01
210  2.0900000000000D+00 -7.5131729983285D-02  9.2888975706617D-02
211  2.1000000000000D+00 -6.9327135368956D-02  8.3179851790052D-02
212  2.1100000000000D+00 -6.3654223019670D-02  7.4148294982053D-02
213  2.1200000000000D+00 -5.8131464779534D-02  6.5771580130634D-02
214  2.1300000000000D+00 -5.2776481677972D-02  5.8025910632490D-02
215  2.1400000000000D+00 -4.7606057589172D-02  5.0886799620531D-02
216  2.1500000000000D+00 -4.2636253806423D-02  4.4329967533213D-02
217  2.1600000000000D+00 -3.7882293164099D-02  3.8331048561864D-02
218  2.1700000000000D+00 -3.3358533974005D-02  3.2865723033929D-02
219  2.1800000000000D+00 -2.9078435808026D-02  2.7909805057586D-02
220  2.1900000000000D+00 -2.5054551969525D-02  2.3439467185767D-02
221  2.2000000000000D+00 -2.1298493386009D-02  1.9431292467143D-02
222  2.2100000000000D+00 -1.7820909805357D-02  1.5862404062445D-02
223  2.2200000000000D+00 -1.4631468036268D-02  1.2710564764199D-02
224  2.2300000000000D+00 -1.1738832169263D-02  9.9542713541664D-03
225  2.2400000000000D+00 -9.1522193662525D-03  7.5737966687081D-03
226  2.2500000000000D+00 -6.8759564767497D-03  5.5479744270259D-03
227  2.2600000000000D+00 -4.9131844508391D-03  3.8565280827051D-03
228  2.2700000000000D+00 -3.2610235302073D-03  2.4777879423120D-03
229  2.2800000000000D+00 -1.9454179391203D-03  1.4075673433886D-03
230  2.2900000000000D+00 -9.8001421139243D-04  6.3598432390325D-04
231  2.3000000000000D+00 -3.5777957186322D-04  1.4335063248448D-04
232  2.3100000000000D+00 -2.0289376906214D-05 -1.1155368202415D-04
233  2.3200000000000D+00  1.0022890074349D-04 -1.7557277247494D-04
234  2.3300000000000D+00  8.5635535657288D-05 -1.1854039096147D-04
235  2.3400000000000D+00  1.9075033952372D-05 -2.4402398945158D-05
236  2.3500000000000D+00 -2.1387322907371D-05  2.6790372560202D-05
237  2.3600000000000D+00 -2.2974373407316D-05  2.7969982418366D-05
238  2.3700000000000D+00 -2.4126948713559D-06  2.8824008356090D-06
239  2.3800000000000D+00  4.4857161442785D-06 -5.9953485146478D-06
240  2.3900000000000D+00  4.1534808282954D-06 -5.4786516080400D-06
241  2.4000000000000D+00 -1.3385951637237D-08  3.4823427784841D-08
242  2.4100000000000D+00 -1.7167852143800D-07  4.4662006523867D-07
243  2.4200000000000D+00 -1.3548089043735D-07  3.5245226728945D-07
244  2.4300000000000D+00  0.0000000000000D+00  0.0000000000000D+00
245  2.4400000000000D+00  0.0000000000000D+00  0.0000000000000D+00
246  2.4500000000000D+00  0.0000000000000D+00  0.0000000000000D+00
247  2.4600000000000D+00  0.0000000000000D+00  0.0000000000000D+00
248  2.4700000000000D+00  0.0000000000000D+00  0.0000000000000D+00
249  2.4800000000000D+00  0.0000000000000D+00  0.0000000000000D+00
250  2.4900000000000D+00  0.0000000000000D+00  0.0000000000000D+00
251  2.5000000000000D+00  0.0000000000000D+00  0.0000000000000D+00
252  2.5100000000000D+00  0.0000000000000D+00  0.0000000000000D+00
253  2.5200000000000D+00  0.0000000000000D+00  0.0000000000000D+00
254  2.5300000000000D+00  0.0000000000000D+00  0.0000000000000D+00
255  2.5400000000000D+00  0.0000000000000D+00  0.0000000000000D+00
256  2.5500000000000D+00  0.0000000000000D+00  0.0000000000000D+00
257  2.5600000000000D+00  0.0000000000000D+00  0.0000000000000D+00
258  2.5700000000000D+00  0.0000000000000D+00  0.0000000000000D+00
259  2.5800000000000D+00  0.0000000000000D+00  0.0000000000000D+00
260  2.5900000000000D+00  0.0000000000000D+00  0.0000000000000D+00
261  2.6000000000000D+00  0.0000000000000D+00  0.0000000000000D+00
262  2.6100000000000D+00  0.0000000000000D+00  0.0000000000000D+00
263  2.6200000000000D+00  0.0000000000000D+00  0.0000000000000D+00
264  2.6300000000000D+00  0.0000000000000D+00  0.0000000000000D+00
265  2.6400000000000D+00  0.0000000000000D+00  0.0000000000000D+00
266  2.6500000000000D+00  0.0000000000000D+00  0.0000000000000D+00
267  2.6600000000000D+00  0.0000000000000D+00  0.0000000000000D+00
268  2.6700000000000D+00  0.0000000000000D+00  0.0000000000000D+00
269  2.6800000000000D+00  0.0000000000000D+00  0.0000000000000D+00
270  2.6900000000000D+00  0.0000000000000D+00  0.0000000000000D+00
271  2.7000000000000D+00  0.0000000000000D+00  0.0000000000000D+00
272  2.7100000000000D+00  0.0000000000000D+00  0.0000000000000D+00
273  2.7200000000000D+00  0.0000000000000D+00  0.0000000000000D+00
274  2.7300000000000D+00  0.0000000000000D+00  0.0000000000000D+00
275  2.7400000000000D+00  0.0000000000000D+00  0.0000000000000D+00
276  2.7500000000000D+00  0.0000000000000D+00  0.0000000000000D+00
277  2.7600000000000D+00  0.0000000000000D+00  0.0000000000000D+00
278  2.7700000000000D+00  0.0000000000000D+00  0.0000000000000D+00
279  2.7800000000000D+00  0.0000000000000D+00  0.0000000000000D+00
280  2.7900000000000D+00  0.0000000000000D+00  0.0000000000000D+00
281  2.8000000000000D+00  0.0000000000000D+00  0.0000000000000D+00
282  2.8100000000000D+00  0.0000000000000D+00  0.0000000000000D+00
283  2.8200000000000D+00  0.0000000000000D+00  0.0000000000000D+00
284  2.8300000000000D+00  0.0000000000000D+00  0.0000000000000D+00
285  2.8400000000000D+00  0.0000000000000D+00  0.0000000000000D+00
286  2.8500000000000D+00  0.0000000000000D+00  0.0000000000000D+00
287  2.8600000000000D+00  0.0000000000000D+00  0.0000000000000D+00
288  2.8700000000000D+00  0.0000000000000D+00  0.0000000000000D+00
289  2.8800000000000D+00  0.0000000000000D+00  0.0000000000000D+00
290  2.8900000000000D+00  0.0000000000000D+00  0.0000000000000D+00
291  2.9000000000000D+00  0.0000000000000D+00  0.0000000000000D+00
292  2.9100000000000D+00  0.0000000000000D+00  0.0000000000000D+00
293  2.9200000000000D+00  0.0000000000000D+00  0.0000000000000D+00
294  2.9300000000000D+00  0.0000000000000D+00  0.0000000000000D+00
295  2.9400000000000D+00  0.0000000000000D+00  0.0000000000000D+00
296  2.9500000000000D+00  0.0000000000000D+00  0.0000000000000D+00
297  2.9600000000000D+00  0.0000000000000D+00  0.0000000000000D+00
298  2.9700000000000D+00  0.0000000000000D+00  0.0000000000000D+00
299  2.9800000000000D+00  0.0000000000000D+00  0.0000000000000D+00
300  2.9900000000000D+00  0.0000000000000D+00  0.0000000000000D+00
301  3.0000000000000D+00  0.0000000000000D+00  0.0000000000000D+00
302  3.0100000000000D+00  0.0000000000000D+00  0.0000000000000D+00
303  3.0200000000000D+00  0.0000000000000D+00  0.0000000000000D+00
304  3.0300000000000D+00  0.0000000000000D+00  0.0000000000000D+00
305  3.0400000000000D+00  0.0000000000000D+00  0.0000000000000D+00
306  3.0500000000000D+00  0.0000000000000D+00  0.0000000000000D+00
307  3.0600000000000D+00  0.0000000000000D+00  0.0000000000000D+00
308  3.0700000000000D+00  0.0000000000000D+00  0.0000000000000D+00
309  3.0800000000000D+00  0.0000000000000D+00  0.0000000000000D+00
310  3.0900000000000D+00  0.0000000000000D+00  0.0000000000000D+00
311  3.1000000000000D+00  0.0000000000000D+00  0.0000000000000D+00
312  3.1100000000000D+00  0.0000000000000D+00  0.0000000000000D+00
313  3.1200000000000D+00  0.0000000000000D+00  0.0000000000000D+00
314  3.1300000000000D+00  0.0000000000000D+00  0.0000000000000D+00
315  3.1400000000000D+00  0.0000000000000D+00  0.0000000000000D+00
316  3.1500000000000D+00  0.0000000000000D+00  0.0000000000000D+00
317  3.1600000000000D+00  0.0000000000000D+00  0.0000000000000D+00
318  3.1700000000000D+00  0.0000000000000D+00  0.0000000000000D+00
319  3.1800000000000D+00  0.0000000000000D+00  0.0000000000000D+00
320  3.1900000000000D+00  0.0000000000000D+00  0.0000000000000D+00
321  3.2000000000000D+00  0.0000000000000D+00  0.0000000000000D+00
322  3.2100000000000D+00  0.0000000000000D+00  0.0000000000000D+00
323  3.2200000000000D+00  0.0000000000000D+00  0.0000000000000D+00
324  3.2300000000000D+00  0.0000000000000D+00  0.0000000000000D+00
325  3.2400000000000D+00  0.0000000000000D+00  0.0000000000000D+00
326  3.2500000000000D+00  0.0000000000000D+00  0.0000000000000D+00
327  3.2600000000000D+00  0.0000000000000D+00  0.0000000000000D+00
328  3.2700000000000D+00  0.0000000000000D+00  0.0000000000000D+00
329  3.2800000000000D+00  0.0000000000000D+00  0.0000000000000D+00
330  3.2900000000000D+00  0.0000000000000D+00  0.0000000000000D+00
331  3.3000000000000D+00  0.0000000000000D+00  0.0000000000000D+00
332  3.3100000000000D+00  0.0000000000000D+00  0.0000000000000D+00
333  3.3200000000000D+00  0.0000000000000D+00  0.0000000000000D+00
334  3.3300000000000D+00  0.0000000000000D+00  0.0000000000000D+00
335  3.3400000000000D+00  0.0000000000000D+00  0.0000000000000D+00
336  3.3500000000000D+00  0.0000000000000D+00  0.0000000000000D+00
337  3.3600000000000D+00  0.0000000000000D+00  0.0000000000000D+00
338  3.3700000000000D+00  0.0000000000000D+00  0.0000000000000D+00
339  3.3800000000000D+00  0.0000000000000D+00  0.0000000000000D+00
340  3.3900000000000D+00  0.0000000000000D+00  0.0000000000000D+00
341  3.4000000000000D+00  0.0000000000000D+00  0.0000000000000D+00
342  3.4100000000000D+00  0.0000000000000D+00  0.0000000000000D+00
343  3.4200000000000D+00  0.0000000000000D+00  0.0000000000000D+00
344  3.4300000000000D+00  0.0000000000000D+00  0.0000000000000D+00
345  3.4400000000000D+00  0.0000000000000D+00  0.0000000000000D+00
346  3.4500000000000D+00  0.0000000000000D+00  0.0000000000000D+00
347  3.4600000000000D+00  0.0000000000000D+00  0.0000000000000D+00
348  3.4700000000000D+00  0.0000000000000D+00  0.0000000000000D+00
349  3.4800000000000D+00  0.0000000000000D+00  0.0000000000000D+00
350  3.4900000000000D+00  0.0000000000000D+00  0.0000000000000D+00
351  3.5000000000000D+00  0.0000000000000D+00  0.0000000000000D+00
352  3.5100000000000D+00  0.0000000000000D+00  0.0000000000000D+00
353  3.5200000000000D+00  0.0000000000000D+00  0.0000000000000D+00
354  3.5300000000000D+00  0.0000000000000D+00  0.0000000000000D+00
355  3.5400000000000D+00  0.0000000000000D+00  0.0000000000000D+00
356  3.5500000000000D+00  0.0000000000000D+00  0.0000000000000D+00
357  3.5600000000000D+00  0.0000000000000D+00  0.0000000000000D+00
358  3.5700000000000D+00  0.0000000000000D+00  0.0000000000000D+00
359  3.5800000000000D+00  0.0000000000000D+00  0.0000000000000D+00
360  3.5900000000000D+00  0.0000000000000D+00  0.0000000000000D+00
361  3.6000000000000D+00  0.0000000000000D+00  0.0000000000000D+00
362  3.6100000000000D+00  0.0000000000000D+00  0.0000000000000D+00
363  3.6200000000000D+00  0.0000000000000D+00  0.0000000000000D+00
364  3.6300000000000D+00  0.0000000000000D+00  0.0000000000000D+00
365  3.6400000000000D+00  0.0000000000000D+00  0.0000000000000D+00
366  3.6500000000000D+00  0.0000000000000D+00  0.0000000000000D+00
367  3.6600000000000D+00  0.0000000000000D+00  0.0000000000000D+00
368  3.6700000000000D+00  0.0000000000000D+00  0.0000000000000D+00
369  3.6800000000000D+00  0.0000000000000D+00  0.0000000000000D+00
370  3.6900000000000D+00  0.0000000000000D+00  0.0000000000000D+00
371  3.7000000000000D+00  0.0000000000000D+00  0.0000000000000D+00
372  3.7100000000000D+00  0.0000000000000D+00  0.0000000000000D+00
373  3.7200000000000D+00  0.0000000000000D+00  0.0000000000000D+00
374  3.7300000000000D+00  0.0000000000000D+00  0.0000000000000D+00
375  3.7400000000000D+00  0.0000000000000D+00  0.0000000000000D+00
376  3.7500000000000D+00  0.0000000000000D+00  0.0000000000000D+00
377  3.7600000000000D+00  0.0000000000000D+00  0.0000000000000D+00
378  3.7700000000000D+00  0.0000000000000D+00  0.0000000000000D+00
379  3.7800000000000D+00  0.0000000000000D+00  0.0000000000000D+00
380  3.7900000000000D+00  0.0000000000000D+00  0.0000000000000D+00
381  3.8000000000000D+00  0.0000000000000D+00  0.0000000000000D+00
382  3.8100000000000D+00  0.0000000000000D+00  0.0000000000000D+00
383  3.8200000000000D+00  0.0000000000000D+00  0.0000000000000D+00
384  3.8300000000000D+00  0.0000000000000D+00  0.0000000000000D+00
385  3.8400000000000D+00  0.0000000000000D+00  0.0000000000000D+00
386  3.8500000000000D+00  0.0000000000000D+00  0.0000000000000D+00
387  3.8600000000000D+00  0.0000000000000D+00  0.0000000000000D+00
388  3.8700000000000D+00  0.0000000000000D+00  0.0000000000000D+00
389  3.8800000000000D+00  0.0000000000000D+00  0.0000000000000D+00
390  3.8900000000000D+00  0.0000000000000D+00  0.0000000000000D+00
391  3.9000000000000D+00  0.0000000000000D+00  0.0000000000000D+00
392  3.9100000000000D+00  0.0000000000000D+00  0.0000000000000D+00
393  3.9200000000000D+00  0.0000000000000D+00  0.0000000000000D+00
394  3.9300000000000D+00  0.0000000000000D+00  0.0000000000000D+00
395  3.9400000000000D+00  0.0000000000000D+00  0.0000000000000D+00
396  3.9500000000000D+00  0.0000000000000D+00  0.0000000000000D+00
397  3.9600000000000D+00  0.0000000000000D+00  0.0000000000000D+00
398  3.9700000000000D+00  0.0000000000000D+00  0.0000000000000D+00
399  3.9800000000000D+00  0.0000000000000D+00  0.0000000000000D+00
400  3.9900000000000D+00  0.0000000000000D+00  0.0000000000000D+00
401  4.0000000000000D+00  0.0000000000000D+00  0.0000000000000D+00
402  4.0100000000000D+00  0.0000000000000D+00  0.0000000000000D+00
403  4.0200000000000D+00  0.0000000000000D+00  0.0000000000000D+00
404  4.0300000000000D+00  0.0000000000000D+00  0.0000000000000D+00
405  4.0400000000000D+00  0.0000000000000D+00  0.0000000000000D+00
406  4.0500000000000D+00  0.0000000000000D+00  0.0000000000000D+00
407  4.0600000000000D+00  0.0000000000000D+00  0.0000000000000D+00
408  4.0700000000000D+00  0.0000000000000D+00  0.0000000000000D+00
409  4.0800000000000D+00  0.0000000000000D+00  0.0000000000000D+00
410  4.0900000000000D+00  0.0000000000000D+00  0.0000000000000D+00
411  4.1000000000000D+00  0.0000000000000D+00  0.0000000000000D+00
412  4.1100000000000D+00  0.0000000000000D+00  0.0000000000000D+00
413  4.1200000000000D+00  0.0000000000000D+00  0.0000000000000D+00
414  4.1300000000000D+00  0.0000000000000D+00  0.0000000000000D+00
415  4.1400000000000D+00  0.0000000000000D+00  0.0000000000000D+00
416  4.1500000000000D+00  0.0000000000000D+00  0.0000000000000D+00
417  4.1600000000000D+00  0.0000000000000D+00  0.0000000000000D+00
418  4.1700000000000D+00  0.0000000000000D+00  0.0000000000000D+00
419  4.1800000000000D+00  0.0000000000000D+00  0.0000000000000D+00
420  4.1900000000000D+00  0.0000000000000D+00  0.0000000000000D+00
421  4.2000000000000D+00  0.0000000000000D+00  0.0000000000000D+00
422  4.2100000000000D+00  0.0000000000000D+00  0.0000000000000D+00
423  4.2200000000000D+00  0.0000000000000D+00  0.0000000000000D+00
424  4.2300000000000D+00  0.0000000000000D+00  0.0000000000000D+00
425  4.2400000000000D+00  0.0000000000000D+00  0.0000000000000D+00
426  4.2500000000000D+00  0.0000000000000D+00  0.0000000000000D+00
427  4.2600000000000D+00  0.0000000000000D+00  0.0000000000000D+00
428  4.2700000000000D+00  0.0000000000000D+00  0.0000000000000D+00
429  4.2800000000000D+00  0.0000000000000D+00  0.0000000000000D+00
430  4.2900000000000D+00  0.0000000000000D+00  0.0000000000000D+00
431  4.3000000000000D+00  0.0000000000000D+00  0.0000000000000D+00
432  4.3100000000000D+00  0.0000000000000D+00  0.0000000000000D+00
433  4.3200000000000D+00  0.0000000000000D+00  0.0000000000000D+00
434  4.3300000000000D+00  0.0000000000000D+00  0.0000000000000D+00
435  4.3400000000000D+00  0.0000000000000D+00  0.0000000000000D+00
436  4.3500000000000D+00  0.0000000000000D+00  0.0000000000000D+00
437  4.3600000000000D+00  0.0000000000000D+00  0.0000000000000D+00
438  4.3700000000000D+00  0.0000000000000D+00  0.0000000000000D+00
439  4.3800000000000D+00  0.0000000000000D+00  0.0000000000000D+00
440  4.3900000000000D+00  0.0000000000000D+00  0.0000000000000D+00
441  4.4000000000000D+00  0.0000000000000D+00  0.0000000000000D+00
442  4.4100000000000D+00  0.0000000000000D+00  0.0000000000000D+00
443  4.4200000000000D+00  0.0000000000000D+00  0.0000000000000D+00
444  4.4300000000000D+00  0.0000000000000D+00  0.0000000000000D+00