Tl    ONCVPSP-3.3.0  r_core=   1.40325   1.50736   1.40325
81.0000     21.0000      171114    zatom,zion,pspd
8   -1012   2     4   600     0    pspcod,pspxc,lmax,lloc,mmax,r2well
5.99000000  9.00000000  0.00000000    rchrg fchrg qchrg
2     2     2     0     0    nproj
1     1           extension_switch
0                         1.6650982618505D+01  1.9832927998126D+00
1  0.0000000000000D+00 -6.2990457294632D-10  2.0284525448222D-09
2  1.0000000000000D-02  8.0688602201599D-02 -2.8176654678600D-02
3  2.0000000000000D-02  1.6116814289903D-01 -5.6105254655186D-02
4  3.0000000000000D-02  2.4123051926539D-01 -8.3540088095066D-02
5  4.0000000000000D-02  3.2066953547082D-01 -1.1024009561268D-01
6  5.0000000000000D-02  3.9928183045096D-01 -1.3597111380940D-01
7  6.0000000000000D-02  4.7686777525578D-01 -1.6050802105494D-01
8  7.0000000000000D-02  5.5323233059160D-01 -1.8363675534912D-01
9  8.0000000000000D-02  6.2818585579912D-01 -2.0515617612917D-01
10  9.0000000000000D-02  7.0154486127886D-01 -2.2487974436462D-01
11  1.0000000000000D-01  7.7313269727028D-01 -2.4263699816933D-01
12  1.1000000000000D-01  8.4278017289796D-01 -2.5827480441306D-01
13  1.2000000000000D-01  9.1032610050148D-01 -2.7165837038446D-01
14  1.3000000000000D-01  9.7561776144721D-01 -2.8267200338710D-01
15  1.4000000000000D-01  1.0385112908611D+00 -2.9121961018126D-01
16  1.5000000000000D-01  1.0988719800023D+00 -2.9722493235335D-01
17  1.6000000000000D-01  1.1565744962951D+00 -3.0063151793752D-01
18  1.7000000000000D-01  1.2115030223344D+00 -3.0140243386173D-01
19  1.8000000000000D-01  1.2635513164494D+00 -2.9951972797778D-01
20  1.9000000000000D-01  1.3126226986375D+00 -2.9498365349243D-01
21  2.0000000000000D-01  1.3586299668398D+00 -2.8781167248045D-01
22  2.1000000000000D-01  1.4014952496029D+00 -2.7803725876665D-01
23  2.2000000000000D-01  1.4411498021413D+00 -2.6570852375261D-01
24  2.3000000000000D-01  1.4775337536591D+00 -2.5088669167938D-01
25  2.4000000000000D-01  1.5105958145023D+00 -2.3364445331049D-01
26  2.5000000000000D-01  1.5402929522674D+00 -2.1406422904439D-01
27  2.6000000000000D-01  1.5665900463903D+00 -1.9223637398679D-01
28  2.7000000000000D-01  1.5894595309644D+00 -1.6825735849860D-01
29  2.8000000000000D-01  1.6088810355834D+00 -1.4222795816513D-01
30  2.9000000000000D-01  1.6248410338739D+00 -1.1425148699171D-01
31  3.0000000000000D-01  1.6373325090702D+00 -8.4432106915688D-02
32  3.1000000000000D-01  1.6463546454924D+00 -5.2873245439972D-02
33  3.2000000000000D-01  1.6519125541273D+00 -1.9676151351402D-02
34  3.3000000000000D-01  1.6540170396846D+00  1.5061383888332D-02
35  3.4000000000000D-01  1.6526844155211D+00  5.1246114369906D-02
36  3.5000000000000D-01  1.6479363717105D+00  8.8790216213469D-02
37  3.6000000000000D-01  1.6397999002945D+00  1.2761193468279D-01
38  3.7000000000000D-01  1.6283072804121D+00  1.6763598843943D-01
39  3.8000000000000D-01  1.6134961245776D+00  2.0879372185155D-01
40  3.9000000000000D-01  1.5954094859004D+00  2.5102300091373D-01
41  4.0000000000000D-01  1.5740960245197D+00  2.9426785313213D-01
42  4.1000000000000D-01  1.5496102300055D+00  3.3847785660623D-01
43  4.2000000000000D-01  1.5220126949713D+00  3.8360728841585D-01
44  4.3000000000000D-01  1.4913704336801D+00  4.2961404721765D-01
45  4.4000000000000D-01  1.4577572380376D+00  4.7645836958890D-01
46  4.5000000000000D-01  1.4212540620706D+00  5.2410136404621D-01
47  4.6000000000000D-01  1.3819494248206D+00  5.7250339073620D-01
48  4.7000000000000D-01  1.3399398205558D+00  6.2162231846746D-01
49  4.8000000000000D-01  1.2953301243521D+00  6.7141169396164D-01
50  4.9000000000000D-01  1.2482339804207D+00  7.2181886087861D-01
51  5.0000000000000D-01  1.1987741601039D+00  7.7278306826378D-01
52  5.1000000000000D-01  1.1470828762136D+00  8.2423360952290D-01
53  5.2000000000000D-01  1.0933020403757D+00  8.7608803381579D-01
54  5.3000000000000D-01  1.0375834502744D+00  9.2825047184155D-01
55  5.4000000000000D-01  9.8008889415383D-01  9.8061011735155D-01
56  5.5000000000000D-01  9.2099016065270D-01  1.0330399043609D+00
57  5.6000000000000D-01  8.6046894299332D-01  1.0853954179386D+00
58  5.7000000000000D-01  7.9871662772996D-01  1.1375140736684D+00
59  5.8000000000000D-01  7.3593395966349D-01  1.1892145973888D+00
60  5.9000000000000D-01  6.7233057612683D-01  1.2402968327280D+00
61  6.0000000000000D-01  6.0812440564052D-01  1.2905418992277D+00
62  6.1000000000000D-01  5.4354092787523D-01  1.3397127186572D+00
63  6.2000000000000D-01  4.7881229394702D-01  1.3875549214191D+00
64  6.3000000000000D-01  4.1417630825110D-01  1.4337981389178D+00
65  6.4000000000000D-01  3.4987527529683D-01  1.4781576814347D+00
66  6.5000000000000D-01  2.8615471730898D-01  1.5203365945242D+00
67  6.6000000000000D-01  2.2326197065113D-01  1.5600280803662D+00
68  6.7000000000000D-01  1.6144467139722D-01  1.5969182639166D+00
69  6.8000000000000D-01  1.0094914257199D-01  1.6306892772451D+00
70  6.9000000000000D-01  4.2018697666975D-02  1.6610226292266D+00
71  7.0000000000000D-01 -1.5108123024369D-02  1.6876028218932D+00
72  7.1000000000000D-01 -7.0199364936876D-02  1.7101211692880D+00
73  7.2000000000000D-01 -1.2303150077170D-01  1.7282797697903D+00
74  7.3000000000000D-01 -1.7339127987553D-01  1.7417955786198D+00
75  7.4000000000000D-01 -2.2107756326108D-01  1.7504045236860D+00
76  7.5000000000000D-01 -2.6590312132971D-01  1.7538656052124D+00
77  7.6000000000000D-01 -3.0769637093381D-01  1.7519649176683D+00
78  7.7000000000000D-01 -3.4630302832704D-01  1.7445195315764D+00
79  7.8000000000000D-01 -3.8158765480177D-01  1.7313811727302D+00
80  7.9000000000000D-01 -4.1343507241431D-01  1.7124396372981D+00
81  8.0000000000000D-01 -4.4175162814871D-01  1.6876258832190D+00
82  8.1000000000000D-01 -4.6646628616476D-01  1.6569147411878D+00
83  8.2000000000000D-01 -4.8753152940541D-01  1.6203271923800D+00
84  8.3000000000000D-01 -5.0492405378633D-01  1.5779321648303D+00
85  8.4000000000000D-01 -5.1864524043539D-01  1.5298478060020D+00
86  8.5000000000000D-01 -5.2872139396648D-01  1.4762421955011D+00
87  8.6000000000000D-01 -5.3520373752797D-01  1.4173334690203D+00
88  8.7000000000000D-01 -5.3816815832741D-01  1.3533893323373D+00
89  8.8000000000000D-01 -5.3771470045953D-01  1.2847259524501D+00
90  8.9000000000000D-01 -5.3396680511323D-01  1.2117062215721D+00
91  9.0000000000000D-01 -5.2707030155716D-01  1.1347373986274D+00
92  9.1000000000000D-01 -5.1719215565696D-01  1.0542681419290D+00
93  9.2000000000000D-01 -5.0451898600914D-01  9.7078495576962D-01
94  9.3000000000000D-01 -4.8925536103799D-01  8.8480808255807D-01
95  9.4000000000000D-01 -4.7162189354237D-01  7.9688688075305D-01
96  9.5000000000000D-01 -4.5185315214971D-01  7.0759473705064D-01
97  9.6000000000000D-01 -4.3019541188805D-01  6.1752356892777D-01
98  9.7000000000000D-01 -4.0690426857747D-01  5.2727798061126D-01
99  9.8000000000000D-01 -3.8224214392786D-01  4.3746914170346D-01
100  9.9000000000000D-01 -3.5647571008517D-01  3.4870846298350D-01
101  1.0000000000000D+00 -3.2987326380640D-01  2.6160114806265D-01
102  1.0100000000000D+00 -3.0270208155103D-01  1.7673970285241D-01
103  1.0200000000000D+00 -2.7522578739104D-01  9.4697486742889D-02
104  1.0300000000000D+00 -2.4770176584230D-01  1.6022390196515D-02
105  1.0400000000000D+00 -2.2037865147737D-01 -5.8769276936993D-02
106  1.0500000000000D+00 -1.9349392642337D-01 -1.2919860388369D-01
107  1.0600000000000D+00 -1.6727165575346D-01 -1.9482952444151D-01
108  1.0700000000000D+00 -1.4192038916365D-01 -2.5527381393778D-01
109  1.0800000000000D+00 -1.1763125524385D-01 -3.1019556754799D-01
110  1.0900000000000D+00 -9.4576272325937D-02 -3.5931509603792D-01
111  1.1000000000000D+00 -7.2906896854547D-02 -4.0241218309872D-01
112  1.1100000000000D+00 -5.2752827584539D-02 -4.3932865552275D-01
113  1.1200000000000D+00 -3.4221080002967D-02 -4.6997022798129D-01
114  1.1300000000000D+00 -1.7395341978238D-02 -4.9430759334221D-01
115  1.1400000000000D+00 -2.3356175184942D-03 -5.1237674062754D-01
116  1.1500000000000D+00  1.0921837925004D-02 -5.2427849206237D-01
117  1.1600000000000D+00  2.2364291678925D-02 -5.3017726291393D-01
118  1.1700000000000D+00  3.2002022711959D-02 -5.3029905885441D-01
119  1.1800000000000D+00  3.9867534556839D-02 -5.2492873730212D-01
120  1.1900000000000D+00  4.6014504443451D-02 -5.1440656666562D-01
121  1.2000000000000D+00  5.0516486214301D-02 -4.9912413222241D-01
122  1.2100000000000D+00  5.3465387348237D-02 -4.7951964490154D-01
123  1.2200000000000D+00  5.4969743552281D-02 -4.5607271780823D-01
124  1.2300000000000D+00  5.5152817426971D-02 -4.2929868366388D-01
125  1.2400000000000D+00  5.4150551054552D-02 -3.9974253548190D-01
126  1.2500000000000D+00  5.2109403698086D-02 -3.6797257644443D-01
127  1.2600000000000D+00  4.9184107563842D-02 -3.3457386977982D-01
128  1.2700000000000D+00  4.5535380912248D-02 -3.0014159868115D-01
129  1.2800000000000D+00  4.1327626356863D-02 -2.6527440853028D-01
130  1.2900000000000D+00  3.6726591606775D-02 -2.3056764824077D-01
131  1.3000000000000D+00  3.1897176231022D-02 -1.9660706523055D-01
132  1.3100000000000D+00  2.7001850997514D-02 -1.6396447763540D-01
133  1.3200000000000D+00  2.2195990563910D-02 -1.3318342103370D-01
134  1.3300000000000D+00  1.7623135097027D-02 -1.0476468715477D-01
135  1.3400000000000D+00  1.3409968154630D-02 -7.9151150545023D-02
136  1.3500000000000D+00  9.6641767540589D-03 -5.6721858428414D-02
137  1.3600000000000D+00  6.4751977835665D-03 -3.7800237593381D-02
138  1.3700000000000D+00  3.9029642431750D-03 -2.2594486754493D-02
139  1.3800000000000D+00  1.9806912628305D-03 -1.1221647763447D-02
140  1.3900000000000D+00  7.9951823259819D-04 -4.1497847798080D-03
141  1.4000000000000D+00  2.7337080139642D-04 -9.7524103504855D-04
142  1.4100000000000D+00  7.2562820425928D-05 -4.6727976727733D-05
143  1.4200000000000D+00  3.0871023639669D-07  7.6886899746667D-07
144  1.4300000000000D+00 -5.0220593572265D-06 -2.9682312010226D-05
145  1.4400000000000D+00  1.2117652424532D-06  1.4740996738248D-06
146  1.4500000000000D+00  1.2317264196805D-06  2.4476101607840D-06
147  1.4600000000000D+00 -4.8292728443673D-07  1.3154328408085D-06
148  1.4700000000000D+00 -1.6457087027456D-07  4.4827023524273D-07
149  1.4800000000000D+00  0.0000000000000D+00  0.0000000000000D+00
150  1.4900000000000D+00  0.0000000000000D+00  0.0000000000000D+00
151  1.5000000000000D+00  0.0000000000000D+00  0.0000000000000D+00
152  1.5100000000000D+00  0.0000000000000D+00  0.0000000000000D+00
153  1.5200000000000D+00  0.0000000000000D+00  0.0000000000000D+00
154  1.5300000000000D+00  0.0000000000000D+00  0.0000000000000D+00
155  1.5400000000000D+00  0.0000000000000D+00  0.0000000000000D+00
156  1.5500000000000D+00  0.0000000000000D+00  0.0000000000000D+00
157  1.5600000000000D+00  0.0000000000000D+00  0.0000000000000D+00
158  1.5700000000000D+00  0.0000000000000D+00  0.0000000000000D+00
159  1.5800000000000D+00  0.0000000000000D+00  0.0000000000000D+00
160  1.5900000000000D+00  0.0000000000000D+00  0.0000000000000D+00
161  1.6000000000000D+00  0.0000000000000D+00  0.0000000000000D+00
162  1.6100000000000D+00  0.0000000000000D+00  0.0000000000000D+00
163  1.6200000000000D+00  0.0000000000000D+00  0.0000000000000D+00
164  1.6300000000000D+00  0.0000000000000D+00  0.0000000000000D+00
165  1.6400000000000D+00  0.0000000000000D+00  0.0000000000000D+00
166  1.6500000000000D+00  0.0000000000000D+00  0.0000000000000D+00
167  1.6600000000000D+00  0.0000000000000D+00  0.0000000000000D+00
168  1.6700000000000D+00  0.0000000000000D+00  0.0000000000000D+00
169  1.6800000000000D+00  0.0000000000000D+00  0.0000000000000D+00
170  1.6900000000000D+00  0.0000000000000D+00  0.0000000000000D+00
171  1.7000000000000D+00  0.0000000000000D+00  0.0000000000000D+00
172  1.7100000000000D+00  0.0000000000000D+00  0.0000000000000D+00
173  1.7200000000000D+00  0.0000000000000D+00  0.0000000000000D+00
174  1.7300000000000D+00  0.0000000000000D+00  0.0000000000000D+00
175  1.7400000000000D+00  0.0000000000000D+00  0.0000000000000D+00
176  1.7500000000000D+00  0.0000000000000D+00  0.0000000000000D+00
177  1.7600000000000D+00  0.0000000000000D+00  0.0000000000000D+00
178  1.7700000000000D+00  0.0000000000000D+00  0.0000000000000D+00
179  1.7800000000000D+00  0.0000000000000D+00  0.0000000000000D+00
180  1.7900000000000D+00  0.0000000000000D+00  0.0000000000000D+00
181  1.8000000000000D+00  0.0000000000000D+00  0.0000000000000D+00
182  1.8100000000000D+00  0.0000000000000D+00  0.0000000000000D+00
183  1.8200000000000D+00  0.0000000000000D+00  0.0000000000000D+00
184  1.8300000000000D+00  0.0000000000000D+00  0.0000000000000D+00
185  1.8400000000000D+00  0.0000000000000D+00  0.0000000000000D+00
186  1.8500000000000D+00  0.0000000000000D+00  0.0000000000000D+00
187  1.8600000000000D+00  0.0000000000000D+00  0.0000000000000D+00
188  1.8700000000000D+00  0.0000000000000D+00  0.0000000000000D+00
189  1.8800000000000D+00  0.0000000000000D+00  0.0000000000000D+00
190  1.8900000000000D+00  0.0000000000000D+00  0.0000000000000D+00
191  1.9000000000000D+00  0.0000000000000D+00  0.0000000000000D+00
192  1.9100000000000D+00  0.0000000000000D+00  0.0000000000000D+00
193  1.9200000000000D+00  0.0000000000000D+00  0.0000000000000D+00
194  1.9300000000000D+00  0.0000000000000D+00  0.0000000000000D+00
195  1.9400000000000D+00  0.0000000000000D+00  0.0000000000000D+00
196  1.9500000000000D+00  0.0000000000000D+00  0.0000000000000D+00
197  1.9600000000000D+00  0.0000000000000D+00  0.0000000000000D+00
198  1.9700000000000D+00  0.0000000000000D+00  0.0000000000000D+00
199  1.9800000000000D+00  0.0000000000000D+00  0.0000000000000D+00
200  1.9900000000000D+00  0.0000000000000D+00  0.0000000000000D+00
201  2.0000000000000D+00  0.0000000000000D+00  0.0000000000000D+00
202  2.0100000000000D+00  0.0000000000000D+00  0.0000000000000D+00
203  2.0200000000000D+00  0.0000000000000D+00  0.0000000000000D+00
204  2.0300000000000D+00  0.0000000000000D+00  0.0000000000000D+00
205  2.0400000000000D+00  0.0000000000000D+00  0.0000000000000D+00
206  2.0500000000000D+00  0.0000000000000D+00  0.0000000000000D+00
207  2.0600000000000D+00  0.0000000000000D+00  0.0000000000000D+00
208  2.0700000000000D+00  0.0000000000000D+00  0.0000000000000D+00
209  2.0800000000000D+00  0.0000000000000D+00  0.0000000000000D+00
210  2.0900000000000D+00  0.0000000000000D+00  0.0000000000000D+00
211  2.1000000000000D+00  0.0000000000000D+00  0.0000000000000D+00
212  2.1100000000000D+00  0.0000000000000D+00  0.0000000000000D+00
213  2.1200000000000D+00  0.0000000000000D+00  0.0000000000000D+00
214  2.1300000000000D+00  0.0000000000000D+00  0.0000000000000D+00
215  2.1400000000000D+00  0.0000000000000D+00  0.0000000000000D+00
216  2.1500000000000D+00  0.0000000000000D+00  0.0000000000000D+00
217  2.1600000000000D+00  0.0000000000000D+00  0.0000000000000D+00
218  2.1700000000000D+00  0.0000000000000D+00  0.0000000000000D+00
219  2.1800000000000D+00  0.0000000000000D+00  0.0000000000000D+00
220  2.1900000000000D+00  0.0000000000000D+00  0.0000000000000D+00
221  2.2000000000000D+00  0.0000000000000D+00  0.0000000000000D+00
222  2.2100000000000D+00  0.0000000000000D+00  0.0000000000000D+00
223  2.2200000000000D+00  0.0000000000000D+00  0.0000000000000D+00
224  2.2300000000000D+00  0.0000000000000D+00  0.0000000000000D+00
225  2.2400000000000D+00  0.0000000000000D+00  0.0000000000000D+00
226  2.2500000000000D+00  0.0000000000000D+00  0.0000000000000D+00
227  2.2600000000000D+00  0.0000000000000D+00  0.0000000000000D+00
228  2.2700000000000D+00  0.0000000000000D+00  0.0000000000000D+00
229  2.2800000000000D+00  0.0000000000000D+00  0.0000000000000D+00
230  2.2900000000000D+00  0.0000000000000D+00  0.0000000000000D+00
231  2.3000000000000D+00  0.0000000000000D+00  0.0000000000000D+00
232  2.3100000000000D+00  0.0000000000000D+00  0.0000000000000D+00
233  2.3200000000000D+00  0.0000000000000D+00  0.0000000000000D+00
234  2.3300000000000D+00  0.0000000000000D+00  0.0000000000000D+00
235  2.3400000000000D+00  0.0000000000000D+00  0.0000000000000D+00
236  2.3500000000000D+00  0.0000000000000D+00  0.0000000000000D+00
237  2.3600000000000D+00  0.0000000000000D+00  0.0000000000000D+00
238  2.3700000000000D+00  0.0000000000000D+00  0.0000000000000D+00
239  2.3800000000000D+00  0.0000000000000D+00  0.0000000000000D+00
240  2.3900000000000D+00  0.0000000000000D+00  0.0000000000000D+00
241  2.4000000000000D+00  0.0000000000000D+00  0.0000000000000D+00
242  2.4100000000000D+00  0.0000000000000D+00  0.0000000000000D+00
243  2.4200000000000D+00  0.0000000000000D+00  0.0000000000000D+00
244  2.4300000000000D+00  0.0000000000000D+00  0.0000000000000D+00
245  2.4400000000000D+00  0.0000000000000D+00  0.0000000000000D+00
246  2.4500000000000D+00  0.0000000000000D+00  0.0000000000000D+00
247  2.4600000000000D+00  0.0000000000000D+00  0.0000000000000D+00
248  2.4700000000000D+00  0.0000000000000D+00  0.0000000000000D+00
249  2.4800000000000D+00  0.0000000000000D+00  0.0000000000000D+00
250  2.4900000000000D+00  0.0000000000000D+00  0.0000000000000D+00
251  2.5000000000000D+00  0.0000000000000D+00  0.0000000000000D+00
252  2.5100000000000D+00  0.0000000000000D+00  0.0000000000000D+00
253  2.5200000000000D+00  0.0000000000000D+00  0.0000000000000D+00
254  2.5300000000000D+00  0.0000000000000D+00  0.0000000000000D+00
255  2.5400000000000D+00  0.0000000000000D+00  0.0000000000000D+00
256  2.5500000000000D+00  0.0000000000000D+00  0.0000000000000D+00
257  2.5600000000000D+00  0.0000000000000D+00  0.0000000000000D+00
258  2.5700000000000D+00  0.0000000000000D+00  0.0000000000000D+00
259  2.5800000000000D+00  0.0000000000000D+00  0.0000000000000D+00
260  2.5900000000000D+00  0.0000000000000D+00  0.0000000000000D+00
261  2.6000000000000D+00  0.0000000000000D+00  0.0000000000000D+00
262  2.6100000000000D+00  0.0000000000000D+00  0.0000000000000D+00
263  2.6200000000000D+00  0.0000000000000D+00  0.0000000000000D+00
264  2.6300000000000D+00  0.0000000000000D+00  0.0000000000000D+00
265  2.6400000000000D+00  0.0000000000000D+00  0.0000000000000D+00
266  2.6500000000000D+00  0.0000000000000D+00  0.0000000000000D+00
267  2.6600000000000D+00  0.0000000000000D+00  0.0000000000000D+00
268  2.6700000000000D+00  0.0000000000000D+00  0.0000000000000D+00
269  2.6800000000000D+00  0.0000000000000D+00  0.0000000000000D+00
270  2.6900000000000D+00  0.0000000000000D+00  0.0000000000000D+00
271  2.7000000000000D+00  0.0000000000000D+00  0.0000000000000D+00
272  2.7100000000000D+00  0.0000000000000D+00  0.0000000000000D+00
273  2.7200000000000D+00  0.0000000000000D+00  0.0000000000000D+00
274  2.7300000000000D+00  0.0000000000000D+00  0.0000000000000D+00
275  2.7400000000000D+00  0.0000000000000D+00  0.0000000000000D+00
276  2.7500000000000D+00  0.0000000000000D+00  0.0000000000000D+00
277  2.7600000000000D+00  0.0000000000000D+00  0.0000000000000D+00
278  2.7700000000000D+00  0.0000000000000D+00  0.0000000000000D+00
279  2.7800000000000D+00  0.0000000000000D+00  0.0000000000000D+00
280  2.7900000000000D+00  0.0000000000000D+00  0.0000000000000D+00
281  2.8000000000000D+00  0.0000000000000D+00  0.0000000000000D+00
282  2.8100000000000D+00  0.0000000000000D+00  0.0000000000000D+00
283  2.8200000000000D+00  0.0000000000000D+00  0.0000000000000D+00
284  2.8300000000000D+00  0.0000000000000D+00  0.0000000000000D+00
285  2.8400000000000D+00  0.0000000000000D+00  0.0000000000000D+00
286  2.8500000000000D+00  0.0000000000000D+00  0.0000000000000D+00
287  2.8600000000000D+00  0.0000000000000D+00  0.0000000000000D+00
288  2.8700000000000D+00  0.0000000000000D+00  0.0000000000000D+00
289  2.8800000000000D+00  0.0000000000000D+00  0.0000000000000D+00
290  2.8900000000000D+00  0.0000000000000D+00  0.0000000000000D+00
291  2.9000000000000D+00  0.0000000000000D+00  0.0000000000000D+00
292  2.9100000000000D+00  0.0000000000000D+00  0.0000000000000D+00
293  2.9200000000000D+00  0.0000000000000D+00  0.0000000000000D+00
294  2.9300000000000D+00  0.0000000000000D+00  0.0000000000000D+00
295  2.9400000000000D+00  0.0000000000000D+00  0.0000000000000D+00
296  2.9500000000000D+00  0.0000000000000D+00  0.0000000000000D+00
297  2.9600000000000D+00  0.0000000000000D+00  0.0000000000000D+00
298  2.9700000000000D+00  0.0000000000000D+00  0.0000000000000D+00
299  2.9800000000000D+00  0.0000000000000D+00  0.0000000000000D+00
300  2.9900000000000D+00  0.0000000000000D+00  0.0000000000000D+00
301  3.0000000000000D+00  0.0000000000000D+00  0.0000000000000D+00
302  3.0100000000000D+00  0.0000000000000D+00  0.0000000000000D+00
303  3.0200000000000D+00  0.0000000000000D+00  0.0000000000000D+00
304  3.0300000000000D+00  0.0000000000000D+00  0.0000000000000D+00
305  3.0400000000000D+00  0.0000000000000D+00  0.0000000000000D+00
306  3.0500000000000D+00  0.0000000000000D+00  0.0000000000000D+00
307  3.0600000000000D+00  0.0000000000000D+00  0.0000000000000D+00
308  3.0700000000000D+00  0.0000000000000D+00  0.0000000000000D+00
309  3.0800000000000D+00  0.0000000000000D+00  0.0000000000000D+00
310  3.0900000000000D+00  0.0000000000000D+00  0.0000000000000D+00
311  3.1000000000000D+00  0.0000000000000D+00  0.0000000000000D+00
312  3.1100000000000D+00  0.0000000000000D+00  0.0000000000000D+00
313  3.1200000000000D+00  0.0000000000000D+00  0.0000000000000D+00
314  3.1300000000000D+00  0.0000000000000D+00  0.0000000000000D+00
315  3.1400000000000D+00  0.0000000000000D+00  0.0000000000000D+00
316  3.1500000000000D+00  0.0000000000000D+00  0.0000000000000D+00
317  3.1600000000000D+00  0.0000000000000D+00  0.0000000000000D+00
318  3.1700000000000D+00  0.0000000000000D+00  0.0000000000000D+00
319  3.1800000000000D+00  0.0000000000000D+00  0.0000000000000D+00
320  3.1900000000000D+00  0.0000000000000D+00  0.0000000000000D+00
321  3.2000000000000D+00  0.0000000000000D+00  0.0000000000000D+00
322  3.2100000000000D+00  0.0000000000000D+00  0.0000000000000D+00
323  3.2200000000000D+00  0.0000000000000D+00  0.0000000000000D+00
324  3.2300000000000D+00  0.0000000000000D+00  0.0000000000000D+00
325  3.2400000000000D+00  0.0000000000000D+00  0.0000000000000D+00
326  3.2500000000000D+00  0.0000000000000D+00  0.0000000000000D+00
327  3.2600000000000D+00  0.0000000000000D+00  0.0000000000000D+00
328  3.2700000000000D+00  0.0000000000000D+00  0.0000000000000D+00
329  3.2800000000000D+00  0.0000000000000D+00  0.0000000000000D+00
330  3.2900000000000D+00  0.0000000000000D+00  0.0000000000000D+00
331  3.3000000000000D+00  0.0000000000000D+00  0.0000000000000D+00
332  3.3100000000000D+00  0.0000000000000D+00  0.0000000000000D+00
333  3.3200000000000D+00  0.0000000000000D+00  0.0000000000000D+00
334  3.3300000000000D+00  0.0000000000000D+00  0.0000000000000D+00
335  3.3400000000000D+00  0.0000000000000D+00  0.0000000000000D+00
336  3.3500000000000D+00  0.0000000000000D+00  0.0000000000000D+00
337  3.3600000000000D+00  0.0000000000000D+00  0.0000000000000D+00
338  3.3700000000000D+00  0.0000000000000D+00  0.0000000000000D+00
339  3.3800000000000D+00  0.0000000000000D+00  0.0000000000000D+00
340  3.3900000000000D+00  0.0000000000000D+00  0.0000000000000D+00
341  3.4000000000000D+00  0.0000000000000D+00  0.0000000000000D+00
342  3.4100000000000D+00  0.0000000000000D+00  0.0000000000000D+00
343  3.4200000000000D+00  0.0000000000000D+00  0.0000000000000D+00
344  3.4300000000000D+00  0.0000000000000D+00  0.0000000000000D+00
345  3.4400000000000D+00  0.0000000000000D+00  0.0000000000000D+00
346  3.4500000000000D+00  0.0000000000000D+00  0.0000000000000D+00
347  3.4600000000000D+00  0.0000000000000D+00  0.0000000000000D+00
348  3.4700000000000D+00  0.0000000000000D+00  0.0000000000000D+00
349  3.4800000000000D+00  0.0000000000000D+00  0.0000000000000D+00
350  3.4900000000000D+00  0.0000000000000D+00  0.0000000000000D+00
351  3.5000000000000D+00  0.0000000000000D+00  0.0000000000000D+00
352  3.5100000000000D+00  0.0000000000000D+00  0.0000000000000D+00
353  3.5200000000000D+00  0.0000000000000D+00  0.0000000000000D+00
354  3.5300000000000D+00  0.0000000000000D+00  0.0000000000000D+00
355  3.5400000000000D+00  0.0000000000000D+00  0.0000000000000D+00
356  3.5500000000000D+00  0.0000000000000D+00  0.0000000000000D+00
357  3.5600000000000D+00  0.0000000000000D+00  0.0000000000000D+00
358  3.5700000000000D+00  0.0000000000000D+00  0.0000000000000D+00
359  3.5800000000000D+00  0.0000000000000D+00  0.0000000000000D+00
360  3.5900000000000D+00  0.0000000000000D+00  0.0000000000000D+00
361  3.6000000000000D+00  0.0000000000000D+00  0.0000000000000D+00
362  3.6100000000000D+00  0.0000000000000D+00  0.0000000000000D+00
363  3.6200000000000D+00  0.0000000000000D+00  0.0000000000000D+00
364  3.6300000000000D+00  0.0000000000000D+00  0.0000000000000D+00
365  3.6400000000000D+00  0.0000000000000D+00  0.0000000000000D+00
366  3.6500000000000D+00  0.0000000000000D+00  0.0000000000000D+00
367  3.6600000000000D+00  0.0000000000000D+00  0.0000000000000D+00
368  3.6700000000000D+00  0.0000000000000D+00  0.0000000000000D+00
369  3.6800000000000D+00  0.0000000000000D+00  0.0000000000000D+00
370  3.6900000000000D+00  0.0000000000000D+00  0.0000000000000D+00
371  3.7000000000000D+00  0.0000000000000D+00  0.0000000000000D+00
372  3.7100000000000D+00  0.0000000000000D+00  0.0000000000000D+00
373  3.7200000000000D+00  0.0000000000000D+00  0.0000000000000D+00
374  3.7300000000000D+00  0.0000000000000D+00  0.0000000000000D+00
375  3.7400000000000D+00  0.0000000000000D+00  0.0000000000000D+00
376  3.7500000000000D+00  0.0000000000000D+00  0.0000000000000D+00
377  3.7600000000000D+00  0.0000000000000D+00  0.0000000000000D+00
378  3.7700000000000D+00  0.0000000000000D+00  0.0000000000000D+00
379  3.7800000000000D+00  0.0000000000000D+00  0.0000000000000D+00
380  3.7900000000000D+00  0.0000000000000D+00  0.0000000000000D+00
381  3.8000000000000D+00  0.0000000000000D+00  0.0000000000000D+00
382  3.8100000000000D+00  0.0000000000000D+00  0.0000000000000D+00
383  3.8200000000000D+00  0.0000000000000D+00  0.0000000000000D+00
384  3.8300000000000D+00  0.0000000000000D+00  0.0000000000000D+00
385  3.8400000000000D+00  0.0000000000000D+00  0.0000000000000D+00
386  3.8500000000000D+00  0.0000000000000D+00  0.0000000000000D+00
387  3.8600000000000D+00  0.0000000000000D+00  0.0000000000000D+00
388  3.8700000000000D+00  0.0000000000000D+00  0.0000000000000D+00
389  3.8800000000000D+00  0.0000000000000D+00  0.0000000000000D+00
390  3.8900000000000D+00  0.0000000000000D+00  0.0000000000000D+00
391  3.9000000000000D+00  0.0000000000000D+00  0.0000000000000D+00
392  3.9100000000000D+00  0.0000000000000D+00  0.0000000000000D+00
393  3.9200000000000D+00  0.0000000000000D+00  0.0000000000000D+00
394  3.9300000000000D+00  0.0000000000000D+00  0.0000000000000D+00
395  3.9400000000000D+00  0.0000000000000D+00  0.0000000000000D+00
396  3.9500000000000D+00  0.0000000000000D+00  0.0000000000000D+00
397  3.9600000000000D+00  0.0000000000000D+00  0.0000000000000D+00
398  3.9700000000000D+00  0.0000000000000D+00  0.0000000000000D+00
399  3.9800000000000D+00  0.0000000000000D+00  0.0000000000000D+00
400  3.9900000000000D+00  0.0000000000000D+00  0.0000000000000D+00
401  4.0000000000000D+00  0.0000000000000D+00  0.0000000000000D+00
402  4.0100000000000D+00  0.0000000000000D+00  0.0000000000000D+00
403  4.0200000000000D+00  0.0000000000000D+00  0.0000000000000D+00
404  4.0300000000000D+00  0.0000000000000D+00  0.0000000000000D+00
405  4.0400000000000D+00  0.0000000000000D+00  0.0000000000000D+00
406  4.0500000000000D+00  0.0000000000000D+00  0.0000000000000D+00
407  4.0600000000000D+00  0.0000000000000D+00  0.0000000000000D+00
408  4.0700000000000D+00  0.0000000000000D+00  0.0000000000000D+00
409  4.0800000000000D+00  0.0000000000000D+00  0.0000000000000D+00
410  4.0900000000000D+00  0.0000000000000D+00  0.0000000000000D+00
411  4.1000000000000D+00  0.0000000000000D+00  0.0000000000000D+00
412  4.1100000000000D+00  0.0000000000000D+00  0.0000000000000D+00
413  4.1200000000000D+00  0.0000000000000D+00  0.0000000000000D+00
414  4.1300000000000D+00  0.0000000000000D+00  0.0000000000000D+00
415  4.1400000000000D+00  0.0000000000000D+00  0.0000000000000D+00
416  4.1500000000000D+00  0.0000000000000D+00  0.0000000000000D+00
417  4.1600000000000D+00  0.0000000000000D+00  0.0000000000000D+00
418  4.1700000000000D+00  0.0000000000000D+00  0.0000000000000D+00
419  4.1800000000000D+00  0.0000000000000D+00  0.0000000000000D+00
420  4.1900000000000D+00  0.0000000000000D+00  0.0000000000000D+00
421  4.2000000000000D+00  0.0000000000000D+00  0.0000000000000D+00
422  4.2100000000000D+00  0.0000000000000D+00  0.0000000000000D+00
423  4.2200000000000D+00  0.0000000000000D+00  0.0000000000000D+00
424  4.2300000000000D+00  0.0000000000000D+00  0.0000000000000D+00
425  4.2400000000000D+00  0.0000000000000D+00  0.0000000000000D+00
426  4.2500000000000D+00  0.0000000000000D+00  0.0000000000000D+00
427  4.2600000000000D+00  0.0000000000000D+00  0.0000000000000D+00
428  4.2700000000000D+00  0.0000000000000D+00  0.0000000000000D+00
429  4.2800000000000D+00  0.0000000000000D+00  0.0000000000000D+00
430  4.2900000000000D+00  0.0000000000000D+00  0.0000000000000D+00
431  4.3000000000000D+00  0.0000000000000D+00  0.0000000000000D+00
432  4.3100000000000D+00  0.0000000000000D+00  0.0000000000000D+00
433  4.3200000000000D+00  0.0000000000000D+00  0.0000000000000D+00
434  4.3300000000000D+00  0.0000000000000D+00  0.0000000000000D+00
435  4.3400000000000D+00  0.0000000000000D+00  0.0000000000000D+00
436  4.3500000000000D+00  0.0000000000000D+00  0.0000000000000D+00
437  4.3600000000000D+00  0.0000000000000D+00  0.0000000000000D+00
438  4.3700000000000D+00  0.0000000000000D+00  0.0000000000000D+00
439  4.3800000000000D+00  0.0000000000000D+00  0.0000000000000D+00
440  4.3900000000000D+00  0.0000000000000D+00  0.0000000000000D+00
441  4.4000000000000D+00  0.0000000000000D+00  0.0000000000000D+00
442  4.4100000000000D+00  0.0000000000000D+00  0.0000000000000D+00
443  4.4200000000000D+00  0.0000000000000D+00  0.0000000000000D+00