Re    ONCVPSP  r_core=  2.56  2.17  2.17
75.0000     13.0000      150810    zatom,zion,pspd
8      11   2     4   600     0    pspcod,pspxc,lmax,lloc,mmax,r2well
5.99000000  4.00000000  0.00000000    rchrg fchrg qchrg
2     2     2     0     0    nproj
1                 extension_switch
0                         4.1650587286807D+00  4.9944150259084D-01
1  0.0000000000000D+00 -1.6632806243422D-12  2.0355106489234D-12
2  1.0000000000000D-02  2.1918834149971D-02 -2.4156190414064D-02
3  2.0000000000000D-02  4.3809224143386D-02 -4.8264598136992D-02
4  3.0000000000000D-02  6.5642801691579D-02 -7.2277555335918D-02
5  4.0000000000000D-02  8.7391350042507D-02 -9.6147623616279D-02
6  5.0000000000000D-02  1.0902687925160D-01 -1.1982770804593D-01
7  6.0000000000000D-02  1.3052170085685D-01 -1.4327117034668D-01
8  7.0000000000000D-02  1.5184850176142D-01 -1.6643194097813D-01
9  8.0000000000000D-02  1.7298041712893D-01 -1.8926462984088D-01
10  9.0000000000000D-02  1.9389110209847D-01 -2.1172463532871D-01
11  1.0000000000000D-01  2.1455480212894D-01 -2.3376825146243D-01
12  1.1000000000000D-01  2.3494642178533D-01 -2.5535277284196D-01
13  1.2000000000000D-01  2.5504159178279D-01 -2.7643659715719D-01
14  1.3000000000000D-01  2.7481673410804D-01 -2.9697932500289D-01
15  1.4000000000000D-01  2.9424912504197D-01 -3.1694185674830D-01
16  1.5000000000000D-01  3.1331695591158D-01 -3.3628648621775D-01
17  1.6000000000000D-01  3.3199939140458D-01 -3.5497699094477D-01
18  1.7000000000000D-01  3.5027662528511D-01 -3.7297871876908D-01
19  1.8000000000000D-01  3.6812993335492D-01 -3.9025867055322D-01
20  1.9000000000000D-01  3.8554172351022D-01 -4.0678557880319D-01
21  2.0000000000000D-01  4.0249558275113D-01 -4.2252998198589D-01
22  2.1000000000000D-01  4.1897632100730D-01 -4.3746429434504D-01
23  2.2000000000000D-01  4.3497001165054D-01 -4.5156287102647D-01
24  2.3000000000000D-01  4.5046402857284D-01 -4.6480206833351D-01
25  2.4000000000000D-01  4.6544707971597D-01 -4.7716029894348D-01
26  2.5000000000000D-01  4.7990923694719D-01 -4.8861808192714D-01
27  2.6000000000000D-01  4.9384196218398D-01 -4.9915808742412D-01
28  2.7000000000000D-01  5.0723812967970D-01 -5.0876517583890D-01
29  2.8000000000000D-01  5.2009204439095D-01 -5.1742643143436D-01
30  2.9000000000000D-01  5.3239945635722D-01 -5.2513119021213D-01
31  3.0000000000000D-01  5.4415757103258D-01 -5.3187106198215D-01
32  3.1000000000000D-01  5.5536505551962D-01 -5.3763994653711D-01
33  3.2000000000000D-01  5.6602204066552D-01 -5.4243404386122D-01
34  3.3000000000000D-01  5.7613011899081D-01 -5.4625185831672D-01
35  3.4000000000000D-01  5.8569233843178D-01 -5.4909419676619D-01
36  3.5000000000000D-01  5.9471319188843D-01 -5.5096416060325D-01
37  3.6000000000000D-01  6.0319860258030D-01 -5.5186713167926D-01
38  3.7000000000000D-01  6.1115590522419D-01 -5.5181075212896D-01
39  3.8000000000000D-01  6.1859382305826D-01 -5.5080489811361D-01
40  3.9000000000000D-01  6.2552244074861D-01 -5.4886164751546D-01
41  4.0000000000000D-01  6.3195317322561D-01 -5.4599524163367D-01
42  4.1000000000000D-01  6.3789873050838D-01 -5.4222204094758D-01
43  4.2000000000000D-01  6.4337307858746D-01 -5.3756047502927D-01
44  4.3000000000000D-01  6.4839139644662D-01 -5.3203098670339D-01
45  4.4000000000000D-01  6.5297002931615D-01 -5.2565597056873D-01
46  4.5000000000000D-01  6.5712643826129D-01 -5.1845970601153D-01
47  4.6000000000000D-01  6.6087914622003D-01 -5.1046828485712D-01
48  4.7000000000000D-01  6.6424768061593D-01 -5.0170953382193D-01
49  4.8000000000000D-01  6.6725251268183D-01 -4.9221293194396D-01
50  4.9000000000000D-01  6.6991499364134D-01 -4.8200952318519D-01
51  5.0000000000000D-01  6.7225728790457D-01 -4.7113182441468D-01
52  5.1000000000000D-01  6.7430230344543D-01 -4.5961372899617D-01
53  5.2000000000000D-01  6.7607361953664D-01 -4.4749040621859D-01
54  5.3000000000000D-01  6.7759541202857D-01 -4.3479819682184D-01
55  5.4000000000000D-01  6.7889237636675D-01 -4.2157450488462D-01
56  5.5000000000000D-01  6.7998964855145D-01 -4.0785768635336D-01
57  5.6000000000000D-01  6.8091272425087D-01 -3.9368693450498D-01
58  5.7000000000000D-01  6.8168737628743D-01 -3.7910216264769D-01
59  5.8000000000000D-01  6.8233957072328D-01 -3.6414388437546D-01
60  5.9000000000000D-01  6.8289538177835D-01 -3.4885309170300D-01
61  6.0000000000000D-01  6.8338090581999D-01 -3.3327113141760D-01
62  6.1000000000000D-01  6.8382217466888D-01 -3.1743957999332D-01
63  6.2000000000000D-01  6.8424506847078D-01 -3.0140011742189D-01
64  6.3000000000000D-01  6.8467522838782D-01 -2.8519440032130D-01
65  6.4000000000000D-01  6.8513796936676D-01 -2.6886393469035D-01
66  6.5000000000000D-01  6.8565819324429D-01 -2.5244994868219D-01
67  6.6000000000000D-01  6.8626030245198D-01 -2.3599326577522D-01
68  6.7000000000000D-01  6.8696811458434D-01 -2.1953417872210D-01
69  6.8000000000000D-01  6.8780477809470D-01 -2.0311232466107D-01
70  6.9000000000000D-01  6.8879268938323D-01 -1.8676656177423D-01
71  7.0000000000000D-01  6.8995341154033D-01 -1.7053484787778D-01
72  7.1000000000000D-01  6.9130759500751D-01 -1.5445412132842D-01
73  7.2000000000000D-01  6.9287490041463D-01 -1.3856018462705D-01
74  7.3000000000000D-01  6.9467392384983D-01 -1.2288759109847D-01
75  7.4000000000000D-01  6.9672212481354D-01 -1.0746953502007D-01
76  7.5000000000000D-01  6.9903575710382D-01 -9.2337745567368D-02
77  7.6000000000000D-01  7.0162980287370D-01 -7.7522384936269D-02
78  7.7000000000000D-01  7.0451791009515D-01 -6.3051950994328D-02
79  7.8000000000000D-01  7.0771233365668D-01 -4.8953184802824D-02
80  7.9000000000000D-01  7.1122388031320D-01 -3.5250983341120D-02
81  8.0000000000000D-01  7.1506185769795D-01 -2.1968317752282D-02
82  8.1000000000000D-01  7.1923402759638D-01 -9.1261574158450D-03
83  8.2000000000000D-01  7.2374656367127D-01  3.2565998612163D-03
84  8.3000000000000D-01  7.2860401381706D-01  1.5163191259640D-02
85  8.4000000000000D-01  7.3380926730945D-01  2.6579045710435D-02
86  8.5000000000000D-01  7.3936352690324D-01  3.7491833764277D-02
87  8.6000000000000D-01  7.4526628601831D-01  4.7891510345766D-02
88  8.7000000000000D-01  7.5151531113953D-01  5.7770350190704D-02
89  8.8000000000000D-01  7.5810662954150D-01  6.7122975785758D-02
90  8.9000000000000D-01  7.6503452243414D-01  7.5946377651417D-02
91  9.0000000000000D-01  7.7229152360915D-01  8.4239926831991D-02
92  9.1000000000000D-01  7.7986842365134D-01  9.2005379479975D-02
93  9.2000000000000D-01  7.8775427976216D-01  9.9246873446224D-02
94  9.3000000000000D-01  7.9593643122545D-01  1.0597091681254D-01
95  9.4000000000000D-01  8.0440052052861D-01  1.1218636832826D-01
96  9.5000000000000D-01  8.1313052013418D-01  1.1790440973893D-01
97  9.6000000000000D-01  8.2210876487922D-01  1.2313851002137D-01
98  9.7000000000000D-01  8.3131598996201D-01  1.2790438156584D-01
99  9.8000000000000D-01  8.4073137445688D-01  1.3221992837377D-01
100  9.9000000000000D-01  8.5033259028033D-01  1.3610518636566D-01
101  1.0000000000000D+00  8.6009585651296D-01  1.3958225592207D-01
102  1.0100000000000D+00  8.6999599896383D-01  1.4267522680699D-01
103  1.0200000000000D+00  8.8000651484577D-01  1.4541009565008D-01
104  1.0300000000000D+00  8.9009964241186D-01  1.4781467619224D-01
105  1.0400000000000D+00  9.0024643538694D-01  1.4991850252308D-01
106  1.0500000000000D+00  9.1041684200923D-01  1.5175272556781D-01
107  1.0600000000000D+00  9.2057978848104D-01  1.5335000310498D-01
108  1.0700000000000D+00  9.3070326661133D-01  1.5474438362182D-01
109  1.0800000000000D+00  9.4075442541562D-01  1.5597118433937D-01
110  1.0900000000000D+00  9.5069966642580D-01  1.5706686376029D-01
111  1.1000000000000D+00  9.6050474244475D-01  1.5806888911847D-01
112  1.1100000000000D+00  9.7013485946871D-01  1.5901559912872D-01
113  1.1200000000000D+00  9.7955478148560D-01  1.5994606245655D-01
114  1.1300000000000D+00  9.8872893784617D-01  1.6089993234672D-01
115  1.1400000000000D+00  9.9762153289272D-01  1.6191729786693D-01
116  1.1500000000000D+00  1.0061966575185D+00  1.6303853224190D-01
117  1.1600000000000D+00  1.0144184023219D+00  1.6430413876679D-01
118  1.1700000000000D+00  1.0222509720109D+00  1.6575459480222D-01
119  1.1800000000000D+00  1.0296588007057D+00  1.6743019436662D-01
120  1.1900000000000D+00  1.0366066677781D+00  1.6937088985274D-01
121  1.2000000000000D+00  1.0430598138645D+00  1.7161613340330D-01
122  1.2100000000000D+00  1.0489840566833D+00  1.7420471848646D-01
123  1.2200000000000D+00  1.0543459062818D+00  1.7717462222115D-01
124  1.2300000000000D+00  1.0591126793402D+00  1.8056284900233D-01
125  1.2400000000000D+00  1.0632526121566D+00  1.8440527597899D-01
126  1.2500000000000D+00  1.0667349719363D+00  1.8873650093896D-01
127  1.2600000000000D+00  1.0695301660143D+00  1.9358969314986D-01
128  1.2700000000000D+00  1.0716098486399D+00  1.9899644770281D-01
129  1.2800000000000D+00  1.0729470249550D+00  2.0498664390202D-01
130  1.2900000000000D+00  1.0735161518089D+00  2.1158830822866D-01
131  1.3000000000000D+00  1.0732932350548D+00  2.1882748240303D-01
132  1.3100000000000D+00  1.0722559229785D+00  2.2672809706044D-01
133  1.3200000000000D+00  1.0703835955296D+00  2.3531185152685D-01
134  1.3300000000000D+00  1.0676574490246D+00  2.4459810018435D-01
135  1.3400000000000D+00  1.0640605760048D+00  2.5460374589143D-01
136  1.3500000000000D+00  1.0595780399613D+00  2.6534314088347D-01
137  1.3600000000000D+00  1.0541969446203D+00  2.7682799560339D-01
138  1.3700000000000D+00  1.0479064975320D+00  2.8906729584253D-01
139  1.3800000000000D+00  1.0406980677085D+00  3.0206722855922D-01
140  1.3900000000000D+00  1.0325652370525D+00  3.1583111675886D-01
141  1.4000000000000D+00  1.0235038453876D+00  3.3035936370612D-01
142  1.4100000000000D+00  1.0135120288636D+00  3.4564940680030D-01
143  1.4200000000000D+00  1.0025902515618D+00  3.6169568136568D-01
144  1.4300000000000D+00  9.9074133016509D-01  3.7848959454811D-01
145  1.4400000000000D+00  9.7797045150265D-01  3.9601950959148D-01
146  1.4500000000000D+00  9.6428518291792D-01  4.1427074055856D-01
147  1.4600000000000D+00  9.4969547531154D-01  4.3322555770520D-01
148  1.4700000000000D+00  9.3421365881848D-01  4.5286320355507D-01
149  1.4800000000000D+00  9.1785443108337D-01  4.7315991971329D-01
150  1.4900000000000D+00  9.0063483806084D-01  4.9408898451496D-01
151  1.5000000000000D+00  8.8257424743565D-01  5.1562076134629D-01
152  1.5100000000000D+00  8.6369431457305D-01  5.3772275775951D-01
153  1.5200000000000D+00  8.4401894117166D-01  5.6035969510025D-01
154  1.5300000000000D+00  8.2357422659964D-01  5.8349358866041D-01
155  1.5400000000000D+00  8.0238841207764D-01  6.0708383808859D-01
156  1.5500000000000D+00  7.8049181781557D-01  6.3108732787721D-01
157  1.5600000000000D+00  7.5791677323332D-01  6.5545853770967D-01
158  1.5700000000000D+00  7.3469754050453D-01  6.8014966228347D-01
159  1.5800000000000D+00  7.1087023151944D-01  7.0511074044515D-01
160  1.5900000000000D+00  6.8647271863072D-01  7.3028979306154D-01
161  1.6000000000000D+00  6.6154453925494D-01  7.5563296949840D-01
162  1.6100000000000D+00  6.3612679479172D-01  7.8108470198116D-01
163  1.6200000000000D+00  6.1026204394574D-01  8.0658786768882D-01
164  1.6300000000000D+00  5.8399419096002D-01  8.3208395778533D-01
165  1.6400000000000D+00  5.5736836890342D-01  8.5751325315069D-01
166  1.6500000000000D+00  5.3043081852789D-01  8.8281500600551D-01
167  1.6600000000000D+00  5.0322876290824D-01  9.0792762708439D-01
168  1.6700000000000D+00  4.7581027838242D-01  9.3278887754864D-01
169  1.6800000000000D+00  4.4822416206404D-01  9.5733606520335D-01
170  1.6900000000000D+00  4.2051979645075D-01  9.8150624420208D-01
171  1.7000000000000D+00  3.9274701144639D-01  1.0052364177329D+00
172  1.7100000000000D+00  3.6495594432781D-01  1.0284637428601D+00
173  1.7200000000000D+00  3.3719689800982D-01  1.0511257369601D+00
174  1.7300000000000D+00  3.0952019814339D-01  1.0731604849223D+00
175  1.7400000000000D+00  2.8197604943142D-01  1.0945068465052D+00
176  1.7500000000000D+00  2.5461439168991D-01  1.1151046630334D+00
177  1.7600000000000D+00  2.2748475607420D-01  1.1348949627705D+00
178  1.7700000000000D+00  2.0063612196825D-01  1.1538201642044D+00
179  1.7800000000000D+00  1.7411677500883D-01  1.1718242764959D+00
180  1.7900000000000D+00  1.4797416667667D-01  1.1888530964385D+00
181  1.8000000000000D+00  1.2225477600380D-01  1.2048544010548D+00
182  1.8100000000000D+00  9.7003973733881D-02  1.2197781353332D+00
183  1.8200000000000D+00  7.2265889559180D-02  1.2335765941128D+00
184  1.8300000000000D+00  4.8083282690541D-02  1.2462045977496D+00
185  1.8400000000000D+00  2.4497416406794D-02  1.2576196605397D+00
186  1.8500000000000D+00  1.5479368194795D-03  1.2677821515620D+00
187  1.8600000000000D+00 -2.0727243568703D-02  1.2766554470329D+00
188  1.8700000000000D+00 -4.2292057199298D-02  1.2842060737067D+00
189  1.8800000000000D+00 -6.3112387304809D-02  1.2904038427375D+00
190  1.8900000000000D+00 -8.3156167744081D-02  1.2952219731918D+00
191  1.9000000000000D+00 -1.0239347679294D-01  1.2986372051976D+00
192  1.9100000000000D+00 -1.2079662403835D-01  1.3006299013832D+00
193  1.9200000000000D+00 -1.3834023073633D-01  1.3011841372303D+00
194  1.9300000000000D+00 -1.5500130257260D-01  1.3002877786587D+00
195  1.9400000000000D+00 -1.7075929527558D-01  1.2979325476067D+00
196  1.9500000000000D+00 -1.8559617228129D-01  1.2941140743500D+00
197  1.9600000000000D+00 -1.9949645448833D-01  1.2888319366573D+00
198  1.9700000000000D+00 -2.1244726199980D-01  1.2820896856496D+00
199  1.9800000000000D+00 -2.2443834715509D-01  1.2738948572779D+00
200  1.9900000000000D+00 -2.3546211964599D-01  1.2642589707298D+00
201  2.0000000000000D+00 -2.4551366236030D-01  1.2531975116203D+00
202  2.0100000000000D+00 -2.5459073908415D-01  1.2407299018161D+00
203  2.0200000000000D+00 -2.6269379310395D-01  1.2268794543896D+00
204  2.0300000000000D+00 -2.6982593700136D-01  1.2116733142059D+00
205  2.0400000000000D+00 -2.7599293395066D-01  1.1951423846731D+00
206  2.0500000000000D+00 -2.8120316960510D-01  1.1773212392265D+00
207  2.0600000000000D+00 -2.8546761593800D-01  1.1582480197651D+00
208  2.0700000000000D+00 -2.8879978576444D-01  1.1379643200385D+00
209  2.0800000000000D+00 -2.9121567900114D-01  1.1165150557054D+00
210  2.0900000000000D+00 -2.9273372055610D-01  1.0939483209247D+00
211  2.1000000000000D+00 -2.9337468915433D-01  1.0703152276295D+00
212  2.1100000000000D+00 -2.9316164014036D-01  1.0456697492010D+00
213  2.1200000000000D+00 -2.9211981602793D-01  1.0200685097423D+00
214  2.1300000000000D+00 -2.9027655526281D-01  9.9357061857631D-01
215  2.1400000000000D+00 -2.8766119360348D-01  9.6623749380466D-01
216  2.1500000000000D+00 -2.8430494850104D-01  9.3813260037305D-01
217  2.1600000000000D+00 -2.8024079133439D-01  9.0932102320421D-01
218  2.1700000000000D+00 -2.7550334875267D-01  8.7986954485570D-01
219  2.1800000000000D+00 -2.7012879126551D-01  8.4984660210478D-01
220  2.1900000000000D+00 -2.6415471462321D-01  8.1932222870751D-01
221  2.2000000000000D+00 -2.5762003635280D-01  7.8836800780706D-01
222  2.2100000000000D+00 -2.5056489680383D-01  7.5705722255960D-01
223  2.2200000000000D+00 -2.4303053035215D-01  7.2546463172315D-01
224  2.2300000000000D+00 -2.3505913075665D-01  6.9366620714280D-01
225  2.2400000000000D+00 -2.2669371428490D-01  6.6173880418590D-01
226  2.2500000000000D+00 -2.1797799037138D-01  6.2976006838166D-01
227  2.2600000000000D+00 -2.0895622248426D-01  5.9780817848758D-01
228  2.2700000000000D+00 -1.9967308853669D-01  5.6596161474476D-01
229  2.2800000000000D+00 -1.9017354108653D-01  5.3429894333721D-01
230  2.2900000000000D+00 -1.8050266587919D-01  5.0289858667929D-01
231  2.3000000000000D+00 -1.7070554009830D-01  4.7183859603126D-01
232  2.3100000000000D+00 -1.6082709060850D-01  4.4119642427275D-01
233  2.3200000000000D+00 -1.5091195250756D-01  4.1104869933826D-01
234  2.3300000000000D+00 -1.4100432867416D-01  3.8147099934540D-01
235  2.3400000000000D+00 -1.3114785048298D-01  3.5253762972959D-01
236  2.3500000000000D+00 -1.2138544006013D-01  3.2432140296340D-01
237  2.3600000000000D+00 -1.1175917498861D-01  2.9689342223024D-01
238  2.3700000000000D+00 -1.0231015518585D-01  2.7032286868492D-01
239  2.3800000000000D+00 -9.3078372720091D-02  2.4467679346688D-01
240  2.3900000000000D+00 -8.4102585304203D-02  2.2001991560456D-01
241  2.4000000000000D+00 -7.5420192911672D-02  1.9641442499161D-01
242  2.4100000000000D+00 -6.7067118776361D-02  1.7391979237045D-01
243  2.4200000000000D+00 -5.9077695081311D-02  1.5259258680799D-01
244  2.4300000000000D+00 -5.1484552629519D-02  1.3248629958972D-01
245  2.4400000000000D+00 -4.4318516331648D-02  1.1365117736739D-01
246  2.4500000000000D+00 -3.7608506172839D-02  9.6134064052715D-02
247  2.4600000000000D+00 -3.1381442914871D-02  7.9978250311893D-02
248  2.4700000000000D+00 -2.5662160960756D-02  6.5223334432298D-02
249  2.4800000000000D+00 -2.0477945258800D-02  5.1916648233690D-02
250  2.4900000000000D+00 -1.5841372250917D-02  4.0070389269174D-02
251  2.5000000000000D+00 -1.1767321428692D-02  2.9704249068483D-02
252  2.5100000000000D+00 -8.2538389005574D-03  2.0797634405926D-02
253  2.5200000000000D+00 -5.3577475680968D-03  1.3478724917814D-02
254  2.5300000000000D+00 -3.1122011472967D-03  7.8184077968644D-03
255  2.5400000000000D+00 -1.5450717135158D-03  3.8763609647475D-03
256  2.5500000000000D+00 -5.6270575762392D-04  1.4100771246130D-03
257  2.5600000000000D+00 -4.8915444225579D-05  1.2268159227645D-04
258  2.5700000000000D+00  1.3331542478089D-04 -3.3327227450049D-04
259  2.5800000000000D+00  1.1706719990969D-04 -2.9249922032315D-04
260  2.5900000000000D+00  2.2340440829572D-05 -5.5783331929222D-05
261  2.6000000000000D+00 -3.5771783857160D-05  8.9530845293214D-05
262  2.6100000000000D+00 -4.2059878313173D-05  1.0524756785526D-04
263  2.6200000000000D+00 -1.3149259327663D-05  3.2897723935519D-05
264  2.6300000000000D+00  5.4734794470215D-06 -1.3743404668106D-05
265  2.6400000000000D+00  8.0004719018877D-06 -2.0088729157269D-05
266  2.6500000000000D+00  3.5766855371889D-06 -8.9809498386768D-06
267  2.6600000000000D+00  4.6234161565787D-09 -1.2011849301917D-08
268  2.6700000000000D+00  8.4801540485820D-09 -2.2031832964824D-08
269  2.6800000000000D+00  4.9476091559696D-09 -1.2854117728885D-08
270  2.6900000000000D+00  0.0000000000000D+00  0.0000000000000D+00
271  2.7000000000000D+00  0.0000000000000D+00  0.0000000000000D+00
272  2.7100000000000D+00  0.0000000000000D+00  0.0000000000000D+00
273  2.7200000000000D+00  0.0000000000000D+00  0.0000000000000D+00
274  2.7300000000000D+00  0.0000000000000D+00  0.0000000000000D+00
275  2.7400000000000D+00  0.0000000000000D+00  0.0000000000000D+00
276  2.7500000000000D+00  0.0000000000000D+00  0.0000000000000D+00
277  2.7600000000000D+00  0.0000000000000D+00  0.0000000000000D+00
278  2.7700000000000D+00  0.0000000000000D+00  0.0000000000000D+00
279  2.7800000000000D+00  0.0000000000000D+00  0.0000000000000D+00
280  2.7900000000000D+00  0.0000000000000D+00  0.0000000000000D+00
281  2.8000000000000D+00  0.0000000000000D+00  0.0000000000000D+00
282  2.8100000000000D+00  0.0000000000000D+00  0.0000000000000D+00
283  2.8200000000000D+00  0.0000000000000D+00  0.0000000000000D+00
284  2.8300000000000D+00  0.0000000000000D+00  0.0000000000000D+00
285  2.8400000000000D+00  0.0000000000000D+00  0.0000000000000D+00
286  2.8500000000000D+00  0.0000000000000D+00  0.0000000000000D+00
287  2.8600000000000D+00  0.0000000000000D+00  0.0000000000000D+00
288  2.8700000000000D+00  0.0000000000000D+00  0.0000000000000D+00
289  2.8800000000000D+00  0.0000000000000D+00  0.0000000000000D+00
290  2.8900000000000D+00  0.0000000000000D+00  0.0000000000000D+00
291  2.9000000000000D+00  0.0000000000000D+00  0.0000000000000D+00
292  2.9100000000000D+00  0.0000000000000D+00  0.0000000000000D+00
293  2.9200000000000D+00  0.0000000000000D+00  0.0000000000000D+00
294  2.9300000000000D+00  0.0000000000000D+00  0.0000000000000D+00
295  2.9400000000000D+00  0.0000000000000D+00  0.0000000000000D+00
296  2.9500000000000D+00  0.0000000000000D+00  0.0000000000000D+00
297  2.9600000000000D+00  0.0000000000000D+00  0.0000000000000D+00
298  2.9700000000000D+00  0.0000000000000D+00  0.0000000000000D+00
299  2.9800000000000D+00  0.0000000000000D+00  0.0000000000000D+00
300  2.9900000000000D+00  0.0000000000000D+00  0.0000000000000D+00
301  3.0000000000000D+00  0.0000000000000D+00  0.0000000000000D+00
302  3.0100000000000D+00  0.0000000000000D+00  0.0000000000000D+00
303  3.0200000000000D+00  0.0000000000000D+00  0.0000000000000D+00
304  3.0300000000000D+00  0.0000000000000D+00  0.0000000000000D+00
305  3.0400000000000D+00  0.0000000000000D+00  0.0000000000000D+00
306  3.0500000000000D+00  0.0000000000000D+00  0.0000000000000D+00
307  3.0600000000000D+00  0.0000000000000D+00  0.0000000000000D+00
308  3.0700000000000D+00  0.0000000000000D+00  0.0000000000000D+00
309  3.0800000000000D+00  0.0000000000000D+00  0.0000000000000D+00
310  3.0900000000000D+00  0.0000000000000D+00  0.0000000000000D+00
311  3.1000000000000D+00  0.0000000000000D+00  0.0000000000000D+00
312  3.1100000000000D+00  0.0000000000000D+00  0.0000000000000D+00
313  3.1200000000000D+00  0.0000000000000D+00  0.0000000000000D+00
314  3.1300000000000D+00  0.0000000000000D+00  0.0000000000000D+00
315  3.1400000000000D+00  0.0000000000000D+00  0.0000000000000D+00
316  3.1500000000000D+00  0.0000000000000D+00  0.0000000000000D+00
317  3.1600000000000D+00  0.0000000000000D+00  0.0000000000000D+00
318  3.1700000000000D+00  0.0000000000000D+00  0.0000000000000D+00
319  3.1800000000000D+00  0.0000000000000D+00  0.0000000000000D+00
320  3.1900000000000D+00  0.0000000000000D+00  0.0000000000000D+00
321  3.2000000000000D+00  0.0000000000000D+00  0.0000000000000D+00
322  3.2100000000000D+00  0.0000000000000D+00  0.0000000000000D+00
323  3.2200000000000D+00  0.0000000000000D+00  0.0000000000000D+00
324  3.2300000000000D+00  0.0000000000000D+00  0.0000000000000D+00
325  3.2400000000000D+00  0.0000000000000D+00  0.0000000000000D+00
326  3.2500000000000D+00  0.0000000000000D+00  0.0000000000000D+00
327  3.2600000000000D+00  0.0000000000000D+00  0.0000000000000D+00
328  3.2700000000000D+00  0.0000000000000D+00  0.0000000000000D+00
329  3.2800000000000D+00  0.0000000000000D+00  0.0000000000000D+00
330  3.2900000000000D+00  0.0000000000000D+00  0.0000000000000D+00
331  3.3000000000000D+00  0.0000000000000D+00  0.0000000000000D+00
332  3.3100000000000D+00  0.0000000000000D+00  0.0000000000000D+00
333  3.3200000000000D+00  0.0000000000000D+00  0.0000000000000D+00
334  3.3300000000000D+00  0.0000000000000D+00  0.0000000000000D+00
335  3.3400000000000D+00  0.0000000000000D+00  0.0000000000000D+00
336  3.3500000000000D+00  0.0000000000000D+00  0.0000000000000D+00
337  3.3600000000000D+00  0.0000000000000D+00  0.0000000000000D+00
338  3.3700000000000D+00  0.0000000000000D+00  0.0000000000000D+00
339  3.3800000000000D+00  0.0000000000000D+00  0.0000000000000D+00
340  3.3900000000000D+00  0.0000000000000D+00  0.0000000000000D+00
341  3.4000000000000D+00  0.0000000000000D+00  0.0000000000000D+00
342  3.4100000000000D+00  0.0000000000000D+00  0.0000000000000D+00
343  3.4200000000000D+00  0.0000000000000D+00  0.0000000000000D+00
344  3.4300000000000D+00  0.0000000000000D+00  0.0000000000000D+00
345  3.4400000000000D+00  0.0000000000000D+00  0.0000000000000D+00
346  3.4500000000000D+00  0.0000000000000D+00  0.0000000000000D+00
347  3.4600000000000D+00  0.0000000000000D+00  0.0000000000000D+00
348  3.4700000000000D+00  0.0000000000000D+00  0.0000000000000D+00
349  3.4800000000000D+00  0.0000000000000D+00  0.0000000000000D+00
350  3.4900000000000D+00  0.0000000000000D+00  0.0000000000000D+00
351  3.5000000000000D+00  0.0000000000000D+00  0.0000000000000D+00
352  3.5100000000000D+00  0.0000000000000D+00  0.0000000000000D+00
353  3.5200000000000D+00  0.0000000000000D+00  0.0000000000000D+00
354  3.5300000000000D+00  0.0000000000000D+00  0.0000000000000D+00
355  3.5400000000000D+00  0.0000000000000D+00  0.0000000000000D+00
356  3.5500000000000D+00  0.0000000000000D+00  0.0000000000000D+00
357  3.5600000000000D+00  0.0000000000000D+00  0.0000000000000D+00
358  3.5700000000000D+00  0.0000000000000D+00  0.0000000000000D+00
359  3.5800000000000D+00  0.0000000000000D+00  0.0000000000000D+00
360  3.5900000000000D+00  0.0000000000000D+00  0.0000000000000D+00
361  3.6000000000000D+00  0.0000000000000D+00  0.0000000000000D+00
362  3.6100000000000D+00  0.0000000000000D+00  0.0000000000000D+00
363  3.6200000000000D+00  0.0000000000000D+00  0.0000000000000D+00
364  3.6300000000000D+00  0.0000000000000D+00  0.0000000000000D+00
365  3.6400000000000D+00  0.0000000000000D+00  0.0000000000000D+00
366  3.6500000000000D+00  0.0000000000000D+00  0.0000000000000D+00
367  3.6600000000000D+00  0.0000000000000D+00  0.0000000000000D+00
368  3.6700000000000D+00  0.0000000000000D+00  0.0000000000000D+00
369  3.6800000000000D+00  0.0000000000000D+00  0.0000000000000D+00
370  3.6900000000000D+00  0.0000000000000D+00  0.0000000000000D+00
371  3.7000000000000D+00  0.0000000000000D+00  0.0000000000000D+00
372  3.7100000000000D+00  0.0000000000000D+00  0.0000000000000D+00
373  3.7200000000000D+00  0.0000000000000D+00  0.0000000000000D+00
374  3.7300000000000D+00  0.0000000000000D+00  0.0000000000000D+00
375  3.7400000000000D+00  0.0000000000000D+00  0.0000000000000D+00
376  3.7500000000000D+00  0.0000000000000D+00  0.0000000000000D+00
377  3.7600000000000D+00  0.0000000000000D+00  0.0000000000000D+00
378  3.7700000000000D+00  0.0000000000000D+00  0.0000000000000D+00
379  3.7800000000000D+00  0.0000000000000D+00  0.0000000000000D+00
380  3.7900000000000D+00  0.0000000000000D+00  0.0000000000000D+00
381  3.8000000000000D+00  0.0000000000000D+00  0.0000000000000D+00
382  3.8100000000000D+00  0.0000000000000D+00  0.0000000000000D+00
383  3.8200000000000D+00  0.0000000000000D+00  0.0000000000000D+00
384  3.8300000000000D+00  0.0000000000000D+00  0.0000000000000D+00
385  3.8400000000000D+00  0.0000000000000D+00  0.0000000000000D+00
386  3.8500000000000D+00  0.0000000000000D+00  0.0000000000000D+00
387  3.8600000000000D+00  0.0000000000000D+00  0.0000000000000D+00
388  3.8700000000000D+00  0.0000000000000D+00  0.0000000000000D+00
389  3.8800000000000D+00  0.0000000000000D+00  0.0000000000000D+00
390  3.8900000000000D+00  0.0000000000000D+00  0.0000000000000D+00
391  3.9000000000000D+00  0.0000000000000D+00  0.0000000000000D+00
392  3.9100000000000D+00  0.0000000000000D+00  0.0000000000000D+00
393  3.9200000000000D+00  0.0000000000000D+00  0.0000000000000D+00
394  3.9300000000000D+00  0.0000000000000D+00  0.0000000000000D+00
395  3.9400000000000D+00  0.0000000000000D+00  0.0000000000000D+00
396  3.9500000000000D+00  0.0000000000000D+00  0.0000000000000D+00
397  3.9600000000000D+00  0.0000000000000D+00  0.0000000000000D+00
398  3.9700000000000D+00  0.0000000000000D+00  0.0000000000000D+00
399  3.9800000000000D+00  0.0000000000000D+00  0.0000000000000D+00
400  3.9900000000000D+00  0.0000000000000D+00  0.0000000000000D+00
401  4.0000000000000D+00  0.0000000000000D+00  0.0000000000000D+00
402  4.0100000000000D+00  0.0000000000000D+00  0.0000000000000D+00
403  4.0200000000000D+00  0.0000000000000D+00  0.0000000000000D+00
404  4.0300000000000D+00  0.0000000000000D+00  0.0000000000000D+00
405  4.0400000000000D+00  0.0000000000000D+00  0.0000000000000D+00
406  4.0500000000000D+00  0.0000000000000D+00  0.0000000000000D+00
407  4.0600000000000D+00  0.0000000000000D+00  0.0000000000000D+00
408  4.0700000000000D+00  0.0000000000000D+00  0.0000000000000D+00
409  4.0800000000000D+00  0.0000000000000D+00  0.0000000000000D+00
410  4.0900000000000D+00  0.0000000000000D+00  0.0000000000000D+00
411  4.1000000000000D+00  0.0000000000000D+00  0.0000000000000D+00
412  4.1100000000000D+00  0.0000000000000D+00  0.0000000000000D+00
413  4.1200000000000D+00  0.0000000000000D+00  0.0000000000000D+00
414  4.1300000000000D+00  0.0000000000000D+00  0.0000000000000D+00
415  4.1400000000000D+00  0.0000000000000D+00  0.0000000000000D+00
416  4.1500000000000D+00  0.0000000000000D+00  0.0000000000000D+00
417  4.1600000000000D+00  0.0000000000000D+00  0.0000000000000D+00
418  4.1700000000000D+00  0.0000000000000D+00  0.0000000000000D+00
419  4.1800000000000D+00  0.0000000000000D+00  0.0000000000000D+00
420  4.1900000000000D+00  0.0000000000000D+00  0.0000000000000D+00
421  4.2000000000000D+00  0.0000000000000D+00  0.0000000000000D+00
422  4.2100000000000D+00  0.0000000000000D+00  0.0000000000000D+00
423  4.2200000000000D+00  0.0000000000000D+00  0.0000000000000D+00
424  4.2300000000000D+00  0.0000000000000D+00  0.0000000000000D+00
425  4.2400000000000D+00  0.0000000000000D+00  0.0000000000000D+00
426  4.2500000000000D+00  0.0000000000000D+00  0.0000000000000D+00
427  4.2600000000000D+00  0.0000000000000D+00  0.0000000000000D+00
428  4.2700000000000D+00  0.0000000000000D+00  0.0000000000000D+00
429  4.2800000000000D+00  0.0000000000000D+00  0.0000000000000D+00
430  4.2900000000000D+00  0.0000000000000D+00  0.0000000000000D+00
431  4.3000000000000D+00  0.0000000000000D+00  0.0000000000000D+00
432  4.3100000000000D+00  0.0000000000000D+00  0.0000000000000D+00
433  4.3200000000000D+00  0.0000000000000D+00  0.0000000000000D+00
434  4.3300000000000D+00  0.0000000000000D+00  0.0000000000000D+00
435  4.3400000000000D+00  0.0000000000000D+00  0.0000000000000D+00
436  4.3500000000000D+00  0.0000000000000D+00  0.0000000000000D+00
437  4.3600000000000D+00  0.0000000000000D+00  0.0000000000000D+00
438  4.3700000000000D+00  0.0000000000000D+00  0.0000000000000D+00
439  4.3800000000000D+00  0.0000000000000D+00  0.0000000000000D+00
440  4.3900000000000D+00  0.0000000000000D+00  0.0000000000000D+00
441  4.4000000000000D+00  0.0000000000000D+00  0.0000000000000D+00
442  4.4100000000000D+00  0.0000000000000D+00  0.0000000000000D+00
443  4.4200000000000D+00  0.0000000000000D+00  0.0000000000000D+00
444  4.4300000000000D+00  0.0000000000000D+00  0.0000000000000D+00