Re    ONCVPSP  r_core=  1.61  1.61  1.61  1.90
75.0000     15.0000      160720    zatom,zion,pspd
8      11   3     4   600     0    pspcod,pspxc,lmax,lloc,mmax,r2well
5.99000000  4.00000000  0.00000000    rchrg fchrg qchrg
2     2     2     2     0    nproj
1                 extension_switch
0                         6.3977616919904D+00 -8.2636015636732D-01
1  0.0000000000000D+00  2.0237261866285D-10  2.9138902957193D-09
2  1.0000000000000D-02  5.4299064748953D-02 -6.2325260359600D-02
3  2.0000000000000D-02  1.0854198309445D-01 -1.2415264197545D-01
4  3.0000000000000D-02  1.6267239634327D-01 -1.8498959225054D-01
5  4.0000000000000D-02  2.1663352540402D-01 -2.4435414767298D-01
6  5.0000000000000D-02  2.7036797098939D-01 -3.0178007108753D-01
7  6.0000000000000D-02  3.2381752615478D-01 -3.5682180233312D-01
8  7.0000000000000D-02  3.7692300504521D-01 -4.0905916349430D-01
9  8.0000000000000D-02  4.2962409151999D-01 -4.5810176292854D-01
10  9.0000000000000D-02  4.8185921107621D-01 -5.0359304580969D-01
11  1.0000000000000D-01  5.3356542919993D-01 -5.4521394313037D-01
12  1.1000000000000D-01  5.8467837894240D-01 -5.8268607588276D-01
13  1.2000000000000D-01  6.3513222015037D-01 -6.1577447643418D-01
14  1.3000000000000D-01  6.8485963237969D-01 -6.4428979486840D-01
15  1.4000000000000D-01  7.3379184309416D-01 -6.6808996421027D-01
16  1.5000000000000D-01  7.8185869230201D-01 -6.8708130491705D-01
17  1.6000000000000D-01  8.2898873431583D-01 -7.0121905573097D-01
18  1.7000000000000D-01  8.7510937684309D-01 -7.1050732486472D-01
19  1.8000000000000D-01  9.2014705713027D-01 -7.1499846245448D-01
20  1.9000000000000D-01  9.6402745439840D-01 -7.1479186218285D-01
21  2.0000000000000D-01  1.0066757373282D+00 -7.1003220686330D-01
22  2.1000000000000D-01  1.0480168448842D+00 -7.0090717950858D-01
23  2.2000000000000D-01  1.0879757983149D+00 -6.8764466789750D-01
24  2.3000000000000D-01  1.1264780417352D+00 -6.7050949683008D-01
25  2.4000000000000D-01  1.1634498082948D+00 -6.4979972804732D-01
26  2.5000000000000D-01  1.1988185085622D+00 -6.2584257311801D-01
27  2.6000000000000D-01  1.2325131374224D+00 -5.9898996939743D-01
28  2.7000000000000D-01  1.2644646954876D+00 -5.6961387338187D-01
29  2.8000000000000D-01  1.2946066207721D+00 -5.3810132936709D-01
30  2.9000000000000D-01  1.3228752261795D+00 -5.0484937422256D-01
31  3.0000000000000D-01  1.3492101381949D+00 -4.7025984127891D-01
32  3.1000000000000D-01  1.3735547320771D+00 -4.3473412776499D-01
33  3.2000000000000D-01  1.3958565587965D+00 -3.9866799090157D-01
34  3.3000000000000D-01  1.4160677589716D+00 -3.6244643765034D-01
35  3.4000000000000D-01  1.4341454591220D+00 -3.2643877222467D-01
36  3.5000000000000D-01  1.4500521456700D+00 -2.9099386380173D-01
37  3.6000000000000D-01  1.4637560122950D+00 -2.5643569444605D-01
38  3.7000000000000D-01  1.4752312764683D+00 -2.2305924408996D-01
39  3.8000000000000D-01  1.4844584612671D+00 -1.9112676554710D-01
40  3.9000000000000D-01  1.4914246388891D+00 -1.6086449800456D-01
41  4.0000000000000D-01  1.4961236326489D+00 -1.3245986229616D-01
42  4.1000000000000D-01  1.4985561746452D+00 -1.0605917556165D-01
43  4.2000000000000D-01  1.4987300167257D+00 -8.1765916705933D-02
44  4.3000000000000D-01  1.4966599928443D+00 -5.9639567463499D-02
45  4.4000000000000D-01  1.4923680314069D+00 -3.9695046916607D-02
46  4.5000000000000D-01  1.4858831167123D+00 -2.1902750095281D-02
47  4.6000000000000D-01  1.4772411991290D+00 -6.1891938863320D-03
48  4.7000000000000D-01  1.4664850541873D+00  7.5617340178269D-03
49  4.8000000000000D-01  1.4536640913065D+00  1.9506934900250D-02
50  4.9000000000000D-01  1.4388341134158D+00  2.9841686717649D-02
51  5.0000000000000D-01  1.4220570292559D+00  3.8796686146041D-02
52  5.1000000000000D-01  1.4034005206572D+00  4.6634578389021D-02
53  5.2000000000000D-01  1.3829376675847D+00  5.3646014799954D-02
54  5.3000000000000D-01  1.3607465341977D+00  6.0145284575400D-02
55  5.4000000000000D-01  1.3369097196020D+00  6.6465572483083D-02
56  5.5000000000000D-01  1.3115138773656D+00  7.2953899708473D-02
57  5.6000000000000D-01  1.2846492082109D+00  7.9965809379390D-02
58  5.7000000000000D-01  1.2564089306009D+00  8.7859862107974D-02
59  5.8000000000000D-01  1.2268887341825D+00  9.6992009898532D-02
60  5.9000000000000D-01  1.1961862212473D+00  1.0770991899488D-01
61  6.0000000000000D-01  1.1644003415036D+00  1.2034731362193D-01
62  6.1000000000000D-01  1.1316308255373D+00  1.3521841310393D-01
63  6.2000000000000D-01  1.0979776223538D+00  1.5261253450084D-01
64  6.3000000000000D-01  1.0635403463528D+00  1.7278893167883D-01
65  6.4000000000000D-01  1.0284177389859D+00  1.9597193963951D-01
66  6.5000000000000D-01  9.9270715018330D-01  2.2234648999586D-01
67  6.6000000000000D-01  9.5650404441681D-01  2.5205405969696D-01
68  6.7000000000000D-01  9.1990153598857D-01  2.8518911054274D-01
69  6.8000000000000D-01  8.8298995780765D-01  3.2179607174015D-01
70  6.9000000000000D-01  8.4585646753525D-01  3.6186691172773D-01
71  7.0000000000000D-01  8.0858469455648D-01  4.0533933889536D-01
72  7.1000000000000D-01  7.7125443077034D-01  4.5209566364148D-01
73  7.2000000000000D-01  7.3394136769086D-01  5.0196234659314D-01
74  7.3000000000000D-01  6.9671688181880D-01  5.5471024974822D-01
75  7.4000000000000D-01  6.5964786969115D-01  6.1005559900706D-01
76  7.5000000000000D-01  6.2279663344289D-01  6.6766165803287D-01
77  7.6000000000000D-01  5.8622081713256D-01  7.2714110476319D-01
78  7.7000000000000D-01  5.4997339349619D-01  7.8805909328050D-01
79  7.8000000000000D-01  5.1410270021132D-01  8.4993697526502D-01
80  7.9000000000000D-01  4.7865252417626D-01  9.1225664692239D-01
81  8.0000000000000D-01  4.4366223175359D-01  9.7446547932378D-01
82  8.1000000000000D-01  4.0916694239182D-01  1.0359817825079D+00
83  8.2000000000000D-01  3.7519774253414D-01  1.0962007466246D+00
84  8.3000000000000D-01  3.4178193625428D-01  1.1545007969207D+00
85  8.4000000000000D-01  3.0894332863195D-01  1.2102502935686D+00
86  8.5000000000000D-01  2.7670253750018D-01  1.2628145022885D+00
87  8.6000000000000D-01  2.4507732886759D-01  1.3115627574902D+00
88  8.7000000000000D-01  2.1408297104662D-01  1.3558757363140D+00
89  8.8000000000000D-01  1.8373260230482D-01  1.3951527595339D+00
90  8.9000000000000D-01  1.5403760670594D-01  1.4288190338420D+00
91  9.0000000000000D-01  1.2500799272127D-01  1.4563327495796D+00
92  9.1000000000000D-01  9.6652769171270D-02  1.4771919485460D+00
93  9.2000000000000D-01  6.8980313104400D-02  1.4909410780904D+00
94  9.3000000000000D-01  4.1998724332393D-02  1.4971771502860D+00
95  9.4000000000000D-01  1.5716161519777D-02  1.4955554285503D+00
96  9.5000000000000D-01 -9.8588450316651D-03  1.4857945686323D+00
97  9.6000000000000D-01 -3.4717108459591D-02  1.4676811463260D+00
98  9.7000000000000D-01 -5.8848532477587D-02  1.4410735105146D+00
99  9.8000000000000D-01 -8.2241894348033D-02  1.4059049073648D+00
100  9.9000000000000D-01 -1.0488466700935D-01  1.3621858292078D+00
101  1.0000000000000D+00 -1.2676288316519D-01  1.3100055501283D+00
102  1.0100000000000D+00 -1.4786104359782D-01  1.2495328192578D+00
103  1.0200000000000D+00 -1.6816207139103D-01  1.1810156921740D+00
104  1.0300000000000D+00 -1.8764731313148D-01  1.1047804907877D+00
105  1.0400000000000D+00 -2.0629658757896D-01  1.0212298914060D+00
106  1.0500000000000D+00 -2.2408828160853D-01  9.3084015165236D-01
107  1.0600000000000D+00 -2.4099949263693D-01  8.3415749631267D-01
108  1.0700000000000D+00 -2.5700621610658D-01  7.3179369228877D-01
109  1.0800000000000D+00 -2.7208357596010D-01  6.2442085292194D-01
110  1.0900000000000D+00 -2.8620609551471D-01  5.1276552014962D-01
111  1.1000000000000D+00 -2.9934800549291D-01  3.9760208315028D-01
112  1.1100000000000D+00 -3.1148358549050D-01  2.7974559948643D-01
113  1.1200000000000D+00 -3.2258753464753D-01  1.6004409270771D-01
114  1.1300000000000D+00 -3.3263536687147D-01  3.9370406748774D-02
115  1.1400000000000D+00 -3.4160382556336D-01 -8.1386296477434D-02
116  1.1500000000000D+00 -3.4947131244467D-01 -2.0132930459266D-01
117  1.1600000000000D+00 -3.5621832484880D-01 -3.1956329224367D-01
118  1.1700000000000D+00 -3.6182789565027D-01 -4.3520333067765D-01
119  1.1800000000000D+00 -3.6628602984161D-01 -5.4738386923317D-01
120  1.1900000000000D+00 -3.6958213172576D-01 -6.5526758821372D-01
121  1.2000000000000D+00 -3.7170941676218D-01 -7.5805402401976D-01
122  1.2100000000000D+00 -3.7266530209377D-01 -8.5498786740381D-01
123  1.2200000000000D+00 -3.7245177002457D-01 -9.4536683997514D-01
124  1.2300000000000D+00 -3.7107569898883D-01 -1.0285490585402D+00
125  1.2400000000000D+00 -3.6854915675312D-01 -1.1039598002344D+00
126  1.2500000000000D+00 -3.6488965098959D-01 -1.1710975879628D+00
127  1.2600000000000D+00 -3.6012033295805D-01 -1.2295395253585D+00
128  1.2700000000000D+00 -3.5427015033099D-01 -1.2789458152666D+00
129  1.2800000000000D+00 -3.4737394569002D-01 -1.3190634037840D+00
130  1.2900000000000D+00 -3.3947249821818D-01 -1.3497287078277D+00
131  1.3000000000000D+00 -3.3061250629116D-01 -1.3708693870534D+00
132  1.3100000000000D+00 -3.2084650937524D-01 -1.3825051322585D+00
133  1.3200000000000D+00 -3.1023274891294D-01 -1.3847474626451D+00
134  1.3300000000000D+00 -2.9883496769981D-01 -1.3777985215002D+00
135  1.3400000000000D+00 -2.8672214848090D-01 -1.3619488793564D+00
136  1.3500000000000D+00 -2.7396819364262D-01 -1.3375743718510D+00
137  1.3600000000000D+00 -2.6065154723235D-01 -1.3051319893316D+00
138  1.3700000000000D+00 -2.4685476276868D-01 -1.2651548705987D+00
139  1.3800000000000D+00 -2.3266402021746D-01 -1.2182464517748D+00
140  1.3900000000000D+00 -2.1816859558559D-01 -1.1650738225062D+00
141  1.4000000000000D+00 -2.0346028874537D-01 -1.1063603759222D+00
142  1.4100000000000D+00 -1.8863281384455D-01 -1.0428778188612D+00
143  1.4200000000000D+00 -1.7378115840162D-01 -9.7543763647612D-01
144  1.4300000000000D+00 -1.5900091731011D-01 -9.0488210738961D-01
145  1.4400000000000D+00 -1.4438760768947D-01 -8.3207496090544D-01
146  1.4500000000000D+00 -1.3003597201529D-01 -7.5789179170919D-01
147  1.4600000000000D+00 -1.1603927588780D-01 -6.8321033031838D-01
148  1.4700000000000D+00 -1.0248860800652D-01 -6.0890068686784D-01
149  1.4800000000000D+00 -8.9472189072136D-02 -5.3581567259095D-01
150  1.4900000000000D+00 -7.7074697309299D-02 -4.6478131841485D-01
151  1.5000000000000D+00 -6.5376616752312D-02 -3.9658768650263D-01
152  1.5100000000000D+00 -5.4453616322851D-02 -3.3198009932263D-01
153  1.5200000000000D+00 -4.4375964932498D-02 -2.7165086819609D-01
154  1.5300000000000D+00 -3.5207989979388D-02 -2.1623163587488D-01
155  1.5400000000000D+00 -2.7007584371205D-02 -1.6628641350039D-01
156  1.5500000000000D+00 -1.9825767358675D-02 -1.2230539446804D-01
157  1.5600000000000D+00 -1.3710666769192D-02 -8.4726634411969D-02
158  1.5700000000000D+00 -8.6860809678959D-03 -5.3800901155602D-02
159  1.5800000000000D+00 -4.7628404115648D-03 -2.9655527344365D-02
160  1.5900000000000D+00 -2.0494626945089D-03 -1.3002925973319D-02
161  1.6000000000000D+00 -5.6069400057788D-04 -3.9307356673566D-03
162  1.6100000000000D+00  1.6097457418211D-05 -3.4543145747739D-04
163  1.6200000000000D+00  7.8500138601138D-05  2.8606992171664D-04
164  1.6300000000000D+00 -1.2212242722642D-05 -5.1970424973152D-05
165  1.6400000000000D+00 -2.6875535545232D-05 -1.2181137459182D-04
166  1.6500000000000D+00  2.3990948640431D-06  9.4415107304538D-06
167  1.6600000000000D+00  4.8156627083310D-06  1.9742105206725D-05
168  1.6700000000000D+00  3.1433621778162D-08  8.2232107903585D-07
169  1.6800000000000D+00  5.8221547362318D-08  1.5231081543197D-06
170  1.6900000000000D+00  0.0000000000000D+00  0.0000000000000D+00
171  1.7000000000000D+00  0.0000000000000D+00  0.0000000000000D+00
172  1.7100000000000D+00  0.0000000000000D+00  0.0000000000000D+00
173  1.7200000000000D+00  0.0000000000000D+00  0.0000000000000D+00
174  1.7300000000000D+00  0.0000000000000D+00  0.0000000000000D+00
175  1.7400000000000D+00  0.0000000000000D+00  0.0000000000000D+00
176  1.7500000000000D+00  0.0000000000000D+00  0.0000000000000D+00
177  1.7600000000000D+00  0.0000000000000D+00  0.0000000000000D+00
178  1.7700000000000D+00  0.0000000000000D+00  0.0000000000000D+00
179  1.7800000000000D+00  0.0000000000000D+00  0.0000000000000D+00
180  1.7900000000000D+00  0.0000000000000D+00  0.0000000000000D+00
181  1.8000000000000D+00  0.0000000000000D+00  0.0000000000000D+00
182  1.8100000000000D+00  0.0000000000000D+00  0.0000000000000D+00
183  1.8200000000000D+00  0.0000000000000D+00  0.0000000000000D+00
184  1.8300000000000D+00  0.0000000000000D+00  0.0000000000000D+00
185  1.8400000000000D+00  0.0000000000000D+00  0.0000000000000D+00
186  1.8500000000000D+00  0.0000000000000D+00  0.0000000000000D+00
187  1.8600000000000D+00  0.0000000000000D+00  0.0000000000000D+00
188  1.8700000000000D+00  0.0000000000000D+00  0.0000000000000D+00
189  1.8800000000000D+00  0.0000000000000D+00  0.0000000000000D+00
190  1.8900000000000D+00  0.0000000000000D+00  0.0000000000000D+00
191  1.9000000000000D+00  0.0000000000000D+00  0.0000000000000D+00
192  1.9100000000000D+00  0.0000000000000D+00  0.0000000000000D+00
193  1.9200000000000D+00  0.0000000000000D+00  0.0000000000000D+00
194  1.9300000000000D+00  0.0000000000000D+00  0.0000000000000D+00
195  1.9400000000000D+00  0.0000000000000D+00  0.0000000000000D+00
196  1.9500000000000D+00  0.0000000000000D+00  0.0000000000000D+00
197  1.9600000000000D+00  0.0000000000000D+00  0.0000000000000D+00
198  1.9700000000000D+00  0.0000000000000D+00  0.0000000000000D+00
199  1.9800000000000D+00  0.0000000000000D+00  0.0000000000000D+00
200  1.9900000000000D+00  0.0000000000000D+00  0.0000000000000D+00
201  2.0000000000000D+00  0.0000000000000D+00  0.0000000000000D+00
202  2.0100000000000D+00  0.0000000000000D+00  0.0000000000000D+00
203  2.0200000000000D+00  0.0000000000000D+00  0.0000000000000D+00
204  2.0300000000000D+00  0.0000000000000D+00  0.0000000000000D+00
205  2.0400000000000D+00  0.0000000000000D+00  0.0000000000000D+00
206  2.0500000000000D+00  0.0000000000000D+00  0.0000000000000D+00
207  2.0600000000000D+00  0.0000000000000D+00  0.0000000000000D+00
208  2.0700000000000D+00  0.0000000000000D+00  0.0000000000000D+00
209  2.0800000000000D+00  0.0000000000000D+00  0.0000000000000D+00
210  2.0900000000000D+00  0.0000000000000D+00  0.0000000000000D+00
211  2.1000000000000D+00  0.0000000000000D+00  0.0000000000000D+00
212  2.1100000000000D+00  0.0000000000000D+00  0.0000000000000D+00
213  2.1200000000000D+00  0.0000000000000D+00  0.0000000000000D+00
214  2.1300000000000D+00  0.0000000000000D+00  0.0000000000000D+00
215  2.1400000000000D+00  0.0000000000000D+00  0.0000000000000D+00
216  2.1500000000000D+00  0.0000000000000D+00  0.0000000000000D+00
217  2.1600000000000D+00  0.0000000000000D+00  0.0000000000000D+00
218  2.1700000000000D+00  0.0000000000000D+00  0.0000000000000D+00
219  2.1800000000000D+00  0.0000000000000D+00  0.0000000000000D+00
220  2.1900000000000D+00  0.0000000000000D+00  0.0000000000000D+00
221  2.2000000000000D+00  0.0000000000000D+00  0.0000000000000D+00
222  2.2100000000000D+00  0.0000000000000D+00  0.0000000000000D+00
223  2.2200000000000D+00  0.0000000000000D+00  0.0000000000000D+00
224  2.2300000000000D+00  0.0000000000000D+00  0.0000000000000D+00
225  2.2400000000000D+00  0.0000000000000D+00  0.0000000000000D+00
226  2.2500000000000D+00  0.0000000000000D+00  0.0000000000000D+00
227  2.2600000000000D+00  0.0000000000000D+00  0.0000000000000D+00
228  2.2700000000000D+00  0.0000000000000D+00  0.0000000000000D+00
229  2.2800000000000D+00  0.0000000000000D+00  0.0000000000000D+00
230  2.2900000000000D+00  0.0000000000000D+00  0.0000000000000D+00
231  2.3000000000000D+00  0.0000000000000D+00  0.0000000000000D+00
232  2.3100000000000D+00  0.0000000000000D+00  0.0000000000000D+00
233  2.3200000000000D+00  0.0000000000000D+00  0.0000000000000D+00
234  2.3300000000000D+00  0.0000000000000D+00  0.0000000000000D+00
235  2.3400000000000D+00  0.0000000000000D+00  0.0000000000000D+00
236  2.3500000000000D+00  0.0000000000000D+00  0.0000000000000D+00
237  2.3600000000000D+00  0.0000000000000D+00  0.0000000000000D+00
238  2.3700000000000D+00  0.0000000000000D+00  0.0000000000000D+00
239  2.3800000000000D+00  0.0000000000000D+00  0.0000000000000D+00
240  2.3900000000000D+00  0.0000000000000D+00  0.0000000000000D+00
241  2.4000000000000D+00  0.0000000000000D+00  0.0000000000000D+00
242  2.4100000000000D+00  0.0000000000000D+00  0.0000000000000D+00
243  2.4200000000000D+00  0.0000000000000D+00  0.0000000000000D+00
244  2.4300000000000D+00  0.0000000000000D+00  0.0000000000000D+00
245  2.4400000000000D+00  0.0000000000000D+00  0.0000000000000D+00
246  2.4500000000000D+00  0.0000000000000D+00  0.0000000000000D+00
247  2.4600000000000D+00  0.0000000000000D+00  0.0000000000000D+00
248  2.4700000000000D+00  0.0000000000000D+00  0.0000000000000D+00
249  2.4800000000000D+00  0.0000000000000D+00  0.0000000000000D+00
250  2.4900000000000D+00  0.0000000000000D+00  0.0000000000000D+00
251  2.5000000000000D+00  0.0000000000000D+00  0.0000000000000D+00
252  2.5100000000000D+00  0.0000000000000D+00  0.0000000000000D+00
253  2.5200000000000D+00  0.0000000000000D+00  0.0000000000000D+00
254  2.5300000000000D+00  0.0000000000000D+00  0.0000000000000D+00
255  2.5400000000000D+00  0.0000000000000D+00  0.0000000000000D+00
256  2.5500000000000D+00  0.0000000000000D+00  0.0000000000000D+00
257  2.5600000000000D+00  0.0000000000000D+00  0.0000000000000D+00
258  2.5700000000000D+00  0.0000000000000D+00  0.0000000000000D+00
259  2.5800000000000D+00  0.0000000000000D+00  0.0000000000000D+00
260  2.5900000000000D+00  0.0000000000000D+00  0.0000000000000D+00
261  2.6000000000000D+00  0.0000000000000D+00  0.0000000000000D+00
262  2.6100000000000D+00  0.0000000000000D+00  0.0000000000000D+00
263  2.6200000000000D+00  0.0000000000000D+00  0.0000000000000D+00
264  2.6300000000000D+00  0.0000000000000D+00  0.0000000000000D+00
265  2.6400000000000D+00  0.0000000000000D+00  0.0000000000000D+00
266  2.6500000000000D+00  0.0000000000000D+00  0.0000000000000D+00
267  2.6600000000000D+00  0.0000000000000D+00  0.0000000000000D+00
268  2.6700000000000D+00  0.0000000000000D+00  0.0000000000000D+00
269  2.6800000000000D+00  0.0000000000000D+00  0.0000000000000D+00
270  2.6900000000000D+00  0.0000000000000D+00  0.0000000000000D+00
271  2.7000000000000D+00  0.0000000000000D+00  0.0000000000000D+00
272  2.7100000000000D+00  0.0000000000000D+00  0.0000000000000D+00
273  2.7200000000000D+00  0.0000000000000D+00  0.0000000000000D+00
274  2.7300000000000D+00  0.0000000000000D+00  0.0000000000000D+00
275  2.7400000000000D+00  0.0000000000000D+00  0.0000000000000D+00
276  2.7500000000000D+00  0.0000000000000D+00  0.0000000000000D+00
277  2.7600000000000D+00  0.0000000000000D+00  0.0000000000000D+00
278  2.7700000000000D+00  0.0000000000000D+00  0.0000000000000D+00
279  2.7800000000000D+00  0.0000000000000D+00  0.0000000000000D+00
280  2.7900000000000D+00  0.0000000000000D+00  0.0000000000000D+00
281  2.8000000000000D+00  0.0000000000000D+00  0.0000000000000D+00
282  2.8100000000000D+00  0.0000000000000D+00  0.0000000000000D+00
283  2.8200000000000D+00  0.0000000000000D+00  0.0000000000000D+00
284  2.8300000000000D+00  0.0000000000000D+00  0.0000000000000D+00
285  2.8400000000000D+00  0.0000000000000D+00  0.0000000000000D+00
286  2.8500000000000D+00  0.0000000000000D+00  0.0000000000000D+00
287  2.8600000000000D+00  0.0000000000000D+00  0.0000000000000D+00
288  2.8700000000000D+00  0.0000000000000D+00  0.0000000000000D+00
289  2.8800000000000D+00  0.0000000000000D+00  0.0000000000000D+00
290  2.8900000000000D+00  0.0000000000000D+00  0.0000000000000D+00
291  2.9000000000000D+00  0.0000000000000D+00  0.0000000000000D+00
292  2.9100000000000D+00  0.0000000000000D+00  0.0000000000000D+00
293  2.9200000000000D+00  0.0000000000000D+00  0.0000000000000D+00
294  2.9300000000000D+00  0.0000000000000D+00  0.0000000000000D+00
295  2.9400000000000D+00  0.0000000000000D+00  0.0000000000000D+00
296  2.9500000000000D+00  0.0000000000000D+00  0.0000000000000D+00
297  2.9600000000000D+00  0.0000000000000D+00  0.0000000000000D+00
298  2.9700000000000D+00  0.0000000000000D+00  0.0000000000000D+00
299  2.9800000000000D+00  0.0000000000000D+00  0.0000000000000D+00
300  2.9900000000000D+00  0.0000000000000D+00  0.0000000000000D+00
301  3.0000000000000D+00  0.0000000000000D+00  0.0000000000000D+00
302  3.0100000000000D+00  0.0000000000000D+00  0.0000000000000D+00
303  3.0200000000000D+00  0.0000000000000D+00  0.0000000000000D+00
304  3.0300000000000D+00  0.0000000000000D+00  0.0000000000000D+00
305  3.0400000000000D+00  0.0000000000000D+00  0.0000000000000D+00
306  3.0500000000000D+00  0.0000000000000D+00  0.0000000000000D+00
307  3.0600000000000D+00  0.0000000000000D+00  0.0000000000000D+00
308  3.0700000000000D+00  0.0000000000000D+00  0.0000000000000D+00
309  3.0800000000000D+00  0.0000000000000D+00  0.0000000000000D+00
310  3.0900000000000D+00  0.0000000000000D+00  0.0000000000000D+00
311  3.1000000000000D+00  0.0000000000000D+00  0.0000000000000D+00
312  3.1100000000000D+00  0.0000000000000D+00  0.0000000000000D+00
313  3.1200000000000D+00  0.0000000000000D+00  0.0000000000000D+00
314  3.1300000000000D+00  0.0000000000000D+00  0.0000000000000D+00
315  3.1400000000000D+00  0.0000000000000D+00  0.0000000000000D+00
316  3.1500000000000D+00  0.0000000000000D+00  0.0000000000000D+00
317  3.1600000000000D+00  0.0000000000000D+00  0.0000000000000D+00
318  3.1700000000000D+00  0.0000000000000D+00  0.0000000000000D+00
319  3.1800000000000D+00  0.0000000000000D+00  0.0000000000000D+00
320  3.1900000000000D+00  0.0000000000000D+00  0.0000000000000D+00
321  3.2000000000000D+00  0.0000000000000D+00  0.0000000000000D+00
322  3.2100000000000D+00  0.0000000000000D+00  0.0000000000000D+00
323  3.2200000000000D+00  0.0000000000000D+00  0.0000000000000D+00
324  3.2300000000000D+00  0.0000000000000D+00  0.0000000000000D+00
325  3.2400000000000D+00  0.0000000000000D+00  0.0000000000000D+00
326  3.2500000000000D+00  0.0000000000000D+00  0.0000000000000D+00
327  3.2600000000000D+00  0.0000000000000D+00  0.0000000000000D+00
328  3.2700000000000D+00  0.0000000000000D+00  0.0000000000000D+00
329  3.2800000000000D+00  0.0000000000000D+00  0.0000000000000D+00
330  3.2900000000000D+00  0.0000000000000D+00  0.0000000000000D+00
331  3.3000000000000D+00  0.0000000000000D+00  0.0000000000000D+00
332  3.3100000000000D+00  0.0000000000000D+00  0.0000000000000D+00
333  3.3200000000000D+00  0.0000000000000D+00  0.0000000000000D+00
334  3.3300000000000D+00  0.0000000000000D+00  0.0000000000000D+00
335  3.3400000000000D+00  0.0000000000000D+00  0.0000000000000D+00
336  3.3500000000000D+00  0.0000000000000D+00  0.0000000000000D+00
337  3.3600000000000D+00  0.0000000000000D+00  0.0000000000000D+00
338  3.3700000000000D+00  0.0000000000000D+00  0.0000000000000D+00
339  3.3800000000000D+00  0.0000000000000D+00  0.0000000000000D+00
340  3.3900000000000D+00  0.0000000000000D+00  0.0000000000000D+00
341  3.4000000000000D+00  0.0000000000000D+00  0.0000000000000D+00
342  3.4100000000000D+00  0.0000000000000D+00  0.0000000000000D+00
343  3.4200000000000D+00  0.0000000000000D+00  0.0000000000000D+00
344  3.4300000000000D+00  0.0000000000000D+00  0.0000000000000D+00
345  3.4400000000000D+00  0.0000000000000D+00  0.0000000000000D+00
346  3.4500000000000D+00  0.0000000000000D+00  0.0000000000000D+00
347  3.4600000000000D+00  0.0000000000000D+00  0.0000000000000D+00
348  3.4700000000000D+00  0.0000000000000D+00  0.0000000000000D+00
349  3.4800000000000D+00  0.0000000000000D+00  0.0000000000000D+00
350  3.4900000000000D+00  0.0000000000000D+00  0.0000000000000D+00
351  3.5000000000000D+00  0.0000000000000D+00  0.0000000000000D+00
352  3.5100000000000D+00  0.0000000000000D+00  0.0000000000000D+00
353  3.5200000000000D+00  0.0000000000000D+00  0.0000000000000D+00
354  3.5300000000000D+00  0.0000000000000D+00  0.0000000000000D+00
355  3.5400000000000D+00  0.0000000000000D+00  0.0000000000000D+00
356  3.5500000000000D+00  0.0000000000000D+00  0.0000000000000D+00
357  3.5600000000000D+00  0.0000000000000D+00  0.0000000000000D+00
358  3.5700000000000D+00  0.0000000000000D+00  0.0000000000000D+00
359  3.5800000000000D+00  0.0000000000000D+00  0.0000000000000D+00
360  3.5900000000000D+00  0.0000000000000D+00  0.0000000000000D+00
361  3.6000000000000D+00  0.0000000000000D+00  0.0000000000000D+00
362  3.6100000000000D+00  0.0000000000000D+00  0.0000000000000D+00
363  3.6200000000000D+00  0.0000000000000D+00  0.0000000000000D+00
364  3.6300000000000D+00  0.0000000000000D+00  0.0000000000000D+00
365  3.6400000000000D+00  0.0000000000000D+00  0.0000000000000D+00
366  3.6500000000000D+00  0.0000000000000D+00  0.0000000000000D+00
367  3.6600000000000D+00  0.0000000000000D+00  0.0000000000000D+00
368  3.6700000000000D+00  0.0000000000000D+00  0.0000000000000D+00
369  3.6800000000000D+00  0.0000000000000D+00  0.0000000000000D+00
370  3.6900000000000D+00  0.0000000000000D+00  0.0000000000000D+00
371  3.7000000000000D+00  0.0000000000000D+00  0.0000000000000D+00
372  3.7100000000000D+00  0.0000000000000D+00  0.0000000000000D+00
373  3.7200000000000D+00  0.0000000000000D+00  0.0000000000000D+00
374  3.7300000000000D+00  0.0000000000000D+00  0.0000000000000D+00
375  3.7400000000000D+00  0.0000000000000D+00  0.0000000000000D+00
376  3.7500000000000D+00  0.0000000000000D+00  0.0000000000000D+00
377  3.7600000000000D+00  0.0000000000000D+00  0.0000000000000D+00
378  3.7700000000000D+00  0.0000000000000D+00  0.0000000000000D+00
379  3.7800000000000D+00  0.0000000000000D+00  0.0000000000000D+00
380  3.7900000000000D+00  0.0000000000000D+00  0.0000000000000D+00
381  3.8000000000000D+00  0.0000000000000D+00  0.0000000000000D+00
382  3.8100000000000D+00  0.0000000000000D+00  0.0000000000000D+00
383  3.8200000000000D+00  0.0000000000000D+00  0.0000000000000D+00
384  3.8300000000000D+00  0.0000000000000D+00  0.0000000000000D+00
385  3.8400000000000D+00  0.0000000000000D+00  0.0000000000000D+00
386  3.8500000000000D+00  0.0000000000000D+00  0.0000000000000D+00
387  3.8600000000000D+00  0.0000000000000D+00  0.0000000000000D+00
388  3.8700000000000D+00  0.0000000000000D+00  0.0000000000000D+00
389  3.8800000000000D+00  0.0000000000000D+00  0.0000000000000D+00
390  3.8900000000000D+00  0.0000000000000D+00  0.0000000000000D+00
391  3.9000000000000D+00  0.0000000000000D+00  0.0000000000000D+00
392  3.9100000000000D+00  0.0000000000000D+00  0.0000000000000D+00
393  3.9200000000000D+00  0.0000000000000D+00  0.0000000000000D+00
394  3.9300000000000D+00  0.0000000000000D+00  0.0000000000000D+00
395  3.9400000000000D+00  0.0000000000000D+00  0.0000000000000D+00
396  3.9500000000000D+00  0.0000000000000D+00  0.0000000000000D+00
397  3.9600000000000D+00  0.0000000000000D+00  0.0000000000000D+00
398  3.9700000000000D+00  0.0000000000000D+00  0.0000000000000D+00
399  3.9800000000000D+00  0.0000000000000D+00  0.0000000000000D+00
400  3.9900000000000D+00  0.0000000000000D+00  0.0000000000000D+00
401  4.0000000000000D+00  0.0000000000000D+00  0.0000000000000D+00
402  4.0100000000000D+00  0.0000000000000D+00  0.0000000000000D+00
403  4.0200000000000D+00  0.0000000000000D+00  0.0000000000000D+00
404  4.0300000000000D+00  0.0000000000000D+00  0.0000000000000D+00
405  4.0400000000000D+00  0.0000000000000D+00  0.0000000000000D+00
406  4.0500000000000D+00  0.0000000000000D+00  0.0000000000000D+00
407  4.0600000000000D+00  0.0000000000000D+00  0.0000000000000D+00
408  4.0700000000000D+00  0.0000000000000D+00  0.0000000000000D+00
409  4.0800000000000D+00  0.0000000000000D+00  0.0000000000000D+00
410  4.0900000000000D+00  0.0000000000000D+00  0.0000000000000D+00
411  4.1000000000000D+00  0.0000000000000D+00  0.0000000000000D+00
412  4.1100000000000D+00  0.0000000000000D+00  0.0000000000000D+00
413  4.1200000000000D+00  0.0000000000000D+00  0.0000000000000D+00
414  4.1300000000000D+00  0.0000000000000D+00  0.0000000000000D+00
415  4.1400000000000D+00  0.0000000000000D+00  0.0000000000000D+00
416  4.1500000000000D+00  0.0000000000000D+00  0.0000000000000D+00
417  4.1600000000000D+00  0.0000000000000D+00  0.0000000000000D+00
418  4.1700000000000D+00  0.0000000000000D+00  0.0000000000000D+00
419  4.1800000000000D+00  0.0000000000000D+00  0.0000000000000D+00
420  4.1900000000000D+00  0.0000000000000D+00  0.0000000000000D+00
421  4.2000000000000D+00  0.0000000000000D+00  0.0000000000000D+00
422  4.2100000000000D+00  0.0000000000000D+00  0.0000000000000D+00
423  4.2200000000000D+00  0.0000000000000D+00  0.0000000000000D+00
424  4.2300000000000D+00  0.0000000000000D+00  0.0000000000000D+00
425  4.2400000000000D+00  0.0000000000000D+00  0.0000000000000D+00
426  4.2500000000000D+00  0.0000000000000D+00  0.0000000000000D+00
427  4.2600000000000D+00  0.0000000000000D+00  0.0000000000000D+00
428  4.2700000000000D+00  0.0000000000000D+00  0.0000000000000D+00
429  4.2800000000000D+00  0.0000000000000D+00  0.0000000000000D+00
430  4.2900000000000D+00  0.0000000000000D+00  0.0000000000000D+00
431  4.3000000000000D+00  0.0000000000000D+00  0.0000000000000D+00
432  4.3100000000000D+00  0.0000000000000D+00  0.0000000000000D+00
433  4.3200000000000D+00  0.0000000000000D+00  0.0000000000000D+00
434  4.3300000000000D+00  0.0000000000000D+00  0.0000000000000D+00
435  4.3400000000000D+00  0.0000000000000D+00  0.0000000000000D+00
436  4.3500000000000D+00  0.0000000000000D+00  0.0000000000000D+00
437  4.3600000000000D+00  0.0000000000000D+00  0.0000000000000D+00
438  4.3700000000000D+00  0.0000000000000D+00  0.0000000000000D+00
439  4.3800000000000D+00  0.0000000000000D+00  0.0000000000000D+00
440  4.3900000000000D+00  0.0000000000000D+00  0.0000000000000D+00
441  4.4000000000000D+00  0.0000000000000D+00  0.0000000000000D+00
442  4.4100000000000D+00  0.0000000000000D+00  0.0000000000000D+00
443  4.4200000000000D+00  0.0000000000000D+00  0.0000000000000D+00