Re    ONCVPSP  r_core=  2.17  2.17  2.17
75.0000     15.0000      160331    zatom,zion,pspd
8      11   2     4   600     0    pspcod,pspxc,lmax,lloc,mmax,r2well
5.99000000  4.00000000  0.00000000    rchrg fchrg qchrg
2     2     2     0     0    nproj
0                 extension_switch
0                         2.4022178996447D+00 -1.0358458166866D+00
1  0.0000000000000D+00 -3.4081626409943D-12  2.7391977575064D-13
2  1.0000000000000D-02  5.6420062085847D-02  1.6168074198211D-02
3  2.0000000000000D-02  1.1273902299446D-01  3.2336313072937D-02
4  3.0000000000000D-02  1.6885598469065D-01  4.8504868513169D-02
5  4.0000000000000D-02  2.2467045499445D-01  6.4673866865853D-02
6  5.0000000000000D-02  2.8008254943766D-01  8.0843396247267D-02
7  6.0000000000000D-02  3.3499319183737D-01  9.7013493953119D-02
8  7.0000000000000D-02  3.8930431316282D-01  1.1318413399992D-01
9  8.0000000000000D-02  4.4291904827548D-01  1.2935521482997D-01
10  9.0000000000000D-02  4.9574193012613D-01  1.4552654721190D-01
11  1.0000000000000D-01  5.4767908099825D-01  1.6169784236836D-01
12  1.1000000000000D-01  5.9863840039261D-01  1.7786870036199D-01
13  1.2000000000000D-01  6.4852974915493D-01  1.9403859877011D-01
14  1.3000000000000D-01  6.9726512945577D-01  2.1020688167831D-01
15  1.4000000000000D-01  7.4475886024060D-01  2.2637274902198D-01
16  1.5000000000000D-01  7.9092774777669D-01  2.4253524630456D-01
17  1.6000000000000D-01  8.3569125093363D-01  2.5869325472026D-01
18  1.7000000000000D-01  8.7897164084503D-01  2.7484548170809D-01
19  1.8000000000000D-01  9.2069415461021D-01  2.9099045196340D-01
20  1.9000000000000D-01  9.6078714270695D-01  3.0712649893190D-01
21  2.0000000000000D-01  9.9918220979921D-01  3.2325175681030D-01
22  2.1000000000000D-01  1.0358143486374D+00  3.3936415307653D-01
23  2.2000000000000D-01  1.0706220667626D+00  3.5546140157147D-01
24  2.3000000000000D-01  1.1035475057418D+00  3.7154099615289D-01
25  2.4000000000000D-01  1.1345365526759D+00  3.8760020494107D-01
26  2.5000000000000D-01  1.1635389437383D+00  4.0363606517444D-01
27  2.6000000000000D-01  1.1905083595192D+00  4.1964537869208D-01
28  2.7000000000000D-01  1.2154025119686D+00  4.3562470805874D-01
29  2.8000000000000D-01  1.2381832227447D+00  4.5157037334657D-01
30  2.9000000000000D-01  1.2588164927995D+00  4.6747844958643D-01
31  3.0000000000000D-01  1.2772725630444D+00  4.8334476489998D-01
32  3.1000000000000D-01  1.2935259659636D+00  4.9916489932259D-01
33  3.2000000000000D-01  1.3075555680595D+00  5.1493418432527D-01
34  3.3000000000000D-01  1.3193446030340D+00  5.3064770304261D-01
35  3.4000000000000D-01  1.3288806956318D+00  5.4630029121182D-01
36  3.5000000000000D-01  1.3361558760886D+00  5.6188653882666D-01
37  3.6000000000000D-01  1.3411665851523D+00  5.7740079250836D-01
38  3.7000000000000D-01  1.3439136696607D+00  5.9283715859395D-01
39  3.8000000000000D-01  1.3444023686841D+00  6.0818950694090D-01
40  3.9000000000000D-01  1.3426422902613D+00  6.2345147544531D-01
41  4.0000000000000D-01  1.3386473787762D+00  6.3861647526930D-01
42  4.1000000000000D-01  1.3324358730463D+00  6.5367769677147D-01
43  4.2000000000000D-01  1.3240302552133D+00  6.6862811613287D-01
44  4.3000000000000D-01  1.3134571905478D+00  6.8346050266923D-01
45  4.4000000000000D-01  1.3007474583002D+00  6.9816742681839D-01
46  4.5000000000000D-01  1.2859358737514D+00  7.1274126879070D-01
47  4.6000000000000D-01  1.2690612016354D+00  7.2717422786798D-01
48  4.7000000000000D-01  1.2501660611285D+00  7.4145833233574D-01
49  4.8000000000000D-01  1.2292968226167D+00  7.5558545003115D-01
50  4.9000000000000D-01  1.2065034964750D+00  7.6954729948822D-01
51  5.0000000000000D-01  1.1818396141084D+00  7.8333546165989D-01
52  5.1000000000000D-01  1.1553621015251D+00  7.9694139219542D-01
53  5.2000000000000D-01  1.1271311457295D+00  8.1035643424985D-01
54  5.3000000000000D-01  1.0972100542386D+00  8.2357183180123D-01
55  5.4000000000000D-01  1.0656651080453D+00  8.3657874344947D-01
56  5.5000000000000D-01  1.0325654083639D+00  8.4936825667009D-01
57  5.6000000000000D-01  9.9798271751250D-01  8.6193140249404D-01
58  5.7000000000000D-01  9.6199129429880D-01  8.7425917058434D-01
59  5.8000000000000D-01  9.2466772429079D-01  8.8634252467858D-01
60  5.9000000000000D-01  8.8609074536636D-01  8.9817241836556D-01
61  6.0000000000000D-01  8.4634106894822D-01  9.0973981116319D-01
62  6.1000000000000D-01  8.0550119734127D-01  9.2103568486382D-01
63  6.2000000000000D-01  7.6365523760015D-01  9.3205106011230D-01
64  6.3000000000000D-01  7.2088871236350D-01  9.4277701318123D-01
65  6.4000000000000D-01  6.7728836809989D-01  9.5320469290713D-01
66  6.5000000000000D-01  6.3294198121754D-01  9.6332533775044D-01
67  6.6000000000000D-01  5.8793816249560D-01  9.7313029294196D-01
68  6.7000000000000D-01  5.4236616030022D-01  9.8261102767750D-01
69  6.8000000000000D-01  4.9631566305201D-01  9.9175915232217D-01
70  6.9000000000000D-01  4.4987660141440D-01  1.0005664355855D+00
71  7.0000000000000D-01  4.0313895067370D-01  1.0090248216284D+00
72  7.1000000000000D-01  3.5619253378218D-01  1.0171264470617D+00
73  7.2000000000000D-01  3.0912682553434D-01  1.0248636577986D+00
74  7.3000000000000D-01  2.6203075834476D-01  1.0322290257191D+00
75  7.4000000000000D-01  2.1499253009224D-01  1.0392153651100D+00
76  7.5000000000000D-01  1.6809941449082D-01  1.0458157488381D+00
77  7.6000000000000D-01  1.2143757444236D-01  1.0520235242202D+00
78  7.7000000000000D-01  7.5091878818395D-02  1.0578323285501D+00
79  7.8000000000000D-01  2.9145723111067D-02  1.0632361042452D+00
80  7.9000000000000D-01 -1.6319145616441D-02  1.0682291135737D+00
81  8.0000000000000D-01 -6.1222799060018D-02  1.0728059529276D+00
82  8.1000000000000D-01 -1.0548729287682D-01  1.0769615666039D+00
83  8.2000000000000D-01 -1.4903682636387D-01  1.0806912600590D+00
84  8.3000000000000D-01 -1.9179789623104D-01  1.0839907126019D+00
85  8.4000000000000D-01 -2.3369944410153D-01  1.0868559894934D+00
86  8.5000000000000D-01 -2.7467299738836D-01  1.0892835534176D+00
87  8.6000000000000D-01 -3.1465280321294D-01  1.0912702752973D+00
88  8.7000000000000D-01 -3.5357595504886D-01  1.0928134444197D+00
89  8.8000000000000D-01 -3.9138251179343D-01  1.0939107778481D+00
90  8.9000000000000D-01 -4.2801560898873D-01  1.0945604290899D+00
91  9.0000000000000D-01 -4.6342156193447D-01  1.0947609959965D+00
92  9.1000000000000D-01 -4.9754996045609D-01  1.0945115278713D+00
93  9.2000000000000D-01 -5.3035375511358D-01  1.0938115317638D+00
94  9.3000000000000D-01 -5.6178933465874D-01  1.0926609779294D+00
95  9.4000000000000D-01 -5.9181659457199D-01  1.0910603044366D+00
96  9.5000000000000D-01 -6.2039899653349D-01  1.0890104209045D+00
97  9.6000000000000D-01 -6.4750361870720D-01  1.0865127113574D+00
98  9.7000000000000D-01 -6.7310119674125D-01  1.0835690361814D+00
99  9.8000000000000D-01 -6.9716615541277D-01  1.0801817331762D+00
100  9.9000000000000D-01 -7.1967663087042D-01  1.0763536176894D+00
101  1.0000000000000D+00 -7.4061448345316D-01  1.0720879818314D+00
102  1.0100000000000D+00 -7.5996530108913D-01  1.0673885927631D+00
103  1.0200000000000D+00 -7.7771839330399D-01  1.0622596900572D+00
104  1.0300000000000D+00 -7.9386677589396D-01  1.0567059821326D+00
105  1.0400000000000D+00 -8.0840714634263D-01  1.0507326417646D+00
106  1.0500000000000D+00 -8.2133985008768D-01  1.0443453006760D+00
107  1.0600000000000D+00 -8.3266883776728D-01  1.0375500432164D+00
108  1.0700000000000D+00 -8.4240161360049D-01  1.0303533991397D+00
109  1.0800000000000D+00 -8.5054917508152D-01  1.0227623354915D+00
110  1.0900000000000D+00 -8.5712594418846D-01  1.0147842476203D+00
111  1.1000000000000D+00 -8.6214969033340D-01  1.0064269493293D+00
112  1.1100000000000D+00 -8.6564144530153D-01  9.9769866218765D-01
113  1.1200000000000D+00 -8.6762541044953D-01  9.8860800402220D-01
114  1.1300000000000D+00 -8.6812885645362D-01  9.7916397661214D-01
115  1.1400000000000D+00 -8.6718201591805D-01  9.6937595261275D-01
116  1.1500000000000D+00 -8.6481796917544D-01  9.5925366173502D-01
117  1.1600000000000D+00 -8.6107252362820D-01  9.4880717621083D-01
118  1.1700000000000D+00 -8.5598408699629D-01  9.3804689557497D-01
119  1.1800000000000D+00 -8.4959353485410D-01  9.2698353079712D-01
120  1.1900000000000D+00 -8.4194407285533D-01  9.1562808779908D-01
121  1.2000000000000D+00 -8.3308109405884D-01  9.0399185039425D-01
122  1.2100000000000D+00 -8.2305203177702D-01  8.9208636268725D-01
123  1.2200000000000D+00 -8.1190620838676D-01  8.7992341097436D-01
124  1.2300000000000D+00 -7.9969468054960D-01  8.6751500518605D-01
125  1.2400000000000D+00 -7.8647008129543D-01  8.5487335991446D-01
126  1.2500000000000D+00 -7.7228645943491D-01  8.4201087506985D-01
127  1.2600000000000D+00 -7.5719911677135D-01  8.2894011621166D-01
128  1.2700000000000D+00 -7.4126444358580D-01  8.1567379460006D-01
129  1.2800000000000D+00 -7.2453975287497D-01  8.0222474701528D-01
130  1.2900000000000D+00 -7.0708311382310D-01  7.8860591539282D-01
131  1.3000000000000D+00 -6.8895318498789D-01  7.7483032632293D-01
132  1.3100000000000D+00 -6.7020904768376D-01  7.6091107046340D-01
133  1.3200000000000D+00 -6.5091004003807D-01  7.4686128191532D-01
134  1.3300000000000D+00 -6.3111559219713D-01  7.3269411761116D-01
135  1.3400000000000D+00 -6.1088506315396D-01  7.1842273676521D-01
136  1.3500000000000D+00 -5.9027757965380D-01  7.0406028043579D-01
137  1.3600000000000D+00 -5.6935187764371D-01  6.8961985124882D-01
138  1.3700000000000D+00 -5.4816614670603D-01  6.7511449333208D-01
139  1.3800000000000D+00 -5.2677787790689D-01  6.6055717250799D-01
140  1.3900000000000D+00 -5.0524371550147D-01  6.4596075679426D-01
141  1.4000000000000D+00 -4.8361931288307D-01  6.3133799725799D-01
142  1.4100000000000D+00 -4.6195919319148D-01  6.1670150927068D-01
143  1.4200000000000D+00 -4.4031661495919D-01  6.0206375420927D-01
144  1.4300000000000D+00 -4.1874344313836D-01  5.8743702164550D-01
145  1.4400000000000D+00 -3.9729002589874D-01  5.7283341206959D-01
146  1.4500000000000D+00 -3.7600507747085D-01  5.5826482018524D-01
147  1.4600000000000D+00 -3.5493556738822D-01  5.4374291881904D-01
148  1.4700000000000D+00 -3.3412661639318D-01  5.2927914348032D-01
149  1.4800000000000D+00 -3.1362139926060D-01  5.1488467760633D-01
150  1.4900000000000D+00 -2.9346105483351D-01  5.0057043853119D-01
151  1.5000000000000D+00 -2.7368460340227D-01  4.8634706420251D-01
152  1.5100000000000D+00 -2.5432887173828D-01  4.7222490068574D-01
153  1.5200000000000D+00 -2.3542842583746D-01  4.5821399047299D-01
154  1.5300000000000D+00 -2.1701551161658D-01  4.4432406162993D-01
155  1.5400000000000D+00 -1.9912000362509D-01  4.3056451779811D-01
156  1.5500000000000D+00 -1.8176936188700D-01  4.1694442907384D-01
157  1.5600000000000D+00 -1.6498859697074D-01  4.0347252378428D-01
158  1.5700000000000D+00 -1.4880024325925D-01  3.9015718116739D-01
159  1.5800000000000D+00 -1.3322434055821D-01  3.7700642498073D-01
160  1.5900000000000D+00 -1.1827842387196D-01  3.6402791803033D-01
161  1.6000000000000D+00 -1.0397752151729D-01  3.5122895764848D-01
162  1.6100000000000D+00 -9.0334161283206D-02  3.3861647209805D-01
163  1.6200000000000D+00 -7.7358384801227D-02  3.2619701793198D-01
164  1.6300000000000D+00 -6.5057769767061D-02  3.1397677827754D-01
165  1.6400000000000D+00 -5.3437460117377D-02  3.0196156206753D-01
166  1.6500000000000D+00 -4.2500203780330D-02  2.9015680418497D-01
167  1.6600000000000D+00 -3.2246398023838D-02  2.7856756653465D-01
168  1.6700000000000D+00 -2.2674142002160D-02  2.6719854000523D-01
169  1.6800000000000D+00 -1.3779296454612D-02  2.5605404732764D-01
170  1.6900000000000D+00 -5.5555501315903D-03  2.4513804678929D-01
171  1.7000000000000D+00  2.0055071539002D-03  2.3445413680394D-01
172  1.7100000000000D+00  8.9143053084241D-03  2.2400556129147D-01
173  1.7200000000000D+00  1.5183208715227D-02  2.1379521586295D-01
174  1.7300000000000D+00  2.0826425468206D-02  2.0382565475897D-01
175  1.7400000000000D+00  2.5859911248375D-02  1.9409909853417D-01
176  1.7500000000000D+00  3.0301268392035D-02  1.8461744242821D-01
177  1.7600000000000D+00  3.4169640330207D-02  1.7538226541563D-01
178  1.7700000000000D+00  3.7485601993169D-02  1.6639483986661D-01
179  1.7800000000000D+00  4.0271046371647D-02  1.5765614181140D-01
180  1.7900000000000D+00  4.2549067858395D-02  1.4916686173296D-01
181  1.8000000000000D+00  4.4343842589372D-02  1.4092741587974D-01
182  1.8100000000000D+00  4.5680506394880D-02  1.3293795802095D-01
183  1.8200000000000D+00  4.6585030654483D-02  1.2519839162786D-01
184  1.8300000000000D+00  4.7084096596902D-02  1.1770838241105D-01
185  1.8400000000000D+00  4.7204968437479D-02  1.1046737118244D-01
186  1.8500000000000D+00  4.6975365817238D-02  1.0347458698334D-01
187  1.8600000000000D+00  4.6423336006034D-02  9.6729060433695D-02
188  1.8700000000000D+00  4.5577126296390D-02  9.0229637252674D-02
189  1.8800000000000D+00  4.4465057048742D-02  8.3974991898092D-02
190  1.8900000000000D+00  4.3115395857133D-02  7.7963641276686D-02
191  1.9000000000000D+00  4.1556233186725D-02  7.2193958475939D-02
192  1.9100000000000D+00  3.9815360093035D-02  6.6664186460326D-02
193  1.9200000000000D+00  3.7920148183290D-02  6.1372451697215D-02
194  1.9300000000000D+00  3.5897432571427D-02  5.6316777641154D-02
195  1.9400000000000D+00  3.3773397891745D-02  5.1495098053412D-02
196  1.9500000000000D+00  3.1573468049416D-02  4.6905270086570D-02
197  1.9600000000000D+00  2.9322199944400D-02  4.2545087100405D-02
198  1.9700000000000D+00  2.7043181489256D-02  3.8412291167600D-02
199  1.9800000000000D+00  2.4758934583429D-02  3.4504585197467D-02
200  1.9900000000000D+00  2.2490822797077D-02  3.0819644690135D-02
201  2.0000000000000D+00  2.0258964885735D-02  2.7355129003269D-02
202  2.0100000000000D+00  1.8082153619856D-02  2.4108692172687D-02
203  2.0200000000000D+00  1.5977780833497D-02  2.1077993187581D-02
204  2.0300000000000D+00  1.3961768718136D-02  1.8260705709451D-02
205  2.0400000000000D+00  1.2048507371389D-02  1.5654527225772D-02
206  2.0500000000000D+00  1.0250799536781D-02  1.3257187532801D-02
207  2.0600000000000D+00  8.5798116944626D-03  1.1066456629177D-02
208  2.0700000000000D+00  7.0450327812050D-03  9.0801518763817D-03
209  2.0800000000000D+00  5.6542398946868D-03  7.2961444887275D-03
210  2.0900000000000D+00  4.4134713201716D-03  5.7123653092707D-03
211  2.1000000000000D+00  3.3277663995320D-03  4.3279536964113D-03
212  2.1100000000000D+00  2.3980728910932D-03  3.1386184497862D-03
213  2.1200000000000D+00  1.6230299621406D-03  2.1395647862205D-03
214  2.1300000000000D+00  1.0035812384874D-03  1.3318852711756D-03
215  2.1400000000000D+00  5.4601343284547D-04  7.2663298939649D-04
216  2.1500000000000D+00  2.5084750119798D-04  3.2823356035568D-04
217  2.1600000000000D+00  8.7471863187611D-05  1.0308451766815D-04
218  2.1700000000000D+00  1.5272055583170D-05  4.0186552923757D-06
219  2.1800000000000D+00 -6.1053972473071D-06 -1.9058540867430D-05
220  2.1900000000000D+00 -2.9270299531601D-06 -6.6012435677211D-06
221  2.2000000000000D+00  2.9550562000017D-06  5.7811844753967D-06
222  2.2100000000000D+00  3.5038101047821D-06  6.5607887166729D-06
223  2.2200000000000D+00 -7.5709894524223D-09 -1.6321871643460D-08
224  2.2300000000000D+00 -5.9172630164626D-07 -1.2191632496862D-06
225  2.2400000000000D+00 -4.2924598807291D-07 -8.5796746635105D-07
226  2.2500000000000D+00 -3.4556147180816D-08 -2.4817614876246D-08
227  2.2600000000000D+00 -7.7024673895060D-08 -5.5317761054024D-08
228  2.2700000000000D+00 -2.8941898554585D-08 -2.0785560622737D-08
229  2.2800000000000D+00  0.0000000000000D+00  0.0000000000000D+00
230  2.2900000000000D+00  0.0000000000000D+00  0.0000000000000D+00
231  2.3000000000000D+00  0.0000000000000D+00  0.0000000000000D+00
232  2.3100000000000D+00  0.0000000000000D+00  0.0000000000000D+00
233  2.3200000000000D+00  0.0000000000000D+00  0.0000000000000D+00
234  2.3300000000000D+00  0.0000000000000D+00  0.0000000000000D+00
235  2.3400000000000D+00  0.0000000000000D+00  0.0000000000000D+00
236  2.3500000000000D+00  0.0000000000000D+00  0.0000000000000D+00
237  2.3600000000000D+00  0.0000000000000D+00  0.0000000000000D+00
238  2.3700000000000D+00  0.0000000000000D+00  0.0000000000000D+00
239  2.3800000000000D+00  0.0000000000000D+00  0.0000000000000D+00
240  2.3900000000000D+00  0.0000000000000D+00  0.0000000000000D+00
241  2.4000000000000D+00  0.0000000000000D+00  0.0000000000000D+00
242  2.4100000000000D+00  0.0000000000000D+00  0.0000000000000D+00
243  2.4200000000000D+00  0.0000000000000D+00  0.0000000000000D+00
244  2.4300000000000D+00  0.0000000000000D+00  0.0000000000000D+00
245  2.4400000000000D+00  0.0000000000000D+00  0.0000000000000D+00
246  2.4500000000000D+00  0.0000000000000D+00  0.0000000000000D+00
247  2.4600000000000D+00  0.0000000000000D+00  0.0000000000000D+00
248  2.4700000000000D+00  0.0000000000000D+00  0.0000000000000D+00
249  2.4800000000000D+00  0.0000000000000D+00  0.0000000000000D+00
250  2.4900000000000D+00  0.0000000000000D+00  0.0000000000000D+00
251  2.5000000000000D+00  0.0000000000000D+00  0.0000000000000D+00
252  2.5100000000000D+00  0.0000000000000D+00  0.0000000000000D+00
253  2.5200000000000D+00  0.0000000000000D+00  0.0000000000000D+00
254  2.5300000000000D+00  0.0000000000000D+00  0.0000000000000D+00
255  2.5400000000000D+00  0.0000000000000D+00  0.0000000000000D+00
256  2.5500000000000D+00  0.0000000000000D+00  0.0000000000000D+00
257  2.5600000000000D+00  0.0000000000000D+00  0.0000000000000D+00
258  2.5700000000000D+00  0.0000000000000D+00  0.0000000000000D+00
259  2.5800000000000D+00  0.0000000000000D+00  0.0000000000000D+00
260  2.5900000000000D+00  0.0000000000000D+00  0.0000000000000D+00
261  2.6000000000000D+00  0.0000000000000D+00  0.0000000000000D+00
262  2.6100000000000D+00  0.0000000000000D+00  0.0000000000000D+00
263  2.6200000000000D+00  0.0000000000000D+00  0.0000000000000D+00
264  2.6300000000000D+00  0.0000000000000D+00  0.0000000000000D+00
265  2.6400000000000D+00  0.0000000000000D+00  0.0000000000000D+00
266  2.6500000000000D+00  0.0000000000000D+00  0.0000000000000D+00
267  2.6600000000000D+00  0.0000000000000D+00  0.0000000000000D+00
268  2.6700000000000D+00  0.0000000000000D+00  0.0000000000000D+00
269  2.6800000000000D+00  0.0000000000000D+00  0.0000000000000D+00
270  2.6900000000000D+00  0.0000000000000D+00  0.0000000000000D+00
271  2.7000000000000D+00  0.0000000000000D+00  0.0000000000000D+00
272  2.7100000000000D+00  0.0000000000000D+00  0.0000000000000D+00
273  2.7200000000000D+00  0.0000000000000D+00  0.0000000000000D+00
274  2.7300000000000D+00  0.0000000000000D+00  0.0000000000000D+00
275  2.7400000000000D+00  0.0000000000000D+00  0.0000000000000D+00
276  2.7500000000000D+00  0.0000000000000D+00  0.0000000000000D+00
277  2.7600000000000D+00  0.0000000000000D+00  0.0000000000000D+00
278  2.7700000000000D+00  0.0000000000000D+00  0.0000000000000D+00
279  2.7800000000000D+00  0.0000000000000D+00  0.0000000000000D+00
280  2.7900000000000D+00  0.0000000000000D+00  0.0000000000000D+00
281  2.8000000000000D+00  0.0000000000000D+00  0.0000000000000D+00
282  2.8100000000000D+00  0.0000000000000D+00  0.0000000000000D+00
283  2.8200000000000D+00  0.0000000000000D+00  0.0000000000000D+00
284  2.8300000000000D+00  0.0000000000000D+00  0.0000000000000D+00
285  2.8400000000000D+00  0.0000000000000D+00  0.0000000000000D+00
286  2.8500000000000D+00  0.0000000000000D+00  0.0000000000000D+00
287  2.8600000000000D+00  0.0000000000000D+00  0.0000000000000D+00
288  2.8700000000000D+00  0.0000000000000D+00  0.0000000000000D+00
289  2.8800000000000D+00  0.0000000000000D+00  0.0000000000000D+00
290  2.8900000000000D+00  0.0000000000000D+00  0.0000000000000D+00
291  2.9000000000000D+00  0.0000000000000D+00  0.0000000000000D+00
292  2.9100000000000D+00  0.0000000000000D+00  0.0000000000000D+00
293  2.9200000000000D+00  0.0000000000000D+00  0.0000000000000D+00
294  2.9300000000000D+00  0.0000000000000D+00  0.0000000000000D+00
295  2.9400000000000D+00  0.0000000000000D+00  0.0000000000000D+00
296  2.9500000000000D+00  0.0000000000000D+00  0.0000000000000D+00
297  2.9600000000000D+00  0.0000000000000D+00  0.0000000000000D+00
298  2.9700000000000D+00  0.0000000000000D+00  0.0000000000000D+00
299  2.9800000000000D+00  0.0000000000000D+00  0.0000000000000D+00
300  2.9900000000000D+00  0.0000000000000D+00  0.0000000000000D+00
301  3.0000000000000D+00  0.0000000000000D+00  0.0000000000000D+00
302  3.0100000000000D+00  0.0000000000000D+00  0.0000000000000D+00
303  3.0200000000000D+00  0.0000000000000D+00  0.0000000000000D+00
304  3.0300000000000D+00  0.0000000000000D+00  0.0000000000000D+00
305  3.0400000000000D+00  0.0000000000000D+00  0.0000000000000D+00
306  3.0500000000000D+00  0.0000000000000D+00  0.0000000000000D+00
307  3.0600000000000D+00  0.0000000000000D+00  0.0000000000000D+00
308  3.0700000000000D+00  0.0000000000000D+00  0.0000000000000D+00
309  3.0800000000000D+00  0.0000000000000D+00  0.0000000000000D+00
310  3.0900000000000D+00  0.0000000000000D+00  0.0000000000000D+00
311  3.1000000000000D+00  0.0000000000000D+00  0.0000000000000D+00
312  3.1100000000000D+00  0.0000000000000D+00  0.0000000000000D+00
313  3.1200000000000D+00  0.0000000000000D+00  0.0000000000000D+00
314  3.1300000000000D+00  0.0000000000000D+00  0.0000000000000D+00
315  3.1400000000000D+00  0.0000000000000D+00  0.0000000000000D+00
316  3.1500000000000D+00  0.0000000000000D+00  0.0000000000000D+00
317  3.1600000000000D+00  0.0000000000000D+00  0.0000000000000D+00
318  3.1700000000000D+00  0.0000000000000D+00  0.0000000000000D+00
319  3.1800000000000D+00  0.0000000000000D+00  0.0000000000000D+00
320  3.1900000000000D+00  0.0000000000000D+00  0.0000000000000D+00
321  3.2000000000000D+00  0.0000000000000D+00  0.0000000000000D+00
322  3.2100000000000D+00  0.0000000000000D+00  0.0000000000000D+00
323  3.2200000000000D+00  0.0000000000000D+00  0.0000000000000D+00
324  3.2300000000000D+00  0.0000000000000D+00  0.0000000000000D+00
325  3.2400000000000D+00  0.0000000000000D+00  0.0000000000000D+00
326  3.2500000000000D+00  0.0000000000000D+00  0.0000000000000D+00
327  3.2600000000000D+00  0.0000000000000D+00  0.0000000000000D+00
328  3.2700000000000D+00  0.0000000000000D+00  0.0000000000000D+00
329  3.2800000000000D+00  0.0000000000000D+00  0.0000000000000D+00
330  3.2900000000000D+00  0.0000000000000D+00  0.0000000000000D+00
331  3.3000000000000D+00  0.0000000000000D+00  0.0000000000000D+00
332  3.3100000000000D+00  0.0000000000000D+00  0.0000000000000D+00
333  3.3200000000000D+00  0.0000000000000D+00  0.0000000000000D+00
334  3.3300000000000D+00  0.0000000000000D+00  0.0000000000000D+00
335  3.3400000000000D+00  0.0000000000000D+00  0.0000000000000D+00
336  3.3500000000000D+00  0.0000000000000D+00  0.0000000000000D+00
337  3.3600000000000D+00  0.0000000000000D+00  0.0000000000000D+00
338  3.3700000000000D+00  0.0000000000000D+00  0.0000000000000D+00
339  3.3800000000000D+00  0.0000000000000D+00  0.0000000000000D+00
340  3.3900000000000D+00  0.0000000000000D+00  0.0000000000000D+00
341  3.4000000000000D+00  0.0000000000000D+00  0.0000000000000D+00
342  3.4100000000000D+00  0.0000000000000D+00  0.0000000000000D+00
343  3.4200000000000D+00  0.0000000000000D+00  0.0000000000000D+00
344  3.4300000000000D+00  0.0000000000000D+00  0.0000000000000D+00
345  3.4400000000000D+00  0.0000000000000D+00  0.0000000000000D+00
346  3.4500000000000D+00  0.0000000000000D+00  0.0000000000000D+00
347  3.4600000000000D+00  0.0000000000000D+00  0.0000000000000D+00
348  3.4700000000000D+00  0.0000000000000D+00  0.0000000000000D+00
349  3.4800000000000D+00  0.0000000000000D+00  0.0000000000000D+00
350  3.4900000000000D+00  0.0000000000000D+00  0.0000000000000D+00
351  3.5000000000000D+00  0.0000000000000D+00  0.0000000000000D+00
352  3.5100000000000D+00  0.0000000000000D+00  0.0000000000000D+00
353  3.5200000000000D+00  0.0000000000000D+00  0.0000000000000D+00
354  3.5300000000000D+00  0.0000000000000D+00  0.0000000000000D+00
355  3.5400000000000D+00  0.0000000000000D+00  0.0000000000000D+00
356  3.5500000000000D+00  0.0000000000000D+00  0.0000000000000D+00
357  3.5600000000000D+00  0.0000000000000D+00  0.0000000000000D+00
358  3.5700000000000D+00  0.0000000000000D+00  0.0000000000000D+00
359  3.5800000000000D+00  0.0000000000000D+00  0.0000000000000D+00
360  3.5900000000000D+00  0.0000000000000D+00  0.0000000000000D+00
361  3.6000000000000D+00  0.0000000000000D+00  0.0000000000000D+00
362  3.6100000000000D+00  0.0000000000000D+00  0.0000000000000D+00
363  3.6200000000000D+00  0.0000000000000D+00  0.0000000000000D+00
364  3.6300000000000D+00  0.0000000000000D+00  0.0000000000000D+00
365  3.6400000000000D+00  0.0000000000000D+00  0.0000000000000D+00
366  3.6500000000000D+00  0.0000000000000D+00  0.0000000000000D+00
367  3.6600000000000D+00  0.0000000000000D+00  0.0000000000000D+00
368  3.6700000000000D+00  0.0000000000000D+00  0.0000000000000D+00
369  3.6800000000000D+00  0.0000000000000D+00  0.0000000000000D+00
370  3.6900000000000D+00  0.0000000000000D+00  0.0000000000000D+00
371  3.7000000000000D+00  0.0000000000000D+00  0.0000000000000D+00
372  3.7100000000000D+00  0.0000000000000D+00  0.0000000000000D+00
373  3.7200000000000D+00  0.0000000000000D+00  0.0000000000000D+00
374  3.7300000000000D+00  0.0000000000000D+00  0.0000000000000D+00
375  3.7400000000000D+00  0.0000000000000D+00  0.0000000000000D+00
376  3.7500000000000D+00  0.0000000000000D+00  0.0000000000000D+00
377  3.7600000000000D+00  0.0000000000000D+00  0.0000000000000D+00
378  3.7700000000000D+00  0.0000000000000D+00  0.0000000000000D+00
379  3.7800000000000D+00  0.0000000000000D+00  0.0000000000000D+00
380  3.7900000000000D+00  0.0000000000000D+00  0.0000000000000D+00
381  3.8000000000000D+00  0.0000000000000D+00  0.0000000000000D+00
382  3.8100000000000D+00  0.0000000000000D+00  0.0000000000000D+00
383  3.8200000000000D+00  0.0000000000000D+00  0.0000000000000D+00
384  3.8300000000000D+00  0.0000000000000D+00  0.0000000000000D+00
385  3.8400000000000D+00  0.0000000000000D+00  0.0000000000000D+00
386  3.8500000000000D+00  0.0000000000000D+00  0.0000000000000D+00
387  3.8600000000000D+00  0.0000000000000D+00  0.0000000000000D+00
388  3.8700000000000D+00  0.0000000000000D+00  0.0000000000000D+00
389  3.8800000000000D+00  0.0000000000000D+00  0.0000000000000D+00
390  3.8900000000000D+00  0.0000000000000D+00  0.0000000000000D+00
391  3.9000000000000D+00  0.0000000000000D+00  0.0000000000000D+00
392  3.9100000000000D+00  0.0000000000000D+00  0.0000000000000D+00
393  3.9200000000000D+00  0.0000000000000D+00  0.0000000000000D+00
394  3.9300000000000D+00  0.0000000000000D+00  0.0000000000000D+00
395  3.9400000000000D+00  0.0000000000000D+00  0.0000000000000D+00
396  3.9500000000000D+00  0.0000000000000D+00  0.0000000000000D+00
397  3.9600000000000D+00  0.0000000000000D+00  0.0000000000000D+00
398  3.9700000000000D+00  0.0000000000000D+00  0.0000000000000D+00
399  3.9800000000000D+00  0.0000000000000D+00  0.0000000000000D+00
400  3.9900000000000D+00  0.0000000000000D+00  0.0000000000000D+00
401  4.0000000000000D+00  0.0000000000000D+00  0.0000000000000D+00
402  4.0100000000000D+00  0.0000000000000D+00  0.0000000000000D+00
403  4.0200000000000D+00  0.0000000000000D+00  0.0000000000000D+00
404  4.0300000000000D+00  0.0000000000000D+00  0.0000000000000D+00
405  4.0400000000000D+00  0.0000000000000D+00  0.0000000000000D+00
406  4.0500000000000D+00  0.0000000000000D+00  0.0000000000000D+00
407  4.0600000000000D+00  0.0000000000000D+00  0.0000000000000D+00
408  4.0700000000000D+00  0.0000000000000D+00  0.0000000000000D+00
409  4.0800000000000D+00  0.0000000000000D+00  0.0000000000000D+00
410  4.0900000000000D+00  0.0000000000000D+00  0.0000000000000D+00
411  4.1000000000000D+00  0.0000000000000D+00  0.0000000000000D+00
412  4.1100000000000D+00  0.0000000000000D+00  0.0000000000000D+00
413  4.1200000000000D+00  0.0000000000000D+00  0.0000000000000D+00
414  4.1300000000000D+00  0.0000000000000D+00  0.0000000000000D+00
415  4.1400000000000D+00  0.0000000000000D+00  0.0000000000000D+00
416  4.1500000000000D+00  0.0000000000000D+00  0.0000000000000D+00
417  4.1600000000000D+00  0.0000000000000D+00  0.0000000000000D+00
418  4.1700000000000D+00  0.0000000000000D+00  0.0000000000000D+00
419  4.1800000000000D+00  0.0000000000000D+00  0.0000000000000D+00
420  4.1900000000000D+00  0.0000000000000D+00  0.0000000000000D+00
421  4.2000000000000D+00  0.0000000000000D+00  0.0000000000000D+00
422  4.2100000000000D+00  0.0000000000000D+00  0.0000000000000D+00
423  4.2200000000000D+00  0.0000000000000D+00  0.0000000000000D+00
424  4.2300000000000D+00  0.0000000000000D+00  0.0000000000000D+00
425  4.2400000000000D+00  0.0000000000000D+00  0.0000000000000D+00
426  4.2500000000000D+00  0.0000000000000D+00  0.0000000000000D+00
427  4.2600000000000D+00  0.0000000000000D+00  0.0000000000000D+00
428  4.2700000000000D+00  0.0000000000000D+00  0.0000000000000D+00
429  4.2800000000000D+00  0.0000000000000D+00  0.0000000000000D+00
430  4.2900000000000D+00  0.0000000000000D+00  0.0000000000000D+00
431  4.3000000000000D+00  0.0000000000000D+00  0.0000000000000D+00
432  4.3100000000000D+00  0.0000000000000D+00  0.0000000000000D+00
433  4.3200000000000D+00  0.0000000000000D+00  0.0000000000000D+00
434  4.3300000000000D+00  0.0000000000000D+00  0.0000000000000D+00
435  4.3400000000000D+00  0.0000000000000D+00  0.0000000000000D+00
436  4.3500000000000D+00  0.0000000000000D+00  0.0000000000000D+00
437  4.3600000000000D+00  0.0000000000000D+00  0.0000000000000D+00
438  4.3700000000000D+00  0.0000000000000D+00  0.0000000000000D+00
439  4.3800000000000D+00  0.0000000000000D+00  0.0000000000000D+00
440  4.3900000000000D+00  0.0000000000000D+00  0.0000000000000D+00
441  4.4000000000000D+00  0.0000000000000D+00  0.0000000000000D+00
442  4.4100000000000D+00  0.0000000000000D+00  0.0000000000000D+00
443  4.4200000000000D+00  0.0000000000000D+00  0.0000000000000D+00
444  4.4300000000000D+00  0.0000000000000D+00  0.0000000000000D+00