Ag    ONCVPSP  r_core=  1.41  1.47  1.61
47.0000     19.0000      151030    zatom,zion,pspd
8   -1013   2     4   600     0    pspcod,pspxc,lmax,lloc,mmax,r2well
5.99000000  7.00000000  0.00000000    rchrg fchrg qchrg
2     2     2     0     0    nproj
1                 extension_switch
0                         9.5478101047587D+00 -3.0709566497562D-01
1  0.0000000000000D+00 -8.8785978569206D-11 -4.8767149207762D-09
2  1.0000000000000D-02  7.9443143982431D-02  7.2444988700697D-02
3  2.0000000000000D-02  1.5869402823652D-01  1.4429980600660D-01
4  3.0000000000000D-02  2.3756101190899D-01  2.1498060337237D-01
5  4.0000000000000D-02  3.1585368910711D-01  2.8391609243202D-01
6  5.0000000000000D-02  3.9338349942779D-01  3.5055361255558D-01
7  6.0000000000000D-02  4.6996433020940D-01  4.1436494689207D-01
8  7.0000000000000D-02  5.4541310785273D-01  4.7485180888106D-01
9  8.0000000000000D-02  6.1955037564668D-01  5.3155092609192D-01
10  9.0000000000000D-02  6.9220085564269D-01  5.8403865420749D-01
11  1.0000000000000D-01  7.6319399224929D-01  6.3193506091982D-01
12  1.1000000000000D-01  8.3236447536220D-01  6.7490742734325D-01
13  1.2000000000000D-01  8.9955274100415D-01  7.1267312316023D-01
14  1.3000000000000D-01  9.6460544762053D-01  7.4500182096597D-01
15  1.4000000000000D-01  1.0273759263590D+00  7.7171702503332D-01
16  1.5000000000000D-01  1.0877246038519D+00  7.9269689982978D-01
17  1.6000000000000D-01  1.1455193962156D+00  8.0787439393489D-01
18  1.7000000000000D-01  1.2006360731826D+00  8.1723666537094D-01
19  1.8000000000000D-01  1.2529585914780D+00  8.2082382461741D-01
20  1.9000000000000D-01  1.3023793967570D+00  8.1872702157472D-01
21  2.0000000000000D-01  1.3487996936058D+00  8.1108591232313D-01
22  2.1000000000000D-01  1.3921296833058D+00  7.9808555054344D-01
23  2.2000000000000D-01  1.4322887692315D+00  7.7995275678872D-01
24  2.3000000000000D-01  1.4692057299280D+00  7.5695202629370D-01
25  2.4000000000000D-01  1.5028188600663D+00  7.2938104256498D-01
26  2.5000000000000D-01  1.5330760796207D+00  6.9756586950878D-01
27  2.6000000000000D-01  1.5599350117377D+00  6.6185589923841D-01
28  2.7000000000000D-01  1.5833630298797D+00  6.2261863589125D-01
29  2.8000000000000D-01  1.6033372749205D+00  5.8023439772154D-01
30  2.9000000000000D-01  1.6198446429493D+00  5.3509102039258D-01
31  3.0000000000000D-01  1.6328817445985D+00  4.8757864375168D-01
32  3.1000000000000D-01  1.6424548367579D+00  4.3808466244362D-01
33  3.2000000000000D-01  1.6485797275630D+00  3.8698891752931D-01
34  3.3000000000000D-01  1.6512816555578D+00  3.3465920186877D-01
35  3.4000000000000D-01  1.6505951439334D+00  2.8144714647212D-01
36  3.5000000000000D-01  1.6465638307237D+00  2.2768454839400D-01
37  3.6000000000000D-01  1.6392402758186D+00  1.7368019315393D-01
38  3.7000000000000D-01  1.6286857456159D+00  1.1971721621561D-01
39  3.8000000000000D-01  1.6149699760918D+00  6.6051038886020D-02
40  3.9000000000000D-01  1.5981709150209D+00  1.2907904240286D-02
41  4.0000000000000D-01  1.5783744440260D+00 -3.9515971509495D-02
42  4.1000000000000D-01  1.5556740810866D+00 -9.1054627241621D-02
43  4.2000000000000D-01  1.5301706640839D+00 -1.4157197035663D-01
44  4.3000000000000D-01  1.5019720159143D+00 -1.9096079152984D-01
45  4.4000000000000D-01  1.4711925916664D+00 -2.3914120718110D-01
46  4.5000000000000D-01  1.4379531083216D+00 -2.8605856594748D-01
47  4.6000000000000D-01  1.4023801574208D+00 -3.3168086477810D-01
48  4.7000000000000D-01  1.3646058011306D+00 -3.7599572889909D-01
49  4.8000000000000D-01  1.3247671521492D+00 -4.1900701767169D-01
50  4.9000000000000D-01  1.2830059379100D+00 -4.6073112516221D-01
51  5.0000000000000D-01  1.2394680495834D+00 -5.0119304993450D-01
52  5.1000000000000D-01  1.1943030764258D+00 -5.4042231306874D-01
53  5.2000000000000D-01  1.1476638260996D+00 -5.7844880661552D-01
54  5.3000000000000D-01  1.0997058316765D+00 -6.1529865655264D-01
55  5.4000000000000D-01  1.0505868461374D+00 -6.5099018477488D-01
56  5.5000000000000D-01  1.0004663253091D+00 -6.8553005369696D-01
57  5.6000000000000D-01  9.4950490030901D-01 -7.1890967468428D-01
58  5.7000000000000D-01  8.9786384071910D-01 -7.5110195776514D-01
59  5.8000000000000D-01  8.4570450987228D-01 -7.8205847497888D-01
60  5.9000000000000D-01  7.9318781379995D-01 -8.1170710331540D-01
61  6.0000000000000D-01  7.4047364556735D-01 -8.3995020563647D-01
62  6.1000000000000D-01  6.8772032690102D-01 -8.6666339928830D-01
63  6.2000000000000D-01  6.3508404919185D-01 -8.9169495249208D-01
64  6.3000000000000D-01  5.8271831613370D-01 -9.1486583817372D-01
65  6.4000000000000D-01  5.3077339042769D-01 -9.3597046375070D-01
66  6.5000000000000D-01  4.7939574714201D-01 -9.5477808385532D-01
67  6.6000000000000D-01  4.2872753646434D-01 -9.7103489103827D-01
68  6.7000000000000D-01  3.7890605871372D-01 -9.8446676747754D-01
69  6.8000000000000D-01  3.3006325458825D-01 -9.9478266879316D-01
70  6.9000000000000D-01  2.8232521371078D-01 -1.0016785993698D+00
71  7.0000000000000D-01  2.3581170459431D-01 -1.0048421273555D+00
72  7.1000000000000D-01  1.9063572917776D-01 -1.0039573769367D+00
73  7.2000000000000D-01  1.4690310508060D-01 -9.9871042573183D-01
74  7.3000000000000D-01  1.0471207868772D-01 -9.8879502639265D-01
75  7.4000000000000D-01  6.4152972103183D-02 -9.7391856387208D-01
76  7.5000000000000D-01  2.5307866900904D-02 -9.5380815352666D-01
77  7.6000000000000D-01 -1.1749672547550D-02 -9.2821678030949D-01
78  7.7000000000000D-01 -4.6954833574811D-02 -8.9692937592906D-01
79  7.8000000000000D-01 -8.0251745180693D-02 -8.5976872906651D-01
80  7.9000000000000D-01 -1.1159362134903D-01 -8.1660112360782D-01
81  8.0000000000000D-01 -1.4094285590905D-01 -7.6734160139821D-01
82  8.1000000000000D-01 -1.6827106746290D-01 -7.1195874926986D-01
83  8.2000000000000D-01 -1.9355909326300D-01 -6.5047891499696D-01
84  8.3000000000000D-01 -2.1679693131266D-01 -5.8298976335732D-01
85  8.4000000000000D-01 -2.3798363037782D-01 -5.0964309154996D-01
86  8.5000000000000D-01 -2.5712712803174D-01 -4.3065683273138D-01
87  8.6000000000000D-01 -2.7424403730431D-01 -3.4631618726966D-01
88  8.7000000000000D-01 -2.8935938296728D-01 -2.5697383332614D-01
89  8.8000000000000D-01 -3.0250628895252D-01 -1.6304918139396D-01
90  8.9000000000000D-01 -3.1372561886474D-01 -6.5026651266221D-02
91  9.0000000000000D-01 -3.2306557200900D-01  3.6547035626907D-02
92  9.1000000000000D-01 -3.3058123779984D-01  1.4106654069714D-01
93  9.2000000000000D-01 -3.3633411184763D-01  2.4787254661899D-01
94  9.3000000000000D-01 -3.4039157742281D-01  3.5625731178545D-01
95  9.4000000000000D-01 -3.4282635637467D-01  4.6547108812495D-01
96  9.5000000000000D-01 -3.4371593391938D-01  5.7472933549256D-01
97  9.6000000000000D-01 -3.4314196201711D-01  6.8322065212779D-01
98  9.7000000000000D-01 -3.4118964630996D-01  7.9011532829059D-01
99  9.8000000000000D-01 -3.3794712180071D-01  8.9457441871810D-01
100  9.9000000000000D-01 -3.3350482260591D-01  9.9575921951411D-01
101  1.0000000000000D+00 -3.2795485121456D-01  1.0928410265676D+00
102  1.0100000000000D+00 -3.2139035272313D-01  1.1850110457466D+00
103  1.0200000000000D+00 -3.1390489949262D-01  1.2714903201491D+00
104  1.0300000000000D+00 -3.0559189160026D-01  1.3515395365415D+00
105  1.0400000000000D+00 -2.9654397830356D-01  1.4244685719626D+00
106  1.0500000000000D+00 -2.8685250553584D-01  1.4896456424964D+00
107  1.0600000000000D+00 -2.7660699418836D-01  1.5465059190831D+00
108  1.0700000000000D+00 -2.6589465359466D-01  1.5945594806882D+00
109  1.0800000000000D+00 -2.5479993429161D-01  1.6333984814352D+00
110  1.0900000000000D+00 -2.4340412367246D-01  1.6627034178599D+00
111  1.1000000000000D+00 -2.3178498768255D-01  1.6822483931373D+00
112  1.1100000000000D+00 -2.2001646119799D-01  1.6919052874594D+00
113  1.1200000000000D+00 -2.0816838914635D-01  1.6916467586391D+00
114  1.1300000000000D+00 -1.9630631994664D-01  1.6815480095941D+00
115  1.1400000000000D+00 -1.8449135210596D-01  1.6617872796567D+00
116  1.1500000000000D+00 -1.7278003429341D-01  1.6326450313655D+00
117  1.1600000000000D+00 -1.6122431851751D-01  1.5945018244805D+00
118  1.1700000000000D+00 -1.4987156555351D-01  1.5478348829898D+00
119  1.1800000000000D+00 -1.3876460094637D-01  1.4932133856881D+00
120  1.1900000000000D+00 -1.2794181942943D-01  1.4312925260786D+00
121  1.2000000000000D+00 -1.1743733506976D-01  1.3628064038062D+00
122  1.2100000000000D+00 -1.0728117383733D-01  1.2885598292680D+00
123  1.2200000000000D+00 -9.7499504753147D-02  1.2094191408446D+00
124  1.2300000000000D+00 -8.8114905372146D-02  1.1263021475791D+00
125  1.2400000000000D+00 -7.9146657028788D-02  1.0401673208151D+00
126  1.2500000000000D+00 -7.0611064694013D-02  9.5200237842035D-01
127  1.2600000000000D+00 -6.2521796180242D-02  8.6281240989765D-01
128  1.2700000000000D+00 -5.4890235228557D-02  7.7360769729086D-01
129  1.2800000000000D+00 -4.7725842654257D-02  6.8539140097347D-01
130  1.2900000000000D+00 -4.1036519889132D-02  5.9914727509804D-01
131  1.3000000000000D+00 -3.4828969048389D-02  5.1582758434560D-01
132  1.3100000000000D+00 -2.9109043777952D-02  4.3634139287413D-01
133  1.3200000000000D+00 -2.3882085435687D-02  3.6154338708764D-01
134  1.3300000000000D+00 -1.9153238914954D-02  2.9222340209464D-01
135  1.3400000000000D+00 -1.4927743244739D-02  2.2909679860932D-01
136  1.3500000000000D+00 -1.1211192163170D-02  1.7279583436856D-01
137  1.3600000000000D+00 -8.0097599191205D-03  1.2386217359862D-01
138  1.3700000000000D+00 -5.3318690715625D-03  8.2764333063620D-02
139  1.3800000000000D+00 -3.1811395579841D-03  4.9777565077546D-02
140  1.3900000000000D+00 -1.5599283460747D-03  2.5021857261451D-02
141  1.4000000000000D+00 -5.2146934619450D-04  9.4056054360562D-03
142  1.4100000000000D+00 -3.7496355740320D-05  2.2241734879323D-03
143  1.4200000000000D+00  6.3505672687427D-05  8.1276145347982D-05
144  1.4300000000000D+00  5.3024942144646D-06 -1.8624768337829D-05
145  1.4400000000000D+00 -1.5636205034496D-05  7.6353620747575D-05
146  1.4500000000000D+00  1.2974338831409D-06 -3.2964738832311D-06
147  1.4600000000000D+00  2.4324690922162D-06 -7.8716839506202D-06
148  1.4700000000000D+00 -7.9846491006474D-08 -2.3092866005369D-06
149  1.4800000000000D+00 -4.7441852186553D-08 -1.3720932777143D-06
150  1.4900000000000D+00  0.0000000000000D+00  0.0000000000000D+00
151  1.5000000000000D+00  0.0000000000000D+00  0.0000000000000D+00
152  1.5100000000000D+00  0.0000000000000D+00  0.0000000000000D+00
153  1.5200000000000D+00  0.0000000000000D+00  0.0000000000000D+00
154  1.5300000000000D+00  0.0000000000000D+00  0.0000000000000D+00
155  1.5400000000000D+00  0.0000000000000D+00  0.0000000000000D+00
156  1.5500000000000D+00  0.0000000000000D+00  0.0000000000000D+00
157  1.5600000000000D+00  0.0000000000000D+00  0.0000000000000D+00
158  1.5700000000000D+00  0.0000000000000D+00  0.0000000000000D+00
159  1.5800000000000D+00  0.0000000000000D+00  0.0000000000000D+00
160  1.5900000000000D+00  0.0000000000000D+00  0.0000000000000D+00
161  1.6000000000000D+00  0.0000000000000D+00  0.0000000000000D+00
162  1.6100000000000D+00  0.0000000000000D+00  0.0000000000000D+00
163  1.6200000000000D+00  0.0000000000000D+00  0.0000000000000D+00
164  1.6300000000000D+00  0.0000000000000D+00  0.0000000000000D+00
165  1.6400000000000D+00  0.0000000000000D+00  0.0000000000000D+00
166  1.6500000000000D+00  0.0000000000000D+00  0.0000000000000D+00
167  1.6600000000000D+00  0.0000000000000D+00  0.0000000000000D+00
168  1.6700000000000D+00  0.0000000000000D+00  0.0000000000000D+00
169  1.6800000000000D+00  0.0000000000000D+00  0.0000000000000D+00
170  1.6900000000000D+00  0.0000000000000D+00  0.0000000000000D+00
171  1.7000000000000D+00  0.0000000000000D+00  0.0000000000000D+00
172  1.7100000000000D+00  0.0000000000000D+00  0.0000000000000D+00
173  1.7200000000000D+00  0.0000000000000D+00  0.0000000000000D+00
174  1.7300000000000D+00  0.0000000000000D+00  0.0000000000000D+00
175  1.7400000000000D+00  0.0000000000000D+00  0.0000000000000D+00
176  1.7500000000000D+00  0.0000000000000D+00  0.0000000000000D+00
177  1.7600000000000D+00  0.0000000000000D+00  0.0000000000000D+00
178  1.7700000000000D+00  0.0000000000000D+00  0.0000000000000D+00
179  1.7800000000000D+00  0.0000000000000D+00  0.0000000000000D+00
180  1.7900000000000D+00  0.0000000000000D+00  0.0000000000000D+00
181  1.8000000000000D+00  0.0000000000000D+00  0.0000000000000D+00
182  1.8100000000000D+00  0.0000000000000D+00  0.0000000000000D+00
183  1.8200000000000D+00  0.0000000000000D+00  0.0000000000000D+00
184  1.8300000000000D+00  0.0000000000000D+00  0.0000000000000D+00
185  1.8400000000000D+00  0.0000000000000D+00  0.0000000000000D+00
186  1.8500000000000D+00  0.0000000000000D+00  0.0000000000000D+00
187  1.8600000000000D+00  0.0000000000000D+00  0.0000000000000D+00
188  1.8700000000000D+00  0.0000000000000D+00  0.0000000000000D+00
189  1.8800000000000D+00  0.0000000000000D+00  0.0000000000000D+00
190  1.8900000000000D+00  0.0000000000000D+00  0.0000000000000D+00
191  1.9000000000000D+00  0.0000000000000D+00  0.0000000000000D+00
192  1.9100000000000D+00  0.0000000000000D+00  0.0000000000000D+00
193  1.9200000000000D+00  0.0000000000000D+00  0.0000000000000D+00
194  1.9300000000000D+00  0.0000000000000D+00  0.0000000000000D+00
195  1.9400000000000D+00  0.0000000000000D+00  0.0000000000000D+00
196  1.9500000000000D+00  0.0000000000000D+00  0.0000000000000D+00
197  1.9600000000000D+00  0.0000000000000D+00  0.0000000000000D+00
198  1.9700000000000D+00  0.0000000000000D+00  0.0000000000000D+00
199  1.9800000000000D+00  0.0000000000000D+00  0.0000000000000D+00
200  1.9900000000000D+00  0.0000000000000D+00  0.0000000000000D+00
201  2.0000000000000D+00  0.0000000000000D+00  0.0000000000000D+00
202  2.0100000000000D+00  0.0000000000000D+00  0.0000000000000D+00
203  2.0200000000000D+00  0.0000000000000D+00  0.0000000000000D+00
204  2.0300000000000D+00  0.0000000000000D+00  0.0000000000000D+00
205  2.0400000000000D+00  0.0000000000000D+00  0.0000000000000D+00
206  2.0500000000000D+00  0.0000000000000D+00  0.0000000000000D+00
207  2.0600000000000D+00  0.0000000000000D+00  0.0000000000000D+00
208  2.0700000000000D+00  0.0000000000000D+00  0.0000000000000D+00
209  2.0800000000000D+00  0.0000000000000D+00  0.0000000000000D+00
210  2.0900000000000D+00  0.0000000000000D+00  0.0000000000000D+00
211  2.1000000000000D+00  0.0000000000000D+00  0.0000000000000D+00
212  2.1100000000000D+00  0.0000000000000D+00  0.0000000000000D+00
213  2.1200000000000D+00  0.0000000000000D+00  0.0000000000000D+00
214  2.1300000000000D+00  0.0000000000000D+00  0.0000000000000D+00
215  2.1400000000000D+00  0.0000000000000D+00  0.0000000000000D+00
216  2.1500000000000D+00  0.0000000000000D+00  0.0000000000000D+00
217  2.1600000000000D+00  0.0000000000000D+00  0.0000000000000D+00
218  2.1700000000000D+00  0.0000000000000D+00  0.0000000000000D+00
219  2.1800000000000D+00  0.0000000000000D+00  0.0000000000000D+00
220  2.1900000000000D+00  0.0000000000000D+00  0.0000000000000D+00
221  2.2000000000000D+00  0.0000000000000D+00  0.0000000000000D+00
222  2.2100000000000D+00  0.0000000000000D+00  0.0000000000000D+00
223  2.2200000000000D+00  0.0000000000000D+00  0.0000000000000D+00
224  2.2300000000000D+00  0.0000000000000D+00  0.0000000000000D+00
225  2.2400000000000D+00  0.0000000000000D+00  0.0000000000000D+00
226  2.2500000000000D+00  0.0000000000000D+00  0.0000000000000D+00
227  2.2600000000000D+00  0.0000000000000D+00  0.0000000000000D+00
228  2.2700000000000D+00  0.0000000000000D+00  0.0000000000000D+00
229  2.2800000000000D+00  0.0000000000000D+00  0.0000000000000D+00
230  2.2900000000000D+00  0.0000000000000D+00  0.0000000000000D+00
231  2.3000000000000D+00  0.0000000000000D+00  0.0000000000000D+00
232  2.3100000000000D+00  0.0000000000000D+00  0.0000000000000D+00
233  2.3200000000000D+00  0.0000000000000D+00  0.0000000000000D+00
234  2.3300000000000D+00  0.0000000000000D+00  0.0000000000000D+00
235  2.3400000000000D+00  0.0000000000000D+00  0.0000000000000D+00
236  2.3500000000000D+00  0.0000000000000D+00  0.0000000000000D+00
237  2.3600000000000D+00  0.0000000000000D+00  0.0000000000000D+00
238  2.3700000000000D+00  0.0000000000000D+00  0.0000000000000D+00
239  2.3800000000000D+00  0.0000000000000D+00  0.0000000000000D+00
240  2.3900000000000D+00  0.0000000000000D+00  0.0000000000000D+00
241  2.4000000000000D+00  0.0000000000000D+00  0.0000000000000D+00
242  2.4100000000000D+00  0.0000000000000D+00  0.0000000000000D+00
243  2.4200000000000D+00  0.0000000000000D+00  0.0000000000000D+00
244  2.4300000000000D+00  0.0000000000000D+00  0.0000000000000D+00
245  2.4400000000000D+00  0.0000000000000D+00  0.0000000000000D+00
246  2.4500000000000D+00  0.0000000000000D+00  0.0000000000000D+00
247  2.4600000000000D+00  0.0000000000000D+00  0.0000000000000D+00
248  2.4700000000000D+00  0.0000000000000D+00  0.0000000000000D+00
249  2.4800000000000D+00  0.0000000000000D+00  0.0000000000000D+00
250  2.4900000000000D+00  0.0000000000000D+00  0.0000000000000D+00
251  2.5000000000000D+00  0.0000000000000D+00  0.0000000000000D+00
252  2.5100000000000D+00  0.0000000000000D+00  0.0000000000000D+00
253  2.5200000000000D+00  0.0000000000000D+00  0.0000000000000D+00
254  2.5300000000000D+00  0.0000000000000D+00  0.0000000000000D+00
255  2.5400000000000D+00  0.0000000000000D+00  0.0000000000000D+00
256  2.5500000000000D+00  0.0000000000000D+00  0.0000000000000D+00
257  2.5600000000000D+00  0.0000000000000D+00  0.0000000000000D+00
258  2.5700000000000D+00  0.0000000000000D+00  0.0000000000000D+00
259  2.5800000000000D+00  0.0000000000000D+00  0.0000000000000D+00
260  2.5900000000000D+00  0.0000000000000D+00  0.0000000000000D+00
261  2.6000000000000D+00  0.0000000000000D+00  0.0000000000000D+00
262  2.6100000000000D+00  0.0000000000000D+00  0.0000000000000D+00
263  2.6200000000000D+00  0.0000000000000D+00  0.0000000000000D+00
264  2.6300000000000D+00  0.0000000000000D+00  0.0000000000000D+00
265  2.6400000000000D+00  0.0000000000000D+00  0.0000000000000D+00
266  2.6500000000000D+00  0.0000000000000D+00  0.0000000000000D+00
267  2.6600000000000D+00  0.0000000000000D+00  0.0000000000000D+00
268  2.6700000000000D+00  0.0000000000000D+00  0.0000000000000D+00
269  2.6800000000000D+00  0.0000000000000D+00  0.0000000000000D+00
270  2.6900000000000D+00  0.0000000000000D+00  0.0000000000000D+00
271  2.7000000000000D+00  0.0000000000000D+00  0.0000000000000D+00
272  2.7100000000000D+00  0.0000000000000D+00  0.0000000000000D+00
273  2.7200000000000D+00  0.0000000000000D+00  0.0000000000000D+00
274  2.7300000000000D+00  0.0000000000000D+00  0.0000000000000D+00
275  2.7400000000000D+00  0.0000000000000D+00  0.0000000000000D+00
276  2.7500000000000D+00  0.0000000000000D+00  0.0000000000000D+00
277  2.7600000000000D+00  0.0000000000000D+00  0.0000000000000D+00
278  2.7700000000000D+00  0.0000000000000D+00  0.0000000000000D+00
279  2.7800000000000D+00  0.0000000000000D+00  0.0000000000000D+00
280  2.7900000000000D+00  0.0000000000000D+00  0.0000000000000D+00
281  2.8000000000000D+00  0.0000000000000D+00  0.0000000000000D+00
282  2.8100000000000D+00  0.0000000000000D+00  0.0000000000000D+00
283  2.8200000000000D+00  0.0000000000000D+00  0.0000000000000D+00
284  2.8300000000000D+00  0.0000000000000D+00  0.0000000000000D+00
285  2.8400000000000D+00  0.0000000000000D+00  0.0000000000000D+00
286  2.8500000000000D+00  0.0000000000000D+00  0.0000000000000D+00
287  2.8600000000000D+00  0.0000000000000D+00  0.0000000000000D+00
288  2.8700000000000D+00  0.0000000000000D+00  0.0000000000000D+00
289  2.8800000000000D+00  0.0000000000000D+00  0.0000000000000D+00
290  2.8900000000000D+00  0.0000000000000D+00  0.0000000000000D+00
291  2.9000000000000D+00  0.0000000000000D+00  0.0000000000000D+00
292  2.9100000000000D+00  0.0000000000000D+00  0.0000000000000D+00
293  2.9200000000000D+00  0.0000000000000D+00  0.0000000000000D+00
294  2.9300000000000D+00  0.0000000000000D+00  0.0000000000000D+00
295  2.9400000000000D+00  0.0000000000000D+00  0.0000000000000D+00
296  2.9500000000000D+00  0.0000000000000D+00  0.0000000000000D+00
297  2.9600000000000D+00  0.0000000000000D+00  0.0000000000000D+00
298  2.9700000000000D+00  0.0000000000000D+00  0.0000000000000D+00
299  2.9800000000000D+00  0.0000000000000D+00  0.0000000000000D+00
300  2.9900000000000D+00  0.0000000000000D+00  0.0000000000000D+00
301  3.0000000000000D+00  0.0000000000000D+00  0.0000000000000D+00
302  3.0100000000000D+00  0.0000000000000D+00  0.0000000000000D+00
303  3.0200000000000D+00  0.0000000000000D+00  0.0000000000000D+00
304  3.0300000000000D+00  0.0000000000000D+00  0.0000000000000D+00
305  3.0400000000000D+00  0.0000000000000D+00  0.0000000000000D+00
306  3.0500000000000D+00  0.0000000000000D+00  0.0000000000000D+00
307  3.0600000000000D+00  0.0000000000000D+00  0.0000000000000D+00
308  3.0700000000000D+00  0.0000000000000D+00  0.0000000000000D+00
309  3.0800000000000D+00  0.0000000000000D+00  0.0000000000000D+00
310  3.0900000000000D+00  0.0000000000000D+00  0.0000000000000D+00
311  3.1000000000000D+00  0.0000000000000D+00  0.0000000000000D+00
312  3.1100000000000D+00  0.0000000000000D+00  0.0000000000000D+00
313  3.1200000000000D+00  0.0000000000000D+00  0.0000000000000D+00
314  3.1300000000000D+00  0.0000000000000D+00  0.0000000000000D+00
315  3.1400000000000D+00  0.0000000000000D+00  0.0000000000000D+00
316  3.1500000000000D+00  0.0000000000000D+00  0.0000000000000D+00
317  3.1600000000000D+00  0.0000000000000D+00  0.0000000000000D+00
318  3.1700000000000D+00  0.0000000000000D+00  0.0000000000000D+00
319  3.1800000000000D+00  0.0000000000000D+00  0.0000000000000D+00
320  3.1900000000000D+00  0.0000000000000D+00  0.0000000000000D+00
321  3.2000000000000D+00  0.0000000000000D+00  0.0000000000000D+00
322  3.2100000000000D+00  0.0000000000000D+00  0.0000000000000D+00
323  3.2200000000000D+00  0.0000000000000D+00  0.0000000000000D+00
324  3.2300000000000D+00  0.0000000000000D+00  0.0000000000000D+00
325  3.2400000000000D+00  0.0000000000000D+00  0.0000000000000D+00
326  3.2500000000000D+00  0.0000000000000D+00  0.0000000000000D+00
327  3.2600000000000D+00  0.0000000000000D+00  0.0000000000000D+00
328  3.2700000000000D+00  0.0000000000000D+00  0.0000000000000D+00
329  3.2800000000000D+00  0.0000000000000D+00  0.0000000000000D+00
330  3.2900000000000D+00  0.0000000000000D+00  0.0000000000000D+00
331  3.3000000000000D+00  0.0000000000000D+00  0.0000000000000D+00
332  3.3100000000000D+00  0.0000000000000D+00  0.0000000000000D+00
333  3.3200000000000D+00  0.0000000000000D+00  0.0000000000000D+00
334  3.3300000000000D+00  0.0000000000000D+00  0.0000000000000D+00
335  3.3400000000000D+00  0.0000000000000D+00  0.0000000000000D+00
336  3.3500000000000D+00  0.0000000000000D+00  0.0000000000000D+00
337  3.3600000000000D+00  0.0000000000000D+00  0.0000000000000D+00
338  3.3700000000000D+00  0.0000000000000D+00  0.0000000000000D+00
339  3.3800000000000D+00  0.0000000000000D+00  0.0000000000000D+00
340  3.3900000000000D+00  0.0000000000000D+00  0.0000000000000D+00
341  3.4000000000000D+00  0.0000000000000D+00  0.0000000000000D+00
342  3.4100000000000D+00  0.0000000000000D+00  0.0000000000000D+00
343  3.4200000000000D+00  0.0000000000000D+00  0.0000000000000D+00
344  3.4300000000000D+00  0.0000000000000D+00  0.0000000000000D+00
345  3.4400000000000D+00  0.0000000000000D+00  0.0000000000000D+00
346  3.4500000000000D+00  0.0000000000000D+00  0.0000000000000D+00
347  3.4600000000000D+00  0.0000000000000D+00  0.0000000000000D+00
348  3.4700000000000D+00  0.0000000000000D+00  0.0000000000000D+00
349  3.4800000000000D+00  0.0000000000000D+00  0.0000000000000D+00
350  3.4900000000000D+00  0.0000000000000D+00  0.0000000000000D+00
351  3.5000000000000D+00  0.0000000000000D+00  0.0000000000000D+00
352  3.5100000000000D+00  0.0000000000000D+00  0.0000000000000D+00
353  3.5200000000000D+00  0.0000000000000D+00  0.0000000000000D+00
354  3.5300000000000D+00  0.0000000000000D+00  0.0000000000000D+00
355  3.5400000000000D+00  0.0000000000000D+00  0.0000000000000D+00
356  3.5500000000000D+00  0.0000000000000D+00  0.0000000000000D+00
357  3.5600000000000D+00  0.0000000000000D+00  0.0000000000000D+00
358  3.5700000000000D+00  0.0000000000000D+00  0.0000000000000D+00
359  3.5800000000000D+00  0.0000000000000D+00  0.0000000000000D+00
360  3.5900000000000D+00  0.0000000000000D+00  0.0000000000000D+00
361  3.6000000000000D+00  0.0000000000000D+00  0.0000000000000D+00
362  3.6100000000000D+00  0.0000000000000D+00  0.0000000000000D+00
363  3.6200000000000D+00  0.0000000000000D+00  0.0000000000000D+00
364  3.6300000000000D+00  0.0000000000000D+00  0.0000000000000D+00
365  3.6400000000000D+00  0.0000000000000D+00  0.0000000000000D+00
366  3.6500000000000D+00  0.0000000000000D+00  0.0000000000000D+00
367  3.6600000000000D+00  0.0000000000000D+00  0.0000000000000D+00
368  3.6700000000000D+00  0.0000000000000D+00  0.0000000000000D+00
369  3.6800000000000D+00  0.0000000000000D+00  0.0000000000000D+00
370  3.6900000000000D+00  0.0000000000000D+00  0.0000000000000D+00
371  3.7000000000000D+00  0.0000000000000D+00  0.0000000000000D+00
372  3.7100000000000D+00  0.0000000000000D+00  0.0000000000000D+00
373  3.7200000000000D+00  0.0000000000000D+00  0.0000000000000D+00
374  3.7300000000000D+00  0.0000000000000D+00  0.0000000000000D+00
375  3.7400000000000D+00  0.0000000000000D+00  0.0000000000000D+00
376  3.7500000000000D+00  0.0000000000000D+00  0.0000000000000D+00
377  3.7600000000000D+00  0.0000000000000D+00  0.0000000000000D+00
378  3.7700000000000D+00  0.0000000000000D+00  0.0000000000000D+00
379  3.7800000000000D+00  0.0000000000000D+00  0.0000000000000D+00
380  3.7900000000000D+00  0.0000000000000D+00  0.0000000000000D+00
381  3.8000000000000D+00  0.0000000000000D+00  0.0000000000000D+00
382  3.8100000000000D+00  0.0000000000000D+00  0.0000000000000D+00
383  3.8200000000000D+00  0.0000000000000D+00  0.0000000000000D+00
384  3.8300000000000D+00  0.0000000000000D+00  0.0000000000000D+00
385  3.8400000000000D+00  0.0000000000000D+00  0.0000000000000D+00
386  3.8500000000000D+00  0.0000000000000D+00  0.0000000000000D+00
387  3.8600000000000D+00  0.0000000000000D+00  0.0000000000000D+00
388  3.8700000000000D+00  0.0000000000000D+00  0.0000000000000D+00
389  3.8800000000000D+00  0.0000000000000D+00  0.0000000000000D+00
390  3.8900000000000D+00  0.0000000000000D+00  0.0000000000000D+00
391  3.9000000000000D+00  0.0000000000000D+00  0.0000000000000D+00
392  3.9100000000000D+00  0.0000000000000D+00  0.0000000000000D+00
393  3.9200000000000D+00  0.0000000000000D+00  0.0000000000000D+00
394  3.9300000000000D+00  0.0000000000000D+00  0.0000000000000D+00
395  3.9400000000000D+00  0.0000000000000D+00  0.0000000000000D+00
396  3.9500000000000D+00  0.0000000000000D+00  0.0000000000000D+00
397  3.9600000000000D+00  0.0000000000000D+00  0.0000000000000D+00
398  3.9700000000000D+00  0.0000000000000D+00  0.0000000000000D+00
399  3.9800000000000D+00  0.0000000000000D+00  0.0000000000000D+00
400  3.9900000000000D+00  0.0000000000000D+00  0.0000000000000D+00
401  4.0000000000000D+00  0.0000000000000D+00  0.0000000000000D+00
402  4.0100000000000D+00  0.0000000000000D+00  0.0000000000000D+00
403  4.0200000000000D+00  0.0000000000000D+00  0.0000000000000D+00
404  4.0300000000000D+00  0.0000000000000D+00  0.0000000000000D+00
405  4.0400000000000D+00  0.0000000000000D+00  0.0000000000000D+00
406  4.0500000000000D+00  0.0000000000000D+00  0.0000000000000D+00
407  4.0600000000000D+00  0.0000000000000D+00  0.0000000000000D+00
408  4.0700000000000D+00  0.0000000000000D+00  0.0000000000000D+00
409  4.0800000000000D+00  0.0000000000000D+00  0.0000000000000D+00
410  4.0900000000000D+00  0.0000000000000D+00  0.0000000000000D+00
411  4.1000000000000D+00  0.0000000000000D+00  0.0000000000000D+00
412  4.1100000000000D+00  0.0000000000000D+00  0.0000000000000D+00
413  4.1200000000000D+00  0.0000000000000D+00  0.0000000000000D+00
414  4.1300000000000D+00  0.0000000000000D+00  0.0000000000000D+00
415  4.1400000000000D+00  0.0000000000000D+00  0.0000000000000D+00
416  4.1500000000000D+00  0.0000000000000D+00  0.0000000000000D+00
417  4.1600000000000D+00  0.0000000000000D+00  0.0000000000000D+00
418  4.1700000000000D+00  0.0000000000000D+00  0.0000000000000D+00
419  4.1800000000000D+00  0.0000000000000D+00  0.0000000000000D+00
420  4.1900000000000D+00  0.0000000000000D+00  0.0000000000000D+00
421  4.2000000000000D+00  0.0000000000000D+00  0.0000000000000D+00
422  4.2100000000000D+00  0.0000000000000D+00  0.0000000000000D+00
423  4.2200000000000D+00  0.0000000000000D+00  0.0000000000000D+00
424  4.2300000000000D+00  0.0000000000000D+00  0.0000000000000D+00
425  4.2400000000000D+00  0.0000000000000D+00  0.0000000000000D+00
426  4.2500000000000D+00  0.0000000000000D+00  0.0000000000000D+00
427  4.2600000000000D+00  0.0000000000000D+00  0.0000000000000D+00
428  4.2700000000000D+00  0.0000000000000D+00  0.0000000000000D+00
429  4.2800000000000D+00  0.0000000000000D+00  0.0000000000000D+00
430  4.2900000000000D+00  0.0000000000000D+00  0.0000000000000D+00
431  4.3000000000000D+00  0.0000000000000D+00  0.0000000000000D+00
432  4.3100000000000D+00  0.0000000000000D+00  0.0000000000000D+00
433  4.3200000000000D+00  0.0000000000000D+00  0.0000000000000D+00
434  4.3300000000000D+00  0.0000000000000D+00  0.0000000000000D+00
435  4.3400000000000D+00  0.0000000000000D+00  0.0000000000000D+00
436  4.3500000000000D+00  0.0000000000000D+00  0.0000000000000D+00
437  4.3600000000000D+00  0.0000000000000D+00  0.0000000000000D+00
438  4.3700000000000D+00  0.0000000000000D+00  0.0000000000000D+00
439  4.3800000000000D+00  0.0000000000000D+00  0.0000000000000D+00
440  4.3900000000000D+00  0.0000000000000D+00  0.0000000000000D+00
441  4.4000000000000D+00  0.0000000000000D+00  0.0000000000000D+00
442  4.4100000000000D+00  0.0000000000000D+00  0.0000000000000D+00
443  4.4200000000000D+00  0.0000000000000D+00  0.0000000000000D+00
444  4.4300000000000D+00  0.0000000000000D+00  0.0000000000000D+00