Ne    ONCVPSP-3.2.3.1  r_core=   1.31204   1.70576
10.0000      8.0000      170504    zatom,zion,pspd
8      11   1     4   400     0    pspcod,pspxc,lmax,lloc,mmax,r2well
3.99000000  0.00000000  0.00000000    rchrg fchrg qchrg
2     2     0     0     0    nproj
1     1           extension_switch
0                         2.3086903121956D+00 -4.7500541339018D-01
1  0.0000000000000D+00  1.2887105826920D-09  5.1213697171981D-10
2  1.0000000000000D-02  7.6676620654870D-02  1.3513938670892D-02
3  2.0000000000000D-02  1.5324089871486D-01  2.7124876871453D-02
4  3.0000000000000D-02  2.2957922499478D-01  4.0928751547201D-02
5  4.0000000000000D-02  3.0557548196718D-01  5.5019386075476D-02
6  5.0000000000000D-02  3.8110985135509D-01  6.9487462349884D-02
7  6.0000000000000D-02  4.5605769491539D-01  8.4419527139550D-02
8  7.0000000000000D-02  5.3028853127850D-01  9.9897043540224D-02
9  8.0000000000000D-02  6.0366513042129D-01  1.1599549782216D-01
10  9.0000000000000D-02  6.7604274576892D-01  1.3278357135051D-01
11  1.0000000000000D-01  7.4726850206625D-01  1.5032238651510D-01
12  1.1000000000000D-01  8.1718095505378D-01  1.6866483476597D-01
13  1.2000000000000D-01  8.8560983665135D-01  1.8785499391908D-01
14  1.3000000000000D-01  9.5237599682483D-01  2.0792764088291D-01
15  1.4000000000000D-01  1.0172915506158D+00  2.2890786487425D-01
16  1.5000000000000D-01  1.0801602359862D+00  2.5081078505080D-01
17  1.6000000000000D-01  1.1407779852038D+00  2.7364137530422D-01
18  1.7000000000000D-01  1.1989337095032D+00  2.9739439774229D-01
19  1.8000000000000D-01  1.2544102937434D+00  3.2205444515705D-01
20  1.9000000000000D-01  1.3069857947770D+00  3.4759609154185D-01
21  2.0000000000000D-01  1.3564348342933D+00  3.7398414849741D-01
22  2.1000000000000D-01  1.4025301740254D+00  4.0117402417027D-01
23  2.2000000000000D-01  1.4450444584649D+00  4.2911218020948D-01
24  2.3000000000000D-01  1.4837521076389D+00  4.5773668112270D-01
25  2.4000000000000D-01  1.5184313400978D+00  4.8697782937376D-01
26  2.5000000000000D-01  1.5488663040894D+00  5.1675887860227D-01
27  2.6000000000000D-01  1.5748492929577D+00  5.4699681647305D-01
28  2.7000000000000D-01  1.5961830191547D+00  5.7760320788926D-01
29  2.8000000000000D-01  1.6126829198927D+00  6.0848508863726D-01
30  2.9000000000000D-01  1.6241794664302D+00  6.3954589898084D-01
31  3.0000000000000D-01  1.6305204482714D+00  6.7068644629476D-01
32  3.1000000000000D-01  1.6315732032044D+00  7.0180588552650D-01
33  3.2000000000000D-01  1.6272267640896D+00  7.3280270610588D-01
34  3.3000000000000D-01  1.6173938936599D+00  7.6357571388520D-01
35  3.4000000000000D-01  1.6020129792949D+00  7.9402499678966D-01
36  3.5000000000000D-01  1.5810497607878D+00  8.2405286308772D-01
37  3.6000000000000D-01  1.5544988655166D+00  8.5356474155074D-01
38  3.7000000000000D-01  1.5223851271582D+00  8.8247003325758D-01
39  3.8000000000000D-01  1.4847646661178D+00  9.1068290540634D-01
40  3.9000000000000D-01  1.4417257121740D+00  9.3812301821632D-01
41  4.0000000000000D-01  1.3933891524327D+00  9.6471617682898D-01
42  4.1000000000000D-01  1.3399087905130D+00  9.9039490103897D-01
43  4.2000000000000D-01  1.2814713059277D+00  1.0150989066936D+00
44  4.3000000000000D-01  1.2182959058321D+00  1.0387754936797D+00
45  4.4000000000000D-01  1.1506336646648D+00  1.0613798365602D+00
46  4.5000000000000D-01  1.0787665506526D+00  1.0828751751092D+00
47  4.6000000000000D-01  1.0030061416626D+00  1.1032329032229D+00
48  4.7000000000000D-01  9.2369203641152D-01  1.1224325559205D+00
49  4.8000000000000D-01  8.4118997055259D-01  1.1404616954009D+00
50  4.9000000000000D-01  7.5588965060515D-01  1.1573156983563D+00
51  5.0000000000000D-01  6.6820232203286D-01  1.1729974479556D+00
52  5.1000000000000D-01  5.7855809097766D-01  1.1875169350850D+00
53  5.2000000000000D-01  4.8740302217281D-01  1.2008907745499D+00
54  5.3000000000000D-01  3.9519603835578D-01  1.2131416429976D+00
55  5.4000000000000D-01  3.0240564904766D-01  1.2242976462897D+00
56  5.5000000000000D-01  2.0950653882588D-01  1.2343916249356D+00
57  5.6000000000000D-01  1.1697604715906D-01  1.2434604069767D+00
58  5.7000000000000D-01  2.5290573482315D-02  1.2515440183766D+00
59  5.8000000000000D-01 -6.5078057569508D-02  1.2586848615156D+00
60  5.9000000000000D-01 -1.5366623498634D-01  1.2649268728110D+00
61  6.0000000000000D-01 -2.4002216801136D-01  1.2703146707615D+00
62  6.1000000000000D-01 -3.2370942425134D-01  1.2748927058676D+00
63  6.2000000000000D-01 -4.0431036328253D-01  1.2787044238835D+00
64  6.3000000000000D-01 -4.8142943051321D-01  1.2817914537253D+00
65  6.4000000000000D-01 -5.5469627720711D-01  1.2841928310848D+00
66  6.5000000000000D-01 -6.2376867410874D-01  1.2859442683958D+00
67  6.6000000000000D-01 -6.8833518803084D-01  1.2870774812492D+00
68  6.7000000000000D-01 -7.4811759303335D-01  1.2876195806933D+00
69  6.8000000000000D-01 -8.0287299043135D-01  1.2875925400649D+00
70  6.9000000000000D-01 -8.5239561479260D-01  1.2870127440976D+00
71  7.0000000000000D-01 -8.9651830627801D-01  1.2858906270583D+00
72  7.1000000000000D-01 -9.3511363311113D-01  1.2842304055756D+00
73  7.2000000000000D-01 -9.6809465161094D-01  1.2820299106630D+00
74  7.3000000000000D-01 -9.9541529503221D-01  1.2792805222096D+00
75  7.4000000000000D-01 -1.0170703863844D+00  1.2759672079451D+00
76  7.5000000000000D-01 -1.0330952744105D+00  1.2720686675757D+00
77  7.6000000000000D-01 -1.0435650959584D+00  1.2675575814635D+00
78  7.7000000000000D-01 -1.0485936719867D+00  1.2624009619032D+00
79  7.8000000000000D-01 -1.0483320484441D+00  1.2565606037335D+00
80  7.9000000000000D-01 -1.0429666971078D+00  1.2499936297433D+00
81  8.0000000000000D-01 -1.0327173951891D+00  1.2426531251016D+00
82  8.1000000000000D-01 -1.0178348060350D+00  1.2344888538637D+00
83  8.2000000000000D-01 -9.9859778653886D-01  1.2254480495137D+00
84  8.3000000000000D-01 -9.7531044988810D-01  1.2154762704934D+00
85  8.4000000000000D-01 -9.4829901497429D-01  1.2045183107649D+00
86  8.5000000000000D-01 -9.1790847615043D-01  1.1925191546634D+00
87  8.6000000000000D-01 -8.8449912900414D-01  1.1794249646287D+00
88  8.7000000000000D-01 -8.4844298940335D-01  1.1651840898710D+00
89  8.8000000000000D-01 -8.1012014424047D-01  1.1497480836341D+00
90  8.9000000000000D-01 -7.6991507303812D-01  1.1330727164709D+00
91  9.0000000000000D-01 -7.2821297987213D-01  1.1151189728480D+00
92  9.1000000000000D-01 -6.8539617491120D-01  1.0958540184522D+00
93  9.2000000000000D-01 -6.4184054426703D-01  1.0752521257787D+00
94  9.3000000000000D-01 -5.9791214579836D-01  1.0532955459391D+00
95  9.4000000000000D-01 -5.5396396702841D-01  1.0299753151325D+00
96  9.5000000000000D-01 -5.1033287943637D-01  1.0052919848720D+00
97  9.6000000000000D-01 -4.6733682106170D-01  9.7925626584981D-01
98  9.7000000000000D-01 -4.2527223672106D-01  9.5188957622514D-01
99  9.8000000000000D-01 -3.8441180210137D-01  9.2322448615382D-01
100  9.9000000000000D-01 -3.4500245465054D-01  8.9330505152090D-01
101  1.0000000000000D+00 -3.0726375061370D-01  8.6218703105640D-01
102  1.0100000000000D+00 -2.7138656372052D-01  8.2993798232645D-01
103  1.0200000000000D+00 -2.3753213702977D-01  7.9663723345799D-01
104  1.0300000000000D+00 -2.0583149519573D-01  7.6237572890322D-01
105  1.0400000000000D+00 -1.7638522033954D-01  7.2725574894353D-01
106  1.0500000000000D+00 -1.4926359028193D-01  6.9139050414416D-01
107  1.0600000000000D+00 -1.2450707360468D-01  6.5490360743398D-01
108  1.0700000000000D+00 -1.0212717187004D-01  6.1792842789654D-01
109  1.0800000000000D+00 -8.2107595074638D-02  5.8060733180816D-01
110  1.0900000000000D+00 -6.4405752602759D-02  5.4309081775654D-01
111  1.1000000000000D+00 -4.8954538159503D-02  5.0553655396113D-01
112  1.1100000000000D+00 -3.5664383448774D-02  4.6810832717798D-01
113  1.1200000000000D+00 -2.4425552381121D-02  4.3097491358149D-01
114  1.1300000000000D+00 -1.5110644466653D-02  3.9430888307194D-01
115  1.1400000000000D+00 -7.5772739540246D-03  3.5828534916379D-01
116  1.1500000000000D+00 -1.6708884648008D-03  3.2308067754994D-01
117  1.1600000000000D+00  2.7723103371596D-03  2.8887116683485D-01
118  1.1700000000000D+00  5.9223829113723D-03  2.5583171538680D-01
119  1.1800000000000D+00  7.9526445819405D-03  2.2413448854036D-01
120  1.1900000000000D+00  9.0366750737872D-03  1.9394760050717D-01
121  1.2000000000000D+00  9.3453846027921D-03  1.6543382516792D-01
122  1.2100000000000D+00  9.0441760342749D-03  1.3874934980836D-01
123  1.2200000000000D+00  8.2902416221448D-03  1.1404258547790D-01
124  1.2300000000000D+00  7.2300308994902D-03  9.1453046941968D-02
125  1.2400000000000D+00  5.9969244974348D-03  7.1110314548307D-02
126  1.2500000000000D+00  4.7091472980928D-03  5.3133089826208D-02
127  1.2600000000000D+00  3.4679498931594D-03  3.7628355046736D-02
128  1.2700000000000D+00  2.3566837420859D-03  2.4695869360885D-02
129  1.2800000000000D+00  1.4368352134430D-03  1.4403477589916D-02
130  1.2900000000000D+00  7.4542863722315D-04  6.7826435584986D-03
131  1.3000000000000D+00  3.3787012082807D-04  2.1055479747750D-03
132  1.3100000000000D+00  1.6762669333875D-04  1.3492387487353D-04
133  1.3200000000000D+00  5.9800904358966D-05 -1.7292322519849D-04
134  1.3300000000000D+00 -6.4994129382311D-06  2.9005981462986D-05
135  1.3400000000000D+00 -5.9847352007070D-06  3.3492134406004D-05
136  1.3500000000000D+00  2.6094459281199D-06 -9.9276118530416D-06
137  1.3600000000000D+00 -1.5246926437519D-08  2.4565395338453D-09
138  1.3700000000000D+00 -3.7335435515042D-07  6.0153745564314D-08
139  1.3800000000000D+00  0.0000000000000D+00  0.0000000000000D+00
140  1.3900000000000D+00  0.0000000000000D+00  0.0000000000000D+00
141  1.4000000000000D+00  0.0000000000000D+00  0.0000000000000D+00
142  1.4100000000000D+00  0.0000000000000D+00  0.0000000000000D+00
143  1.4200000000000D+00  0.0000000000000D+00  0.0000000000000D+00
144  1.4300000000000D+00  0.0000000000000D+00  0.0000000000000D+00
145  1.4400000000000D+00  0.0000000000000D+00  0.0000000000000D+00
146  1.4500000000000D+00  0.0000000000000D+00  0.0000000000000D+00
147  1.4600000000000D+00  0.0000000000000D+00  0.0000000000000D+00
148  1.4700000000000D+00  0.0000000000000D+00  0.0000000000000D+00
149  1.4800000000000D+00  0.0000000000000D+00  0.0000000000000D+00
150  1.4900000000000D+00  0.0000000000000D+00  0.0000000000000D+00
151  1.5000000000000D+00  0.0000000000000D+00  0.0000000000000D+00
152  1.5100000000000D+00  0.0000000000000D+00  0.0000000000000D+00
153  1.5200000000000D+00  0.0000000000000D+00  0.0000000000000D+00
154  1.5300000000000D+00  0.0000000000000D+00  0.0000000000000D+00
155  1.5400000000000D+00  0.0000000000000D+00  0.0000000000000D+00
156  1.5500000000000D+00  0.0000000000000D+00  0.0000000000000D+00
157  1.5600000000000D+00  0.0000000000000D+00  0.0000000000000D+00
158  1.5700000000000D+00  0.0000000000000D+00  0.0000000000000D+00
159  1.5800000000000D+00  0.0000000000000D+00  0.0000000000000D+00
160  1.5900000000000D+00  0.0000000000000D+00  0.0000000000000D+00
161  1.6000000000000D+00  0.0000000000000D+00  0.0000000000000D+00
162  1.6100000000000D+00  0.0000000000000D+00  0.0000000000000D+00
163  1.6200000000000D+00  0.0000000000000D+00  0.0000000000000D+00
164  1.6300000000000D+00  0.0000000000000D+00  0.0000000000000D+00
165  1.6400000000000D+00  0.0000000000000D+00  0.0000000000000D+00
166  1.6500000000000D+00  0.0000000000000D+00  0.0000000000000D+00
167  1.6600000000000D+00  0.0000000000000D+00  0.0000000000000D+00
168  1.6700000000000D+00  0.0000000000000D+00  0.0000000000000D+00
169  1.6800000000000D+00  0.0000000000000D+00  0.0000000000000D+00
170  1.6900000000000D+00  0.0000000000000D+00  0.0000000000000D+00
171  1.7000000000000D+00  0.0000000000000D+00  0.0000000000000D+00
172  1.7100000000000D+00  0.0000000000000D+00  0.0000000000000D+00
173  1.7200000000000D+00  0.0000000000000D+00  0.0000000000000D+00
174  1.7300000000000D+00  0.0000000000000D+00  0.0000000000000D+00
175  1.7400000000000D+00  0.0000000000000D+00  0.0000000000000D+00
176  1.7500000000000D+00  0.0000000000000D+00  0.0000000000000D+00
177  1.7600000000000D+00  0.0000000000000D+00  0.0000000000000D+00
178  1.7700000000000D+00  0.0000000000000D+00  0.0000000000000D+00
179  1.7800000000000D+00  0.0000000000000D+00  0.0000000000000D+00
180  1.7900000000000D+00  0.0000000000000D+00  0.0000000000000D+00
181  1.8000000000000D+00  0.0000000000000D+00  0.0000000000000D+00
182  1.8100000000000D+00  0.0000000000000D+00  0.0000000000000D+00
183  1.8200000000000D+00  0.0000000000000D+00  0.0000000000000D+00
184  1.8300000000000D+00  0.0000000000000D+00  0.0000000000000D+00
185  1.8400000000000D+00  0.0000000000000D+00  0.0000000000000D+00
186  1.8500000000000D+00  0.0000000000000D+00  0.0000000000000D+00
187  1.8600000000000D+00  0.0000000000000D+00  0.0000000000000D+00
188  1.8700000000000D+00  0.0000000000000D+00  0.0000000000000D+00
189  1.8800000000000D+00  0.0000000000000D+00  0.0000000000000D+00
190  1.8900000000000D+00  0.0000000000000D+00  0.0000000000000D+00
191  1.9000000000000D+00  0.0000000000000D+00  0.0000000000000D+00
192  1.9100000000000D+00  0.0000000000000D+00  0.0000000000000D+00
193  1.9200000000000D+00  0.0000000000000D+00  0.0000000000000D+00
194  1.9300000000000D+00  0.0000000000000D+00  0.0000000000000D+00
195  1.9400000000000D+00  0.0000000000000D+00  0.0000000000000D+00
196  1.9500000000000D+00  0.0000000000000D+00  0.0000000000000D+00
197  1.9600000000000D+00  0.0000000000000D+00  0.0000000000000D+00
198  1.9700000000000D+00  0.0000000000000D+00  0.0000000000000D+00
199  1.9800000000000D+00  0.0000000000000D+00  0.0000000000000D+00
200  1.9900000000000D+00  0.0000000000000D+00  0.0000000000000D+00
201  2.0000000000000D+00  0.0000000000000D+00  0.0000000000000D+00
202  2.0100000000000D+00  0.0000000000000D+00  0.0000000000000D+00
203  2.0200000000000D+00  0.0000000000000D+00  0.0000000000000D+00
204  2.0300000000000D+00  0.0000000000000D+00  0.0000000000000D+00
205  2.0400000000000D+00  0.0000000000000D+00  0.0000000000000D+00
206  2.0500000000000D+00  0.0000000000000D+00  0.0000000000000D+00
207  2.0600000000000D+00  0.0000000000000D+00  0.0000000000000D+00
208  2.0700000000000D+00  0.0000000000000D+00  0.0000000000000D+00
209  2.0800000000000D+00  0.0000000000000D+00  0.0000000000000D+00
210  2.0900000000000D+00  0.0000000000000D+00  0.0000000000000D+00
211  2.1000000000000D+00  0.0000000000000D+00  0.0000000000000D+00
212  2.1100000000000D+00  0.0000000000000D+00  0.0000000000000D+00
213  2.1200000000000D+00  0.0000000000000D+00  0.0000000000000D+00
214  2.1300000000000D+00  0.0000000000000D+00  0.0000000000000D+00
215  2.1400000000000D+00  0.0000000000000D+00  0.0000000000000D+00
216  2.1500000000000D+00  0.0000000000000D+00  0.0000000000000D+00
217  2.1600000000000D+00  0.0000000000000D+00  0.0000000000000D+00
218  2.1700000000000D+00  0.0000000000000D+00  0.0000000000000D+00
219  2.1800000000000D+00  0.0000000000000D+00  0.0000000000000D+00
220  2.1900000000000D+00  0.0000000000000D+00  0.0000000000000D+00
221  2.2000000000000D+00  0.0000000000000D+00  0.0000000000000D+00
222  2.2100000000000D+00  0.0000000000000D+00  0.0000000000000D+00
223  2.2200000000000D+00  0.0000000000000D+00  0.0000000000000D+00
224  2.2300000000000D+00  0.0000000000000D+00  0.0000000000000D+00
225  2.2400000000000D+00  0.0000000000000D+00  0.0000000000000D+00
226  2.2500000000000D+00  0.0000000000000D+00  0.0000000000000D+00
227  2.2600000000000D+00  0.0000000000000D+00  0.0000000000000D+00
228  2.2700000000000D+00  0.0000000000000D+00  0.0000000000000D+00
229  2.2800000000000D+00  0.0000000000000D+00  0.0000000000000D+00
230  2.2900000000000D+00  0.0000000000000D+00  0.0000000000000D+00
231  2.3000000000000D+00  0.0000000000000D+00  0.0000000000000D+00
232  2.3100000000000D+00  0.0000000000000D+00  0.0000000000000D+00
233  2.3200000000000D+00  0.0000000000000D+00  0.0000000000000D+00
234  2.3300000000000D+00  0.0000000000000D+00  0.0000000000000D+00
235  2.3400000000000D+00  0.0000000000000D+00  0.0000000000000D+00
236  2.3500000000000D+00  0.0000000000000D+00  0.0000000000000D+00
237  2.3600000000000D+00  0.0000000000000D+00  0.0000000000000D+00
238  2.3700000000000D+00  0.0000000000000D+00  0.0000000000000D+00
239  2.3800000000000D+00  0.0000000000000D+00  0.0000000000000D+00
240  2.3900000000000D+00  0.0000000000000D+00  0.0000000000000D+00
241  2.4000000000000D+00  0.0000000000000D+00  0.0000000000000D+00
242  2.4100000000000D+00  0.0000000000000D+00  0.0000000000000D+00
243  2.4200000000000D+00  0.0000000000000D+00  0.0000000000000D+00
244  2.4300000000000D+00  0.0000000000000D+00  0.0000000000000D+00
245  2.4400000000000D+00  0.0000000000000D+00  0.0000000000000D+00
246  2.4500000000000D+00  0.0000000000000D+00  0.0000000000000D+00
247  2.4600000000000D+00  0.0000000000000D+00  0.0000000000000D+00
248  2.4700000000000D+00  0.0000000000000D+00  0.0000000000000D+00
249  2.4800000000000D+00  0.0000000000000D+00  0.0000000000000D+00
250  2.4900000000000D+00  0.0000000000000D+00  0.0000000000000D+00
251  2.5000000000000D+00  0.0000000000000D+00  0.0000000000000D+00
252  2.5100000000000D+00  0.0000000000000D+00  0.0000000000000D+00
253  2.5200000000000D+00  0.0000000000000D+00  0.0000000000000D+00
254  2.5300000000000D+00  0.0000000000000D+00  0.0000000000000D+00
255  2.5400000000000D+00  0.0000000000000D+00  0.0000000000000D+00
256  2.5500000000000D+00  0.0000000000000D+00  0.0000000000000D+00
257  2.5600000000000D+00  0.0000000000000D+00  0.0000000000000D+00
258  2.5700000000000D+00  0.0000000000000D+00  0.0000000000000D+00
259  2.5800000000000D+00  0.0000000000000D+00  0.0000000000000D+00
260  2.5900000000000D+00  0.0000000000000D+00  0.0000000000000D+00
261  2.6000000000000D+00  0.0000000000000D+00  0.0000000000000D+00
262  2.6100000000000D+00  0.0000000000000D+00  0.0000000000000D+00
263  2.6200000000000D+00  0.0000000000000D+00  0.0000000000000D+00
264  2.6300000000000D+00  0.0000000000000D+00  0.0000000000000D+00
265  2.6400000000000D+00  0.0000000000000D+00  0.0000000000000D+00
266  2.6500000000000D+00  0.0000000000000D+00  0.0000000000000D+00
267  2.6600000000000D+00  0.0000000000000D+00  0.0000000000000D+00
268  2.6700000000000D+00  0.0000000000000D+00  0.0000000000000D+00
269  2.6800000000000D+00  0.0000000000000D+00  0.0000000000000D+00
270  2.6900000000000D+00  0.0000000000000D+00  0.0000000000000D+00
271  2.7000000000000D+00  0.0000000000000D+00  0.0000000000000D+00
272  2.7100000000000D+00  0.0000000000000D+00  0.0000000000000D+00
273  2.7200000000000D+00  0.0000000000000D+00  0.0000000000000D+00
274  2.7300000000000D+00  0.0000000000000D+00  0.0000000000000D+00
275  2.7400000000000D+00  0.0000000000000D+00  0.0000000000000D+00
276  2.7500000000000D+00  0.0000000000000D+00  0.0000000000000D+00
277  2.7600000000000D+00  0.0000000000000D+00  0.0000000000000D+00
278  2.7700000000000D+00  0.0000000000000D+00  0.0000000000000D+00
279  2.7800000000000D+00  0.0000000000000D+00  0.0000000000000D+00
280  2.7900000000000D+00  0.0000000000000D+00  0.0000000000000D+00
281  2.8000000000000D+00  0.0000000000000D+00  0.0000000000000D+00
282  2.8100000000000D+00  0.0000000000000D+00  0.0000000000000D+00
283  2.8200000000000D+00  0.0000000000000D+00  0.0000000000000D+00
284  2.8300000000000D+00  0.0000000000000D+00  0.0000000000000D+00
285  2.8400000000000D+00  0.0000000000000D+00  0.0000000000000D+00
286  2.8500000000000D+00  0.0000000000000D+00  0.0000000000000D+00
287  2.8600000000000D+00  0.0000000000000D+00  0.0000000000000D+00
288  2.8700000000000D+00  0.0000000000000D+00  0.0000000000000D+00
289  2.8800000000000D+00  0.0000000000000D+00  0.0000000000000D+00
290  2.8900000000000D+00  0.0000000000000D+00  0.0000000000000D+00
291  2.9000000000000D+00  0.0000000000000D+00  0.0000000000000D+00
292  2.9100000000000D+00  0.0000000000000D+00  0.0000000000000D+00
293  2.9200000000000D+00  0.0000000000000D+00  0.0000000000000D+00
294  2.9300000000000D+00  0.0000000000000D+00  0.0000000000000D+00
295  2.9400000000000D+00  0.0000000000000D+00  0.0000000000000D+00
296  2.9500000000000D+00  0.0000000000000D+00  0.0000000000000D+00
297  2.9600000000000D+00  0.0000000000000D+00  0.0000000000000D+00
298  2.9700000000000D+00  0.0000000000000D+00  0.0000000000000D+00
299  2.9800000000000D+00  0.0000000000000D+00  0.0000000000000D+00
300  2.9900000000000D+00  0.0000000000000D+00  0.0000000000000D+00
301  3.0000000000000D+00  0.0000000000000D+00  0.0000000000000D+00
302  3.0100000000000D+00  0.0000000000000D+00  0.0000000000000D+00
303  3.0200000000000D+00  0.0000000000000D+00  0.0000000000000D+00
304  3.0300000000000D+00  0.0000000000000D+00  0.0000000000000D+00
305  3.0400000000000D+00  0.0000000000000D+00  0.0000000000000D+00
306  3.0500000000000D+00  0.0000000000000D+00  0.0000000000000D+00
307  3.0600000000000D+00  0.0000000000000D+00  0.0000000000000D+00
308  3.0700000000000D+00  0.0000000000000D+00  0.0000000000000D+00
309  3.0800000000000D+00  0.0000000000000D+00  0.0000000000000D+00
310  3.0900000000000D+00  0.0000000000000D+00  0.0000000000000D+00
311  3.1000000000000D+00  0.0000000000000D+00  0.0000000000000D+00
312  3.1100000000000D+00  0.0000000000000D+00  0.0000000000000D+00
313  3.1200000000000D+00  0.0000000000000D+00  0.0000000000000D+00
314  3.1300000000000D+00  0.0000000000000D+00  0.0000000000000D+00
315  3.1400000000000D+00  0.0000000000000D+00  0.0000000000000D+00
316  3.1500000000000D+00  0.0000000000000D+00  0.0000000000000D+00
317  3.1600000000000D+00  0.0000000000000D+00  0.0000000000000D+00
318  3.1700000000000D+00  0.0000000000000D+00  0.0000000000000D+00
319  3.1800000000000D+00  0.0000000000000D+00  0.0000000000000D+00
320  3.1900000000000D+00  0.0000000000000D+00  0.0000000000000D+00
321  3.2000000000000D+00  0.0000000000000D+00  0.0000000000000D+00
322  3.2100000000000D+00  0.0000000000000D+00  0.0000000000000D+00
323  3.2200000000000D+00  0.0000000000000D+00  0.0000000000000D+00
324  3.2300000000000D+00  0.0000000000000D+00  0.0000000000000D+00
325  3.2400000000000D+00  0.0000000000000D+00  0.0000000000000D+00
326  3.2500000000000D+00  0.0000000000000D+00  0.0000000000000D+00
327  3.2600000000000D+00  0.0000000000000D+00  0.0000000000000D+00
328  3.2700000000000D+00  0.0000000000000D+00  0.0000000000000D+00
329  3.2800000000000D+00  0.0000000000000D+00  0.0000000000000D+00
330  3.2900000000000D+00  0.0000000000000D+00  0.0000000000000D+00
331  3.3000000000000D+00  0.0000000000000D+00  0.0000000000000D+00
332  3.3100000000000D+00  0.0000000000000D+00  0.0000000000000D+00
333  3.3200000000000D+00  0.0000000000000D+00  0.0000000000000D+00
334  3.3300000000000D+00  0.0000000000000D+00  0.0000000000000D+00
335  3.3400000000000D+00  0.0000000000000D+00  0.0000000000000D+00
336  3.3500000000000D+00  0.0000000000000D+00  0.0000000000000D+00
337  3.3600000000000D+00  0.0000000000000D+00  0.0000000000000D+00
338  3.3700000000000D+00  0.0000000000000D+00  0.0000000000000D+00
339  3.3800000000000D+00  0.0000000000000D+00  0.0000000000000D+00
340  3.3900000000000D+00  0.0000000000000D+00  0.0000000000000D+00
341  3.4000000000000D+00  0.0000000000000D+00  0.0000000000000D+00
342  3.4100000000000D+00  0.0000000000000D+00  0.0000000000000D+00
343  3.4200000000000D+00  0.0000000000000D+00  0.0000000000000D+00
344  3.4300000000000D+00  0.0000000000000D+00  0.0000000000000D+00
345  3.4400000000000D+00  0.0000000000000D+00  0.0000000000000D+00
346  3.4500000000000D+00  0.0000000000000D+00  0.0000000000000D+00
347  3.4600000000000D+00  0.0000000000000D+00  0.0000000000000D+00
348  3.4700000000000D+00  0.0000000000000D+00  0.0000000000000D+00
349  3.4800000000000D+00  0.0000000000000D+00  0.0000000000000D+00
350  3.4900000000000D+00  0.0000000000000D+00  0.0000000000000D+00
351  3.5000000000000D+00  0.0000000000000D+00  0.0000000000000D+00
352  3.5100000000000D+00  0.0000000000000D+00  0.0000000000000D+00
353  3.5200000000000D+00  0.0000000000000D+00  0.0000000000000D+00
354  3.5300000000000D+00  0.0000000000000D+00  0.0000000000000D+00
355  3.5400000000000D+00  0.0000000000000D+00  0.0000000000000D+00
356  3.5500000000000D+00  0.0000000000000D+00  0.0000000000000D+00
357  3.5600000000000D+00  0.0000000000000D+00  0.0000000000000D+00
358  3.5700000000000D+00  0.0000000000000D+00  0.0000000000000D+00
359  3.5800000000000D+00  0.0000000000000D+00  0.0000000000000D+00
360  3.5900000000000D+00  0.0000000000000D+00  0.0000000000000D+00
361  3.6000000000000D+00  0.0000000000000D+00  0.0000000000000D+00
362  3.6100000000000D+00  0.0000000000000D+00  0.0000000000000D+00
363  3.6200000000000D+00  0.0000000000000D+00  0.0000000000000D+00
364  3.6300000000000D+00  0.0000000000000D+00  0.0000000000000D+00
365  3.6400000000000D+00  0.0000000000000D+00  0.0000000000000D+00
366  3.6500000000000D+00  0.0000000000000D+00  0.0000000000000D+00
367  3.6600000000000D+00  0.0000000000000D+00  0.0000000000000D+00
368  3.6700000000000D+00  0.0000000000000D+00  0.0000000000000D+00
369  3.6800000000000D+00  0.0000000000000D+00  0.0000000000000D+00
370  3.6900000000000D+00  0.0000000000000D+00  0.0000000000000D+00
371  3.7000000000000D+00  0.0000000000000D+00  0.0000000000000D+00
372  3.7100000000000D+00  0.0000000000000D+00  0.0000000000000D+00
373  3.7200000000000D+00  0.0000000000000D+00  0.0000000000000D+00
374  3.7300000000000D+00  0.0000000000000D+00  0.0000000000000D+00
375  3.7400000000000D+00  0.0000000000000D+00  0.0000000000000D+00
376  3.7500000000000D+00  0.0000000000000D+00  0.0000000000000D+00
377  3.7600000000000D+00  0.0000000000000D+00  0.0000000000000D+00
378  3.7700000000000D+00  0.0000000000000D+00  0.0000000000000D+00
379  3.7800000000000D+00  0.0000000000000D+00  0.0000000000000D+00
380  3.7900000000000D+00  0.0000000000000D+00  0.0000000000000D+00
381  3.8000000000000D+00  0.0000000000000D+00  0.0000000000000D+00
382  3.8100000000000D+00  0.0000000000000D+00  0.0000000000000D+00
383  3.8200000000000D+00  0.0000000000000D+00  0.0000000000000D+00
384  3.8300000000000D+00  0.0000000000000D+00  0.0000000000000D+00
385  3.8400000000000D+00  0.0000000000000D+00  0.0000000000000D+00
386  3.8500000000000D+00  0.0000000000000D+00  0.0000000000000D+00
387  3.8600000000000D+00  0.0000000000000D+00  0.0000000000000D+00
388  3.8700000000000D+00  0.0000000000000D+00  0.0000000000000D+00
389  3.8800000000000D+00  0.0000000000000D+00  0.0000000000000D+00
390  3.8900000000000D+00  0.0000000000000D+00  0.0000000000000D+00
391  3.9000000000000D+00  0.0000000000000D+00  0.0000000000000D+00
392  3.9100000000000D+00  0.0000000000000D+00  0.0000000000000D+00
393  3.9200000000000D+00  0.0000000000000D+00  0.0000000000000D+00
394  3.9300000000000D+00  0.0000000000000D+00  0.0000000000000D+00
395  3.9400000000000D+00  0.0000000000000D+00  0.0000000000000D+00
396  3.9500000000000D+00  0.0000000000000D+00  0.0000000000000D+00
397  3.9600000000000D+00  0.0000000000000D+00  0.0000000000000D+00
398  3.9700000000000D+00  0.0000000000000D+00  0.0000000000000D+00
399  3.9800000000000D+00  0.0000000000000D+00  0.0000000000000D+00
400  3.9900000000000D+00  0.0000000000000D+00  0.0000000000000D+00
1                        -5.1317595693011D+00 -1.6678655587515D+00
1  0.0000000000000D+00 -9.5281324496987D-11  2.8755652026202D-10
2  1.0000000000000D-02  1.3984201008348D-03 -3.6895541814507D-04
3  2.0000000000000D-02  5.5893122099878D-03 -1.4741237636000D-03
4  3.0000000000000D-02  1.2559579040713D-02 -3.3104058593106D-03
5  4.0000000000000D-02  2.2287416147817D-02 -5.8692850684846D-03
6  5.0000000000000D-02  3.4742348668251D-02 -9.1388008354869D-03
7  6.0000000000000D-02  4.9885283137709D-02 -1.3103512743255D-02
8  7.0000000000000D-02  6.7668574755200D-02 -1.7744456171923D-02
9  8.0000000000000D-02  8.8036110562847D-02 -2.3039090930895D-02
10  9.0000000000000D-02  1.1092340909541D-01 -2.8961244508289D-02
11  1.0000000000000D-01  1.3625773713138D-01 -3.5481051833389D-02
12  1.1000000000000D-01  1.6395824424393D-01 -4.2564893676956D-02
13  1.2000000000000D-01  1.9393611590315D-01 -5.0175336017636D-02
14  1.3000000000000D-01  2.2609474592111D-01 -5.8271072877901D-02
15  1.4000000000000D-01  2.6032992905526D-01 -6.6806875277450D-02
16  1.5000000000000D-01  2.9653007459455D-01 -7.5733549063579D-02
17  1.6000000000000D-01  3.3457644174378D-01 -8.4997904454960D-02
18  1.7000000000000D-01  3.7434339759604D-01 -9.4542740176465D-02
19  1.8000000000000D-01  4.1569869843898D-01 -1.0430684506615D-01
20  1.9000000000000D-01  4.5850379507838D-01 -1.1422502000157D-01
21  2.0000000000000D-01  5.0261416278216D-01 -1.2422812292007D-01
22  2.1000000000000D-01  5.4787965634938D-01 -1.3424313959695D-01
23  2.2000000000000D-01  5.9414489069227D-01 -1.4419328269685D-01
24  2.3000000000000D-01  6.4124964718571D-01 -1.5399812142788D-01
25  2.4000000000000D-01  6.8902930588878D-01 -1.6357374390641D-01
26  2.5000000000000D-01  7.3731530357700D-01 -1.7283295408434D-01
27  2.6000000000000D-01  7.8593561734419D-01 -1.8168550480189D-01
28  2.7000000000000D-01  8.3471527333980D-01 -1.9003836821046D-01
29  2.8000000000000D-01  8.8347688000300D-01 -1.9779604446315D-01
30  2.9000000000000D-01  9.3204118494036D-01 -2.0486090919961D-01
31  3.0000000000000D-01  9.8022765437164D-01 -2.1113359995909D-01
32  3.1000000000000D-01  1.0278550738395D+00 -2.1651344124439D-01
33  3.2000000000000D-01  1.0747421686462D+00 -2.2089890753493D-01
34  3.3000000000000D-01  1.1207082422470D+00 -2.2418812311092D-01
35  3.4000000000000D-01  1.1655738305932D+00 -2.2627939710937D-01
36  3.5000000000000D-01  1.2091613701913D+00 -2.2707179178879D-01
37  3.6000000000000D-01  1.2512958774130D+00 -2.2646572153787D-01
38  3.7000000000000D-01  1.2918056363763D+00 -2.2436357972914D-01
39  3.8000000000000D-01  1.3305228925083D+00 -2.2067039009531D-01
40  3.9000000000000D-01  1.3672845487020D+00 -2.1529447889842D-01
41  4.0000000000000D-01  1.4019328608009D+00 -2.0814816377481D-01
42  4.1000000000000D-01  1.4343161289777D+00 -1.9914845477610D-01
43  4.2000000000000D-01  1.4642893814288D+00 -1.8821776279231D-01