Se    ONCVPSP-3.3.0  r_core=   1.81943   1.50330   1.90835
34.0000     16.0000      171103    zatom,zion,pspd
8   -1012   2     4   600     0    pspcod,pspxc,lmax,lloc,mmax,r2well
5.99000000  5.00000000  0.00000000    rchrg fchrg qchrg
2     2     2     0     0    nproj
1     1           extension_switch
0                         9.0338747283026D+00  1.0485688867651D+00
1  0.0000000000000D+00  3.6461555996681D-11 -1.0412476436628D-11
2  1.0000000000000D-02  3.5187071626433D-02 -1.7424730386259D-02
3  2.0000000000000D-02  7.0370988944509D-02 -3.4836685845500D-02
4  3.0000000000000D-02  1.0554841569401D-01 -5.2222950618574D-02
5  4.0000000000000D-02  1.4071565309844D-01 -6.9570328203709D-02
6  5.0000000000000D-02  1.7586846206621D-01 -8.6865203286740D-02
7  6.0000000000000D-02  2.1100188951711D-01 -1.0409340642604D-01
8  7.0000000000000D-02  2.4611010016631D-01 -1.2124008239843D-01
9  8.0000000000000D-02  2.8118621506155D-01 -1.3828956310186D-01
10  9.0000000000000D-02  3.1622215812410D-01 -1.5522524589788D-01
11  1.0000000000000D-01  3.5120851189077D-01 -1.7202947826064D-01
12  1.1000000000000D-01  3.8613438359254D-01 -1.8868344958074D-01
13  1.2000000000000D-01  4.2098728263640D-01 -2.0516709095044D-01
14  1.3000000000000D-01  4.5575301048086D-01 -2.2145898373189D-01
15  1.4000000000000D-01  4.9041556381247D-01 -2.3753627768213D-01
16  1.5000000000000D-01  5.2495705184199D-01 -2.5337461937733D-01
17  1.6000000000000D-01  5.5935762844399D-01 -2.6894809164396D-01
18  1.7000000000000D-01  5.9359543976466D-01 -2.8422916466663D-01
19  1.8000000000000D-01  6.2764658781870D-01 -2.9918865940027D-01
20  1.9000000000000D-01  6.6148511048903D-01 -3.1379572386907D-01
21  2.0000000000000D-01  6.9508297823323D-01 -3.2801782288523D-01
22  2.1000000000000D-01  7.2841010768816D-01 -3.4182074166771D-01
23  2.2000000000000D-01  7.6143439225112D-01 -3.5516860378414D-01
24  2.3000000000000D-01  7.9412174960149D-01 -3.6802390377851D-01
25  2.4000000000000D-01  8.2643618601304D-01 -3.8034755478274D-01
26  2.5000000000000D-01  8.5833987719389D-01 -3.9209895134194D-01
27  2.6000000000000D-01  8.8979326528006D-01 -4.0323604761141D-01
28  2.7000000000000D-01  9.2075517149913D-01 -4.1371545100782D-01
29  2.8000000000000D-01  9.5118292391506D-01 -4.2349253131853D-01
30  2.9000000000000D-01  9.8103249956313D-01 -4.3252154519079D-01
31  3.0000000000000D-01  1.0102586801864D+00 -4.4075577583783D-01
32  3.1000000000000D-01  1.0388152206928D+00 -4.4814768771145D-01
33  3.2000000000000D-01  1.0666550293663D+00 -4.5464909580095D-01
34  3.3000000000000D-01  1.0937303587832D+00 -4.6021134912639D-01
35  3.4000000000000D-01  1.1199930063145D+00 -4.6478552790137D-01
36  3.5000000000000D-01  1.1453945230277D+00 -4.6832265374591D-01
37  3.6000000000000D-01  1.1698864297425D+00 -4.7077391223565D-01
38  3.7000000000000D-01  1.1934204389478D+00 -4.7209088697861D-01
39  3.8000000000000D-01  1.2159486812441D+00 -4.7222580431664D-01
40  3.9000000000000D-01  1.2374239349432D+00 -4.7113178765572D-01
41  4.0000000000000D-01  1.2577998574358D+00 -4.6876312033811D-01
42  4.1000000000000D-01  1.2770312169199D+00 -4.6507551588051D-01
43  4.2000000000000D-01  1.2950741230822D+00 -4.6002639431685D-01
44  4.3000000000000D-01  1.3118862553255D+00 -4.5357516330277D-01
45  4.4000000000000D-01  1.3274270871505D+00 -4.4568350256112D-01
46  4.5000000000000D-01  1.3416581053246D+00 -4.3631565017662D-01
47  4.6000000000000D-01  1.3545430224973D+00 -4.2543868918091D-01
48  4.7000000000000D-01  1.3660479819693D+00 -4.1302283281076D-01
49  4.8000000000000D-01  1.3761417533633D+00 -3.9904170676946D-01
50  4.9000000000000D-01  1.3847959180089D+00 -3.8347262677778D-01
51  5.0000000000000D-01  1.3919850429130D+00 -3.6629686966565D-01
52  5.1000000000000D-01  1.3976868422622D+00 -3.4749993622917D-01
53  5.2000000000000D-01  1.4018823254799D+00 -3.2707180406176D-01
54  5.3000000000000D-01  1.4045559309473D+00 -3.0500716856208D-01
55  5.4000000000000D-01  1.4056956445858D+00 -2.8130567032623D-01
56  5.5000000000000D-01  1.4052931025940D+00 -2.5597210714796D-01
57  5.6000000000000D-01  1.4033436777310D+00 -2.2901662887815D-01
58  5.7000000000000D-01  1.3998465486410D+00 -2.0045491343453D-01
59  5.8000000000000D-01  1.3948047518173D+00 -1.7030832230374D-01
60  5.9000000000000D-01  1.3882252159137D+00 -1.3860403394190D-01
61  6.0000000000000D-01  1.3801187782175D+00 -1.0537515355558D-01
62  6.1000000000000D-01  1.3705001832064D+00 -7.0660797832608D-02
63  6.2000000000000D-01  1.3593880632246D+00 -3.4506153293060D-02
64  6.3000000000000D-01  1.3468049014130D+00  3.0374929590378D-03
65  6.4000000000000D-01  1.3327769771423D+00  4.1912751178166D-02
66  6.5000000000000D-01  1.3173342942941D+00  8.2056156575987D-02
67  6.6000000000000D-01  1.3005104928396D+00  1.2339822739348D-01
68  6.7000000000000D-01  1.2823427442572D+00  1.6586355410946D-01
69  6.8000000000000D-01  1.2628716314253D+00  2.0937092028502D-01
70  6.9000000000000D-01  1.2421410137101D+00  2.5383345537270D-01
71  7.0000000000000D-01  1.2201978780489D+00  2.9915881963900D-01
72  7.1000000000000D-01  1.1970921769057D+00  3.4524942116459D-01
73  7.2000000000000D-01  1.1728766540387D+00  3.9200266469510D-01
74  7.3000000000000D-01  1.1476066590849D+00  4.3931123192113D-01
75  7.4000000000000D-01  1.1213399520164D+00  4.8706339256800D-01
76  7.5000000000000D-01  1.0941364985678D+00  5.3514334547559D-01
77  7.6000000000000D-01  1.0660582577749D+00  5.8343158864930D-01
78  7.7000000000000D-01  1.0371689627893D+00  6.3180531706339D-01
79  7.8000000000000D-01  1.0075338961577D+00  6.8013884680109D-01
80  7.9000000000000D-01  9.7721966076585D-01  7.2830406392255D-01
81  8.0000000000000D-01  9.4629394765206D-01  7.7617089626352D-01
82  8.1000000000000D-01  9.1482530189160D-01  8.2360780618590D-01
83  8.2000000000000D-01  8.8288288774113D-01  8.7048230212723D-01
84  8.3000000000000D-01  8.5053625421426D-01  9.1666146663190D-01
85  8.4000000000000D-01  8.1785510223190D-01  9.6201249839254D-01
86  8.5000000000000D-01  7.8490905445773D-01  1.0064032656885D+00
87  8.6000000000000D-01  7.5176742888915D-01  1.0497028684791D+00
88  8.7000000000000D-01  7.1849901722721D-01  1.0917822062950D+00
89  8.8000000000000D-01  6.8517186899726D-01  1.1325145489718D+00
90  8.9000000000000D-01  6.5185308233460D-01  1.1717761071893D+00
91  9.0000000000000D-01  6.1860860228756D-01  1.2094465997106D+00
92  9.1000000000000D-01  5.8550302742460D-01  1.2454098141744D+00
93  9.2000000000000D-01  5.5259942546233D-01  1.2795541582612D+00
94  9.3000000000000D-01  5.1995915856008D-01  1.3117731980478D+00
95  9.4000000000000D-01  4.8764171885157D-01  1.3419661803775D+00
96  9.5000000000000D-01  4.5570457470896D-01  1.3700385361032D+00
97  9.6000000000000D-01  4.2420302815818D-01  1.3959023611150D+00
98  9.7000000000000D-01  3.9319008378759D-01  1.4194768721371D+00
99  9.8000000000000D-01  3.6271632941564D-01  1.4406888343711D+00
100  9.9000000000000D-01  3.3282982870859D-01  1.4594729581794D+00
101  1.0000000000000D+00  3.0357602586518D-01  1.4757722621317D+00
102  1.0100000000000D+00  2.7499766241344D-01  1.4895383998985D+00
103  1.0200000000000D+00  2.4713470609903D-01  1.5007319486333D+00
104  1.0300000000000D+00  2.2002429177473D-01  1.5093226566891D+00
105  1.0400000000000D+00  1.9370067414255D-01  1.5152896487106D+00
106  1.0500000000000D+00  1.6819519214086D-01  1.5186215863664D+00
107  1.0600000000000D+00  1.4353624471544D-01  1.5193167832262D+00
108  1.0700000000000D+00  1.1974927766582D-01  1.5173832725272D+00
109  1.0800000000000D+00  9.6856781214864D-02  1.5128388268344D+00
110  1.0900000000000D+00  7.4878297908758D-02  1.5057109288772D+00
111  1.1000000000000D+00  5.3830440424226D-02  1.4960366931106D+00
112  1.1100000000000D+00  3.3726918829703D-02  1.4838627378515D+00
113  1.1200000000000D+00  1.4578576827437D-02  1.4692450080867D+00
114  1.1300000000000D+00 -3.6065635174132D-03  1.4522485493865D+00
115  1.1400000000000D+00 -2.0823249064283D-02  1.4329472336195D+00
116  1.1500000000000D+00 -3.7068935411979D-02  1.4114234374793D+00
117  1.1600000000000D+00 -5.2343719754254D-02  1.3877676750648D+00
118  1.1700000000000D+00 -6.6650267287881D-02  1.3620781860948D+00
119  1.1800000000000D+00 -7.9993731677316D-02  1.3344604815829D+00
120  1.1900000000000D+00 -9.2381670066740D-02  1.3050268490888D+00
121  1.2000000000000D+00 -1.0382395312465D-01  1.2738958198215D+00
122  1.2100000000000D+00 -1.1433267057888D-01  1.2411916002452D+00
123  1.2200000000000D+00 -1.2392203268233D-01  1.2070434709823D+00
124  1.2300000000000D+00 -1.3260826803350D-01  1.1715851559928D+00
125  1.2400000000000D+00 -1.4040951814590D-01  1.1349541652549D+00
126  1.2500000000000D+00 -1.4734572913098D-01  1.0972911143410D+00
127  1.2600000000000D+00 -1.5343854084170D-01  1.0587390243769D+00
128  1.2700000000000D+00 -1.5871117379600D-01  1.0194426060424D+00
129  1.2800000000000D+00 -1.6318831415945D-01  9.7954753139612D-01
130  1.2900000000000D+00 -1.6689599705641D-01  9.3919969732609D-01
131  1.3000000000000D+00 -1.6986148845074D-01  8.9854448454137D-01
132  1.3100000000000D+00 -1.7211316579651D-01  8.5772601603413D-01
133  1.3200000000000D+00 -1.7368039766151D-01  8.1688641892582D-01
134  1.3300000000000D+00 -1.7459342249171D-01  7.7616509366321D-01
135  1.3400000000000D+00 -1.7488322666089D-01  7.3569799437138D-01
136  1.3500000000000D+00 -1.7458142195759D-01  6.9561692423937D-01
137  1.3600000000000D+00 -1.7372012262324D-01  6.5604884966597D-01
138  1.3700000000000D+00 -1.7233182206358D-01  6.1711523663064D-01
139  1.3800000000000D+00 -1.7044926934549D-01  5.7893141302280D-01
140  1.3900000000000D+00 -1.6810534558393D-01  5.4160595997686D-01
141  1.4000000000000D+00 -1.6533294033685D-01  5.0524013545854D-01
142  1.4100000000000D+00 -1.6216482810814D-01  4.6992733318595D-01
143  1.4200000000000D+00 -1.5863354510681D-01  4.3575257918336D-01
144  1.4300000000000D+00 -1.5477126636268D-01  4.0279206905169D-01
145  1.4400000000000D+00 -1.5060968337651D-01  3.7111274765519D-01
146  1.4500000000000D+00 -1.4617988245933D-01  3.4077193346947D-01
147  1.4600000000000D+00 -1.4151222310537D-01  3.1181698526066D-01
148  1.4700000000000D+00 -1.3663622034836D-01  2.8428503143543D-01
149  1.4800000000000D+00 -1.3158042354913D-01  2.5820272208790D-01
150  1.4900000000000D+00 -1.2637232750797D-01  2.3358618850366D-01
151  1.5000000000000D+00 -1.2103815988499D-01  2.1044041525306D-01
152  1.5100000000000D+00 -1.1560287957573D-01  1.8875971983699D-01
153  1.5200000000000D+00 -1.1009038381717D-01  1.6852938136650D-01
154  1.5300000000000D+00 -1.0452370111952D-01  1.4972704655985D-01
155  1.5400000000000D+00 -9.8925299560951D-02  1.3232467350206D-01
156  1.5500000000000D+00 -9.3317065192453D-02  1.1628878845116D-01
157  1.5600000000000D+00 -8.7720242568774D-02  1.0158052743477D-01
158  1.5700000000000D+00 -8.2155470684202D-02  8.8156265659151D-02
159  1.5800000000000D+00 -7.6642763940532D-02  7.5967969013462D-02
160  1.5900000000000D+00 -7.1201509251662D-02  6.4963668598221D-02
161  1.6000000000000D+00 -6.5850455684306D-02  5.5087923028839D-02
162  1.6100000000000D+00 -6.0607702835211D-02  4.6282300386567D-02
163  1.6200000000000D+00 -5.5490687224524D-02  3.8485871199454D-02
164  1.6300000000000D+00 -5.0516166731356D-02  3.1635709470526D-02
165  1.6400000000000D+00 -4.5700203254814D-02  2.5667398167410D-02
166  1.6500000000000D+00 -4.1058143751384D-02  2.0515535988927D-02
167  1.6600000000000D+00 -3.6604599838474D-02  1.6114241778884D-02
168  1.6700000000000D+00 -3.2353426191639D-02  1.2397653477030D-02
169  1.6800000000000D+00 -2.8317697952996D-02  9.3004178573041D-03
170  1.6900000000000D+00 -2.4509687405826D-02  6.7581682492100D-03
171  1.7000000000000D+00 -2.0940840176091D-02  4.7079863617026D-03
172  1.7100000000000D+00 -1.7621751202046D-02  3.0888458562617D-03
173  1.7200000000000D+00 -1.4562140778195D-02  1.8420337481541D-03
174  1.7300000000000D+00 -1.1770830876263D-02  9.1154775122929D-04
175  1.7400000000000D+00 -9.2557220771063D-03  2.4446583094331D-04
176  1.7500000000000D+00 -7.0237712775507D-03 -2.0871359729359D-04
177  1.7600000000000D+00 -5.0814815560786D-03 -4.9476820825991D-04
178  1.7700000000000D+00 -3.4331018940186D-03 -6.5397990467817D-04
179  1.7800000000000D+00 -2.0803884335997D-03 -7.1571342929815D-04
180  1.7900000000000D+00 -1.0290030917871D-03 -7.2165377750646D-04
181  1.8000000000000D+00 -2.8647796139622D-04 -7.4052914321359D-04
182  1.8100000000000D+00  1.5102954101292D-04 -7.7959423885514D-04
183  1.8200000000000D+00  2.9407468588235D-04 -6.9087299545456D-04
184  1.8300000000000D+00  1.8869600753388D-04 -3.6703841929601D-04
185  1.8400000000000D+00  1.8227949365494D-05 -3.3001896554025D-05
186  1.8500000000000D+00 -4.2236690256546D-05  7.4144370933425D-05
187  1.8600000000000D+00 -1.6155498841134D-05  2.7599931090211D-05
188  1.8700000000000D+00  7.8881947679449D-06 -1.4681412216905D-05
189  1.8800000000000D+00  6.0553750377962D-06 -1.1125493295538D-05
190  1.8900000000000D+00 -5.1925511578428D-07  1.2425984652809D-06
191  1.9000000000000D+00 -7.4040511148373D-07  1.7718193374488D-06
192  1.9100000000000D+00  0.0000000000000D+00  0.0000000000000D+00
193  1.9200000000000D+00  0.0000000000000D+00  0.0000000000000D+00
194  1.9300000000000D+00  0.0000000000000D+00  0.0000000000000D+00
195  1.9400000000000D+00  0.0000000000000D+00  0.0000000000000D+00
196  1.9500000000000D+00  0.0000000000000D+00  0.0000000000000D+00
197  1.9600000000000D+00  0.0000000000000D+00  0.0000000000000D+00
198  1.9700000000000D+00  0.0000000000000D+00  0.0000000000000D+00
199  1.9800000000000D+00  0.0000000000000D+00  0.0000000000000D+00
200  1.9900000000000D+00  0.0000000000000D+00  0.0000000000000D+00
201  2.0000000000000D+00  0.0000000000000D+00  0.0000000000000D+00
202  2.0100000000000D+00  0.0000000000000D+00  0.0000000000000D+00
203  2.0200000000000D+00  0.0000000000000D+00  0.0000000000000D+00
204  2.0300000000000D+00  0.0000000000000D+00  0.0000000000000D+00
205  2.0400000000000D+00  0.0000000000000D+00  0.0000000000000D+00
206  2.0500000000000D+00  0.0000000000000D+00  0.0000000000000D+00
207  2.0600000000000D+00  0.0000000000000D+00  0.0000000000000D+00
208  2.0700000000000D+00  0.0000000000000D+00  0.0000000000000D+00
209  2.0800000000000D+00  0.0000000000000D+00  0.0000000000000D+00
210  2.0900000000000D+00  0.0000000000000D+00  0.0000000000000D+00
211  2.1000000000000D+00  0.0000000000000D+00  0.0000000000000D+00
212  2.1100000000000D+00  0.0000000000000D+00  0.0000000000000D+00
213  2.1200000000000D+00  0.0000000000000D+00  0.0000000000000D+00
214  2.1300000000000D+00  0.0000000000000D+00  0.0000000000000D+00
215  2.1400000000000D+00  0.0000000000000D+00  0.0000000000000D+00
216  2.1500000000000D+00  0.0000000000000D+00  0.0000000000000D+00
217  2.1600000000000D+00  0.0000000000000D+00  0.0000000000000D+00
218  2.1700000000000D+00  0.0000000000000D+00  0.0000000000000D+00
219  2.1800000000000D+00  0.0000000000000D+00  0.0000000000000D+00
220  2.1900000000000D+00  0.0000000000000D+00  0.0000000000000D+00
221  2.2000000000000D+00  0.0000000000000D+00  0.0000000000000D+00
222  2.2100000000000D+00  0.0000000000000D+00  0.0000000000000D+00
223  2.2200000000000D+00  0.0000000000000D+00  0.0000000000000D+00
224  2.2300000000000D+00  0.0000000000000D+00  0.0000000000000D+00
225  2.2400000000000D+00  0.0000000000000D+00  0.0000000000000D+00
226  2.2500000000000D+00  0.0000000000000D+00  0.0000000000000D+00
227  2.2600000000000D+00  0.0000000000000D+00  0.0000000000000D+00
228  2.2700000000000D+00  0.0000000000000D+00  0.0000000000000D+00
229  2.2800000000000D+00  0.0000000000000D+00  0.0000000000000D+00
230  2.2900000000000D+00  0.0000000000000D+00  0.0000000000000D+00
231  2.3000000000000D+00  0.0000000000000D+00  0.0000000000000D+00
232  2.3100000000000D+00  0.0000000000000D+00  0.0000000000000D+00
233  2.3200000000000D+00  0.0000000000000D+00  0.0000000000000D+00
234  2.3300000000000D+00  0.0000000000000D+00  0.0000000000000D+00
235  2.3400000000000D+00  0.0000000000000D+00  0.0000000000000D+00
236  2.3500000000000D+00  0.0000000000000D+00  0.0000000000000D+00
237  2.3600000000000D+00  0.0000000000000D+00  0.0000000000000D+00
238  2.3700000000000D+00  0.0000000000000D+00  0.0000000000000D+00
239  2.3800000000000D+00  0.0000000000000D+00  0.0000000000000D+00
240  2.3900000000000D+00  0.0000000000000D+00  0.0000000000000D+00
241  2.4000000000000D+00  0.0000000000000D+00  0.0000000000000D+00
242  2.4100000000000D+00  0.0000000000000D+00  0.0000000000000D+00
243  2.4200000000000D+00  0.0000000000000D+00  0.0000000000000D+00
244  2.4300000000000D+00  0.0000000000000D+00  0.0000000000000D+00
245  2.4400000000000D+00  0.0000000000000D+00  0.0000000000000D+00
246  2.4500000000000D+00  0.0000000000000D+00  0.0000000000000D+00
247  2.4600000000000D+00  0.0000000000000D+00  0.0000000000000D+00
248  2.4700000000000D+00  0.0000000000000D+00  0.0000000000000D+00
249  2.4800000000000D+00  0.0000000000000D+00  0.0000000000000D+00
250  2.4900000000000D+00  0.0000000000000D+00  0.0000000000000D+00
251  2.5000000000000D+00  0.0000000000000D+00  0.0000000000000D+00
252  2.5100000000000D+00  0.0000000000000D+00  0.0000000000000D+00
253  2.5200000000000D+00  0.0000000000000D+00  0.0000000000000D+00
254  2.5300000000000D+00  0.0000000000000D+00  0.0000000000000D+00
255  2.5400000000000D+00  0.0000000000000D+00  0.0000000000000D+00
256  2.5500000000000D+00  0.0000000000000D+00  0.0000000000000D+00
257  2.5600000000000D+00  0.0000000000000D+00  0.0000000000000D+00
258  2.5700000000000D+00  0.0000000000000D+00  0.0000000000000D+00
259  2.5800000000000D+00  0.0000000000000D+00  0.0000000000000D+00
260  2.5900000000000D+00  0.0000000000000D+00  0.0000000000000D+00
261  2.6000000000000D+00  0.0000000000000D+00  0.0000000000000D+00
262  2.6100000000000D+00  0.0000000000000D+00  0.0000000000000D+00
263  2.6200000000000D+00  0.0000000000000D+00  0.0000000000000D+00
264  2.6300000000000D+00  0.0000000000000D+00  0.0000000000000D+00
265  2.6400000000000D+00  0.0000000000000D+00  0.0000000000000D+00
266  2.6500000000000D+00  0.0000000000000D+00  0.0000000000000D+00
267  2.6600000000000D+00  0.0000000000000D+00  0.0000000000000D+00
268  2.6700000000000D+00  0.0000000000000D+00  0.0000000000000D+00
269  2.6800000000000D+00  0.0000000000000D+00  0.0000000000000D+00
270  2.6900000000000D+00  0.0000000000000D+00  0.0000000000000D+00
271  2.7000000000000D+00  0.0000000000000D+00  0.0000000000000D+00
272  2.7100000000000D+00  0.0000000000000D+00  0.0000000000000D+00
273  2.7200000000000D+00  0.0000000000000D+00  0.0000000000000D+00
274  2.7300000000000D+00  0.0000000000000D+00  0.0000000000000D+00
275  2.7400000000000D+00  0.0000000000000D+00  0.0000000000000D+00
276  2.7500000000000D+00  0.0000000000000D+00  0.0000000000000D+00
277  2.7600000000000D+00  0.0000000000000D+00  0.0000000000000D+00
278  2.7700000000000D+00  0.0000000000000D+00  0.0000000000000D+00
279  2.7800000000000D+00  0.0000000000000D+00  0.0000000000000D+00
280  2.7900000000000D+00  0.0000000000000D+00  0.0000000000000D+00
281  2.8000000000000D+00  0.0000000000000D+00  0.0000000000000D+00
282  2.8100000000000D+00  0.0000000000000D+00  0.0000000000000D+00
283  2.8200000000000D+00  0.0000000000000D+00  0.0000000000000D+00
284  2.8300000000000D+00  0.0000000000000D+00  0.0000000000000D+00
285  2.8400000000000D+00  0.0000000000000D+00  0.0000000000000D+00
286  2.8500000000000D+00  0.0000000000000D+00  0.0000000000000D+00
287  2.8600000000000D+00  0.0000000000000D+00  0.0000000000000D+00
288  2.8700000000000D+00  0.0000000000000D+00  0.0000000000000D+00
289  2.8800000000000D+00  0.0000000000000D+00  0.0000000000000D+00
290  2.8900000000000D+00  0.0000000000000D+00  0.0000000000000D+00
291  2.9000000000000D+00  0.0000000000000D+00  0.0000000000000D+00
292  2.9100000000000D+00  0.0000000000000D+00  0.0000000000000D+00
293  2.9200000000000D+00  0.0000000000000D+00  0.0000000000000D+00
294  2.9300000000000D+00  0.0000000000000D+00  0.0000000000000D+00
295  2.9400000000000D+00  0.0000000000000D+00  0.0000000000000D+00
296  2.9500000000000D+00  0.0000000000000D+00  0.0000000000000D+00
297  2.9600000000000D+00  0.0000000000000D+00  0.0000000000000D+00
298  2.9700000000000D+00  0.0000000000000D+00  0.0000000000000D+00
299  2.9800000000000D+00  0.0000000000000D+00  0.0000000000000D+00
300  2.9900000000000D+00  0.0000000000000D+00  0.0000000000000D+00
301  3.0000000000000D+00  0.0000000000000D+00  0.0000000000000D+00
302  3.0100000000000D+00  0.0000000000000D+00  0.0000000000000D+00
303  3.0200000000000D+00  0.0000000000000D+00  0.0000000000000D+00
304  3.0300000000000D+00  0.0000000000000D+00  0.0000000000000D+00
305  3.0400000000000D+00  0.0000000000000D+00  0.0000000000000D+00
306  3.0500000000000D+00  0.0000000000000D+00  0.0000000000000D+00
307  3.0600000000000D+00  0.0000000000000D+00  0.0000000000000D+00
308  3.0700000000000D+00  0.0000000000000D+00  0.0000000000000D+00
309  3.0800000000000D+00  0.0000000000000D+00  0.0000000000000D+00
310  3.0900000000000D+00  0.0000000000000D+00  0.0000000000000D+00
311  3.1000000000000D+00  0.0000000000000D+00  0.0000000000000D+00
312  3.1100000000000D+00  0.0000000000000D+00  0.0000000000000D+00
313  3.1200000000000D+00  0.0000000000000D+00  0.0000000000000D+00
314  3.1300000000000D+00  0.0000000000000D+00  0.0000000000000D+00
315  3.1400000000000D+00  0.0000000000000D+00  0.0000000000000D+00
316  3.1500000000000D+00  0.0000000000000D+00  0.0000000000000D+00
317  3.1600000000000D+00  0.0000000000000D+00  0.0000000000000D+00
318  3.1700000000000D+00  0.0000000000000D+00  0.0000000000000D+00
319  3.1800000000000D+00  0.0000000000000D+00  0.0000000000000D+00
320  3.1900000000000D+00  0.0000000000000D+00  0.0000000000000D+00
321  3.2000000000000D+00  0.0000000000000D+00  0.0000000000000D+00
322  3.2100000000000D+00  0.0000000000000D+00  0.0000000000000D+00
323  3.2200000000000D+00  0.0000000000000D+00  0.0000000000000D+00
324  3.2300000000000D+00  0.0000000000000D+00  0.0000000000000D+00
325  3.2400000000000D+00  0.0000000000000D+00  0.0000000000000D+00
326  3.2500000000000D+00  0.0000000000000D+00  0.0000000000000D+00
327  3.2600000000000D+00  0.0000000000000D+00  0.0000000000000D+00
328  3.2700000000000D+00  0.0000000000000D+00  0.0000000000000D+00
329  3.2800000000000D+00  0.0000000000000D+00  0.0000000000000D+00
330  3.2900000000000D+00  0.0000000000000D+00  0.0000000000000D+00
331  3.3000000000000D+00  0.0000000000000D+00  0.0000000000000D+00
332  3.3100000000000D+00  0.0000000000000D+00  0.0000000000000D+00
333  3.3200000000000D+00  0.0000000000000D+00  0.0000000000000D+00
334  3.3300000000000D+00  0.0000000000000D+00  0.0000000000000D+00
335  3.3400000000000D+00  0.0000000000000D+00  0.0000000000000D+00
336  3.3500000000000D+00  0.0000000000000D+00  0.0000000000000D+00
337  3.3600000000000D+00  0.0000000000000D+00  0.0000000000000D+00
338  3.3700000000000D+00  0.0000000000000D+00  0.0000000000000D+00
339  3.3800000000000D+00  0.0000000000000D+00  0.0000000000000D+00
340  3.3900000000000D+00  0.0000000000000D+00  0.0000000000000D+00
341  3.4000000000000D+00  0.0000000000000D+00  0.0000000000000D+00
342  3.4100000000000D+00  0.0000000000000D+00  0.0000000000000D+00
343  3.4200000000000D+00  0.0000000000000D+00  0.0000000000000D+00
344  3.4300000000000D+00  0.0000000000000D+00  0.0000000000000D+00
345  3.4400000000000D+00  0.0000000000000D+00  0.0000000000000D+00
346  3.4500000000000D+00  0.0000000000000D+00  0.0000000000000D+00
347  3.4600000000000D+00  0.0000000000000D+00  0.0000000000000D+00
348  3.4700000000000D+00  0.0000000000000D+00  0.0000000000000D+00
349  3.4800000000000D+00  0.0000000000000D+00  0.0000000000000D+00
350  3.4900000000000D+00  0.0000000000000D+00  0.0000000000000D+00
351  3.5000000000000D+00  0.0000000000000D+00  0.0000000000000D+00
352  3.5100000000000D+00  0.0000000000000D+00  0.0000000000000D+00
353  3.5200000000000D+00  0.0000000000000D+00  0.0000000000000D+00
354  3.5300000000000D+00  0.0000000000000D+00  0.0000000000000D+00
355  3.5400000000000D+00  0.0000000000000D+00  0.0000000000000D+00
356  3.5500000000000D+00  0.0000000000000D+00  0.0000000000000D+00
357  3.5600000000000D+00  0.0000000000000D+00  0.0000000000000D+00
358  3.5700000000000D+00  0.0000000000000D+00  0.0000000000000D+00
359  3.5800000000000D+00  0.0000000000000D+00  0.0000000000000D+00
360  3.5900000000000D+00  0.0000000000000D+00  0.0000000000000D+00
361  3.6000000000000D+00  0.0000000000000D+00  0.0000000000000D+00
362  3.6100000000000D+00  0.0000000000000D+00  0.0000000000000D+00
363  3.6200000000000D+00  0.0000000000000D+00  0.0000000000000D+00
364  3.6300000000000D+00  0.0000000000000D+00  0.0000000000000D+00
365  3.6400000000000D+00  0.0000000000000D+00  0.0000000000000D+00
366  3.6500000000000D+00  0.0000000000000D+00  0.0000000000000D+00
367  3.6600000000000D+00  0.0000000000000D+00  0.0000000000000D+00
368  3.6700000000000D+00  0.0000000000000D+00  0.0000000000000D+00
369  3.6800000000000D+00  0.0000000000000D+00  0.0000000000000D+00
370  3.6900000000000D+00  0.0000000000000D+00  0.0000000000000D+00
371  3.7000000000000D+00  0.0000000000000D+00  0.0000000000000D+00
372  3.7100000000000D+00  0.0000000000000D+00  0.0000000000000D+00
373  3.7200000000000D+00  0.0000000000000D+00  0.0000000000000D+00
374  3.7300000000000D+00  0.0000000000000D+00  0.0000000000000D+00
375  3.7400000000000D+00  0.0000000000000D+00  0.0000000000000D+00
376  3.7500000000000D+00  0.0000000000000D+00  0.0000000000000D+00
377  3.7600000000000D+00  0.0000000000000D+00  0.0000000000000D+00
378  3.7700000000000D+00  0.0000000000000D+00  0.0000000000000D+00
379  3.7800000000000D+00  0.0000000000000D+00  0.0000000000000D+00
380  3.7900000000000D+00  0.0000000000000D+00  0.0000000000000D+00
381  3.8000000000000D+00  0.0000000000000D+00  0.0000000000000D+00
382  3.8100000000000D+00  0.0000000000000D+00  0.0000000000000D+00
383  3.8200000000000D+00  0.0000000000000D+00  0.0000000000000D+00
384  3.8300000000000D+00  0.0000000000000D+00  0.0000000000000D+00
385  3.8400000000000D+00  0.0000000000000D+00  0.0000000000000D+00
386  3.8500000000000D+00  0.0000000000000D+00  0.0000000000000D+00
387  3.8600000000000D+00  0.0000000000000D+00  0.0000000000000D+00
388  3.8700000000000D+00  0.0000000000000D+00  0.0000000000000D+00
389  3.8800000000000D+00  0.0000000000000D+00  0.0000000000000D+00
390  3.8900000000000D+00  0.0000000000000D+00  0.0000000000000D+00
391  3.9000000000000D+00  0.0000000000000D+00  0.0000000000000D+00
392  3.9100000000000D+00  0.0000000000000D+00  0.0000000000000D+00
393  3.9200000000000D+00  0.0000000000000D+00  0.0000000000000D+00
394  3.9300000000000D+00  0.0000000000000D+00  0.0000000000000D+00
395  3.9400000000000D+00  0.0000000000000D+00  0.0000000000000D+00
396  3.9500000000000D+00  0.0000000000000D+00  0.0000000000000D+00
397  3.9600000000000D+00  0.0000000000000D+00  0.0000000000000D+00
398  3.9700000000000D+00  0.0000000000000D+00  0.0000000000000D+00
399  3.9800000000000D+00  0.0000000000000D+00  0.0000000000000D+00
400  3.9900000000000D+00  0.0000000000000D+00  0.0000000000000D+00
401  4.0000000000000D+00  0.0000000000000D+00  0.0000000000000D+00
402  4.0100000000000D+00  0.0000000000000D+00  0.0000000000000D+00
403  4.0200000000000D+00  0.0000000000000D+00  0.0000000000000D+00
404  4.0300000000000D+00  0.0000000000000D+00  0.0000000000000D+00
405  4.0400000000000D+00  0.0000000000000D+00  0.0000000000000D+00
406  4.0500000000000D+00  0.0000000000000D+00  0.0000000000000D+00
407  4.0600000000000D+00  0.0000000000000D+00  0.0000000000000D+00
408  4.0700000000000D+00  0.0000000000000D+00  0.0000000000000D+00
409  4.0800000000000D+00  0.0000000000000D+00  0.0000000000000D+00
410  4.0900000000000D+00  0.0000000000000D+00  0.0000000000000D+00
411  4.1000000000000D+00  0.0000000000000D+00  0.0000000000000D+00
412  4.1100000000000D+00  0.0000000000000D+00  0.0000000000000D+00
413  4.1200000000000D+00  0.0000000000000D+00  0.0000000000000D+00
414  4.1300000000000D+00  0.0000000000000D+00  0.0000000000000D+00
415  4.1400000000000D+00  0.0000000000000D+00  0.0000000000000D+00
416  4.1500000000000D+00  0.0000000000000D+00  0.0000000000000D+00
417  4.1600000000000D+00  0.0000000000000D+00  0.0000000000000D+00
418  4.1700000000000D+00  0.0000000000000D+00  0.0000000000000D+00
419  4.1800000000000D+00  0.0000000000000D+00  0.0000000000000D+00
420  4.1900000000000D+00  0.0000000000000D+00  0.0000000000000D+00
421  4.2000000000000D+00  0.0000000000000D+00  0.0000000000000D+00
422  4.2100000000000D+00  0.0000000000000D+00  0.0000000000000D+00
423  4.2200000000000D+00  0.0000000000000D+00  0.0000000000000D+00
424  4.2300000000000D+00  0.0000000000000D+00  0.0000000000000D+00
425  4.2400000000000D+00  0.0000000000000D+00  0.0000000000000D+00
426  4.2500000000000D+00  0.0000000000000D+00  0.0000000000000D+00
427  4.2600000000000D+00  0.0000000000000D+00  0.0000000000000D+00
428  4.2700000000000D+00  0.0000000000000D+00  0.0000000000000D+00
429  4.2800000000000D+00  0.0000000000000D+00  0.0000000000000D+00
430  4.2900000000000D+00  0.0000000000000D+00  0.0000000000000D+00
431  4.3000000000000D+00  0.0000000000000D+00  0.0000000000000D+00
432  4.3100000000000D+00  0.0000000000000D+00  0.0000000000000D+00
433  4.3200000000000D+00  0.0000000000000D+00  0.0000000000000D+00
434  4.3300000000000D+00  0.0000000000000D+00  0.0000000000000D+00
435  4.3400000000000D+00  0.0000000000000D+00  0.0000000000000D+00
436  4.3500000000000D+00  0.0000000000000D+00  0.0000000000000D+00
437  4.3600000000000D+00  0.0000000000000D+00  0.0000000000000D+00
438  4.3700000000000D+00  0.0000000000000D+00  0.0000000000000D+00
439  4.3800000000000D+00  0.0000000000000D+00  0.0000000000000D+00
440  4.3900000000000D+00  0.0000000000000D+00  0.0000000000000D+00
441  4.4000000000000D+00  0.0000000000000D+00  0.0000000000000D+00
442  4.4100000000000D+00  0.0000000000000D+00  0.0000000000000D+00
443  4.4200000000000D+00  0.0000000000000D+00  0.0000000000000D+00