Cu    ONCVPSP-3.2.3  r_core=   1.26204   1.45626   1.76249
29.0000     19.0000      161006    zatom,zion,pspd
8   -1012   2     4   600     0    pspcod,pspxc,lmax,lloc,mmax,r2well
5.99000000  5.00000000  0.00000000    rchrg fchrg qchrg
2     2     2     0     0    nproj
1     1           extension_switch
0                         4.6655944716866D+00 -4.3559043543876D-01
1  0.0000000000000D+00 -8.4053168869502D-09 -2.1135630079439D-08
2  1.0000000000000D-02  1.0573732686195D-01  3.6133755113849D-02
3  2.0000000000000D-02  2.1088964671323D-01  7.1645468504574D-02
4  3.0000000000000D-02  3.1487886961650D-01  1.0592720070760D-01
5  4.0000000000000D-02  4.1714062128064D-01  1.3839893042398D-01
6  5.0000000000000D-02  5.1713080683546D-01  1.6852180326572D-01
7  6.0000000000000D-02  6.1433182787455D-01  1.9581054350763D-01
8  7.0000000000000D-02  7.0825834727735D-01  2.1984477522308D-01
9  8.0000000000000D-02  7.9846250472693D-01  2.4027902031687D-01
10  9.0000000000000D-02  8.8453849604919D-01  2.5685116663266D-01
11  1.0000000000000D-01  9.6612644132313D-01  2.6938922902234D-01
12  1.1000000000000D-01  1.0429154799290D+00  2.7781625946103D-01
13  1.2000000000000D-01  1.1146460450659D+00  2.8215329834700D-01
14  1.3000000000000D-01  1.1811112855139D+00  2.8252029736015D-01
15  1.4000000000000D-01  1.2421576182551D+00  2.7913498394254D-01
16  1.5000000000000D-01  1.2976844117016D+00  2.7230967785616D-01
17  1.6000000000000D-01  1.3476428154123D+00  2.6244611060024D-01
18  1.7000000000000D-01  1.3920337680009D+00  2.5002833796316D-01
19  1.8000000000000D-01  1.4309052301595D+00  2.3561387388762D-01
20  1.9000000000000D-01  1.4643487040424D+00  2.1982320941447D-01
21  2.0000000000000D-01  1.4924951134213D+00  2.0332791305288D-01
22  2.1000000000000D-01  1.5155101307670D+00  1.8683753787055D-01
23  2.2000000000000D-01  1.5335890475240D+00  1.7108558533971D-01
24  2.3000000000000D-01  1.5469512921203D+00  1.5681479602382D-01
25  2.4000000000000D-01  1.5558347065397D+00  1.4476205214094D-01
26  2.5000000000000D-01  1.5604896964517D+00  1.3564318658550D-01
27  2.6000000000000D-01  1.5611733718600D+00  1.3013799691905D-01
28  2.7000000000000D-01  1.5581437949582D+00  1.2887576105130D-01
29  2.8000000000000D-01  1.5516544493553D+00  1.3242154382533D-01
30  2.9000000000000D-01  1.5419490401156D+00  1.4126357060993D-01
31  3.0000000000000D-01  1.5292567272093D+00  1.5580192550126D-01
32  3.1000000000000D-01  1.5137878861322D+00  1.7633880816955D-01
33  3.2000000000000D-01  1.4957304787770D+00  2.0307055516892D-01
34  3.3000000000000D-01  1.4752471053255D+00  2.3608159917015D-01
35  3.4000000000000D-01  1.4524727942087D+00  2.7534050366516D-01
36  3.5000000000000D-01  1.4275135723120D+00  3.2069817189122D-01
37  3.6000000000000D-01  1.4004458418546D+00  3.7188828774562D-01
38  3.7000000000000D-01  1.3713165740589D+00  4.2853000408275D-01
39  3.8000000000000D-01  1.3401443131439D+00  4.9013285078882D-01
40  3.9000000000000D-01  1.3069209676572D+00  5.5610379224209D-01
41  4.0000000000000D-01  1.2716143500059D+00  6.2575632199278D-01
42  4.1000000000000D-01  1.2341714095909D+00  6.9832144254469D-01
43  4.2000000000000D-01  1.1945220904722D+00  7.7296034076169D-01
44  4.3000000000000D-01  1.1525837312994D+00  8.4877853538523D-01
45  4.4000000000000D-01  1.1082659135809D+00  9.2484124310653D-01
46  4.5000000000000D-01  1.0614756544780D+00  1.0001896841902D+00
47  4.6000000000000D-01  1.0121228324045D+00  1.0738580283122D+00
48  4.7000000000000D-01  9.6012572793842D-01  1.1448906664823D+00
49  4.8000000000000D-01  9.0541655906284D-01  1.2123594859871D+00
50  4.9000000000000D-01  8.4794688860197D-01  1.2753808224372D+00
51  5.0000000000000D-01  7.8769278297586D-01  1.3331317663278D+00
52  5.1000000000000D-01  7.2465960503117D-01  1.3848655110000D+00
53  5.2000000000000D-01  6.5888632968418D-01  1.4299254444127D+00
54  5.3000000000000D-01  5.9044927933200D-01  1.4677577084370D+00
55  5.4000000000000D-01  5.1946518629523D-01  1.4979219760762D+00
56  5.5000000000000D-01  4.4609350180248D-01  1.5201002287171D+00
57  5.6000000000000D-01  3.7053788495486D-01  1.5341033515629D+00
58  5.7000000000000D-01  2.9304682047809D-01  1.5398754051740D+00
59  5.8000000000000D-01  2.1391333063063D-01  1.5374954739111D+00
60  5.9000000000000D-01  1.3347376398592D-01  1.5271770369995D+00
61  6.0000000000000D-01  5.2105661761710D-02  1.5092648544476D+00
62  6.1000000000000D-01 -2.9775279579033D-02  1.4842294068486D+00
63  6.2000000000000D-01 -1.1171911278287D-01  1.4526589746662D+00
64  6.3000000000000D-01 -1.9324635721393D-01  1.4152494878806D+00
65  6.4000000000000D-01 -2.7385345860298D-01  1.3727923198263D+00
66  6.5000000000000D-01 -3.5301890506875D-01  1.3261602393457D+00
67  6.6000000000000D-01 -4.3020989949176D-01  1.2762917715943D+00
68  6.7000000000000D-01 -5.0488947618413D-01  1.2241742496804D+00
69  6.8000000000000D-01 -5.7652393964686D-01  1.1708258661218D+00
70  6.9000000000000D-01 -6.4459049534314D-01  1.1172770540573D+00
71  7.0000000000000D-01 -7.0858493691629D-01  1.0645515430771D+00
72  7.1000000000000D-01 -7.6802925130148D-01  1.0136474430315D+00
73  7.2000000000000D-01 -8.2247900282638D-01  9.6551871095460D-01
74  7.3000000000000D-01 -8.7153035966208D-01  9.2105735132318D-01
75  7.4000000000000D-01 -9.1482663088467D-01  8.8107668821589D-01
76  7.5000000000000D-01 -9.5206418980559D-01  8.4629602987822D-01
77  7.6000000000000D-01 -9.8299766910671D-01  8.1732702178997D-01
78  7.7000000000000D-01 -1.0074443254161D+00  7.9466195421607D-01
79  7.8000000000000D-01 -1.0252874850994D+00  7.7866425486474D-01
80  7.9000000000000D-01 -1.0364789989834D+00  7.6956135728533D-01
81  8.0000000000000D-01 -1.0410406511590D+00  7.6744009179469D-01
82  8.1000000000000D-01 -1.0390644856228D+00  7.7224469882283D-01
83  8.2000000000000D-01 -1.0307120339567D+00  7.8377751550003D-01
84  8.3000000000000D-01 -1.0162124471532D+00  8.0170233599325D-01
85  8.4000000000000D-01 -9.9585955469103D-01  8.2555039549992D-01
86  8.5000000000000D-01 -9.7000789367395D-01  8.5472887788875D-01
87  8.6000000000000D-01 -9.3906776988310D-01  8.8853179870327D-01
88  8.7000000000000D-01 -9.0349943059757D-01  9.2615306954961D-01
89  8.8000000000000D-01 -8.6380644565482D-01  9.6670150766821D-01
90  8.9000000000000D-01 -8.2052840812964D-01  1.0092175165684D+00
91  9.0000000000000D-01 -7.7423307891163D-01  1.0526911307379D+00
92  9.1000000000000D-01 -7.2550811009873D-01  1.0960810902844D+00
93  9.2000000000000D-01 -6.7495249028396D-01  1.1383345904722D+00
94  9.3000000000000D-01 -6.2316786032323D-01  1.1784073369223D+00
95  9.4000000000000D-01 -5.7074985091653D-01  1.2152835300454D+00
96  9.5000000000000D-01 -5.1827959324520D-01  1.2479954022595D+00
97  9.6000000000000D-01 -4.6631555097400D-01  1.2756419387244D+00
98  9.7000000000000D-01 -4.1538581621186D-01  1.2974064265553D+00
99  9.8000000000000D-01 -3.6598100348604D-01  1.3125724988661D+00
100  9.9000000000000D-01 -3.1854786489644D-01  1.3205383673364D+00
101  1.0000000000000D+00 -2.7348373634142D-01  1.3208289703926D+00
102  1.0100000000000D+00 -2.3113190895977D-01  1.3131058037557D+00
103  1.0200000000000D+00 -1.9177800291655D-01  1.2971742429993D+00
104  1.0300000000000D+00 -1.5564740179171D-01  1.2729882153409D+00
105  1.0400000000000D+00 -1.2290378589632D-01  1.2406521281821D+00
106  1.0500000000000D+00 -9.3648781764196D-02  1.2004200150870D+00
107  1.0600000000000D+00 -6.7922725479378D-02  1.1526919093191D+00
108  1.0700000000000D+00 -4.5706514286507D-02  1.0980075136289D+00
109  1.0800000000000D+00 -2.6924502060220D-02  1.0370372825919D+00
110  1.0900000000000D+00 -1.1448373609956D-02  9.7057108575223D-01
111  1.1000000000000D+00  8.9808556688691D-04  8.9950466611378D-01
112  1.1100000000000D+00  1.0333423455148D-02  8.2482414879645D-01
113  1.1200000000000D+00  1.7112276195872D-02  7.4758889797596D-01
114  1.1300000000000D+00  2.1518570822553D-02  6.6891304780050D-01
115  1.1400000000000D+00  2.3858314960332D-02  5.8994606137334D-01
116  1.1500000000000D+00  2.4452119148189D-02  5.1185268880211D-01
117  1.1600000000000D+00  2.3627604392829D-02  4.3579271247440D-01
118  1.1700000000000D+00  2.1711849794349D-02  3.6290087519663D-01
119  1.1800000000000D+00  1.9024030825408D-02  2.9426736962456D-01
120  1.1900000000000D+00  1.5868340255995D-02  2.3091907756786D-01
121  1.2000000000000D+00  1.2527570776927D-02  1.7380272209415D-01
122  1.2100000000000D+00  9.2571791550017D-03  1.2376922963650D-01
123  1.2200000000000D+00  6.2787575540207D-03  8.1562366314013D-02
124  1.2300000000000D+00  3.7702042554852D-03  4.7761299691066D-02
125  1.2400000000000D+00  1.8506526800452D-03  2.2659870214323D-02
126  1.2500000000000D+00  6.6491530410511D-04  7.2292936504661D-03
127  1.2600000000000D+00  1.7109969212087D-04  8.1233856870239D-04
128  1.2700000000000D+00  2.3496184323034D-05 -3.3560366412693D-04
129  1.2800000000000D+00 -1.2672804306131D-06  8.2682904047401D-05
130  1.2900000000000D+00  8.5483061938104D-08  5.7811110834129D-05
131  1.3000000000000D+00  7.2871925659748D-07 -2.2433721799099D-05
132  1.3100000000000D+00 -1.5698675996199D-07 -3.6425882980331D-07
133  1.3200000000000D+00 -2.2907378913786D-07 -5.3152348892461D-07
134  1.3300000000000D+00  0.0000000000000D+00  0.0000000000000D+00
135  1.3400000000000D+00  0.0000000000000D+00  0.0000000000000D+00
136  1.3500000000000D+00  0.0000000000000D+00  0.0000000000000D+00
137  1.3600000000000D+00  0.0000000000000D+00  0.0000000000000D+00
138  1.3700000000000D+00  0.0000000000000D+00  0.0000000000000D+00
139  1.3800000000000D+00  0.0000000000000D+00  0.0000000000000D+00
140  1.3900000000000D+00  0.0000000000000D+00  0.0000000000000D+00
141  1.4000000000000D+00  0.0000000000000D+00  0.0000000000000D+00
142  1.4100000000000D+00  0.0000000000000D+00  0.0000000000000D+00
143  1.4200000000000D+00  0.0000000000000D+00  0.0000000000000D+00
144  1.4300000000000D+00  0.0000000000000D+00  0.0000000000000D+00
145  1.4400000000000D+00  0.0000000000000D+00  0.0000000000000D+00
146  1.4500000000000D+00  0.0000000000000D+00  0.0000000000000D+00
147  1.4600000000000D+00  0.0000000000000D+00  0.0000000000000D+00
148  1.4700000000000D+00  0.0000000000000D+00  0.0000000000000D+00
149  1.4800000000000D+00  0.0000000000000D+00  0.0000000000000D+00
150  1.4900000000000D+00  0.0000000000000D+00  0.0000000000000D+00
151  1.5000000000000D+00  0.0000000000000D+00  0.0000000000000D+00
152  1.5100000000000D+00  0.0000000000000D+00  0.0000000000000D+00
153  1.5200000000000D+00  0.0000000000000D+00  0.0000000000000D+00
154  1.5300000000000D+00  0.0000000000000D+00  0.0000000000000D+00
155  1.5400000000000D+00  0.0000000000000D+00  0.0000000000000D+00
156  1.5500000000000D+00  0.0000000000000D+00  0.0000000000000D+00
157  1.5600000000000D+00  0.0000000000000D+00  0.0000000000000D+00
158  1.5700000000000D+00  0.0000000000000D+00  0.0000000000000D+00
159  1.5800000000000D+00  0.0000000000000D+00  0.0000000000000D+00
160  1.5900000000000D+00  0.0000000000000D+00  0.0000000000000D+00
161  1.6000000000000D+00  0.0000000000000D+00  0.0000000000000D+00
162  1.6100000000000D+00  0.0000000000000D+00  0.0000000000000D+00
163  1.6200000000000D+00  0.0000000000000D+00  0.0000000000000D+00
164  1.6300000000000D+00  0.0000000000000D+00  0.0000000000000D+00
165  1.6400000000000D+00  0.0000000000000D+00  0.0000000000000D+00
166  1.6500000000000D+00  0.0000000000000D+00  0.0000000000000D+00
167  1.6600000000000D+00  0.0000000000000D+00  0.0000000000000D+00
168  1.6700000000000D+00  0.0000000000000D+00  0.0000000000000D+00
169  1.6800000000000D+00  0.0000000000000D+00  0.0000000000000D+00
170  1.6900000000000D+00  0.0000000000000D+00  0.0000000000000D+00
171  1.7000000000000D+00  0.0000000000000D+00  0.0000000000000D+00
172  1.7100000000000D+00  0.0000000000000D+00  0.0000000000000D+00
173  1.7200000000000D+00  0.0000000000000D+00  0.0000000000000D+00
174  1.7300000000000D+00  0.0000000000000D+00  0.0000000000000D+00
175  1.7400000000000D+00  0.0000000000000D+00  0.0000000000000D+00
176  1.7500000000000D+00  0.0000000000000D+00  0.0000000000000D+00
177  1.7600000000000D+00  0.0000000000000D+00  0.0000000000000D+00
178  1.7700000000000D+00  0.0000000000000D+00  0.0000000000000D+00
179  1.7800000000000D+00  0.0000000000000D+00  0.0000000000000D+00
180  1.7900000000000D+00  0.0000000000000D+00  0.0000000000000D+00
181  1.8000000000000D+00  0.0000000000000D+00  0.0000000000000D+00
182  1.8100000000000D+00  0.0000000000000D+00  0.0000000000000D+00
183  1.8200000000000D+00  0.0000000000000D+00  0.0000000000000D+00
184  1.8300000000000D+00  0.0000000000000D+00  0.0000000000000D+00
185  1.8400000000000D+00  0.0000000000000D+00  0.0000000000000D+00
186  1.8500000000000D+00  0.0000000000000D+00  0.0000000000000D+00
187  1.8600000000000D+00  0.0000000000000D+00  0.0000000000000D+00
188  1.8700000000000D+00  0.0000000000000D+00  0.0000000000000D+00
189  1.8800000000000D+00  0.0000000000000D+00  0.0000000000000D+00
190  1.8900000000000D+00  0.0000000000000D+00  0.0000000000000D+00
191  1.9000000000000D+00  0.0000000000000D+00  0.0000000000000D+00
192  1.9100000000000D+00  0.0000000000000D+00  0.0000000000000D+00
193  1.9200000000000D+00  0.0000000000000D+00  0.0000000000000D+00
194  1.9300000000000D+00  0.0000000000000D+00  0.0000000000000D+00
195  1.9400000000000D+00  0.0000000000000D+00  0.0000000000000D+00
196  1.9500000000000D+00  0.0000000000000D+00  0.0000000000000D+00
197  1.9600000000000D+00  0.0000000000000D+00  0.0000000000000D+00
198  1.9700000000000D+00  0.0000000000000D+00  0.0000000000000D+00
199  1.9800000000000D+00  0.0000000000000D+00  0.0000000000000D+00
200  1.9900000000000D+00  0.0000000000000D+00  0.0000000000000D+00
201  2.0000000000000D+00  0.0000000000000D+00  0.0000000000000D+00
202  2.0100000000000D+00  0.0000000000000D+00  0.0000000000000D+00
203  2.0200000000000D+00  0.0000000000000D+00  0.0000000000000D+00
204  2.0300000000000D+00  0.0000000000000D+00  0.0000000000000D+00
205  2.0400000000000D+00  0.0000000000000D+00  0.0000000000000D+00
206  2.0500000000000D+00  0.0000000000000D+00  0.0000000000000D+00
207  2.0600000000000D+00  0.0000000000000D+00  0.0000000000000D+00
208  2.0700000000000D+00  0.0000000000000D+00  0.0000000000000D+00
209  2.0800000000000D+00  0.0000000000000D+00  0.0000000000000D+00
210  2.0900000000000D+00  0.0000000000000D+00  0.0000000000000D+00
211  2.1000000000000D+00  0.0000000000000D+00  0.0000000000000D+00
212  2.1100000000000D+00  0.0000000000000D+00  0.0000000000000D+00
213  2.1200000000000D+00  0.0000000000000D+00  0.0000000000000D+00
214  2.1300000000000D+00  0.0000000000000D+00  0.0000000000000D+00
215  2.1400000000000D+00  0.0000000000000D+00  0.0000000000000D+00
216  2.1500000000000D+00  0.0000000000000D+00  0.0000000000000D+00
217  2.1600000000000D+00  0.0000000000000D+00  0.0000000000000D+00
218  2.1700000000000D+00  0.0000000000000D+00  0.0000000000000D+00
219  2.1800000000000D+00  0.0000000000000D+00  0.0000000000000D+00
220  2.1900000000000D+00  0.0000000000000D+00  0.0000000000000D+00
221  2.2000000000000D+00  0.0000000000000D+00  0.0000000000000D+00
222  2.2100000000000D+00  0.0000000000000D+00  0.0000000000000D+00
223  2.2200000000000D+00  0.0000000000000D+00  0.0000000000000D+00
224  2.2300000000000D+00  0.0000000000000D+00  0.0000000000000D+00
225  2.2400000000000D+00  0.0000000000000D+00  0.0000000000000D+00
226  2.2500000000000D+00  0.0000000000000D+00  0.0000000000000D+00
227  2.2600000000000D+00  0.0000000000000D+00  0.0000000000000D+00
228  2.2700000000000D+00  0.0000000000000D+00  0.0000000000000D+00
229  2.2800000000000D+00  0.0000000000000D+00  0.0000000000000D+00
230  2.2900000000000D+00  0.0000000000000D+00  0.0000000000000D+00
231  2.3000000000000D+00  0.0000000000000D+00  0.0000000000000D+00
232  2.3100000000000D+00  0.0000000000000D+00  0.0000000000000D+00
233  2.3200000000000D+00  0.0000000000000D+00  0.0000000000000D+00
234  2.3300000000000D+00  0.0000000000000D+00  0.0000000000000D+00
235  2.3400000000000D+00  0.0000000000000D+00  0.0000000000000D+00
236  2.3500000000000D+00  0.0000000000000D+00  0.0000000000000D+00
237  2.3600000000000D+00  0.0000000000000D+00  0.0000000000000D+00
238  2.3700000000000D+00  0.0000000000000D+00  0.0000000000000D+00
239  2.3800000000000D+00  0.0000000000000D+00  0.0000000000000D+00
240  2.3900000000000D+00  0.0000000000000D+00  0.0000000000000D+00
241  2.4000000000000D+00  0.0000000000000D+00  0.0000000000000D+00
242  2.4100000000000D+00  0.0000000000000D+00  0.0000000000000D+00
243  2.4200000000000D+00  0.0000000000000D+00  0.0000000000000D+00
244  2.4300000000000D+00  0.0000000000000D+00  0.0000000000000D+00
245  2.4400000000000D+00  0.0000000000000D+00  0.0000000000000D+00
246  2.4500000000000D+00  0.0000000000000D+00  0.0000000000000D+00
247  2.4600000000000D+00  0.0000000000000D+00  0.0000000000000D+00
248  2.4700000000000D+00  0.0000000000000D+00  0.0000000000000D+00
249  2.4800000000000D+00  0.0000000000000D+00  0.0000000000000D+00
250  2.4900000000000D+00  0.0000000000000D+00  0.0000000000000D+00
251  2.5000000000000D+00  0.0000000000000D+00  0.0000000000000D+00
252  2.5100000000000D+00  0.0000000000000D+00  0.0000000000000D+00
253  2.5200000000000D+00  0.0000000000000D+00  0.0000000000000D+00
254  2.5300000000000D+00  0.0000000000000D+00  0.0000000000000D+00
255  2.5400000000000D+00  0.0000000000000D+00  0.0000000000000D+00
256  2.5500000000000D+00  0.0000000000000D+00  0.0000000000000D+00
257  2.5600000000000D+00  0.0000000000000D+00  0.0000000000000D+00
258  2.5700000000000D+00  0.0000000000000D+00  0.0000000000000D+00
259  2.5800000000000D+00  0.0000000000000D+00  0.0000000000000D+00
260  2.5900000000000D+00  0.0000000000000D+00  0.0000000000000D+00
261  2.6000000000000D+00  0.0000000000000D+00  0.0000000000000D+00
262  2.6100000000000D+00  0.0000000000000D+00  0.0000000000000D+00
263  2.6200000000000D+00  0.0000000000000D+00  0.0000000000000D+00
264  2.6300000000000D+00  0.0000000000000D+00  0.0000000000000D+00
265  2.6400000000000D+00  0.0000000000000D+00  0.0000000000000D+00
266  2.6500000000000D+00  0.0000000000000D+00  0.0000000000000D+00
267  2.6600000000000D+00  0.0000000000000D+00  0.0000000000000D+00
268  2.6700000000000D+00  0.0000000000000D+00  0.0000000000000D+00
269  2.6800000000000D+00  0.0000000000000D+00  0.0000000000000D+00
270  2.6900000000000D+00  0.0000000000000D+00  0.0000000000000D+00
271  2.7000000000000D+00  0.0000000000000D+00  0.0000000000000D+00
272  2.7100000000000D+00  0.0000000000000D+00  0.0000000000000D+00
273  2.7200000000000D+00  0.0000000000000D+00  0.0000000000000D+00
274  2.7300000000000D+00  0.0000000000000D+00  0.0000000000000D+00
275  2.7400000000000D+00  0.0000000000000D+00  0.0000000000000D+00
276  2.7500000000000D+00  0.0000000000000D+00  0.0000000000000D+00
277  2.7600000000000D+00  0.0000000000000D+00  0.0000000000000D+00
278  2.7700000000000D+00  0.0000000000000D+00  0.0000000000000D+00
279  2.7800000000000D+00  0.0000000000000D+00  0.0000000000000D+00
280  2.7900000000000D+00  0.0000000000000D+00  0.0000000000000D+00
281  2.8000000000000D+00  0.0000000000000D+00  0.0000000000000D+00
282  2.8100000000000D+00  0.0000000000000D+00  0.0000000000000D+00
283  2.8200000000000D+00  0.0000000000000D+00  0.0000000000000D+00
284  2.8300000000000D+00  0.0000000000000D+00  0.0000000000000D+00
285  2.8400000000000D+00  0.0000000000000D+00  0.0000000000000D+00
286  2.8500000000000D+00  0.0000000000000D+00  0.0000000000000D+00
287  2.8600000000000D+00  0.0000000000000D+00  0.0000000000000D+00
288  2.8700000000000D+00  0.0000000000000D+00  0.0000000000000D+00
289  2.8800000000000D+00  0.0000000000000D+00  0.0000000000000D+00
290  2.8900000000000D+00  0.0000000000000D+00  0.0000000000000D+00
291  2.9000000000000D+00  0.0000000000000D+00  0.0000000000000D+00
292  2.9100000000000D+00  0.0000000000000D+00  0.0000000000000D+00
293  2.9200000000000D+00  0.0000000000000D+00  0.0000000000000D+00
294  2.9300000000000D+00  0.0000000000000D+00  0.0000000000000D+00
295  2.9400000000000D+00  0.0000000000000D+00  0.0000000000000D+00
296  2.9500000000000D+00  0.0000000000000D+00  0.0000000000000D+00
297  2.9600000000000D+00  0.0000000000000D+00  0.0000000000000D+00
298  2.9700000000000D+00  0.0000000000000D+00  0.0000000000000D+00
299  2.9800000000000D+00  0.0000000000000D+00  0.0000000000000D+00
300  2.9900000000000D+00  0.0000000000000D+00  0.0000000000000D+00
301  3.0000000000000D+00  0.0000000000000D+00  0.0000000000000D+00
302  3.0100000000000D+00  0.0000000000000D+00  0.0000000000000D+00
303  3.0200000000000D+00  0.0000000000000D+00  0.0000000000000D+00
304  3.0300000000000D+00  0.0000000000000D+00  0.0000000000000D+00
305  3.0400000000000D+00  0.0000000000000D+00  0.0000000000000D+00
306  3.0500000000000D+00  0.0000000000000D+00  0.0000000000000D+00
307  3.0600000000000D+00  0.0000000000000D+00  0.0000000000000D+00
308  3.0700000000000D+00  0.0000000000000D+00  0.0000000000000D+00
309  3.0800000000000D+00  0.0000000000000D+00  0.0000000000000D+00
310  3.0900000000000D+00  0.0000000000000D+00  0.0000000000000D+00
311  3.1000000000000D+00  0.0000000000000D+00  0.0000000000000D+00
312  3.1100000000000D+00  0.0000000000000D+00  0.0000000000000D+00
313  3.1200000000000D+00  0.0000000000000D+00  0.0000000000000D+00
314  3.1300000000000D+00  0.0000000000000D+00  0.0000000000000D+00
315  3.1400000000000D+00  0.0000000000000D+00  0.0000000000000D+00
316  3.1500000000000D+00  0.0000000000000D+00  0.0000000000000D+00
317  3.1600000000000D+00  0.0000000000000D+00  0.0000000000000D+00
318  3.1700000000000D+00  0.0000000000000D+00  0.0000000000000D+00
319  3.1800000000000D+00  0.0000000000000D+00  0.0000000000000D+00
320  3.1900000000000D+00  0.0000000000000D+00  0.0000000000000D+00
321  3.2000000000000D+00  0.0000000000000D+00  0.0000000000000D+00
322  3.2100000000000D+00  0.0000000000000D+00  0.0000000000000D+00
323  3.2200000000000D+00  0.0000000000000D+00  0.0000000000000D+00
324  3.2300000000000D+00  0.0000000000000D+00  0.0000000000000D+00
325  3.2400000000000D+00  0.0000000000000D+00  0.0000000000000D+00
326  3.2500000000000D+00  0.0000000000000D+00  0.0000000000000D+00
327  3.2600000000000D+00  0.0000000000000D+00  0.0000000000000D+00
328  3.2700000000000D+00  0.0000000000000D+00  0.0000000000000D+00
329  3.2800000000000D+00  0.0000000000000D+00  0.0000000000000D+00
330  3.2900000000000D+00  0.0000000000000D+00  0.0000000000000D+00
331  3.3000000000000D+00  0.0000000000000D+00  0.0000000000000D+00
332  3.3100000000000D+00  0.0000000000000D+00  0.0000000000000D+00
333  3.3200000000000D+00  0.0000000000000D+00  0.0000000000000D+00
334  3.3300000000000D+00  0.0000000000000D+00  0.0000000000000D+00
335  3.3400000000000D+00  0.0000000000000D+00  0.0000000000000D+00
336  3.3500000000000D+00  0.0000000000000D+00  0.0000000000000D+00
337  3.3600000000000D+00  0.0000000000000D+00  0.0000000000000D+00
338  3.3700000000000D+00  0.0000000000000D+00  0.0000000000000D+00
339  3.3800000000000D+00  0.0000000000000D+00  0.0000000000000D+00
340  3.3900000000000D+00  0.0000000000000D+00  0.0000000000000D+00
341  3.4000000000000D+00  0.0000000000000D+00  0.0000000000000D+00
342  3.4100000000000D+00  0.0000000000000D+00  0.0000000000000D+00
343  3.4200000000000D+00  0.0000000000000D+00  0.0000000000000D+00
344  3.4300000000000D+00  0.0000000000000D+00  0.0000000000000D+00
345  3.4400000000000D+00  0.0000000000000D+00  0.0000000000000D+00
346  3.4500000000000D+00  0.0000000000000D+00  0.0000000000000D+00
347  3.4600000000000D+00  0.0000000000000D+00  0.0000000000000D+00
348  3.4700000000000D+00  0.0000000000000D+00  0.0000000000000D+00
349  3.4800000000000D+00  0.0000000000000D+00  0.0000000000000D+00
350  3.4900000000000D+00  0.0000000000000D+00  0.0000000000000D+00
351  3.5000000000000D+00  0.0000000000000D+00  0.0000000000000D+00
352  3.5100000000000D+00  0.0000000000000D+00  0.0000000000000D+00
353  3.5200000000000D+00  0.0000000000000D+00  0.0000000000000D+00
354  3.5300000000000D+00  0.0000000000000D+00  0.0000000000000D+00
355  3.5400000000000D+00  0.0000000000000D+00  0.0000000000000D+00
356  3.5500000000000D+00  0.0000000000000D+00  0.0000000000000D+00
357  3.5600000000000D+00  0.0000000000000D+00  0.0000000000000D+00
358  3.5700000000000D+00  0.0000000000000D+00  0.0000000000000D+00
359  3.5800000000000D+00  0.0000000000000D+00  0.0000000000000D+00
360  3.5900000000000D+00  0.0000000000000D+00  0.0000000000000D+00
361  3.6000000000000D+00  0.0000000000000D+00  0.0000000000000D+00
362  3.6100000000000D+00  0.0000000000000D+00  0.0000000000000D+00
363  3.6200000000000D+00  0.0000000000000D+00  0.0000000000000D+00
364  3.6300000000000D+00  0.0000000000000D+00  0.0000000000000D+00
365  3.6400000000000D+00  0.0000000000000D+00  0.0000000000000D+00
366  3.6500000000000D+00  0.0000000000000D+00  0.0000000000000D+00
367  3.6600000000000D+00  0.0000000000000D+00  0.0000000000000D+00
368  3.6700000000000D+00  0.0000000000000D+00  0.0000000000000D+00
369  3.6800000000000D+00  0.0000000000000D+00  0.0000000000000D+00
370  3.6900000000000D+00  0.0000000000000D+00  0.0000000000000D+00
371  3.7000000000000D+00  0.0000000000000D+00  0.0000000000000D+00
372  3.7100000000000D+00  0.0000000000000D+00  0.0000000000000D+00
373  3.7200000000000D+00  0.0000000000000D+00  0.0000000000000D+00
374  3.7300000000000D+00  0.0000000000000D+00  0.0000000000000D+00
375  3.7400000000000D+00  0.0000000000000D+00  0.0000000000000D+00
376  3.7500000000000D+00  0.0000000000000D+00  0.0000000000000D+00
377  3.7600000000000D+00  0.0000000000000D+00  0.0000000000000D+00
378  3.7700000000000D+00  0.0000000000000D+00  0.0000000000000D+00
379  3.7800000000000D+00  0.0000000000000D+00  0.0000000000000D+00
380  3.7900000000000D+00  0.0000000000000D+00  0.0000000000000D+00
381  3.8000000000000D+00  0.0000000000000D+00  0.0000000000000D+00
382  3.8100000000000D+00  0.0000000000000D+00  0.0000000000000D+00
383  3.8200000000000D+00  0.0000000000000D+00  0.0000000000000D+00
384  3.8300000000000D+00  0.0000000000000D+00  0.0000000000000D+00
385  3.8400000000000D+00  0.0000000000000D+00  0.0000000000000D+00
386  3.8500000000000D+00  0.0000000000000D+00  0.0000000000000D+00
387  3.8600000000000D+00  0.0000000000000D+00  0.0000000000000D+00
388  3.8700000000000D+00  0.0000000000000D+00  0.0000000000000D+00
389  3.8800000000000D+00  0.0000000000000D+00  0.0000000000000D+00
390  3.8900000000000D+00  0.0000000000000D+00  0.0000000000000D+00
391  3.9000000000000D+00  0.0000000000000D+00  0.0000000000000D+00
392  3.9100000000000D+00  0.0000000000000D+00  0.0000000000000D+00
393  3.9200000000000D+00  0.0000000000000D+00  0.0000000000000D+00
394  3.9300000000000D+00  0.0000000000000D+00  0.0000000000000D+00
395  3.9400000000000D+00  0.0000000000000D+00  0.0000000000000D+00
396  3.9500000000000D+00  0.0000000000000D+00  0.0000000000000D+00
397  3.9600000000000D+00  0.0000000000000D+00  0.0000000000000D+00
398  3.9700000000000D+00  0.0000000000000D+00  0.0000000000000D+00
399  3.9800000000000D+00  0.0000000000000D+00  0.0000000000000D+00
400  3.9900000000000D+00  0.0000000000000D+00  0.0000000000000D+00
401  4.0000000000000D+00  0.0000000000000D+00  0.0000000000000D+00
402  4.0100000000000D+00  0.0000000000000D+00  0.0000000000000D+00
403  4.0200000000000D+00  0.0000000000000D+00  0.0000000000000D+00
404  4.0300000000000D+00  0.0000000000000D+00  0.0000000000000D+00
405  4.0400000000000D+00  0.0000000000000D+00  0.0000000000000D+00
406  4.0500000000000D+00  0.0000000000000D+00  0.0000000000000D+00
407  4.0600000000000D+00  0.0000000000000D+00  0.0000000000000D+00
408  4.0700000000000D+00  0.0000000000000D+00  0.0000000000000D+00
409  4.0800000000000D+00  0.0000000000000D+00  0.0000000000000D+00
410  4.0900000000000D+00  0.0000000000000D+00  0.0000000000000D+00
411  4.1000000000000D+00  0.0000000000000D+00  0.0000000000000D+00
412  4.1100000000000D+00  0.0000000000000D+00  0.0000000000000D+00
413  4.1200000000000D+00  0.0000000000000D+00  0.0000000000000D+00
414  4.1300000000000D+00  0.0000000000000D+00  0.0000000000000D+00
415  4.1400000000000D+00  0.0000000000000D+00  0.0000000000000D+00
416  4.1500000000000D+00  0.0000000000000D+00  0.0000000000000D+00
417  4.1600000000000D+00  0.0000000000000D+00  0.0000000000000D+00
418  4.1700000000000D+00  0.0000000000000D+00  0.0000000000000D+00
419  4.1800000000000D+00  0.0000000000000D+00  0.0000000000000D+00
420  4.1900000000000D+00  0.0000000000000D+00  0.0000000000000D+00
421  4.2000000000000D+00  0.0000000000000D+00  0.0000000000000D+00
422  4.2100000000000D+00  0.0000000000000D+00  0.0000000000000D+00
423  4.2200000000000D+00  0.0000000000000D+00  0.0000000000000D+00
424  4.2300000000000D+00  0.0000000000000D+00  0.0000000000000D+00
425  4.2400000000000D+00  0.0000000000000D+00  0.0000000000000D+00
426  4.2500000000000D+00  0.0000000000000D+00  0.0000000000000D+00
427  4.2600000000000D+00  0.0000000000000D+00  0.0000000000000D+00
428  4.2700000000000D+00  0.0000000000000D+00  0.0000000000000D+00
429  4.2800000000000D+00  0.0000000000000D+00  0.0000000000000D+00
430  4.2900000000000D+00  0.0000000000000D+00  0.0000000000000D+00
431  4.3000000000000D+00  0.0000000000000D+00  0.0000000000000D+00
432  4.3100000000000D+00  0.0000000000000D+00  0.0000000000000D+00
433  4.3200000000000D+00  0.0000000000000D+00  0.0000000000000D+00
434  4.3300000000000D+00  0.0000000000000D+00  0.0000000000000D+00
435  4.3400000000000D+00  0.0000000000000D+00  0.0000000000000D+00
436  4.3500000000000D+00  0.0000000000000D+00  0.0000000000000D+00
437  4.3600000000000D+00  0.0000000000000D+00  0.0000000000000D+00
438  4.3700000000000D+00  0.0000000000000D+00  0.0000000000000D+00
439  4.3800000000000D+00  0.0000000000000D+00  0.0000000000000D+00
440  4.3900000000000D+00  0.0000000000000D+00  0.0000000000000D+00
441  4.4000000000000D+00  0.0000000000000D+00  0.0000000000000D+00
442  4.4100000000000D+00  0.0000000000000D+00  0.0000000000000D+00
443  4.4200000000000D+00  0.0000000000000D+00  0.0000000000000D+00