Ag    ONCVPSP  r_core=  1.41  1.47  1.61
47.0000     19.0000      160330    zatom,zion,pspd
8      11   2     4   600     0    pspcod,pspxc,lmax,lloc,mmax,r2well
5.99000000  7.00000000  0.00000000    rchrg fchrg qchrg
2     4     3     0    nproj
3                 extension_switch
4     3     0    nprojso
0                        -3.4047486439927D-01  9.5547603410983D+00
1  0.0000000000000D+00 -4.7966196570215D-09 -6.2066241035552D-11
2  1.0000000000000D-02  7.3388696849364D-02  7.8630697150088D-02
3  2.0000000000000D-02  1.4618785903113D-01  1.5707485166229D-01
4  3.0000000000000D-02  2.1781419425596D-01  2.3514649379681D-01
5  4.0000000000000D-02  2.8769681084532D-01  3.1266079733292D-01
6  5.0000000000000D-02  3.5528320891765D-01  3.8943464565150D-01
7  6.0000000000000D-02  4.2004502409965D-01  4.6528719105003D-01
8  7.0000000000000D-02  4.8148344699546D-01  5.4004040510787D-01
9  8.0000000000000D-02  5.3913424644366D-01  6.1351961798191D-01
10  9.0000000000000D-02  5.9257233045179D-01  6.8555404458855D-01
11  1.0000000000000D-01  6.4141578553491D-01  7.5597729571721D-01
12  1.1000000000000D-01  6.8532934289372D-01  8.2462787222120D-01
13  1.2000000000000D-01  7.2402722833702D-01  8.9134964054357D-01
14  1.3000000000000D-01  7.5727536195214D-01  9.5599228795584D-01
15  1.4000000000000D-01  7.8489288312205D-01  1.0184117560162D+00
16  1.5000000000000D-01  8.0675298643333D-01  1.0784706508876D+00
17  1.6000000000000D-01  8.2278306416593D-01  1.1360386292956D+00
18  1.7000000000000D-01  8.3296416125045D-01  1.1909927590462D+00
19  1.8000000000000D-01  8.3732975866848D-01  1.2432178531688D+00
20  1.9000000000000D-01  8.3596391110213D-01  1.2926067768878D+00
21  2.0000000000000D-01  8.2899877406237D-01  1.3390607267706D+00
22  2.1000000000000D-01  8.1661156459817D-01  1.3824894815322D+00
23  2.2000000000000D-01  7.9902100787399D-01  1.4228116241110D+00
24  2.3000000000000D-01  7.7648332927704D-01  1.4599547347528D+00
25  2.4000000000000D-01  7.4928785816310D-01  1.4938555549598D+00
26  2.5000000000000D-01  7.1775231477193D-01  1.5244601222681D+00
27  2.6000000000000D-01  6.8221785615409D-01  1.5517238759201D+00
28  2.7000000000000D-01  6.4304396008422D-01  1.5756117335854D+00
29  2.8000000000000D-01  6.0060322783719D-01  1.5960981393662D+00
30  2.9000000000000D-01  5.5527618734618D-01  1.6131670833910D+00
31  3.0000000000000D-01  5.0744617762742D-01  1.6268120933620D+00
32  3.1000000000000D-01  4.5749439345542D-01  1.6370361984679D+00
33  3.2000000000000D-01  4.0579516612900D-01  1.6438518661173D+00
34  3.3000000000000D-01  3.5271155182803D-01  1.6472809119754D+00
35  3.4000000000000D-01  2.9859129358719D-01  1.6473543838098D+00
36  3.5000000000000D-01  2.4376321638760D-01  1.6441124196700D+00
37  3.6000000000000D-01  1.8853410738930D-01  1.6376040809294D+00
38  3.7000000000000D-01  1.3318612500850D-01  1.6278871607278D+00
39  3.8000000000000D-01  7.7974771512759D-02  1.6150279683512D+00
40  3.9000000000000D-01  2.3127454204159D-02  1.5991010900872D+00
41  4.0000000000000D-01 -3.1157349769143D-02  1.5801891270913D+00
42  4.1000000000000D-01 -8.4710320227890D-02  1.5583824108021D+00
43  4.2000000000000D-01 -1.3739091805840D-01  1.5337786964453D+00
44  4.3000000000000D-01 -1.8908642259042D-01  1.5064828351730D+00
45  4.4000000000000D-01 -2.3971040837031D-01  1.4766064254002D+00
46  4.5000000000000D-01 -2.8920069717413D-01  1.4442674439173D+00
47  4.6000000000000D-01 -3.3751683028832D-01  1.4095898573875D+00
48  4.7000000000000D-01 -3.8463711456960D-01  1.3727032148736D+00
49  4.8000000000000D-01 -4.3055530344145D-01  1.3337422220871D+00
50  4.9000000000000D-01 -4.7527698066112D-01  1.2928462981085D+00
51  5.0000000000000D-01 -5.1881572028021D-01  1.2501591153975D+00
52  5.1000000000000D-01 -5.6118910062857D-01  1.2058281239895D+00
53  5.2000000000000D-01 -6.0241465328658D-01  1.1600040608681D+00
54  5.3000000000000D-01 -6.4250582981887D-01  1.1128404456012D+00
55  5.4000000000000D-01 -6.8146806947329D-01  1.0644930634412D+00
56  5.5000000000000D-01 -7.1929505008685D-01  1.0151194372089D+00
57  5.6000000000000D-01 -7.5596520208131D-01  9.6487828940814D-01
58  5.7000000000000D-01 -7.9143856169649D-01  9.1392899615262D-01
59  5.8000000000000D-01 -8.2565403455585D-01  8.6243103462288D-01
60  5.9000000000000D-01 -8.5852713432100D-01  8.1054342591480D-01
61  6.0000000000000D-01 -8.8994825370833D-01  7.5842417527987D-01
62  6.1000000000000D-01 -9.1978151655299D-01  7.0622971189781D-01
63  6.2000000000000D-01 -9.4786425009429D-01  6.5411433045697D-01
64  6.3000000000000D-01 -9.7400710634864D-01  6.0222963694520D-01
65  6.4000000000000D-01 -9.9799485042859D-01  5.5072400117300D-01
66  6.5000000000000D-01 -1.0195878222638D+00  4.9974201865550D-01
67  6.6000000000000D-01 -1.0385240663928D+00  4.4942398457175D-01
68  6.7000000000000D-01 -1.0545221126233D+00  3.9990538259230D-01
69  6.8000000000000D-01 -1.0672843785872D+00  3.5131639141965D-01
70  6.9000000000000D-01 -1.0765011536656D+00  3.0378141191664D-01
71  7.0000000000000D-01 -1.0818551126759D+00  2.5741861770404D-01
72  7.1000000000000D-01 -1.0830262972852D+00  2.1233953208819D-01
73  7.2000000000000D-01 -1.0796974934896D+00  1.6864863413078D-01
74  7.3000000000000D-01 -1.0715599248746D+00  1.2644299659530D-01
75  7.4000000000000D-01 -1.0583191738544D+00  8.5811958395534D-02
76  7.5000000000000D-01 -1.0397012368950D+00  4.6836834032509D-02
77  7.6000000000000D-01 -1.0154586149080D+00  9.5906623353861D-03
78  7.7000000000000D-01 -9.8537633668606D-01 -2.5862003379673D-02
79  7.8000000000000D-01 -9.4927781152812D-01 -5.9465261850829D-02
80  7.9000000000000D-01 -9.0703040710241D-01 -9.1171985490416D-02
81  8.0000000000000D-01 -8.5855065016773D-01 -1.2094389575060D-01
82  8.1000000000000D-01 -8.0380895101865D-01 -1.4875159121583D-01
83  8.2000000000000D-01 -7.4283375740994D-01 -1.7457452773936D-01
84  8.3000000000000D-01 -6.7571505020831D-01 -1.9840095029809D-01
85  8.4000000000000D-01 -6.0260710103962D-01 -2.2022777661314D-01
86  8.5000000000000D-01 -5.2373042165087D-01 -2.4006043297001D-01
87  8.6000000000000D-01 -4.3937284546224D-01 -2.5791264306772D-01
88  8.7000000000000D-01 -3.4988969370257D-01 -2.7380617112632D-01
89  8.8000000000000D-01 -2.5570299143862D-01 -2.8777052088317D-01
90  8.9000000000000D-01 -1.5729971253671D-01 -2.9984259250429D-01
91  9.0000000000000D-01 -5.5229046939845D-02 -3.1006629982469D-01
92  9.1000000000000D-01  4.9901301607887D-02 -3.1849215070471D-01
93  9.2000000000000D-01  1.5742976433256D-01 -3.2517679364441D-01
94  9.3000000000000D-01  2.6664646474112D-01 -3.3018253412954D-01
95  9.4000000000000D-01  3.7679963188283D-01 -3.3357682448665D-01
96  9.5000000000000D-01  4.8710280299083D-01 -3.3543173129414D-01
97  9.6000000000000D-01  5.9674273534184D-01 -3.3582338463533D-01
98  9.7000000000000D-01  7.0488793491054D-01 -3.3483141367139D-01
99  9.8000000000000D-01  8.1069769804085D-01 -3.3253837316598D-01
100  9.9000000000000D-01  9.1333155242754D-01 -3.2902916569908D-01
101  1.0000000000000D+00  1.0119589752783D+00 -3.2439046436593D-01
102  1.0100000000000D+00  1.1057692597550D+00 -3.1871014076462D-01
103  1.0200000000000D+00  1.1939813958924D+00 -3.1207670302981D-01
104  1.0300000000000D+00  1.2758538290893D+00 -3.0457874858343D-01
105  1.0400000000000D+00  1.3506939581509D+00 -2.9630443611655D-01
106  1.0500000000000D+00  1.4178672359017D+00 -2.8734098112577D-01
107  1.0600000000000D+00  1.4768057382547D+00 -2.7777417908149D-01
108  1.0700000000000D+00  1.5270160730548D+00 -2.6768795999596D-01
109  1.0800000000000D+00  1.5680865062731D+00 -2.5716397785289D-01
110  1.0900000000000D+00  1.5996931926293D+00 -2.4628123795181D-01
111  1.1000000000000D+00  1.6216054083465D+00 -2.3511576481236D-01
112  1.1100000000000D+00  1.6336896960004D+00 -2.2374031283818D-01
113  1.1200000000000D+00  1.6359128462162D+00 -2.1222412143583D-01
114  1.1300000000000D+00  1.6283436534727D+00 -2.0063271586786D-01
115  1.1400000000000D+00  1.6111534034200D+00 -1.8902775448411D-01
116  1.1500000000000D+00  1.5846150637293D+00 -1.7746692253342D-01
117  1.1600000000000D+00  1.5491011704407D+00 -1.6600387216715D-01
118  1.1700000000000D+00  1.5050804156974D+00 -1.5468820783741D-01
119  1.1800000000000D+00  1.4531129673991D+00 -1.4356551559863D-01
120  1.1900000000000D+00  1.3938445663604D+00 -1.3267743441298D-01
121  1.2000000000000D+00  1.3279994629044D+00 -1.2206176711380D-01
122  1.2100000000000D+00  1.2563722741161D+00 -1.1175262816667D-01
123  1.2200000000000D+00  1.1798188606468D+00 -1.0178062491496D-01
124  1.2300000000000D+00  1.0992463352446D+00 -9.2173068664914D-02
125  1.2400000000000D+00  1.0156023257935D+00 -8.2954211691345D-02
126  1.2500000000000D+00  9.2986363560553D-01 -7.4145505766322D-02
127  1.2600000000000D+00  8.4302444834758D-01 -6.5765877724029D-02
128  1.2700000000000D+00  7.5608423154315D-01 -5.7832017405780D-02
129  1.2800000000000D+00  6.7003550665504D-01 -5.0358673040718D-02
130  1.2900000000000D+00  5.8585164947174D-01 -4.3358949256958D-02
131  1.3000000000000D+00  5.0447489133258D-01 -3.6844602742405D-02
132  1.3100000000000D+00  4.2680469097637D-01 -3.0826330695002D-02
133  1.3200000000000D+00  3.5368663758465D-01 -2.5314047452349D-02
134  1.3300000000000D+00  2.8590205377717D-01 -2.0317144487201D-02
135  1.3400000000000D+00  2.2415844435068D-01 -1.5844729659661D-02
136  1.3500000000000D+00  1.6908093389315D-01 -1.1905841666408D-02
137  1.3600000000000D+00  1.2120483586305D-01 -8.5096356810860D-03
138  1.3700000000000D+00  8.0992651545249D-02 -5.6671153377296D-03
139  1.3800000000000D+00  4.8716425930290D-02 -3.3835793810580D-03
140  1.3900000000000D+00  2.4494776041550D-02 -1.6623066315629D-03
141  1.4000000000000D+00  9.2177565557940D-03 -5.6064607655574D-04
142  1.4100000000000D+00  2.1932797829815D-03 -4.7578895499863D-05
143  1.4200000000000D+00  9.0363497049952D-05  6.2534777776588D-05
144  1.4300000000000D+00 -1.7580712681607D-05  5.3409400264973D-06
145  1.4400000000000D+00  7.3033158117860D-05 -1.5848520275439D-05
146  1.4500000000000D+00 -3.0549949147013D-06  1.3006361614425D-06
147  1.4600000000000D+00 -7.3999450272401D-06  2.4463987536146D-06
148  1.4700000000000D+00 -2.2959171133481D-06 -6.8271220927193D-08
149  1.4800000000000D+00 -1.3641496194893D-06 -4.0564251866256D-08
150  1.4900000000000D+00  0.0000000000000D+00  0.0000000000000D+00
151  1.5000000000000D+00  0.0000000000000D+00  0.0000000000000D+00
152  1.5100000000000D+00  0.0000000000000D+00  0.0000000000000D+00
153  1.5200000000000D+00  0.0000000000000D+00  0.0000000000000D+00
154  1.5300000000000D+00  0.0000000000000D+00  0.0000000000000D+00
155  1.5400000000000D+00  0.0000000000000D+00  0.0000000000000D+00
156  1.5500000000000D+00  0.0000000000000D+00  0.0000000000000D+00
157  1.5600000000000D+00  0.0000000000000D+00  0.0000000000000D+00
158  1.5700000000000D+00  0.0000000000000D+00  0.0000000000000D+00
159  1.5800000000000D+00  0.0000000000000D+00  0.0000000000000D+00
160  1.5900000000000D+00  0.0000000000000D+00  0.0000000000000D+00
161  1.6000000000000D+00  0.0000000000000D+00  0.0000000000000D+00
162  1.6100000000000D+00  0.0000000000000D+00  0.0000000000000D+00
163  1.6200000000000D+00  0.0000000000000D+00  0.0000000000000D+00
164  1.6300000000000D+00  0.0000000000000D+00  0.0000000000000D+00
165  1.6400000000000D+00  0.0000000000000D+00  0.0000000000000D+00
166  1.6500000000000D+00  0.0000000000000D+00  0.0000000000000D+00
167  1.6600000000000D+00  0.0000000000000D+00  0.0000000000000D+00
168  1.6700000000000D+00  0.0000000000000D+00  0.0000000000000D+00
169  1.6800000000000D+00  0.0000000000000D+00  0.0000000000000D+00
170  1.6900000000000D+00  0.0000000000000D+00  0.0000000000000D+00
171  1.7000000000000D+00  0.0000000000000D+00  0.0000000000000D+00
172  1.7100000000000D+00  0.0000000000000D+00  0.0000000000000D+00
173  1.7200000000000D+00  0.0000000000000D+00  0.0000000000000D+00
174  1.7300000000000D+00  0.0000000000000D+00  0.0000000000000D+00
175  1.7400000000000D+00  0.0000000000000D+00  0.0000000000000D+00
176  1.7500000000000D+00  0.0000000000000D+00  0.0000000000000D+00
177  1.7600000000000D+00  0.0000000000000D+00  0.0000000000000D+00
178  1.7700000000000D+00  0.0000000000000D+00  0.0000000000000D+00
179  1.7800000000000D+00  0.0000000000000D+00  0.0000000000000D+00
180  1.7900000000000D+00  0.0000000000000D+00  0.0000000000000D+00
181  1.8000000000000D+00  0.0000000000000D+00  0.0000000000000D+00
182  1.8100000000000D+00  0.0000000000000D+00  0.0000000000000D+00
183  1.8200000000000D+00  0.0000000000000D+00  0.0000000000000D+00
184  1.8300000000000D+00  0.0000000000000D+00  0.0000000000000D+00
185  1.8400000000000D+00  0.0000000000000D+00  0.0000000000000D+00
186  1.8500000000000D+00  0.0000000000000D+00  0.0000000000000D+00
187  1.8600000000000D+00  0.0000000000000D+00  0.0000000000000D+00
188  1.8700000000000D+00  0.0000000000000D+00  0.0000000000000D+00
189  1.8800000000000D+00  0.0000000000000D+00  0.0000000000000D+00
190  1.8900000000000D+00  0.0000000000000D+00  0.0000000000000D+00
191  1.9000000000000D+00  0.0000000000000D+00  0.0000000000000D+00
192  1.9100000000000D+00  0.0000000000000D+00  0.0000000000000D+00
193  1.9200000000000D+00  0.0000000000000D+00  0.0000000000000D+00
194  1.9300000000000D+00  0.0000000000000D+00  0.0000000000000D+00
195  1.9400000000000D+00  0.0000000000000D+00  0.0000000000000D+00
196  1.9500000000000D+00  0.0000000000000D+00  0.0000000000000D+00
197  1.9600000000000D+00  0.0000000000000D+00  0.0000000000000D+00
198  1.9700000000000D+00  0.0000000000000D+00  0.0000000000000D+00
199  1.9800000000000D+00  0.0000000000000D+00  0.0000000000000D+00
200  1.9900000000000D+00  0.0000000000000D+00  0.0000000000000D+00
201  2.0000000000000D+00  0.0000000000000D+00  0.0000000000000D+00
202  2.0100000000000D+00  0.0000000000000D+00  0.0000000000000D+00
203  2.0200000000000D+00  0.0000000000000D+00  0.0000000000000D+00
204  2.0300000000000D+00  0.0000000000000D+00  0.0000000000000D+00
205  2.0400000000000D+00  0.0000000000000D+00  0.0000000000000D+00
206  2.0500000000000D+00  0.0000000000000D+00  0.0000000000000D+00
207  2.0600000000000D+00  0.0000000000000D+00  0.0000000000000D+00
208  2.0700000000000D+00  0.0000000000000D+00  0.0000000000000D+00
209  2.0800000000000D+00  0.0000000000000D+00  0.0000000000000D+00
210  2.0900000000000D+00  0.0000000000000D+00  0.0000000000000D+00
211  2.1000000000000D+00  0.0000000000000D+00  0.0000000000000D+00
212  2.1100000000000D+00  0.0000000000000D+00  0.0000000000000D+00
213  2.1200000000000D+00  0.0000000000000D+00  0.0000000000000D+00
214  2.1300000000000D+00  0.0000000000000D+00  0.0000000000000D+00
215  2.1400000000000D+00  0.0000000000000D+00  0.0000000000000D+00
216  2.1500000000000D+00  0.0000000000000D+00  0.0000000000000D+00
217  2.1600000000000D+00  0.0000000000000D+00  0.0000000000000D+00
218  2.1700000000000D+00  0.0000000000000D+00  0.0000000000000D+00
219  2.1800000000000D+00  0.0000000000000D+00  0.0000000000000D+00
220  2.1900000000000D+00  0.0000000000000D+00  0.0000000000000D+00
221  2.2000000000000D+00  0.0000000000000D+00  0.0000000000000D+00
222  2.2100000000000D+00  0.0000000000000D+00  0.0000000000000D+00
223  2.2200000000000D+00  0.0000000000000D+00  0.0000000000000D+00
224  2.2300000000000D+00  0.0000000000000D+00  0.0000000000000D+00
225  2.2400000000000D+00  0.0000000000000D+00  0.0000000000000D+00
226  2.2500000000000D+00  0.0000000000000D+00  0.0000000000000D+00
227  2.2600000000000D+00  0.0000000000000D+00  0.0000000000000D+00
228  2.2700000000000D+00  0.0000000000000D+00  0.0000000000000D+00
229  2.2800000000000D+00  0.0000000000000D+00  0.0000000000000D+00
230  2.2900000000000D+00  0.0000000000000D+00  0.0000000000000D+00
231  2.3000000000000D+00  0.0000000000000D+00  0.0000000000000D+00
232  2.3100000000000D+00  0.0000000000000D+00  0.0000000000000D+00
233  2.3200000000000D+00  0.0000000000000D+00  0.0000000000000D+00
234  2.3300000000000D+00  0.0000000000000D+00  0.0000000000000D+00
235  2.3400000000000D+00  0.0000000000000D+00  0.0000000000000D+00
236  2.3500000000000D+00  0.0000000000000D+00  0.0000000000000D+00
237  2.3600000000000D+00  0.0000000000000D+00  0.0000000000000D+00
238  2.3700000000000D+00  0.0000000000000D+00  0.0000000000000D+00
239  2.3800000000000D+00  0.0000000000000D+00  0.0000000000000D+00
240  2.3900000000000D+00  0.0000000000000D+00  0.0000000000000D+00
241  2.4000000000000D+00  0.0000000000000D+00  0.0000000000000D+00
242  2.4100000000000D+00  0.0000000000000D+00  0.0000000000000D+00
243  2.4200000000000D+00  0.0000000000000D+00  0.0000000000000D+00
244  2.4300000000000D+00  0.0000000000000D+00  0.0000000000000D+00
245  2.4400000000000D+00  0.0000000000000D+00  0.0000000000000D+00
246  2.4500000000000D+00  0.0000000000000D+00  0.0000000000000D+00
247  2.4600000000000D+00  0.0000000000000D+00  0.0000000000000D+00
248  2.4700000000000D+00  0.0000000000000D+00  0.0000000000000D+00
249  2.4800000000000D+00  0.0000000000000D+00  0.0000000000000D+00
250  2.4900000000000D+00  0.0000000000000D+00  0.0000000000000D+00
251  2.5000000000000D+00  0.0000000000000D+00  0.0000000000000D+00
252  2.5100000000000D+00  0.0000000000000D+00  0.0000000000000D+00
253  2.5200000000000D+00  0.0000000000000D+00  0.0000000000000D+00
254  2.5300000000000D+00  0.0000000000000D+00  0.0000000000000D+00
255  2.5400000000000D+00  0.0000000000000D+00  0.0000000000000D+00
256  2.5500000000000D+00  0.0000000000000D+00  0.0000000000000D+00
257  2.5600000000000D+00  0.0000000000000D+00  0.0000000000000D+00
258  2.5700000000000D+00  0.0000000000000D+00  0.0000000000000D+00
259  2.5800000000000D+00  0.0000000000000D+00  0.0000000000000D+00
260  2.5900000000000D+00  0.0000000000000D+00  0.0000000000000D+00
261  2.6000000000000D+00  0.0000000000000D+00  0.0000000000000D+00
262  2.6100000000000D+00  0.0000000000000D+00  0.0000000000000D+00
263  2.6200000000000D+00  0.0000000000000D+00  0.0000000000000D+00
264  2.6300000000000D+00  0.0000000000000D+00  0.0000000000000D+00
265  2.6400000000000D+00  0.0000000000000D+00  0.0000000000000D+00
266  2.6500000000000D+00  0.0000000000000D+00  0.0000000000000D+00
267  2.6600000000000D+00  0.0000000000000D+00  0.0000000000000D+00
268  2.6700000000000D+00  0.0000000000000D+00  0.0000000000000D+00
269  2.6800000000000D+00  0.0000000000000D+00  0.0000000000000D+00
270  2.6900000000000D+00  0.0000000000000D+00  0.0000000000000D+00
271  2.7000000000000D+00  0.0000000000000D+00  0.0000000000000D+00
272  2.7100000000000D+00  0.0000000000000D+00  0.0000000000000D+00
273  2.7200000000000D+00  0.0000000000000D+00  0.0000000000000D+00
274  2.7300000000000D+00  0.0000000000000D+00  0.0000000000000D+00
275  2.7400000000000D+00  0.0000000000000D+00  0.0000000000000D+00
276  2.7500000000000D+00  0.0000000000000D+00  0.0000000000000D+00
277  2.7600000000000D+00  0.0000000000000D+00  0.0000000000000D+00
278  2.7700000000000D+00  0.0000000000000D+00  0.0000000000000D+00
279  2.7800000000000D+00  0.0000000000000D+00  0.0000000000000D+00
280  2.7900000000000D+00  0.0000000000000D+00  0.0000000000000D+00
281  2.8000000000000D+00  0.0000000000000D+00  0.0000000000000D+00
282  2.8100000000000D+00  0.0000000000000D+00  0.0000000000000D+00
283  2.8200000000000D+00  0.0000000000000D+00  0.0000000000000D+00
284  2.8300000000000D+00  0.0000000000000D+00  0.0000000000000D+00
285  2.8400000000000D+00  0.0000000000000D+00  0.0000000000000D+00
286  2.8500000000000D+00  0.0000000000000D+00  0.0000000000000D+00
287  2.8600000000000D+00  0.0000000000000D+00  0.0000000000000D+00
288  2.8700000000000D+00  0.0000000000000D+00  0.0000000000000D+00
289  2.8800000000000D+00  0.0000000000000D+00  0.0000000000000D+00
290  2.8900000000000D+00  0.0000000000000D+00  0.0000000000000D+00
291  2.9000000000000D+00  0.0000000000000D+00  0.0000000000000D+00
292  2.9100000000000D+00  0.0000000000000D+00  0.0000000000000D+00
293  2.9200000000000D+00  0.0000000000000D+00  0.0000000000000D+00
294  2.9300000000000D+00  0.0000000000000D+00  0.0000000000000D+00
295  2.9400000000000D+00  0.0000000000000D+00  0.0000000000000D+00
296  2.9500000000000D+00  0.0000000000000D+00  0.0000000000000D+00
297  2.9600000000000D+00  0.0000000000000D+00  0.0000000000000D+00
298  2.9700000000000D+00  0.0000000000000D+00  0.0000000000000D+00
299  2.9800000000000D+00  0.0000000000000D+00  0.0000000000000D+00
300  2.9900000000000D+00  0.0000000000000D+00  0.0000000000000D+00
301  3.0000000000000D+00  0.0000000000000D+00  0.0000000000000D+00
302  3.0100000000000D+00  0.0000000000000D+00  0.0000000000000D+00
303  3.0200000000000D+00  0.0000000000000D+00  0.0000000000000D+00
304  3.0300000000000D+00  0.0000000000000D+00  0.0000000000000D+00
305  3.0400000000000D+00  0.0000000000000D+00  0.0000000000000D+00
306  3.0500000000000D+00  0.0000000000000D+00  0.0000000000000D+00
307  3.0600000000000D+00  0.0000000000000D+00  0.0000000000000D+00
308  3.0700000000000D+00  0.0000000000000D+00  0.0000000000000D+00
309  3.0800000000000D+00  0.0000000000000D+00  0.0000000000000D+00
310  3.0900000000000D+00  0.0000000000000D+00  0.0000000000000D+00
311  3.1000000000000D+00  0.0000000000000D+00  0.0000000000000D+00
312  3.1100000000000D+00  0.0000000000000D+00  0.0000000000000D+00
313  3.1200000000000D+00  0.0000000000000D+00  0.0000000000000D+00
314  3.1300000000000D+00  0.0000000000000D+00  0.0000000000000D+00
315  3.1400000000000D+00  0.0000000000000D+00  0.0000000000000D+00
316  3.1500000000000D+00  0.0000000000000D+00  0.0000000000000D+00
317  3.1600000000000D+00  0.0000000000000D+00  0.0000000000000D+00
318  3.1700000000000D+00  0.0000000000000D+00  0.0000000000000D+00
319  3.1800000000000D+00  0.0000000000000D+00  0.0000000000000D+00
320  3.1900000000000D+00  0.0000000000000D+00  0.0000000000000D+00
321  3.2000000000000D+00  0.0000000000000D+00  0.0000000000000D+00
322  3.2100000000000D+00  0.0000000000000D+00  0.0000000000000D+00
323  3.2200000000000D+00  0.0000000000000D+00  0.0000000000000D+00
324  3.2300000000000D+00  0.0000000000000D+00  0.0000000000000D+00
325  3.2400000000000D+00  0.0000000000000D+00  0.0000000000000D+00
326  3.2500000000000D+00  0.0000000000000D+00  0.0000000000000D+00
327  3.2600000000000D+00  0.0000000000000D+00  0.0000000000000D+00
328  3.2700000000000D+00  0.0000000000000D+00  0.0000000000000D+00
329  3.2800000000000D+00  0.0000000000000D+00  0.0000000000000D+00
330  3.2900000000000D+00  0.0000000000000D+00  0.0000000000000D+00
331  3.3000000000000D+00  0.0000000000000D+00  0.0000000000000D+00
332  3.3100000000000D+00  0.0000000000000D+00  0.0000000000000D+00
333  3.3200000000000D+00  0.0000000000000D+00  0.0000000000000D+00
334  3.3300000000000D+00  0.0000000000000D+00  0.0000000000000D+00
335  3.3400000000000D+00  0.0000000000000D+00  0.0000000000000D+00
336  3.3500000000000D+00  0.0000000000000D+00  0.0000000000000D+00
337  3.3600000000000D+00  0.0000000000000D+00  0.0000000000000D+00
338  3.3700000000000D+00  0.0000000000000D+00  0.0000000000000D+00
339  3.3800000000000D+00  0.0000000000000D+00  0.0000000000000D+00
340  3.3900000000000D+00  0.0000000000000D+00  0.0000000000000D+00
341  3.4000000000000D+00  0.0000000000000D+00  0.0000000000000D+00
342  3.4100000000000D+00  0.0000000000000D+00  0.0000000000000D+00
343  3.4200000000000D+00  0.0000000000000D+00  0.0000000000000D+00
344  3.4300000000000D+00  0.0000000000000D+00  0.0000000000000D+00
345  3.4400000000000D+00  0.0000000000000D+00  0.0000000000000D+00
346  3.4500000000000D+00  0.0000000000000D+00  0.0000000000000D+00
347  3.4600000000000D+00  0.0000000000000D+00  0.0000000000000D+00
348  3.4700000000000D+00  0.0000000000000D+00  0.0000000000000D+00
349  3.4800000000000D+00  0.0000000000000D+00  0.0000000000000D+00
350  3.4900000000000D+00  0.0000000000000D+00  0.0000000000000D+00
351  3.5000000000000D+00  0.0000000000000D+00  0.0000000000000D+00
352  3.5100000000000D+00  0.0000000000000D+00  0.0000000000000D+00
353  3.5200000000000D+00  0.0000000000000D+00  0.0000000000000D+00
354  3.5300000000000D+00  0.0000000000000D+00  0.0000000000000D+00
355  3.5400000000000D+00  0.0000000000000D+00  0.0000000000000D+00
356  3.5500000000000D+00  0.0000000000000D+00  0.0000000000000D+00
357  3.5600000000000D+00  0.0000000000000D+00  0.0000000000000D+00
358  3.5700000000000D+00  0.0000000000000D+00  0.0000000000000D+00
359  3.5800000000000D+00  0.0000000000000D+00  0.0000000000000D+00
360  3.5900000000000D+00  0.0000000000000D+00  0.0000000000000D+00
361  3.6000000000000D+00  0.0000000000000D+00  0.0000000000000D+00
362  3.6100000000000D+00  0.0000000000000D+00  0.0000000000000D+00
363  3.6200000000000D+00  0.0000000000000D+00  0.0000000000000D+00
364  3.6300000000000D+00  0.0000000000000D+00  0.0000000000000D+00
365  3.6400000000000D+00  0.0000000000000D+00  0.0000000000000D+00
366  3.6500000000000D+00  0.0000000000000D+00  0.0000000000000D+00
367  3.6600000000000D+00  0.0000000000000D+00  0.0000000000000D+00
368  3.6700000000000D+00  0.0000000000000D+00  0.0000000000000D+00
369  3.6800000000000D+00  0.0000000000000D+00  0.0000000000000D+00
370  3.6900000000000D+00  0.0000000000000D+00  0.0000000000000D+00
371  3.7000000000000D+00  0.0000000000000D+00  0.0000000000000D+00
372  3.7100000000000D+00  0.0000000000000D+00  0.0000000000000D+00
373  3.7200000000000D+00  0.0000000000000D+00  0.0000000000000D+00
374  3.7300000000000D+00  0.0000000000000D+00  0.0000000000000D+00
375  3.7400000000000D+00  0.0000000000000D+00  0.0000000000000D+00
376  3.7500000000000D+00  0.0000000000000D+00  0.0000000000000D+00
377  3.7600000000000D+00  0.0000000000000D+00  0.0000000000000D+00
378  3.7700000000000D+00  0.0000000000000D+00  0.0000000000000D+00
379  3.7800000000000D+00  0.0000000000000D+00  0.0000000000000D+00
380  3.7900000000000D+00  0.0000000000000D+00  0.0000000000000D+00
381  3.8000000000000D+00  0.0000000000000D+00  0.0000000000000D+00
382  3.8100000000000D+00  0.0000000000000D+00  0.0000000000000D+00
383  3.8200000000000D+00  0.0000000000000D+00  0.0000000000000D+00
384  3.8300000000000D+00  0.0000000000000D+00  0.0000000000000D+00
385  3.8400000000000D+00  0.0000000000000D+00  0.0000000000000D+00
386  3.8500000000000D+00  0.0000000000000D+00  0.0000000000000D+00
387  3.8600000000000D+00  0.0000000000000D+00  0.0000000000000D+00
388  3.8700000000000D+00  0.0000000000000D+00  0.0000000000000D+00
389  3.8800000000000D+00  0.0000000000000D+00  0.0000000000000D+00
390  3.8900000000000D+00  0.0000000000000D+00  0.0000000000000D+00
391  3.9000000000000D+00  0.0000000000000D+00  0.0000000000000D+00
392  3.9100000000000D+00  0.0000000000000D+00  0.0000000000000D+00
393  3.9200000000000D+00  0.0000000000000D+00  0.0000000000000D+00
394  3.9300000000000D+00  0.0000000000000D+00  0.0000000000000D+00
395  3.9400000000000D+00  0.0000000000000D+00  0.0000000000000D+00
396  3.9500000000000D+00  0.0000000000000D+00  0.0000000000000D+00
397  3.9600000000000D+00  0.0000000000000D+00  0.0000000000000D+00
398  3.9700000000000D+00  0.0000000000000D+00  0.0000000000000D+00
399  3.9800000000000D+00  0.0000000000000D+00  0.0000000000000D+00
400  3.9900000000000D+00  0.0000000000000D+00  0.0000000000000D+00
401  4.0000000000000D+00  0.0000000000000D+00  0.0000000000000D+00
402  4.0100000000000D+00  0.0000000000000D+00  0.0000000000000D+00
403  4.0200000000000D+00  0.0000000000000D+00  0.0000000000000D+00
404  4.0300000000000D+00  0.0000000000000D+00  0.0000000000000D+00
405  4.0400000000000D+00  0.0000000000000D+00  0.0000000000000D+00
406  4.0500000000000D+00  0.0000000000000D+00  0.0000000000000D+00
407  4.0600000000000D+00  0.0000000000000D+00  0.0000000000000D+00
408  4.0700000000000D+00  0.0000000000000D+00  0.0000000000000D+00
409  4.0800000000000D+00  0.0000000000000D+00  0.0000000000000D+00
410  4.0900000000000D+00  0.0000000000000D+00  0.0000000000000D+00
411  4.1000000000000D+00  0.0000000000000D+00  0.0000000000000D+00
412  4.1100000000000D+00  0.0000000000000D+00  0.0000000000000D+00
413  4.1200000000000D+00  0.0000000000000D+00  0.0000000000000D+00
414  4.1300000000000D+00  0.0000000000000D+00  0.0000000000000D+00
415  4.1400000000000D+00  0.0000000000000D+00  0.0000000000000D+00
416  4.1500000000000D+00  0.0000000000000D+00  0.0000000000000D+00
417  4.1600000000000D+00  0.0000000000000D+00  0.0000000000000D+00
418  4.1700000000000D+00  0.0000000000000D+00  0.0000000000000D+00
419  4.1800000000000D+00  0.0000000000000D+00  0.0000000000000D+00
420  4.1900000000000D+00  0.0000000000000D+00  0.0000000000000D+00
421  4.2000000000000D+00  0.0000000000000D+00  0.0000000000000D+00
422  4.2100000000000D+00  0.0000000000000D+00  0.0000000000000D+00
423  4.2200000000000D+00  0.0000000000000D+00  0.0000000000000D+00
424  4.2300000000000D+00  0.0000000000000D+00  0.0000000000000D+00
425  4.2400000000000D+00  0.0000000000000D+00  0.0000000000000D+00
426  4.2500000000000D+00  0.0000000000000D+00  0.0000000000000D+00
427  4.2600000000000D+00  0.0000000000000D+00  0.0000000000000D+00
428  4.2700000000000D+00  0.0000000000000D+00  0.0000000000000D+00
429  4.2800000000000D+00  0.0000000000000D+00  0.0000000000000D+00
430  4.2900000000000D+00  0.0000000000000D+00  0.0000000000000D+00
431  4.3000000000000D+00  0.0000000000000D+00  0.0000000000000D+00
432  4.3100000000000D+00  0.0000000000000D+00  0.0000000000000D+00
433  4.3200000000000D+00  0.0000000000000D+00  0.0000000000000D+00
434  4.3300000000000D+00  0.0000000000000D+00  0.0000000000000D+00
435  4.3400000000000D+00  0.0000000000000D+00  0.0000000000000D+00
436  4.3500000000000D+00  0.0000000000000D+00  0.0000000000000D+00
437  4.3600000000000D+00  0.0000000000000D+00  0.0000000000000D+00
438  4.3700000000000D+00  0.0000000000000D+00  0.0000000000000D+00
439  4.3800000000000D+00  0.0000000000000D+00  0.0000000000000D+00
440  4.3900000000000D+00  0.0000000000000D+00  0.0000000000000D+00
441  4.4000000000000D+00  0.0000000000000D+00  0.0000000000000D+00
442  4.4100000000000D+00  0.0000000000000D+00  0.0000000000000D+00
443  4.4200000000000D+00  0.0000000000000D+00  0.0000000000000D+00