Ag    ONCVPSP  r_core=  2.02  2.22  1.71
47.0000     11.0000      160330    zatom,zion,pspd
8      11   2     4   600     0    pspcod,pspxc,lmax,lloc,mmax,r2well
5.99000000  5.00000000  0.00000000    rchrg fchrg qchrg
2     4     2     0    nproj
3                 extension_switch
4     4     0    nprojso
0                         1.3562333406995D+00  8.3027362814892D+00
1  0.0000000000000D+00 -7.1198616446999D-11  5.8008098324791D-11
2  1.0000000000000D-02 -9.6470338019524D-03  1.9829577712734D-02
3  2.0000000000000D-02 -1.9295140689325D-02  3.9670619818755D-02
4  3.0000000000000D-02 -2.8945191549449D-02  5.9534383887781D-02
5  4.0000000000000D-02 -3.8597655032234D-02  7.9431715718573D-02
6  5.0000000000000D-02 -4.8252401810186D-02  9.9372848129130D-02
7  6.0000000000000D-02 -5.7908515242153D-02  1.1936720531637D-01
8  7.0000000000000D-02 -6.7564110491101D-02  1.3942321457315D-01
9  8.0000000000000D-02 -7.7216164075031D-02  1.5954812709245D-01
10  9.0000000000000D-02 -8.6860355741621D-02  1.7974784951651D-01
11  1.0000000000000D-01 -9.6490924453065D-02  2.0002678780347D-01
12  1.1000000000000D-01 -1.0610054014733D-01  2.2038770488647D-01
13  1.2000000000000D-01 -1.1568019280795D-01  2.4083159348995D-01
14  1.3000000000000D-01 -1.2521910022610D-01  2.6135756534741D-01
15  1.4000000000000D-01 -1.3470463567858D-01  2.8196275793303D-01
16  1.5000000000000D-01 -1.4412227657324D-01  3.0264225967935D-01
17  1.6000000000000D-01 -1.5345557493181D-01  3.2338905450388D-01
18  1.7000000000000D-01 -1.6268615038977D-01  3.4419398631108D-01
19  1.8000000000000D-01 -1.7179370619519D-01  3.6504574397410D-01
20  1.9000000000000D-01 -1.8075606848526D-01  3.8593086713248D-01
21  2.0000000000000D-01 -1.8954924891197D-01  4.0683377297140D-01
22  2.1000000000000D-01 -1.9814753047818D-01  4.2773680397387D-01
23  2.2000000000000D-01 -2.0652357623472D-01  4.4862029646255D-01
24  2.3000000000000D-01 -2.1464856027901D-01  4.6946266957291D-01
25  2.4000000000000D-01 -2.2249232028757D-01  4.9024053412601D-01
26  2.5000000000000D-01 -2.3002353061140D-01  5.1092882069824D-01
27  2.6000000000000D-01 -2.3720989476512D-01  5.3150092601915D-01
28  2.7000000000000D-01 -2.4401835594974D-01  5.5192887666650D-01
29  2.8000000000000D-01 -2.5041532406676D-01  5.7218350887310D-01
30  2.9000000000000D-01 -2.5636691751048D-01  5.9223466311312D-01
31  3.0000000000000D-01 -2.6183921786478D-01  6.1205139199727D-01
32  3.1000000000000D-01 -2.6679853548445D-01  6.3160217987831D-01
33  3.2000000000000D-01 -2.7121168380928D-01  6.5085517245204D-01
34  3.3000000000000D-01 -2.7504626014276D-01  6.6977841453372D-01
35  3.4000000000000D-01 -2.7827093052765D-01  6.8834009409883D-01
36  3.5000000000000D-01 -2.8085571626978D-01  7.0650879059966D-01
37  3.6000000000000D-01 -2.8277227959822D-01  7.2425372550618D-01
38  3.7000000000000D-01 -2.8399420590685D-01  7.4154501297187D-01
39  3.8000000000000D-01 -2.8449728000023D-01  7.5835390849496D-01
40  3.9000000000000D-01 -2.8425975376232D-01  7.7465305342812D-01
41  4.0000000000000D-01 -2.8326260268783D-01  7.9041671319315D-01
42  4.1000000000000D-01 -2.8148976875352D-01  8.0562100707447D-01
43  4.2000000000000D-01 -2.7892838716830D-01  8.2024412749977D-01
44  4.3000000000000D-01 -2.7556899462410D-01  8.3426654677023D-01
45  4.4000000000000D-01 -2.7140571676997D-01  8.4767120926927D-01
46  4.5000000000000D-01 -2.6643643275700D-01  8.6044370726599D-01
47  4.6000000000000D-01 -2.6066291484259D-01  8.7257243852941D-01
48  4.7000000000000D-01 -2.5409094120512D-01  8.8404874408745D-01
49  4.8000000000000D-01 -2.4673038029886D-01  8.9486702459537D-01
50  4.9000000000000D-01 -2.3859524527655D-01  9.0502483392570D-01
51  5.0000000000000D-01 -2.2970371721614D-01  9.1452294874757D-01
52  5.1000000000000D-01 -2.2007813611871D-01  9.2336541303873D-01
53  5.2000000000000D-01 -2.0974495887947D-01  9.3155955665143D-01
54  5.3000000000000D-01 -1.9873468368612D-01  9.3911598724795D-01
55  5.4000000000000D-01 -1.8708174055855D-01  9.4604855512138D-01
56  5.5000000000000D-01 -1.7482434800930D-01  9.5237429062436D-01
57  5.6000000000000D-01 -1.6200433607883D-01  9.5811331414236D-01
58  5.7000000000000D-01 -1.4866693627488D-01  9.6328871876564D-01
59  5.8000000000000D-01 -1.3486053922313D-01  9.6792642603294D-01
60  5.9000000000000D-01 -1.2063642111482D-01  9.7205501534282D-01
61  6.0000000000000D-01 -1.0604844031009D-01  9.7570552784674D-01
62  6.1000000000000D-01 -9.1152705726031D-02  9.7891124585660D-01
63  6.2000000000000D-01 -7.6007218902880D-02  9.8170744901430D-01
64  6.3000000000000D-01 -6.0671491890560D-02  9.8413114867534D-01
65  6.4000000000000D-01 -4.5206143345935D-02  9.8622080216340D-01
66  6.5000000000000D-01 -2.9672475453331D-02  9.8801600873913D-01
67  6.6000000000000D-01 -1.4132034498979D-02  9.8955718931118D-01
68  6.7000000000000D-01  1.3538418793290D-03  9.9088525208108D-01
69  6.8000000000000D-01  1.6724487564746D-02  9.9204124647275D-01
70  6.9000000000000D-01  3.1920377604533D-02  9.9306600783068D-01
71  7.0000000000000D-01  4.6883601134100D-02  9.9399979549893D-01
72  7.1000000000000D-01  6.1558333989648D-02  9.9488192699219D-01
73  7.2000000000000D-01  7.5891307330036D-02  9.9575041106031D-01
74  7.3000000000000D-01  8.9832268535272D-02  9.9664158251081D-01
75  7.4000000000000D-01  1.0333443062139D-01  9.9758974169853D-01
76  7.5000000000000D-01  1.1635490640838D-01  9.9862680161779D-01
77  7.6000000000000D-01  1.2885512371087D-01  9.9978194553062D-01
78  7.7000000000000D-01  1.4080121787744D-01  1.0010812980459D+00
79  7.8000000000000D-01  1.5216439809310D-01  1.0025476125195D+00
80  7.9000000000000D-01  1.6292128397710D-01  1.0041999775798D+00
81  8.0000000000000D-01  1.7305420915495D-01  1.0060535454934D+00
82  8.1000000000000D-01  1.8255148865785D-01  1.0081192849742D+00
83  8.2000000000000D-01  1.9140764720696D-01  1.0104037609071D+00
84  8.3000000000000D-01  1.9962360566907D-01  1.0129089433007D+00
85  8.4000000000000D-01  2.0720682322541D-01  1.0156320476108D+00
86  8.5000000000000D-01  2.1417139307562D-01  1.0185654083787D+00
87  8.6000000000000D-01  2.2053808980137D-01  1.0216963879188D+00
88  8.7000000000000D-01  2.2633436683548D-01  1.0250073215562D+00
89  8.8000000000000D-01  2.3159430282592D-01  1.0284755006716D+00
90  8.9000000000000D-01  2.3635849604031D-01  1.0320731945502D+00
91  9.0000000000000D-01  2.4067390633017D-01  1.0357677117571D+00
92  9.1000000000000D-01  2.4459364455574D-01  1.0395215014819D+00
93  9.2000000000000D-01  2.4817670976598D-01  1.0432922950014D+00
94  9.3000000000000D-01  2.5148767482644D-01  1.0470332871117D+00
95  9.4000000000000D-01  2.5459632158839D-01  1.0506933570782D+00
96  9.5000000000000D-01  2.5757722709318D-01  1.0542173283505D+00
97  9.6000000000000D-01  2.6050930270688D-01  1.0575462659800D+00
98  9.7000000000000D-01  2.6347528847033D-01  1.0606178103793D+00
99  9.8000000000000D-01  2.6656120533435D-01  1.0633665457644D+00
100  9.9000000000000D-01  2.6985576832044D-01  1.0657244013299D+00
101  1.0000000000000D+00  2.7344976400307D-01  1.0676210829280D+00
102  1.0100000000000D+00  2.7743539604903D-01  1.0689845327500D+00
103  1.0200000000000D+00  2.8190560286636D-01  1.0697414142557D+00
104  1.0300000000000D+00  2.8695335170024D-01  1.0698176193608D+00
105  1.0400000000000D+00  2.9267091379403D-01  1.0691387946612D+00
106  1.0500000000000D+00  2.9914912545945D-01  1.0676308832807D+00
107  1.0600000000000D+00  3.0647664011063D-01  1.0652206787453D+00
108  1.0700000000000D+00  3.1473917648994D-01  1.0618363871310D+00
109  1.0800000000000D+00  3.2401876844438D-01  1.0574081936084D+00
110  1.0900000000000D+00  3.3439302172170D-01  1.0518688293927D+00
111  1.1000000000000D+00  3.4593438331138D-01  1.0451541350372D+00
112  1.1100000000000D+00  3.5870942887886D-01  1.0372036159611D+00
113  1.1200000000000D+00  3.7277817381430D-01  1.0279609860876D+00
114  1.1300000000000D+00  3.8819341338210D-01  1.0173746954699D+00
115  1.1400000000000D+00  4.0500009733116D-01  1.0053984378339D+00
116  1.1500000000000D+00  4.2323474419828D-01  9.9199163403817D-01
117  1.1600000000000D+00  4.4292490032762D-01  9.7711988756876D-01
118  1.1700000000000D+00  4.6408864847884D-01  9.6075540827606D-01
119  1.1800000000000D+00  4.8673417054513D-01  9.4287740077867D-01
120  1.1900000000000D+00  5.1085936862874D-01  9.2347241413963D-01
121  1.2000000000000D+00  5.3645154842780D-01  9.0253464961038D-01
122  1.2100000000000D+00  5.6348716850131D-01  8.8006622349424D-01
123  1.2200000000000D+00  5.9193165851807D-01  8.5607738249421D-01
124  1.2300000000000D+00  6.2173930916388D-01  8.3058666920701D-01
125  1.2400000000000D+00  6.5285323612572D-01  8.0362103559768D-01
126  1.2500000000000D+00  6.8520541978006D-01  7.7521590284051D-01
127  1.2600000000000D+00  7.1871682176121D-01  7.4541516623349D-01
128  1.2700000000000D+00  7.5329757947078D-01  7.1427114396951D-01
129  1.2800000000000D+00  7.8884727845977D-01  6.8184446935069D-01
130  1.2900000000000D+00  8.2525530225925D-01  6.4820392629321D-01
131  1.3000000000000D+00  8.6240125918153D-01  6.1342622800299D-01
132  1.3100000000000D+00  9.0015548424190D-01  5.7759573969551D-01
133  1.3200000000000D+00  9.3837961418895D-01  5.4080414635997D-01
134  1.3300000000000D+00  9.7692723352326D-01  5.0315006663788D-01
135  1.3400000000000D+00  1.0156445878735D+00  4.6473861500305D-01
136  1.3500000000000D+00  1.0543713613489D+00  4.2568091425226D-01
137  1.3600000000000D+00  1.0929415139530D+00  3.8609356070190D-01
138  1.3700000000000D+00  1.1311841739183D+00  3.4609804541930D-01
139  1.3800000000000D+00  1.1689245804379D+00  3.0582013434966D-01
140  1.3900000000000D+00  1.2059850710257D+00  2.6538921113836D-01
141  1.4000000000000D+00  1.2421861074220D+00  2.2493758671932D-01
142  1.4100000000000D+00  1.2773473343536D+00  1.8459977940621D-01
143  1.4200000000000D+00  1.3112886638828D+00  1.4451177048743D-01
144  1.4300000000000D+00  1.3438313790118D+00  1.0481023958871D-01
145  1.4400000000000D+00  1.3747992491980D+00  6.5631784859531D-02
146  1.4500000000000D+00  1.4040196504942D+00  2.7112133072938D-02
147  1.4600000000000D+00  1.4313246830445D+00 -1.0614655386909D-02
148  1.4700000000000D+00  1.4565522782368D+00 -4.7416981144094D-02
149  1.4800000000000D+00  1.4795472881209D+00 -8.3166494940568D-02
150  1.4900000000000D+00  1.5001625493961D+00 -1.1773887571556D-01
151  1.5000000000000D+00  1.5182599147807D+00 -1.5101459253587D-01
152  1.5100000000000D+00  1.5337112438717D+00 -1.8287964475998D-01
153  1.5200000000000D+00  1.5463993472718D+00 -2.1322627583200D-01
154  1.5300000000000D+00  1.5562188756343D+00 -2.4195365479947D-01
155  1.5400000000000D+00  1.5630771487039D+00 -2.6896852175317D-01
156  1.5500000000000D+00  1.5668949161209D+00 -2.9418579132685D-01
157  1.5600000000000D+00  1.5676070457621D+00 -3.1752911092102D-01
158  1.5700000000000D+00  1.5651631326895D+00 -3.3893136860512D-01
159  1.5800000000000D+00  1.5595280244002D+00 -3.5833514732810D-01
160  1.5900000000000D+00  1.5506822576934D+00 -3.7569312186621D-01
161  1.6000000000000D+00  1.5386224023436D+00 -3.9096839480310D-01
162  1.6100000000000D+00  1.5233613097303D+00 -4.0413476988667D-01
163  1.6200000000000D+00  1.5049282609003D+00 -4.1517695856088D-01
164  1.6300000000000D+00  1.4833690153965D+00 -4.2409072020972D-01
165  1.6400000000000D+00  1.4587457545911D+00 -4.3088293138081D-01
166  1.6500000000000D+00  1.4311369241347D+00 -4.3557158681630D-01
167  1.6600000000000D+00  1.4006369667197D+00 -4.3818572695805D-01
168  1.6700000000000D+00  1.3673559663226D+00 -4.3876529812322D-01
169  1.6800000000000D+00  1.3314191444719D+00 -4.3736093510496D-01
170  1.6900000000000D+00  1.2929663724386D+00 -4.3403368882917D-01
171  1.7000000000000D+00  1.2521514259437D+00 -4.2885466374984D-01
172  1.7100000000000D+00  1.2091410618497D+00 -4.2190459119629D-01
173  1.7200000000000D+00  1.1641145973199D+00 -4.1327338129389D-01
174  1.7300000000000D+00  1.1172633114560D+00 -4.0305960590266D-01
175  1.7400000000000D+00  1.0687897918921D+00 -3.9136995230355D-01
176  1.7500000000000D+00  1.0189074021681D+00 -3.7831864110611D-01
177  1.7600000000000D+00  9.6783915161519D-01 -3.6402675164987D-01
178  1.7700000000000D+00  9.1581645586676D-01 -3.4862150557795D-01
179  1.7800000000000D+00  8.6307798633174D-01 -3.3223551329155D-01
180  1.7900000000000D+00  8.0986842311837D-01 -3.1500598118923D-01
181  1.8000000000000D+00  7.5643715604501D-01 -2.9707388499884D-01
182  1.8100000000000D+00  7.0303695686729D-01 -2.7858311584427D-01
183  1.8200000000000D+00  6.4992261670374D-01 -2.5967960298789D-01
184  1.8300000000000D+00  5.9734956176710D-01 -2.4051041867718D-01
185  1.8400000000000D+00  5.4557245527700D-01 -2.2122287122477D-01
186  1.8500000000000D+00  4.9484379235166D-01 -2.0196359085423D-01
187  1.8600000000000D+00  4.4541249696911D-01 -1.8287761470303D-01
188  1.8700000000000D+00  3.9752252926193D-01 -1.6410747644914D-01
189  1.8800000000000D+00  3.5141150947315D-01 -1.4579230514098D-01
190  1.8900000000000D+00  3.0730937041838D-01 -1.2806694115077D-01
191  1.9000000000000D+00  2.6543704096168D-01 -1.1106107118328D-01
192  1.9100000000000D+00  2.2600517433042D-01 -9.4898391729598D-02
193  1.9200000000000D+00  1.8921292320436D-01 -7.9695802387531D-02
194  1.9300000000000D+00  1.5524677238394D-01 -6.5562636486903D-02
195  1.9400000000000D+00  1.2427943594070D-01 -5.2599933781885D-02
196  1.9500000000000D+00  9.6468820183873D-02 -4.0899756169741D-02
197  1.9600000000000D+00  7.1977911769020D-02 -3.0553297544015D-02
198  1.9700000000000D+00  5.0884513977798D-02 -2.1612823656062D-02
199  1.9800000000000D+00  3.3229446509443D-02 -1.4111705148146D-02
200  1.9900000000000D+00  1.9244769230564D-02 -8.1599062038230D-03
201  2.0000000000000D+00  9.2236698401012D-03 -3.8891256373904D-03
202  2.0100000000000D+00  3.1312760187417D-03 -1.2896156478936D-03
203  2.0200000000000D+00  1.6613926015902D-04 -2.8258507108908D-05
204  2.0300000000000D+00 -6.4461215347976D-04  3.0341423012359D-04
205  2.0400000000000D+00 -3.4697591017398D-04  1.5794931994683D-04
206  2.0500000000000D+00  1.0110051426005D-04 -4.5674425031116D-05
207  2.0600000000000D+00  1.7742218821023D-04 -7.9689712059319D-05
208  2.0700000000000D+00  1.9924898523405D-05 -8.9198503072009D-06
209  2.0800000000000D+00 -3.2622091347097D-05  1.4837252064065D-05
210  2.0900000000000D+00 -2.1957848310467D-05  9.9596932719603D-06
211  2.1000000000000D+00  2.4433793035170D-07 -1.6883936712382D-07
212  2.1100000000000D+00  4.2087476049264D-07 -2.9082765863525D-07
213  2.1200000000000D+00  5.0258404228636D-08 -3.4728939343973D-08
214  2.1300000000000D+00  0.0000000000000D+00  0.0000000000000D+00
215  2.1400000000000D+00  0.0000000000000D+00  0.0000000000000D+00
216  2.1500000000000D+00  0.0000000000000D+00  0.0000000000000D+00
217  2.1600000000000D+00  0.0000000000000D+00  0.0000000000000D+00
218  2.1700000000000D+00  0.0000000000000D+00  0.0000000000000D+00
219  2.1800000000000D+00  0.0000000000000D+00  0.0000000000000D+00
220  2.1900000000000D+00  0.0000000000000D+00  0.0000000000000D+00
221  2.2000000000000D+00  0.0000000000000D+00  0.0000000000000D+00
222  2.2100000000000D+00  0.0000000000000D+00  0.0000000000000D+00
223  2.2200000000000D+00  0.0000000000000D+00  0.0000000000000D+00
224  2.2300000000000D+00  0.0000000000000D+00  0.0000000000000D+00
225  2.2400000000000D+00  0.0000000000000D+00  0.0000000000000D+00
226  2.2500000000000D+00  0.0000000000000D+00  0.0000000000000D+00
227  2.2600000000000D+00  0.0000000000000D+00  0.0000000000000D+00
228  2.2700000000000D+00  0.0000000000000D+00  0.0000000000000D+00
229  2.2800000000000D+00  0.0000000000000D+00  0.0000000000000D+00
230  2.2900000000000D+00  0.0000000000000D+00  0.0000000000000D+00
231  2.3000000000000D+00  0.0000000000000D+00  0.0000000000000D+00
232  2.3100000000000D+00  0.0000000000000D+00  0.0000000000000D+00
233  2.3200000000000D+00  0.0000000000000D+00  0.0000000000000D+00
234  2.3300000000000D+00  0.0000000000000D+00  0.0000000000000D+00
235  2.3400000000000D+00  0.0000000000000D+00  0.0000000000000D+00
236  2.3500000000000D+00  0.0000000000000D+00  0.0000000000000D+00
237  2.3600000000000D+00  0.0000000000000D+00  0.0000000000000D+00
238  2.3700000000000D+00  0.0000000000000D+00  0.0000000000000D+00
239  2.3800000000000D+00  0.0000000000000D+00  0.0000000000000D+00
240  2.3900000000000D+00  0.0000000000000D+00  0.0000000000000D+00
241  2.4000000000000D+00  0.0000000000000D+00  0.0000000000000D+00
242  2.4100000000000D+00  0.0000000000000D+00  0.0000000000000D+00
243  2.4200000000000D+00  0.0000000000000D+00  0.0000000000000D+00
244  2.4300000000000D+00  0.0000000000000D+00  0.0000000000000D+00
245  2.4400000000000D+00  0.0000000000000D+00  0.0000000000000D+00
246  2.4500000000000D+00  0.0000000000000D+00  0.0000000000000D+00
247  2.4600000000000D+00  0.0000000000000D+00  0.0000000000000D+00
248  2.4700000000000D+00  0.0000000000000D+00  0.0000000000000D+00
249  2.4800000000000D+00  0.0000000000000D+00  0.0000000000000D+00
250  2.4900000000000D+00  0.0000000000000D+00  0.0000000000000D+00
251  2.5000000000000D+00  0.0000000000000D+00  0.0000000000000D+00
252  2.5100000000000D+00  0.0000000000000D+00  0.0000000000000D+00
253  2.5200000000000D+00  0.0000000000000D+00  0.0000000000000D+00
254  2.5300000000000D+00  0.0000000000000D+00  0.0000000000000D+00
255  2.5400000000000D+00  0.0000000000000D+00  0.0000000000000D+00
256  2.5500000000000D+00  0.0000000000000D+00  0.0000000000000D+00
257  2.5600000000000D+00  0.0000000000000D+00  0.0000000000000D+00
258  2.5700000000000D+00  0.0000000000000D+00  0.0000000000000D+00
259  2.5800000000000D+00  0.0000000000000D+00  0.0000000000000D+00
260  2.5900000000000D+00  0.0000000000000D+00  0.0000000000000D+00
261  2.6000000000000D+00  0.0000000000000D+00  0.0000000000000D+00
262  2.6100000000000D+00  0.0000000000000D+00  0.0000000000000D+00
263  2.6200000000000D+00  0.0000000000000D+00  0.0000000000000D+00
264  2.6300000000000D+00  0.0000000000000D+00  0.0000000000000D+00
265  2.6400000000000D+00  0.0000000000000D+00  0.0000000000000D+00
266  2.6500000000000D+00  0.0000000000000D+00  0.0000000000000D+00
267  2.6600000000000D+00  0.0000000000000D+00  0.0000000000000D+00
268  2.6700000000000D+00  0.0000000000000D+00  0.0000000000000D+00
269  2.6800000000000D+00  0.0000000000000D+00  0.0000000000000D+00
270  2.6900000000000D+00  0.0000000000000D+00  0.0000000000000D+00
271  2.7000000000000D+00  0.0000000000000D+00  0.0000000000000D+00
272  2.7100000000000D+00  0.0000000000000D+00  0.0000000000000D+00
273  2.7200000000000D+00  0.0000000000000D+00  0.0000000000000D+00
274  2.7300000000000D+00  0.0000000000000D+00  0.0000000000000D+00
275  2.7400000000000D+00  0.0000000000000D+00  0.0000000000000D+00
276  2.7500000000000D+00  0.0000000000000D+00  0.0000000000000D+00
277  2.7600000000000D+00  0.0000000000000D+00  0.0000000000000D+00
278  2.7700000000000D+00  0.0000000000000D+00  0.0000000000000D+00
279  2.7800000000000D+00  0.0000000000000D+00  0.0000000000000D+00
280  2.7900000000000D+00  0.0000000000000D+00  0.0000000000000D+00
281  2.8000000000000D+00  0.0000000000000D+00  0.0000000000000D+00
282  2.8100000000000D+00  0.0000000000000D+00  0.0000000000000D+00
283  2.8200000000000D+00  0.0000000000000D+00  0.0000000000000D+00
284  2.8300000000000D+00  0.0000000000000D+00  0.0000000000000D+00
285  2.8400000000000D+00  0.0000000000000D+00  0.0000000000000D+00
286  2.8500000000000D+00  0.0000000000000D+00  0.0000000000000D+00
287  2.8600000000000D+00  0.0000000000000D+00  0.0000000000000D+00
288  2.8700000000000D+00  0.0000000000000D+00  0.0000000000000D+00
289  2.8800000000000D+00  0.0000000000000D+00  0.0000000000000D+00
290  2.8900000000000D+00  0.0000000000000D+00  0.0000000000000D+00
291  2.9000000000000D+00  0.0000000000000D+00  0.0000000000000D+00
292  2.9100000000000D+00  0.0000000000000D+00  0.0000000000000D+00
293  2.9200000000000D+00  0.0000000000000D+00  0.0000000000000D+00
294  2.9300000000000D+00  0.0000000000000D+00  0.0000000000000D+00
295  2.9400000000000D+00  0.0000000000000D+00  0.0000000000000D+00
296  2.9500000000000D+00  0.0000000000000D+00  0.0000000000000D+00
297  2.9600000000000D+00  0.0000000000000D+00  0.0000000000000D+00
298  2.9700000000000D+00  0.0000000000000D+00  0.0000000000000D+00
299  2.9800000000000D+00  0.0000000000000D+00  0.0000000000000D+00
300  2.9900000000000D+00  0.0000000000000D+00  0.0000000000000D+00
301  3.0000000000000D+00  0.0000000000000D+00  0.0000000000000D+00
302  3.0100000000000D+00  0.0000000000000D+00  0.0000000000000D+00
303  3.0200000000000D+00  0.0000000000000D+00  0.0000000000000D+00
304  3.0300000000000D+00  0.0000000000000D+00  0.0000000000000D+00
305  3.0400000000000D+00  0.0000000000000D+00  0.0000000000000D+00
306  3.0500000000000D+00  0.0000000000000D+00  0.0000000000000D+00
307  3.0600000000000D+00  0.0000000000000D+00  0.0000000000000D+00
308  3.0700000000000D+00  0.0000000000000D+00  0.0000000000000D+00
309  3.0800000000000D+00  0.0000000000000D+00  0.0000000000000D+00
310  3.0900000000000D+00  0.0000000000000D+00  0.0000000000000D+00
311  3.1000000000000D+00  0.0000000000000D+00  0.0000000000000D+00
312  3.1100000000000D+00  0.0000000000000D+00  0.0000000000000D+00
313  3.1200000000000D+00  0.0000000000000D+00  0.0000000000000D+00
314  3.1300000000000D+00  0.0000000000000D+00  0.0000000000000D+00
315  3.1400000000000D+00  0.0000000000000D+00  0.0000000000000D+00
316  3.1500000000000D+00  0.0000000000000D+00  0.0000000000000D+00
317  3.1600000000000D+00  0.0000000000000D+00  0.0000000000000D+00
318  3.1700000000000D+00  0.0000000000000D+00  0.0000000000000D+00
319  3.1800000000000D+00  0.0000000000000D+00  0.0000000000000D+00
320  3.1900000000000D+00  0.0000000000000D+00  0.0000000000000D+00
321  3.2000000000000D+00  0.0000000000000D+00  0.0000000000000D+00
322  3.2100000000000D+00  0.0000000000000D+00  0.0000000000000D+00
323  3.2200000000000D+00  0.0000000000000D+00  0.0000000000000D+00
324  3.2300000000000D+00  0.0000000000000D+00  0.0000000000000D+00
325  3.2400000000000D+00  0.0000000000000D+00  0.0000000000000D+00
326  3.2500000000000D+00  0.0000000000000D+00  0.0000000000000D+00
327  3.2600000000000D+00  0.0000000000000D+00  0.0000000000000D+00
328  3.2700000000000D+00  0.0000000000000D+00  0.0000000000000D+00
329  3.2800000000000D+00  0.0000000000000D+00  0.0000000000000D+00
330  3.2900000000000D+00  0.0000000000000D+00  0.0000000000000D+00
331  3.3000000000000D+00  0.0000000000000D+00  0.0000000000000D+00
332  3.3100000000000D+00  0.0000000000000D+00  0.0000000000000D+00
333  3.3200000000000D+00  0.0000000000000D+00  0.0000000000000D+00
334  3.3300000000000D+00  0.0000000000000D+00  0.0000000000000D+00
335  3.3400000000000D+00  0.0000000000000D+00  0.0000000000000D+00
336  3.3500000000000D+00  0.0000000000000D+00  0.0000000000000D+00
337  3.3600000000000D+00  0.0000000000000D+00  0.0000000000000D+00
338  3.3700000000000D+00  0.0000000000000D+00  0.0000000000000D+00
339  3.3800000000000D+00  0.0000000000000D+00  0.0000000000000D+00
340  3.3900000000000D+00  0.0000000000000D+00  0.0000000000000D+00
341  3.4000000000000D+00  0.0000000000000D+00  0.0000000000000D+00
342  3.4100000000000D+00  0.0000000000000D+00  0.0000000000000D+00
343  3.4200000000000D+00  0.0000000000000D+00  0.0000000000000D+00
344  3.4300000000000D+00  0.0000000000000D+00  0.0000000000000D+00
345  3.4400000000000D+00  0.0000000000000D+00  0.0000000000000D+00
346  3.4500000000000D+00  0.0000000000000D+00  0.0000000000000D+00
347  3.4600000000000D+00  0.0000000000000D+00  0.0000000000000D+00
348  3.4700000000000D+00  0.0000000000000D+00  0.0000000000000D+00
349  3.4800000000000D+00  0.0000000000000D+00  0.0000000000000D+00
350  3.4900000000000D+00  0.0000000000000D+00  0.0000000000000D+00
351  3.5000000000000D+00  0.0000000000000D+00  0.0000000000000D+00
352  3.5100000000000D+00  0.0000000000000D+00  0.0000000000000D+00
353  3.5200000000000D+00  0.0000000000000D+00  0.0000000000000D+00
354  3.5300000000000D+00  0.0000000000000D+00  0.0000000000000D+00
355  3.5400000000000D+00  0.0000000000000D+00  0.0000000000000D+00
356  3.5500000000000D+00  0.0000000000000D+00  0.0000000000000D+00
357  3.5600000000000D+00  0.0000000000000D+00  0.0000000000000D+00
358  3.5700000000000D+00  0.0000000000000D+00  0.0000000000000D+00
359  3.5800000000000D+00  0.0000000000000D+00  0.0000000000000D+00
360  3.5900000000000D+00  0.0000000000000D+00  0.0000000000000D+00
361  3.6000000000000D+00  0.0000000000000D+00  0.0000000000000D+00
362  3.6100000000000D+00  0.0000000000000D+00  0.0000000000000D+00
363  3.6200000000000D+00  0.0000000000000D+00  0.0000000000000D+00
364  3.6300000000000D+00  0.0000000000000D+00  0.0000000000000D+00
365  3.6400000000000D+00  0.0000000000000D+00  0.0000000000000D+00
366  3.6500000000000D+00  0.0000000000000D+00  0.0000000000000D+00
367  3.6600000000000D+00  0.0000000000000D+00  0.0000000000000D+00
368  3.6700000000000D+00  0.0000000000000D+00  0.0000000000000D+00
369  3.6800000000000D+00  0.0000000000000D+00  0.0000000000000D+00
370  3.6900000000000D+00  0.0000000000000D+00  0.0000000000000D+00
371  3.7000000000000D+00  0.0000000000000D+00  0.0000000000000D+00
372  3.7100000000000D+00  0.0000000000000D+00  0.0000000000000D+00
373  3.7200000000000D+00  0.0000000000000D+00  0.0000000000000D+00
374  3.7300000000000D+00  0.0000000000000D+00  0.0000000000000D+00
375  3.7400000000000D+00  0.0000000000000D+00  0.0000000000000D+00
376  3.7500000000000D+00  0.0000000000000D+00  0.0000000000000D+00
377  3.7600000000000D+00  0.0000000000000D+00  0.0000000000000D+00
378  3.7700000000000D+00  0.0000000000000D+00  0.0000000000000D+00
379  3.7800000000000D+00  0.0000000000000D+00  0.0000000000000D+00
380  3.7900000000000D+00  0.0000000000000D+00  0.0000000000000D+00
381  3.8000000000000D+00  0.0000000000000D+00  0.0000000000000D+00
382  3.8100000000000D+00  0.0000000000000D+00  0.0000000000000D+00
383  3.8200000000000D+00  0.0000000000000D+00  0.0000000000000D+00
384  3.8300000000000D+00  0.0000000000000D+00  0.0000000000000D+00
385  3.8400000000000D+00  0.0000000000000D+00  0.0000000000000D+00
386  3.8500000000000D+00  0.0000000000000D+00  0.0000000000000D+00
387  3.8600000000000D+00  0.0000000000000D+00  0.0000000000000D+00
388  3.8700000000000D+00  0.0000000000000D+00  0.0000000000000D+00
389  3.8800000000000D+00  0.0000000000000D+00  0.0000000000000D+00
390  3.8900000000000D+00  0.0000000000000D+00  0.0000000000000D+00
391  3.9000000000000D+00  0.0000000000000D+00  0.0000000000000D+00
392  3.9100000000000D+00  0.0000000000000D+00  0.0000000000000D+00
393  3.9200000000000D+00  0.0000000000000D+00  0.0000000000000D+00
394  3.9300000000000D+00  0.0000000000000D+00  0.0000000000000D+00
395  3.9400000000000D+00  0.0000000000000D+00  0.0000000000000D+00
396  3.9500000000000D+00  0.0000000000000D+00  0.0000000000000D+00
397  3.9600000000000D+00  0.0000000000000D+00  0.0000000000000D+00
398  3.9700000000000D+00  0.0000000000000D+00  0.0000000000000D+00
399  3.9800000000000D+00  0.0000000000000D+00  0.0000000000000D+00
400  3.9900000000000D+00  0.0000000000000D+00  0.0000000000000D+00
401  4.0000000000000D+00  0.0000000000000D+00  0.0000000000000D+00
402  4.0100000000000D+00  0.0000000000000D+00  0.0000000000000D+00
403  4.0200000000000D+00  0.0000000000000D+00  0.0000000000000D+00
404  4.0300000000000D+00  0.0000000000000D+00  0.0000000000000D+00
405  4.0400000000000D+00  0.0000000000000D+00  0.0000000000000D+00
406  4.0500000000000D+00  0.0000000000000D+00  0.0000000000000D+00
407  4.0600000000000D+00  0.0000000000000D+00  0.0000000000000D+00
408  4.0700000000000D+00  0.0000000000000D+00  0.0000000000000D+00
409  4.0800000000000D+00  0.0000000000000D+00  0.0000000000000D+00
410  4.0900000000000D+00  0.0000000000000D+00  0.0000000000000D+00
411  4.1000000000000D+00  0.0000000000000D+00  0.0000000000000D+00
412  4.1100000000000D+00  0.0000000000000D+00  0.0000000000000D+00
413  4.1200000000000D+00  0.0000000000000D+00  0.0000000000000D+00
414  4.1300000000000D+00  0.0000000000000D+00  0.0000000000000D+00
415  4.1400000000000D+00  0.0000000000000D+00  0.0000000000000D+00
416  4.1500000000000D+00  0.0000000000000D+00  0.0000000000000D+00
417  4.1600000000000D+00  0.0000000000000D+00  0.0000000000000D+00
418  4.1700000000000D+00  0.0000000000000D+00  0.0000000000000D+00
419  4.1800000000000D+00  0.0000000000000D+00  0.0000000000000D+00
420  4.1900000000000D+00  0.0000000000000D+00  0.0000000000000D+00
421  4.2000000000000D+00  0.0000000000000D+00  0.0000000000000D+00
422  4.2100000000000D+00  0.0000000000000D+00  0.0000000000000D+00
423  4.2200000000000D+00  0.0000000000000D+00  0.0000000000000D+00
424  4.2300000000000D+00  0.0000000000000D+00  0.0000000000000D+00
425  4.2400000000000D+00  0.0000000000000D+00  0.0000000000000D+00
426  4.2500000000000D+00  0.0000000000000D+00  0.0000000000000D+00
427  4.2600000000000D+00  0.0000000000000D+00  0.0000000000000D+00
428  4.2700000000000D+00  0.0000000000000D+00  0.0000000000000D+00
429  4.2800000000000D+00  0.0000000000000D+00  0.0000000000000D+00
430  4.2900000000000D+00  0.0000000000000D+00  0.0000000000000D+00
431  4.3000000000000D+00  0.0000000000000D+00  0.0000000000000D+00
432  4.3100000000000D+00  0.0000000000000D+00  0.0000000000000D+00
433  4.3200000000000D+00  0.0000000000000D+00  0.0000000000000D+00
434  4.3300000000000D+00  0.0000000000000D+00  0.0000000000000D+00
435  4.3400000000000D+00  0.0000000000000D+00  0.0000000000000D+00
436  4.3500000000000D+00  0.0000000000000D+00  0.0000000000000D+00
437  4.3600000000000D+00  0.0000000000000D+00  0.0000000000000D+00
438  4.3700000000000D+00  0.0000000000000D+00  0.0000000000000D+00
439  4.3800000000000D+00  0.0000000000000D+00  0.0000000000000D+00
440  4.3900000000000D+00  0.0000000000000D+00  0.0000000000000D+00
441  4.4000000000000D+00  0.0000000000000D+00  0.0000000000000D+00
442  4.4100000000000D+00  0.0000000000000D+00  0.0000000000000D+00
443  4.4200000000000D+00  0.0000000000000D+00  0.0000000000000D+00