Cd    ONCVPSP-3.2.3  r_core=   1.25838   1.30423   1.35174
48.0000     20.0000      170213    zatom,zion,pspd
8      11   2     4   600     0    pspcod,pspxc,lmax,lloc,mmax,r2well
5.99000000  6.00000000  0.00000000    rchrg fchrg qchrg
2     4     3     0    nproj
3     1           extension_switch
4     4     0    nprojso
0                         3.1384273568389D+00  3.8594564679359D+01
1  0.0000000000000D+00  1.2071349586584D-08 -5.8416110837456D-09
2  1.0000000000000D-02 -3.4076924841376D-02  1.0759547695423D-01
3  2.0000000000000D-02 -6.7587080342066D-02  2.1469471450767D-01
4  3.0000000000000D-02 -9.9972444295365D-02  3.2080633496006D-01
5  4.0000000000000D-02 -1.3069232568000D-01  4.2544860374710D-01
6  5.0000000000000D-02 -1.5923162571350D-01  5.2815405187867D-01
7  6.0000000000000D-02 -1.8510862226547D-01  6.2847386368369D-01
8  7.0000000000000D-02 -2.0788213324961D-01  7.2598195864744D-01
9  8.0000000000000D-02 -2.2715792668456D-01  8.2027870196865D-01
10  9.0000000000000D-02 -2.4259425976527D-01  9.1099418555341D-01
11  1.0000000000000D-01 -2.5390644623875D-01  9.9779102936501D-01
12  1.1000000000000D-01 -2.6087037030632D-01  1.0803666622059D+00
13  1.2000000000000D-01 -2.6332488581584D-01  1.1584550509441D+00
14  1.3000000000000D-01 -2.6117306126893D-01  1.2318278577211D+00
15  1.4000000000000D-01 -2.5438225372802D-01  1.3002950155869D+00
16  1.5000000000000D-01 -2.4298301763492D-01  1.3637047240913D+00
17  1.6000000000000D-01 -2.2706687739777D-01  1.4219428774026D+00
18  1.7000000000000D-01 -2.0678301492662D-01  1.4749319483107D+00
19  1.8000000000000D-01 -1.8233394466018D-01  1.5226293617904D+00
20  1.9000000000000D-01 -1.5397026860988D-01  1.5650254014493D+00
21  2.0000000000000D-01 -1.2198462215609D-01  1.6021407009727D+00
22  2.1000000000000D-01 -8.6704937401136D-02  1.6340233804303D+00
23  2.2000000000000D-01 -4.8487164492271D-02  1.6607458938669D+00
24  2.3000000000000D-01 -7.7076021943077D-03  1.6824016598345D+00
25  2.4000000000000D-01  3.5245003110709D-02  1.6991015503206D+00
26  2.5000000000000D-01  7.9977426062687D-02  1.7109703158066D+00
27  2.6000000000000D-01  1.2609983316421D-01  1.7181430249019D+00
28  2.7000000000000D-01  1.7323339218715D-01  1.7207615961169D+00
29  2.8000000000000D-01  2.2101746160179D-01  1.7189714968685D+00
30  2.9000000000000D-01  2.6911620979268D-01  1.7129186807998D+00
31  3.0000000000000D-01  3.1722452520794D-01  1.7027468290062D+00
32  3.1000000000000D-01  3.6507309284556D-01  1.6885949538902D+00
33  3.2000000000000D-01  4.1243252935436D-01  1.6705954162530D+00
34  3.3000000000000D-01  4.5911648820488D-01  1.6488723970146D+00
35  3.4000000000000D-01  5.0498366751248D-01  1.6235408548156D+00
36  3.5000000000000D-01  5.4993867576276D-01  1.5947059898945D+00
37  3.6000000000000D-01  5.9393173447179D-01  1.5624632232525D+00
38  3.7000000000000D-01  6.3695722124349D-01  1.5268986884544D+00
39  3.8000000000000D-01  6.7905108128672D-01  1.4880902216885D+00
40  3.9000000000000D-01  7.2028715973810D-01  1.4461088241644D+00
41  4.0000000000000D-01  7.6077253061649D-01  1.4010205597997D+00
42  4.1000000000000D-01  8.0064192043210D-01  1.3528888406642D+00
43  4.2000000000000D-01  8.4005134493247D-01  1.3017770430368D+00
44  4.3000000000000D-01  8.7917109575734D-01  1.2477513883889D+00
45  4.4000000000000D-01  9.1817822950330D-01  1.1908840163319D+00
46  4.5000000000000D-01  9.5724872451981D-01  1.1312561707170D+00
47  4.6000000000000D-01  9.9654948037463D-01  1.0689614157948D+00
48  4.7000000000000D-01  1.0362303411044D+00  1.0041087967420D+00
49  4.8000000000000D-01  1.0764163259320D+00  9.3682585802173D-01
50  4.9000000000000D-01  1.1172002499833D+00  8.6726143400666D-01
51  5.0000000000000D-01  1.1586359126416D+00  7.9558812907303D-01
52  5.1000000000000D-01  1.2007320225738D+00  7.2200440894700D-01
53  5.2000000000000D-01  1.2434470162787D+00  6.4673623137984D-01
54  5.3000000000000D-01  1.2866849114026D+00  5.7003815216799D-01
55  5.4000000000000D-01  1.3302923173281D+00  4.9219385197179D-01
56  5.5000000000000D-01  1.3740567039883D+00  4.1351604015850D-01
57  5.6000000000000D-01  1.4177060058134D+00  3.3434570384689D-01
58  5.7000000000000D-01  1.4609096117556D+00  2.5505068316636D-01
59  5.8000000000000D-01  1.5032807647330D+00  1.7602356733975D-01
60  5.9000000000000D-01  1.5443803653725D+00  9.7678920155027D-02
61  6.0000000000000D-01  1.5837221458434D+00  2.0449857602921D-02
62  6.1000000000000D-01  1.6207791508098D+00 -5.5215985547827D-02
63  6.2000000000000D-01  1.6549914341985D+00 -1.2886104973995D-01
64  6.3000000000000D-01  1.6857748536751D+00 -2.0002294176210D-01
65  6.4000000000000D-01  1.7125308194936D+00 -2.6823994751606D-01
66  6.5000000000000D-01  1.7346568316074D+00 -3.3305688006682D-01
67  6.6000000000000D-01  1.7515576190264D+00 -3.9403116724553D-01
68  6.7000000000000D-01  1.7626566786059D+00 -4.5073907526950D-01
69  6.8000000000000D-01  1.7674079974796D+00 -5.0278195895488D-01
70  6.9000000000000D-01  1.7653077342714D+00 -5.4979242515741D-01
71  7.0000000000000D-01  1.7559056293605D+00 -5.9144029424474D-01
72  7.1000000000000D-01  1.7388159140529D+00 -6.2743824477232D-01
73  7.2000000000000D-01  1.7137274925469D+00 -6.5754702911519D-01
74  7.3000000000000D-01  1.6804131791383D+00 -6.8158015262310D-01
75  7.4000000000000D-01  1.6387377859639D+00 -6.9940791579604D-01
76  7.5000000000000D-01  1.5886648738436D+00 -7.1096072807741D-01
77  7.6000000000000D-01  1.5302619998381D+00 -7.1623161281450D-01
78  7.7000000000000D-01  1.4637043199246D+00 -7.1527783571029D-01
79  7.8000000000000D-01  1.3892764331635D+00 -7.0822160340757D-01
80  7.9000000000000D-01  1.3073723844336D+00 -6.9524979448064D-01
81  8.0000000000000D-01  1.2184937757006D+00 -6.7661270178247D-01
82  8.1000000000000D-01  1.1232459702856D+00 -6.5262178252340D-01
83  8.2000000000000D-01  1.0223324099878D+00 -6.2364643027316D-01
84  8.3000000000000D-01  9.1654710066481D-01 -5.9010980102682D-01
85  8.4000000000000D-01  8.0676535721769D-01 -5.5248374316497D-01
86  8.5000000000000D-01  6.9393293313628D-01 -5.1128289821732D-01
87  8.6000000000000D-01  5.7905369228281D-01 -4.6705805552534D-01
88  8.7000000000000D-01  4.6317601068211D-01 -4.2038885882962D-01
89  8.8000000000000D-01  3.4737812317217D-01 -3.7187597619515D-01
90  8.9000000000000D-01  2.3275265326911D-01 -3.2213285624887D-01
91  9.0000000000000D-01  1.2039058403985D-01 -2.7177720320326D-01
92  9.1000000000000D-01  1.1364942633723D-02 -2.2142231032437D-01
93  9.2000000000000D-01 -9.3285518776414D-02 -1.7166839628532D-01
94  9.3000000000000D-01 -1.9257235802250D-01 -1.2309409099949D-01
95  9.4000000000000D-01 -2.8557290671083D-01 -7.6248217037656D-02
96  9.5000000000000D-01 -3.7144488126649D-01 -3.1642009551977D-02
97  9.6000000000000D-01 -4.4943987089650D-01  1.0258088227965D-02
98  9.7000000000000D-01 -5.1891544843058D-01  4.9036925319936D-02
99  9.8000000000000D-01 -5.7934567128644D-01  8.4336321466211D-02
100  9.9000000000000D-01 -6.3032976561970D-01  1.1585981928588D-01
101  1.0000000000000D+00 -6.7159881749427D-01  1.4337642128898D-01
102  1.0100000000000D+00 -7.0302032744511D-01  1.6672323945608D-01
103  1.0200000000000D+00 -7.2460052304135D-01  1.8580700445333D-01
104  1.0300000000000D+00 -7.3648436304569D-01  2.0060440126242D-01
105  1.0400000000000D+00 -7.3895320783211D-01  2.1116121873662D-01
106  1.0500000000000D+00 -7.3242017283029D-01  2.1759032182392D-01
107  1.0600000000000D+00 -7.1742322592398D-01  2.2006847743587D-01
108  1.0700000000000D+00 -6.9461612733015D-01  2.1883208386114D-01
109  1.0800000000000D+00 -6.6475735648005D-01  2.1417187674341D-01
110  1.0900000000000D+00 -6.2869720538067D-01  2.0642670219898D-01
111  1.1000000000000D+00 -5.8736325485331D-01  1.9597646617763D-01
112  1.1100000000000D+00 -5.4174448241472D-01  1.8323438539961D-01
113  1.1200000000000D+00 -4.9287427622401D-01  1.6863867805924D-01
114  1.1300000000000D+00 -4.4181265745069D-01  1.5264384646260D-01
115  1.1400000000000D+00 -3.8962802781701D-01  1.3571171095859D-01
116  1.1500000000000D+00 -3.3737877248524D-01  1.1830236120809D-01
117  1.1600000000000D+00 -2.8609505614111D-01  1.0086519465796D-01
118  1.1700000000000D+00 -2.3676115157387D-01  8.3830212753648D-02
119  1.1800000000000D+00 -1.9029863271650D-01  6.7599741710116D-02
120  1.1900000000000D+00 -1.4755075337238D-01  5.2540739233191D-02
121  1.2000000000000D+00 -1.0926832101762D-01  3.8977842608713D-02
122  1.2100000000000D+00 -7.6097346133351D-02  2.7187299021372D-02
123  1.2200000000000D+00 -4.8584723812785D-02  1.7397777647452D-02
124  1.2300000000000D+00 -2.7063328218764D-02  9.7468987405546D-03
125  1.2400000000000D+00 -1.1850623887548D-02  4.3541210903722D-03
126  1.2500000000000D+00 -3.6567829776722D-03  1.4806468210255D-03
127  1.2600000000000D+00 -7.2786589335364D-04  4.2115863184461D-04
128  1.2700000000000D+00 -3.4136550182609D-05  5.0449215407868D-05
129  1.2800000000000D+00 -5.3149287550292D-06 -1.7439733019453D-05
130  1.2900000000000D+00 -1.4344953961042D-06  1.8344071194517D-06
131  1.3000000000000D+00 -1.9923547659101D-06  3.7176385975715D-06
132  1.3100000000000D+00  2.6893454651236D-06 -1.4314870658413D-06
133  1.3200000000000D+00  0.0000000000000D+00  0.0000000000000D+00
134  1.3300000000000D+00  0.0000000000000D+00  0.0000000000000D+00
135  1.3400000000000D+00  0.0000000000000D+00  0.0000000000000D+00
136  1.3500000000000D+00  0.0000000000000D+00  0.0000000000000D+00
137  1.3600000000000D+00  0.0000000000000D+00  0.0000000000000D+00
138  1.3700000000000D+00  0.0000000000000D+00  0.0000000000000D+00
139  1.3800000000000D+00  0.0000000000000D+00  0.0000000000000D+00
140  1.3900000000000D+00  0.0000000000000D+00  0.0000000000000D+00
141  1.4000000000000D+00  0.0000000000000D+00  0.0000000000000D+00
142  1.4100000000000D+00  0.0000000000000D+00  0.0000000000000D+00
143  1.4200000000000D+00  0.0000000000000D+00  0.0000000000000D+00
144  1.4300000000000D+00  0.0000000000000D+00  0.0000000000000D+00
145  1.4400000000000D+00  0.0000000000000D+00  0.0000000000000D+00
146  1.4500000000000D+00  0.0000000000000D+00  0.0000000000000D+00
147  1.4600000000000D+00  0.0000000000000D+00  0.0000000000000D+00
148  1.4700000000000D+00  0.0000000000000D+00  0.0000000000000D+00
149  1.4800000000000D+00  0.0000000000000D+00  0.0000000000000D+00
150  1.4900000000000D+00  0.0000000000000D+00  0.0000000000000D+00
151  1.5000000000000D+00  0.0000000000000D+00  0.0000000000000D+00
152  1.5100000000000D+00  0.0000000000000D+00  0.0000000000000D+00
153  1.5200000000000D+00  0.0000000000000D+00  0.0000000000000D+00
154  1.5300000000000D+00  0.0000000000000D+00  0.0000000000000D+00
155  1.5400000000000D+00  0.0000000000000D+00  0.0000000000000D+00
156  1.5500000000000D+00  0.0000000000000D+00  0.0000000000000D+00
157  1.5600000000000D+00  0.0000000000000D+00  0.0000000000000D+00
158  1.5700000000000D+00  0.0000000000000D+00  0.0000000000000D+00
159  1.5800000000000D+00  0.0000000000000D+00  0.0000000000000D+00
160  1.5900000000000D+00  0.0000000000000D+00  0.0000000000000D+00
161  1.6000000000000D+00  0.0000000000000D+00  0.0000000000000D+00
162  1.6100000000000D+00  0.0000000000000D+00  0.0000000000000D+00
163  1.6200000000000D+00  0.0000000000000D+00  0.0000000000000D+00
164  1.6300000000000D+00  0.0000000000000D+00  0.0000000000000D+00
165  1.6400000000000D+00  0.0000000000000D+00  0.0000000000000D+00
166  1.6500000000000D+00  0.0000000000000D+00  0.0000000000000D+00
167  1.6600000000000D+00  0.0000000000000D+00  0.0000000000000D+00
168  1.6700000000000D+00  0.0000000000000D+00  0.0000000000000D+00
169  1.6800000000000D+00  0.0000000000000D+00  0.0000000000000D+00
170  1.6900000000000D+00  0.0000000000000D+00  0.0000000000000D+00
171  1.7000000000000D+00  0.0000000000000D+00  0.0000000000000D+00
172  1.7100000000000D+00  0.0000000000000D+00  0.0000000000000D+00
173  1.7200000000000D+00  0.0000000000000D+00  0.0000000000000D+00
174  1.7300000000000D+00  0.0000000000000D+00  0.0000000000000D+00
175  1.7400000000000D+00  0.0000000000000D+00  0.0000000000000D+00
176  1.7500000000000D+00  0.0000000000000D+00  0.0000000000000D+00
177  1.7600000000000D+00  0.0000000000000D+00  0.0000000000000D+00
178  1.7700000000000D+00  0.0000000000000D+00  0.0000000000000D+00
179  1.7800000000000D+00  0.0000000000000D+00  0.0000000000000D+00
180  1.7900000000000D+00  0.0000000000000D+00  0.0000000000000D+00
181  1.8000000000000D+00  0.0000000000000D+00  0.0000000000000D+00
182  1.8100000000000D+00  0.0000000000000D+00  0.0000000000000D+00
183  1.8200000000000D+00  0.0000000000000D+00  0.0000000000000D+00
184  1.8300000000000D+00  0.0000000000000D+00  0.0000000000000D+00
185  1.8400000000000D+00  0.0000000000000D+00  0.0000000000000D+00
186  1.8500000000000D+00  0.0000000000000D+00  0.0000000000000D+00
187  1.8600000000000D+00  0.0000000000000D+00  0.0000000000000D+00
188  1.8700000000000D+00  0.0000000000000D+00  0.0000000000000D+00
189  1.8800000000000D+00  0.0000000000000D+00  0.0000000000000D+00
190  1.8900000000000D+00  0.0000000000000D+00  0.0000000000000D+00
191  1.9000000000000D+00  0.0000000000000D+00  0.0000000000000D+00
192  1.9100000000000D+00  0.0000000000000D+00  0.0000000000000D+00
193  1.9200000000000D+00  0.0000000000000D+00  0.0000000000000D+00
194  1.9300000000000D+00  0.0000000000000D+00  0.0000000000000D+00
195  1.9400000000000D+00  0.0000000000000D+00  0.0000000000000D+00
196  1.9500000000000D+00  0.0000000000000D+00  0.0000000000000D+00
197  1.9600000000000D+00  0.0000000000000D+00  0.0000000000000D+00
198  1.9700000000000D+00  0.0000000000000D+00  0.0000000000000D+00
199  1.9800000000000D+00  0.0000000000000D+00  0.0000000000000D+00
200  1.9900000000000D+00  0.0000000000000D+00  0.0000000000000D+00
201  2.0000000000000D+00  0.0000000000000D+00  0.0000000000000D+00
202  2.0100000000000D+00  0.0000000000000D+00  0.0000000000000D+00
203  2.0200000000000D+00  0.0000000000000D+00  0.0000000000000D+00
204  2.0300000000000D+00  0.0000000000000D+00  0.0000000000000D+00
205  2.0400000000000D+00  0.0000000000000D+00  0.0000000000000D+00
206  2.0500000000000D+00  0.0000000000000D+00  0.0000000000000D+00
207  2.0600000000000D+00  0.0000000000000D+00  0.0000000000000D+00
208  2.0700000000000D+00  0.0000000000000D+00  0.0000000000000D+00
209  2.0800000000000D+00  0.0000000000000D+00  0.0000000000000D+00
210  2.0900000000000D+00  0.0000000000000D+00  0.0000000000000D+00
211  2.1000000000000D+00  0.0000000000000D+00  0.0000000000000D+00
212  2.1100000000000D+00  0.0000000000000D+00  0.0000000000000D+00
213  2.1200000000000D+00  0.0000000000000D+00  0.0000000000000D+00
214  2.1300000000000D+00  0.0000000000000D+00  0.0000000000000D+00
215  2.1400000000000D+00  0.0000000000000D+00  0.0000000000000D+00
216  2.1500000000000D+00  0.0000000000000D+00  0.0000000000000D+00
217  2.1600000000000D+00  0.0000000000000D+00  0.0000000000000D+00
218  2.1700000000000D+00  0.0000000000000D+00  0.0000000000000D+00
219  2.1800000000000D+00  0.0000000000000D+00  0.0000000000000D+00
220  2.1900000000000D+00  0.0000000000000D+00  0.0000000000000D+00
221  2.2000000000000D+00  0.0000000000000D+00  0.0000000000000D+00
222  2.2100000000000D+00  0.0000000000000D+00  0.0000000000000D+00
223  2.2200000000000D+00  0.0000000000000D+00  0.0000000000000D+00
224  2.2300000000000D+00  0.0000000000000D+00  0.0000000000000D+00
225  2.2400000000000D+00  0.0000000000000D+00  0.0000000000000D+00
226  2.2500000000000D+00  0.0000000000000D+00  0.0000000000000D+00
227  2.2600000000000D+00  0.0000000000000D+00  0.0000000000000D+00
228  2.2700000000000D+00  0.0000000000000D+00  0.0000000000000D+00
229  2.2800000000000D+00  0.0000000000000D+00  0.0000000000000D+00
230  2.2900000000000D+00  0.0000000000000D+00  0.0000000000000D+00
231  2.3000000000000D+00  0.0000000000000D+00  0.0000000000000D+00
232  2.3100000000000D+00  0.0000000000000D+00  0.0000000000000D+00
233  2.3200000000000D+00  0.0000000000000D+00  0.0000000000000D+00
234  2.3300000000000D+00  0.0000000000000D+00  0.0000000000000D+00
235  2.3400000000000D+00  0.0000000000000D+00  0.0000000000000D+00
236  2.3500000000000D+00  0.0000000000000D+00  0.0000000000000D+00
237  2.3600000000000D+00  0.0000000000000D+00  0.0000000000000D+00
238  2.3700000000000D+00  0.0000000000000D+00  0.0000000000000D+00
239  2.3800000000000D+00  0.0000000000000D+00  0.0000000000000D+00
240  2.3900000000000D+00  0.0000000000000D+00  0.0000000000000D+00
241  2.4000000000000D+00  0.0000000000000D+00  0.0000000000000D+00
242  2.4100000000000D+00  0.0000000000000D+00  0.0000000000000D+00
243  2.4200000000000D+00  0.0000000000000D+00  0.0000000000000D+00
244  2.4300000000000D+00  0.0000000000000D+00  0.0000000000000D+00
245  2.4400000000000D+00  0.0000000000000D+00  0.0000000000000D+00
246  2.4500000000000D+00  0.0000000000000D+00  0.0000000000000D+00
247  2.4600000000000D+00  0.0000000000000D+00  0.0000000000000D+00
248  2.4700000000000D+00  0.0000000000000D+00  0.0000000000000D+00
249  2.4800000000000D+00  0.0000000000000D+00  0.0000000000000D+00
250  2.4900000000000D+00  0.0000000000000D+00  0.0000000000000D+00
251  2.5000000000000D+00  0.0000000000000D+00  0.0000000000000D+00
252  2.5100000000000D+00  0.0000000000000D+00  0.0000000000000D+00
253  2.5200000000000D+00  0.0000000000000D+00  0.0000000000000D+00
254  2.5300000000000D+00  0.0000000000000D+00  0.0000000000000D+00
255  2.5400000000000D+00  0.0000000000000D+00  0.0000000000000D+00
256  2.5500000000000D+00  0.0000000000000D+00  0.0000000000000D+00
257  2.5600000000000D+00  0.0000000000000D+00  0.0000000000000D+00
258  2.5700000000000D+00  0.0000000000000D+00  0.0000000000000D+00
259  2.5800000000000D+00  0.0000000000000D+00  0.0000000000000D+00
260  2.5900000000000D+00  0.0000000000000D+00  0.0000000000000D+00
261  2.6000000000000D+00  0.0000000000000D+00  0.0000000000000D+00
262  2.6100000000000D+00  0.0000000000000D+00  0.0000000000000D+00
263  2.6200000000000D+00  0.0000000000000D+00  0.0000000000000D+00
264  2.6300000000000D+00  0.0000000000000D+00  0.0000000000000D+00
265  2.6400000000000D+00  0.0000000000000D+00  0.0000000000000D+00
266  2.6500000000000D+00  0.0000000000000D+00  0.0000000000000D+00
267  2.6600000000000D+00  0.0000000000000D+00  0.0000000000000D+00
268  2.6700000000000D+00  0.0000000000000D+00  0.0000000000000D+00
269  2.6800000000000D+00  0.0000000000000D+00  0.0000000000000D+00
270  2.6900000000000D+00  0.0000000000000D+00  0.0000000000000D+00
271  2.7000000000000D+00  0.0000000000000D+00  0.0000000000000D+00
272  2.7100000000000D+00  0.0000000000000D+00  0.0000000000000D+00
273  2.7200000000000D+00  0.0000000000000D+00  0.0000000000000D+00
274  2.7300000000000D+00  0.0000000000000D+00  0.0000000000000D+00
275  2.7400000000000D+00  0.0000000000000D+00  0.0000000000000D+00
276  2.7500000000000D+00  0.0000000000000D+00  0.0000000000000D+00
277  2.7600000000000D+00  0.0000000000000D+00  0.0000000000000D+00
278  2.7700000000000D+00  0.0000000000000D+00  0.0000000000000D+00
279  2.7800000000000D+00  0.0000000000000D+00  0.0000000000000D+00
280  2.7900000000000D+00  0.0000000000000D+00  0.0000000000000D+00
281  2.8000000000000D+00  0.0000000000000D+00  0.0000000000000D+00
282  2.8100000000000D+00  0.0000000000000D+00  0.0000000000000D+00
283  2.8200000000000D+00  0.0000000000000D+00  0.0000000000000D+00
284  2.8300000000000D+00  0.0000000000000D+00  0.0000000000000D+00
285  2.8400000000000D+00  0.0000000000000D+00  0.0000000000000D+00
286  2.8500000000000D+00  0.0000000000000D+00  0.0000000000000D+00
287  2.8600000000000D+00  0.0000000000000D+00  0.0000000000000D+00
288  2.8700000000000D+00  0.0000000000000D+00  0.0000000000000D+00
289  2.8800000000000D+00  0.0000000000000D+00  0.0000000000000D+00
290  2.8900000000000D+00  0.0000000000000D+00  0.0000000000000D+00
291  2.9000000000000D+00  0.0000000000000D+00  0.0000000000000D+00
292  2.9100000000000D+00  0.0000000000000D+00  0.0000000000000D+00
293  2.9200000000000D+00  0.0000000000000D+00  0.0000000000000D+00
294  2.9300000000000D+00  0.0000000000000D+00  0.0000000000000D+00
295  2.9400000000000D+00  0.0000000000000D+00  0.0000000000000D+00
296  2.9500000000000D+00  0.0000000000000D+00  0.0000000000000D+00
297  2.9600000000000D+00  0.0000000000000D+00  0.0000000000000D+00
298  2.9700000000000D+00  0.0000000000000D+00  0.0000000000000D+00
299  2.9800000000000D+00  0.0000000000000D+00  0.0000000000000D+00
300  2.9900000000000D+00  0.0000000000000D+00  0.0000000000000D+00
301  3.0000000000000D+00  0.0000000000000D+00  0.0000000000000D+00
302  3.0100000000000D+00  0.0000000000000D+00  0.0000000000000D+00
303  3.0200000000000D+00  0.0000000000000D+00  0.0000000000000D+00
304  3.0300000000000D+00  0.0000000000000D+00  0.0000000000000D+00
305  3.0400000000000D+00  0.0000000000000D+00  0.0000000000000D+00
306  3.0500000000000D+00  0.0000000000000D+00  0.0000000000000D+00
307  3.0600000000000D+00  0.0000000000000D+00  0.0000000000000D+00
308  3.0700000000000D+00  0.0000000000000D+00  0.0000000000000D+00
309  3.0800000000000D+00  0.0000000000000D+00  0.0000000000000D+00
310  3.0900000000000D+00  0.0000000000000D+00  0.0000000000000D+00
311  3.1000000000000D+00  0.0000000000000D+00  0.0000000000000D+00
312  3.1100000000000D+00  0.0000000000000D+00  0.0000000000000D+00
313  3.1200000000000D+00  0.0000000000000D+00  0.0000000000000D+00
314  3.1300000000000D+00  0.0000000000000D+00  0.0000000000000D+00
315  3.1400000000000D+00  0.0000000000000D+00  0.0000000000000D+00
316  3.1500000000000D+00  0.0000000000000D+00  0.0000000000000D+00
317  3.1600000000000D+00  0.0000000000000D+00  0.0000000000000D+00
318  3.1700000000000D+00  0.0000000000000D+00  0.0000000000000D+00
319  3.1800000000000D+00  0.0000000000000D+00  0.0000000000000D+00
320  3.1900000000000D+00  0.0000000000000D+00  0.0000000000000D+00
321  3.2000000000000D+00  0.0000000000000D+00  0.0000000000000D+00
322  3.2100000000000D+00  0.0000000000000D+00  0.0000000000000D+00
323  3.2200000000000D+00  0.0000000000000D+00  0.0000000000000D+00
324  3.2300000000000D+00  0.0000000000000D+00  0.0000000000000D+00
325  3.2400000000000D+00  0.0000000000000D+00  0.0000000000000D+00
326  3.2500000000000D+00  0.0000000000000D+00  0.0000000000000D+00
327  3.2600000000000D+00  0.0000000000000D+00  0.0000000000000D+00
328  3.2700000000000D+00  0.0000000000000D+00  0.0000000000000D+00
329  3.2800000000000D+00  0.0000000000000D+00  0.0000000000000D+00
330  3.2900000000000D+00  0.0000000000000D+00  0.0000000000000D+00
331  3.3000000000000D+00  0.0000000000000D+00  0.0000000000000D+00
332  3.3100000000000D+00  0.0000000000000D+00  0.0000000000000D+00
333  3.3200000000000D+00  0.0000000000000D+00  0.0000000000000D+00
334  3.3300000000000D+00  0.0000000000000D+00  0.0000000000000D+00
335  3.3400000000000D+00  0.0000000000000D+00  0.0000000000000D+00
336  3.3500000000000D+00  0.0000000000000D+00  0.0000000000000D+00
337  3.3600000000000D+00  0.0000000000000D+00  0.0000000000000D+00
338  3.3700000000000D+00  0.0000000000000D+00  0.0000000000000D+00
339  3.3800000000000D+00  0.0000000000000D+00  0.0000000000000D+00
340  3.3900000000000D+00  0.0000000000000D+00  0.0000000000000D+00
341  3.4000000000000D+00  0.0000000000000D+00  0.0000000000000D+00
342  3.4100000000000D+00  0.0000000000000D+00  0.0000000000000D+00
343  3.4200000000000D+00  0.0000000000000D+00  0.0000000000000D+00
344  3.4300000000000D+00  0.0000000000000D+00  0.0000000000000D+00
345  3.4400000000000D+00  0.0000000000000D+00  0.0000000000000D+00
346  3.4500000000000D+00  0.0000000000000D+00  0.0000000000000D+00
347  3.4600000000000D+00  0.0000000000000D+00  0.0000000000000D+00
348  3.4700000000000D+00  0.0000000000000D+00  0.0000000000000D+00
349  3.4800000000000D+00  0.0000000000000D+00  0.0000000000000D+00
350  3.4900000000000D+00  0.0000000000000D+00  0.0000000000000D+00
351  3.5000000000000D+00  0.0000000000000D+00  0.0000000000000D+00
352  3.5100000000000D+00  0.0000000000000D+00  0.0000000000000D+00
353  3.5200000000000D+00  0.0000000000000D+00  0.0000000000000D+00
354  3.5300000000000D+00  0.0000000000000D+00  0.0000000000000D+00
355  3.5400000000000D+00  0.0000000000000D+00  0.0000000000000D+00
356  3.5500000000000D+00  0.0000000000000D+00  0.0000000000000D+00
357  3.5600000000000D+00  0.0000000000000D+00  0.0000000000000D+00
358  3.5700000000000D+00  0.0000000000000D+00  0.0000000000000D+00
359  3.5800000000000D+00  0.0000000000000D+00  0.0000000000000D+00
360  3.5900000000000D+00  0.0000000000000D+00  0.0000000000000D+00
361  3.6000000000000D+00  0.0000000000000D+00  0.0000000000000D+00
362  3.6100000000000D+00  0.0000000000000D+00  0.0000000000000D+00
363  3.6200000000000D+00  0.0000000000000D+00  0.0000000000000D+00
364  3.6300000000000D+00  0.0000000000000D+00  0.0000000000000D+00
365  3.6400000000000D+00  0.0000000000000D+00  0.0000000000000D+00
366  3.6500000000000D+00  0.0000000000000D+00  0.0000000000000D+00
367  3.6600000000000D+00  0.0000000000000D+00  0.0000000000000D+00
368  3.6700000000000D+00  0.0000000000000D+00  0.0000000000000D+00
369  3.6800000000000D+00  0.0000000000000D+00  0.0000000000000D+00
370  3.6900000000000D+00  0.0000000000000D+00  0.0000000000000D+00
371  3.7000000000000D+00  0.0000000000000D+00  0.0000000000000D+00
372  3.7100000000000D+00  0.0000000000000D+00  0.0000000000000D+00
373  3.7200000000000D+00  0.0000000000000D+00  0.0000000000000D+00
374  3.7300000000000D+00  0.0000000000000D+00  0.0000000000000D+00
375  3.7400000000000D+00  0.0000000000000D+00  0.0000000000000D+00
376  3.7500000000000D+00  0.0000000000000D+00  0.0000000000000D+00
377  3.7600000000000D+00  0.0000000000000D+00  0.0000000000000D+00
378  3.7700000000000D+00  0.0000000000000D+00  0.0000000000000D+00
379  3.7800000000000D+00  0.0000000000000D+00  0.0000000000000D+00
380  3.7900000000000D+00  0.0000000000000D+00  0.0000000000000D+00
381  3.8000000000000D+00  0.0000000000000D+00  0.0000000000000D+00
382  3.8100000000000D+00  0.0000000000000D+00  0.0000000000000D+00
383  3.8200000000000D+00  0.0000000000000D+00  0.0000000000000D+00
384  3.8300000000000D+00  0.0000000000000D+00  0.0000000000000D+00
385  3.8400000000000D+00  0.0000000000000D+00  0.0000000000000D+00
386  3.8500000000000D+00  0.0000000000000D+00  0.0000000000000D+00
387  3.8600000000000D+00  0.0000000000000D+00  0.0000000000000D+00
388  3.8700000000000D+00  0.0000000000000D+00  0.0000000000000D+00
389  3.8800000000000D+00  0.0000000000000D+00  0.0000000000000D+00
390  3.8900000000000D+00  0.0000000000000D+00  0.0000000000000D+00
391  3.9000000000000D+00  0.0000000000000D+00  0.0000000000000D+00
392  3.9100000000000D+00  0.0000000000000D+00  0.0000000000000D+00
393  3.9200000000000D+00  0.0000000000000D+00  0.0000000000000D+00
394  3.9300000000000D+00  0.0000000000000D+00  0.0000000000000D+00
395  3.9400000000000D+00  0.0000000000000D+00  0.0000000000000D+00
396  3.9500000000000D+00  0.0000000000000D+00  0.0000000000000D+00
397  3.9600000000000D+00  0.0000000000000D+00  0.0000000000000D+00
398  3.9700000000000D+00  0.0000000000000D+00  0.0000000000000D+00
399  3.9800000000000D+00  0.0000000000000D+00  0.0000000000000D+00
400  3.9900000000000D+00  0.0000000000000D+00  0.0000000000000D+00
401  4.0000000000000D+00  0.0000000000000D+00  0.0000000000000D+00
402  4.0100000000000D+00  0.0000000000000D+00  0.0000000000000D+00
403  4.0200000000000D+00  0.0000000000000D+00  0.0000000000000D+00
404  4.0300000000000D+00  0.0000000000000D+00  0.0000000000000D+00
405  4.0400000000000D+00  0.0000000000000D+00  0.0000000000000D+00
406  4.0500000000000D+00  0.0000000000000D+00  0.0000000000000D+00
407  4.0600000000000D+00  0.0000000000000D+00  0.0000000000000D+00
408  4.0700000000000D+00  0.0000000000000D+00  0.0000000000000D+00
409  4.0800000000000D+00  0.0000000000000D+00  0.0000000000000D+00
410  4.0900000000000D+00  0.0000000000000D+00  0.0000000000000D+00
411  4.1000000000000D+00  0.0000000000000D+00  0.0000000000000D+00
412  4.1100000000000D+00  0.0000000000000D+00  0.0000000000000D+00
413  4.1200000000000D+00  0.0000000000000D+00  0.0000000000000D+00
414  4.1300000000000D+00  0.0000000000000D+00  0.0000000000000D+00
415  4.1400000000000D+00  0.0000000000000D+00  0.0000000000000D+00
416  4.1500000000000D+00  0.0000000000000D+00  0.0000000000000D+00
417  4.1600000000000D+00  0.0000000000000D+00  0.0000000000000D+00
418  4.1700000000000D+00  0.0000000000000D+00  0.0000000000000D+00
419  4.1800000000000D+00  0.0000000000000D+00  0.0000000000000D+00
420  4.1900000000000D+00  0.0000000000000D+00  0.0000000000000D+00
421  4.2000000000000D+00  0.0000000000000D+00  0.0000000000000D+00
422  4.2100000000000D+00  0.0000000000000D+00  0.0000000000000D+00
423  4.2200000000000D+00  0.0000000000000D+00  0.0000000000000D+00
424  4.2300000000000D+00  0.0000000000000D+00  0.0000000000000D+00
425  4.2400000000000D+00  0.0000000000000D+00  0.0000000000000D+00
426  4.2500000000000D+00  0.0000000000000D+00  0.0000000000000D+00
427  4.2600000000000D+00  0.0000000000000D+00  0.0000000000000D+00
428  4.2700000000000D+00  0.0000000000000D+00  0.0000000000000D+00
429  4.2800000000000D+00  0.0000000000000D+00  0.0000000000000D+00
430  4.2900000000000D+00  0.0000000000000D+00  0.0000000000000D+00
431  4.3000000000000D+00  0.0000000000000D+00  0.0000000000000D+00
432  4.3100000000000D+00  0.0000000000000D+00  0.0000000000000D+00
433  4.3200000000000D+00  0.0000000000000D+00  0.0000000000000D+00
434  4.3300000000000D+00  0.0000000000000D+00  0.0000000000000D+00
435  4.3400000000000D+00  0.0000000000000D+00  0.0000000000000D+00
436  4.3500000000000D+00  0.0000000000000D+00  0.0000000000000D+00
437  4.3600000000000D+00  0.0000000000000D+00  0.0000000000000D+00
438  4.3700000000000D+00  0.0000000000000D+00  0.0000000000000D+00
439  4.3800000000000D+00  0.0000000000000D+00  0.0000000000000D+00
440  4.3900000000000D+00  0.0000000000000D+00  0.0000000000000D+00
441  4.4000000000000D+00  0.0000000000000D+00  0.0000000000000D+00
442  4.4100000000000D+00  0.0000000000000D+00  0.0000000000000D+00
443  4.4200000000000D+00  0.0000000000000D+00  0.0000000000000D+00