I     ONCVPSP  r_core=  1.41  1.41  1.41
53.0000     25.0000      161219    zatom,zion,pspd
8 -116133   2     4   600     0    pspcod,pspxc,lmax,lloc,mmax,r2well
5.99000000  5.00000000  0.00000000    rchrg fchrg qchrg
2     2     2     0     0    nproj
1                 extension_switch
0                         1.1563023645179D+01  1.8169831040406D+00
1  0.0000000000000D+00 -5.3415150080838D-10  1.2503147683862D-09
2  1.0000000000000D-02  9.4313301812036D-02 -1.7927769709631D-02
3  2.0000000000000D-02  1.8831693005782D-01 -3.5612911736065D-02
4  3.0000000000000D-02  2.8170266215450D-01 -5.2814838763841D-02
5  4.0000000000000D-02  3.7416516607149D-01 -6.9297020812918D-02
6  5.0000000000000D-02  4.6540341720873D-01 -8.4828955730007D-02
7  6.0000000000000D-02  5.5512208158250D-01 -9.9188070770314D-02
8  7.0000000000000D-02  6.4303285472426D-01 -1.1216153378972D-01
9  8.0000000000000D-02  7.2885574623225D-01 -1.2354795381775D-01
10  9.0000000000000D-02  8.1232030056917D-01 -1.3315895231145D-01
11  1.0000000000000D-01  8.9316674546405D-01 -1.4082058817802D-01
12  1.1000000000000D-01  9.7114706014106D-01 -1.4637462167491D-01
13  1.2000000000000D-01  1.0460259565512D+00 -1.4967960452098D-01
14  1.3000000000000D-01  1.1175817678106D+00 -1.5061178595060D-01
15  1.4000000000000D-01  1.1856072391393D+00 -1.4906582697917D-01
16  1.5000000000000D-01  1.2499102177273D+00 -1.4495531778832D-01
17  1.6000000000000D-01  1.3103142391215D+00 -1.3821309584281D-01
18  1.7000000000000D-01  1.3666590089034D+00 -1.2879136508149D-01
19  1.8000000000000D-01  1.4188007796048D+00 -1.1666161924002D-01
20  1.9000000000000D-01  1.4666126239619D+00 -1.0181437502540D-01
21  2.0000000000000D-01  1.5099846067307D+00 -8.4258723431060D-02
22  2.1000000000000D-01  1.5488238583519D+00 -6.4021709918939D-02
23  2.2000000000000D-01  1.5830545547558D+00 -4.1147556464110D-02
24  2.3000000000000D-01  1.6126178085153D+00 -1.5696740524635D-02
25  2.4000000000000D-01  1.6374714773812D+00  1.2255052169017D-02
26  2.5000000000000D-01  1.6575898969478D+00  4.2618082541726D-02
27  2.6000000000000D-01  1.6729635448007D+00  7.5289801075545D-02
28  2.7000000000000D-01  1.6835986439703D+00  1.1015615797227D-01
29  2.8000000000000D-01  1.6895167138557D+00  1.4709295922004D-01
30  2.9000000000000D-01  1.6907540769882D+00  1.8596724690215D-01
31  3.0000000000000D-01  1.6873613300654D+00  2.2663868212727D-01
32  3.1000000000000D-01  1.6794027876089D+00  2.6896090934870D-01
33  3.2000000000000D-01  1.6669559063807D+00  3.1278288157291D-01
34  3.3000000000000D-01  1.6501106983393D+00  3.5795012702550D-01
35  3.4000000000000D-01  1.6289691394319D+00  4.0430593923238D-01
36  3.5000000000000D-01  1.6036445809172D+00  4.5169247416487D-01
37  3.6000000000000D-01  1.5742611691912D+00  4.9995174006640D-01
38  3.7000000000000D-01  1.5409532792804D+00  5.4892646779601D-01
39  3.8000000000000D-01  1.5038649662582D+00  5.9846085195531D-01
40  3.9000000000000D-01  1.4631494378779D+00  6.4840115567580D-01
41  4.0000000000000D-01  1.4189685506900D+00  6.9859617468870D-01
42  4.1000000000000D-01  1.3714923308558D+00  7.4889755913732D-01
43  4.2000000000000D-01  1.3208985198029D+00  7.9915999447616D-01
44  4.3000000000000D-01  1.2673721437983D+00  8.4924124568289D-01
45  4.4000000000000D-01  1.2111051054801D+00  8.9900207184026D-01
46  4.5000000000000D-01  1.1522957943909D+00  9.4830602087662D-01
47  4.6000000000000D-01  1.0911487126286D+00  9.9701911683677D-01
48  4.7000000000000D-01  1.0278741108870D+00  1.0450094544431D+00
49  4.8000000000000D-01  9.6268762941234D-01  1.0921467178550D+00
50  4.9000000000000D-01  8.9580993778148D-01  1.1383016424021D+00
51  5.0000000000000D-01  8.2746636691602D-01  1.1833454396126D+00
52  5.1000000000000D-01  7.5788652640375D-01  1.2271492070534D+00
53  5.2000000000000D-01  6.8730390001345D-01  1.2695833453108D+00
54  5.3000000000000D-01  6.1595541226988D-01  1.3105170048491D+00
55  5.4000000000000D-01  5.4408095910730D-01  1.3498175854704D+00
56  5.5000000000000D-01  4.7192289594686D-01  1.3873503106586D+00
57  5.6000000000000D-01  3.9972547704252D-01  1.4229778982114D+00
58  5.7000000000000D-01  3.2773424061241D-01  1.4565603472595D+00
59  5.8000000000000D-01  2.5619533510540D-01  1.4879548600500D+00
60  5.9000000000000D-01  1.8535478294513D-01  1.5170159147454D+00
61  6.0000000000000D-01  1.1545767922127D-01  1.5435955030034D+00
62  6.1000000000000D-01  4.6747324059876D-02  1.5675435432599D+00
63  6.2000000000000D-01 -2.0535711233041D-02  1.5887084775150D+00
64  6.3000000000000D-01 -8.6154582706122D-02  1.6069380560311D+00
65  6.4000000000000D-01 -1.4987723390621D-01  1.6220803107611D+00
66  6.5000000000000D-01 -2.1147751301134D-01  1.6339847146039D+00
67  6.6000000000000D-01 -2.7073634075612D-01  1.6425035197508D+00
68  6.7000000000000D-01 -3.2744292139918D-01  1.6474932645481D+00
69  6.8000000000000D-01 -3.8139598747258D-01  1.6488164345104D+00
70  6.9000000000000D-01 -4.3240506760585D-01  1.6463432594170D+00
71  7.0000000000000D-01 -4.8029176537739D-01  1.6399536249116D+00
72  7.1000000000000D-01 -5.2489103592952D-01  1.6295390737505D+00
73  7.2000000000000D-01 -5.6605244602271D-01  1.6150048688742D+00
74  7.3000000000000D-01 -6.0364140231714D-01  1.5962720878612D+00
75  7.4000000000000D-01 -6.3754033198676D-01  1.5732797161330D+00
76  7.5000000000000D-01 -6.6764979930680D-01  1.5459867045532D+00
77  7.6000000000000D-01 -6.9388954162759D-01  1.5143739558455D+00
78  7.7000000000000D-01 -7.1619940817112D-01  1.4784462035877D+00
79  7.8000000000000D-01 -7.3454018536954D-01  1.4382337474402D+00
80  7.9000000000000D-01 -7.4889429301168D-01  1.3937940087590D+00
81  8.0000000000000D-01 -7.5926633628276D-01  1.3452128718452D+00
82  8.1000000000000D-01 -7.6568349986017D-01  1.2926057777771D+00
83  8.2000000000000D-01 -7.6819577156679D-01  1.2361185400610D+00
84  8.3000000000000D-01 -7.6687598466626D-01  1.1759278541963D+00
85  8.4000000000000D-01 -7.6181966969688D-01  1.1122414766531D+00
86  8.5000000000000D-01 -7.5314470876298D-01  1.0452980526620D+00
87  8.6000000000000D-01 -7.4099078740906D-01  9.7536657657210D-01
88  8.7000000000000D-01 -7.2551864156625D-01  9.0274547328320D-01
89  8.8000000000000D-01 -7.0690909955038D-01  8.2776129434110D-01
90  8.9000000000000D-01 -6.8536192167264D-01  7.5076702762079D-01
91  9.0000000000000D-01 -6.6109444266056D-01  6.7214002504361D-01
92  9.1000000000000D-01 -6.3434002474079D-01  5.9227955838907D-01
93  9.2000000000000D-01 -6.0534633186575D-01  5.1160401888940D-01
94  9.3000000000000D-01 -5.7437343813206D-01  4.3054778184147D-01
95  9.4000000000000D-01 -5.4169178590927D-01  3.4955776286902D-01
96  9.5000000000000D-01 -5.0758001150616D-01  2.6908969757427D-01
97  9.6000000000000D-01 -4.7232265834165D-01  1.8960418110860D-01
98  9.7000000000000D-01 -4.3620779952064D-01  1.1156250859224D-01
99  9.8000000000000D-01 -3.9952459336410D-01  3.5422361139585D-02
100  9.9000000000000D-01 -3.6256079683406D-01 -3.8366614436820D-02
101  1.0000000000000D+00 -3.2560026286498D-01 -1.0936728151053D-01
102  1.0100000000000D+00 -2.8892044835468D-01 -1.7715949239881D-01
103  1.0200000000000D+00 -2.5278995994155D-01 -2.4134451605209D-01
104  1.0300000000000D+00 -2.1746616473426D-01 -3.0154936023665D-01
105  1.0400000000000D+00 -1.8319289280913D-01 -3.5743093405568D-01
106  1.0500000000000D+00 -1.5019825755188D-01 -4.0867999779141D-01
107  1.0600000000000D+00 -1.1869261884561D-01 -4.5502484890154D-01
108  1.0700000000000D+00 -8.8866712613138D-02 -4.9623469573931D-01
109  1.0800000000000D+00 -6.0889968425808D-02 -5.3212267397632D-01
110  1.0900000000000D+00 -3.4909034890377D-02 -5.6254846456738D-01
111  1.1000000000000D+00 -1.1046529862742D-02 -5.8742047734611D-01
112  1.1100000000000D+00  1.0599969928210D-02 -6.0669756925348D-01
113  1.1200000000000D+00  2.9958688548547D-02 -6.2039027281605D-01
114  1.1300000000000D+00  4.6984150952365D-02 -6.2856151540816D-01
115  1.1400000000000D+00  6.1657418702552D-02 -6.3132681812899D-01
116  1.1500000000000D+00  7.3986059367311D-02 -6.2885396897125D-01
117  1.1600000000000D+00  8.4003851614957D-02 -6.2136217315112D-01
118  1.1700000000000D+00  9.1770232169650D-02 -6.0912069312535D-01
119  1.1800000000000D+00  9.7369482239279D-02 -5.9244696496632D-01
120  1.1900000000000D+00  1.0090971517777D-01 -5.7170434739262D-01
121  1.2000000000000D+00  1.0252142438078D-01 -5.4729885348212D-01
122  1.2100000000000D+00  1.0235659596337D-01 -5.1967752893225D-01
123  1.2200000000000D+00  1.0058573662685D-01 -4.8932138066034D-01
124  1.2300000000000D+00  9.7392609866956D-02 -4.5673230763617D-01
125  1.2400000000000D+00  9.2968726745724D-02 -4.2241985805939D-01
126  1.2500000000000D+00  8.7509746627861D-02 -3.8689327899060D-01
127  1.2600000000000D+00  8.1213605589843D-02 -3.5065832437313D-01
128  1.2700000000000D+00  7.4277818720210D-02 -3.1421179390063D-01
129  1.2800000000000D+00  6.6897048274036D-02 -2.7803678890424D-01
130  1.2900000000000D+00  5.9260656587803D-02 -2.4259788855016D-01
131  1.3000000000000D+00  5.1550346487160D-02 -2.0833650838291D-01
132  1.3100000000000D+00  4.3937899287206D-02 -1.7566644972994D-01
133  1.3200000000000D+00  3.6583038783154D-02 -1.4496970024220D-01
134  1.3300000000000D+00  2.9631448393346D-02 -1.1659254147542D-01
135  1.3400000000000D+00  2.3212963471616D-02 -9.0842008889708D-02
136  1.3500000000000D+00  1.7439958990528D-02 -6.7982745918762D-02
137  1.3600000000000D+00  1.2405954162700D-02 -4.8234296556616D-02
138  1.3700000000000D+00  8.1870177055422D-03 -3.1779006472371D-02
139  1.3800000000000D+00  4.8260189066587D-03 -1.8701988885660D-02
140  1.3900000000000D+00  2.3501624790509D-03 -9.0623222666366D-03
141  1.4000000000000D+00  8.4874197236549D-04 -3.1874990260208D-03
142  1.4100000000000D+00  1.9441148675199D-04 -6.1713380819246D-04
143  1.4200000000000D+00  8.4530297384607D-06  4.9038634792102D-05
144  1.4300000000000D+00  4.6486215092421D-07 -3.6222554855654D-06
145  1.4400000000000D+00  6.1393850140310D-06 -3.6997961583505D-05
146  1.4500000000000D+00 -3.3950177409970D-07  3.4766518112188D-06
147  1.4600000000000D+00 -4.8733168951719D-07  3.9670178628721D-06
148  1.4700000000000D+00 -3.0410345657993D-07  8.3338622546488D-07
149  1.4800000000000D+00 -9.1746135227243D-08  2.5142747865454D-07
150  1.4900000000000D+00  0.0000000000000D+00  0.0000000000000D+00
151  1.5000000000000D+00  0.0000000000000D+00  0.0000000000000D+00
152  1.5100000000000D+00  0.0000000000000D+00  0.0000000000000D+00
153  1.5200000000000D+00  0.0000000000000D+00  0.0000000000000D+00
154  1.5300000000000D+00  0.0000000000000D+00  0.0000000000000D+00
155  1.5400000000000D+00  0.0000000000000D+00  0.0000000000000D+00
156  1.5500000000000D+00  0.0000000000000D+00  0.0000000000000D+00
157  1.5600000000000D+00  0.0000000000000D+00  0.0000000000000D+00
158  1.5700000000000D+00  0.0000000000000D+00  0.0000000000000D+00
159  1.5800000000000D+00  0.0000000000000D+00  0.0000000000000D+00
160  1.5900000000000D+00  0.0000000000000D+00  0.0000000000000D+00
161  1.6000000000000D+00  0.0000000000000D+00  0.0000000000000D+00
162  1.6100000000000D+00  0.0000000000000D+00  0.0000000000000D+00
163  1.6200000000000D+00  0.0000000000000D+00  0.0000000000000D+00
164  1.6300000000000D+00  0.0000000000000D+00  0.0000000000000D+00
165  1.6400000000000D+00  0.0000000000000D+00  0.0000000000000D+00
166  1.6500000000000D+00  0.0000000000000D+00  0.0000000000000D+00
167  1.6600000000000D+00  0.0000000000000D+00  0.0000000000000D+00
168  1.6700000000000D+00  0.0000000000000D+00  0.0000000000000D+00
169  1.6800000000000D+00  0.0000000000000D+00  0.0000000000000D+00
170  1.6900000000000D+00  0.0000000000000D+00  0.0000000000000D+00
171  1.7000000000000D+00  0.0000000000000D+00  0.0000000000000D+00
172  1.7100000000000D+00  0.0000000000000D+00  0.0000000000000D+00
173  1.7200000000000D+00  0.0000000000000D+00  0.0000000000000D+00
174  1.7300000000000D+00  0.0000000000000D+00  0.0000000000000D+00
175  1.7400000000000D+00  0.0000000000000D+00  0.0000000000000D+00
176  1.7500000000000D+00  0.0000000000000D+00  0.0000000000000D+00
177  1.7600000000000D+00  0.0000000000000D+00  0.0000000000000D+00
178  1.7700000000000D+00  0.0000000000000D+00  0.0000000000000D+00
179  1.7800000000000D+00  0.0000000000000D+00  0.0000000000000D+00
180  1.7900000000000D+00  0.0000000000000D+00  0.0000000000000D+00
181  1.8000000000000D+00  0.0000000000000D+00  0.0000000000000D+00
182  1.8100000000000D+00  0.0000000000000D+00  0.0000000000000D+00
183  1.8200000000000D+00  0.0000000000000D+00  0.0000000000000D+00
184  1.8300000000000D+00  0.0000000000000D+00  0.0000000000000D+00
185  1.8400000000000D+00  0.0000000000000D+00  0.0000000000000D+00
186  1.8500000000000D+00  0.0000000000000D+00  0.0000000000000D+00
187  1.8600000000000D+00  0.0000000000000D+00  0.0000000000000D+00
188  1.8700000000000D+00  0.0000000000000D+00  0.0000000000000D+00
189  1.8800000000000D+00  0.0000000000000D+00  0.0000000000000D+00
190  1.8900000000000D+00  0.0000000000000D+00  0.0000000000000D+00
191  1.9000000000000D+00  0.0000000000000D+00  0.0000000000000D+00
192  1.9100000000000D+00  0.0000000000000D+00  0.0000000000000D+00
193  1.9200000000000D+00  0.0000000000000D+00  0.0000000000000D+00
194  1.9300000000000D+00  0.0000000000000D+00  0.0000000000000D+00
195  1.9400000000000D+00  0.0000000000000D+00  0.0000000000000D+00
196  1.9500000000000D+00  0.0000000000000D+00  0.0000000000000D+00
197  1.9600000000000D+00  0.0000000000000D+00  0.0000000000000D+00
198  1.9700000000000D+00  0.0000000000000D+00  0.0000000000000D+00
199  1.9800000000000D+00  0.0000000000000D+00  0.0000000000000D+00
200  1.9900000000000D+00  0.0000000000000D+00  0.0000000000000D+00
201  2.0000000000000D+00  0.0000000000000D+00  0.0000000000000D+00
202  2.0100000000000D+00  0.0000000000000D+00  0.0000000000000D+00
203  2.0200000000000D+00  0.0000000000000D+00  0.0000000000000D+00
204  2.0300000000000D+00  0.0000000000000D+00  0.0000000000000D+00
205  2.0400000000000D+00  0.0000000000000D+00  0.0000000000000D+00
206  2.0500000000000D+00  0.0000000000000D+00  0.0000000000000D+00
207  2.0600000000000D+00  0.0000000000000D+00  0.0000000000000D+00
208  2.0700000000000D+00  0.0000000000000D+00  0.0000000000000D+00
209  2.0800000000000D+00  0.0000000000000D+00  0.0000000000000D+00
210  2.0900000000000D+00  0.0000000000000D+00  0.0000000000000D+00
211  2.1000000000000D+00  0.0000000000000D+00  0.0000000000000D+00
212  2.1100000000000D+00  0.0000000000000D+00  0.0000000000000D+00
213  2.1200000000000D+00  0.0000000000000D+00  0.0000000000000D+00
214  2.1300000000000D+00  0.0000000000000D+00  0.0000000000000D+00
215  2.1400000000000D+00  0.0000000000000D+00  0.0000000000000D+00
216  2.1500000000000D+00  0.0000000000000D+00  0.0000000000000D+00
217  2.1600000000000D+00  0.0000000000000D+00  0.0000000000000D+00
218  2.1700000000000D+00  0.0000000000000D+00  0.0000000000000D+00
219  2.1800000000000D+00  0.0000000000000D+00  0.0000000000000D+00
220  2.1900000000000D+00  0.0000000000000D+00  0.0000000000000D+00
221  2.2000000000000D+00  0.0000000000000D+00  0.0000000000000D+00
222  2.2100000000000D+00  0.0000000000000D+00  0.0000000000000D+00
223  2.2200000000000D+00  0.0000000000000D+00  0.0000000000000D+00
224  2.2300000000000D+00  0.0000000000000D+00  0.0000000000000D+00
225  2.2400000000000D+00  0.0000000000000D+00  0.0000000000000D+00
226  2.2500000000000D+00  0.0000000000000D+00  0.0000000000000D+00
227  2.2600000000000D+00  0.0000000000000D+00  0.0000000000000D+00
228  2.2700000000000D+00  0.0000000000000D+00  0.0000000000000D+00
229  2.2800000000000D+00  0.0000000000000D+00  0.0000000000000D+00
230  2.2900000000000D+00  0.0000000000000D+00  0.0000000000000D+00
231  2.3000000000000D+00  0.0000000000000D+00  0.0000000000000D+00
232  2.3100000000000D+00  0.0000000000000D+00  0.0000000000000D+00
233  2.3200000000000D+00  0.0000000000000D+00  0.0000000000000D+00
234  2.3300000000000D+00  0.0000000000000D+00  0.0000000000000D+00
235  2.3400000000000D+00  0.0000000000000D+00  0.0000000000000D+00
236  2.3500000000000D+00  0.0000000000000D+00  0.0000000000000D+00
237  2.3600000000000D+00  0.0000000000000D+00  0.0000000000000D+00
238  2.3700000000000D+00  0.0000000000000D+00  0.0000000000000D+00
239  2.3800000000000D+00  0.0000000000000D+00  0.0000000000000D+00
240  2.3900000000000D+00  0.0000000000000D+00  0.0000000000000D+00
241  2.4000000000000D+00  0.0000000000000D+00  0.0000000000000D+00
242  2.4100000000000D+00  0.0000000000000D+00  0.0000000000000D+00
243  2.4200000000000D+00  0.0000000000000D+00  0.0000000000000D+00
244  2.4300000000000D+00  0.0000000000000D+00  0.0000000000000D+00
245  2.4400000000000D+00  0.0000000000000D+00  0.0000000000000D+00
246  2.4500000000000D+00  0.0000000000000D+00  0.0000000000000D+00
247  2.4600000000000D+00  0.0000000000000D+00  0.0000000000000D+00
248  2.4700000000000D+00  0.0000000000000D+00  0.0000000000000D+00
249  2.4800000000000D+00  0.0000000000000D+00  0.0000000000000D+00
250  2.4900000000000D+00  0.0000000000000D+00  0.0000000000000D+00
251  2.5000000000000D+00  0.0000000000000D+00  0.0000000000000D+00
252  2.5100000000000D+00  0.0000000000000D+00  0.0000000000000D+00
253  2.5200000000000D+00  0.0000000000000D+00  0.0000000000000D+00
254  2.5300000000000D+00  0.0000000000000D+00  0.0000000000000D+00
255  2.5400000000000D+00  0.0000000000000D+00  0.0000000000000D+00
256  2.5500000000000D+00  0.0000000000000D+00  0.0000000000000D+00
257  2.5600000000000D+00  0.0000000000000D+00  0.0000000000000D+00
258  2.5700000000000D+00  0.0000000000000D+00  0.0000000000000D+00
259  2.5800000000000D+00  0.0000000000000D+00  0.0000000000000D+00
260  2.5900000000000D+00  0.0000000000000D+00  0.0000000000000D+00
261  2.6000000000000D+00  0.0000000000000D+00  0.0000000000000D+00
262  2.6100000000000D+00  0.0000000000000D+00  0.0000000000000D+00
263  2.6200000000000D+00  0.0000000000000D+00  0.0000000000000D+00
264  2.6300000000000D+00  0.0000000000000D+00  0.0000000000000D+00
265  2.6400000000000D+00  0.0000000000000D+00  0.0000000000000D+00
266  2.6500000000000D+00  0.0000000000000D+00  0.0000000000000D+00
267  2.6600000000000D+00  0.0000000000000D+00  0.0000000000000D+00
268  2.6700000000000D+00  0.0000000000000D+00  0.0000000000000D+00
269  2.6800000000000D+00  0.0000000000000D+00  0.0000000000000D+00
270  2.6900000000000D+00  0.0000000000000D+00  0.0000000000000D+00
271  2.7000000000000D+00  0.0000000000000D+00  0.0000000000000D+00
272  2.7100000000000D+00  0.0000000000000D+00  0.0000000000000D+00
273  2.7200000000000D+00  0.0000000000000D+00  0.0000000000000D+00
274  2.7300000000000D+00  0.0000000000000D+00  0.0000000000000D+00
275  2.7400000000000D+00  0.0000000000000D+00  0.0000000000000D+00
276  2.7500000000000D+00  0.0000000000000D+00  0.0000000000000D+00
277  2.7600000000000D+00  0.0000000000000D+00  0.0000000000000D+00
278  2.7700000000000D+00  0.0000000000000D+00  0.0000000000000D+00
279  2.7800000000000D+00  0.0000000000000D+00  0.0000000000000D+00
280  2.7900000000000D+00  0.0000000000000D+00  0.0000000000000D+00
281  2.8000000000000D+00  0.0000000000000D+00  0.0000000000000D+00
282  2.8100000000000D+00  0.0000000000000D+00  0.0000000000000D+00
283  2.8200000000000D+00  0.0000000000000D+00  0.0000000000000D+00
284  2.8300000000000D+00  0.0000000000000D+00  0.0000000000000D+00
285  2.8400000000000D+00  0.0000000000000D+00  0.0000000000000D+00
286  2.8500000000000D+00  0.0000000000000D+00  0.0000000000000D+00
287  2.8600000000000D+00  0.0000000000000D+00  0.0000000000000D+00
288  2.8700000000000D+00  0.0000000000000D+00  0.0000000000000D+00
289  2.8800000000000D+00  0.0000000000000D+00  0.0000000000000D+00
290  2.8900000000000D+00  0.0000000000000D+00  0.0000000000000D+00
291  2.9000000000000D+00  0.0000000000000D+00  0.0000000000000D+00
292  2.9100000000000D+00  0.0000000000000D+00  0.0000000000000D+00
293  2.9200000000000D+00  0.0000000000000D+00  0.0000000000000D+00
294  2.9300000000000D+00  0.0000000000000D+00  0.0000000000000D+00
295  2.9400000000000D+00  0.0000000000000D+00  0.0000000000000D+00
296  2.9500000000000D+00  0.0000000000000D+00  0.0000000000000D+00
297  2.9600000000000D+00  0.0000000000000D+00  0.0000000000000D+00
298  2.9700000000000D+00  0.0000000000000D+00  0.0000000000000D+00
299  2.9800000000000D+00  0.0000000000000D+00  0.0000000000000D+00
300  2.9900000000000D+00  0.0000000000000D+00  0.0000000000000D+00
301  3.0000000000000D+00  0.0000000000000D+00  0.0000000000000D+00
302  3.0100000000000D+00  0.0000000000000D+00  0.0000000000000D+00
303  3.0200000000000D+00  0.0000000000000D+00  0.0000000000000D+00
304  3.0300000000000D+00  0.0000000000000D+00  0.0000000000000D+00
305  3.0400000000000D+00  0.0000000000000D+00  0.0000000000000D+00
306  3.0500000000000D+00  0.0000000000000D+00  0.0000000000000D+00
307  3.0600000000000D+00  0.0000000000000D+00  0.0000000000000D+00
308  3.0700000000000D+00  0.0000000000000D+00  0.0000000000000D+00
309  3.0800000000000D+00  0.0000000000000D+00  0.0000000000000D+00
310  3.0900000000000D+00  0.0000000000000D+00  0.0000000000000D+00
311  3.1000000000000D+00  0.0000000000000D+00  0.0000000000000D+00
312  3.1100000000000D+00  0.0000000000000D+00  0.0000000000000D+00
313  3.1200000000000D+00  0.0000000000000D+00  0.0000000000000D+00
314  3.1300000000000D+00  0.0000000000000D+00  0.0000000000000D+00
315  3.1400000000000D+00  0.0000000000000D+00  0.0000000000000D+00
316  3.1500000000000D+00  0.0000000000000D+00  0.0000000000000D+00
317  3.1600000000000D+00  0.0000000000000D+00  0.0000000000000D+00
318  3.1700000000000D+00  0.0000000000000D+00  0.0000000000000D+00
319  3.1800000000000D+00  0.0000000000000D+00  0.0000000000000D+00
320  3.1900000000000D+00  0.0000000000000D+00  0.0000000000000D+00
321  3.2000000000000D+00  0.0000000000000D+00  0.0000000000000D+00
322  3.2100000000000D+00  0.0000000000000D+00  0.0000000000000D+00
323  3.2200000000000D+00  0.0000000000000D+00  0.0000000000000D+00
324  3.2300000000000D+00  0.0000000000000D+00  0.0000000000000D+00
325  3.2400000000000D+00  0.0000000000000D+00  0.0000000000000D+00
326  3.2500000000000D+00  0.0000000000000D+00  0.0000000000000D+00
327  3.2600000000000D+00  0.0000000000000D+00  0.0000000000000D+00
328  3.2700000000000D+00  0.0000000000000D+00  0.0000000000000D+00
329  3.2800000000000D+00  0.0000000000000D+00  0.0000000000000D+00
330  3.2900000000000D+00  0.0000000000000D+00  0.0000000000000D+00
331  3.3000000000000D+00  0.0000000000000D+00  0.0000000000000D+00
332  3.3100000000000D+00  0.0000000000000D+00  0.0000000000000D+00
333  3.3200000000000D+00  0.0000000000000D+00  0.0000000000000D+00
334  3.3300000000000D+00  0.0000000000000D+00  0.0000000000000D+00
335  3.3400000000000D+00  0.0000000000000D+00  0.0000000000000D+00
336  3.3500000000000D+00  0.0000000000000D+00  0.0000000000000D+00
337  3.3600000000000D+00  0.0000000000000D+00  0.0000000000000D+00
338  3.3700000000000D+00  0.0000000000000D+00  0.0000000000000D+00
339  3.3800000000000D+00  0.0000000000000D+00  0.0000000000000D+00
340  3.3900000000000D+00  0.0000000000000D+00  0.0000000000000D+00
341  3.4000000000000D+00  0.0000000000000D+00  0.0000000000000D+00
342  3.4100000000000D+00  0.0000000000000D+00  0.0000000000000D+00
343  3.4200000000000D+00  0.0000000000000D+00  0.0000000000000D+00
344  3.4300000000000D+00  0.0000000000000D+00  0.0000000000000D+00
345  3.4400000000000D+00  0.0000000000000D+00  0.0000000000000D+00
346  3.4500000000000D+00  0.0000000000000D+00  0.0000000000000D+00
347  3.4600000000000D+00  0.0000000000000D+00  0.0000000000000D+00
348  3.4700000000000D+00  0.0000000000000D+00  0.0000000000000D+00
349  3.4800000000000D+00  0.0000000000000D+00  0.0000000000000D+00
350  3.4900000000000D+00  0.0000000000000D+00  0.0000000000000D+00
351  3.5000000000000D+00  0.0000000000000D+00  0.0000000000000D+00
352  3.5100000000000D+00  0.0000000000000D+00  0.0000000000000D+00
353  3.5200000000000D+00  0.0000000000000D+00  0.0000000000000D+00
354  3.5300000000000D+00  0.0000000000000D+00  0.0000000000000D+00
355  3.5400000000000D+00  0.0000000000000D+00  0.0000000000000D+00
356  3.5500000000000D+00  0.0000000000000D+00  0.0000000000000D+00
357  3.5600000000000D+00  0.0000000000000D+00  0.0000000000000D+00
358  3.5700000000000D+00  0.0000000000000D+00  0.0000000000000D+00
359  3.5800000000000D+00  0.0000000000000D+00  0.0000000000000D+00
360  3.5900000000000D+00  0.0000000000000D+00  0.0000000000000D+00
361  3.6000000000000D+00  0.0000000000000D+00  0.0000000000000D+00
362  3.6100000000000D+00  0.0000000000000D+00  0.0000000000000D+00
363  3.6200000000000D+00  0.0000000000000D+00  0.0000000000000D+00
364  3.6300000000000D+00  0.0000000000000D+00  0.0000000000000D+00
365  3.6400000000000D+00  0.0000000000000D+00  0.0000000000000D+00
366  3.6500000000000D+00  0.0000000000000D+00  0.0000000000000D+00
367  3.6600000000000D+00  0.0000000000000D+00  0.0000000000000D+00
368  3.6700000000000D+00  0.0000000000000D+00  0.0000000000000D+00
369  3.6800000000000D+00  0.0000000000000D+00  0.0000000000000D+00
370  3.6900000000000D+00  0.0000000000000D+00  0.0000000000000D+00
371  3.7000000000000D+00  0.0000000000000D+00  0.0000000000000D+00
372  3.7100000000000D+00  0.0000000000000D+00  0.0000000000000D+00
373  3.7200000000000D+00  0.0000000000000D+00  0.0000000000000D+00
374  3.7300000000000D+00  0.0000000000000D+00  0.0000000000000D+00
375  3.7400000000000D+00  0.0000000000000D+00  0.0000000000000D+00
376  3.7500000000000D+00  0.0000000000000D+00  0.0000000000000D+00
377  3.7600000000000D+00  0.0000000000000D+00  0.0000000000000D+00
378  3.7700000000000D+00  0.0000000000000D+00  0.0000000000000D+00
379  3.7800000000000D+00  0.0000000000000D+00  0.0000000000000D+00
380  3.7900000000000D+00  0.0000000000000D+00  0.0000000000000D+00
381  3.8000000000000D+00  0.0000000000000D+00  0.0000000000000D+00
382  3.8100000000000D+00  0.0000000000000D+00  0.0000000000000D+00
383  3.8200000000000D+00  0.0000000000000D+00  0.0000000000000D+00
384  3.8300000000000D+00  0.0000000000000D+00  0.0000000000000D+00
385  3.8400000000000D+00  0.0000000000000D+00  0.0000000000000D+00
386  3.8500000000000D+00  0.0000000000000D+00  0.0000000000000D+00
387  3.8600000000000D+00  0.0000000000000D+00  0.0000000000000D+00
388  3.8700000000000D+00  0.0000000000000D+00  0.0000000000000D+00
389  3.8800000000000D+00  0.0000000000000D+00  0.0000000000000D+00
390  3.8900000000000D+00  0.0000000000000D+00  0.0000000000000D+00
391  3.9000000000000D+00  0.0000000000000D+00  0.0000000000000D+00
392  3.9100000000000D+00  0.0000000000000D+00  0.0000000000000D+00
393  3.9200000000000D+00  0.0000000000000D+00  0.0000000000000D+00
394  3.9300000000000D+00  0.0000000000000D+00  0.0000000000000D+00
395  3.9400000000000D+00  0.0000000000000D+00  0.0000000000000D+00
396  3.9500000000000D+00  0.0000000000000D+00  0.0000000000000D+00
397  3.9600000000000D+00  0.0000000000000D+00  0.0000000000000D+00
398  3.9700000000000D+00  0.0000000000000D+00  0.0000000000000D+00
399  3.9800000000000D+00  0.0000000000000D+00  0.0000000000000D+00
400  3.9900000000000D+00  0.0000000000000D+00  0.0000000000000D+00
401  4.0000000000000D+00  0.0000000000000D+00  0.0000000000000D+00
402  4.0100000000000D+00  0.0000000000000D+00  0.0000000000000D+00
403  4.0200000000000D+00  0.0000000000000D+00  0.0000000000000D+00
404  4.0300000000000D+00  0.0000000000000D+00  0.0000000000000D+00
405  4.0400000000000D+00  0.0000000000000D+00  0.0000000000000D+00
406  4.0500000000000D+00  0.0000000000000D+00  0.0000000000000D+00
407  4.0600000000000D+00  0.0000000000000D+00  0.0000000000000D+00
408  4.0700000000000D+00  0.0000000000000D+00  0.0000000000000D+00
409  4.0800000000000D+00  0.0000000000000D+00  0.0000000000000D+00
410  4.0900000000000D+00  0.0000000000000D+00  0.0000000000000D+00
411  4.1000000000000D+00  0.0000000000000D+00  0.0000000000000D+00
412  4.1100000000000D+00  0.0000000000000D+00  0.0000000000000D+00
413  4.1200000000000D+00  0.0000000000000D+00  0.0000000000000D+00
414  4.1300000000000D+00  0.0000000000000D+00  0.0000000000000D+00
415  4.1400000000000D+00  0.0000000000000D+00  0.0000000000000D+00
416  4.1500000000000D+00  0.0000000000000D+00  0.0000000000000D+00
417  4.1600000000000D+00  0.0000000000000D+00  0.0000000000000D+00
418  4.1700000000000D+00  0.0000000000000D+00  0.0000000000000D+00
419  4.1800000000000D+00  0.0000000000000D+00  0.0000000000000D+00
420  4.1900000000000D+00  0.0000000000000D+00  0.0000000000000D+00
421  4.2000000000000D+00  0.0000000000000D+00  0.0000000000000D+00
422  4.2100000000000D+00  0.0000000000000D+00  0.0000000000000D+00
423  4.2200000000000D+00  0.0000000000000D+00  0.0000000000000D+00
424  4.2300000000000D+00  0.0000000000000D+00  0.0000000000000D+00
425  4.2400000000000D+00  0.0000000000000D+00  0.0000000000000D+00
426  4.2500000000000D+00  0.0000000000000D+00  0.0000000000000D+00
427  4.2600000000000D+00  0.0000000000000D+00  0.0000000000000D+00
428  4.2700000000000D+00  0.0000000000000D+00  0.0000000000000D+00
429  4.2800000000000D+00  0.0000000000000D+00  0.0000000000000D+00
430  4.2900000000000D+00  0.0000000000000D+00  0.0000000000000D+00
431  4.3000000000000D+00  0.0000000000000D+00  0.0000000000000D+00
432  4.3100000000000D+00  0.0000000000000D+00  0.0000000000000D+00
433  4.3200000000000D+00  0.0000000000000D+00  0.0000000000000D+00
434  4.3300000000000D+00  0.0000000000000D+00  0.0000000000000D+00
435  4.3400000000000D+00  0.0000000000000D+00  0.0000000000000D+00
436  4.3500000000000D+00  0.0000000000000D+00  0.0000000000000D+00
437  4.3600000000000D+00  0.0000000000000D+00  0.0000000000000D+00
438  4.3700000000000D+00  0.0000000000000D+00  0.0000000000000D+00
439  4.3800000000000D+00  0.0000000000000D+00  0.0000000000000D+00
440  4.3900000000000D+00  0.0000000000000D+00  0.0000000000000D+00
441  4.4000000000000D+00  0.0000000000000D+00  0.0000000000000D+00
442  4.4100000000000D+00  0.0000000000000D+00  0.0000000000000D+00
443  4.4200000000000D+00  0.0000000000000D+00  0.0000000000000D+00
444  4.4300000000000D+00  0.0000000000000D+00  0.0000000000000D+00