Bi    ONCVPSP  r_core=  1.40  1.51  1.40
83.0000     23.0000      161002    zatom,zion,pspd
8      11   2     4   600     0    pspcod,pspxc,lmax,lloc,mmax,r2well
5.99000000  6.00000000  0.00000000    rchrg fchrg qchrg
2     2     2     0     0    nproj
1                 extension_switch
0                         1.6092732927167D+01  2.1608382735506D+00
1  0.0000000000000D+00 -1.1225345097898D-09  3.0325898736638D-09
2  1.0000000000000D-02  8.5398045613284D-02 -2.5150467059913D-02
3  2.0000000000000D-02  1.7053359004410D-01 -4.9996699961386D-02
4  3.0000000000000D-02  2.5514572102694D-01 -7.4237926031532D-02
5  4.0000000000000D-02  3.3897668498094D-01 -9.7580244690247D-02
6  5.0000000000000D-02  4.2177341877043D-01 -1.1973993708796D-01
7  6.0000000000000D-02  5.0328902517928D-01 -1.4044662624526D-01
8  7.0000000000000D-02  5.8328417467690D-01 -1.5944624148067D-01
9  8.0000000000000D-02  6.6152841717635D-01 -1.7650374394536D-01
10  9.0000000000000D-02  7.3780138885617D-01 -1.9140557378894D-01
11  1.0000000000000D-01  8.1189390071636D-01 -2.0396178380324D-01
12  1.1000000000000D-01  8.8360889734159D-01 -2.1400782926616D-01
13  1.2000000000000D-01  9.5276227632323D-01 -2.2140598906306D-01
14  1.3000000000000D-01  1.0191835609167D+00 -2.2604639891727D-01
15  1.4000000000000D-01  1.0827164207489D+00 -2.2784768362743D-01
16  1.5000000000000D-01  1.1432190377068D+00 -2.2675718149666D-01
17  1.6000000000000D-01  1.2005643165007D+00 -2.2275076054905D-01
18  1.7000000000000D-01  1.2546399417603D+00 -2.1583223256664D-01
19  1.8000000000000D-01  1.3053482858603D+00 -2.0603237734423D-01
20  1.9000000000000D-01  1.3526061739401D+00 -1.9340759575149D-01
21  2.0000000000000D-01  1.3963445147486D+00 -1.7803821611521D-01
22  2.1000000000000D-01  1.4365078079721D+00 -1.6002648399460D-01
23  2.2000000000000D-01  1.4730535405602D+00 -1.3949427053145D-01
24  2.3000000000000D-01  1.5059514862180D+00 -1.1658053913018D-01
25  2.4000000000000D-01  1.5351829236584D+00 -9.1438614185928D-02
26  2.5000000000000D-01  1.5607397903779D+00 -6.4233298863797D-02
27  2.6000000000000D-01  1.5826237896144D+00 -3.5137891482736D-02
28  2.7000000000000D-01  1.6008454687493D+00 -4.3311518245682D-03
29  2.8000000000000D-01  1.6154232877133D+00  2.8005730360464D-02
30  2.9000000000000D-01  1.6263826959434D+00  6.1692112271403D-02
31  3.0000000000000D-01  1.6337552361077D+00  9.6550768759173D-02
32  3.1000000000000D-01  1.6375776921730D+00  1.3241060676735D-01
33  3.2000000000000D-01  1.6378912984406D+00  1.6910917588852D-01
34  3.3000000000000D-01  1.6347410249307D+00  2.0649493064381D-01
35  3.4000000000000D-01  1.6281749529753D+00  2.4442920408565D-01
36  3.5000000000000D-01  1.6182437530981D+00  2.8278785702574D-01
37  3.6000000000000D-01  1.6050002752515D+00  3.2146257253573D-01
38  3.7000000000000D-01  1.5884992592666D+00  3.6036177127876D-01
39  3.8000000000000D-01  1.5687971709979D+00  3.9941112962163D-01
40  3.9000000000000D-01  1.5459521671279D+00  4.3855368925000D-01
41  4.0000000000000D-01  1.5200241890030D+00  4.7774955406349D-01
42  4.1000000000000D-01  1.4910751832167D+00  5.1697517735086D-01
43  4.2000000000000D-01  1.4591694440044D+00  5.5622224952459D-01
44  4.3000000000000D-01  1.4243740698939D+00  5.9549620391348D-01
45  4.4000000000000D-01  1.3867595245256D+00  6.3481436515075D-01
46  4.5000000000000D-01  1.3464002891455D+00  6.7420377143830D-01
47  4.6000000000000D-01  1.3033755920427D+00  7.1369870829978D-01
48  4.7000000000000D-01  1.2577701981750D+00  7.5333799724592D-01
49  4.8000000000000D-01  1.2096752404540D+00  7.9316208796054D-01
50  4.9000000000000D-01  1.1591890726708D+00  8.3321000708045D-01
51  5.0000000000000D-01  1.1064181228711D+00  8.7351622029895D-01
52  5.1000000000000D-01  1.0514777251605D+00  9.1410746729708D-01
53  5.2000000000000D-01  9.9449290745846D-01  9.5499963083730D-01
54  5.3000000000000D-01  9.3559911263665D-01  9.9619470219119D-01
55  5.4000000000000D-01  8.7494283079309D-01  1.0376779048835D+00
56  5.5000000000000D-01  8.1268212112092D-01  1.0794150375039D+00
57  5.6000000000000D-01  7.4898700293918D-01  1.1213500940568D+00
58  5.7000000000000D-01  6.8403969694205D-01  1.1634032170214D+00
59  5.8000000000000D-01  6.1803469959551D-01  1.2054690339777D+00
60  5.9000000000000D-01  5.5117867581813D-01  1.2474154234273D+00
61  6.0000000000000D-01  4.8369015763669D-01  1.2890827492754D+00
62  6.1000000000000D-01  4.1579903932322D-01  1.3302835965502D+00
63  6.2000000000000D-01  3.4774586262046D-01  1.3708030332586D+00
64  6.3000000000000D-01  2.7978088894059D-01  1.4103994150804D+00
65  6.4000000000000D-01  2.1216295887790D-01  1.4488057408879D+00
66  6.5000000000000D-01  1.4515814294032D-01  1.4857315580137D+00
67  6.6000000000000D-01  7.9038191001651D-02  1.5208654069765D+00
68  6.7000000000000D-01  1.4078791594309D-02  1.5538777860328D+00
69  6.8000000000000D-01 -4.9442344299177D-02  1.5844246067166D+00
70  6.9000000000000D-01 -1.1124755687847D-01  1.6121511025596D+00
71  7.0000000000000D-01 -1.7106144726875D-01  1.6366961446112D+00
72  7.1000000000000D-01 -2.2861319904986D-01  1.6576969093157D+00
73  7.2000000000000D-01 -2.8363898454571D-01  1.6747938369663D+00
74  7.3000000000000D-01 -3.3588442647548D-01  1.6876358124055D+00
75  7.4000000000000D-01 -3.8510708359443D-01  1.6958854940435D+00
76  7.5000000000000D-01 -4.3107892740033D-01  1.6992247127065D+00
77  7.6000000000000D-01 -4.7358877590215D-01  1.6973598584136D+00
78  7.7000000000000D-01 -5.1244464986228D-01  1.6900271710040D+00
79  7.8000000000000D-01 -5.4747601685301D-01  1.6769978496246D+00
80  7.9000000000000D-01 -5.7853588892936D-01  1.6580828965181D+00
81  8.0000000000000D-01 -6.0550274071684D-01  1.6331376123184D+00
82  8.1000000000000D-01 -6.2828221624330D-01  1.6020656631801D+00
83  8.2000000000000D-01 -6.4680859489572D-01  1.5648226445102D+00
84  8.3000000000000D-01 -6.6104598943742D-01  1.5214190717952D+00
85  8.4000000000000D-01 -6.7098925204939D-01  1.4719227359570D+00
86  8.5000000000000D-01 -6.7666456782108D-01  1.4164603687345D+00
87  8.6000000000000D-01 -6.7812971898128D-01  1.3552185726962D+00
88  8.7000000000000D-01 -6.7547400735282D-01  1.2884439804704D+00
89  8.8000000000000D-01 -6.6881782701015D-01  1.2164426185601D+00
90  8.9000000000000D-01 -6.5831188380755D-01  1.1395784624266D+00
91  9.0000000000000D-01 -6.4413606332512D-01  1.0582711813780D+00
92  9.1000000000000D-01 -6.2649795370710D-01  9.7299308381979D-01
93  9.2000000000000D-01 -6.0563103481960D-01  8.8426528557230D-01
94  9.3000000000000D-01 -5.8179255003337D-01  7.9265313597590D-01
95  9.4000000000000D-01 -5.5526108167139D-01  6.9876094821747D-01
96  9.5000000000000D-01 -5.2633385567561D-01  6.0322609153201D-01
97  9.6000000000000D-01 -4.9532380526857D-01  5.0671251347434D-01
98  9.7000000000000D-01 -4.6255642724433D-01  4.0990377014348D-01
99  9.8000000000000D-01 -4.2836646795291D-01  3.1349565090670D-01
100  9.9000000000000D-01 -3.9309447899589D-01  2.1818849169245D-01
101  1.0000000000000D+00 -3.5708328503355D-01  1.2467927705978D-01
102  1.0100000000000D+00 -3.2067440793318D-01  3.3653636041172D-02
103  1.0200000000000D+00 -2.8420449270858D-01 -5.4222159927071D-02
104  1.0300000000000D+00 -2.4800178121338D-01 -1.3830908710824D-01
105  1.0400000000000D+00 -2.1238267945938D-01 -2.1800303763401D-01
106  1.0500000000000D+00 -1.7764846360922D-01 -2.9274215747951D-01
107  1.0600000000000D+00 -1.4408216821246D-01 -3.6201374933025D-01
108  1.0700000000000D+00 -1.1194569828088D-01 -4.2536063999668D-01
109  1.0800000000000D+00 -8.1477203813528D-02 -4.8238691908458D-01
110  1.0900000000000D+00 -5.2888752231402D-02 -5.3276296314146D-01
111  1.1000000000000D+00 -2.6364329995089D-02 -5.7622966954740D-01
112  1.1100000000000D+00 -2.0582006589745D-03 -6.1260183411105D-01
113  1.1200000000000D+00  1.9906358446635D-02 -6.4177061857756D-01
114  1.1300000000000D+00  3.9437924066755D-02 -6.6370506725738D-01
115  1.1400000000000D+00  5.6477388071012D-02 -6.7845264538259D-01
116  1.1500000000000D+00  7.0998005871837D-02 -6.8613878522457D-01
117  1.1600000000000D+00  8.3005032106478D-02 -6.8696543998378D-01
118  1.1700000000000D+00  9.2534950118077D-02 -6.8120866171354D-01
119  1.1800000000000D+00  9.9654307434569D-02 -6.6921523341933D-01
120  1.1900000000000D+00  1.0445817405500D-01 -6.5139839677469D-01
121  1.2000000000000D+00  1.0706824734383D-01 -6.2823273405105D-01
122  1.2100000000000D+00  1.0763063212452D-01 -6.0024827463225D-01
123  1.2200000000000D+00  1.0631332909620D-01 -5.6802390762081D-01
124  1.2300000000000D+00  1.0330346843318D-01 -5.3218019122445D-01
125  1.2400000000000D+00  9.8804331092384D-02 -4.9337166354624D-01
126  1.2500000000000D+00  9.3032202140763D-02 -4.5227876378364D-01
127  1.2600000000000D+00  8.6213102725607D-02 -4.0959947861227D-01
128  1.2700000000000D+00  7.8579453511473D-02 -3.6604084453519D-01
129  1.2800000000000D+00  7.0366719903522D-02 -3.2231042934248D-01
130  1.2900000000000D+00  6.1809999254871D-02 -2.7910766840178D-01
131  1.3000000000000D+00  5.3140844650814D-02 -2.3711584899147D-01
132  1.3100000000000D+00  4.4584624545614D-02 -1.9699560466034D-01
133  1.3200000000000D+00  3.6354597254173D-02 -1.5936906399188D-01
134  1.3300000000000D+00  2.8646268268950D-02 -1.2480490191405D-01
135  1.3400000000000D+00  2.1631551177546D-02 -9.3802959005952D-02
136  1.3500000000000D+00  1.5456261454513D-02 -6.6788211851413D-02
137  1.3600000000000D+00  1.0241571702534D-02 -4.4120649646855D-02
138  1.3700000000000D+00  6.0636480670589D-03 -2.6011712160234D-02
139  1.3800000000000D+00  2.9730280048272D-03 -1.2611665905662D-02
140  1.3900000000000D+00  1.1014065820301D-03 -4.4441393083914D-03
141  1.4000000000000D+00  2.8797129483949D-04 -8.8637975958719D-04
142  1.4100000000000D+00  3.6165945001815D-05  4.4491930178734D-05
143  1.4200000000000D+00 -2.0389760512203D-08 -6.9571641567682D-06
144  1.4300000000000D+00  3.2753253899329D-06 -4.5728827169123D-05
145  1.4400000000000D+00  3.3662955843043D-07  4.4586101013997D-06
146  1.4500000000000D+00  8.6781461784906D-08  4.3156722724606D-06
147  1.4600000000000D+00 -5.2114317072795D-07  1.3281219787472D-06
148  1.4700000000000D+00 -9.6554179132449D-08  2.4606621490708D-07
149  1.4800000000000D+00  0.0000000000000D+00  0.0000000000000D+00
150  1.4900000000000D+00  0.0000000000000D+00  0.0000000000000D+00
151  1.5000000000000D+00  0.0000000000000D+00  0.0000000000000D+00
152  1.5100000000000D+00  0.0000000000000D+00  0.0000000000000D+00
153  1.5200000000000D+00  0.0000000000000D+00  0.0000000000000D+00
154  1.5300000000000D+00  0.0000000000000D+00  0.0000000000000D+00
155  1.5400000000000D+00  0.0000000000000D+00  0.0000000000000D+00
156  1.5500000000000D+00  0.0000000000000D+00  0.0000000000000D+00
157  1.5600000000000D+00  0.0000000000000D+00  0.0000000000000D+00
158  1.5700000000000D+00  0.0000000000000D+00  0.0000000000000D+00
159  1.5800000000000D+00  0.0000000000000D+00  0.0000000000000D+00
160  1.5900000000000D+00  0.0000000000000D+00  0.0000000000000D+00
161  1.6000000000000D+00  0.0000000000000D+00  0.0000000000000D+00
162  1.6100000000000D+00  0.0000000000000D+00  0.0000000000000D+00
163  1.6200000000000D+00  0.0000000000000D+00  0.0000000000000D+00
164  1.6300000000000D+00  0.0000000000000D+00  0.0000000000000D+00
165  1.6400000000000D+00  0.0000000000000D+00  0.0000000000000D+00
166  1.6500000000000D+00  0.0000000000000D+00  0.0000000000000D+00
167  1.6600000000000D+00  0.0000000000000D+00  0.0000000000000D+00
168  1.6700000000000D+00  0.0000000000000D+00  0.0000000000000D+00
169  1.6800000000000D+00  0.0000000000000D+00  0.0000000000000D+00
170  1.6900000000000D+00  0.0000000000000D+00  0.0000000000000D+00
171  1.7000000000000D+00  0.0000000000000D+00  0.0000000000000D+00
172  1.7100000000000D+00  0.0000000000000D+00  0.0000000000000D+00
173  1.7200000000000D+00  0.0000000000000D+00  0.0000000000000D+00
174  1.7300000000000D+00  0.0000000000000D+00  0.0000000000000D+00
175  1.7400000000000D+00  0.0000000000000D+00  0.0000000000000D+00
176  1.7500000000000D+00  0.0000000000000D+00  0.0000000000000D+00
177  1.7600000000000D+00  0.0000000000000D+00  0.0000000000000D+00
178  1.7700000000000D+00  0.0000000000000D+00  0.0000000000000D+00
179  1.7800000000000D+00  0.0000000000000D+00  0.0000000000000D+00
180  1.7900000000000D+00  0.0000000000000D+00  0.0000000000000D+00
181  1.8000000000000D+00  0.0000000000000D+00  0.0000000000000D+00
182  1.8100000000000D+00  0.0000000000000D+00  0.0000000000000D+00
183  1.8200000000000D+00  0.0000000000000D+00  0.0000000000000D+00
184  1.8300000000000D+00  0.0000000000000D+00  0.0000000000000D+00
185  1.8400000000000D+00  0.0000000000000D+00  0.0000000000000D+00
186  1.8500000000000D+00  0.0000000000000D+00  0.0000000000000D+00
187  1.8600000000000D+00  0.0000000000000D+00  0.0000000000000D+00
188  1.8700000000000D+00  0.0000000000000D+00  0.0000000000000D+00
189  1.8800000000000D+00  0.0000000000000D+00  0.0000000000000D+00
190  1.8900000000000D+00  0.0000000000000D+00  0.0000000000000D+00
191  1.9000000000000D+00  0.0000000000000D+00  0.0000000000000D+00
192  1.9100000000000D+00  0.0000000000000D+00  0.0000000000000D+00
193  1.9200000000000D+00  0.0000000000000D+00  0.0000000000000D+00
194  1.9300000000000D+00  0.0000000000000D+00  0.0000000000000D+00
195  1.9400000000000D+00  0.0000000000000D+00  0.0000000000000D+00
196  1.9500000000000D+00  0.0000000000000D+00  0.0000000000000D+00
197  1.9600000000000D+00  0.0000000000000D+00  0.0000000000000D+00
198  1.9700000000000D+00  0.0000000000000D+00  0.0000000000000D+00
199  1.9800000000000D+00  0.0000000000000D+00  0.0000000000000D+00
200  1.9900000000000D+00  0.0000000000000D+00  0.0000000000000D+00
201  2.0000000000000D+00  0.0000000000000D+00  0.0000000000000D+00
202  2.0100000000000D+00  0.0000000000000D+00  0.0000000000000D+00
203  2.0200000000000D+00  0.0000000000000D+00  0.0000000000000D+00
204  2.0300000000000D+00  0.0000000000000D+00  0.0000000000000D+00
205  2.0400000000000D+00  0.0000000000000D+00  0.0000000000000D+00
206  2.0500000000000D+00  0.0000000000000D+00  0.0000000000000D+00
207  2.0600000000000D+00  0.0000000000000D+00  0.0000000000000D+00
208  2.0700000000000D+00  0.0000000000000D+00  0.0000000000000D+00
209  2.0800000000000D+00  0.0000000000000D+00  0.0000000000000D+00
210  2.0900000000000D+00  0.0000000000000D+00  0.0000000000000D+00
211  2.1000000000000D+00  0.0000000000000D+00  0.0000000000000D+00
212  2.1100000000000D+00  0.0000000000000D+00  0.0000000000000D+00
213  2.1200000000000D+00  0.0000000000000D+00  0.0000000000000D+00
214  2.1300000000000D+00  0.0000000000000D+00  0.0000000000000D+00
215  2.1400000000000D+00  0.0000000000000D+00  0.0000000000000D+00
216  2.1500000000000D+00  0.0000000000000D+00  0.0000000000000D+00
217  2.1600000000000D+00  0.0000000000000D+00  0.0000000000000D+00
218  2.1700000000000D+00  0.0000000000000D+00  0.0000000000000D+00
219  2.1800000000000D+00  0.0000000000000D+00  0.0000000000000D+00
220  2.1900000000000D+00  0.0000000000000D+00  0.0000000000000D+00
221  2.2000000000000D+00  0.0000000000000D+00  0.0000000000000D+00
222  2.2100000000000D+00  0.0000000000000D+00  0.0000000000000D+00
223  2.2200000000000D+00  0.0000000000000D+00  0.0000000000000D+00
224  2.2300000000000D+00  0.0000000000000D+00  0.0000000000000D+00
225  2.2400000000000D+00  0.0000000000000D+00  0.0000000000000D+00
226  2.2500000000000D+00  0.0000000000000D+00  0.0000000000000D+00
227  2.2600000000000D+00  0.0000000000000D+00  0.0000000000000D+00
228  2.2700000000000D+00  0.0000000000000D+00  0.0000000000000D+00
229  2.2800000000000D+00  0.0000000000000D+00  0.0000000000000D+00
230  2.2900000000000D+00  0.0000000000000D+00  0.0000000000000D+00
231  2.3000000000000D+00  0.0000000000000D+00  0.0000000000000D+00
232  2.3100000000000D+00  0.0000000000000D+00  0.0000000000000D+00
233  2.3200000000000D+00  0.0000000000000D+00  0.0000000000000D+00
234  2.3300000000000D+00  0.0000000000000D+00  0.0000000000000D+00
235  2.3400000000000D+00  0.0000000000000D+00  0.0000000000000D+00
236  2.3500000000000D+00  0.0000000000000D+00  0.0000000000000D+00
237  2.3600000000000D+00  0.0000000000000D+00  0.0000000000000D+00
238  2.3700000000000D+00  0.0000000000000D+00  0.0000000000000D+00
239  2.3800000000000D+00  0.0000000000000D+00  0.0000000000000D+00
240  2.3900000000000D+00  0.0000000000000D+00  0.0000000000000D+00
241  2.4000000000000D+00  0.0000000000000D+00  0.0000000000000D+00
242  2.4100000000000D+00  0.0000000000000D+00  0.0000000000000D+00
243  2.4200000000000D+00  0.0000000000000D+00  0.0000000000000D+00
244  2.4300000000000D+00  0.0000000000000D+00  0.0000000000000D+00
245  2.4400000000000D+00  0.0000000000000D+00  0.0000000000000D+00
246  2.4500000000000D+00  0.0000000000000D+00  0.0000000000000D+00
247  2.4600000000000D+00  0.0000000000000D+00  0.0000000000000D+00
248  2.4700000000000D+00  0.0000000000000D+00  0.0000000000000D+00
249  2.4800000000000D+00  0.0000000000000D+00  0.0000000000000D+00
250  2.4900000000000D+00  0.0000000000000D+00  0.0000000000000D+00
251  2.5000000000000D+00  0.0000000000000D+00  0.0000000000000D+00
252  2.5100000000000D+00  0.0000000000000D+00  0.0000000000000D+00
253  2.5200000000000D+00  0.0000000000000D+00  0.0000000000000D+00
254  2.5300000000000D+00  0.0000000000000D+00  0.0000000000000D+00
255  2.5400000000000D+00  0.0000000000000D+00  0.0000000000000D+00
256  2.5500000000000D+00  0.0000000000000D+00  0.0000000000000D+00
257  2.5600000000000D+00  0.0000000000000D+00  0.0000000000000D+00
258  2.5700000000000D+00  0.0000000000000D+00  0.0000000000000D+00
259  2.5800000000000D+00  0.0000000000000D+00  0.0000000000000D+00
260  2.5900000000000D+00  0.0000000000000D+00  0.0000000000000D+00
261  2.6000000000000D+00  0.0000000000000D+00  0.0000000000000D+00
262  2.6100000000000D+00  0.0000000000000D+00  0.0000000000000D+00
263  2.6200000000000D+00  0.0000000000000D+00  0.0000000000000D+00
264  2.6300000000000D+00  0.0000000000000D+00  0.0000000000000D+00
265  2.6400000000000D+00  0.0000000000000D+00  0.0000000000000D+00
266  2.6500000000000D+00  0.0000000000000D+00  0.0000000000000D+00
267  2.6600000000000D+00  0.0000000000000D+00  0.0000000000000D+00
268  2.6700000000000D+00  0.0000000000000D+00  0.0000000000000D+00
269  2.6800000000000D+00  0.0000000000000D+00  0.0000000000000D+00
270  2.6900000000000D+00  0.0000000000000D+00  0.0000000000000D+00
271  2.7000000000000D+00  0.0000000000000D+00  0.0000000000000D+00
272  2.7100000000000D+00  0.0000000000000D+00  0.0000000000000D+00
273  2.7200000000000D+00  0.0000000000000D+00  0.0000000000000D+00
274  2.7300000000000D+00  0.0000000000000D+00  0.0000000000000D+00
275  2.7400000000000D+00  0.0000000000000D+00  0.0000000000000D+00
276  2.7500000000000D+00  0.0000000000000D+00  0.0000000000000D+00
277  2.7600000000000D+00  0.0000000000000D+00  0.0000000000000D+00
278  2.7700000000000D+00  0.0000000000000D+00  0.0000000000000D+00
279  2.7800000000000D+00  0.0000000000000D+00  0.0000000000000D+00
280  2.7900000000000D+00  0.0000000000000D+00  0.0000000000000D+00
281  2.8000000000000D+00  0.0000000000000D+00  0.0000000000000D+00
282  2.8100000000000D+00  0.0000000000000D+00  0.0000000000000D+00
283  2.8200000000000D+00  0.0000000000000D+00  0.0000000000000D+00
284  2.8300000000000D+00  0.0000000000000D+00  0.0000000000000D+00
285  2.8400000000000D+00  0.0000000000000D+00  0.0000000000000D+00
286  2.8500000000000D+00  0.0000000000000D+00  0.0000000000000D+00
287  2.8600000000000D+00  0.0000000000000D+00  0.0000000000000D+00
288  2.8700000000000D+00  0.0000000000000D+00  0.0000000000000D+00
289  2.8800000000000D+00  0.0000000000000D+00  0.0000000000000D+00
290  2.8900000000000D+00  0.0000000000000D+00  0.0000000000000D+00
291  2.9000000000000D+00  0.0000000000000D+00  0.0000000000000D+00
292  2.9100000000000D+00  0.0000000000000D+00  0.0000000000000D+00
293  2.9200000000000D+00  0.0000000000000D+00  0.0000000000000D+00
294  2.9300000000000D+00  0.0000000000000D+00  0.0000000000000D+00
295  2.9400000000000D+00  0.0000000000000D+00  0.0000000000000D+00
296  2.9500000000000D+00  0.0000000000000D+00  0.0000000000000D+00
297  2.9600000000000D+00  0.0000000000000D+00  0.0000000000000D+00
298  2.9700000000000D+00  0.0000000000000D+00  0.0000000000000D+00
299  2.9800000000000D+00  0.0000000000000D+00  0.0000000000000D+00
300  2.9900000000000D+00  0.0000000000000D+00  0.0000000000000D+00
301  3.0000000000000D+00  0.0000000000000D+00  0.0000000000000D+00
302  3.0100000000000D+00  0.0000000000000D+00  0.0000000000000D+00
303  3.0200000000000D+00  0.0000000000000D+00  0.0000000000000D+00
304  3.0300000000000D+00  0.0000000000000D+00  0.0000000000000D+00
305  3.0400000000000D+00  0.0000000000000D+00  0.0000000000000D+00
306  3.0500000000000D+00  0.0000000000000D+00  0.0000000000000D+00
307  3.0600000000000D+00  0.0000000000000D+00  0.0000000000000D+00
308  3.0700000000000D+00  0.0000000000000D+00  0.0000000000000D+00
309  3.0800000000000D+00  0.0000000000000D+00  0.0000000000000D+00
310  3.0900000000000D+00  0.0000000000000D+00  0.0000000000000D+00
311  3.1000000000000D+00  0.0000000000000D+00  0.0000000000000D+00
312  3.1100000000000D+00  0.0000000000000D+00  0.0000000000000D+00
313  3.1200000000000D+00  0.0000000000000D+00  0.0000000000000D+00
314  3.1300000000000D+00  0.0000000000000D+00  0.0000000000000D+00
315  3.1400000000000D+00  0.0000000000000D+00  0.0000000000000D+00
316  3.1500000000000D+00  0.0000000000000D+00  0.0000000000000D+00
317  3.1600000000000D+00  0.0000000000000D+00  0.0000000000000D+00
318  3.1700000000000D+00  0.0000000000000D+00  0.0000000000000D+00
319  3.1800000000000D+00  0.0000000000000D+00  0.0000000000000D+00
320  3.1900000000000D+00  0.0000000000000D+00  0.0000000000000D+00
321  3.2000000000000D+00  0.0000000000000D+00  0.0000000000000D+00
322  3.2100000000000D+00  0.0000000000000D+00  0.0000000000000D+00
323  3.2200000000000D+00  0.0000000000000D+00  0.0000000000000D+00
324  3.2300000000000D+00  0.0000000000000D+00  0.0000000000000D+00
325  3.2400000000000D+00  0.0000000000000D+00  0.0000000000000D+00
326  3.2500000000000D+00  0.0000000000000D+00  0.0000000000000D+00
327  3.2600000000000D+00  0.0000000000000D+00  0.0000000000000D+00
328  3.2700000000000D+00  0.0000000000000D+00  0.0000000000000D+00
329  3.2800000000000D+00  0.0000000000000D+00  0.0000000000000D+00
330  3.2900000000000D+00  0.0000000000000D+00  0.0000000000000D+00
331  3.3000000000000D+00  0.0000000000000D+00  0.0000000000000D+00
332  3.3100000000000D+00  0.0000000000000D+00  0.0000000000000D+00
333  3.3200000000000D+00  0.0000000000000D+00  0.0000000000000D+00
334  3.3300000000000D+00  0.0000000000000D+00  0.0000000000000D+00
335  3.3400000000000D+00  0.0000000000000D+00  0.0000000000000D+00
336  3.3500000000000D+00  0.0000000000000D+00  0.0000000000000D+00
337  3.3600000000000D+00  0.0000000000000D+00  0.0000000000000D+00
338  3.3700000000000D+00  0.0000000000000D+00  0.0000000000000D+00
339  3.3800000000000D+00  0.0000000000000D+00  0.0000000000000D+00
340  3.3900000000000D+00  0.0000000000000D+00  0.0000000000000D+00
341  3.4000000000000D+00  0.0000000000000D+00  0.0000000000000D+00
342  3.4100000000000D+00  0.0000000000000D+00  0.0000000000000D+00
343  3.4200000000000D+00  0.0000000000000D+00  0.0000000000000D+00
344  3.4300000000000D+00  0.0000000000000D+00  0.0000000000000D+00
345  3.4400000000000D+00  0.0000000000000D+00  0.0000000000000D+00
346  3.4500000000000D+00  0.0000000000000D+00  0.0000000000000D+00
347  3.4600000000000D+00  0.0000000000000D+00  0.0000000000000D+00
348  3.4700000000000D+00  0.0000000000000D+00  0.0000000000000D+00
349  3.4800000000000D+00  0.0000000000000D+00  0.0000000000000D+00
350  3.4900000000000D+00  0.0000000000000D+00  0.0000000000000D+00
351  3.5000000000000D+00  0.0000000000000D+00  0.0000000000000D+00
352  3.5100000000000D+00  0.0000000000000D+00  0.0000000000000D+00
353  3.5200000000000D+00  0.0000000000000D+00  0.0000000000000D+00
354  3.5300000000000D+00  0.0000000000000D+00  0.0000000000000D+00
355  3.5400000000000D+00  0.0000000000000D+00  0.0000000000000D+00
356  3.5500000000000D+00  0.0000000000000D+00  0.0000000000000D+00
357  3.5600000000000D+00  0.0000000000000D+00  0.0000000000000D+00
358  3.5700000000000D+00  0.0000000000000D+00  0.0000000000000D+00
359  3.5800000000000D+00  0.0000000000000D+00  0.0000000000000D+00
360  3.5900000000000D+00  0.0000000000000D+00  0.0000000000000D+00
361  3.6000000000000D+00  0.0000000000000D+00  0.0000000000000D+00
362  3.6100000000000D+00  0.0000000000000D+00  0.0000000000000D+00
363  3.6200000000000D+00  0.0000000000000D+00  0.0000000000000D+00
364  3.6300000000000D+00  0.0000000000000D+00  0.0000000000000D+00
365  3.6400000000000D+00  0.0000000000000D+00  0.0000000000000D+00
366  3.6500000000000D+00  0.0000000000000D+00  0.0000000000000D+00
367  3.6600000000000D+00  0.0000000000000D+00  0.0000000000000D+00
368  3.6700000000000D+00  0.0000000000000D+00  0.0000000000000D+00
369  3.6800000000000D+00  0.0000000000000D+00  0.0000000000000D+00
370  3.6900000000000D+00  0.0000000000000D+00  0.0000000000000D+00
371  3.7000000000000D+00  0.0000000000000D+00  0.0000000000000D+00
372  3.7100000000000D+00  0.0000000000000D+00  0.0000000000000D+00
373  3.7200000000000D+00  0.0000000000000D+00  0.0000000000000D+00
374  3.7300000000000D+00  0.0000000000000D+00  0.0000000000000D+00
375  3.7400000000000D+00  0.0000000000000D+00  0.0000000000000D+00
376  3.7500000000000D+00  0.0000000000000D+00  0.0000000000000D+00
377  3.7600000000000D+00  0.0000000000000D+00  0.0000000000000D+00
378  3.7700000000000D+00  0.0000000000000D+00  0.0000000000000D+00
379  3.7800000000000D+00  0.0000000000000D+00  0.0000000000000D+00
380  3.7900000000000D+00  0.0000000000000D+00  0.0000000000000D+00
381  3.8000000000000D+00  0.0000000000000D+00  0.0000000000000D+00
382  3.8100000000000D+00  0.0000000000000D+00  0.0000000000000D+00
383  3.8200000000000D+00  0.0000000000000D+00  0.0000000000000D+00
384  3.8300000000000D+00  0.0000000000000D+00  0.0000000000000D+00
385  3.8400000000000D+00  0.0000000000000D+00  0.0000000000000D+00
386  3.8500000000000D+00  0.0000000000000D+00  0.0000000000000D+00
387  3.8600000000000D+00  0.0000000000000D+00  0.0000000000000D+00
388  3.8700000000000D+00  0.0000000000000D+00  0.0000000000000D+00
389  3.8800000000000D+00  0.0000000000000D+00  0.0000000000000D+00
390  3.8900000000000D+00  0.0000000000000D+00  0.0000000000000D+00
391  3.9000000000000D+00  0.0000000000000D+00  0.0000000000000D+00
392  3.9100000000000D+00  0.0000000000000D+00  0.0000000000000D+00
393  3.9200000000000D+00  0.0000000000000D+00  0.0000000000000D+00
394  3.9300000000000D+00  0.0000000000000D+00  0.0000000000000D+00
395  3.9400000000000D+00  0.0000000000000D+00  0.0000000000000D+00
396  3.9500000000000D+00  0.0000000000000D+00  0.0000000000000D+00
397  3.9600000000000D+00  0.0000000000000D+00  0.0000000000000D+00
398  3.9700000000000D+00  0.0000000000000D+00  0.0000000000000D+00
399  3.9800000000000D+00  0.0000000000000D+00  0.0000000000000D+00
400  3.9900000000000D+00  0.0000000000000D+00  0.0000000000000D+00
401  4.0000000000000D+00  0.0000000000000D+00  0.0000000000000D+00
402  4.0100000000000D+00  0.0000000000000D+00  0.0000000000000D+00
403  4.0200000000000D+00  0.0000000000000D+00  0.0000000000000D+00
404  4.0300000000000D+00  0.0000000000000D+00  0.0000000000000D+00
405  4.0400000000000D+00  0.0000000000000D+00  0.0000000000000D+00
406  4.0500000000000D+00  0.0000000000000D+00  0.0000000000000D+00
407  4.0600000000000D+00  0.0000000000000D+00  0.0000000000000D+00
408  4.0700000000000D+00  0.0000000000000D+00  0.0000000000000D+00
409  4.0800000000000D+00  0.0000000000000D+00  0.0000000000000D+00
410  4.0900000000000D+00  0.0000000000000D+00  0.0000000000000D+00
411  4.1000000000000D+00  0.0000000000000D+00  0.0000000000000D+00
412  4.1100000000000D+00  0.0000000000000D+00  0.0000000000000D+00
413  4.1200000000000D+00  0.0000000000000D+00  0.0000000000000D+00
414  4.1300000000000D+00  0.0000000000000D+00  0.0000000000000D+00
415  4.1400000000000D+00  0.0000000000000D+00  0.0000000000000D+00
416  4.1500000000000D+00  0.0000000000000D+00  0.0000000000000D+00
417  4.1600000000000D+00  0.0000000000000D+00  0.0000000000000D+00
418  4.1700000000000D+00  0.0000000000000D+00  0.0000000000000D+00
419  4.1800000000000D+00  0.0000000000000D+00  0.0000000000000D+00
420  4.1900000000000D+00  0.0000000000000D+00  0.0000000000000D+00
421  4.2000000000000D+00  0.0000000000000D+00  0.0000000000000D+00
422  4.2100000000000D+00  0.0000000000000D+00  0.0000000000000D+00
423  4.2200000000000D+00  0.0000000000000D+00  0.0000000000000D+00
424  4.2300000000000D+00  0.0000000000000D+00  0.0000000000000D+00
425  4.2400000000000D+00  0.0000000000000D+00  0.0000000000000D+00
426  4.2500000000000D+00  0.0000000000000D+00  0.0000000000000D+00
427  4.2600000000000D+00  0.0000000000000D+00  0.0000000000000D+00
428  4.2700000000000D+00  0.0000000000000D+00  0.0000000000000D+00
429  4.2800000000000D+00  0.0000000000000D+00  0.0000000000000D+00
430  4.2900000000000D+00  0.0000000000000D+00  0.0000000000000D+00
431  4.3000000000000D+00  0.0000000000000D+00  0.0000000000000D+00
432  4.3100000000000D+00  0.0000000000000D+00  0.0000000000000D+00
433  4.3200000000000D+00  0.0000000000000D+00  0.0000000000000D+00
434  4.3300000000000D+00  0.0000000000000D+00  0.0000000000000D+00
435  4.3400000000000D+00  0.0000000000000D+00  0.0000000000000D+00
436  4.3500000000000D+00  0.0000000000000D+00  0.0000000000000D+00
437  4.3600000000000D+00  0.0000000000000D+00  0.0000000000000D+00
438  4.3700000000000D+00  0.0000000000000D+00  0.0000000000000D+00
439  4.3800000000000D+00  0.0000000000000D+00  0.0000000000000D+00
440  4.3900000000000D+00  0.0000000000000D+00  0.0000000000000D+00
441  4.4000000000000D+00  0.0000000000000D+00  0.0000000000000D+00
442  4.4100000000000D+00  0.0000000000000D+00  0.0000000000000D+00
443  4.4200000000000D+00  0.0000000000000D+00  0.0000000000000D+00
444  4.4300000000000D+00  0.0000000000000D+00  0.0000000000000D+00