Hg    ONCVPSP  r_core=  1.60  1.60  1.46  1.60
80.0000     20.0000      161103    zatom,zion,pspd
8      11   3     4   600     0    pspcod,pspxc,lmax,lloc,mmax,r2well
5.99000000  5.00000000  0.00000000    rchrg fchrg qchrg
2     2     2     1     0    nproj
1                 extension_switch
0                         1.3214784224716D+01  1.8684643206653D+00
1  0.0000000000000D+00 -3.9674419305413D-10  7.8424645943986D-10
2  1.0000000000000D-02  7.6239483858744D-02 -1.1690409308376D-02
3  2.0000000000000D-02  1.5226906482107D-01 -2.3202636331443D-02
4  3.0000000000000D-02  2.2787986953728D-01 -3.4360080851319D-02
5  4.0000000000000D-02  3.0286507465212D-01 -4.4989289467673D-02
6  5.0000000000000D-02  3.7702090915656D-01 -5.4921485914885D-02
7  6.0000000000000D-02  4.5014762984971D-01 -6.3994050231736D-02
8  7.0000000000000D-02  5.2205046141809D-01 -7.2051930664995D-02
9  8.0000000000000D-02  5.9254049303682D-01 -7.8948972972518D-02
10  9.0000000000000D-02  6.6143552388380D-01 -8.4549152754802D-02
11  1.0000000000000D-01  7.2856085053136D-01 -8.8727697575847D-02
12  1.1000000000000D-01  7.9374998983038D-01 -9.1372086921602D-02
13  1.2000000000000D-01  8.5684533162457D-01 -9.2382919472609D-02
14  1.3000000000000D-01  9.1769871641804D-01 -9.1674638720643D-02
15  1.4000000000000D-01  9.7617193395874D-01 -8.9176109619209D-02
16  1.5000000000000D-01  1.0321371395839D+00 -8.4831040705802D-02
17  1.6000000000000D-01  1.0854771860922D+00 -7.8598247949874D-02
18  1.7000000000000D-01  1.1360858698483D+00 -7.0451758443320D-02
19  1.8000000000000D-01  1.1838680907805D+00 -6.0380753938737D-02
20  1.9000000000000D-01  1.2287399268874D+00 -4.8389356132143D-02
21  2.0000000000000D-01  1.2706286248171D+00 -3.4496257460131D-02
22  2.1000000000000D-01  1.3094725090050D+00 -1.8734203013122D-02
23  2.2000000000000D-01  1.3452208127547D+00 -1.1493309362250D-03
24  2.3000000000000D-01  1.3778334354928D+00  1.8199619625200D-02
25  2.4000000000000D-01  1.4072806312306D+00  3.9242222396494D-02
26  2.5000000000000D-01  1.4335426340004D+00  6.1897387564057D-02
27  2.6000000000000D-01  1.4566092266993D+00  8.6074481671260D-02
28  2.7000000000000D-01  1.4764792603583D+00  1.1167452924712D-01
29  2.8000000000000D-01  1.4931601313528D+00  1.3859148060908D-01
30  2.9000000000000D-01  1.5066672244742D+00  1.6671352948065D-01
31  3.0000000000000D-01  1.5170233300892D+00  1.9592446346142D-01
32  3.1000000000000D-01  1.5242580438134D+00  2.2610502998863D-01
33  3.2000000000000D-01  1.5284071572233D+00  2.5713430024309D-01
34  3.3000000000000D-01  1.5295120481177D+00  2.8889101348152D-01
35  3.4000000000000D-01  1.5276190787176D+00  3.2125488452425D-01
36  3.5000000000000D-01  1.5227790099657D+00  3.5410785758975D-01
37  3.6000000000000D-01  1.5150464397500D+00  3.8733529034257D-01
38  3.7000000000000D-01  1.5044792724386D+00  4.2082705290324D-01
39  3.8000000000000D-01  1.4911382265765D+00  4.5447852764697D-01
40  3.9000000000000D-01  1.4750863869656D+00  4.8819149688405D-01
41  4.0000000000000D-01  1.4563888066389D+00  5.2187490695245D-01
42  4.1000000000000D-01  1.4351121634434D+00  5.5544549884822D-01
43  4.2000000000000D-01  1.4113244750952D+00  5.8882829725345D-01
44  4.3000000000000D-01  1.3850948756466D+00  6.2195695167449D-01
45  4.4000000000000D-01  1.3564934553493D+00  6.5477392535441D-01
46  4.5000000000000D-01  1.3255911648950D+00  6.8723052964909D-01
47  4.6000000000000D-01  1.2924597840000D+00  7.1928680363241D-01
48  4.7000000000000D-01  1.2571719532655D+00  7.5091124079764D-01
49  4.8000000000000D-01  1.2198012672254D+00  7.8208036682273D-01
50  4.9000000000000D-01  1.1804224254808D+00  8.1277817444159D-01
51  5.0000000000000D-01  1.1391114378427D+00  8.4299542348448D-01
52  5.1000000000000D-01  1.0959458784695D+00  8.7272881609217D-01
53  5.2000000000000D-01  1.0510051831082D+00  9.0198005894637D-01
54  5.3000000000000D-01  1.0043709827346D+00  9.3075482606763D-01
55  5.4000000000000D-01  9.5612746616021D-01  9.5906163728605D-01
56  5.5000000000000D-01  9.0636176353409D-01  9.8691066887329D-01
57  5.6000000000000D-01  8.5516434212882D-01  1.0143125140102D+00
58  5.7000000000000D-01  8.0262940537249D-01  1.0412769117382D+00
59  5.8000000000000D-01  7.4885528577773D-01  1.0678114637907D+00
60  5.9000000000000D-01  6.9394482223216D-01  1.0939203592021D+00
61  6.0000000000000D-01  6.3800571205674D-01  1.1196031268494D+00
62  6.1000000000000D-01  5.8115082831150D-01  1.1448534360717D+00
63  6.2000000000000D-01  5.2349849303693D-01  1.1696579652457D+00
64  6.3000000000000D-01  4.6517269745970D-01  1.1939953576610D+00
65  6.4000000000000D-01  4.0630326066411D-01  1.2178352832433D+00
66  6.5000000000000D-01  3.4702591883457D-01  1.2411376236190D+00
67  6.6000000000000D-01  2.8748233789807D-01  1.2638517967163D+00
68  6.7000000000000D-01  2.2782004323843D-01  1.2859162355598D+00
69  6.8000000000000D-01  1.6819226110645D-01  1.3072580341573D+00
70  6.9000000000000D-01  1.0875766740057D-01  1.3277927714132D+00
71  7.0000000000000D-01  4.9680040625194D-02  1.3474245218737D+00
72  7.1000000000000D-01 -8.8721829472534D-03  1.3660460597917D+00
73  7.2000000000000D-01 -6.6726452616349D-02  1.3835392605805D+00
74  7.3000000000000D-01 -1.2370674448109D-01  1.3997757011841D+00
75  7.4000000000000D-01 -1.7963429858947D-01  1.4146174582837D+00
76  7.5000000000000D-01 -2.3432844868786D-01  1.4279181006177D+00
77  7.6000000000000D-01 -2.8760753988067D-01  1.4395238690175D+00
78  7.7000000000000D-01 -3.3928992817829D-01  1.4492750351392D+00
79  7.8000000000000D-01 -3.8919505460907D-01  1.4570074272874D+00
80  7.9000000000000D-01 -4.3714458532653D-01  1.4625541092418D+00
81  8.0000000000000D-01 -4.8296360797118D-01  1.4657471956338D+00
82  8.1000000000000D-01 -5.2648187346330D-01  1.4664197852159D+00
83  8.2000000000000D-01 -5.6753507142463D-01  1.4644079913456D+00
84  8.3000000000000D-01 -6.0596612656804D-01  1.4595530472028D+00
85  8.4000000000000D-01 -6.4162650266811D-01  1.4517034616977D+00
86  8.5000000000000D-01 -6.7437750014427D-01  1.4407172007335D+00
87  8.6000000000000D-01 -7.0409153286266D-01  1.4264638674786D+00
88  8.7000000000000D-01 -7.3065336950100D-01  1.4088268546052D+00
89  8.8000000000000D-01 -7.5396132473095D-01  1.3877054410688D+00
90  8.9000000000000D-01 -7.7392838555808D-01  1.3630168059541D+00
91  9.0000000000000D-01 -7.9048325842425D-01  1.3346979322011D+00
92  9.1000000000000D-01 -8.0357132312224D-01  1.3027073736564D+00
93  9.2000000000000D-01 -8.1315548019436D-01  1.2670268598593D+00
94  9.3000000000000D-01 -8.1921687928448D-01  1.2276627142784D+00
95  9.4000000000000D-01 -8.2175551687756D-01  1.1846470633359D+00
96  9.5000000000000D-01 -8.2079069298643D-01  1.1380388154937D+00
97  9.6000000000000D-01 -8.1636131762080D-01  1.0879243919003D+00
98  9.7000000000000D-01 -8.0852605928569D-01  1.0344181925903D+00
99  9.8000000000000D-01 -7.9736332928609D-01  9.7766278495652D-01
100  9.9000000000000D-01 -7.8297109729386D-01  9.1782880422949D-01
101  1.0000000000000D+00 -7.6546653527715D-01  8.5511455867327D-01
102  1.0100000000000D+00 -7.4498548880369D-01  7.8974533568045D-01
103  1.0200000000000D+00 -7.2168177650626D-01  7.2197240819960D-01
104  1.0300000000000D+00 -6.9572632040628D-01  6.5207174443065D-01
105  1.0400000000000D+00 -6.6730611166500D-01  5.8034242718040D-01
106  1.0500000000000D+00 -6.3662301826415D-01  5.0710479285176D-01
107  1.0600000000000D+00 -6.0389244280520D-01  4.3269830317784D-01
108  1.0700000000000D+00 -5.6934184056077D-01  3.5747916644492D-01
109  1.0800000000000D+00 -5.3320910950197D-01  2.8181772793455D-01
110  1.0900000000000D+00 -4.9574086561890D-01  2.0609565231893D-01
111  1.1000000000000D+00 -4.5719061839115D-01  1.3070292366709D-01
112  1.1100000000000D+00 -4.1781686237434D-01  5.6034690832396D-02
113  1.1200000000000D+00 -3.7788110230756D-01 -1.7512011240284D-02
114  1.1300000000000D+00 -3.3764582991382D-01 -8.9541632250722D-02
115  1.1400000000000D+00 -2.9737247143937D-01 -1.5966353555539D-01
116  1.1500000000000D+00 -2.5731932547586D-01 -2.2749545068520D-01
117  1.1600000000000D+00 -2.1773951110608D-01 -2.9266691354621D-01
118  1.1700000000000D+00 -1.7887894647765D-01 -3.5482265826605D-01
119  1.1800000000000D+00 -1.4097437771974D-01 -4.1362592486627D-01
120  1.1900000000000D+00 -1.0425147810569D-01 -4.6876164689923D-01
121  1.2000000000000D+00 -6.8923036559030D-02 -5.1993948450108D-01
122  1.2100000000000D+00 -3.5187253843216D-02 -5.6689666963714D-01
123  1.2200000000000D+00 -3.2261639745284D-03 -6.0940063169521D-01
124  1.2300000000000D+00  2.6795802737409D-02 -6.4725137356580D-01
125  1.2400000000000D+00  5.4733100409895D-02 -6.8028357154763D-01
126  1.2500000000000D+00  8.0460178804308D-02 -7.0836837483561D-01
127  1.2600000000000D+00  1.0387241283315D-01 -7.3141488222628D-01
128  1.2700000000000D+00  1.2488684135807D-01 -7.4937127947186D-01
129  1.2800000000000D+00  1.4344270762559D-01 -7.6222562316545D-01
130  1.2900000000000D+00  1.5950179466956D-01 -7.7000625880008D-01
131  1.3000000000000D+00  1.7304855358767D-01 -7.7278186898075D-01
132  1.3100000000000D+00  1.8409002320622D-01 -7.7066114888933D-01
133  1.3200000000000D+00  1.9265554114296D-01 -7.6379210881160D-01
134  1.3300000000000D+00  1.9879625151095D-01 -7.5236101311728D-01
135  1.3400000000000D+00  2.0258441369338D-01 -7.3659096360197D-01
136  1.3500000000000D+00  2.0411251976742D-01 -7.1674014085469D-01
137  1.3600000000000D+00  2.0349223242364D-01 -6.9309972516561D-01
138  1.3700000000000D+00  2.0085315301287D-01 -6.6599151441455D-01
139  1.3800000000000D+00  1.9634143529706D-01 -6.3576526730530D-01
140  1.3900000000000D+00  1.9011826081381D-01 -6.0279580093807D-01
141  1.4000000000000D+00  1.8235819128191D-01 -5.6747987081200D-01
142  1.4100000000000D+00  1.7324742413321D-01 -5.3023288215092D-01
143  1.4200000000000D+00  1.6298193647321D-01 -4.9148539728095D-01
144  1.4300000000000D+00  1.5176566802993D-01 -4.5167974632481D-01
145  1.4400000000000D+00  1.3980831657611D-01 -4.1126585288612D-01
146  1.4500000000000D+00  1.2732389393163D-01 -3.7069864430012D-01
147  1.4600000000000D+00  1.1452866405377D-01 -3.3043419754637D-01
148  1.4700000000000D+00  1.0163668249741D-01 -2.9092086081566D-01
149  1.4800000000000D+00  8.8855845278024D-02 -2.5259151962141D-01
150  1.4900000000000D+00  7.6383404050544D-02 -2.1585482641445D-01
151  1.5000000000000D+00  6.4403712056238D-02 -1.8109106682249D-01
152  1.5100000000000D+00  5.3087013851931D-02 -1.4865021159963D-01
153  1.5200000000000D+00  4.2587432729387D-02 -1.1884822326672D-01
154  1.5300000000000D+00  3.3041530695728D-02 -9.1964531145282D-02
155  1.5400000000000D+00  2.4566916514108D-02 -6.8239556725073D-02
156  1.5500000000000D+00  1.7265021483607D-02 -4.7883642208226D-02
157  1.5600000000000D+00  1.1203355593451D-02 -3.1028641366512D-02
158  1.5700000000000D+00  6.4101339738953D-03 -1.7715018522222D-02
159  1.5800000000000D+00  2.9972481033526D-03 -8.2291533903222D-03
160  1.5900000000000D+00  1.0334228629063D-03 -2.7519500560081D-03
161  1.6000000000000D+00  1.9101383504340D-04 -4.0894397689589D-04
162  1.6100000000000D+00 -2.9226099848033D-05  1.4680115678051D-04
163  1.6200000000000D+00 -1.2488996161080D-08  4.5617452489600D-08
164  1.6300000000000D+00  1.9896565919410D-05 -6.8030749526093D-05
165  1.6400000000000D+00 -2.8705168879230D-07  1.1314993777646D-06
166  1.6500000000000D+00 -2.9274406715802D-06  1.0978058610235D-05
167  1.6600000000000D+00 -7.4147878182756D-08  1.4966236898455D-07
168  1.6700000000000D+00 -4.3621888083995D-07  8.8047767113964D-07
169  1.6800000000000D+00  0.0000000000000D+00  0.0000000000000D+00
170  1.6900000000000D+00  0.0000000000000D+00  0.0000000000000D+00
171  1.7000000000000D+00  0.0000000000000D+00  0.0000000000000D+00
172  1.7100000000000D+00  0.0000000000000D+00  0.0000000000000D+00
173  1.7200000000000D+00  0.0000000000000D+00  0.0000000000000D+00
174  1.7300000000000D+00  0.0000000000000D+00  0.0000000000000D+00
175  1.7400000000000D+00  0.0000000000000D+00  0.0000000000000D+00
176  1.7500000000000D+00  0.0000000000000D+00  0.0000000000000D+00
177  1.7600000000000D+00  0.0000000000000D+00  0.0000000000000D+00
178  1.7700000000000D+00  0.0000000000000D+00  0.0000000000000D+00
179  1.7800000000000D+00  0.0000000000000D+00  0.0000000000000D+00
180  1.7900000000000D+00  0.0000000000000D+00  0.0000000000000D+00
181  1.8000000000000D+00  0.0000000000000D+00  0.0000000000000D+00
182  1.8100000000000D+00  0.0000000000000D+00  0.0000000000000D+00
183  1.8200000000000D+00  0.0000000000000D+00  0.0000000000000D+00
184  1.8300000000000D+00  0.0000000000000D+00  0.0000000000000D+00
185  1.8400000000000D+00  0.0000000000000D+00  0.0000000000000D+00
186  1.8500000000000D+00  0.0000000000000D+00  0.0000000000000D+00
187  1.8600000000000D+00  0.0000000000000D+00  0.0000000000000D+00
188  1.8700000000000D+00  0.0000000000000D+00  0.0000000000000D+00
189  1.8800000000000D+00  0.0000000000000D+00  0.0000000000000D+00
190  1.8900000000000D+00  0.0000000000000D+00  0.0000000000000D+00
191  1.9000000000000D+00  0.0000000000000D+00  0.0000000000000D+00
192  1.9100000000000D+00  0.0000000000000D+00  0.0000000000000D+00
193  1.9200000000000D+00  0.0000000000000D+00  0.0000000000000D+00
194  1.9300000000000D+00  0.0000000000000D+00  0.0000000000000D+00
195  1.9400000000000D+00  0.0000000000000D+00  0.0000000000000D+00
196  1.9500000000000D+00  0.0000000000000D+00  0.0000000000000D+00
197  1.9600000000000D+00  0.0000000000000D+00  0.0000000000000D+00
198  1.9700000000000D+00  0.0000000000000D+00  0.0000000000000D+00
199  1.9800000000000D+00  0.0000000000000D+00  0.0000000000000D+00
200  1.9900000000000D+00  0.0000000000000D+00  0.0000000000000D+00
201  2.0000000000000D+00  0.0000000000000D+00  0.0000000000000D+00
202  2.0100000000000D+00  0.0000000000000D+00  0.0000000000000D+00
203  2.0200000000000D+00  0.0000000000000D+00  0.0000000000000D+00
204  2.0300000000000D+00  0.0000000000000D+00  0.0000000000000D+00
205  2.0400000000000D+00  0.0000000000000D+00  0.0000000000000D+00
206  2.0500000000000D+00  0.0000000000000D+00  0.0000000000000D+00
207  2.0600000000000D+00  0.0000000000000D+00  0.0000000000000D+00
208  2.0700000000000D+00  0.0000000000000D+00  0.0000000000000D+00
209  2.0800000000000D+00  0.0000000000000D+00  0.0000000000000D+00
210  2.0900000000000D+00  0.0000000000000D+00  0.0000000000000D+00
211  2.1000000000000D+00  0.0000000000000D+00  0.0000000000000D+00
212  2.1100000000000D+00  0.0000000000000D+00  0.0000000000000D+00
213  2.1200000000000D+00  0.0000000000000D+00  0.0000000000000D+00
214  2.1300000000000D+00  0.0000000000000D+00  0.0000000000000D+00
215  2.1400000000000D+00  0.0000000000000D+00  0.0000000000000D+00
216  2.1500000000000D+00  0.0000000000000D+00  0.0000000000000D+00
217  2.1600000000000D+00  0.0000000000000D+00  0.0000000000000D+00
218  2.1700000000000D+00  0.0000000000000D+00  0.0000000000000D+00
219  2.1800000000000D+00  0.0000000000000D+00  0.0000000000000D+00
220  2.1900000000000D+00  0.0000000000000D+00  0.0000000000000D+00
221  2.2000000000000D+00  0.0000000000000D+00  0.0000000000000D+00
222  2.2100000000000D+00  0.0000000000000D+00  0.0000000000000D+00
223  2.2200000000000D+00  0.0000000000000D+00  0.0000000000000D+00
224  2.2300000000000D+00  0.0000000000000D+00  0.0000000000000D+00
225  2.2400000000000D+00  0.0000000000000D+00  0.0000000000000D+00
226  2.2500000000000D+00  0.0000000000000D+00  0.0000000000000D+00
227  2.2600000000000D+00  0.0000000000000D+00  0.0000000000000D+00
228  2.2700000000000D+00  0.0000000000000D+00  0.0000000000000D+00
229  2.2800000000000D+00  0.0000000000000D+00  0.0000000000000D+00
230  2.2900000000000D+00  0.0000000000000D+00  0.0000000000000D+00
231  2.3000000000000D+00  0.0000000000000D+00  0.0000000000000D+00
232  2.3100000000000D+00  0.0000000000000D+00  0.0000000000000D+00
233  2.3200000000000D+00  0.0000000000000D+00  0.0000000000000D+00
234  2.3300000000000D+00  0.0000000000000D+00  0.0000000000000D+00
235  2.3400000000000D+00  0.0000000000000D+00  0.0000000000000D+00
236  2.3500000000000D+00  0.0000000000000D+00  0.0000000000000D+00
237  2.3600000000000D+00  0.0000000000000D+00  0.0000000000000D+00
238  2.3700000000000D+00  0.0000000000000D+00  0.0000000000000D+00
239  2.3800000000000D+00  0.0000000000000D+00  0.0000000000000D+00
240  2.3900000000000D+00  0.0000000000000D+00  0.0000000000000D+00
241  2.4000000000000D+00  0.0000000000000D+00  0.0000000000000D+00
242  2.4100000000000D+00  0.0000000000000D+00  0.0000000000000D+00
243  2.4200000000000D+00  0.0000000000000D+00  0.0000000000000D+00
244  2.4300000000000D+00  0.0000000000000D+00  0.0000000000000D+00
245  2.4400000000000D+00  0.0000000000000D+00  0.0000000000000D+00
246  2.4500000000000D+00  0.0000000000000D+00  0.0000000000000D+00
247  2.4600000000000D+00  0.0000000000000D+00  0.0000000000000D+00
248  2.4700000000000D+00  0.0000000000000D+00  0.0000000000000D+00
249  2.4800000000000D+00  0.0000000000000D+00  0.0000000000000D+00
250  2.4900000000000D+00  0.0000000000000D+00  0.0000000000000D+00
251  2.5000000000000D+00  0.0000000000000D+00  0.0000000000000D+00
252  2.5100000000000D+00  0.0000000000000D+00  0.0000000000000D+00
253  2.5200000000000D+00  0.0000000000000D+00  0.0000000000000D+00
254  2.5300000000000D+00  0.0000000000000D+00  0.0000000000000D+00
255  2.5400000000000D+00  0.0000000000000D+00  0.0000000000000D+00
256  2.5500000000000D+00  0.0000000000000D+00  0.0000000000000D+00
257  2.5600000000000D+00  0.0000000000000D+00  0.0000000000000D+00
258  2.5700000000000D+00  0.0000000000000D+00  0.0000000000000D+00
259  2.5800000000000D+00  0.0000000000000D+00  0.0000000000000D+00
260  2.5900000000000D+00  0.0000000000000D+00  0.0000000000000D+00
261  2.6000000000000D+00  0.0000000000000D+00  0.0000000000000D+00
262  2.6100000000000D+00  0.0000000000000D+00  0.0000000000000D+00
263  2.6200000000000D+00  0.0000000000000D+00  0.0000000000000D+00
264  2.6300000000000D+00  0.0000000000000D+00  0.0000000000000D+00
265  2.6400000000000D+00  0.0000000000000D+00  0.0000000000000D+00
266  2.6500000000000D+00  0.0000000000000D+00  0.0000000000000D+00
267  2.6600000000000D+00  0.0000000000000D+00  0.0000000000000D+00
268  2.6700000000000D+00  0.0000000000000D+00  0.0000000000000D+00
269  2.6800000000000D+00  0.0000000000000D+00  0.0000000000000D+00
270  2.6900000000000D+00  0.0000000000000D+00  0.0000000000000D+00
271  2.7000000000000D+00  0.0000000000000D+00  0.0000000000000D+00
272  2.7100000000000D+00  0.0000000000000D+00  0.0000000000000D+00
273  2.7200000000000D+00  0.0000000000000D+00  0.0000000000000D+00
274  2.7300000000000D+00  0.0000000000000D+00  0.0000000000000D+00
275  2.7400000000000D+00  0.0000000000000D+00  0.0000000000000D+00
276  2.7500000000000D+00  0.0000000000000D+00  0.0000000000000D+00
277  2.7600000000000D+00  0.0000000000000D+00  0.0000000000000D+00
278  2.7700000000000D+00  0.0000000000000D+00  0.0000000000000D+00
279  2.7800000000000D+00  0.0000000000000D+00  0.0000000000000D+00
280  2.7900000000000D+00  0.0000000000000D+00  0.0000000000000D+00
281  2.8000000000000D+00  0.0000000000000D+00  0.0000000000000D+00
282  2.8100000000000D+00  0.0000000000000D+00  0.0000000000000D+00
283  2.8200000000000D+00  0.0000000000000D+00  0.0000000000000D+00
284  2.8300000000000D+00  0.0000000000000D+00  0.0000000000000D+00
285  2.8400000000000D+00  0.0000000000000D+00  0.0000000000000D+00
286  2.8500000000000D+00  0.0000000000000D+00  0.0000000000000D+00
287  2.8600000000000D+00  0.0000000000000D+00  0.0000000000000D+00
288  2.8700000000000D+00  0.0000000000000D+00  0.0000000000000D+00
289  2.8800000000000D+00  0.0000000000000D+00  0.0000000000000D+00
290  2.8900000000000D+00  0.0000000000000D+00  0.0000000000000D+00
291  2.9000000000000D+00  0.0000000000000D+00  0.0000000000000D+00
292  2.9100000000000D+00  0.0000000000000D+00  0.0000000000000D+00
293  2.9200000000000D+00  0.0000000000000D+00  0.0000000000000D+00
294  2.9300000000000D+00  0.0000000000000D+00  0.0000000000000D+00
295  2.9400000000000D+00  0.0000000000000D+00  0.0000000000000D+00
296  2.9500000000000D+00  0.0000000000000D+00  0.0000000000000D+00
297  2.9600000000000D+00  0.0000000000000D+00  0.0000000000000D+00
298  2.9700000000000D+00  0.0000000000000D+00  0.0000000000000D+00
299  2.9800000000000D+00  0.0000000000000D+00  0.0000000000000D+00
300  2.9900000000000D+00  0.0000000000000D+00  0.0000000000000D+00
301  3.0000000000000D+00  0.0000000000000D+00  0.0000000000000D+00
302  3.0100000000000D+00  0.0000000000000D+00  0.0000000000000D+00
303  3.0200000000000D+00  0.0000000000000D+00  0.0000000000000D+00
304  3.0300000000000D+00  0.0000000000000D+00  0.0000000000000D+00
305  3.0400000000000D+00  0.0000000000000D+00  0.0000000000000D+00
306  3.0500000000000D+00  0.0000000000000D+00  0.0000000000000D+00
307  3.0600000000000D+00  0.0000000000000D+00  0.0000000000000D+00
308  3.0700000000000D+00  0.0000000000000D+00  0.0000000000000D+00
309  3.0800000000000D+00  0.0000000000000D+00  0.0000000000000D+00
310  3.0900000000000D+00  0.0000000000000D+00  0.0000000000000D+00
311  3.1000000000000D+00  0.0000000000000D+00  0.0000000000000D+00
312  3.1100000000000D+00  0.0000000000000D+00  0.0000000000000D+00
313  3.1200000000000D+00  0.0000000000000D+00  0.0000000000000D+00
314  3.1300000000000D+00  0.0000000000000D+00  0.0000000000000D+00
315  3.1400000000000D+00  0.0000000000000D+00  0.0000000000000D+00
316  3.1500000000000D+00  0.0000000000000D+00  0.0000000000000D+00
317  3.1600000000000D+00  0.0000000000000D+00  0.0000000000000D+00
318  3.1700000000000D+00  0.0000000000000D+00  0.0000000000000D+00
319  3.1800000000000D+00  0.0000000000000D+00  0.0000000000000D+00
320  3.1900000000000D+00  0.0000000000000D+00  0.0000000000000D+00
321  3.2000000000000D+00  0.0000000000000D+00  0.0000000000000D+00
322  3.2100000000000D+00  0.0000000000000D+00  0.0000000000000D+00
323  3.2200000000000D+00  0.0000000000000D+00  0.0000000000000D+00
324  3.2300000000000D+00  0.0000000000000D+00  0.0000000000000D+00
325  3.2400000000000D+00  0.0000000000000D+00  0.0000000000000D+00
326  3.2500000000000D+00  0.0000000000000D+00  0.0000000000000D+00
327  3.2600000000000D+00  0.0000000000000D+00  0.0000000000000D+00
328  3.2700000000000D+00  0.0000000000000D+00  0.0000000000000D+00
329  3.2800000000000D+00  0.0000000000000D+00  0.0000000000000D+00
330  3.2900000000000D+00  0.0000000000000D+00  0.0000000000000D+00
331  3.3000000000000D+00  0.0000000000000D+00  0.0000000000000D+00
332  3.3100000000000D+00  0.0000000000000D+00  0.0000000000000D+00
333  3.3200000000000D+00  0.0000000000000D+00  0.0000000000000D+00
334  3.3300000000000D+00  0.0000000000000D+00  0.0000000000000D+00
335  3.3400000000000D+00  0.0000000000000D+00  0.0000000000000D+00
336  3.3500000000000D+00  0.0000000000000D+00  0.0000000000000D+00
337  3.3600000000000D+00  0.0000000000000D+00  0.0000000000000D+00
338  3.3700000000000D+00  0.0000000000000D+00  0.0000000000000D+00
339  3.3800000000000D+00  0.0000000000000D+00  0.0000000000000D+00
340  3.3900000000000D+00  0.0000000000000D+00  0.0000000000000D+00
341  3.4000000000000D+00  0.0000000000000D+00  0.0000000000000D+00
342  3.4100000000000D+00  0.0000000000000D+00  0.0000000000000D+00
343  3.4200000000000D+00  0.0000000000000D+00  0.0000000000000D+00
344  3.4300000000000D+00  0.0000000000000D+00  0.0000000000000D+00
345  3.4400000000000D+00  0.0000000000000D+00  0.0000000000000D+00
346  3.4500000000000D+00  0.0000000000000D+00  0.0000000000000D+00
347  3.4600000000000D+00  0.0000000000000D+00  0.0000000000000D+00
348  3.4700000000000D+00  0.0000000000000D+00  0.0000000000000D+00
349  3.4800000000000D+00  0.0000000000000D+00  0.0000000000000D+00
350  3.4900000000000D+00  0.0000000000000D+00  0.0000000000000D+00
351  3.5000000000000D+00  0.0000000000000D+00  0.0000000000000D+00
352  3.5100000000000D+00  0.0000000000000D+00  0.0000000000000D+00
353  3.5200000000000D+00  0.0000000000000D+00  0.0000000000000D+00
354  3.5300000000000D+00  0.0000000000000D+00  0.0000000000000D+00
355  3.5400000000000D+00  0.0000000000000D+00  0.0000000000000D+00
356  3.5500000000000D+00  0.0000000000000D+00  0.0000000000000D+00
357  3.5600000000000D+00  0.0000000000000D+00  0.0000000000000D+00
358  3.5700000000000D+00  0.0000000000000D+00  0.0000000000000D+00
359  3.5800000000000D+00  0.0000000000000D+00  0.0000000000000D+00
360  3.5900000000000D+00  0.0000000000000D+00  0.0000000000000D+00
361  3.6000000000000D+00  0.0000000000000D+00  0.0000000000000D+00
362  3.6100000000000D+00  0.0000000000000D+00  0.0000000000000D+00
363  3.6200000000000D+00  0.0000000000000D+00  0.0000000000000D+00
364  3.6300000000000D+00  0.0000000000000D+00  0.0000000000000D+00
365  3.6400000000000D+00  0.0000000000000D+00  0.0000000000000D+00
366  3.6500000000000D+00  0.0000000000000D+00  0.0000000000000D+00
367  3.6600000000000D+00  0.0000000000000D+00  0.0000000000000D+00
368  3.6700000000000D+00  0.0000000000000D+00  0.0000000000000D+00
369  3.6800000000000D+00  0.0000000000000D+00  0.0000000000000D+00
370  3.6900000000000D+00  0.0000000000000D+00  0.0000000000000D+00
371  3.7000000000000D+00  0.0000000000000D+00  0.0000000000000D+00
372  3.7100000000000D+00  0.0000000000000D+00  0.0000000000000D+00
373  3.7200000000000D+00  0.0000000000000D+00  0.0000000000000D+00
374  3.7300000000000D+00  0.0000000000000D+00  0.0000000000000D+00
375  3.7400000000000D+00  0.0000000000000D+00  0.0000000000000D+00
376  3.7500000000000D+00  0.0000000000000D+00  0.0000000000000D+00
377  3.7600000000000D+00  0.0000000000000D+00  0.0000000000000D+00
378  3.7700000000000D+00  0.0000000000000D+00  0.0000000000000D+00
379  3.7800000000000D+00  0.0000000000000D+00  0.0000000000000D+00
380  3.7900000000000D+00  0.0000000000000D+00  0.0000000000000D+00
381  3.8000000000000D+00  0.0000000000000D+00  0.0000000000000D+00
382  3.8100000000000D+00  0.0000000000000D+00  0.0000000000000D+00
383  3.8200000000000D+00  0.0000000000000D+00  0.0000000000000D+00
384  3.8300000000000D+00  0.0000000000000D+00  0.0000000000000D+00
385  3.8400000000000D+00  0.0000000000000D+00  0.0000000000000D+00
386  3.8500000000000D+00  0.0000000000000D+00  0.0000000000000D+00
387  3.8600000000000D+00  0.0000000000000D+00  0.0000000000000D+00
388  3.8700000000000D+00  0.0000000000000D+00  0.0000000000000D+00
389  3.8800000000000D+00  0.0000000000000D+00  0.0000000000000D+00
390  3.8900000000000D+00  0.0000000000000D+00  0.0000000000000D+00
391  3.9000000000000D+00  0.0000000000000D+00  0.0000000000000D+00
392  3.9100000000000D+00  0.0000000000000D+00  0.0000000000000D+00
393  3.9200000000000D+00  0.0000000000000D+00  0.0000000000000D+00
394  3.9300000000000D+00  0.0000000000000D+00  0.0000000000000D+00
395  3.9400000000000D+00  0.0000000000000D+00  0.0000000000000D+00
396  3.9500000000000D+00  0.0000000000000D+00  0.0000000000000D+00
397  3.9600000000000D+00  0.0000000000000D+00  0.0000000000000D+00
398  3.9700000000000D+00  0.0000000000000D+00  0.0000000000000D+00
399  3.9800000000000D+00  0.0000000000000D+00  0.0000000000000D+00
400  3.9900000000000D+00  0.0000000000000D+00  0.0000000000000D+00
401  4.0000000000000D+00  0.0000000000000D+00  0.0000000000000D+00
402  4.0100000000000D+00  0.0000000000000D+00  0.0000000000000D+00
403  4.0200000000000D+00  0.0000000000000D+00  0.0000000000000D+00
404  4.0300000000000D+00  0.0000000000000D+00  0.0000000000000D+00
405  4.0400000000000D+00  0.0000000000000D+00  0.0000000000000D+00
406  4.0500000000000D+00  0.0000000000000D+00  0.0000000000000D+00
407  4.0600000000000D+00  0.0000000000000D+00  0.0000000000000D+00
408  4.0700000000000D+00  0.0000000000000D+00  0.0000000000000D+00
409  4.0800000000000D+00  0.0000000000000D+00  0.0000000000000D+00
410  4.0900000000000D+00  0.0000000000000D+00  0.0000000000000D+00
411  4.1000000000000D+00  0.0000000000000D+00  0.0000000000000D+00
412  4.1100000000000D+00  0.0000000000000D+00  0.0000000000000D+00
413  4.1200000000000D+00  0.0000000000000D+00  0.0000000000000D+00
414  4.1300000000000D+00  0.0000000000000D+00  0.0000000000000D+00
415  4.1400000000000D+00  0.0000000000000D+00  0.0000000000000D+00
416  4.1500000000000D+00  0.0000000000000D+00  0.0000000000000D+00
417  4.1600000000000D+00  0.0000000000000D+00  0.0000000000000D+00
418  4.1700000000000D+00  0.0000000000000D+00  0.0000000000000D+00
419  4.1800000000000D+00  0.0000000000000D+00  0.0000000000000D+00
420  4.1900000000000D+00  0.0000000000000D+00  0.0000000000000D+00
421  4.2000000000000D+00  0.0000000000000D+00  0.0000000000000D+00
422  4.2100000000000D+00  0.0000000000000D+00  0.0000000000000D+00
423  4.2200000000000D+00  0.0000000000000D+00  0.0000000000000D+00
424  4.2300000000000D+00  0.0000000000000D+00  0.0000000000000D+00
425  4.2400000000000D+00  0.0000000000000D+00  0.0000000000000D+00
426  4.2500000000000D+00  0.0000000000000D+00  0.0000000000000D+00
427  4.2600000000000D+00  0.0000000000000D+00  0.0000000000000D+00
428  4.2700000000000D+00  0.0000000000000D+00  0.0000000000000D+00
429  4.2800000000000D+00  0.0000000000000D+00  0.0000000000000D+00
430  4.2900000000000D+00  0.0000000000000D+00  0.0000000000000D+00
431  4.3000000000000D+00  0.0000000000000D+00  0.0000000000000D+00
432  4.3100000000000D+00  0.0000000000000D+00  0.0000000000000D+00
433  4.3200000000000D+00  0.0000000000000D+00  0.0000000000000D+00
434  4.3300000000000D+00  0.0000000000000D+00  0.0000000000000D+00
435  4.3400000000000D+00  0.0000000000000D+00  0.0000000000000D+00
436  4.3500000000000D+00  0.0000000000000D+00  0.0000000000000D+00
437  4.3600000000000D+00  0.0000000000000D+00  0.0000000000000D+00
438  4.3700000000000D+00  0.0000000000000D+00  0.0000000000000D+00
439  4.3800000000000D+00  0.0000000000000D+00  0.0000000000000D+00
440  4.3900000000000D+00  0.0000000000000D+00  0.0000000000000D+00
441  4.4000000000000D+00  0.0000000000000D+00  0.0000000000000D+00
442  4.4100000000000D+00  0.0000000000000D+00  0.0000000000000D+00
443  4.4200000000000D+00  0.0000000000000D+00  0.0000000000000D+00