Hg    ONCVPSP  r_core=  1.56  1.60  1.46
80.0000     20.0000      161001    zatom,zion,pspd
8      11   2     4   600     0    pspcod,pspxc,lmax,lloc,mmax,r2well
5.99000000  9.00000000  0.00000000    rchrg fchrg qchrg
2     2     2     0     0    nproj
1                 extension_switch
0                         2.5668783579824D+01  2.5478998716712D+00
1  0.0000000000000D+00 -9.6109542546685D-10  1.3413147068736D-09
2  1.0000000000000D-02  8.0455524287241D-02 -2.8212760855388D-03
3  2.0000000000000D-02  1.6063033490959D-01 -5.4406875353357D-03
4  3.0000000000000D-02  2.4024561295815D-01 -7.6586483864242D-03
5  4.0000000000000D-02  3.1902630867747D-01 -9.2801021314190D-03
6  5.0000000000000D-02  3.9670297539350D-01 -1.0116717066939D-02
7  6.0000000000000D-02  4.7301354335338D-01 -9.9889993502025D-03
8  7.0000000000000D-02  5.4770501458948D-01 -8.7282979265902D-03
9  8.0000000000000D-02  6.2053506088098D-01 -6.1786768322837D-03
10  9.0000000000000D-02  6.9127350806613D-01 -2.1986320223675D-03
11  1.0000000000000D-01  7.5970369134206D-01  3.3373681933460D-03
12  1.1000000000000D-01  8.2562366776086D-01  1.0537537830727D-02
13  1.2000000000000D-01  8.8884727387133D-01  1.9491639321843D-02
14  1.3000000000000D-01  9.4920501834400D-01  3.0270074673005D-02
15  1.4000000000000D-01  1.0065448014312D+00  4.2923212536126D-02
16  1.5000000000000D-01  1.0607324552275D+00  5.7480959086703D-02
17  1.6000000000000D-01  1.1116521008859D+00  7.3952577544150D-02
18  1.7000000000000D-01  1.1592063211819D+00  9.2326758044560D-02
19  1.8000000000000D-01  1.2033161490774D+00  1.1257193642062D-01
20  1.9000000000000D-01  1.2439208751865D+00  1.3463685729720D-01
21  2.0000000000000D-01  1.2809776792630D+00  1.5845137381249D-01
22  2.1000000000000D-01  1.3144610929855D+00  1.8392747326251D-01
23  2.2000000000000D-01  1.3443623033778D+00  2.1096051507836D-01
24  2.3000000000000D-01  1.3706883081575D+00  2.3943066481783D-01
25  2.4000000000000D-01  1.3934609361125D+00  2.6920450532020D-01
26  2.5000000000000D-01  1.4127157472526D+00  3.0013680386735D-01
27  2.6000000000000D-01  1.4285008289474D+00  3.3207241214695D-01
28  2.7000000000000D-01  1.4408755055187D+00  3.6484827405053D-01
29  2.8000000000000D-01  1.4499089797927D+00  3.9829551488441D-01
30  2.9000000000000D-01  1.4556789259204D+00  4.3224158444635D-01
31  3.0000000000000D-01  1.4582700533297D+00  4.6651242564015D-01
32  3.1000000000000D-01  1.4577726619709D+00  5.0093463987803D-01
33  3.2000000000000D-01  1.4542812090567D+00  5.3533762046344D-01
34  3.3000000000000D-01  1.4478929072739D+00  5.6955562545930D-01
35  3.4000000000000D-01  1.4387063739535D+00  6.0342976222787D-01
36  3.5000000000000D-01  1.4268203499421D+00  6.3680985687176D-01
37  3.6000000000000D-01  1.4123325059195D+00  6.6955618320312D-01
38  3.7000000000000D-01  1.3953383526688D+00  7.0154102760317D-01
39  3.8000000000000D-01  1.3759302703426D+00  7.3265006819035D-01
40  3.9000000000000D-01  1.3541966700930D+00  7.6278354906680D-01
41  4.0000000000000D-01  1.3302212995695D+00  7.9185723303635D-01
42  4.1000000000000D-01  1.3040827017553D+00  8.1980311904773D-01
43  4.2000000000000D-01  1.2758538344364D+00  8.4656991368475D-01
44  4.3000000000000D-01  1.2456018553052D+00  8.7212324926018D-01
45  4.4000000000000D-01  1.2133880753177D+00  8.9644564443496D-01
46  4.5000000000000D-01  1.1792680804837D+00  9.1953620673625D-01
47  4.6000000000000D-01  1.1432920198037D+00  9.4141007984433D-01
48  4.7000000000000D-01  1.1055050546016D+00  9.6209764201417D-01
49  4.8000000000000D-01  1.0659479620782D+00  9.8164346544899D-01
50  4.9000000000000D-01  1.0246578835541D+00  1.0001050498039D+00
51  5.0000000000000D-01  9.8166920561613D-01  1.0175513462256D+00
52  5.1000000000000D-01  9.3701456025555D-01  1.0340610913818D+00
53  5.2000000000000D-01  8.9072592812927D-01  1.0497209737663D+00
54  5.3000000000000D-01  8.4283582729885D-01  1.0646236571345D+00
55  5.4000000000000D-01  7.9337856825029D-01  1.0788656882040D+00
56  5.5000000000000D-01  7.4239155467894D-01  1.0925453176969D+00
57  5.6000000000000D-01  6.8991660846934D-01  1.1057602653954D+00
58  5.7000000000000D-01  6.3600129652232D-01  1.1186054610815D+00
59  5.8000000000000D-01  5.8070023659796D-01  1.1311707940349D+00
60  5.9000000000000D-01  5.2407635916218D-01  1.1435389041394D+00
61  6.0000000000000D-01  4.6620210235799D-01  1.1557830475928D+00
62  6.1000000000000D-01  4.0716051766654D-01  1.1679650697271D+00
63  6.2000000000000D-01  3.4704626458588D-01  1.1801335165089D+00
64  6.3000000000000D-01  2.8596647372531D-01  1.1923219149310D+00
65  6.4000000000000D-01  2.2404145908076D-01  1.2045472507222D+00
66  6.5000000000000D-01  1.6140526192233D-01  1.2168086696061D+00
67  6.6000000000000D-01  9.8206010648587D-02  1.2290864257733D+00
68  6.7000000000000D-01  3.4606083144278D-02  1.2413410983053D+00
69  6.8000000000000D-01 -2.9217939412212D-02  1.2535130930308D+00
70  6.9000000000000D-01 -9.3075535738639D-02  1.2655224437613D+00
71  7.0000000000000D-01 -1.5676273032032D-01  1.2772689230860D+00
72  7.1000000000000D-01 -2.2006280472240D-01  1.2886324689081D+00
73  7.2000000000000D-01 -2.8274723410572D-01  1.2994739287886D+00
74  7.3000000000000D-01 -3.4457684563558D-01  1.3096361199341D+00
75  7.4000000000000D-01 -4.0530319237697D-01  1.3189451983858D+00
76  7.5000000000000D-01 -4.6467013320694D-01  1.3272123267187D+00
77  7.6000000000000D-01 -5.2241560623908D-01  1.3342356253389D+00
78  7.7000000000000D-01 -5.7827358035005D-01  1.3398023884036D+00
79  7.8000000000000D-01 -6.3197616661061D-01  1.3436915414791D+00
80  7.9000000000000D-01 -6.8325586881980D-01  1.3456763143754D+00
81  8.0000000000000D-01 -7.3184794994964D-01  1.3455270992039D+00
82  8.1000000000000D-01 -7.7749288916506D-01  1.3430144606331D+00
83  8.2000000000000D-01 -8.1993890222255D-01  1.3379122626282D+00
84  8.3000000000000D-01 -8.5894449649900D-01  1.3300008736781D+00
85  8.4000000000000D-01 -8.9428103068778D-01  1.3190704106868D+00
86  8.5000000000000D-01 -9.2573524834086D-01  1.3049239803587D+00
87  8.6000000000000D-01 -9.5311175395408D-01  1.2873808760693D+00
88  8.7000000000000D-01 -9.7623540019860D-01  1.2662796878945D+00
89  8.8000000000000D-01 -9.9495355520481D-01  1.2414812837018D+00
90  8.9000000000000D-01 -1.0091382195071D+00  1.2128716199698D+00
91  9.0000000000000D-01 -1.0186879633587D+00  1.1803643423152D+00
92  9.1000000000000D-01 -1.0235296566171D+00  1.1439031375538D+00
93  9.2000000000000D-01 -1.0236199652700D+00  1.1034638014808D+00
94  9.3000000000000D-01 -1.0189465909043D+00  1.0590559894230D+00
95  9.4000000000000D-01 -1.0095292319881D+00  1.0107246199395D+00
96  9.5000000000000D-01 -9.9542024872176D-01  9.5855090580899D-01
97  9.6000000000000D-01 -9.7670501637380D-01  9.0265299059573D-01
98  9.7000000000000D-01 -9.5350195542810D-01  8.4318617357549D-01
99  9.8000000000000D-01 -9.2596223046815D-01  7.8034271057525D-01
100  9.9000000000000D-01 -8.9426911358260D-01  7.1435118340170D-01
101  1.0000000000000D+00 -8.5863701178131D-01  6.4547543547216D-01
102  1.0100000000000D+00 -8.1931016211841D-01  5.7401307688306D-01
103  1.0200000000000D+00 -7.7656100204280D-01  5.0029356727408D-01
104  1.0300000000000D+00 -7.3068822651834D-01  4.2467589024702D-01
105  1.0400000000000D+00 -6.8201454731381D-01  3.4754583829142D-01
106  1.0500000000000D+00 -6.3088417373080D-01  2.6931293238956D-01
107  1.0600000000000D+00 -5.7766003734121D-01  1.9040700494165D-01
108  1.0700000000000D+00 -5.2272078699333D-01  1.1127447965310D-01
109  1.0800000000000D+00 -4.6645758323300D-01  3.2374385956944D-02
110  1.0900000000000D+00 -4.0927072408842D-01 -4.5825850630474D-02
111  1.1000000000000D+00 -3.5156613668810D-01 -1.2285479735936D-01
112  1.1100000000000D+00 -2.9375177094129D-01 -1.9824153501699D-01
113  1.1200000000000D+00 -2.3623393353930D-01 -2.7152026050684D-01
114  1.1300000000000D+00 -1.7941360141357D-01 -3.4223491987512D-01
115  1.1400000000000D+00 -1.2368275455913D-01 -4.0994381928263D-01
116  1.1500000000000D+00 -6.9420768421069D-02 -4.7422416096180D-01
117  1.1600000000000D+00 -1.6990905844130D-02 -5.3467645134966D-01
118  1.1700000000000D+00  3.3263052186617D-02 -5.9092872954492D-01
119  1.1800000000000D+00  8.1019999393234D-02 -6.4264056628953D-01
120  1.1900000000000D+00  1.2598448365320D-01 -6.8950678447253D-01
121  1.2000000000000D+00  1.6788943934868D-01 -7.3126085643260D-01
122  1.2100000000000D+00  2.0649864116604D-01 -7.6767793629948D-01
123  1.2200000000000D+00  2.4160885045888D-01 -7.9857748898109D-01
124  1.2300000000000D+00  2.7305162867266D-01 -8.2382548186350D-01
125  1.2400000000000D+00  3.0069479698796D-01 -8.4333611146514D-01
126  1.2500000000000D+00  3.2444352465902D-01 -8.5707304169447D-01
127  1.2600000000000D+00  3.4424103137503D-01 -8.6505013413327D-01
128  1.2700000000000D+00  3.6006889646643D-01 -8.6733166074309D-01
129  1.2800000000000D+00  3.7194697060076D-01 -8.6403199315910D-01
130  1.2900000000000D+00  3.7993288814551D-01 -8.5531476609858D-01
131  1.3000000000000D+00  3.8412118808409D-01 -8.4139152536924D-01
132  1.3100000000000D+00  3.8464205231530D-01 -8.2251987223116D-01
133  1.3200000000000D+00  3.8165967367178D-01 -7.9900112053688D-01
134  1.3300000000000D+00  3.7537027591317D-01 -7.7117749634255D-01
135  1.3400000000000D+00  3.6599980617553D-01 -7.3942890731248D-01
136  1.3500000000000D+00  3.5380132670060D-01 -7.0416931771803D-01
137  1.3600000000000D+00  3.3905213934134D-01 -6.6584277377029D-01
138  1.3700000000000D+00  3.2205067292806D-01 -6.2491911945455D-01
139  1.3800000000000D+00  3.0311317335358D-01 -5.8188945612401D-01
140  1.3900000000000D+00  2.8257023532209D-01 -5.3726139788476D-01
141  1.4000000000000D+00  2.6076321559073D-01 -4.9155417599265D-01
142  1.4100000000000D+00  2.3804058043467D-01 -4.4529366354988D-01
143  1.4200000000000D+00  2.1475418111669D-01 -3.9900730663514D-01
144  1.4300000000000D+00  1.9125569343097D-01 -3.5321929858590D-01
145  1.4400000000000D+00  1.6789260423955D-01 -3.0844510113451D-01
146  1.4500000000000D+00  1.4500544933867D-01 -2.6518776828044D-01
147  1.4600000000000D+00  1.2292428178243D-01 -2.2393315663945D-01
148  1.4700000000000D+00  1.0196174833491D-01 -1.8514017677620D-01
149  1.4800000000000D+00  8.2407090421016D-02 -1.4923243476768D-01
150  1.4900000000000D+00  6.4519535498608D-02 -1.1658903105667D-01
151  1.5000000000000D+00  4.8525143418769D-02 -8.7540350904844D-02
152  1.5100000000000D+00  3.4618087245083D-02 -6.2371246735267D-02
153  1.5200000000000D+00  2.2953071767071D-02 -4.1308526887556D-02
154  1.5300000000000D+00  1.3596366150686D-02 -2.4434070855665D-02
155  1.5400000000000D+00  6.6948381315866D-03 -1.1987970003804D-02
156  1.5500000000000D+00  2.4654080357377D-03 -4.3465828240799D-03
157  1.5600000000000D+00  5.2250092137546D-04 -8.3482571937632D-04
158  1.5700000000000D+00 -4.4149176418953D-05  1.4805943358077D-04
159  1.5800000000000D+00 -2.1575952389967D-05  4.7634841968463D-05
160  1.5900000000000D+00  3.8092217185299D-05 -7.9970594997052D-05
161  1.6000000000000D+00  4.6028978474346D-06 -9.4554323451164D-06
162  1.6100000000000D+00 -5.8669191623426D-06  1.3076407942414D-05
163  1.6200000000000D+00 -2.0292815134850D-09  4.4318193700567D-09
164  1.6300000000000D+00 -7.0602705232160D-07  9.8394411491749D-07
165  1.6400000000000D+00  0.0000000000000D+00  0.0000000000000D+00
166  1.6500000000000D+00  0.0000000000000D+00  0.0000000000000D+00
167  1.6600000000000D+00  0.0000000000000D+00  0.0000000000000D+00
168  1.6700000000000D+00  0.0000000000000D+00  0.0000000000000D+00
169  1.6800000000000D+00  0.0000000000000D+00  0.0000000000000D+00
170  1.6900000000000D+00  0.0000000000000D+00  0.0000000000000D+00
171  1.7000000000000D+00  0.0000000000000D+00  0.0000000000000D+00
172  1.7100000000000D+00  0.0000000000000D+00  0.0000000000000D+00
173  1.7200000000000D+00  0.0000000000000D+00  0.0000000000000D+00
174  1.7300000000000D+00  0.0000000000000D+00  0.0000000000000D+00
175  1.7400000000000D+00  0.0000000000000D+00  0.0000000000000D+00
176  1.7500000000000D+00  0.0000000000000D+00  0.0000000000000D+00
177  1.7600000000000D+00  0.0000000000000D+00  0.0000000000000D+00
178  1.7700000000000D+00  0.0000000000000D+00  0.0000000000000D+00
179  1.7800000000000D+00  0.0000000000000D+00  0.0000000000000D+00
180  1.7900000000000D+00  0.0000000000000D+00  0.0000000000000D+00
181  1.8000000000000D+00  0.0000000000000D+00  0.0000000000000D+00
182  1.8100000000000D+00  0.0000000000000D+00  0.0000000000000D+00
183  1.8200000000000D+00  0.0000000000000D+00  0.0000000000000D+00
184  1.8300000000000D+00  0.0000000000000D+00  0.0000000000000D+00
185  1.8400000000000D+00  0.0000000000000D+00  0.0000000000000D+00
186  1.8500000000000D+00  0.0000000000000D+00  0.0000000000000D+00
187  1.8600000000000D+00  0.0000000000000D+00  0.0000000000000D+00
188  1.8700000000000D+00  0.0000000000000D+00  0.0000000000000D+00
189  1.8800000000000D+00  0.0000000000000D+00  0.0000000000000D+00
190  1.8900000000000D+00  0.0000000000000D+00  0.0000000000000D+00
191  1.9000000000000D+00  0.0000000000000D+00  0.0000000000000D+00
192  1.9100000000000D+00  0.0000000000000D+00  0.0000000000000D+00
193  1.9200000000000D+00  0.0000000000000D+00  0.0000000000000D+00
194  1.9300000000000D+00  0.0000000000000D+00  0.0000000000000D+00
195  1.9400000000000D+00  0.0000000000000D+00  0.0000000000000D+00
196  1.9500000000000D+00  0.0000000000000D+00  0.0000000000000D+00
197  1.9600000000000D+00  0.0000000000000D+00  0.0000000000000D+00
198  1.9700000000000D+00  0.0000000000000D+00  0.0000000000000D+00
199  1.9800000000000D+00  0.0000000000000D+00  0.0000000000000D+00
200  1.9900000000000D+00  0.0000000000000D+00  0.0000000000000D+00
201  2.0000000000000D+00  0.0000000000000D+00  0.0000000000000D+00
202  2.0100000000000D+00  0.0000000000000D+00  0.0000000000000D+00
203  2.0200000000000D+00  0.0000000000000D+00  0.0000000000000D+00
204  2.0300000000000D+00  0.0000000000000D+00  0.0000000000000D+00
205  2.0400000000000D+00  0.0000000000000D+00  0.0000000000000D+00
206  2.0500000000000D+00  0.0000000000000D+00  0.0000000000000D+00
207  2.0600000000000D+00  0.0000000000000D+00  0.0000000000000D+00
208  2.0700000000000D+00  0.0000000000000D+00  0.0000000000000D+00
209  2.0800000000000D+00  0.0000000000000D+00  0.0000000000000D+00
210  2.0900000000000D+00  0.0000000000000D+00  0.0000000000000D+00
211  2.1000000000000D+00  0.0000000000000D+00  0.0000000000000D+00
212  2.1100000000000D+00  0.0000000000000D+00  0.0000000000000D+00
213  2.1200000000000D+00  0.0000000000000D+00  0.0000000000000D+00
214  2.1300000000000D+00  0.0000000000000D+00  0.0000000000000D+00
215  2.1400000000000D+00  0.0000000000000D+00  0.0000000000000D+00
216  2.1500000000000D+00  0.0000000000000D+00  0.0000000000000D+00
217  2.1600000000000D+00  0.0000000000000D+00  0.0000000000000D+00
218  2.1700000000000D+00  0.0000000000000D+00  0.0000000000000D+00
219  2.1800000000000D+00  0.0000000000000D+00  0.0000000000000D+00
220  2.1900000000000D+00  0.0000000000000D+00  0.0000000000000D+00
221  2.2000000000000D+00  0.0000000000000D+00  0.0000000000000D+00
222  2.2100000000000D+00  0.0000000000000D+00  0.0000000000000D+00
223  2.2200000000000D+00  0.0000000000000D+00  0.0000000000000D+00
224  2.2300000000000D+00  0.0000000000000D+00  0.0000000000000D+00
225  2.2400000000000D+00  0.0000000000000D+00  0.0000000000000D+00
226  2.2500000000000D+00  0.0000000000000D+00  0.0000000000000D+00
227  2.2600000000000D+00  0.0000000000000D+00  0.0000000000000D+00
228  2.2700000000000D+00  0.0000000000000D+00  0.0000000000000D+00
229  2.2800000000000D+00  0.0000000000000D+00  0.0000000000000D+00
230  2.2900000000000D+00  0.0000000000000D+00  0.0000000000000D+00
231  2.3000000000000D+00  0.0000000000000D+00  0.0000000000000D+00
232  2.3100000000000D+00  0.0000000000000D+00  0.0000000000000D+00
233  2.3200000000000D+00  0.0000000000000D+00  0.0000000000000D+00
234  2.3300000000000D+00  0.0000000000000D+00  0.0000000000000D+00
235  2.3400000000000D+00  0.0000000000000D+00  0.0000000000000D+00
236  2.3500000000000D+00  0.0000000000000D+00  0.0000000000000D+00
237  2.3600000000000D+00  0.0000000000000D+00  0.0000000000000D+00
238  2.3700000000000D+00  0.0000000000000D+00  0.0000000000000D+00
239  2.3800000000000D+00  0.0000000000000D+00  0.0000000000000D+00
240  2.3900000000000D+00  0.0000000000000D+00  0.0000000000000D+00
241  2.4000000000000D+00  0.0000000000000D+00  0.0000000000000D+00
242  2.4100000000000D+00  0.0000000000000D+00  0.0000000000000D+00
243  2.4200000000000D+00  0.0000000000000D+00  0.0000000000000D+00
244  2.4300000000000D+00  0.0000000000000D+00  0.0000000000000D+00
245  2.4400000000000D+00  0.0000000000000D+00  0.0000000000000D+00
246  2.4500000000000D+00  0.0000000000000D+00  0.0000000000000D+00
247  2.4600000000000D+00  0.0000000000000D+00  0.0000000000000D+00
248  2.4700000000000D+00  0.0000000000000D+00  0.0000000000000D+00
249  2.4800000000000D+00  0.0000000000000D+00  0.0000000000000D+00
250  2.4900000000000D+00  0.0000000000000D+00  0.0000000000000D+00
251  2.5000000000000D+00  0.0000000000000D+00  0.0000000000000D+00
252  2.5100000000000D+00  0.0000000000000D+00  0.0000000000000D+00
253  2.5200000000000D+00  0.0000000000000D+00  0.0000000000000D+00
254  2.5300000000000D+00  0.0000000000000D+00  0.0000000000000D+00
255  2.5400000000000D+00  0.0000000000000D+00  0.0000000000000D+00
256  2.5500000000000D+00  0.0000000000000D+00  0.0000000000000D+00
257  2.5600000000000D+00  0.0000000000000D+00  0.0000000000000D+00
258  2.5700000000000D+00  0.0000000000000D+00  0.0000000000000D+00
259  2.5800000000000D+00  0.0000000000000D+00  0.0000000000000D+00
260  2.5900000000000D+00  0.0000000000000D+00  0.0000000000000D+00
261  2.6000000000000D+00  0.0000000000000D+00  0.0000000000000D+00
262  2.6100000000000D+00  0.0000000000000D+00  0.0000000000000D+00
263  2.6200000000000D+00  0.0000000000000D+00  0.0000000000000D+00
264  2.6300000000000D+00  0.0000000000000D+00  0.0000000000000D+00
265  2.6400000000000D+00  0.0000000000000D+00  0.0000000000000D+00
266  2.6500000000000D+00  0.0000000000000D+00  0.0000000000000D+00
267  2.6600000000000D+00  0.0000000000000D+00  0.0000000000000D+00
268  2.6700000000000D+00  0.0000000000000D+00  0.0000000000000D+00
269  2.6800000000000D+00  0.0000000000000D+00  0.0000000000000D+00
270  2.6900000000000D+00  0.0000000000000D+00  0.0000000000000D+00
271  2.7000000000000D+00  0.0000000000000D+00  0.0000000000000D+00
272  2.7100000000000D+00  0.0000000000000D+00  0.0000000000000D+00
273  2.7200000000000D+00  0.0000000000000D+00  0.0000000000000D+00
274  2.7300000000000D+00  0.0000000000000D+00  0.0000000000000D+00
275  2.7400000000000D+00  0.0000000000000D+00  0.0000000000000D+00
276  2.7500000000000D+00  0.0000000000000D+00  0.0000000000000D+00
277  2.7600000000000D+00  0.0000000000000D+00  0.0000000000000D+00
278  2.7700000000000D+00  0.0000000000000D+00  0.0000000000000D+00
279  2.7800000000000D+00  0.0000000000000D+00  0.0000000000000D+00
280  2.7900000000000D+00  0.0000000000000D+00  0.0000000000000D+00
281  2.8000000000000D+00  0.0000000000000D+00  0.0000000000000D+00
282  2.8100000000000D+00  0.0000000000000D+00  0.0000000000000D+00
283  2.8200000000000D+00  0.0000000000000D+00  0.0000000000000D+00
284  2.8300000000000D+00  0.0000000000000D+00  0.0000000000000D+00
285  2.8400000000000D+00  0.0000000000000D+00  0.0000000000000D+00
286  2.8500000000000D+00  0.0000000000000D+00  0.0000000000000D+00
287  2.8600000000000D+00  0.0000000000000D+00  0.0000000000000D+00
288  2.8700000000000D+00  0.0000000000000D+00  0.0000000000000D+00
289  2.8800000000000D+00  0.0000000000000D+00  0.0000000000000D+00
290  2.8900000000000D+00  0.0000000000000D+00  0.0000000000000D+00
291  2.9000000000000D+00  0.0000000000000D+00  0.0000000000000D+00
292  2.9100000000000D+00  0.0000000000000D+00  0.0000000000000D+00
293  2.9200000000000D+00  0.0000000000000D+00  0.0000000000000D+00
294  2.9300000000000D+00  0.0000000000000D+00  0.0000000000000D+00
295  2.9400000000000D+00  0.0000000000000D+00  0.0000000000000D+00
296  2.9500000000000D+00  0.0000000000000D+00  0.0000000000000D+00
297  2.9600000000000D+00  0.0000000000000D+00  0.0000000000000D+00
298  2.9700000000000D+00  0.0000000000000D+00  0.0000000000000D+00
299  2.9800000000000D+00  0.0000000000000D+00  0.0000000000000D+00
300  2.9900000000000D+00  0.0000000000000D+00  0.0000000000000D+00
301  3.0000000000000D+00  0.0000000000000D+00  0.0000000000000D+00
302  3.0100000000000D+00  0.0000000000000D+00  0.0000000000000D+00
303  3.0200000000000D+00  0.0000000000000D+00  0.0000000000000D+00
304  3.0300000000000D+00  0.0000000000000D+00  0.0000000000000D+00
305  3.0400000000000D+00  0.0000000000000D+00  0.0000000000000D+00
306  3.0500000000000D+00  0.0000000000000D+00  0.0000000000000D+00
307  3.0600000000000D+00  0.0000000000000D+00  0.0000000000000D+00
308  3.0700000000000D+00  0.0000000000000D+00  0.0000000000000D+00
309  3.0800000000000D+00  0.0000000000000D+00  0.0000000000000D+00
310  3.0900000000000D+00  0.0000000000000D+00  0.0000000000000D+00
311  3.1000000000000D+00  0.0000000000000D+00  0.0000000000000D+00
312  3.1100000000000D+00  0.0000000000000D+00  0.0000000000000D+00
313  3.1200000000000D+00  0.0000000000000D+00  0.0000000000000D+00
314  3.1300000000000D+00  0.0000000000000D+00  0.0000000000000D+00
315  3.1400000000000D+00  0.0000000000000D+00  0.0000000000000D+00
316  3.1500000000000D+00  0.0000000000000D+00  0.0000000000000D+00
317  3.1600000000000D+00  0.0000000000000D+00  0.0000000000000D+00
318  3.1700000000000D+00  0.0000000000000D+00  0.0000000000000D+00
319  3.1800000000000D+00  0.0000000000000D+00  0.0000000000000D+00
320  3.1900000000000D+00  0.0000000000000D+00  0.0000000000000D+00
321  3.2000000000000D+00  0.0000000000000D+00  0.0000000000000D+00
322  3.2100000000000D+00  0.0000000000000D+00  0.0000000000000D+00
323  3.2200000000000D+00  0.0000000000000D+00  0.0000000000000D+00
324  3.2300000000000D+00  0.0000000000000D+00  0.0000000000000D+00
325  3.2400000000000D+00  0.0000000000000D+00  0.0000000000000D+00
326  3.2500000000000D+00  0.0000000000000D+00  0.0000000000000D+00
327  3.2600000000000D+00  0.0000000000000D+00  0.0000000000000D+00
328  3.2700000000000D+00  0.0000000000000D+00  0.0000000000000D+00
329  3.2800000000000D+00  0.0000000000000D+00  0.0000000000000D+00
330  3.2900000000000D+00  0.0000000000000D+00  0.0000000000000D+00
331  3.3000000000000D+00  0.0000000000000D+00  0.0000000000000D+00
332  3.3100000000000D+00  0.0000000000000D+00  0.0000000000000D+00
333  3.3200000000000D+00  0.0000000000000D+00  0.0000000000000D+00
334  3.3300000000000D+00  0.0000000000000D+00  0.0000000000000D+00
335  3.3400000000000D+00  0.0000000000000D+00  0.0000000000000D+00
336  3.3500000000000D+00  0.0000000000000D+00  0.0000000000000D+00
337  3.3600000000000D+00  0.0000000000000D+00  0.0000000000000D+00
338  3.3700000000000D+00  0.0000000000000D+00  0.0000000000000D+00
339  3.3800000000000D+00  0.0000000000000D+00  0.0000000000000D+00
340  3.3900000000000D+00  0.0000000000000D+00  0.0000000000000D+00
341  3.4000000000000D+00  0.0000000000000D+00  0.0000000000000D+00
342  3.4100000000000D+00  0.0000000000000D+00  0.0000000000000D+00
343  3.4200000000000D+00  0.0000000000000D+00  0.0000000000000D+00
344  3.4300000000000D+00  0.0000000000000D+00  0.0000000000000D+00
345  3.4400000000000D+00  0.0000000000000D+00  0.0000000000000D+00
346  3.4500000000000D+00  0.0000000000000D+00  0.0000000000000D+00
347  3.4600000000000D+00  0.0000000000000D+00  0.0000000000000D+00
348  3.4700000000000D+00  0.0000000000000D+00  0.0000000000000D+00
349  3.4800000000000D+00  0.0000000000000D+00  0.0000000000000D+00
350  3.4900000000000D+00  0.0000000000000D+00  0.0000000000000D+00
351  3.5000000000000D+00  0.0000000000000D+00  0.0000000000000D+00
352  3.5100000000000D+00  0.0000000000000D+00  0.0000000000000D+00
353  3.5200000000000D+00  0.0000000000000D+00  0.0000000000000D+00
354  3.5300000000000D+00  0.0000000000000D+00  0.0000000000000D+00
355  3.5400000000000D+00  0.0000000000000D+00  0.0000000000000D+00
356  3.5500000000000D+00  0.0000000000000D+00  0.0000000000000D+00
357  3.5600000000000D+00  0.0000000000000D+00  0.0000000000000D+00
358  3.5700000000000D+00  0.0000000000000D+00  0.0000000000000D+00
359  3.5800000000000D+00  0.0000000000000D+00  0.0000000000000D+00
360  3.5900000000000D+00  0.0000000000000D+00  0.0000000000000D+00
361  3.6000000000000D+00  0.0000000000000D+00  0.0000000000000D+00
362  3.6100000000000D+00  0.0000000000000D+00  0.0000000000000D+00
363  3.6200000000000D+00  0.0000000000000D+00  0.0000000000000D+00
364  3.6300000000000D+00  0.0000000000000D+00  0.0000000000000D+00
365  3.6400000000000D+00  0.0000000000000D+00  0.0000000000000D+00
366  3.6500000000000D+00  0.0000000000000D+00  0.0000000000000D+00
367  3.6600000000000D+00  0.0000000000000D+00  0.0000000000000D+00
368  3.6700000000000D+00  0.0000000000000D+00  0.0000000000000D+00
369  3.6800000000000D+00  0.0000000000000D+00  0.0000000000000D+00
370  3.6900000000000D+00  0.0000000000000D+00  0.0000000000000D+00
371  3.7000000000000D+00  0.0000000000000D+00  0.0000000000000D+00
372  3.7100000000000D+00  0.0000000000000D+00  0.0000000000000D+00
373  3.7200000000000D+00  0.0000000000000D+00  0.0000000000000D+00
374  3.7300000000000D+00  0.0000000000000D+00  0.0000000000000D+00
375  3.7400000000000D+00  0.0000000000000D+00  0.0000000000000D+00
376  3.7500000000000D+00  0.0000000000000D+00  0.0000000000000D+00
377  3.7600000000000D+00  0.0000000000000D+00  0.0000000000000D+00
378  3.7700000000000D+00  0.0000000000000D+00  0.0000000000000D+00
379  3.7800000000000D+00  0.0000000000000D+00  0.0000000000000D+00
380  3.7900000000000D+00  0.0000000000000D+00  0.0000000000000D+00
381  3.8000000000000D+00  0.0000000000000D+00  0.0000000000000D+00
382  3.8100000000000D+00  0.0000000000000D+00  0.0000000000000D+00
383  3.8200000000000D+00  0.0000000000000D+00  0.0000000000000D+00
384  3.8300000000000D+00  0.0000000000000D+00  0.0000000000000D+00
385  3.8400000000000D+00  0.0000000000000D+00  0.0000000000000D+00
386  3.8500000000000D+00  0.0000000000000D+00  0.0000000000000D+00
387  3.8600000000000D+00  0.0000000000000D+00  0.0000000000000D+00
388  3.8700000000000D+00  0.0000000000000D+00  0.0000000000000D+00
389  3.8800000000000D+00  0.0000000000000D+00  0.0000000000000D+00
390  3.8900000000000D+00  0.0000000000000D+00  0.0000000000000D+00
391  3.9000000000000D+00  0.0000000000000D+00  0.0000000000000D+00
392  3.9100000000000D+00  0.0000000000000D+00  0.0000000000000D+00
393  3.9200000000000D+00  0.0000000000000D+00  0.0000000000000D+00
394  3.9300000000000D+00  0.0000000000000D+00  0.0000000000000D+00
395  3.9400000000000D+00  0.0000000000000D+00  0.0000000000000D+00
396  3.9500000000000D+00  0.0000000000000D+00  0.0000000000000D+00
397  3.9600000000000D+00  0.0000000000000D+00  0.0000000000000D+00
398  3.9700000000000D+00  0.0000000000000D+00  0.0000000000000D+00
399  3.9800000000000D+00  0.0000000000000D+00  0.0000000000000D+00
400  3.9900000000000D+00  0.0000000000000D+00  0.0000000000000D+00
401  4.0000000000000D+00  0.0000000000000D+00  0.0000000000000D+00
402  4.0100000000000D+00  0.0000000000000D+00  0.0000000000000D+00
403  4.0200000000000D+00  0.0000000000000D+00  0.0000000000000D+00
404  4.0300000000000D+00  0.0000000000000D+00  0.0000000000000D+00
405  4.0400000000000D+00  0.0000000000000D+00  0.0000000000000D+00
406  4.0500000000000D+00  0.0000000000000D+00  0.0000000000000D+00
407  4.0600000000000D+00  0.0000000000000D+00  0.0000000000000D+00
408  4.0700000000000D+00  0.0000000000000D+00  0.0000000000000D+00
409  4.0800000000000D+00  0.0000000000000D+00  0.0000000000000D+00
410  4.0900000000000D+00  0.0000000000000D+00  0.0000000000000D+00
411  4.1000000000000D+00  0.0000000000000D+00  0.0000000000000D+00
412  4.1100000000000D+00  0.0000000000000D+00  0.0000000000000D+00
413  4.1200000000000D+00  0.0000000000000D+00  0.0000000000000D+00
414  4.1300000000000D+00  0.0000000000000D+00  0.0000000000000D+00
415  4.1400000000000D+00  0.0000000000000D+00  0.0000000000000D+00
416  4.1500000000000D+00  0.0000000000000D+00  0.0000000000000D+00
417  4.1600000000000D+00  0.0000000000000D+00  0.0000000000000D+00
418  4.1700000000000D+00  0.0000000000000D+00  0.0000000000000D+00
419  4.1800000000000D+00  0.0000000000000D+00  0.0000000000000D+00
420  4.1900000000000D+00  0.0000000000000D+00  0.0000000000000D+00
421  4.2000000000000D+00  0.0000000000000D+00  0.0000000000000D+00
422  4.2100000000000D+00  0.0000000000000D+00  0.0000000000000D+00
423  4.2200000000000D+00  0.0000000000000D+00  0.0000000000000D+00
424  4.2300000000000D+00  0.0000000000000D+00  0.0000000000000D+00
425  4.2400000000000D+00  0.0000000000000D+00  0.0000000000000D+00
426  4.2500000000000D+00  0.0000000000000D+00  0.0000000000000D+00
427  4.2600000000000D+00  0.0000000000000D+00  0.0000000000000D+00
428  4.2700000000000D+00  0.0000000000000D+00  0.0000000000000D+00
429  4.2800000000000D+00  0.0000000000000D+00  0.0000000000000D+00
430  4.2900000000000D+00  0.0000000000000D+00  0.0000000000000D+00
431  4.3000000000000D+00  0.0000000000000D+00  0.0000000000000D+00
432  4.3100000000000D+00  0.0000000000000D+00  0.0000000000000D+00
433  4.3200000000000D+00  0.0000000000000D+00  0.0000000000000D+00
434  4.3300000000000D+00  0.0000000000000D+00  0.0000000000000D+00
435  4.3400000000000D+00  0.0000000000000D+00  0.0000000000000D+00
436  4.3500000000000D+00  0.0000000000000D+00  0.0000000000000D+00
437  4.3600000000000D+00  0.0000000000000D+00  0.0000000000000D+00
438  4.3700000000000D+00  0.0000000000000D+00  0.0000000000000D+00
439  4.3800000000000D+00  0.0000000000000D+00  0.0000000000000D+00
440  4.3900000000000D+00  0.0000000000000D+00  0.0000000000000D+00
441  4.4000000000000D+00  0.0000000000000D+00  0.0000000000000D+00
442  4.4100000000000D+00  0.0000000000000D+00  0.0000000000000D+00
443  4.4200000000000D+00  0.0000000000000D+00  0.0000000000000D+00
444  4.4300000000000D+00  0.0000000000000D+00  0.0000000000000D+00