Cl    ONCVPSP  r_core=  1.56  1.35  1.56
17.0000      7.0000      161004    zatom,zion,pspd
8 -116133   2     4   600     0    pspcod,pspxc,lmax,lloc,mmax,r2well
5.99000000  8.00000000  0.00000000    rchrg fchrg qchrg
2     2     2     0     0    nproj
1                 extension_switch
0                         8.0106396918457D+00  6.7414221057530D-01
1  0.0000000000000D+00  1.4033341155795D-09 -6.8338639747090D-09
2  1.0000000000000D-02  4.2124450074787D-02 -9.8148229048992D-04
3  2.0000000000000D-02  8.4273849025730D-02 -2.2458252955638D-03
4  3.0000000000000D-02  1.2647193215227D-01 -4.0700720382630D-03
5  4.0000000000000D-02  1.6874002910162D-01 -6.7197332669838D-03
6  5.0000000000000D-02  2.1109591442959D-01 -1.0443277305604D-02
7  6.0000000000000D-02  2.5355272120668D-01 -1.5466922124653D-02
8  7.0000000000000D-02  2.9611793700483D-01 -2.1989822191504D-02
9  8.0000000000000D-02  3.3879250019666D-01 -3.0179735823683D-02
10  9.0000000000000D-02  3.8157001279012D-01 -4.0169250448478D-02
11  1.0000000000000D-01  4.2443608403489D-01 -5.2052633505483D-02
12  1.1000000000000D-01  4.6736781680789D-01 -6.5883365882083D-02
13  1.2000000000000D-01  5.1033344634916D-01 -8.1672402929954D-02
14  1.3000000000000D-01  5.5329213832017D-01 -9.9387195476137D-02
15  1.4000000000000D-01  5.9619395043582D-01 -1.1895149003137D-01
16  1.5000000000000D-01  6.3897995912665D-01 -1.4024591383682D-01
17  1.6000000000000D-01  6.8158254986602D-01 -1.6310933671163D-01
18  1.7000000000000D-01  7.2392586699587D-01 -1.8734098810196D-01
19  1.8000000000000D-01  7.6592641615225D-01 -2.1270329452076D-01
20  1.9000000000000D-01  8.0749380977415D-01 -2.3892538993487D-01
21  2.0000000000000D-01  8.4853164372142D-01 -2.6570723981951D-01
22  2.1000000000000D-01  8.8893849077114D-01 -2.9272430876532D-01
23  2.2000000000000D-01  9.2860899474576D-01 -3.1963269187910D-01
24  2.3000000000000D-01  9.6743504728542D-01 -3.4607462193297D-01
25  2.4000000000000D-01  1.0053070278405D+00 -3.7168425743570D-01
26  2.5000000000000D-01  1.0421150863544D+00 -3.9609365164364D-01
27  2.6000000000000D-01  1.0777504473498D+00 -4.1893879908991D-01
28  2.7000000000000D-01  1.1121067137365D+00 -4.3986565455408D-01
29  2.8000000000000D-01  1.1450811486380D+00 -4.5853601955320D-01
30  2.9000000000000D-01  1.1765759138764D+00 -4.7463319341161D-01
31  3.0000000000000D-01  1.2064992444748D+00 -4.8786728973343D-01
32  3.1000000000000D-01  1.2347665395988D+00 -4.9798012459839D-01
33  3.2000000000000D-01  1.2613013517700D+00 -5.0474958993960D-01
34  3.3000000000000D-01  1.2860362578973D+00 -5.0799343422480D-01
35  3.4000000000000D-01  1.3089135976841D+00 -5.0757238260491D-01
36  3.5000000000000D-01  1.3298860672177D+00 -5.0339253994865D-01
37  3.6000000000000D-01  1.3489171580260D+00 -4.9540703246010D-01
38  3.7000000000000D-01  1.3659814345198D+00 -4.8361685666874D-01
39  3.8000000000000D-01  1.3810646455163D+00 -4.6807091826739D-01
40  3.9000000000000D-01  1.3941636683823D+00 -4.4886525731780D-01
41  4.0000000000000D-01  1.4052862872196D+00 -4.2614147050739D-01
42  4.1000000000000D-01  1.4144508093768D+00 -4.0008435517828D-01
43  4.2000000000000D-01  1.4216855273660D+00 -3.7091881351959D-01
44  4.3000000000000D-01  1.4270280359434D+00 -3.3890606837844D-01
45  4.4000000000000D-01  1.4305244166315D+00 -3.0433925437655D-01
46  4.5000000000000D-01  1.4322283042693D+00 -2.6753845920057D-01
47  4.6000000000000D-01  1.4321998522467D+00 -2.2884529987145D-01
48  4.7000000000000D-01  1.4305046148595D+00 -1.8861712730930D-01
49  4.8000000000000D-01  1.4272123666881D+00 -1.4722095944406D-01
50  4.9000000000000D-01  1.4223958800344D+00 -1.0502724835180D-01
51  5.0000000000000D-01  1.4161296822122D+00 -6.2403590319189D-02
52  5.1000000000000D-01  1.4084888148761D+00 -1.9708489289944D-02
53  5.2000000000000D-01  1.3995476175785D+00  2.2714716210723D-02
54  5.3000000000000D-01  1.3893785573597D+00  6.4543654851246D-02
55  5.4000000000000D-01  1.3780511254106D+00  1.0548234930501D-01
56  5.5000000000000D-01  1.3656308207152D+00  1.4526617040805D-01
57  5.6000000000000D-01  1.3521782390866D+00  1.8366622870023D-01
58  5.7000000000000D-01  1.3377482842016D+00  2.2049312268248D-01
59  5.8000000000000D-01  1.3223895151154D+00  2.5559997392755D-01
60  5.9000000000000D-01  1.3061436423688D+00  2.8888469119617D-01
61  6.0000000000000D-01  1.2890451821865D+00  3.2029141888924D-01
62  6.1000000000000D-01  1.2711212754963D+00  3.4981113909133D-01
63  6.2000000000000D-01  1.2523916755683D+00  3.7748141114391D-01
64  6.3000000000000D-01  1.2328689050884D+00  4.0338524759457D-01
65  6.4000000000000D-01  1.2125585804403D+00  4.2764914051462D-01
66  6.5000000000000D-01  1.1914598979601D+00  4.5044026713553D-01
67  6.6000000000000D-01  1.1695662739988D+00  4.7196291825126D-01
68  6.7000000000000D-01  1.1468661277996D+00  4.9245420680528D-01
69  6.8000000000000D-01  1.1233437935633D+00  5.1217912703943D-01
70  6.9000000000000D-01  1.0989805456529D+00  5.3142504644867D-01
71  7.0000000000000D-01  1.0737557187255D+00  5.5049572333268D-01
72  7.1000000000000D-01  1.0476479027207D+00  5.6970495173648D-01
73  7.2000000000000D-01  1.0206361911136D+00  5.8936994286691D-01
74  7.3000000000000D-01  9.9270145967968D-01  6.0980455755408D-01
75  7.4000000000000D-01  9.6382765224600D-01  6.3131250785994D-01
76  7.5000000000000D-01  9.3400304952726D-01  6.5418064747353D-01
77  7.6000000000000D-01  9.0322149718773D-01  6.7867247000059D-01
78  7.7000000000000D-01  8.7148356971745D-01  7.0502193168546D-01
79  7.8000000000000D-01  8.3879764757009D-01  7.3342771050520D-01
80  7.9000000000000D-01  8.0518088626213D-01  7.6404800702333D-01
81  8.0000000000000D-01  7.7066005776213D-01  7.9699598398207D-01
82  8.1000000000000D-01  7.3527224647816D-01  8.3233593147927D-01
83  8.2000000000000D-01  6.9906538445194D-01  8.7008023287648D-01
84  8.3000000000000D-01  6.6209861294148D-01  9.1018719355339D-01
85  8.4000000000000D-01  6.2444246040342D-01  9.5255978036013D-01
86  8.5000000000000D-01  5.8617882988962D-01  9.9704530452525D-01
87  8.6000000000000D-01  5.4740079203057D-01  1.0434360649622D+00
88  8.7000000000000D-01  5.0821218302078D-01  1.0914709527254D+00
89  8.8000000000000D-01  4.6872701029985D-01  1.1408380010483D+00
90  8.9000000000000D-01  4.2906867187923D-01  1.1911778492375D+00
91  9.0000000000000D-01  3.8936899845515D-01  1.2420880729223D+00
92  9.1000000000000D-01  3.4976713047679D-01  1.2931283182341D+00
93  9.2000000000000D-01  3.1040824523536D-01  1.3438261632891D+00
94  9.3000000000000D-01  2.7144215165456D-01  1.3936836175810D+00
95  9.4000000000000D-01  2.3302177282772D-01  1.4421841584326D+00
96  9.5000000000000D-01  1.9530153838356D-01  1.4888001938665D+00
97  9.6000000000000D-01  1.5843571044461D-01  1.5330008332745D+00
98  9.7000000000000D-01  1.2257666823947D-01  1.5742598412399D+00
99  9.8000000000000D-01  8.7873177318627D-02  1.6120636459041D+00
100  9.9000000000000D-01  5.4468669790616D-02  1.6459192714283D+00
101  1.0000000000000D+00  2.2499562001776D-02  1.6753620645859D+00
102  1.0100000000000D+00 -7.9063642846275D-03  1.6999630878453D+00
103  1.0200000000000D+00 -3.6631492027282D-02  1.7193360561963D+00
104  1.0300000000000D+00 -6.3569786427947D-02  1.7331437016887D+00
105  1.0400000000000D+00 -8.8628077551949D-02  1.7411034583890D+00
106  1.0500000000000D+00 -1.1172718776913D-01  1.7429923709272D+00
107  1.0600000000000D+00 -1.3280288625352D-01  1.7386511428200D+00
108  1.0700000000000D+00 -1.5180665507409D-01  1.7279872525580D+00
109  1.0800000000000D+00 -1.6870625477618D-01  1.7109770826619D+00
110  1.0900000000000D+00 -1.8348608016306D-01  1.6876670211955D+00
111  1.1000000000000D+00 -1.9614730040559D-01  1.6581735125446D+00
112  1.1100000000000D+00 -2.0670778099954D-01  1.6226820513704D+00
113  1.1200000000000D+00 -2.1520178817074D-01  1.5814451291467D+00
114  1.1300000000000D+00 -2.2167948029562D-01  1.5347791625335D+00
115  1.1400000000000D+00 -2.2620619377227D-01  1.4830604471166D+00
116  1.1500000000000D+00 -2.2886153428298D-01  1.4267201974083D+00
117  1.1600000000000D+00 -2.2973828679102D-01  1.3662387458856D+00
118  1.1700000000000D+00 -2.2894116129121D-01  1.3021389918452D+00
119  1.1800000000000D+00 -2.2658539319732D-01  1.2349791998402D+00
120  1.1900000000000D+00 -2.2279521943343D-01  1.1653452579639D+00
121  1.2000000000000D+00 -2.1770225324898D-01  1.0938425155627D+00
122  1.2100000000000D+00 -2.1144378234554D-01  1.0210873271201D+00
123  1.2200000000000D+00 -2.0416101549729D-01  9.4769843132440D-01
124  1.2300000000000D+00 -1.9599730365519D-01  8.7428829812827D-01
125  1.2400000000000D+00 -1.8709636184512D-01  8.0145457690917D-01
126  1.2500000000000D+00 -1.7760051717412D-01  7.2977177327973D-01
127  1.2600000000000D+00 -1.6764900827181D-01  6.5978328111393D-01
128  1.2700000000000D+00 -1.5737636060922D-01  5.9199389366737D-01
129  1.2800000000000D+00 -1.4691085534905D-01  5.2686286696192D-01
130  1.2900000000000D+00 -1.3637313895454D-01  4.6479785938073D-01
131  1.3000000000000D+00 -1.2587491426092D-01  4.0614917825314D-01
132  1.3100000000000D+00 -1.1551780411051D-01  3.5120500390662D-01
133  1.3200000000000D+00 -1.0539278249268D-01  3.0019137542872D-01
134  1.3300000000000D+00 -9.5579843427439D-02  2.5327311974396D-01
135  1.3400000000000D+00 -8.6147977828758D-02  2.1055642710676D-01
136  1.3500000000000D+00 -7.7154949876338D-02  1.7208857759199D-01
137  1.3600000000000D+00 -6.8647298572672D-02  1.3785893983757D-01
138  1.3700000000000D+00 -6.0660548165002D-02  1.0780123365909D-01
139  1.3800000000000D+00 -5.3219583358928D-02  8.1796545565257D-02
140  1.3900000000000D+00 -4.6339193003810D-02  5.9677226844548D-02
141  1.4000000000000D+00 -4.0024769593367D-02  4.1231578158085D-02
142  1.4100000000000D+00 -3.4273147234274D-02  2.6209230474853D-02
143  1.4200000000000D+00 -2.9073560292405D-02  1.4327123870435D-02
144  1.4300000000000D+00 -2.4408704958284D-02  5.2759864233340D-03
145  1.4400000000000D+00 -2.0255878960028D-02 -1.2728194459279D-03
146  1.4500000000000D+00 -1.6588179830965D-02 -5.6601900582287D-03
147  1.4600000000000D+00 -1.3375735558157D-02 -8.2320526252771D-03
148  1.4700000000000D+00 -1.0586945705326D-02 -9.3321339786378D-03
149  1.4800000000000D+00 -8.1897063935466D-03 -9.2948681707061D-03
150  1.4900000000000D+00 -6.1525992721616D-03 -8.4385481608889D-03
151  1.5000000000000D+00 -4.4460164995137D-03 -7.0588711387063D-03
152  1.5100000000000D+00 -3.0437866154479D-03 -5.4244144559045D-03
153  1.5200000000000D+00 -1.9217287603506D-03 -3.7652952872695D-03
154  1.5300000000000D+00 -1.0576656090921D-03 -2.2639230040447D-03
155  1.5400000000000D+00 -4.4994226970351D-04 -1.1075249455203D-03
156  1.5500000000000D+00 -9.7551323707795D-05 -4.3086256785325D-04
157  1.5600000000000D+00  4.2375791081648D-05 -1.3502403728910D-04
158  1.5700000000000D+00  3.9669760100517D-05 -2.3993521310439D-05
159  1.5800000000000D+00 -2.9799505896968D-06  6.9501370793803D-07
160  1.5900000000000D+00 -9.9997488580776D-06  2.2854497608048D-07
161  1.6000000000000D+00  9.3746070973285D-07 -4.1622691742964D-07
162  1.6100000000000D+00  1.9214345524399D-06 -6.7467079664546D-07
163  1.6200000000000D+00 -6.5258470753072D-08  2.0345891406053D-07
164  1.6300000000000D+00 -9.9710011206754D-08  3.1086984366906D-07
165  1.6400000000000D+00  0.0000000000000D+00  0.0000000000000D+00
166  1.6500000000000D+00  0.0000000000000D+00  0.0000000000000D+00
167  1.6600000000000D+00  0.0000000000000D+00  0.0000000000000D+00
168  1.6700000000000D+00  0.0000000000000D+00  0.0000000000000D+00
169  1.6800000000000D+00  0.0000000000000D+00  0.0000000000000D+00
170  1.6900000000000D+00  0.0000000000000D+00  0.0000000000000D+00
171  1.7000000000000D+00  0.0000000000000D+00  0.0000000000000D+00
172  1.7100000000000D+00  0.0000000000000D+00  0.0000000000000D+00
173  1.7200000000000D+00  0.0000000000000D+00  0.0000000000000D+00
174  1.7300000000000D+00  0.0000000000000D+00  0.0000000000000D+00
175  1.7400000000000D+00  0.0000000000000D+00  0.0000000000000D+00
176  1.7500000000000D+00  0.0000000000000D+00  0.0000000000000D+00
177  1.7600000000000D+00  0.0000000000000D+00  0.0000000000000D+00
178  1.7700000000000D+00  0.0000000000000D+00  0.0000000000000D+00
179  1.7800000000000D+00  0.0000000000000D+00  0.0000000000000D+00
180  1.7900000000000D+00  0.0000000000000D+00  0.0000000000000D+00
181  1.8000000000000D+00  0.0000000000000D+00  0.0000000000000D+00
182  1.8100000000000D+00  0.0000000000000D+00  0.0000000000000D+00
183  1.8200000000000D+00  0.0000000000000D+00  0.0000000000000D+00
184  1.8300000000000D+00  0.0000000000000D+00  0.0000000000000D+00
185  1.8400000000000D+00  0.0000000000000D+00  0.0000000000000D+00
186  1.8500000000000D+00  0.0000000000000D+00  0.0000000000000D+00
187  1.8600000000000D+00  0.0000000000000D+00  0.0000000000000D+00
188  1.8700000000000D+00  0.0000000000000D+00  0.0000000000000D+00
189  1.8800000000000D+00  0.0000000000000D+00  0.0000000000000D+00
190  1.8900000000000D+00  0.0000000000000D+00  0.0000000000000D+00
191  1.9000000000000D+00  0.0000000000000D+00  0.0000000000000D+00
192  1.9100000000000D+00  0.0000000000000D+00  0.0000000000000D+00
193  1.9200000000000D+00  0.0000000000000D+00  0.0000000000000D+00
194  1.9300000000000D+00  0.0000000000000D+00  0.0000000000000D+00
195  1.9400000000000D+00  0.0000000000000D+00  0.0000000000000D+00
196  1.9500000000000D+00  0.0000000000000D+00  0.0000000000000D+00
197  1.9600000000000D+00  0.0000000000000D+00  0.0000000000000D+00
198  1.9700000000000D+00  0.0000000000000D+00  0.0000000000000D+00
199  1.9800000000000D+00  0.0000000000000D+00  0.0000000000000D+00
200  1.9900000000000D+00  0.0000000000000D+00  0.0000000000000D+00
201  2.0000000000000D+00  0.0000000000000D+00  0.0000000000000D+00
202  2.0100000000000D+00  0.0000000000000D+00  0.0000000000000D+00
203  2.0200000000000D+00  0.0000000000000D+00  0.0000000000000D+00
204  2.0300000000000D+00  0.0000000000000D+00  0.0000000000000D+00
205  2.0400000000000D+00  0.0000000000000D+00  0.0000000000000D+00
206  2.0500000000000D+00  0.0000000000000D+00  0.0000000000000D+00
207  2.0600000000000D+00  0.0000000000000D+00  0.0000000000000D+00
208  2.0700000000000D+00  0.0000000000000D+00  0.0000000000000D+00
209  2.0800000000000D+00  0.0000000000000D+00  0.0000000000000D+00
210  2.0900000000000D+00  0.0000000000000D+00  0.0000000000000D+00
211  2.1000000000000D+00  0.0000000000000D+00  0.0000000000000D+00
212  2.1100000000000D+00  0.0000000000000D+00  0.0000000000000D+00
213  2.1200000000000D+00  0.0000000000000D+00  0.0000000000000D+00
214  2.1300000000000D+00  0.0000000000000D+00  0.0000000000000D+00
215  2.1400000000000D+00  0.0000000000000D+00  0.0000000000000D+00
216  2.1500000000000D+00  0.0000000000000D+00  0.0000000000000D+00
217  2.1600000000000D+00  0.0000000000000D+00  0.0000000000000D+00
218  2.1700000000000D+00  0.0000000000000D+00  0.0000000000000D+00
219  2.1800000000000D+00  0.0000000000000D+00  0.0000000000000D+00
220  2.1900000000000D+00  0.0000000000000D+00  0.0000000000000D+00
221  2.2000000000000D+00  0.0000000000000D+00  0.0000000000000D+00
222  2.2100000000000D+00  0.0000000000000D+00  0.0000000000000D+00
223  2.2200000000000D+00  0.0000000000000D+00  0.0000000000000D+00
224  2.2300000000000D+00  0.0000000000000D+00  0.0000000000000D+00
225  2.2400000000000D+00  0.0000000000000D+00  0.0000000000000D+00
226  2.2500000000000D+00  0.0000000000000D+00  0.0000000000000D+00
227  2.2600000000000D+00  0.0000000000000D+00  0.0000000000000D+00
228  2.2700000000000D+00  0.0000000000000D+00  0.0000000000000D+00
229  2.2800000000000D+00  0.0000000000000D+00  0.0000000000000D+00
230  2.2900000000000D+00  0.0000000000000D+00  0.0000000000000D+00
231  2.3000000000000D+00  0.0000000000000D+00  0.0000000000000D+00
232  2.3100000000000D+00  0.0000000000000D+00  0.0000000000000D+00
233  2.3200000000000D+00  0.0000000000000D+00  0.0000000000000D+00
234  2.3300000000000D+00  0.0000000000000D+00  0.0000000000000D+00
235  2.3400000000000D+00  0.0000000000000D+00  0.0000000000000D+00
236  2.3500000000000D+00  0.0000000000000D+00  0.0000000000000D+00
237  2.3600000000000D+00  0.0000000000000D+00  0.0000000000000D+00
238  2.3700000000000D+00  0.0000000000000D+00  0.0000000000000D+00
239  2.3800000000000D+00  0.0000000000000D+00  0.0000000000000D+00
240  2.3900000000000D+00  0.0000000000000D+00  0.0000000000000D+00
241  2.4000000000000D+00  0.0000000000000D+00  0.0000000000000D+00
242  2.4100000000000D+00  0.0000000000000D+00  0.0000000000000D+00
243  2.4200000000000D+00  0.0000000000000D+00  0.0000000000000D+00
244  2.4300000000000D+00  0.0000000000000D+00  0.0000000000000D+00
245  2.4400000000000D+00  0.0000000000000D+00  0.0000000000000D+00
246  2.4500000000000D+00  0.0000000000000D+00  0.0000000000000D+00
247  2.4600000000000D+00  0.0000000000000D+00  0.0000000000000D+00
248  2.4700000000000D+00  0.0000000000000D+00  0.0000000000000D+00
249  2.4800000000000D+00  0.0000000000000D+00  0.0000000000000D+00
250  2.4900000000000D+00  0.0000000000000D+00  0.0000000000000D+00
251  2.5000000000000D+00  0.0000000000000D+00  0.0000000000000D+00
252  2.5100000000000D+00  0.0000000000000D+00  0.0000000000000D+00
253  2.5200000000000D+00  0.0000000000000D+00  0.0000000000000D+00
254  2.5300000000000D+00  0.0000000000000D+00  0.0000000000000D+00
255  2.5400000000000D+00  0.0000000000000D+00  0.0000000000000D+00
256  2.5500000000000D+00  0.0000000000000D+00  0.0000000000000D+00
257  2.5600000000000D+00  0.0000000000000D+00  0.0000000000000D+00
258  2.5700000000000D+00  0.0000000000000D+00  0.0000000000000D+00
259  2.5800000000000D+00  0.0000000000000D+00  0.0000000000000D+00
260  2.5900000000000D+00  0.0000000000000D+00  0.0000000000000D+00
261  2.6000000000000D+00  0.0000000000000D+00  0.0000000000000D+00
262  2.6100000000000D+00  0.0000000000000D+00  0.0000000000000D+00
263  2.6200000000000D+00  0.0000000000000D+00  0.0000000000000D+00
264  2.6300000000000D+00  0.0000000000000D+00  0.0000000000000D+00
265  2.6400000000000D+00  0.0000000000000D+00  0.0000000000000D+00
266  2.6500000000000D+00  0.0000000000000D+00  0.0000000000000D+00
267  2.6600000000000D+00  0.0000000000000D+00  0.0000000000000D+00
268  2.6700000000000D+00  0.0000000000000D+00  0.0000000000000D+00
269  2.6800000000000D+00  0.0000000000000D+00  0.0000000000000D+00
270  2.6900000000000D+00  0.0000000000000D+00  0.0000000000000D+00
271  2.7000000000000D+00  0.0000000000000D+00  0.0000000000000D+00
272  2.7100000000000D+00  0.0000000000000D+00  0.0000000000000D+00
273  2.7200000000000D+00  0.0000000000000D+00  0.0000000000000D+00
274  2.7300000000000D+00  0.0000000000000D+00  0.0000000000000D+00
275  2.7400000000000D+00  0.0000000000000D+00  0.0000000000000D+00
276  2.7500000000000D+00  0.0000000000000D+00  0.0000000000000D+00
277  2.7600000000000D+00  0.0000000000000D+00  0.0000000000000D+00
278  2.7700000000000D+00  0.0000000000000D+00  0.0000000000000D+00
279  2.7800000000000D+00  0.0000000000000D+00  0.0000000000000D+00
280  2.7900000000000D+00  0.0000000000000D+00  0.0000000000000D+00
281  2.8000000000000D+00  0.0000000000000D+00  0.0000000000000D+00
282  2.8100000000000D+00  0.0000000000000D+00  0.0000000000000D+00
283  2.8200000000000D+00  0.0000000000000D+00  0.0000000000000D+00
284  2.8300000000000D+00  0.0000000000000D+00  0.0000000000000D+00
285  2.8400000000000D+00  0.0000000000000D+00  0.0000000000000D+00
286  2.8500000000000D+00  0.0000000000000D+00  0.0000000000000D+00
287  2.8600000000000D+00  0.0000000000000D+00  0.0000000000000D+00
288  2.8700000000000D+00  0.0000000000000D+00  0.0000000000000D+00
289  2.8800000000000D+00  0.0000000000000D+00  0.0000000000000D+00
290  2.8900000000000D+00  0.0000000000000D+00  0.0000000000000D+00
291  2.9000000000000D+00  0.0000000000000D+00  0.0000000000000D+00
292  2.9100000000000D+00  0.0000000000000D+00  0.0000000000000D+00
293  2.9200000000000D+00  0.0000000000000D+00  0.0000000000000D+00
294  2.9300000000000D+00  0.0000000000000D+00  0.0000000000000D+00
295  2.9400000000000D+00  0.0000000000000D+00  0.0000000000000D+00
296  2.9500000000000D+00  0.0000000000000D+00  0.0000000000000D+00
297  2.9600000000000D+00  0.0000000000000D+00  0.0000000000000D+00
298  2.9700000000000D+00  0.0000000000000D+00  0.0000000000000D+00
299  2.9800000000000D+00  0.0000000000000D+00  0.0000000000000D+00
300  2.9900000000000D+00  0.0000000000000D+00  0.0000000000000D+00
301  3.0000000000000D+00  0.0000000000000D+00  0.0000000000000D+00
302  3.0100000000000D+00  0.0000000000000D+00  0.0000000000000D+00
303  3.0200000000000D+00  0.0000000000000D+00  0.0000000000000D+00
304  3.0300000000000D+00  0.0000000000000D+00  0.0000000000000D+00
305  3.0400000000000D+00  0.0000000000000D+00  0.0000000000000D+00
306  3.0500000000000D+00  0.0000000000000D+00  0.0000000000000D+00
307  3.0600000000000D+00  0.0000000000000D+00  0.0000000000000D+00
308  3.0700000000000D+00  0.0000000000000D+00  0.0000000000000D+00
309  3.0800000000000D+00  0.0000000000000D+00  0.0000000000000D+00
310  3.0900000000000D+00  0.0000000000000D+00  0.0000000000000D+00
311  3.1000000000000D+00  0.0000000000000D+00  0.0000000000000D+00
312  3.1100000000000D+00  0.0000000000000D+00  0.0000000000000D+00
313  3.1200000000000D+00  0.0000000000000D+00  0.0000000000000D+00
314  3.1300000000000D+00  0.0000000000000D+00  0.0000000000000D+00
315  3.1400000000000D+00  0.0000000000000D+00  0.0000000000000D+00
316  3.1500000000000D+00  0.0000000000000D+00  0.0000000000000D+00
317  3.1600000000000D+00  0.0000000000000D+00  0.0000000000000D+00
318  3.1700000000000D+00  0.0000000000000D+00  0.0000000000000D+00
319  3.1800000000000D+00  0.0000000000000D+00  0.0000000000000D+00
320  3.1900000000000D+00  0.0000000000000D+00  0.0000000000000D+00
321  3.2000000000000D+00  0.0000000000000D+00  0.0000000000000D+00
322  3.2100000000000D+00  0.0000000000000D+00  0.0000000000000D+00
323  3.2200000000000D+00  0.0000000000000D+00  0.0000000000000D+00
324  3.2300000000000D+00  0.0000000000000D+00  0.0000000000000D+00
325  3.2400000000000D+00  0.0000000000000D+00  0.0000000000000D+00
326  3.2500000000000D+00  0.0000000000000D+00  0.0000000000000D+00
327  3.2600000000000D+00  0.0000000000000D+00  0.0000000000000D+00
328  3.2700000000000D+00  0.0000000000000D+00  0.0000000000000D+00
329  3.2800000000000D+00  0.0000000000000D+00  0.0000000000000D+00
330  3.2900000000000D+00  0.0000000000000D+00  0.0000000000000D+00
331  3.3000000000000D+00  0.0000000000000D+00  0.0000000000000D+00
332  3.3100000000000D+00  0.0000000000000D+00  0.0000000000000D+00
333  3.3200000000000D+00  0.0000000000000D+00  0.0000000000000D+00
334  3.3300000000000D+00  0.0000000000000D+00  0.0000000000000D+00
335  3.3400000000000D+00  0.0000000000000D+00  0.0000000000000D+00
336  3.3500000000000D+00  0.0000000000000D+00  0.0000000000000D+00
337  3.3600000000000D+00  0.0000000000000D+00  0.0000000000000D+00
338  3.3700000000000D+00  0.0000000000000D+00  0.0000000000000D+00
339  3.3800000000000D+00  0.0000000000000D+00  0.0000000000000D+00
340  3.3900000000000D+00  0.0000000000000D+00  0.0000000000000D+00
341  3.4000000000000D+00  0.0000000000000D+00  0.0000000000000D+00
342  3.4100000000000D+00  0.0000000000000D+00  0.0000000000000D+00
343  3.4200000000000D+00  0.0000000000000D+00  0.0000000000000D+00
344  3.4300000000000D+00  0.0000000000000D+00  0.0000000000000D+00
345  3.4400000000000D+00  0.0000000000000D+00  0.0000000000000D+00
346  3.4500000000000D+00  0.0000000000000D+00  0.0000000000000D+00
347  3.4600000000000D+00  0.0000000000000D+00  0.0000000000000D+00
348  3.4700000000000D+00  0.0000000000000D+00  0.0000000000000D+00
349  3.4800000000000D+00  0.0000000000000D+00  0.0000000000000D+00
350  3.4900000000000D+00  0.0000000000000D+00  0.0000000000000D+00
351  3.5000000000000D+00  0.0000000000000D+00  0.0000000000000D+00
352  3.5100000000000D+00  0.0000000000000D+00  0.0000000000000D+00
353  3.5200000000000D+00  0.0000000000000D+00  0.0000000000000D+00
354  3.5300000000000D+00  0.0000000000000D+00  0.0000000000000D+00
355  3.5400000000000D+00  0.0000000000000D+00  0.0000000000000D+00
356  3.5500000000000D+00  0.0000000000000D+00  0.0000000000000D+00
357  3.5600000000000D+00  0.0000000000000D+00  0.0000000000000D+00
358  3.5700000000000D+00  0.0000000000000D+00  0.0000000000000D+00
359  3.5800000000000D+00  0.0000000000000D+00  0.0000000000000D+00
360  3.5900000000000D+00  0.0000000000000D+00  0.0000000000000D+00
361  3.6000000000000D+00  0.0000000000000D+00  0.0000000000000D+00
362  3.6100000000000D+00  0.0000000000000D+00  0.0000000000000D+00
363  3.6200000000000D+00  0.0000000000000D+00  0.0000000000000D+00
364  3.6300000000000D+00  0.0000000000000D+00  0.0000000000000D+00
365  3.6400000000000D+00  0.0000000000000D+00  0.0000000000000D+00
366  3.6500000000000D+00  0.0000000000000D+00  0.0000000000000D+00
367  3.6600000000000D+00  0.0000000000000D+00  0.0000000000000D+00
368  3.6700000000000D+00  0.0000000000000D+00  0.0000000000000D+00
369  3.6800000000000D+00  0.0000000000000D+00  0.0000000000000D+00
370  3.6900000000000D+00  0.0000000000000D+00  0.0000000000000D+00
371  3.7000000000000D+00  0.0000000000000D+00  0.0000000000000D+00
372  3.7100000000000D+00  0.0000000000000D+00  0.0000000000000D+00
373  3.7200000000000D+00  0.0000000000000D+00  0.0000000000000D+00
374  3.7300000000000D+00  0.0000000000000D+00  0.0000000000000D+00
375  3.7400000000000D+00  0.0000000000000D+00  0.0000000000000D+00
376  3.7500000000000D+00  0.0000000000000D+00  0.0000000000000D+00
377  3.7600000000000D+00  0.0000000000000D+00  0.0000000000000D+00
378  3.7700000000000D+00  0.0000000000000D+00  0.0000000000000D+00
379  3.7800000000000D+00  0.0000000000000D+00  0.0000000000000D+00
380  3.7900000000000D+00  0.0000000000000D+00  0.0000000000000D+00
381  3.8000000000000D+00  0.0000000000000D+00  0.0000000000000D+00
382  3.8100000000000D+00  0.0000000000000D+00  0.0000000000000D+00
383  3.8200000000000D+00  0.0000000000000D+00  0.0000000000000D+00
384  3.8300000000000D+00  0.0000000000000D+00  0.0000000000000D+00
385  3.8400000000000D+00  0.0000000000000D+00  0.0000000000000D+00
386  3.8500000000000D+00  0.0000000000000D+00  0.0000000000000D+00
387  3.8600000000000D+00  0.0000000000000D+00  0.0000000000000D+00
388  3.8700000000000D+00  0.0000000000000D+00  0.0000000000000D+00
389  3.8800000000000D+00  0.0000000000000D+00  0.0000000000000D+00
390  3.8900000000000D+00  0.0000000000000D+00  0.0000000000000D+00
391  3.9000000000000D+00  0.0000000000000D+00  0.0000000000000D+00
392  3.9100000000000D+00  0.0000000000000D+00  0.0000000000000D+00
393  3.9200000000000D+00  0.0000000000000D+00  0.0000000000000D+00
394  3.9300000000000D+00  0.0000000000000D+00  0.0000000000000D+00
395  3.9400000000000D+00  0.0000000000000D+00  0.0000000000000D+00
396  3.9500000000000D+00  0.0000000000000D+00  0.0000000000000D+00
397  3.9600000000000D+00  0.0000000000000D+00  0.0000000000000D+00
398  3.9700000000000D+00  0.0000000000000D+00  0.0000000000000D+00
399  3.9800000000000D+00  0.0000000000000D+00  0.0000000000000D+00
400  3.9900000000000D+00  0.0000000000000D+00  0.0000000000000D+00
401  4.0000000000000D+00  0.0000000000000D+00  0.0000000000000D+00
402  4.0100000000000D+00  0.0000000000000D+00  0.0000000000000D+00
403  4.0200000000000D+00  0.0000000000000D+00  0.0000000000000D+00
404  4.0300000000000D+00  0.0000000000000D+00  0.0000000000000D+00
405  4.0400000000000D+00  0.0000000000000D+00  0.0000000000000D+00
406  4.0500000000000D+00  0.0000000000000D+00  0.0000000000000D+00
407  4.0600000000000D+00  0.0000000000000D+00  0.0000000000000D+00
408  4.0700000000000D+00  0.0000000000000D+00  0.0000000000000D+00
409  4.0800000000000D+00  0.0000000000000D+00  0.0000000000000D+00
410  4.0900000000000D+00  0.0000000000000D+00  0.0000000000000D+00
411  4.1000000000000D+00  0.0000000000000D+00  0.0000000000000D+00
412  4.1100000000000D+00  0.0000000000000D+00  0.0000000000000D+00
413  4.1200000000000D+00  0.0000000000000D+00  0.0000000000000D+00
414  4.1300000000000D+00  0.0000000000000D+00  0.0000000000000D+00
415  4.1400000000000D+00  0.0000000000000D+00  0.0000000000000D+00
416  4.1500000000000D+00  0.0000000000000D+00  0.0000000000000D+00
417  4.1600000000000D+00  0.0000000000000D+00  0.0000000000000D+00
418  4.1700000000000D+00  0.0000000000000D+00  0.0000000000000D+00
419  4.1800000000000D+00  0.0000000000000D+00  0.0000000000000D+00
420  4.1900000000000D+00  0.0000000000000D+00  0.0000000000000D+00
421  4.2000000000000D+00  0.0000000000000D+00  0.0000000000000D+00
422  4.2100000000000D+00  0.0000000000000D+00  0.0000000000000D+00
423  4.2200000000000D+00  0.0000000000000D+00  0.0000000000000D+00
424  4.2300000000000D+00  0.0000000000000D+00  0.0000000000000D+00
425  4.2400000000000D+00  0.0000000000000D+00  0.0000000000000D+00
426  4.2500000000000D+00  0.0000000000000D+00  0.0000000000000D+00
427  4.2600000000000D+00  0.0000000000000D+00  0.0000000000000D+00
428  4.2700000000000D+00  0.0000000000000D+00  0.0000000000000D+00
429  4.2800000000000D+00  0.0000000000000D+00  0.0000000000000D+00
430  4.2900000000000D+00  0.0000000000000D+00  0.0000000000000D+00
431  4.3000000000000D+00  0.0000000000000D+00  0.0000000000000D+00
432  4.3100000000000D+00  0.0000000000000D+00  0.0000000000000D+00
433  4.3200000000000D+00  0.0000000000000D+00  0.0000000000000D+00
434  4.3300000000000D+00  0.0000000000000D+00  0.0000000000000D+00
435  4.3400000000000D+00  0.0000000000000D+00  0.0000000000000D+00
436  4.3500000000000D+00  0.0000000000000D+00  0.0000000000000D+00
437  4.3600000000000D+00  0.0000000000000D+00  0.0000000000000D+00
438  4.3700000000000D+00  0.0000000000000D+00  0.0000000000000D+00
439  4.3800000000000D+00  0.0000000000000D+00  0.0000000000000D+00
440  4.3900000000000D+00  0.0000000000000D+00  0.0000000000000D+00
441  4.4000000000000D+00  0.0000000000000D+00  0.0000000000000D+00
442  4.4100000000000D+00  0.0000000000000D+00  0.0000000000000D+00
443  4.4200000000000D+00  0.0000000000000D+00  0.0000000000000D+00
444  4.4300000000000D+00  0.0000000000000D+00  0.0000000000000D+00