Pt    ONCVPSP  r_core=  1.41  1.46  1.41  1.20
78.0000     32.0000      161001    zatom,zion,pspd
8      11   3     4   500     0    pspcod,pspxc,lmax,lloc,mmax,r2well
4.99000000  5.00000000  0.00000000    rchrg fchrg qchrg
2     2     2     1     0    nproj
1                 extension_switch
0                         1.6029728612827D+01  1.7701346496418D+00
1  0.0000000000000D+00 -5.1736237516309D-10  2.5974111750315D-10
2  1.0000000000000D-02  7.2435525636611D-02 -2.1471060623943D-02
3  2.0000000000000D-02  1.4472960308668D-01 -4.2875265264448D-02
4  3.0000000000000D-02  2.1674112357180D-01 -6.4145541454317D-02
5  4.0000000000000D-02  2.8832965132438D-01 -8.5214372391542D-02
6  5.0000000000000D-02  3.5935574773216D-01 -1.0601355930138D-01
7  6.0000000000000D-02  4.2968128325298D-01 -1.2647397879946D-01
8  7.0000000000000D-02  4.9916973483555D-01 -1.4652534038525D-01
9  8.0000000000000D-02  5.6768646709956D-01 -1.6609594945497D-01
10  9.0000000000000D-02  6.3509899605295D-01 -1.8511248144186D-01
11  1.0000000000000D-01  7.0127723464617D-01 -2.0349977285999D-01
12  1.1000000000000D-01  7.6609371997387D-01 -2.2118063513622D-01
13  1.2000000000000D-01  8.2942382242478D-01 -2.3807569715587D-01
14  1.3000000000000D-01  8.9114593754220D-01 -2.5410328241461D-01
15  1.4000000000000D-01  9.5114166178380D-01 -2.6917932655696D-01
16  1.5000000000000D-01  1.0092959537530D+00 -2.8321734088614D-01
17  1.6000000000000D-01  1.0654972828097D+00 -2.9612842714884D-01
18  1.7000000000000D-01  1.1196377672488D+00 -3.0782134853022D-01
19  1.8000000000000D-01  1.1716133044624D+00 -3.1820266133904D-01
20  1.9000000000000D-01  1.2213236956602D+00 -3.2717691132216D-01
21  2.0000000000000D-01  1.2686727678281D+00 -3.3464689792449D-01
22  2.1000000000000D-01  1.3135684956379D+00 -3.4051400910784D-01
23  2.2000000000000D-01  1.3559231259936D+00 -3.4467862856730D-01
24  2.3000000000000D-01  1.3956533078060D+00 -3.4704061634095D-01
25  2.4000000000000D-01  1.4326802294331D+00 -3.4749986290753D-01
26  2.5000000000000D-01  1.4669297660069D+00 -3.4595691591443D-01
27  2.6000000000000D-01  1.4983326385948D+00 -3.4231367768517D-01
28  2.7000000000000D-01  1.5268245868177D+00 -3.3647417063215D-01
29  2.8000000000000D-01  1.5523465561753D+00 -3.2834536665784D-01
30  2.9000000000000D-01  1.5748449009106D+00 -3.1783807557753D-01
31  3.0000000000000D-01  1.5942716027965D+00 -3.0486788655268D-01
32  3.1000000000000D-01  1.6105845057458D+00 -2.8935615549760D-01
33  3.2000000000000D-01  1.6237475656434D+00 -2.7123103042772D-01
34  3.3000000000000D-01  1.6337311142836D+00 -2.5042850576886D-01
35  3.4000000000000D-01  1.6405121357729D+00 -2.2689349575527D-01
36  3.5000000000000D-01  1.6440745532410D+00 -2.0058091622638D-01
37  3.6000000000000D-01  1.6444095231909D+00 -1.7145676339718D-01
38  3.7000000000000D-01  1.6415157343332D+00 -1.3949917754171D-01
39  3.8000000000000D-01  1.6353997072861D+00 -1.0469947900175D-01
40  3.9000000000000D-01  1.6260760910965D+00 -6.7063163526782D-02
41  4.0000000000000D-01  1.6135679521579D+00 -2.6610843676527D-02
42  4.1000000000000D-01  1.5979070507654D+00  1.6620877117368D-02
43  4.2000000000000D-01  1.5791341002782D+00  6.2578611220694D-02
44  4.3000000000000D-01  1.5572990036476D+00  1.1119148741881D-01
45  4.4000000000000D-01  1.5324610619297D+00  1.6237055838532D-01
46  4.5000000000000D-01  1.5046891493325D+00  2.1600832740013D-01
47  4.6000000000000D-01  1.4740618493622D+00  2.7197840606415D-01
48  4.7000000000000D-01  1.4406675467206D+00  3.3013531393784D-01
49  4.8000000000000D-01  1.4046044697817D+00  3.9031443004962D-01
50  4.9000000000000D-01  1.3659806787304D+00  4.5233210508056D-01
51  5.0000000000000D-01  1.3249139947846D+00  5.1598594174197D-01
52  5.1000000000000D-01  1.2815318663408D+00  5.8105524943006D-01
53  5.2000000000000D-01  1.2359711683807D+00  6.4730167767749D-01
54  5.3000000000000D-01  1.1883779320449D+00  7.1447003123772D-01
55  5.4000000000000D-01  1.1389070019214D+00  7.8228926785243D-01
56  5.5000000000000D-01  1.0877216192960D+00  8.5047367787410D-01
57  5.6000000000000D-01  1.0349929303720D+00  9.1872424297317D-01
58  5.7000000000000D-01  9.8089941926739D-01  9.8673016916483D-01
59  5.8000000000000D-01  9.2562626644582D-01  1.0541705873660D+00
60  5.9000000000000D-01  8.6936463410329D-01  1.1207164126690D+00
61  6.0000000000000D-01  8.1231088092785D-01  1.1860323515042D+00
62  6.1000000000000D-01  7.5466570954196D-01  1.2497790439003D+00
63  6.2000000000000D-01  6.9663325083117D-01  1.3116153261486D+00
64  6.3000000000000D-01  6.3842009023985D-01  1.3712005973661D+00
65  6.4000000000000D-01  5.8023424195957D-01  1.4281972717680D+00
66  6.5000000000000D-01  5.2228407774820D-01  1.4822732968973D+00
67  6.6000000000000D-01  4.6477721787288D-01  1.5331047166782D+00
68  6.7000000000000D-01  4.0791939236378D-01  1.5803782569553D+00
69  6.8000000000000D-01  3.5191328139007D-01  1.6237939101815D+00
70  6.9000000000000D-01  2.9695734410603D-01  1.6630674951455D+00
71  7.0000000000000D-01  2.4324464576217D-01  1.6979331670986D+00
72  7.1000000000000D-01  1.9096169322248D-01  1.7281458533610D+00
73  7.2000000000000D-01  1.4028728926847D-01  1.7534835894756D+00
74  7.3000000000000D-01  9.1391416195848D-02  1.7737497312392D+00
75  7.4000000000000D-01  4.4434159219124D-02  1.7887750184775D+00
76  7.5000000000000D-01 -4.3531991214727D-04  1.7984194672524D+00
77  7.6000000000000D-01 -4.3079748913322D-02  1.8025740682780D+00
78  7.7000000000000D-01 -8.3374640763527D-02  1.8011622706952D+00
79  7.8000000000000D-01 -1.2120910995777D-01  1.7941412319782D+00
80  7.9000000000000D-01 -1.5648660045486D-01  1.7815028166200D+00
81  8.0000000000000D-01 -1.8912551726178D-01  1.7632743283528D+00
82  8.1000000000000D-01 -2.1905975439680D-01  1.7395189629732D+00
83  8.2000000000000D-01 -2.4623911286945D-01  1.7103359713448D+00
84  8.3000000000000D-01 -2.7062960329723D-01  1.6758605248134D+00
85  8.4000000000000D-01 -2.9221362883331D-01  1.6362632780604D+00
86  8.5000000000000D-01 -3.1099004519628D-01  1.5917496273085D+00
87  8.6000000000000D-01 -3.2697409575607D-01  1.5425586647437D+00
88  8.7000000000000D-01 -3.4019722082804D-01  1.4889618329975D+00
89  8.8000000000000D-01 -3.5070674154137D-01  1.4312612864933D+00
90  8.9000000000000D-01 -3.5856541986562D-01  1.3697879693828D+00
91  9.0000000000000D-01 -3.6385089758257D-01  1.3048994226208D+00
92  9.1000000000000D-01 -3.6665501816363D-01  1.2369773354303D+00
93  9.2000000000000D-01 -3.6708303664095D-01  1.1664248589435D+00
94  9.3000000000000D-01 -3.6525272362583D-01  1.0936637021435D+00
95  9.4000000000000D-01 -3.6129337061747D-01  1.0191310323264D+00
96  9.5000000000000D-01 -3.5534470464342D-01  9.4327620414426D-01
97  9.6000000000000D-01 -3.4755572106762D-01  8.6655734282113D-01
98  9.7000000000000D-01 -3.3808344408002D-01  7.8943780835506D-01
99  9.8000000000000D-01 -3.2709162493695D-01  7.1238256839007D-01
100  9.9000000000000D-01 -3.1474938842942D-01  6.3585450795247D-01
101  1.0000000000000D+00 -3.0122983834609D-01  5.6031070439794D-01
102  1.0100000000000D+00 -2.8670863281401D-01  4.8619869566183D-01
103  1.0200000000000D+00 -2.7136254038253D-01  4.1395276928799D-01
104  1.0300000000000D+00 -2.5536798754429D-01  3.4399029871250D-01
105  1.0400000000000D+00 -2.3889960805303D-01  2.7670815186621D-01
106  1.0500000000000D+00 -2.2212880393880D-01  2.1247919546356D-01
107  1.0600000000000D+00 -2.0522232752226D-01  1.5164891629504D-01
108  1.0700000000000D+00 -1.8834089295097D-01  9.4532178343267D-02
109  1.0800000000000D+00 -1.7163782494971D-01  4.1410131976432D-02
110  1.0900000000000D+00 -1.5525775144588D-01 -7.4727116128732D-03
111  1.1000000000000D+00 -1.3933534571622D-01 -5.1911230521521D-02
112  1.1100000000000D+00 -1.2399412252465D-01 -9.1742259978713D-02
113  1.1200000000000D+00 -1.0934529143066D-01 -1.2684697471496D-01
114  1.1300000000000D+00 -9.5486669221168D-02 -1.5715308604366D-01
115  1.1400000000000D+00 -8.2501652055927D-02 -1.8263685755287D-01
116  1.1500000000000D+00 -7.0458246770873D-02 -2.0332494640264D-01
117  1.1600000000000D+00 -5.9408159167948D-02 -2.1929608150354D-01
118  1.1700000000000D+00 -4.9385930679804D-02 -2.3068261225286D-01
119  1.1800000000000D+00 -4.0408126220084D-02 -2.3767191482747D-01
120  1.1900000000000D+00 -3.2472673046897D-02 -2.4050731424708D-01
121  1.2000000000000D+00 -2.5557977257644D-02 -2.3948981541910D-01
122  1.2100000000000D+00 -1.9621843290705D-02 -2.3498067894672D-01
123  1.2200000000000D+00 -1.4606120180814D-02 -2.2738294798319D-01
124  1.2300000000000D+00 -1.0442383269463D-02 -2.1712038336818D-01
125  1.2400000000000D+00 -7.0575647766457D-03 -2.0461759503010D-01
126  1.2500000000000D+00 -4.3745774802766D-03 -1.9029900777694D-01
127  1.2600000000000D+00 -2.3138254436933D-03 -1.7458458773206D-01
128  1.2700000000000D+00 -7.9467854152712D-04 -1.5788569704889D-01
129  1.2800000000000D+00  2.6309975995932D-04 -1.4060115248102D-01
130  1.2900000000000D+00  9.3797860506817D-04 -1.2311347535836D-01
131  1.3000000000000D+00  1.3053309604493D-03 -1.0578528438020D-01
132  1.3100000000000D+00  1.4361696541738D-03 -8.8955887918572D-02
133  1.3200000000000D+00  1.3959608729204D-03 -7.2938106475807D-02
134  1.3300000000000D+00  1.2435262572692D-03 -5.8015352288042D-02
135  1.3400000000000D+00  1.0300445393968D-03 -4.4438991887835D-02
136  1.3500000000000D+00  7.9816346766147D-04 -3.2426018687831D-02
137  1.3600000000000D+00  5.8140663348917D-04 -2.2160972807972D-02
138  1.3700000000000D+00  4.0283070401361D-04 -1.3778768840763D-02
139  1.3800000000000D+00  2.7225020934062D-04 -7.3391024492027D-03
140  1.3900000000000D+00  2.0305494292317D-04 -3.0577471929543D-03
141  1.4000000000000D+00  1.8814813656099D-04 -9.5371222127722D-04
142  1.4100000000000D+00  1.3144983730372D-04 -1.9890767822728D-04
143  1.4200000000000D+00  2.4822706735431D-05 -9.9766255351018D-06
144  1.4300000000000D+00 -1.7384011735251D-05 -6.6704749170795D-07
145  1.4400000000000D+00  5.4491801823519D-08 -3.1237675006995D-08
146  1.4500000000000D+00  3.6334332683311D-06 -1.4517084719509D-06
147  1.4600000000000D+00 -2.5600661227505D-07  6.2494727548785D-07
148  1.4700000000000D+00 -3.3898746061944D-07  8.2751491477517D-07
149  1.4800000000000D+00  0.0000000000000D+00  0.0000000000000D+00
150  1.4900000000000D+00  0.0000000000000D+00  0.0000000000000D+00
151  1.5000000000000D+00  0.0000000000000D+00  0.0000000000000D+00
152  1.5100000000000D+00  0.0000000000000D+00  0.0000000000000D+00
153  1.5200000000000D+00  0.0000000000000D+00  0.0000000000000D+00
154  1.5300000000000D+00  0.0000000000000D+00  0.0000000000000D+00
155  1.5400000000000D+00  0.0000000000000D+00  0.0000000000000D+00
156  1.5500000000000D+00  0.0000000000000D+00  0.0000000000000D+00
157  1.5600000000000D+00  0.0000000000000D+00  0.0000000000000D+00
158  1.5700000000000D+00  0.0000000000000D+00  0.0000000000000D+00
159  1.5800000000000D+00  0.0000000000000D+00  0.0000000000000D+00
160  1.5900000000000D+00  0.0000000000000D+00  0.0000000000000D+00
161  1.6000000000000D+00  0.0000000000000D+00  0.0000000000000D+00
162  1.6100000000000D+00  0.0000000000000D+00  0.0000000000000D+00
163  1.6200000000000D+00  0.0000000000000D+00  0.0000000000000D+00
164  1.6300000000000D+00  0.0000000000000D+00  0.0000000000000D+00
165  1.6400000000000D+00  0.0000000000000D+00  0.0000000000000D+00
166  1.6500000000000D+00  0.0000000000000D+00  0.0000000000000D+00
167  1.6600000000000D+00  0.0000000000000D+00  0.0000000000000D+00
168  1.6700000000000D+00  0.0000000000000D+00  0.0000000000000D+00
169  1.6800000000000D+00  0.0000000000000D+00  0.0000000000000D+00
170  1.6900000000000D+00  0.0000000000000D+00  0.0000000000000D+00
171  1.7000000000000D+00  0.0000000000000D+00  0.0000000000000D+00
172  1.7100000000000D+00  0.0000000000000D+00  0.0000000000000D+00
173  1.7200000000000D+00  0.0000000000000D+00  0.0000000000000D+00
174  1.7300000000000D+00  0.0000000000000D+00  0.0000000000000D+00
175  1.7400000000000D+00  0.0000000000000D+00  0.0000000000000D+00
176  1.7500000000000D+00  0.0000000000000D+00  0.0000000000000D+00
177  1.7600000000000D+00  0.0000000000000D+00  0.0000000000000D+00
178  1.7700000000000D+00  0.0000000000000D+00  0.0000000000000D+00
179  1.7800000000000D+00  0.0000000000000D+00  0.0000000000000D+00
180  1.7900000000000D+00  0.0000000000000D+00  0.0000000000000D+00
181  1.8000000000000D+00  0.0000000000000D+00  0.0000000000000D+00
182  1.8100000000000D+00  0.0000000000000D+00  0.0000000000000D+00
183  1.8200000000000D+00  0.0000000000000D+00  0.0000000000000D+00
184  1.8300000000000D+00  0.0000000000000D+00  0.0000000000000D+00
185  1.8400000000000D+00  0.0000000000000D+00  0.0000000000000D+00
186  1.8500000000000D+00  0.0000000000000D+00  0.0000000000000D+00
187  1.8600000000000D+00  0.0000000000000D+00  0.0000000000000D+00
188  1.8700000000000D+00  0.0000000000000D+00  0.0000000000000D+00
189  1.8800000000000D+00  0.0000000000000D+00  0.0000000000000D+00
190  1.8900000000000D+00  0.0000000000000D+00  0.0000000000000D+00
191  1.9000000000000D+00  0.0000000000000D+00  0.0000000000000D+00
192  1.9100000000000D+00  0.0000000000000D+00  0.0000000000000D+00
193  1.9200000000000D+00  0.0000000000000D+00  0.0000000000000D+00
194  1.9300000000000D+00  0.0000000000000D+00  0.0000000000000D+00
195  1.9400000000000D+00  0.0000000000000D+00  0.0000000000000D+00
196  1.9500000000000D+00  0.0000000000000D+00  0.0000000000000D+00
197  1.9600000000000D+00  0.0000000000000D+00  0.0000000000000D+00
198  1.9700000000000D+00  0.0000000000000D+00  0.0000000000000D+00
199  1.9800000000000D+00  0.0000000000000D+00  0.0000000000000D+00
200  1.9900000000000D+00  0.0000000000000D+00  0.0000000000000D+00
201  2.0000000000000D+00  0.0000000000000D+00  0.0000000000000D+00
202  2.0100000000000D+00  0.0000000000000D+00  0.0000000000000D+00
203  2.0200000000000D+00  0.0000000000000D+00  0.0000000000000D+00
204  2.0300000000000D+00  0.0000000000000D+00  0.0000000000000D+00
205  2.0400000000000D+00  0.0000000000000D+00  0.0000000000000D+00
206  2.0500000000000D+00  0.0000000000000D+00  0.0000000000000D+00
207  2.0600000000000D+00  0.0000000000000D+00  0.0000000000000D+00
208  2.0700000000000D+00  0.0000000000000D+00  0.0000000000000D+00
209  2.0800000000000D+00  0.0000000000000D+00  0.0000000000000D+00
210  2.0900000000000D+00  0.0000000000000D+00  0.0000000000000D+00
211  2.1000000000000D+00  0.0000000000000D+00  0.0000000000000D+00
212  2.1100000000000D+00  0.0000000000000D+00  0.0000000000000D+00
213  2.1200000000000D+00  0.0000000000000D+00  0.0000000000000D+00
214  2.1300000000000D+00  0.0000000000000D+00  0.0000000000000D+00
215  2.1400000000000D+00  0.0000000000000D+00  0.0000000000000D+00
216  2.1500000000000D+00  0.0000000000000D+00  0.0000000000000D+00
217  2.1600000000000D+00  0.0000000000000D+00  0.0000000000000D+00
218  2.1700000000000D+00  0.0000000000000D+00  0.0000000000000D+00
219  2.1800000000000D+00  0.0000000000000D+00  0.0000000000000D+00
220  2.1900000000000D+00  0.0000000000000D+00  0.0000000000000D+00
221  2.2000000000000D+00  0.0000000000000D+00  0.0000000000000D+00
222  2.2100000000000D+00  0.0000000000000D+00  0.0000000000000D+00
223  2.2200000000000D+00  0.0000000000000D+00  0.0000000000000D+00
224  2.2300000000000D+00  0.0000000000000D+00  0.0000000000000D+00
225  2.2400000000000D+00  0.0000000000000D+00  0.0000000000000D+00
226  2.2500000000000D+00  0.0000000000000D+00  0.0000000000000D+00
227  2.2600000000000D+00  0.0000000000000D+00  0.0000000000000D+00
228  2.2700000000000D+00  0.0000000000000D+00  0.0000000000000D+00
229  2.2800000000000D+00  0.0000000000000D+00  0.0000000000000D+00
230  2.2900000000000D+00  0.0000000000000D+00  0.0000000000000D+00
231  2.3000000000000D+00  0.0000000000000D+00  0.0000000000000D+00
232  2.3100000000000D+00  0.0000000000000D+00  0.0000000000000D+00
233  2.3200000000000D+00  0.0000000000000D+00  0.0000000000000D+00
234  2.3300000000000D+00  0.0000000000000D+00  0.0000000000000D+00
235  2.3400000000000D+00  0.0000000000000D+00  0.0000000000000D+00
236  2.3500000000000D+00  0.0000000000000D+00  0.0000000000000D+00
237  2.3600000000000D+00  0.0000000000000D+00  0.0000000000000D+00
238  2.3700000000000D+00  0.0000000000000D+00  0.0000000000000D+00
239  2.3800000000000D+00  0.0000000000000D+00  0.0000000000000D+00
240  2.3900000000000D+00  0.0000000000000D+00  0.0000000000000D+00
241  2.4000000000000D+00  0.0000000000000D+00  0.0000000000000D+00
242  2.4100000000000D+00  0.0000000000000D+00  0.0000000000000D+00
243  2.4200000000000D+00  0.0000000000000D+00  0.0000000000000D+00
244  2.4300000000000D+00  0.0000000000000D+00  0.0000000000000D+00
245  2.4400000000000D+00  0.0000000000000D+00  0.0000000000000D+00
246  2.4500000000000D+00  0.0000000000000D+00  0.0000000000000D+00
247  2.4600000000000D+00  0.0000000000000D+00  0.0000000000000D+00
248  2.4700000000000D+00  0.0000000000000D+00  0.0000000000000D+00
249  2.4800000000000D+00  0.0000000000000D+00  0.0000000000000D+00
250  2.4900000000000D+00  0.0000000000000D+00  0.0000000000000D+00
251  2.5000000000000D+00  0.0000000000000D+00  0.0000000000000D+00
252  2.5100000000000D+00  0.0000000000000D+00  0.0000000000000D+00
253  2.5200000000000D+00  0.0000000000000D+00  0.0000000000000D+00
254  2.5300000000000D+00  0.0000000000000D+00  0.0000000000000D+00
255  2.5400000000000D+00  0.0000000000000D+00  0.0000000000000D+00
256  2.5500000000000D+00  0.0000000000000D+00  0.0000000000000D+00
257  2.5600000000000D+00  0.0000000000000D+00  0.0000000000000D+00
258  2.5700000000000D+00  0.0000000000000D+00  0.0000000000000D+00
259  2.5800000000000D+00  0.0000000000000D+00  0.0000000000000D+00
260  2.5900000000000D+00  0.0000000000000D+00  0.0000000000000D+00
261  2.6000000000000D+00  0.0000000000000D+00  0.0000000000000D+00
262  2.6100000000000D+00  0.0000000000000D+00  0.0000000000000D+00
263  2.6200000000000D+00  0.0000000000000D+00  0.0000000000000D+00
264  2.6300000000000D+00  0.0000000000000D+00  0.0000000000000D+00
265  2.6400000000000D+00  0.0000000000000D+00  0.0000000000000D+00
266  2.6500000000000D+00  0.0000000000000D+00  0.0000000000000D+00
267  2.6600000000000D+00  0.0000000000000D+00  0.0000000000000D+00
268  2.6700000000000D+00  0.0000000000000D+00  0.0000000000000D+00
269  2.6800000000000D+00  0.0000000000000D+00  0.0000000000000D+00
270  2.6900000000000D+00  0.0000000000000D+00  0.0000000000000D+00
271  2.7000000000000D+00  0.0000000000000D+00  0.0000000000000D+00
272  2.7100000000000D+00  0.0000000000000D+00  0.0000000000000D+00
273  2.7200000000000D+00  0.0000000000000D+00  0.0000000000000D+00
274  2.7300000000000D+00  0.0000000000000D+00  0.0000000000000D+00
275  2.7400000000000D+00  0.0000000000000D+00  0.0000000000000D+00
276  2.7500000000000D+00  0.0000000000000D+00  0.0000000000000D+00
277  2.7600000000000D+00  0.0000000000000D+00  0.0000000000000D+00
278  2.7700000000000D+00  0.0000000000000D+00  0.0000000000000D+00
279  2.7800000000000D+00  0.0000000000000D+00  0.0000000000000D+00
280  2.7900000000000D+00  0.0000000000000D+00  0.0000000000000D+00
281  2.8000000000000D+00  0.0000000000000D+00  0.0000000000000D+00
282  2.8100000000000D+00  0.0000000000000D+00  0.0000000000000D+00
283  2.8200000000000D+00  0.0000000000000D+00  0.0000000000000D+00
284  2.8300000000000D+00  0.0000000000000D+00  0.0000000000000D+00
285  2.8400000000000D+00  0.0000000000000D+00  0.0000000000000D+00
286  2.8500000000000D+00  0.0000000000000D+00  0.0000000000000D+00
287  2.8600000000000D+00  0.0000000000000D+00  0.0000000000000D+00
288  2.8700000000000D+00  0.0000000000000D+00  0.0000000000000D+00
289  2.8800000000000D+00  0.0000000000000D+00  0.0000000000000D+00
290  2.8900000000000D+00  0.0000000000000D+00  0.0000000000000D+00
291  2.9000000000000D+00  0.0000000000000D+00  0.0000000000000D+00
292  2.9100000000000D+00  0.0000000000000D+00  0.0000000000000D+00
293  2.9200000000000D+00  0.0000000000000D+00  0.0000000000000D+00
294  2.9300000000000D+00  0.0000000000000D+00  0.0000000000000D+00
295  2.9400000000000D+00  0.0000000000000D+00  0.0000000000000D+00
296  2.9500000000000D+00  0.0000000000000D+00  0.0000000000000D+00
297  2.9600000000000D+00  0.0000000000000D+00  0.0000000000000D+00
298  2.9700000000000D+00  0.0000000000000D+00  0.0000000000000D+00
299  2.9800000000000D+00  0.0000000000000D+00  0.0000000000000D+00
300  2.9900000000000D+00  0.0000000000000D+00  0.0000000000000D+00
301  3.0000000000000D+00  0.0000000000000D+00  0.0000000000000D+00
302  3.0100000000000D+00  0.0000000000000D+00  0.0000000000000D+00
303  3.0200000000000D+00  0.0000000000000D+00  0.0000000000000D+00
304  3.0300000000000D+00  0.0000000000000D+00  0.0000000000000D+00
305  3.0400000000000D+00  0.0000000000000D+00  0.0000000000000D+00
306  3.0500000000000D+00  0.0000000000000D+00  0.0000000000000D+00
307  3.0600000000000D+00  0.0000000000000D+00  0.0000000000000D+00
308  3.0700000000000D+00  0.0000000000000D+00  0.0000000000000D+00
309  3.0800000000000D+00  0.0000000000000D+00  0.0000000000000D+00
310  3.0900000000000D+00  0.0000000000000D+00  0.0000000000000D+00
311  3.1000000000000D+00  0.0000000000000D+00  0.0000000000000D+00
312  3.1100000000000D+00  0.0000000000000D+00  0.0000000000000D+00
313  3.1200000000000D+00  0.0000000000000D+00  0.0000000000000D+00
314  3.1300000000000D+00  0.0000000000000D+00  0.0000000000000D+00
315  3.1400000000000D+00  0.0000000000000D+00  0.0000000000000D+00
316  3.1500000000000D+00  0.0000000000000D+00  0.0000000000000D+00
317  3.1600000000000D+00  0.0000000000000D+00  0.0000000000000D+00
318  3.1700000000000D+00  0.0000000000000D+00  0.0000000000000D+00
319  3.1800000000000D+00  0.0000000000000D+00  0.0000000000000D+00
320  3.1900000000000D+00  0.0000000000000D+00  0.0000000000000D+00
321  3.2000000000000D+00  0.0000000000000D+00  0.0000000000000D+00
322  3.2100000000000D+00  0.0000000000000D+00  0.0000000000000D+00
323  3.2200000000000D+00  0.0000000000000D+00  0.0000000000000D+00
324  3.2300000000000D+00  0.0000000000000D+00  0.0000000000000D+00
325  3.2400000000000D+00  0.0000000000000D+00  0.0000000000000D+00
326  3.2500000000000D+00  0.0000000000000D+00  0.0000000000000D+00
327  3.2600000000000D+00  0.0000000000000D+00  0.0000000000000D+00
328  3.2700000000000D+00  0.0000000000000D+00  0.0000000000000D+00
329  3.2800000000000D+00  0.0000000000000D+00  0.0000000000000D+00
330  3.2900000000000D+00  0.0000000000000D+00  0.0000000000000D+00
331  3.3000000000000D+00  0.0000000000000D+00  0.0000000000000D+00
332  3.3100000000000D+00  0.0000000000000D+00  0.0000000000000D+00
333  3.3200000000000D+00  0.0000000000000D+00  0.0000000000000D+00
334  3.3300000000000D+00  0.0000000000000D+00  0.0000000000000D+00
335  3.3400000000000D+00  0.0000000000000D+00  0.0000000000000D+00
336  3.3500000000000D+00  0.0000000000000D+00  0.0000000000000D+00
337  3.3600000000000D+00  0.0000000000000D+00  0.0000000000000D+00
338  3.3700000000000D+00  0.0000000000000D+00  0.0000000000000D+00
339  3.3800000000000D+00  0.0000000000000D+00  0.0000000000000D+00
340  3.3900000000000D+00  0.0000000000000D+00  0.0000000000000D+00
341  3.4000000000000D+00  0.0000000000000D+00  0.0000000000000D+00
342  3.4100000000000D+00  0.0000000000000D+00  0.0000000000000D+00
343  3.4200000000000D+00  0.0000000000000D+00  0.0000000000000D+00
344  3.4300000000000D+00  0.0000000000000D+00  0.0000000000000D+00
345  3.4400000000000D+00  0.0000000000000D+00  0.0000000000000D+00
346  3.4500000000000D+00  0.0000000000000D+00  0.0000000000000D+00
347  3.4600000000000D+00  0.0000000000000D+00  0.0000000000000D+00
348  3.4700000000000D+00  0.0000000000000D+00  0.0000000000000D+00
349  3.4800000000000D+00  0.0000000000000D+00  0.0000000000000D+00
350  3.4900000000000D+00  0.0000000000000D+00  0.0000000000000D+00
351  3.5000000000000D+00  0.0000000000000D+00  0.0000000000000D+00
352  3.5100000000000D+00  0.0000000000000D+00  0.0000000000000D+00
353  3.5200000000000D+00  0.0000000000000D+00  0.0000000000000D+00
354  3.5300000000000D+00  0.0000000000000D+00  0.0000000000000D+00
355  3.5400000000000D+00  0.0000000000000D+00  0.0000000000000D+00
356  3.5500000000000D+00  0.0000000000000D+00  0.0000000000000D+00
357  3.5600000000000D+00  0.0000000000000D+00  0.0000000000000D+00
358  3.5700000000000D+00  0.0000000000000D+00  0.0000000000000D+00
359  3.5800000000000D+00  0.0000000000000D+00  0.0000000000000D+00
360  3.5900000000000D+00  0.0000000000000D+00  0.0000000000000D+00
361  3.6000000000000D+00  0.0000000000000D+00  0.0000000000000D+00
362  3.6100000000000D+00  0.0000000000000D+00  0.0000000000000D+00
363  3.6200000000000D+00  0.0000000000000D+00  0.0000000000000D+00
364  3.6300000000000D+00  0.0000000000000D+00  0.0000000000000D+00
365  3.6400000000000D+00  0.0000000000000D+00  0.0000000000000D+00
366  3.6500000000000D+00  0.0000000000000D+00  0.0000000000000D+00
367  3.6600000000000D+00  0.0000000000000D+00  0.0000000000000D+00
368  3.6700000000000D+00  0.0000000000000D+00  0.0000000000000D+00
369  3.6800000000000D+00  0.0000000000000D+00  0.0000000000000D+00
370  3.6900000000000D+00  0.0000000000000D+00  0.0000000000000D+00
371  3.7000000000000D+00  0.0000000000000D+00  0.0000000000000D+00
372  3.7100000000000D+00  0.0000000000000D+00  0.0000000000000D+00
373  3.7200000000000D+00  0.0000000000000D+00  0.0000000000000D+00
374  3.7300000000000D+00  0.0000000000000D+00  0.0000000000000D+00
375  3.7400000000000D+00  0.0000000000000D+00  0.0000000000000D+00
376  3.7500000000000D+00  0.0000000000000D+00  0.0000000000000D+00
377  3.7600000000000D+00  0.0000000000000D+00  0.0000000000000D+00
378  3.7700000000000D+00  0.0000000000000D+00  0.0000000000000D+00
379  3.7800000000000D+00  0.0000000000000D+00  0.0000000000000D+00
380  3.7900000000000D+00  0.0000000000000D+00  0.0000000000000D+00
381  3.8000000000000D+00  0.0000000000000D+00  0.0000000000000D+00
382  3.8100000000000D+00  0.0000000000000D+00  0.0000000000000D+00
383  3.8200000000000D+00  0.0000000000000D+00  0.0000000000000D+00
384  3.8300000000000D+00  0.0000000000000D+00  0.0000000000000D+00
385  3.8400000000000D+00  0.0000000000000D+00  0.0000000000000D+00
386  3.8500000000000D+00  0.0000000000000D+00  0.0000000000000D+00
387  3.8600000000000D+00  0.0000000000000D+00  0.0000000000000D+00
388  3.8700000000000D+00  0.0000000000000D+00  0.0000000000000D+00
389  3.8800000000000D+00  0.0000000000000D+00  0.0000000000000D+00
390  3.8900000000000D+00  0.0000000000000D+00  0.0000000000000D+00
391  3.9000000000000D+00  0.0000000000000D+00  0.0000000000000D+00
392  3.9100000000000D+00  0.0000000000000D+00  0.0000000000000D+00
393  3.9200000000000D+00  0.0000000000000D+00  0.0000000000000D+00
394  3.9300000000000D+00  0.0000000000000D+00  0.0000000000000D+00
395  3.9400000000000D+00  0.0000000000000D+00  0.0000000000000D+00
396  3.9500000000000D+00  0.0000000000000D+00  0.0000000000000D+00
397  3.9600000000000D+00  0.0000000000000D+00  0.0000000000000D+00
398  3.9700000000000D+00  0.0000000000000D+00  0.0000000000000D+00
399  3.9800000000000D+00  0.0000000000000D+00  0.0000000000000D+00
400  3.9900000000000D+00  0.0000000000000D+00  0.0000000000000D+00
401  4.0000000000000D+00  0.0000000000000D+00  0.0000000000000D+00
402  4.0100000000000D+00  0.0000000000000D+00  0.0000000000000D+00
403  4.0200000000000D+00  0.0000000000000D+00  0.0000000000000D+00
404  4.0300000000000D+00  0.0000000000000D+00  0.0000000000000D+00
405  4.0400000000000D+00  0.0000000000000D+00  0.0000000000000D+00
406  4.0500000000000D+00  0.0000000000000D+00  0.0000000000000D+00
407  4.0600000000000D+00  0.0000000000000D+00  0.0000000000000D+00
408  4.0700000000000D+00  0.0000000000000D+00  0.0000000000000D+00
409  4.0800000000000D+00  0.0000000000000D+00  0.0000000000000D+00
410  4.0900000000000D+00  0.0000000000000D+00  0.0000000000000D+00
411  4.1000000000000D+00  0.0000000000000D+00  0.0000000000000D+00
412  4.1100000000000D+00  0.0000000000000D+00  0.0000000000000D+00
413  4.1200000000000D+00  0.0000000000000D+00  0.0000000000000D+00
414  4.1300000000000D+00  0.0000000000000D+00  0.0000000000000D+00
415  4.1400000000000D+00  0.0000000000000D+00  0.0000000000000D+00
416  4.1500000000000D+00  0.0000000000000D+00  0.0000000000000D+00
417  4.1600000000000D+00  0.0000000000000D+00  0.0000000000000D+00
418  4.1700000000000D+00  0.0000000000000D+00  0.0000000000000D+00
419  4.1800000000000D+00  0.0000000000000D+00  0.0000000000000D+00
420  4.1900000000000D+00  0.0000000000000D+00  0.0000000000000D+00
421  4.2000000000000D+00  0.0000000000000D+00  0.0000000000000D+00
422  4.2100000000000D+00  0.0000000000000D+00  0.0000000000000D+00
423  4.2200000000000D+00  0.0000000000000D+00  0.0000000000000D+00
424  4.2300000000000D+00  0.0000000000000D+00  0.0000000000000D+00
425  4.2400000000000D+00  0.0000000000000D+00  0.0000000000000D+00
426  4.2500000000000D+00  0.0000000000000D+00  0.0000000000000D+00
427  4.2600000000000D+00  0.0000000000000D+00  0.0000000000000D+00
428  4.2700000000000D+00  0.0000000000000D+00  0.0000000000000D+00
429  4.2800000000000D+00  0.0000000000000D+00  0.0000000000000D+00
430  4.2900000000000D+00  0.0000000000000D+00  0.0000000000000D+00
431  4.3000000000000D+00  0.0000000000000D+00  0.0000000000000D+00
432  4.3100000000000D+00  0.0000000000000D+00  0.0000000000000D+00
433  4.3200000000000D+00  0.0000000000000D+00  0.0000000000000D+00
434  4.3300000000000D+00  0.0000000000000D+00  0.0000000000000D+00
435  4.3400000000000D+00  0.0000000000000D+00  0.0000000000000D+00
436  4.3500000000000D+00  0.0000000000000D+00  0.0000000000000D+00
437  4.3600000000000D+00  0.0000000000000D+00  0.0000000000000D+00
438  4.3700000000000D+00  0.0000000000000D+00  0.0000000000000D+00
439  4.3800000000000D+00  0.0000000000000D+00  0.0000000000000D+00
440  4.3900000000000D+00  0.0000000000000D+00  0.0000000000000D+00
441  4.4000000000000D+00  0.0000000000000D+00  0.0000000000000D+00
442  4.4100000000000D+00  0.0000000000000D+00  0.0000000000000D+00
443  4.4200000000000D+00  0.0000000000000D+00  0.0000000000000D+00