Pt    ONCVPSP  r_core=  2.40  1.92  1.87
78.0000     16.0000      160107    zatom,zion,pspd
8      11   2     4   500     0    pspcod,pspxc,lmax,lloc,mmax,r2well
4.99000000  3.00000000  0.00000000    rchrg fchrg qchrg
2     2     2     0     0    nproj
0                 extension_switch
0                         5.0988992594408D+00  5.9405486450087D-01
1  0.0000000000000D+00 -2.1275647910102D-11  3.1017077795070D-11
2  1.0000000000000D-02  2.0517046456150D-02 -2.1655693141733D-02
3  2.0000000000000D-02  4.1009947861975D-02 -4.3273764109873D-02
4  3.0000000000000D-02  6.1454646525061D-02 -6.4816707462642D-02
5  4.0000000000000D-02  8.1827259042676D-02 -8.6247250114728D-02
6  5.0000000000000D-02  1.0210416235153D-01 -1.0752846517450D-01
7  6.0000000000000D-02  1.2226207844721D-01 -1.2862388343185D-01
8  7.0000000000000D-02  1.4227815734427D-01 -1.4949760196460D-01
9  8.0000000000000D-02  1.6213005786908D-01 -1.7011438936246D-01
10  9.0000000000000D-02  1.8179602590069D-01 -1.9043978710093D-01
11  1.0000000000000D-01  2.0125496969929D-01 -2.1044020663331D-01
12  1.1000000000000D-01  2.2048653198752D-01 -2.3008302180654D-01
13  1.2000000000000D-01  2.3947115847668D-01 -2.4933665624503D-01
14  1.3000000000000D-01  2.5819016255751D-01 -2.6817066538730D-01
15  1.4000000000000D-01  2.7662578590344D-01 -2.8655581290046D-01
16  1.5000000000000D-01  2.9476125476268D-01 -3.0446414123888D-01
17  1.6000000000000D-01  3.1258083174446D-01 -3.2186903615453D-01
18  1.7000000000000D-01  3.3006986293372D-01 -3.3874528500749D-01
19  1.8000000000000D-01  3.4721482019682D-01 -3.5506912876532D-01
20  1.9000000000000D-01  3.6400333856950D-01 -3.7081830761947D-01
21  2.0000000000000D-01  3.8042424864565D-01 -3.8597210018533D-01
22  2.1000000000000D-01  3.9646760391291D-01 -4.0051135628920D-01
23  2.2000000000000D-01  4.1212470300669D-01 -4.1441852338083D-01
24  2.3000000000000D-01  4.2738810687982D-01 -4.2767766664361D-01
25  2.4000000000000D-01  4.4225165090861D-01 -4.4027448290556D-01
26  2.5000000000000D-01  4.5671045197916D-01 -4.5219630848351D-01
27  2.6000000000000D-01  4.7076091061884D-01 -4.6343212111949D-01
28  2.7000000000000D-01  4.8440070825794D-01 -4.7397253619279D-01
29  2.8000000000000D-01  4.9762879972504D-01 -4.8380979741213D-01
30  2.9000000000000D-01  5.1044540109633D-01 -4.9293776221237D-01
31  3.0000000000000D-01  5.2285197303458D-01 -5.0135188209547D-01
32  3.1000000000000D-01  5.3485119976717D-01 -5.0904917816988D-01
33  3.2000000000000D-01  5.4644696386470D-01 -5.1602821215299D-01
34  3.3000000000000D-01  5.5764431699216D-01 -5.2228905310979D-01
35  3.4000000000000D-01  5.6844944681375D-01 -5.2783324020677D-01
36  3.5000000000000D-01  5.7886964023976D-01 -5.3266374176311D-01
37  3.6000000000000D-01  5.8891324320991D-01 -5.3678491088256D-01
38  3.7000000000000D-01  5.9858961721208D-01 -5.4020243794770D-01
39  3.8000000000000D-01  6.0790909273867D-01 -5.4292330025519D-01
40  3.9000000000000D-01  6.1688291988463D-01 -5.4495570906524D-01
41  4.0000000000000D-01  6.2552321629217D-01 -5.4630905433150D-01
42  4.1000000000000D-01  6.3384291264673D-01 -5.4699384736886D-01
43  4.2000000000000D-01  6.4185569592763D-01 -5.4702166170706D-01
44  4.3000000000000D-01  6.4957595061490D-01 -5.4640507236657D-01
45  4.4000000000000D-01  6.5701869805076D-01 -5.4515759378139D-01
46  4.5000000000000D-01  6.6419953415096D-01 -5.4329361658087D-01
47  4.6000000000000D-01  6.7113456565727D-01 -5.4082834342912D-01
48  4.7000000000000D-01  6.7784034511811D-01 -5.3777772410767D-01
49  4.8000000000000D-01  6.8433380477987D-01 -5.3415839001297D-01
50  4.9000000000000D-01  6.9063218956652D-01 -5.2998758822767D-01
51  5.0000000000000D-01  6.9675298932069D-01 -5.2528311531111D-01
52  5.1000000000000D-01  7.0271387047452D-01 -5.2006325094264D-01
53  5.2000000000000D-01  7.0853260731407D-01 -5.1434669153911D-01
54  5.3000000000000D-01  7.1422701299680D-01 -5.0815248395796D-01
55  5.4000000000000D-01  7.1981487047774D-01 -5.0149995938708D-01
56  5.5000000000000D-01  7.2531386349609D-01 -4.9440866751441D-01
57  5.6000000000000D-01  7.3074150777124D-01 -4.8689831106323D-01
58  5.7000000000000D-01  7.3611508255411D-01 -4.7898868077321D-01
59  5.8000000000000D-01  7.4145156267784D-01 -4.7069959090319D-01
60  5.9000000000000D-01  7.4676755125008D-01 -4.6205081532905D-01
61  6.0000000000000D-01  7.5207921312827D-01 -4.5306202430878D-01
62  6.1000000000000D-01  7.5740220931846D-01 -4.4375272198754D-01
63  6.2000000000000D-01  7.6275163243872D-01 -4.3414218471755D-01
64  6.3000000000000D-01  7.6814194338836D-01 -4.2424940027136D-01
65  6.4000000000000D-01  7.7358690936541D-01 -4.1409300803188D-01
66  6.5000000000000D-01  7.7909954337627D-01 -4.0369124024953D-01
67  6.6000000000000D-01  7.8469204538332D-01 -3.9306186446442D-01
68  6.7000000000000D-01  7.9037574523840D-01 -3.8222212720062D-01
69  6.8000000000000D-01  7.9616104755246D-01 -3.7118869904961D-01
70  6.9000000000000D-01  8.0205737865443D-01 -3.5997762127107D-01
71  7.0000000000000D-01  8.0807313579466D-01 -3.4860425405086D-01
72  7.1000000000000D-01  8.1421563875123D-01 -3.3708322656815D-01
73  7.2000000000000D-01  8.2049108399960D-01 -3.2542838903657D-01
74  7.3000000000000D-01  8.2690450160855D-01 -3.1365276689639D-01
75  7.4000000000000D-01  8.3345971502694D-01 -3.0176851734798D-01
76  7.5000000000000D-01  8.4015930392766D-01 -2.8978688842861D-01
77  7.6000000000000D-01  8.4700457027563D-01 -2.7771818084640D-01
78  7.7000000000000D-01  8.5399550778736D-01 -2.6557171279649D-01
79  7.8000000000000D-01  8.6113077494855D-01 -2.5335578799360D-01
80  7.9000000000000D-01  8.6840767175569D-01 -2.4107766716492D-01
81  8.0000000000000D-01  8.7582212034440D-01 -2.2874354325310D-01
82  8.1000000000000D-01  8.8336864966482D-01 -2.1635852058528D-01
83  8.2000000000000D-01  8.9104038435960D-01 -2.0392659826741D-01
84  8.3000000000000D-01  8.9882903799473D-01 -1.9145065806430D-01
85  8.4000000000000D-01  9.0672491078683D-01 -1.7893245702443D-01
86  8.5000000000000D-01  9.1471689196282D-01 -1.6637262510601D-01
87  8.6000000000000D-01  9.2279246687869D-01 -1.5377066805319D-01
88  8.7000000000000D-01  9.3093772901397D-01 -1.4112497576345D-01
89  8.8000000000000D-01  9.3913739694698D-01 -1.2843283637406D-01
90  8.9000000000000D-01  9.4737483640315D-01 -1.1569045628139D-01
91  9.0000000000000D-01  9.5563208745514D-01 -1.0289298628795D-01
92  9.1000000000000D-01  9.6388989693799D-01 -9.0034554050565D-02
93  9.2000000000000D-01  9.7212775612696D-01 -7.7108302978524D-02
94  9.3000000000000D-01  9.8032394370838D-01 -6.4106437702496D-02
95  9.4000000000000D-01  9.8845557405579D-01 -5.1020276203269D-02
96  9.5000000000000D-01  9.9649865080494D-01 -3.7840308654960D-02
97  9.6000000000000D-01  1.0044281257017D+00 -2.4556262999582D-02
98  9.7000000000000D-01  1.0122179626764D+00 -1.1157177228247D-02
99  9.8000000000000D-01  1.0198412070780D+00  2.3685216997497D-03
100  9.9000000000000D-01  1.0272700599792D+00  1.6032932415153D-02
101  1.0000000000000D+00  1.0344759574441D+00  2.9848587340955D-02
102  1.0100000000000D+00  1.0414296546263D+00  4.3828354756846D-02
103  1.0200000000000D+00  1.0481013145450D+00  5.7985335000228D-02
104  1.0300000000000D+00  1.0544606013651D+00  7.2332751135364D-02
105  1.0400000000000D+00  1.0604767779836D+00  8.6883834483015D-02
106  1.0500000000000D+00  1.0661188077083D+00  1.0165170546363D-01
107  1.0600000000000D+00  1.0713554597878D+00  1.1664925027021D-01
108  1.0700000000000D+00  1.0761554185352D+00  1.3188899395456D-01
109  1.0800000000000D+00  1.0804873957676D+00  1.4738297057337D-01
110  1.0900000000000D+00  1.0843202462615D+00  1.6314259111085D-01
111  1.1000000000000D+00  1.0876230859071D+00  1.7917850995779D-01
112  1.1100000000000D+00  1.0903654122260D+00  1.9550049079581D-01
113  1.1200000000000D+00  1.0925172268965D+00  2.1211727280465D-01
114  1.1300000000000D+00  1.0940491599151D+00  2.2903643817351D-01
115  1.1400000000000D+00  1.0949325950027D+00  2.4626428196399D-01
116  1.1500000000000D+00  1.0951397958517D+00  2.6380568542691D-01
117  1.1600000000000D+00  1.0946440327861D+00  2.8166399394812D-01
118  1.1700000000000D+00  1.0934197093960D+00  2.9984090084560D-01
119  1.1800000000000D+00  1.0914424886868D+00  3.1833633829092D-01
120  1.1900000000000D+00  1.0886894182698D+00  3.3714837667643D-01
121  1.2000000000000D+00  1.0851390541001D+00  3.5627313379465D-01
122  1.2100000000000D+00  1.0807715822472D+00  3.7570469522097D-01
123  1.2200000000000D+00  1.0755689381774D+00  3.9543504731276D-01
124  1.2300000000000D+00  1.0695149229910D+00  4.1545402426373D-01
125  1.2400000000000D+00  1.0625953160467D+00  4.3574927063231D-01
126  1.2500000000000D+00  1.0547979833861D+00  4.5630622076230D-01
127  1.2600000000000D+00  1.0461129813464D+00  4.7710809649190D-01
128  1.2700000000000D+00  1.0365326547191D+00  4.9813592445710D-01
129  1.2800000000000D+00  1.0260517288055D+00  5.1936857426322D-01
130  1.2900000000000D+00  1.0146673946854D+00  5.4078281871973D-01
131  1.3000000000000D+00  1.0023793869820D+00  5.6235341708908D-01
132  1.3100000000000D+00  9.8919005340559D-01  5.8405322229170D-01
133  1.3200000000000D+00  9.7510441531562D-01  6.0585331279131D-01
134  1.3300000000000D+00  9.6013021851417D-01  6.2772314937573D-01
135  1.3400000000000D+00  9.4427797349095D-01  6.4963075726841D-01
136  1.3500000000000D+00  9.2756098428520D-01  6.7154293328021D-01
137  1.3600000000000D+00  9.0999536514460D-01  6.9342547704339D-01
138  1.3700000000000D+00  8.9160004413887D-01  7.1524344604210D-01
139  1.3800000000000D+00  8.7239675288205D-01  7.3696143200498D-01
140  1.3900000000000D+00  8.5241000155040D-01  7.5854385670314D-01
141  1.4000000000000D+00  8.3166703832448D-01  7.7995528481848D-01
142  1.4100000000000D+00  8.1019779256976D-01  8.0116074839873D-01
143  1.4200000000000D+00  7.8803480088637D-01  8.2212608042199D-01
144  1.4300000000000D+00  7.6521311544687D-01  8.4281824973975D-01
145  1.4400000000000D+00  7.4177019406334D-01  8.6320569073197D-01
146  1.4500000000000D+00  7.1774577125765D-01  8.8325862126348D-01
147  1.4600000000000D+00  6.9318171052764D-01  9.0294933421615D-01
148  1.4700000000000D+00  6.6812183688438D-01  9.2225245780306D-01
149  1.4800000000000D+00  6.4261175050907D-01  9.4114516388084D-01
150  1.4900000000000D+00  6.1669862127947D-01  9.5960731365668D-01
151  1.5000000000000D+00  5.9043096485021D-01  9.7762152119129D-01
152  1.5100000000000D+00  5.6385840189681D-01  9.9517311032069D-01
153  1.5200000000000D+00  5.3703140035111D-01  1.0122499508610D+00
154  1.5300000000000D+00  5.1000100518421D-01  1.0288421306641D+00
155  1.5400000000000D+00  4.8281855447846D-01  1.0449414553761D+00
156  1.5500000000000D+00  4.5553538812370D-01  1.0605407054846D+00
157  1.5600000000000D+00  4.2820255429841D-01  1.0756326904190D+00
158  1.5700000000000D+00  4.0087050363610D-01  1.0902088303995D+00
159  1.5800000000000D+00  3.7358882725235D-01  1.1042579080133D+00
160  1.5900000000000D+00  3.4640599781760D-01  1.1177640259402D+00
161  1.6000000000000D+00  3.1936887662751D-01  1.1307020829895D+00
162  1.6100000000000D+00  2.9252282979491D-01  1.1430378934035D+00
163  1.6200000000000D+00  2.6591218712014D-01  1.1547301439563D+00
164  1.6300000000000D+00  2.3958054719654D-01  1.1657333468353D+00
165  1.6400000000000D+00  2.1357131963821D-01  1.1760035430896D+00
166  1.6500000000000D+00  1.8792760098087D-01  1.1854984600486D+00
167  1.6600000000000D+00  1.6269183747161D-01  1.1941764681859D+00
168  1.6700000000000D+00  1.3790575969542D-01  1.2019973243352D+00
169  1.6800000000000D+00  1.1361022453620D-01  1.2089222421667D+00
170  1.6900000000000D+00  8.9845075237642D-02  1.2149140952139D+00
171  1.7000000000000D+00  6.6649002717246D-02  1.2199375916963D+00
172  1.7100000000000D+00  4.4059409683666D-02  1.2239594353453D+00
173  1.7200000000000D+00  2.2112279605215D-02  1.2269484853830D+00
174  1.7300000000000D+00  8.4205057610610D-04  1.2288759097143D+00
175  1.7400000000000D+00 -1.9718505731012D-02  1.2297153310961D+00
176  1.7500000000000D+00 -3.9538399317871D-02  1.2294429653371D+00
177  1.7600000000000D+00 -5.8588531196791D-02  1.2280377513777D+00
178  1.7700000000000D+00 -7.6841796134743D-02  1.2254814723626D+00
179  1.7800000000000D+00 -9.4273178713824D-02  1.2217588675500D+00
180  1.7900000000000D+00 -1.1085984212276D-01  1.2168577343294D+00
181  1.8000000000000D+00 -1.2658120956427D-01  1.2107690204108D+00
182  1.8100000000000D+00 -1.4141903785493D-01  1.2034869052096D+00
183  1.8200000000000D+00 -1.5535748298713D-01  1.1950088696278D+00
184  1.8300000000000D+00 -1.6838315751436D-01  1.1853357552359D+00
185  1.8400000000000D+00 -1.8048517934619D-01  1.1744718136558D+00
186  1.8500000000000D+00 -1.9165521215247D-01  1.1624247444908D+00
187  1.8600000000000D+00 -2.0188749659065D-01  1.1492057169761D+00
188  1.8700000000000D+00 -2.1117887307834D-01  1.1348293791741D+00
189  1.8800000000000D+00 -2.1952879516484D-01  1.1193138613742D+00
190  1.8900000000000D+00 -2.2693933436289D-01  1.1026807671929D+00
191  1.9000000000000D+00 -2.3341517546401D-01  1.0849551479220D+00
192  1.9100000000000D+00 -2.3896360311024D-01  1.0661654650329D+00
193  1.9200000000000D+00 -2.4359447924781D-01  1.0463435419375D+00
194  1.9300000000000D+00 -2.4732021164053D-01  1.0255245045708D+00
195  1.9400000000000D+00 -2.5015571377974D-01  1.0037467098915D+00
196  1.9500000000000D+00 -2.5211835569413D-01  9.8105166173537D-01
197  1.9600000000000D+00 -2.5322790681906D-01  9.5748391636271D-01
198  1.9700000000000D+00 -2.5350646991834D-01  9.3309097613607D-01
199  1.9800000000000D+00 -2.5297840743605D-01  9.0792317306279D-01
200  1.9900000000000D+00 -2.5167025967752D-01  8.8203354148247D-01
201  2.0000000000000D+00 -2.4961065549381D-01  8.5547768080913D-01
202  2.0100000000000D+00 -2.4683021587786D-01  8.2831360888900D-01
203  2.0200000000000D+00 -2.4336145022774D-01  8.0060160565590D-01
204  2.0300000000000D+00 -2.3923864655523D-01  7.7240404881755D-01
205  2.0400000000000D+00 -2.3449775495926D-01  7.4378524066814D-01
206  2.0500000000000D+00 -2.2917626565029D-01  7.1481122777061D-01
207  2.0600000000000D+00 -2.2331308146846D-01  6.8554961344336D-01
208  2.0700000000000D+00 -2.1694838529126D-01  6.5606936359619D-01
209  2.0800000000000D+00 -2.1012350328255D-01  6.2644060720861D-01
210  2.0900000000000D+00 -2.0288076367680D-01  5.9673443105029D-01
211  2.1000000000000D+00 -1.9526335233396D-01  5.6702267031879D-01
212  2.1100000000000D+00 -1.8731516508347D-01  5.3737769523101D-01
213  2.1200000000000D+00 -1.7908065746639D-01  5.0787219440038D-01
214  2.1300000000000D+00 -1.7060469258335D-01  4.7857895596386D-01
215  2.1400000000000D+00 -1.6193238723672D-01  4.4957064672584D-01
216  2.1500000000000D+00 -1.5310895717259D-01  4.2091959041331D-01
217  2.1600000000000D+00 -1.4417956182354D-01  3.9269754559530D-01
218  2.1700000000000D+00 -1.3518914911629D-01  3.6497548403791D-01
219  2.1800000000000D+00 -1.2618230077350D-01  3.3782337008147D-01
220  2.1900000000000D+00 -1.1720307890059D-01  3.1130994212305D-01
221  2.2000000000000D+00 -1.0829487403997D-01  2.8550249645402D-01
222  2.2100000000000D+00 -9.9500255407019D-02  2.6046667442947D-01
223  2.2200000000000D+00 -9.0860823996018D-02  2.3626625390987D-01
224  2.2300000000000D+00 -8.2417068430096D-02  2.1296294480784D-01
225  2.2400000000000D+00 -7.4208224910099D-02  1.9061619058732D-01
226  2.2500000000000D+00 -6.6272141176805D-02  1.6928297560298D-01
227  2.2600000000000D+00 -5.8645144655924D-02  1.4901763851450D-01
228  2.2700000000000D+00 -5.1361916463890D-02  1.2987169406262D-01
229  2.2800000000000D+00 -4.4455370164648D-02  1.1189366170159D-01
230  2.2900000000000D+00 -3.7956536611627D-02  9.5128902906806D-02
231  2.3000000000000D+00 -3.1894455598967D-02  7.9619468147058D-02
232  2.3100000000000D+00 -2.6296073160917D-02  6.5403951945590D-02
233  2.3200000000000D+00 -2.1186146764526D-02  5.2517359089660D-02
234  2.3300000000000D+00 -1.6591611552308D-02  4.1001812218039D-02
235  2.3400000000000D+00 -1.2523786506485D-02  3.0863361855259D-02
236  2.3500000000000D+00 -8.9946594392025D-03  2.2111661604553D-02
237  2.3600000000000D+00 -6.0144656905481D-03  1.4754145099038D-02
238  2.3700000000000D+00 -3.6409466685534D-03  8.9158905553661D-03
239  2.3800000000000D+00 -1.9055708596158D-03  4.6603398620273D-03
240  2.3900000000000D+00 -7.8578015732491D-04  1.9215860790386D-03
241  2.4000000000000D+00 -1.6517147515202D-04  4.0729842682836D-04
242  2.4100000000000D+00  8.7414358394652D-05 -2.0852426165389D-04
243  2.4200000000000D+00  1.1155855891736D-04 -2.6878750993920D-04
244  2.4300000000000D+00  3.4095521185484D-05 -8.2232660205156D-05
245  2.4400000000000D+00 -2.7104332452397D-05  6.5601189138446D-05
246  2.4500000000000D+00 -3.6027785109408D-05  8.7222317625958D-05
247  2.4600000000000D+00 -1.0540687602934D-05  2.5521020182862D-05
248  2.4700000000000D+00  5.0252651992027D-06 -1.2196505588008D-05
249  2.4800000000000D+00  6.5105685706268D-06 -1.5806628299728D-05
250  2.4900000000000D+00  1.7410113945941D-06 -4.2279695301284D-06
251  2.5000000000000D+00  7.3230511098147D-09 -2.8382150130416D-08
252  2.5100000000000D+00  9.0844192622439D-09 -3.5208733010628D-08
253  2.5200000000000D+00  2.3377007654312D-09 -9.0602910029582D-09
254  2.5300000000000D+00  0.0000000000000D+00  0.0000000000000D+00
255  2.5400000000000D+00  0.0000000000000D+00  0.0000000000000D+00
256  2.5500000000000D+00  0.0000000000000D+00  0.0000000000000D+00
257  2.5600000000000D+00  0.0000000000000D+00  0.0000000000000D+00
258  2.5700000000000D+00  0.0000000000000D+00  0.0000000000000D+00
259  2.5800000000000D+00  0.0000000000000D+00  0.0000000000000D+00
260  2.5900000000000D+00  0.0000000000000D+00  0.0000000000000D+00
261  2.6000000000000D+00  0.0000000000000D+00  0.0000000000000D+00
262  2.6100000000000D+00  0.0000000000000D+00  0.0000000000000D+00
263  2.6200000000000D+00  0.0000000000000D+00  0.0000000000000D+00
264  2.6300000000000D+00  0.0000000000000D+00  0.0000000000000D+00
265  2.6400000000000D+00  0.0000000000000D+00  0.0000000000000D+00
266  2.6500000000000D+00  0.0000000000000D+00  0.0000000000000D+00
267  2.6600000000000D+00  0.0000000000000D+00  0.0000000000000D+00
268  2.6700000000000D+00  0.0000000000000D+00  0.0000000000000D+00
269  2.6800000000000D+00  0.0000000000000D+00  0.0000000000000D+00
270  2.6900000000000D+00  0.0000000000000D+00  0.0000000000000D+00
271  2.7000000000000D+00  0.0000000000000D+00  0.0000000000000D+00
272  2.7100000000000D+00  0.0000000000000D+00  0.0000000000000D+00
273  2.7200000000000D+00  0.0000000000000D+00  0.0000000000000D+00
274  2.7300000000000D+00  0.0000000000000D+00  0.0000000000000D+00
275  2.7400000000000D+00  0.0000000000000D+00  0.0000000000000D+00
276  2.7500000000000D+00  0.0000000000000D+00  0.0000000000000D+00
277  2.7600000000000D+00  0.0000000000000D+00  0.0000000000000D+00
278  2.7700000000000D+00  0.0000000000000D+00  0.0000000000000D+00
279  2.7800000000000D+00  0.0000000000000D+00  0.0000000000000D+00
280  2.7900000000000D+00  0.0000000000000D+00  0.0000000000000D+00
281  2.8000000000000D+00  0.0000000000000D+00  0.0000000000000D+00
282  2.8100000000000D+00  0.0000000000000D+00  0.0000000000000D+00
283  2.8200000000000D+00  0.0000000000000D+00  0.0000000000000D+00
284  2.8300000000000D+00  0.0000000000000D+00  0.0000000000000D+00
285  2.8400000000000D+00  0.0000000000000D+00  0.0000000000000D+00
286  2.8500000000000D+00  0.0000000000000D+00  0.0000000000000D+00
287  2.8600000000000D+00  0.0000000000000D+00  0.0000000000000D+00
288  2.8700000000000D+00  0.0000000000000D+00  0.0000000000000D+00
289  2.8800000000000D+00  0.0000000000000D+00  0.0000000000000D+00
290  2.8900000000000D+00  0.0000000000000D+00  0.0000000000000D+00
291  2.9000000000000D+00  0.0000000000000D+00  0.0000000000000D+00
292  2.9100000000000D+00  0.0000000000000D+00  0.0000000000000D+00
293  2.9200000000000D+00  0.0000000000000D+00  0.0000000000000D+00
294  2.9300000000000D+00  0.0000000000000D+00  0.0000000000000D+00
295  2.9400000000000D+00  0.0000000000000D+00  0.0000000000000D+00
296  2.9500000000000D+00  0.0000000000000D+00  0.0000000000000D+00
297  2.9600000000000D+00  0.0000000000000D+00  0.0000000000000D+00
298  2.9700000000000D+00  0.0000000000000D+00  0.0000000000000D+00
299  2.9800000000000D+00  0.0000000000000D+00  0.0000000000000D+00
300  2.9900000000000D+00  0.0000000000000D+00  0.0000000000000D+00
301  3.0000000000000D+00  0.0000000000000D+00  0.0000000000000D+00
302  3.0100000000000D+00  0.0000000000000D+00  0.0000000000000D+00
303  3.0200000000000D+00  0.0000000000000D+00  0.0000000000000D+00
304  3.0300000000000D+00  0.0000000000000D+00  0.0000000000000D+00
305  3.0400000000000D+00  0.0000000000000D+00  0.0000000000000D+00
306  3.0500000000000D+00  0.0000000000000D+00  0.0000000000000D+00
307  3.0600000000000D+00  0.0000000000000D+00  0.0000000000000D+00
308  3.0700000000000D+00  0.0000000000000D+00  0.0000000000000D+00
309  3.0800000000000D+00  0.0000000000000D+00  0.0000000000000D+00
310  3.0900000000000D+00  0.0000000000000D+00  0.0000000000000D+00
311  3.1000000000000D+00  0.0000000000000D+00  0.0000000000000D+00
312  3.1100000000000D+00  0.0000000000000D+00  0.0000000000000D+00
313  3.1200000000000D+00  0.0000000000000D+00  0.0000000000000D+00
314  3.1300000000000D+00  0.0000000000000D+00  0.0000000000000D+00
315  3.1400000000000D+00  0.0000000000000D+00  0.0000000000000D+00
316  3.1500000000000D+00  0.0000000000000D+00  0.0000000000000D+00
317  3.1600000000000D+00  0.0000000000000D+00  0.0000000000000D+00
318  3.1700000000000D+00  0.0000000000000D+00  0.0000000000000D+00
319  3.1800000000000D+00  0.0000000000000D+00  0.0000000000000D+00
320  3.1900000000000D+00  0.0000000000000D+00  0.0000000000000D+00
321  3.2000000000000D+00  0.0000000000000D+00  0.0000000000000D+00
322  3.2100000000000D+00  0.0000000000000D+00  0.0000000000000D+00
323  3.2200000000000D+00  0.0000000000000D+00  0.0000000000000D+00
324  3.2300000000000D+00  0.0000000000000D+00  0.0000000000000D+00
325  3.2400000000000D+00  0.0000000000000D+00  0.0000000000000D+00
326  3.2500000000000D+00  0.0000000000000D+00  0.0000000000000D+00
327  3.2600000000000D+00  0.0000000000000D+00  0.0000000000000D+00
328  3.2700000000000D+00  0.0000000000000D+00  0.0000000000000D+00
329  3.2800000000000D+00  0.0000000000000D+00  0.0000000000000D+00
330  3.2900000000000D+00  0.0000000000000D+00  0.0000000000000D+00
331  3.3000000000000D+00  0.0000000000000D+00  0.0000000000000D+00
332  3.3100000000000D+00  0.0000000000000D+00  0.0000000000000D+00
333  3.3200000000000D+00  0.0000000000000D+00  0.0000000000000D+00
334  3.3300000000000D+00  0.0000000000000D+00  0.0000000000000D+00
335  3.3400000000000D+00  0.0000000000000D+00  0.0000000000000D+00
336  3.3500000000000D+00  0.0000000000000D+00  0.0000000000000D+00
337  3.3600000000000D+00  0.0000000000000D+00  0.0000000000000D+00
338  3.3700000000000D+00  0.0000000000000D+00  0.0000000000000D+00
339  3.3800000000000D+00  0.0000000000000D+00  0.0000000000000D+00
340  3.3900000000000D+00  0.0000000000000D+00  0.0000000000000D+00
341  3.4000000000000D+00  0.0000000000000D+00  0.0000000000000D+00
342  3.4100000000000D+00  0.0000000000000D+00  0.0000000000000D+00
343  3.4200000000000D+00  0.0000000000000D+00  0.0000000000000D+00
344  3.4300000000000D+00  0.0000000000000D+00  0.0000000000000D+00
345  3.4400000000000D+00  0.0000000000000D+00  0.0000000000000D+00
346  3.4500000000000D+00  0.0000000000000D+00  0.0000000000000D+00
347  3.4600000000000D+00  0.0000000000000D+00  0.0000000000000D+00
348  3.4700000000000D+00  0.0000000000000D+00  0.0000000000000D+00
349  3.4800000000000D+00  0.0000000000000D+00  0.0000000000000D+00
350  3.4900000000000D+00  0.0000000000000D+00  0.0000000000000D+00
351  3.5000000000000D+00  0.0000000000000D+00  0.0000000000000D+00
352  3.5100000000000D+00  0.0000000000000D+00  0.0000000000000D+00
353  3.5200000000000D+00  0.0000000000000D+00  0.0000000000000D+00
354  3.5300000000000D+00  0.0000000000000D+00  0.0000000000000D+00
355  3.5400000000000D+00  0.0000000000000D+00  0.0000000000000D+00
356  3.5500000000000D+00  0.0000000000000D+00  0.0000000000000D+00
357  3.5600000000000D+00  0.0000000000000D+00  0.0000000000000D+00
358  3.5700000000000D+00  0.0000000000000D+00  0.0000000000000D+00
359  3.5800000000000D+00  0.0000000000000D+00  0.0000000000000D+00
360  3.5900000000000D+00  0.0000000000000D+00  0.0000000000000D+00
361  3.6000000000000D+00  0.0000000000000D+00  0.0000000000000D+00
362  3.6100000000000D+00  0.0000000000000D+00  0.0000000000000D+00
363  3.6200000000000D+00  0.0000000000000D+00  0.0000000000000D+00
364  3.6300000000000D+00  0.0000000000000D+00  0.0000000000000D+00
365  3.6400000000000D+00  0.0000000000000D+00  0.0000000000000D+00
366  3.6500000000000D+00  0.0000000000000D+00  0.0000000000000D+00
367  3.6600000000000D+00  0.0000000000000D+00  0.0000000000000D+00
368  3.6700000000000D+00  0.0000000000000D+00  0.0000000000000D+00
369  3.6800000000000D+00  0.0000000000000D+00  0.0000000000000D+00
370  3.6900000000000D+00  0.0000000000000D+00  0.0000000000000D+00
371  3.7000000000000D+00  0.0000000000000D+00  0.0000000000000D+00
372  3.7100000000000D+00  0.0000000000000D+00  0.0000000000000D+00
373  3.7200000000000D+00  0.0000000000000D+00  0.0000000000000D+00
374  3.7300000000000D+00  0.0000000000000D+00  0.0000000000000D+00
375  3.7400000000000D+00  0.0000000000000D+00  0.0000000000000D+00
376  3.7500000000000D+00  0.0000000000000D+00  0.0000000000000D+00
377  3.7600000000000D+00  0.0000000000000D+00  0.0000000000000D+00
378  3.7700000000000D+00  0.0000000000000D+00  0.0000000000000D+00
379  3.7800000000000D+00  0.0000000000000D+00  0.0000000000000D+00
380  3.7900000000000D+00  0.0000000000000D+00  0.0000000000000D+00
381  3.8000000000000D+00  0.0000000000000D+00  0.0000000000000D+00
382  3.8100000000000D+00  0.0000000000000D+00  0.0000000000000D+00
383  3.8200000000000D+00  0.0000000000000D+00  0.0000000000000D+00
384  3.8300000000000D+00  0.0000000000000D+00  0.0000000000000D+00
385  3.8400000000000D+00  0.0000000000000D+00  0.0000000000000D+00
386  3.8500000000000D+00  0.0000000000000D+00  0.0000000000000D+00
387  3.8600000000000D+00  0.0000000000000D+00  0.0000000000000D+00
388  3.8700000000000D+00  0.0000000000000D+00  0.0000000000000D+00
389  3.8800000000000D+00  0.0000000000000D+00  0.0000000000000D+00
390  3.8900000000000D+00  0.0000000000000D+00  0.0000000000000D+00
391  3.9000000000000D+00  0.0000000000000D+00  0.0000000000000D+00
392  3.9100000000000D+00  0.0000000000000D+00  0.0000000000000D+00
393  3.9200000000000D+00  0.0000000000000D+00  0.0000000000000D+00
394  3.9300000000000D+00  0.0000000000000D+00  0.0000000000000D+00
395  3.9400000000000D+00  0.0000000000000D+00  0.0000000000000D+00
396  3.9500000000000D+00  0.0000000000000D+00  0.0000000000000D+00
397  3.9600000000000D+00  0.0000000000000D+00  0.0000000000000D+00
398  3.9700000000000D+00  0.0000000000000D+00  0.0000000000000D+00
399  3.9800000000000D+00  0.0000000000000D+00  0.0000000000000D+00
400  3.9900000000000D+00  0.0000000000000D+00  0.0000000000000D+00
401  4.0000000000000D+00  0.0000000000000D+00  0.0000000000000D+00
402  4.0100000000000D+00  0.0000000000000D+00  0.0000000000000D+00
403  4.0200000000000D+00  0.0000000000000D+00  0.0000000000000D+00
404  4.0300000000000D+00  0.0000000000000D+00  0.0000000000000D+00
405  4.0400000000000D+00  0.0000000000000D+00  0.0000000000000D+00
406  4.0500000000000D+00  0.0000000000000D+00  0.0000000000000D+00
407  4.0600000000000D+00  0.0000000000000D+00  0.0000000000000D+00
408  4.0700000000000D+00  0.0000000000000D+00  0.0000000000000D+00
409  4.0800000000000D+00  0.0000000000000D+00  0.0000000000000D+00
410  4.0900000000000D+00  0.0000000000000D+00  0.0000000000000D+00
411  4.1000000000000D+00  0.0000000000000D+00  0.0000000000000D+00
412  4.1100000000000D+00  0.0000000000000D+00  0.0000000000000D+00
413  4.1200000000000D+00  0.0000000000000D+00  0.0000000000000D+00
414  4.1300000000000D+00  0.0000000000000D+00  0.0000000000000D+00
415  4.1400000000000D+00  0.0000000000000D+00  0.0000000000000D+00
416  4.1500000000000D+00  0.0000000000000D+00  0.0000000000000D+00
417  4.1600000000000D+00  0.0000000000000D+00  0.0000000000000D+00
418  4.1700000000000D+00  0.0000000000000D+00  0.0000000000000D+00
419  4.1800000000000D+00  0.0000000000000D+00  0.0000000000000D+00
420  4.1900000000000D+00  0.0000000000000D+00  0.0000000000000D+00
421  4.2000000000000D+00  0.0000000000000D+00  0.0000000000000D+00
422  4.2100000000000D+00  0.0000000000000D+00  0.0000000000000D+00
423  4.2200000000000D+00  0.0000000000000D+00  0.0000000000000D+00
424  4.2300000000000D+00  0.0000000000000D+00  0.0000000000000D+00
425  4.2400000000000D+00  0.0000000000000D+00  0.0000000000000D+00
426  4.2500000000000D+00  0.0000000000000D+00  0.0000000000000D+00
427  4.2600000000000D+00  0.0000000000000D+00  0.0000000000000D+00
428  4.2700000000000D+00  0.0000000000000D+00  0.0000000000000D+00
429  4.2800000000000D+00  0.0000000000000D+00  0.0000000000000D+00
430  4.2900000000000D+00  0.0000000000000D+00  0.0000000000000D+00
431  4.3000000000000D+00  0.0000000000000D+00  0.0000000000000D+00
432  4.3100000000000D+00  0.0000000000000D+00  0.0000000000000D+00
433  4.3200000000000D+00  0.0000000000000D+00  0.0000000000000D+00
434  4.3300000000000D+00  0.0000000000000D+00  0.0000000000000D+00
435  4.3400000000000D+00  0.0000000000000D+00  0.0000000000000D+00
436  4.3500000000000D+00  0.0000000000000D+00  0.0000000000000D+00
437  4.3600000000000D+00  0.0000000000000D+00  0.0000000000000D+00
438  4.3700000000000D+00  0.0000000000000D+00  0.0000000000000D+00
439  4.3800000000000D+00  0.0000000000000D+00  0.0000000000000D+00
440  4.3900000000000D+00  0.0000000000000D+00  0.0000000000000D+00
441  4.4000000000000D+00  0.0000000000000D+00  0.0000000000000D+00
442  4.4100000000000D+00  0.0000000000000D+00  0.0000000000000D+00
443  4.4200000000000D+00  0.0000000000000D+00  0.0000000000000D+00
444  4.4300000000000D+00  0.0000000000000D+00  0.0000000000000D+00