Pt    ONCVPSP  r_core=  1.41  1.46  1.41
78.0000     18.0000      161001    zatom,zion,pspd
8      11   2     4   500     0    pspcod,pspxc,lmax,lloc,mmax,r2well
4.99000000  5.00000000  0.00000000    rchrg fchrg qchrg
2     2     2     0     0    nproj
1                 extension_switch
0                         3.2817265612553D+01  2.3835012142946D+00
1  0.0000000000000D+00 -2.4374757767731D-10 -2.2203648641916D-10
2  1.0000000000000D-02  8.4550184042469D-02 -6.3623229744731D-03
3  2.0000000000000D-02  1.6889776426773D-01 -1.2693198278286D-02
4  3.0000000000000D-02  2.5284054733981D-01 -1.8960591476964D-02
5  4.0000000000000D-02  3.3617715489670D-01 -2.5131289236347D-02
6  5.0000000000000D-02  4.1870742105790D-01 -3.1170309837053D-02
7  6.0000000000000D-02  5.0023278331580D-01 -3.7040327391819D-02
8  7.0000000000000D-02  5.8055666746401D-01 -4.2701120753679D-02
9  8.0000000000000D-02  6.5948486745936D-01 -4.8109057880942D-02
10  9.0000000000000D-02  7.3682592133057D-01 -5.3216626095701D-02
11  1.0000000000000D-01  8.1239148442852D-01 -5.7972018234014D-02
12  1.1000000000000D-01  8.8599670145654D-01 -6.2318784137065D-02
13  1.2000000000000D-01  9.5746057881943D-01 -6.6195556274649D-02
14  1.3000000000000D-01  1.0266063588830D+00 -6.9535857527627D-02
15  1.4000000000000D-01  1.0932618977407D+00 -7.2267998289216D-02
16  1.5000000000000D-01  1.1572600480373D+00 -7.4315069081551D-02
17  1.6000000000000D-01  1.2184390483014D+00 -7.5595033830793D-02
18  1.7000000000000D-01  1.2766429200904D+00 -7.6020927811016D-02
19  1.8000000000000D-01  1.3317218740512D+00 -7.5501163061713D-02
20  1.9000000000000D-01  1.3835327257535D+00 -7.3939942819352D-02
21  2.0000000000000D-01  1.4319393218602D+00 -7.1237785190114D-02
22  2.1000000000000D-01  1.4768129768629D+00 -6.7292154941790D-02
23  2.2000000000000D-01  1.5180329202422D+00 -6.1998200922081D-02
24  2.3000000000000D-01  1.5554867535032D+00 -5.5249595230625D-02
25  2.4000000000000D-01  1.5890709161090D+00 -4.6939468898617D-02
26  2.5000000000000D-01  1.6186911588792D+00 -3.6961437477024D-02
27  2.6000000000000D-01  1.6442630229545D+00 -2.5210708616035D-02
28  2.7000000000000D-01  1.6657123219520D+00 -1.1585262450746D-02
29  2.8000000000000D-01  1.6829756244601D+00  4.0129055960896D-03
30  2.9000000000000D-01  1.6960007335537D+00  2.1676491108804D-02
31  3.0000000000000D-01  1.7047471595531D+00  4.1491548619053D-02
32  3.1000000000000D-01  1.7091865818189D+00  6.3536134668312D-02
33  3.2000000000000D-01  1.7093032949690D+00  8.7878940280366D-02
34  3.3000000000000D-01  1.7050946345383D+00  1.1457792781394D-01
35  3.4000000000000D-01  1.6965713767750D+00  1.4367898770897D-01
36  3.5000000000000D-01  1.6837581069972D+00  1.7521463103422D-01
37  3.6000000000000D-01  1.6666935507130D+00  2.0920273398212D-01
38  3.7000000000000D-01  1.6454308615571D+00  2.4564535052995D-01
39  3.8000000000000D-01  1.6200378600101D+00  2.8452760939196D-01
40  3.9000000000000D-01  1.5905972168517D+00  3.2581671111829D-01
41  4.0000000000000D-01  1.5572065753678D+00  3.6946104075186D-01
42  4.1000000000000D-01  1.5199786064716D+00  4.1538941083447D-01
43  4.2000000000000D-01  1.4790409911298D+00  4.6351044875600D-01
44  4.3000000000000D-01  1.4345363247920D+00  5.1371214147170D-01
45  4.4000000000000D-01  1.3866219389213D+00  5.6586154947348D-01
46  4.5000000000000D-01  1.3354696352004D+00  6.1980470060042D-01
47  4.6000000000000D-01  1.2812653285518D+00  6.7536667281773D-01
48  4.7000000000000D-01  1.2242085957515D+00  7.3235187349231D-01
49  4.8000000000000D-01  1.1645121271346D+00  7.9054452095935D-01
50  4.9000000000000D-01  1.1024010796814D+00  8.4970933231900D-01
51  5.0000000000000D-01  1.0381123306250D+00  9.0959241944294D-01
52  5.1000000000000D-01  9.7189363164035D-01  9.6992239312184D-01
53  5.2000000000000D-01  9.0400266463364D-01  1.0304116731651D+00
54  5.3000000000000D-01  8.3470600116204D-01  1.0907580000938D+00
55  5.4000000000000D-01  7.6427796854915D-01  1.1506461418664D+00
56  5.5000000000000D-01  6.9299942682365D-01  1.2097497868680D+00
57  5.6000000000000D-01  6.2115646167726D-01  1.2677336121938D+00
58  5.7000000000000D-01  5.4903899970675D-01  1.3242555141061D+00
59  5.8000000000000D-01  4.7693935325896D-01  1.3789689854381D+00
60  5.9000000000000D-01  4.0515070322273D-01  1.4315256227133D+00
61  6.0000000000000D-01  3.3396552909941D-01  1.4815777438447D+00
62  6.1000000000000D-01  2.6367399661423D-01  1.5287810955085D+00
63  6.2000000000000D-01  1.9456231399682D-01  1.5727976276822D+00
64  6.3000000000000D-01  1.2691106884545D-01  1.6132983113998D+00
65  6.4000000000000D-01  6.0993558180501D-02  1.6499659745572D+00
66  6.5000000000000D-01 -2.9258751155561D-03  1.6824981295880D+00
67  6.6000000000000D-01 -6.4593485803222D-02  1.7106097660695D+00
68  6.7000000000000D-01 -1.2376773571973D-01  1.7340360808113D+00
69  6.8000000000000D-01 -1.8022085491176D-01  1.7525351177416D+00
70  6.9000000000000D-01 -2.3374034016918D-01  1.7658902899588D+00
71  7.0000000000000D-01 -2.8413037674117D-01  1.7739127566543D+00
72  7.1000000000000D-01 -3.3121316925045D-01  1.7764436282573D+00
73  7.2000000000000D-01 -3.7483016821414D-01  1.7733559740925D+00
74  7.3000000000000D-01 -4.1484317913102D-01  1.7645566080923D+00
75  7.4000000000000D-01 -4.5113534180536D-01  1.7499876296435D+00
76  7.5000000000000D-01 -4.8361196844487D-01  1.7296276984892D+00
77  7.6000000000000D-01 -5.1220123008657D-01  1.7034930247123D+00
78  7.7000000000000D-01 -5.3685468207348D-01  1.6716380572150D+00
79  7.8000000000000D-01 -5.5754762060306D-01  1.6341558567290D+00
80  7.9000000000000D-01 -5.7427926379819D-01  1.5911781422411D+00
81  8.0000000000000D-01 -5.8707275229398D-01  1.5428750027670D+00
82  8.1000000000000D-01 -5.9597496597649D-01  1.4894542696258D+00
83  8.2000000000000D-01 -6.0105615523549D-01  1.4311605477228D+00
84  8.3000000000000D-01 -6.0240938688637D-01  1.3682739078096D+00
85  8.4000000000000D-01 -6.0014980675550D-01  1.3011082452151D+00
86  8.5000000000000D-01 -5.9441372279012D-01  1.2300093140993D+00
87  8.6000000000000D-01 -5.8535751442391D-01  1.1553524498185D+00
88  8.7000000000000D-01 -5.7315637578502D-01  1.0775399954794D+00
89  8.8000000000000D-01 -5.5800290214579D-01  9.9699845214640D-01
90  8.9000000000000D-01 -5.4010553076597D-01  9.1417537541346D-01
91  9.0000000000000D-01 -5.1968684894525D-01  8.2953604411531D-01
92  9.1000000000000D-01 -4.9698178365788D-01  7.4355992979075D-01
93  9.2000000000000D-01 -4.7223568856735D-01  6.5673699808344D-01
94  9.3000000000000D-01 -4.4570234549296D-01  5.6956387553320D-01
95  9.4000000000000D-01 -4.1764189850178D-01  4.8253991713923D-01
96  9.5000000000000D-01 -3.8831873971149D-01  3.9616321163238D-01
97  9.6000000000000D-01 -3.5799936659475D-01  3.1092656254670D-01
98  9.7000000000000D-01 -3.2695023106171D-01  2.2731348391047D-01
99  9.8000000000000D-01 -2.9543560084205D-01  1.4579424963991D-01
100  9.9000000000000D-01 -2.6371545370849D-01  6.6822035563116D-02
101  1.0000000000000D+00 -2.3204342483649D-01 -9.1708076798279D-03
102  1.0100000000000D+00 -2.0066482710478D-01 -8.1776313741384D-02
103  1.0200000000000D+00 -1.6981476339761D-01 -1.5061425616934D-01
104  1.0300000000000D+00 -1.3971634898083D-01 -2.1533526707254D-01
105  1.0400000000000D+00 -1.1057906075699D-01 -2.7562368800883D-01
106  1.0500000000000D+00 -8.2597228765682D-02 -3.3120012516114D-01
107  1.0600000000000D+00 -5.5948683616388D-02 -3.8182368422442D-01
108  1.0700000000000D+00 -3.0793571560419D-02 -4.2729386434845D-01
109  1.0800000000000D+00 -7.2733469076028D-03 -4.6745209441718D-01
110  1.0900000000000D+00  1.4490050878003D-02 -5.0218289958372D-01
111  1.1000000000000D+00  3.4394830326840D-02 -5.3141469037418D-01
112  1.1100000000000D+00  5.2359788835731D-02 -5.5512017162981D-01
113  1.1200000000000D+00  6.8324561462903D-02 -5.7331637380759D-01
114  1.1300000000000D+00  8.2249680389963D-02 -5.8606431405206D-01
115  1.1400000000000D+00  9.4116450581066D-02 -5.9346829979145D-01
116  1.1500000000000D+00  1.0392664949301D-01 -5.9567489205784D-01
117  1.1600000000000D+00  1.1170206191393D-01 -5.9287155187072D-01
118  1.1700000000000D+00  1.1748386320836D-01 -5.8528499719434D-01
119  1.1800000000000D+00  1.2133186664002D-01 -5.7317930251044D-01
120  1.1900000000000D+00  1.2332365279503D-01 -5.5685377748874D-01
121  1.2000000000000D+00  1.2355360154155D-01 -5.3664066576328D-01
122  1.2100000000000D+00  1.2213184875253D-01 -5.1290270814858D-01
123  1.2200000000000D+00  1.1918319117686D-01 -4.8603061680297D-01
124  1.2300000000000D+00  1.1484596533206D-01 -4.5644051142927D-01
125  1.2400000000000D+00  1.0927092673034D-01 -4.2457136934409D-01
126  1.2500000000000D+00  1.0262015662595D-01 -3.9088254284215D-01
127  1.2600000000000D+00  9.5066024543368D-02 -3.5585139915916D-01
128  1.2700000000000D+00  8.6790250125242D-02 -3.1997117136504D-01
129  1.2800000000000D+00  7.7983023825925D-02 -2.8374892538497D-01
130  1.2900000000000D+00  6.8842329324746D-02 -2.4770395125785D-01
131  1.3000000000000D+00  5.9572866661382D-02 -2.1236526217139D-01
132  1.3100000000000D+00  5.0388386209090D-02 -1.7827645644697D-01
133  1.3200000000000D+00  4.1504606014267D-02 -1.4598012906693D-01
134  1.3300000000000D+00  3.3127911420894D-02 -1.1599320349186D-01
135  1.3400000000000D+00  2.5442729327910D-02 -8.8779944167673D-02
136  1.3500000000000D+00  1.8605232770682D-02 -6.4738756539340D-02
137  1.3600000000000D+00  1.2746519762306D-02 -4.4212372201093D-02
138  1.3700000000000D+00  7.9610472034659D-03 -2.7452373024880D-02
139  1.3800000000000D+00  4.2903107465322D-03 -1.4570503722359D-02
140  1.3900000000000D+00  1.8651110803388D-03 -5.9903196513746D-03
141  1.4000000000000D+00  6.8980500499848D-04 -1.7565505190912D-03
142  1.4100000000000D+00  2.2371000356809D-04 -2.8373115862827D-04
143  1.4200000000000D+00  2.7005446922393D-05  2.1021958392051D-06
144  1.4300000000000D+00 -1.4684131828532D-05 -1.6922193555902D-05
145  1.4400000000000D+00  6.4441545581807D-08 -1.4231654968775D-08
146  1.4500000000000D+00  3.9481683111137D-06  3.2511767921135D-07
147  1.4600000000000D+00 -5.6693302142602D-07  1.0321182505969D-06
148  1.4700000000000D+00 -7.5069617759731D-07  1.3666644846381D-06
149  1.4800000000000D+00  0.0000000000000D+00  0.0000000000000D+00
150  1.4900000000000D+00  0.0000000000000D+00  0.0000000000000D+00
151  1.5000000000000D+00  0.0000000000000D+00  0.0000000000000D+00
152  1.5100000000000D+00  0.0000000000000D+00  0.0000000000000D+00
153  1.5200000000000D+00  0.0000000000000D+00  0.0000000000000D+00
154  1.5300000000000D+00  0.0000000000000D+00  0.0000000000000D+00
155  1.5400000000000D+00  0.0000000000000D+00  0.0000000000000D+00
156  1.5500000000000D+00  0.0000000000000D+00  0.0000000000000D+00
157  1.5600000000000D+00  0.0000000000000D+00  0.0000000000000D+00
158  1.5700000000000D+00  0.0000000000000D+00  0.0000000000000D+00
159  1.5800000000000D+00  0.0000000000000D+00  0.0000000000000D+00
160  1.5900000000000D+00  0.0000000000000D+00  0.0000000000000D+00
161  1.6000000000000D+00  0.0000000000000D+00  0.0000000000000D+00
162  1.6100000000000D+00  0.0000000000000D+00  0.0000000000000D+00
163  1.6200000000000D+00  0.0000000000000D+00  0.0000000000000D+00
164  1.6300000000000D+00  0.0000000000000D+00  0.0000000000000D+00
165  1.6400000000000D+00  0.0000000000000D+00  0.0000000000000D+00
166  1.6500000000000D+00  0.0000000000000D+00  0.0000000000000D+00
167  1.6600000000000D+00  0.0000000000000D+00  0.0000000000000D+00
168  1.6700000000000D+00  0.0000000000000D+00  0.0000000000000D+00
169  1.6800000000000D+00  0.0000000000000D+00  0.0000000000000D+00
170  1.6900000000000D+00  0.0000000000000D+00  0.0000000000000D+00
171  1.7000000000000D+00  0.0000000000000D+00  0.0000000000000D+00
172  1.7100000000000D+00  0.0000000000000D+00  0.0000000000000D+00
173  1.7200000000000D+00  0.0000000000000D+00  0.0000000000000D+00
174  1.7300000000000D+00  0.0000000000000D+00  0.0000000000000D+00
175  1.7400000000000D+00  0.0000000000000D+00  0.0000000000000D+00
176  1.7500000000000D+00  0.0000000000000D+00  0.0000000000000D+00
177  1.7600000000000D+00  0.0000000000000D+00  0.0000000000000D+00
178  1.7700000000000D+00  0.0000000000000D+00  0.0000000000000D+00
179  1.7800000000000D+00  0.0000000000000D+00  0.0000000000000D+00
180  1.7900000000000D+00  0.0000000000000D+00  0.0000000000000D+00
181  1.8000000000000D+00  0.0000000000000D+00  0.0000000000000D+00
182  1.8100000000000D+00  0.0000000000000D+00  0.0000000000000D+00
183  1.8200000000000D+00  0.0000000000000D+00  0.0000000000000D+00
184  1.8300000000000D+00  0.0000000000000D+00  0.0000000000000D+00
185  1.8400000000000D+00  0.0000000000000D+00  0.0000000000000D+00
186  1.8500000000000D+00  0.0000000000000D+00  0.0000000000000D+00
187  1.8600000000000D+00  0.0000000000000D+00  0.0000000000000D+00
188  1.8700000000000D+00  0.0000000000000D+00  0.0000000000000D+00
189  1.8800000000000D+00  0.0000000000000D+00  0.0000000000000D+00
190  1.8900000000000D+00  0.0000000000000D+00  0.0000000000000D+00
191  1.9000000000000D+00  0.0000000000000D+00  0.0000000000000D+00
192  1.9100000000000D+00  0.0000000000000D+00  0.0000000000000D+00
193  1.9200000000000D+00  0.0000000000000D+00  0.0000000000000D+00
194  1.9300000000000D+00  0.0000000000000D+00  0.0000000000000D+00
195  1.9400000000000D+00  0.0000000000000D+00  0.0000000000000D+00
196  1.9500000000000D+00  0.0000000000000D+00  0.0000000000000D+00
197  1.9600000000000D+00  0.0000000000000D+00  0.0000000000000D+00
198  1.9700000000000D+00  0.0000000000000D+00  0.0000000000000D+00
199  1.9800000000000D+00  0.0000000000000D+00  0.0000000000000D+00
200  1.9900000000000D+00  0.0000000000000D+00  0.0000000000000D+00
201  2.0000000000000D+00  0.0000000000000D+00  0.0000000000000D+00
202  2.0100000000000D+00  0.0000000000000D+00  0.0000000000000D+00
203  2.0200000000000D+00  0.0000000000000D+00  0.0000000000000D+00
204  2.0300000000000D+00  0.0000000000000D+00  0.0000000000000D+00
205  2.0400000000000D+00  0.0000000000000D+00  0.0000000000000D+00
206  2.0500000000000D+00  0.0000000000000D+00  0.0000000000000D+00
207  2.0600000000000D+00  0.0000000000000D+00  0.0000000000000D+00
208  2.0700000000000D+00  0.0000000000000D+00  0.0000000000000D+00
209  2.0800000000000D+00  0.0000000000000D+00  0.0000000000000D+00
210  2.0900000000000D+00  0.0000000000000D+00  0.0000000000000D+00
211  2.1000000000000D+00  0.0000000000000D+00  0.0000000000000D+00
212  2.1100000000000D+00  0.0000000000000D+00  0.0000000000000D+00
213  2.1200000000000D+00  0.0000000000000D+00  0.0000000000000D+00
214  2.1300000000000D+00  0.0000000000000D+00  0.0000000000000D+00
215  2.1400000000000D+00  0.0000000000000D+00  0.0000000000000D+00
216  2.1500000000000D+00  0.0000000000000D+00  0.0000000000000D+00
217  2.1600000000000D+00  0.0000000000000D+00  0.0000000000000D+00
218  2.1700000000000D+00  0.0000000000000D+00  0.0000000000000D+00
219  2.1800000000000D+00  0.0000000000000D+00  0.0000000000000D+00
220  2.1900000000000D+00  0.0000000000000D+00  0.0000000000000D+00
221  2.2000000000000D+00  0.0000000000000D+00  0.0000000000000D+00
222  2.2100000000000D+00  0.0000000000000D+00  0.0000000000000D+00
223  2.2200000000000D+00  0.0000000000000D+00  0.0000000000000D+00
224  2.2300000000000D+00  0.0000000000000D+00  0.0000000000000D+00
225  2.2400000000000D+00  0.0000000000000D+00  0.0000000000000D+00
226  2.2500000000000D+00  0.0000000000000D+00  0.0000000000000D+00
227  2.2600000000000D+00  0.0000000000000D+00  0.0000000000000D+00
228  2.2700000000000D+00  0.0000000000000D+00  0.0000000000000D+00
229  2.2800000000000D+00  0.0000000000000D+00  0.0000000000000D+00
230  2.2900000000000D+00  0.0000000000000D+00  0.0000000000000D+00
231  2.3000000000000D+00  0.0000000000000D+00  0.0000000000000D+00
232  2.3100000000000D+00  0.0000000000000D+00  0.0000000000000D+00
233  2.3200000000000D+00  0.0000000000000D+00  0.0000000000000D+00
234  2.3300000000000D+00  0.0000000000000D+00  0.0000000000000D+00
235  2.3400000000000D+00  0.0000000000000D+00  0.0000000000000D+00
236  2.3500000000000D+00  0.0000000000000D+00  0.0000000000000D+00
237  2.3600000000000D+00  0.0000000000000D+00  0.0000000000000D+00
238  2.3700000000000D+00  0.0000000000000D+00  0.0000000000000D+00
239  2.3800000000000D+00  0.0000000000000D+00  0.0000000000000D+00
240  2.3900000000000D+00  0.0000000000000D+00  0.0000000000000D+00
241  2.4000000000000D+00  0.0000000000000D+00  0.0000000000000D+00
242  2.4100000000000D+00  0.0000000000000D+00  0.0000000000000D+00
243  2.4200000000000D+00  0.0000000000000D+00  0.0000000000000D+00
244  2.4300000000000D+00  0.0000000000000D+00  0.0000000000000D+00
245  2.4400000000000D+00  0.0000000000000D+00  0.0000000000000D+00
246  2.4500000000000D+00  0.0000000000000D+00  0.0000000000000D+00
247  2.4600000000000D+00  0.0000000000000D+00  0.0000000000000D+00
248  2.4700000000000D+00  0.0000000000000D+00  0.0000000000000D+00
249  2.4800000000000D+00  0.0000000000000D+00  0.0000000000000D+00
250  2.4900000000000D+00  0.0000000000000D+00  0.0000000000000D+00
251  2.5000000000000D+00  0.0000000000000D+00  0.0000000000000D+00
252  2.5100000000000D+00  0.0000000000000D+00  0.0000000000000D+00
253  2.5200000000000D+00  0.0000000000000D+00  0.0000000000000D+00
254  2.5300000000000D+00  0.0000000000000D+00  0.0000000000000D+00
255  2.5400000000000D+00  0.0000000000000D+00  0.0000000000000D+00
256  2.5500000000000D+00  0.0000000000000D+00  0.0000000000000D+00
257  2.5600000000000D+00  0.0000000000000D+00  0.0000000000000D+00
258  2.5700000000000D+00  0.0000000000000D+00  0.0000000000000D+00
259  2.5800000000000D+00  0.0000000000000D+00  0.0000000000000D+00
260  2.5900000000000D+00  0.0000000000000D+00  0.0000000000000D+00
261  2.6000000000000D+00  0.0000000000000D+00  0.0000000000000D+00
262  2.6100000000000D+00  0.0000000000000D+00  0.0000000000000D+00
263  2.6200000000000D+00  0.0000000000000D+00  0.0000000000000D+00
264  2.6300000000000D+00  0.0000000000000D+00  0.0000000000000D+00
265  2.6400000000000D+00  0.0000000000000D+00  0.0000000000000D+00
266  2.6500000000000D+00  0.0000000000000D+00  0.0000000000000D+00
267  2.6600000000000D+00  0.0000000000000D+00  0.0000000000000D+00
268  2.6700000000000D+00  0.0000000000000D+00  0.0000000000000D+00
269  2.6800000000000D+00  0.0000000000000D+00  0.0000000000000D+00
270  2.6900000000000D+00  0.0000000000000D+00  0.0000000000000D+00
271  2.7000000000000D+00  0.0000000000000D+00  0.0000000000000D+00
272  2.7100000000000D+00  0.0000000000000D+00  0.0000000000000D+00
273  2.7200000000000D+00  0.0000000000000D+00  0.0000000000000D+00
274  2.7300000000000D+00  0.0000000000000D+00  0.0000000000000D+00
275  2.7400000000000D+00  0.0000000000000D+00  0.0000000000000D+00
276  2.7500000000000D+00  0.0000000000000D+00  0.0000000000000D+00
277  2.7600000000000D+00  0.0000000000000D+00  0.0000000000000D+00
278  2.7700000000000D+00  0.0000000000000D+00  0.0000000000000D+00
279  2.7800000000000D+00  0.0000000000000D+00  0.0000000000000D+00
280  2.7900000000000D+00  0.0000000000000D+00  0.0000000000000D+00
281  2.8000000000000D+00  0.0000000000000D+00  0.0000000000000D+00
282  2.8100000000000D+00  0.0000000000000D+00  0.0000000000000D+00
283  2.8200000000000D+00  0.0000000000000D+00  0.0000000000000D+00
284  2.8300000000000D+00  0.0000000000000D+00  0.0000000000000D+00
285  2.8400000000000D+00  0.0000000000000D+00  0.0000000000000D+00
286  2.8500000000000D+00  0.0000000000000D+00  0.0000000000000D+00
287  2.8600000000000D+00  0.0000000000000D+00  0.0000000000000D+00
288  2.8700000000000D+00  0.0000000000000D+00  0.0000000000000D+00
289  2.8800000000000D+00  0.0000000000000D+00  0.0000000000000D+00
290  2.8900000000000D+00  0.0000000000000D+00  0.0000000000000D+00
291  2.9000000000000D+00  0.0000000000000D+00  0.0000000000000D+00
292  2.9100000000000D+00  0.0000000000000D+00  0.0000000000000D+00
293  2.9200000000000D+00  0.0000000000000D+00  0.0000000000000D+00
294  2.9300000000000D+00  0.0000000000000D+00  0.0000000000000D+00
295  2.9400000000000D+00  0.0000000000000D+00  0.0000000000000D+00
296  2.9500000000000D+00  0.0000000000000D+00  0.0000000000000D+00
297  2.9600000000000D+00  0.0000000000000D+00  0.0000000000000D+00
298  2.9700000000000D+00  0.0000000000000D+00  0.0000000000000D+00
299  2.9800000000000D+00  0.0000000000000D+00  0.0000000000000D+00
300  2.9900000000000D+00  0.0000000000000D+00  0.0000000000000D+00
301  3.0000000000000D+00  0.0000000000000D+00  0.0000000000000D+00
302  3.0100000000000D+00  0.0000000000000D+00  0.0000000000000D+00
303  3.0200000000000D+00  0.0000000000000D+00  0.0000000000000D+00
304  3.0300000000000D+00  0.0000000000000D+00  0.0000000000000D+00
305  3.0400000000000D+00  0.0000000000000D+00  0.0000000000000D+00
306  3.0500000000000D+00  0.0000000000000D+00  0.0000000000000D+00
307  3.0600000000000D+00  0.0000000000000D+00  0.0000000000000D+00
308  3.0700000000000D+00  0.0000000000000D+00  0.0000000000000D+00
309  3.0800000000000D+00  0.0000000000000D+00  0.0000000000000D+00
310  3.0900000000000D+00  0.0000000000000D+00  0.0000000000000D+00
311  3.1000000000000D+00  0.0000000000000D+00  0.0000000000000D+00
312  3.1100000000000D+00  0.0000000000000D+00  0.0000000000000D+00
313  3.1200000000000D+00  0.0000000000000D+00  0.0000000000000D+00
314  3.1300000000000D+00  0.0000000000000D+00  0.0000000000000D+00
315  3.1400000000000D+00  0.0000000000000D+00  0.0000000000000D+00
316  3.1500000000000D+00  0.0000000000000D+00  0.0000000000000D+00
317  3.1600000000000D+00  0.0000000000000D+00  0.0000000000000D+00
318  3.1700000000000D+00  0.0000000000000D+00  0.0000000000000D+00
319  3.1800000000000D+00  0.0000000000000D+00  0.0000000000000D+00
320  3.1900000000000D+00  0.0000000000000D+00  0.0000000000000D+00
321  3.2000000000000D+00  0.0000000000000D+00  0.0000000000000D+00
322  3.2100000000000D+00  0.0000000000000D+00  0.0000000000000D+00
323  3.2200000000000D+00  0.0000000000000D+00  0.0000000000000D+00
324  3.2300000000000D+00  0.0000000000000D+00  0.0000000000000D+00
325  3.2400000000000D+00  0.0000000000000D+00  0.0000000000000D+00
326  3.2500000000000D+00  0.0000000000000D+00  0.0000000000000D+00
327  3.2600000000000D+00  0.0000000000000D+00  0.0000000000000D+00
328  3.2700000000000D+00  0.0000000000000D+00  0.0000000000000D+00
329  3.2800000000000D+00  0.0000000000000D+00  0.0000000000000D+00
330  3.2900000000000D+00  0.0000000000000D+00  0.0000000000000D+00
331  3.3000000000000D+00  0.0000000000000D+00  0.0000000000000D+00
332  3.3100000000000D+00  0.0000000000000D+00  0.0000000000000D+00
333  3.3200000000000D+00  0.0000000000000D+00  0.0000000000000D+00
334  3.3300000000000D+00  0.0000000000000D+00  0.0000000000000D+00
335  3.3400000000000D+00  0.0000000000000D+00  0.0000000000000D+00
336  3.3500000000000D+00  0.0000000000000D+00  0.0000000000000D+00
337  3.3600000000000D+00  0.0000000000000D+00  0.0000000000000D+00
338  3.3700000000000D+00  0.0000000000000D+00  0.0000000000000D+00
339  3.3800000000000D+00  0.0000000000000D+00  0.0000000000000D+00
340  3.3900000000000D+00  0.0000000000000D+00  0.0000000000000D+00
341  3.4000000000000D+00  0.0000000000000D+00  0.0000000000000D+00
342  3.4100000000000D+00  0.0000000000000D+00  0.0000000000000D+00
343  3.4200000000000D+00  0.0000000000000D+00  0.0000000000000D+00
344  3.4300000000000D+00  0.0000000000000D+00  0.0000000000000D+00
345  3.4400000000000D+00  0.0000000000000D+00  0.0000000000000D+00
346  3.4500000000000D+00  0.0000000000000D+00  0.0000000000000D+00
347  3.4600000000000D+00  0.0000000000000D+00  0.0000000000000D+00
348  3.4700000000000D+00  0.0000000000000D+00  0.0000000000000D+00
349  3.4800000000000D+00  0.0000000000000D+00  0.0000000000000D+00
350  3.4900000000000D+00  0.0000000000000D+00  0.0000000000000D+00
351  3.5000000000000D+00  0.0000000000000D+00  0.0000000000000D+00
352  3.5100000000000D+00  0.0000000000000D+00  0.0000000000000D+00
353  3.5200000000000D+00  0.0000000000000D+00  0.0000000000000D+00
354  3.5300000000000D+00  0.0000000000000D+00  0.0000000000000D+00
355  3.5400000000000D+00  0.0000000000000D+00  0.0000000000000D+00
356  3.5500000000000D+00  0.0000000000000D+00  0.0000000000000D+00
357  3.5600000000000D+00  0.0000000000000D+00  0.0000000000000D+00
358  3.5700000000000D+00  0.0000000000000D+00  0.0000000000000D+00
359  3.5800000000000D+00  0.0000000000000D+00  0.0000000000000D+00
360  3.5900000000000D+00  0.0000000000000D+00  0.0000000000000D+00
361  3.6000000000000D+00  0.0000000000000D+00  0.0000000000000D+00
362  3.6100000000000D+00  0.0000000000000D+00  0.0000000000000D+00
363  3.6200000000000D+00  0.0000000000000D+00  0.0000000000000D+00
364  3.6300000000000D+00  0.0000000000000D+00  0.0000000000000D+00
365  3.6400000000000D+00  0.0000000000000D+00  0.0000000000000D+00
366  3.6500000000000D+00  0.0000000000000D+00  0.0000000000000D+00
367  3.6600000000000D+00  0.0000000000000D+00  0.0000000000000D+00
368  3.6700000000000D+00  0.0000000000000D+00  0.0000000000000D+00
369  3.6800000000000D+00  0.0000000000000D+00  0.0000000000000D+00
370  3.6900000000000D+00  0.0000000000000D+00  0.0000000000000D+00
371  3.7000000000000D+00  0.0000000000000D+00  0.0000000000000D+00
372  3.7100000000000D+00  0.0000000000000D+00  0.0000000000000D+00
373  3.7200000000000D+00  0.0000000000000D+00  0.0000000000000D+00
374  3.7300000000000D+00  0.0000000000000D+00  0.0000000000000D+00
375  3.7400000000000D+00  0.0000000000000D+00  0.0000000000000D+00
376  3.7500000000000D+00  0.0000000000000D+00  0.0000000000000D+00
377  3.7600000000000D+00  0.0000000000000D+00  0.0000000000000D+00
378  3.7700000000000D+00  0.0000000000000D+00  0.0000000000000D+00
379  3.7800000000000D+00  0.0000000000000D+00  0.0000000000000D+00
380  3.7900000000000D+00  0.0000000000000D+00  0.0000000000000D+00
381  3.8000000000000D+00  0.0000000000000D+00  0.0000000000000D+00
382  3.8100000000000D+00  0.0000000000000D+00  0.0000000000000D+00
383  3.8200000000000D+00  0.0000000000000D+00  0.0000000000000D+00
384  3.8300000000000D+00  0.0000000000000D+00  0.0000000000000D+00
385  3.8400000000000D+00  0.0000000000000D+00  0.0000000000000D+00
386  3.8500000000000D+00  0.0000000000000D+00  0.0000000000000D+00
387  3.8600000000000D+00  0.0000000000000D+00  0.0000000000000D+00
388  3.8700000000000D+00  0.0000000000000D+00  0.0000000000000D+00
389  3.8800000000000D+00  0.0000000000000D+00  0.0000000000000D+00
390  3.8900000000000D+00  0.0000000000000D+00  0.0000000000000D+00
391  3.9000000000000D+00  0.0000000000000D+00  0.0000000000000D+00
392  3.9100000000000D+00  0.0000000000000D+00  0.0000000000000D+00
393  3.9200000000000D+00  0.0000000000000D+00  0.0000000000000D+00
394  3.9300000000000D+00  0.0000000000000D+00  0.0000000000000D+00
395  3.9400000000000D+00  0.0000000000000D+00  0.0000000000000D+00
396  3.9500000000000D+00  0.0000000000000D+00  0.0000000000000D+00
397  3.9600000000000D+00  0.0000000000000D+00  0.0000000000000D+00
398  3.9700000000000D+00  0.0000000000000D+00  0.0000000000000D+00
399  3.9800000000000D+00  0.0000000000000D+00  0.0000000000000D+00
400  3.9900000000000D+00  0.0000000000000D+00  0.0000000000000D+00
401  4.0000000000000D+00  0.0000000000000D+00  0.0000000000000D+00
402  4.0100000000000D+00  0.0000000000000D+00  0.0000000000000D+00
403  4.0200000000000D+00  0.0000000000000D+00  0.0000000000000D+00
404  4.0300000000000D+00  0.0000000000000D+00  0.0000000000000D+00
405  4.0400000000000D+00  0.0000000000000D+00  0.0000000000000D+00
406  4.0500000000000D+00  0.0000000000000D+00  0.0000000000000D+00
407  4.0600000000000D+00  0.0000000000000D+00  0.0000000000000D+00
408  4.0700000000000D+00  0.0000000000000D+00  0.0000000000000D+00
409  4.0800000000000D+00  0.0000000000000D+00  0.0000000000000D+00
410  4.0900000000000D+00  0.0000000000000D+00  0.0000000000000D+00
411  4.1000000000000D+00  0.0000000000000D+00  0.0000000000000D+00
412  4.1100000000000D+00  0.0000000000000D+00  0.0000000000000D+00
413  4.1200000000000D+00  0.0000000000000D+00  0.0000000000000D+00
414  4.1300000000000D+00  0.0000000000000D+00  0.0000000000000D+00
415  4.1400000000000D+00  0.0000000000000D+00  0.0000000000000D+00
416  4.1500000000000D+00  0.0000000000000D+00  0.0000000000000D+00
417  4.1600000000000D+00  0.0000000000000D+00  0.0000000000000D+00
418  4.1700000000000D+00  0.0000000000000D+00  0.0000000000000D+00
419  4.1800000000000D+00  0.0000000000000D+00  0.0000000000000D+00
420  4.1900000000000D+00  0.0000000000000D+00  0.0000000000000D+00
421  4.2000000000000D+00  0.0000000000000D+00  0.0000000000000D+00
422  4.2100000000000D+00  0.0000000000000D+00  0.0000000000000D+00
423  4.2200000000000D+00  0.0000000000000D+00  0.0000000000000D+00
424  4.2300000000000D+00  0.0000000000000D+00  0.0000000000000D+00
425  4.2400000000000D+00  0.0000000000000D+00  0.0000000000000D+00
426  4.2500000000000D+00  0.0000000000000D+00  0.0000000000000D+00
427  4.2600000000000D+00  0.0000000000000D+00  0.0000000000000D+00
428  4.2700000000000D+00  0.0000000000000D+00  0.0000000000000D+00
429  4.2800000000000D+00  0.0000000000000D+00  0.0000000000000D+00
430  4.2900000000000D+00  0.0000000000000D+00  0.0000000000000D+00
431  4.3000000000000D+00  0.0000000000000D+00  0.0000000000000D+00
432  4.3100000000000D+00  0.0000000000000D+00  0.0000000000000D+00
433  4.3200000000000D+00  0.0000000000000D+00  0.0000000000000D+00
434  4.3300000000000D+00  0.0000000000000D+00  0.0000000000000D+00
435  4.3400000000000D+00  0.0000000000000D+00  0.0000000000000D+00
436  4.3500000000000D+00  0.0000000000000D+00  0.0000000000000D+00
437  4.3600000000000D+00  0.0000000000000D+00  0.0000000000000D+00
438  4.3700000000000D+00  0.0000000000000D+00  0.0000000000000D+00
439  4.3800000000000D+00  0.0000000000000D+00  0.0000000000000D+00
440  4.3900000000000D+00  0.0000000000000D+00  0.0000000000000D+00
441  4.4000000000000D+00  0.0000000000000D+00  0.0000000000000D+00
442  4.4100000000000D+00  0.0000000000000D+00  0.0000000000000D+00
443  4.4200000000000D+00  0.0000000000000D+00  0.0000000000000D+00
444  4.4300000000000D+00  0.0000000000000D+00  0.0000000000000D+00