Hf    ONCVPSP  r_core=  1.56  1.56  1.45
72.0000     12.0000      140827    zatom,zion,pspd
8    11     2     4   601     0    pspcod,pspxc,lmax,lloc,mmax,r2well
6.00000000  0.85000000  0.00000000    rchrg fchrg qchrg
2     2     2     0     0    nproj
0                 extension_switch
0                         1.3368826223547D+01  1.3096731502354D+00
1  0.0000000000000D+00 -0.0000000000000D+00  0.0000000000000D+00
2  1.0000000000000D-02 -5.3877992323043D-02  8.0887782711942D-03
3  2.0000000000000D-02 -1.0771800766514D-01  1.6236019235313D-02
4  3.0000000000000D-02 -1.6148173514510D-01  2.4499050647303D-02
5  4.0000000000000D-02 -2.1513019999206D-01  3.2932941434716D-02
6  5.0000000000000D-02 -2.6862344134561D-01  4.1589399816397D-02
7  6.0000000000000D-02 -3.2192020165940D-01  5.0515704208968D-02
8  7.0000000000000D-02 -3.7497763142812D-01  5.9753677440936D-02
9  8.0000000000000D-02 -4.2775101282717D-01  6.9338714429497D-02
10  9.0000000000000D-02 -4.8019350570624D-01  7.9298873070334D-02
11  1.0000000000000D-01 -5.3225591917710D-01  8.9654037522090D-02
12  1.1000000000000D-01 -5.8388651184296D-01  1.0041516254578D-01
13  1.2000000000000D-01 -6.3503082346175D-01  1.1158360684028D-01
14  1.3000000000000D-01 -6.8563154059348D-01  1.2315056266789D-01
15  1.4000000000000D-01 -7.3562839842787D-01  1.3509658798512D-01
16  1.5000000000000D-01 -7.8495812084505D-01  1.4739124713095D-01
17  1.6000000000000D-01 -8.3355440018609D-01  1.5999286412228D-01
18  1.7000000000000D-01 -8.8134791816214D-01  1.7284839303312D-01
19  1.8000000000000D-01 -9.2826640870763D-01  1.8589340749680D-01
20  1.9000000000000D-01 -9.7423476340186D-01  1.9905221174113D-01
21  2.0000000000000D-01 -1.0191751797388D+00  2.1223807341483D-01
22  2.1000000000000D-01 -1.0630073518003D+00  2.2535357817434D-01
23  2.2000000000000D-01 -1.1056487030743D+00  2.3829110443013D-01
24  2.3000000000000D-01 -1.1470146603972D+00  2.5093341620096D-01
25  2.4000000000000D-01 -1.1870189677790D+00  2.6315437065852D-01
26  2.5000000000000D-01 -1.2255740373445D+00  2.7481973351343D-01
27  2.6000000000000D-01 -1.2625913387656D+00  2.8578810395628D-01
28  2.7000000000000D-01 -1.2979818191617D+00  2.9591193086198D-01
29  2.8000000000000D-01 -1.3316563562218D+00  3.0503862434408D-01
30  2.9000000000000D-01 -1.3635262389557D+00  3.1301174920265D-01
31  3.0000000000000D-01 -1.3935036725289D+00  3.1967229046883D-01
32  3.1000000000000D-01 -1.4215023051494D+00  3.2485998492030D-01
33  3.2000000000000D-01 -1.4474377718235D+00  3.2841470492967D-01
34  3.3000000000000D-01 -1.4712282481380D+00  3.3017787648671D-01
35  3.4000000000000D-01 -1.4927950198531D+00  3.2999394451705D-01
36  3.5000000000000D-01 -1.5120630522182D+00  3.2771184487231D-01
37  3.6000000000000D-01 -1.5289615607651D+00  3.2318648571116D-01
38  3.7000000000000D-01 -1.5434245705733D+00  3.1628020460324D-01
39  3.8000000000000D-01 -1.5553914900744D+00  3.0686426646506D-01
40  3.9000000000000D-01 -1.5648076379851D+00  2.9482024562512D-01
41  4.0000000000000D-01 -1.5716247739661D+00  2.8004141926106D-01
42  4.1000000000000D-01 -1.5758016011861D+00  2.6243409073707D-01
43  4.2000000000000D-01 -1.5773042411505D+00  2.4191884275205D-01
44  4.3000000000000D-01 -1.5761066766718D+00  2.1843170896102D-01
45  4.4000000000000D-01 -1.5721911590158D+00  1.9192525318695D-01
46  4.5000000000000D-01 -1.5655485753655D+00  1.6236954567934D-01
47  4.6000000000000D-01 -1.5561787728156D+00  1.2975302611626D-01
48  4.7000000000000D-01 -1.5440908351801D+00  9.4083243282131D-02
49  4.8000000000000D-01 -1.5293033090370D+00  5.5387461774965D-02
50  4.9000000000000D-01 -1.5118443708561D+00  1.3713114148608D-02
51  5.0000000000000D-01 -1.4917519463935D+00 -3.0871872446266D-02
52  5.1000000000000D-01 -1.4690738015884D+00 -7.8278824301443D-02
53  5.2000000000000D-01 -1.4438674963377D+00 -1.2839842914326D-01
54  5.3000000000000D-01 -1.4162003414724D+00 -1.8110083613872D-01
55  5.4000000000000D-01 -1.3861493164273D+00 -2.3623585769580D-01
56  5.5000000000000D-01 -1.3538008141669D+00 -2.9363362632846D-01
57  5.6000000000000D-01 -1.3192504788123D+00 -3.5310500394679D-01
58  5.7000000000000D-01 -1.2826028321652D+00 -4.1444254835929D-01
59  5.8000000000000D-01 -1.2439709598040D+00 -4.7742131605556D-01
60  5.9000000000000D-01 -1.2034760607880D+00 -5.4180002773502D-01
61  6.0000000000000D-01 -1.1612469734122D+00 -6.0732228338905D-01
62  6.1000000000000D-01 -1.1174196674626D+00 -6.7371787488087D-01
63  6.2000000000000D-01 -1.0721366165026D+00 -7.4070439345247D-01
64  6.3000000000000D-01 -1.0255461884466D+00 -8.0798879491015D-01
65  6.4000000000000D-01 -9.7780204291951D-01 -8.7526894261170D-01
66  6.5000000000000D-01 -9.2906224528822D-01 -9.4223586539110D-01
67  6.6000000000000D-01 -8.7948865942702D-01 -1.0085753031345D+00
68  6.7000000000000D-01 -8.2924618955469D-01 -1.0739696282197D+00
69  6.8000000000000D-01 -7.7850185349911D-01 -1.1381001860046D+00
70  6.9000000000000D-01 -7.2742397834425D-01 -1.2006493142182D+00
71  7.0000000000000D-01 -6.7618143371886D-01 -1.2613022562680D+00
72  7.1000000000000D-01 -6.2494275653694D-01 -1.3197493366680D+00
73  7.2000000000000D-01 -5.7387537642384D-01 -1.3756878696449D+00
74  7.3000000000000D-01 -5.2314446339147D-01 -1.4288249962814D+00
75  7.4000000000000D-01 -4.7291238656948D-01 -1.4788789723450D+00
76  7.5000000000000D-01 -4.2333779162336D-01 -1.5255813939835D+00
77  7.6000000000000D-01 -3.7457478983239D-01 -1.5686791221717D+00
78  7.7000000000000D-01 -3.2677217283435D-01 -1.6079361206662D+00
79  7.8000000000000D-01 -2.8007265870773D-01 -1.6431351920523D+00
80  7.9000000000000D-01 -2.3461217481606D-01 -1.6740795972418D+00
81  8.0000000000000D-01 -1.9051920590136D-01 -1.7005944890602D+00
82  8.1000000000000D-01 -1.4791413075317D-01 -1.7225283429780D+00
83  8.2000000000000D-01 -1.0690859553662D-01 -1.7397542629793D+00
84  8.3000000000000D-01 -6.7605098752441D-02 -1.7521707527449D+00
85  8.4000000000000D-01 -3.0096481819798D-02 -1.7597026782269D+00
86  8.5000000000000D-01  5.5344724092144D-03 -1.7623019378099D+00
87  8.6000000000000D-01  3.9215376033321D-02 -1.7599479429797D+00
88  8.7000000000000D-01  7.0884505021812D-02 -1.7526479042308D+00
89  8.8000000000000D-01  1.0049099881872D-01 -1.7404369184984D+00
90  8.9000000000000D-01  1.2799491344888D-01 -1.7233777009031D+00
91  9.0000000000000D-01  1.5336748008599D-01 -1.7015606949577D+00
92  9.1000000000000D-01  1.7659093886616D-01 -1.6751032281524D+00
93  9.2000000000000D-01  1.9765847177418D-01 -1.6441488425031D+00
94  9.3000000000000D-01  2.1657406049879D-01 -1.6088664176846D+00
95  9.4000000000000D-01  2.3335226175709D-01 -1.5694490784670D+00
96  9.5000000000000D-01  2.4801791536452D-01 -1.5261129222897D+00
97  9.6000000000000D-01  2.6060578780583D-01 -1.4790955770033D+00
98  9.7000000000000D-01  2.7116015479192D-01 -1.4286546009163D+00
99  9.8000000000000D-01  2.7973432703185D-01 -1.3750657393990D+00
100  9.9000000000000D-01  2.8639005210107D-01 -1.3186211336123D+00
101  1.0000000000000D+00  2.9119721311444D-01 -1.2596273389501D+00
102  1.0100000000000D+00  2.9423292397716D-01 -1.1984029628585D+00
103  1.0200000000000D+00  2.9558091024269D-01 -1.1352765881782D+00
104  1.0300000000000D+00  2.9533084116489D-01 -1.0705845242559D+00
105  1.0400000000000D+00  2.9357761310966D-01 -1.0046685212100D+00
106  1.0500000000000D+00  2.9042080192174D-01 -9.3787452466805D-01
107  1.0600000000000D+00  2.8596348239422D-01 -8.7054748172159D-01
108  1.0700000000000D+00  2.8031166828323D-01 -8.0303107746288D-01
109  1.0800000000000D+00  2.7357353594112D-01 -7.3566504511166D-01
110  1.0900000000000D+00  2.6585878955136D-01 -6.6878340309656D-01
111  1.1000000000000D+00  2.5727807171025D-01 -6.0271274494619D-01
112  1.1100000000000D+00  2.4794103552103D-01 -5.3776544826873D-01
113  1.1200000000000D+00  2.3795677850687D-01 -4.7424255945828D-01
114  1.1300000000000D+00  2.2743297867782D-01 -4.1243096673847D-01
115  1.1400000000000D+00  2.1647584229545D-01 -3.5260365118795D-01
116  1.1500000000000D+00  2.0518685116406D-01 -2.9500871351925D-01
117  1.1600000000000D+00  1.9366472355521D-01 -2.3987724894661D-01
118  1.1700000000000D+00  1.8200480673150D-01 -1.8742144253123D-01
119  1.1800000000000D+00  1.7029763480549D-01 -1.3783004377533D-01
120  1.1900000000000D+00  1.5862723358292D-01 -9.1263570280087D-02
121  1.2000000000000D+00  1.4707310432900D-01 -4.7861380159934D-02
122  1.2100000000000D+00  1.3571081320387D-01 -7.7435566868338D-03
123  1.2200000000000D+00  1.2460612823615D-01  2.9006904266569D-02
124  1.2300000000000D+00  1.1382004484055D-01  6.2327588733453D-02
125  1.2400000000000D+00  1.0340884498565D-01  9.2176622049930D-02
126  1.2500000000000D+00  9.3419321316145D-02  1.1854635036076D-01
127  1.2600000000000D+00  8.3892027615683D-02  1.4145275757014D-01
128  1.2700000000000D+00  7.4863076600176D-02  1.6093041884379D-01
129  1.2800000000000D+00  6.6359195816555D-02  1.7704574370973D-01
130  1.2900000000000D+00  5.8400870584859D-02  1.8988710807914D-01
131  1.3000000000000D+00  5.1004681452717D-02  1.9955899539298D-01
132  1.3100000000000D+00  4.4177734918129D-02  2.0619524076875D-01
133  1.3200000000000D+00  3.7922304992439D-02  2.0994608317889D-01
134  1.3300000000000D+00  3.2237223509496D-02  2.1097590740325D-01
135  1.3400000000000D+00  2.7112067461736D-02  2.0947373964139D-01
136  1.3500000000000D+00  2.2534180383254D-02  2.0563786276436D-01
137  1.3600000000000D+00  1.8486018285188D-02  1.9968158019518D-01
138  1.3700000000000D+00  1.4944439304766D-02  1.9183061010727D-01
139  1.3800000000000D+00  1.1884474148105D-02  1.8231913550816D-01
140  1.3900000000000D+00  9.2762142365307D-03  1.7139052554291D-01
141  1.4000000000000D+00  7.0875955278367D-03  1.5929259093823D-01
142  1.4100000000000D+00  5.2841604284379D-03  1.4628100731374D-01
143  1.4200000000000D+00  3.8288737631694D-03  1.3260879317812D-01
144  1.4300000000000D+00  2.6834861500282D-03  1.1853591759438D-01
145  1.4400000000000D+00  1.8080882129299D-03  1.0431745541155D-01
146  1.4500000000000D+00  1.1623265252972D-03  9.0206668200413D-02
147  1.4600000000000D+00  7.0378732730313D-04  7.6461172313162D-02
148  1.4700000000000D+00  3.9496999398369D-04  6.3307578940225D-02
149  1.4800000000000D+00  1.9538896591810D-04  5.0987159256133D-02
150  1.4900000000000D+00  7.6602866620591D-05  3.9678843118338D-02
151  1.5000000000000D+00  8.6255475751770D-06  2.9570229191845D-02
152  1.5100000000000D+00 -2.9044786367337D-05  2.0802002533721D-02
153  1.5200000000000D+00 -5.2676615161980D-05  1.3495472306904D-02
154  1.5300000000000D+00 -7.3891532425674D-05  7.7497298110364D-03
155  1.5400000000000D+00 -9.3945828819608D-05  3.6160120598503D-03
156  1.5500000000000D+00 -1.1764173425158D-04  1.3300485688141D-03
157  1.5600000000000D+00 -1.2147197428705D-04  3.2239009763186D-04
158  1.5700000000000D+00 -5.8012555104755D-05 -2.7883146343035D-05
159  1.5800000000000D+00  2.6779434288326D-06 -7.1817783610670D-06
160  1.5900000000000D+00  7.1496580254545D-06 -1.9174138909507D-05
161  1.6000000000000D+00  0.0000000000000D+00  0.0000000000000D+00
162  1.6100000000000D+00  0.0000000000000D+00  0.0000000000000D+00
163  1.6200000000000D+00  0.0000000000000D+00  0.0000000000000D+00
164  1.6300000000000D+00  0.0000000000000D+00  0.0000000000000D+00
165  1.6400000000000D+00  0.0000000000000D+00  0.0000000000000D+00
166  1.6500000000000D+00  0.0000000000000D+00  0.0000000000000D+00
167  1.6600000000000D+00  0.0000000000000D+00  0.0000000000000D+00
168  1.6700000000000D+00  0.0000000000000D+00  0.0000000000000D+00
169  1.6800000000000D+00  0.0000000000000D+00  0.0000000000000D+00
170  1.6900000000000D+00  0.0000000000000D+00  0.0000000000000D+00
171  1.7000000000000D+00  0.0000000000000D+00  0.0000000000000D+00
172  1.7100000000000D+00  0.0000000000000D+00  0.0000000000000D+00
173  1.7200000000000D+00  0.0000000000000D+00  0.0000000000000D+00
174  1.7300000000000D+00  0.0000000000000D+00  0.0000000000000D+00
175  1.7400000000000D+00  0.0000000000000D+00  0.0000000000000D+00
176  1.7500000000000D+00  0.0000000000000D+00  0.0000000000000D+00
177  1.7600000000000D+00  0.0000000000000D+00  0.0000000000000D+00
178  1.7700000000000D+00  0.0000000000000D+00  0.0000000000000D+00
179  1.7800000000000D+00  0.0000000000000D+00  0.0000000000000D+00
180  1.7900000000000D+00  0.0000000000000D+00  0.0000000000000D+00
181  1.8000000000000D+00  0.0000000000000D+00  0.0000000000000D+00
182  1.8100000000000D+00  0.0000000000000D+00  0.0000000000000D+00
183  1.8200000000000D+00  0.0000000000000D+00  0.0000000000000D+00
184  1.8300000000000D+00  0.0000000000000D+00  0.0000000000000D+00
185  1.8400000000000D+00  0.0000000000000D+00  0.0000000000000D+00
186  1.8500000000000D+00  0.0000000000000D+00  0.0000000000000D+00
187  1.8600000000000D+00  0.0000000000000D+00  0.0000000000000D+00
188  1.8700000000000D+00  0.0000000000000D+00  0.0000000000000D+00
189  1.8800000000000D+00  0.0000000000000D+00  0.0000000000000D+00
190  1.8900000000000D+00  0.0000000000000D+00  0.0000000000000D+00
191  1.9000000000000D+00  0.0000000000000D+00  0.0000000000000D+00
192  1.9100000000000D+00  0.0000000000000D+00  0.0000000000000D+00
193  1.9200000000000D+00  0.0000000000000D+00  0.0000000000000D+00
194  1.9300000000000D+00  0.0000000000000D+00  0.0000000000000D+00
195  1.9400000000000D+00  0.0000000000000D+00  0.0000000000000D+00
196  1.9500000000000D+00  0.0000000000000D+00  0.0000000000000D+00
197  1.9600000000000D+00  0.0000000000000D+00  0.0000000000000D+00
198  1.9700000000000D+00  0.0000000000000D+00  0.0000000000000D+00
199  1.9800000000000D+00  0.0000000000000D+00  0.0000000000000D+00
200  1.9900000000000D+00  0.0000000000000D+00  0.0000000000000D+00
201  2.0000000000000D+00  0.0000000000000D+00  0.0000000000000D+00
202  2.0100000000000D+00  0.0000000000000D+00  0.0000000000000D+00
203  2.0200000000000D+00  0.0000000000000D+00  0.0000000000000D+00
204  2.0300000000000D+00  0.0000000000000D+00  0.0000000000000D+00
205  2.0400000000000D+00  0.0000000000000D+00  0.0000000000000D+00
206  2.0500000000000D+00  0.0000000000000D+00  0.0000000000000D+00
207  2.0600000000000D+00  0.0000000000000D+00  0.0000000000000D+00
208  2.0700000000000D+00  0.0000000000000D+00  0.0000000000000D+00
209  2.0800000000000D+00  0.0000000000000D+00  0.0000000000000D+00
210  2.0900000000000D+00  0.0000000000000D+00  0.0000000000000D+00
211  2.1000000000000D+00  0.0000000000000D+00  0.0000000000000D+00
212  2.1100000000000D+00  0.0000000000000D+00  0.0000000000000D+00
213  2.1200000000000D+00  0.0000000000000D+00  0.0000000000000D+00
214  2.1300000000000D+00  0.0000000000000D+00  0.0000000000000D+00
215  2.1400000000000D+00  0.0000000000000D+00  0.0000000000000D+00
216  2.1500000000000D+00  0.0000000000000D+00  0.0000000000000D+00
217  2.1600000000000D+00  0.0000000000000D+00  0.0000000000000D+00
218  2.1700000000000D+00  0.0000000000000D+00  0.0000000000000D+00
219  2.1800000000000D+00  0.0000000000000D+00  0.0000000000000D+00
220  2.1900000000000D+00  0.0000000000000D+00  0.0000000000000D+00
221  2.2000000000000D+00  0.0000000000000D+00  0.0000000000000D+00
222  2.2100000000000D+00  0.0000000000000D+00  0.0000000000000D+00
223  2.2200000000000D+00  0.0000000000000D+00  0.0000000000000D+00
224  2.2300000000000D+00  0.0000000000000D+00  0.0000000000000D+00
225  2.2400000000000D+00  0.0000000000000D+00  0.0000000000000D+00
226  2.2500000000000D+00  0.0000000000000D+00  0.0000000000000D+00
227  2.2600000000000D+00  0.0000000000000D+00  0.0000000000000D+00
228  2.2700000000000D+00  0.0000000000000D+00  0.0000000000000D+00
229  2.2800000000000D+00  0.0000000000000D+00  0.0000000000000D+00
230  2.2900000000000D+00  0.0000000000000D+00  0.0000000000000D+00
231  2.3000000000000D+00  0.0000000000000D+00  0.0000000000000D+00
232  2.3100000000000D+00  0.0000000000000D+00  0.0000000000000D+00
233  2.3200000000000D+00  0.0000000000000D+00  0.0000000000000D+00
234  2.3300000000000D+00  0.0000000000000D+00  0.0000000000000D+00
235  2.3400000000000D+00  0.0000000000000D+00  0.0000000000000D+00
236  2.3500000000000D+00  0.0000000000000D+00  0.0000000000000D+00
237  2.3600000000000D+00  0.0000000000000D+00  0.0000000000000D+00
238  2.3700000000000D+00  0.0000000000000D+00  0.0000000000000D+00
239  2.3800000000000D+00  0.0000000000000D+00  0.0000000000000D+00
240  2.3900000000000D+00  0.0000000000000D+00  0.0000000000000D+00
241  2.4000000000000D+00  0.0000000000000D+00  0.0000000000000D+00
242  2.4100000000000D+00  0.0000000000000D+00  0.0000000000000D+00
243  2.4200000000000D+00  0.0000000000000D+00  0.0000000000000D+00
244  2.4300000000000D+00  0.0000000000000D+00  0.0000000000000D+00
245  2.4400000000000D+00  0.0000000000000D+00  0.0000000000000D+00
246  2.4500000000000D+00  0.0000000000000D+00  0.0000000000000D+00
247  2.4600000000000D+00  0.0000000000000D+00  0.0000000000000D+00
248  2.4700000000000D+00  0.0000000000000D+00  0.0000000000000D+00
249  2.4800000000000D+00  0.0000000000000D+00  0.0000000000000D+00
250  2.4900000000000D+00  0.0000000000000D+00  0.0000000000000D+00
251  2.5000000000000D+00  0.0000000000000D+00  0.0000000000000D+00
252  2.5100000000000D+00  0.0000000000000D+00  0.0000000000000D+00
253  2.5200000000000D+00  0.0000000000000D+00  0.0000000000000D+00
254  2.5300000000000D+00  0.0000000000000D+00  0.0000000000000D+00
255  2.5400000000000D+00  0.0000000000000D+00  0.0000000000000D+00
256  2.5500000000000D+00  0.0000000000000D+00  0.0000000000000D+00
257  2.5600000000000D+00  0.0000000000000D+00  0.0000000000000D+00
258  2.5700000000000D+00  0.0000000000000D+00  0.0000000000000D+00
259  2.5800000000000D+00  0.0000000000000D+00  0.0000000000000D+00
260  2.5900000000000D+00  0.0000000000000D+00  0.0000000000000D+00
261  2.6000000000000D+00  0.0000000000000D+00  0.0000000000000D+00
262  2.6100000000000D+00  0.0000000000000D+00  0.0000000000000D+00
263  2.6200000000000D+00  0.0000000000000D+00  0.0000000000000D+00
264  2.6300000000000D+00  0.0000000000000D+00  0.0000000000000D+00
265  2.6400000000000D+00  0.0000000000000D+00  0.0000000000000D+00
266  2.6500000000000D+00  0.0000000000000D+00  0.0000000000000D+00
267  2.6600000000000D+00  0.0000000000000D+00  0.0000000000000D+00
268  2.6700000000000D+00  0.0000000000000D+00  0.0000000000000D+00
269  2.6800000000000D+00  0.0000000000000D+00  0.0000000000000D+00
270  2.6900000000000D+00  0.0000000000000D+00  0.0000000000000D+00
271  2.7000000000000D+00  0.0000000000000D+00  0.0000000000000D+00
272  2.7100000000000D+00  0.0000000000000D+00  0.0000000000000D+00
273  2.7200000000000D+00  0.0000000000000D+00  0.0000000000000D+00
274  2.7300000000000D+00  0.0000000000000D+00  0.0000000000000D+00
275  2.7400000000000D+00  0.0000000000000D+00  0.0000000000000D+00
276  2.7500000000000D+00  0.0000000000000D+00  0.0000000000000D+00
277  2.7600000000000D+00  0.0000000000000D+00  0.0000000000000D+00
278  2.7700000000000D+00  0.0000000000000D+00  0.0000000000000D+00
279  2.7800000000000D+00  0.0000000000000D+00  0.0000000000000D+00
280  2.7900000000000D+00  0.0000000000000D+00  0.0000000000000D+00
281  2.8000000000000D+00  0.0000000000000D+00  0.0000000000000D+00
282  2.8100000000000D+00  0.0000000000000D+00  0.0000000000000D+00
283  2.8200000000000D+00  0.0000000000000D+00  0.0000000000000D+00
284  2.8300000000000D+00  0.0000000000000D+00  0.0000000000000D+00
285  2.8400000000000D+00  0.0000000000000D+00  0.0000000000000D+00
286  2.8500000000000D+00  0.0000000000000D+00  0.0000000000000D+00
287  2.8600000000000D+00  0.0000000000000D+00  0.0000000000000D+00
288  2.8700000000000D+00  0.0000000000000D+00  0.0000000000000D+00
289  2.8800000000000D+00  0.0000000000000D+00  0.0000000000000D+00
290  2.8900000000000D+00  0.0000000000000D+00  0.0000000000000D+00
291  2.9000000000000D+00  0.0000000000000D+00  0.0000000000000D+00
292  2.9100000000000D+00  0.0000000000000D+00  0.0000000000000D+00
293  2.9200000000000D+00  0.0000000000000D+00  0.0000000000000D+00
294  2.9300000000000D+00  0.0000000000000D+00  0.0000000000000D+00
295  2.9400000000000D+00  0.0000000000000D+00  0.0000000000000D+00
296  2.9500000000000D+00  0.0000000000000D+00  0.0000000000000D+00
297  2.9600000000000D+00  0.0000000000000D+00  0.0000000000000D+00
298  2.9700000000000D+00  0.0000000000000D+00  0.0000000000000D+00
299  2.9800000000000D+00  0.0000000000000D+00  0.0000000000000D+00
300  2.9900000000000D+00  0.0000000000000D+00  0.0000000000000D+00
301  3.0000000000000D+00  0.0000000000000D+00  0.0000000000000D+00
302  3.0100000000000D+00  0.0000000000000D+00  0.0000000000000D+00
303  3.0200000000000D+00  0.0000000000000D+00  0.0000000000000D+00
304  3.0300000000000D+00  0.0000000000000D+00  0.0000000000000D+00
305  3.0400000000000D+00  0.0000000000000D+00  0.0000000000000D+00
306  3.0500000000000D+00  0.0000000000000D+00  0.0000000000000D+00
307  3.0600000000000D+00  0.0000000000000D+00  0.0000000000000D+00
308  3.0700000000000D+00  0.0000000000000D+00  0.0000000000000D+00
309  3.0800000000000D+00  0.0000000000000D+00  0.0000000000000D+00
310  3.0900000000000D+00  0.0000000000000D+00  0.0000000000000D+00
311  3.1000000000000D+00  0.0000000000000D+00  0.0000000000000D+00
312  3.1100000000000D+00  0.0000000000000D+00  0.0000000000000D+00
313  3.1200000000000D+00  0.0000000000000D+00  0.0000000000000D+00
314  3.1300000000000D+00  0.0000000000000D+00  0.0000000000000D+00
315  3.1400000000000D+00  0.0000000000000D+00  0.0000000000000D+00
316  3.1500000000000D+00  0.0000000000000D+00  0.0000000000000D+00
317  3.1600000000000D+00  0.0000000000000D+00  0.0000000000000D+00
318  3.1700000000000D+00  0.0000000000000D+00  0.0000000000000D+00
319  3.1800000000000D+00  0.0000000000000D+00  0.0000000000000D+00
320  3.1900000000000D+00  0.0000000000000D+00  0.0000000000000D+00
321  3.2000000000000D+00  0.0000000000000D+00  0.0000000000000D+00
322  3.2100000000000D+00  0.0000000000000D+00  0.0000000000000D+00
323  3.2200000000000D+00  0.0000000000000D+00  0.0000000000000D+00
324  3.2300000000000D+00  0.0000000000000D+00  0.0000000000000D+00
325  3.2400000000000D+00  0.0000000000000D+00  0.0000000000000D+00
326  3.2500000000000D+00  0.0000000000000D+00  0.0000000000000D+00
327  3.2600000000000D+00  0.0000000000000D+00  0.0000000000000D+00
328  3.2700000000000D+00  0.0000000000000D+00  0.0000000000000D+00
329  3.2800000000000D+00  0.0000000000000D+00  0.0000000000000D+00
330  3.2900000000000D+00  0.0000000000000D+00  0.0000000000000D+00
331  3.3000000000000D+00  0.0000000000000D+00  0.0000000000000D+00
332  3.3100000000000D+00  0.0000000000000D+00  0.0000000000000D+00
333  3.3200000000000D+00  0.0000000000000D+00  0.0000000000000D+00
334  3.3300000000000D+00  0.0000000000000D+00  0.0000000000000D+00
335  3.3400000000000D+00  0.0000000000000D+00  0.0000000000000D+00
336  3.3500000000000D+00  0.0000000000000D+00  0.0000000000000D+00
337  3.3600000000000D+00  0.0000000000000D+00  0.0000000000000D+00
338  3.3700000000000D+00  0.0000000000000D+00  0.0000000000000D+00
339  3.3800000000000D+00  0.0000000000000D+00  0.0000000000000D+00
340  3.3900000000000D+00  0.0000000000000D+00  0.0000000000000D+00
341  3.4000000000000D+00  0.0000000000000D+00  0.0000000000000D+00
342  3.4100000000000D+00  0.0000000000000D+00  0.0000000000000D+00
343  3.4200000000000D+00  0.0000000000000D+00  0.0000000000000D+00
344  3.4300000000000D+00  0.0000000000000D+00  0.0000000000000D+00
345  3.4400000000000D+00  0.0000000000000D+00  0.0000000000000D+00
346  3.4500000000000D+00  0.0000000000000D+00  0.0000000000000D+00
347  3.4600000000000D+00  0.0000000000000D+00  0.0000000000000D+00
348  3.4700000000000D+00  0.0000000000000D+00  0.0000000000000D+00
349  3.4800000000000D+00  0.0000000000000D+00  0.0000000000000D+00
350  3.4900000000000D+00  0.0000000000000D+00  0.0000000000000D+00
351  3.5000000000000D+00  0.0000000000000D+00  0.0000000000000D+00
352  3.5100000000000D+00  0.0000000000000D+00  0.0000000000000D+00
353  3.5200000000000D+00  0.0000000000000D+00  0.0000000000000D+00
354  3.5300000000000D+00  0.0000000000000D+00  0.0000000000000D+00
355  3.5400000000000D+00  0.0000000000000D+00  0.0000000000000D+00
356  3.5500000000000D+00  0.0000000000000D+00  0.0000000000000D+00
357  3.5600000000000D+00  0.0000000000000D+00  0.0000000000000D+00
358  3.5700000000000D+00  0.0000000000000D+00  0.0000000000000D+00
359  3.5800000000000D+00  0.0000000000000D+00  0.0000000000000D+00
360  3.5900000000000D+00  0.0000000000000D+00  0.0000000000000D+00
361  3.6000000000000D+00  0.0000000000000D+00  0.0000000000000D+00
362  3.6100000000000D+00  0.0000000000000D+00  0.0000000000000D+00
363  3.6200000000000D+00  0.0000000000000D+00  0.0000000000000D+00
364  3.6300000000000D+00  0.0000000000000D+00  0.0000000000000D+00
365  3.6400000000000D+00  0.0000000000000D+00  0.0000000000000D+00
366  3.6500000000000D+00  0.0000000000000D+00  0.0000000000000D+00
367  3.6600000000000D+00  0.0000000000000D+00  0.0000000000000D+00
368  3.6700000000000D+00  0.0000000000000D+00  0.0000000000000D+00
369  3.6800000000000D+00  0.0000000000000D+00  0.0000000000000D+00
370  3.6900000000000D+00  0.0000000000000D+00  0.0000000000000D+00
371  3.7000000000000D+00  0.0000000000000D+00  0.0000000000000D+00
372  3.7100000000000D+00  0.0000000000000D+00  0.0000000000000D+00
373  3.7200000000000D+00  0.0000000000000D+00  0.0000000000000D+00
374  3.7300000000000D+00  0.0000000000000D+00  0.0000000000000D+00
375  3.7400000000000D+00  0.0000000000000D+00  0.0000000000000D+00
376  3.7500000000000D+00  0.0000000000000D+00  0.0000000000000D+00
377  3.7600000000000D+00  0.0000000000000D+00  0.0000000000000D+00
378  3.7700000000000D+00  0.0000000000000D+00  0.0000000000000D+00
379  3.7800000000000D+00  0.0000000000000D+00  0.0000000000000D+00
380  3.7900000000000D+00  0.0000000000000D+00  0.0000000000000D+00
381  3.8000000000000D+00  0.0000000000000D+00  0.0000000000000D+00
382  3.8100000000000D+00  0.0000000000000D+00  0.0000000000000D+00
383  3.8200000000000D+00  0.0000000000000D+00  0.0000000000000D+00
384  3.8300000000000D+00  0.0000000000000D+00  0.0000000000000D+00
385  3.8400000000000D+00  0.0000000000000D+00  0.0000000000000D+00
386  3.8500000000000D+00  0.0000000000000D+00  0.0000000000000D+00
387  3.8600000000000D+00  0.0000000000000D+00  0.0000000000000D+00
388  3.8700000000000D+00  0.0000000000000D+00  0.0000000000000D+00
389  3.8800000000000D+00  0.0000000000000D+00  0.0000000000000D+00
390  3.8900000000000D+00  0.0000000000000D+00  0.0000000000000D+00
391  3.9000000000000D+00  0.0000000000000D+00  0.0000000000000D+00
392  3.9100000000000D+00  0.0000000000000D+00  0.0000000000000D+00
393  3.9200000000000D+00  0.0000000000000D+00  0.0000000000000D+00
394  3.9300000000000D+00  0.0000000000000D+00  0.0000000000000D+00
395  3.9400000000000D+00  0.0000000000000D+00  0.0000000000000D+00
396  3.9500000000000D+00  0.0000000000000D+00  0.0000000000000D+00
397  3.9600000000000D+00  0.0000000000000D+00  0.0000000000000D+00
398  3.9700000000000D+00  0.0000000000000D+00  0.0000000000000D+00
399  3.9800000000000D+00  0.0000000000000D+00  0.0000000000000D+00
400  3.9900000000000D+00  0.0000000000000D+00  0.0000000000000D+00
401  4.0000000000000D+00  0.0000000000000D+00  0.0000000000000D+00
402  4.0100000000000D+00  0.0000000000000D+00  0.0000000000000D+00
403  4.0200000000000D+00  0.0000000000000D+00  0.0000000000000D+00
404  4.0300000000000D+00  0.0000000000000D+00  0.0000000000000D+00
405  4.0400000000000D+00  0.0000000000000D+00  0.0000000000000D+00
406  4.0500000000000D+00  0.0000000000000D+00  0.0000000000000D+00
407  4.0600000000000D+00  0.0000000000000D+00  0.0000000000000D+00
408  4.0700000000000D+00  0.0000000000000D+00  0.0000000000000D+00
409  4.0800000000000D+00  0.0000000000000D+00  0.0000000000000D+00
410  4.0900000000000D+00  0.0000000000000D+00  0.0000000000000D+00
411  4.1000000000000D+00  0.0000000000000D+00  0.0000000000000D+00
412  4.1100000000000D+00  0.0000000000000D+00  0.0000000000000D+00
413  4.1200000000000D+00  0.0000000000000D+00  0.0000000000000D+00
414  4.1300000000000D+00  0.0000000000000D+00  0.0000000000000D+00
415  4.1400000000000D+00  0.0000000000000D+00  0.0000000000000D+00
416  4.1500000000000D+00  0.0000000000000D+00  0.0000000000000D+00
417  4.1600000000000D+00  0.0000000000000D+00  0.0000000000000D+00
418  4.1700000000000D+00  0.0000000000000D+00  0.0000000000000D+00
419  4.1800000000000D+00  0.0000000000000D+00  0.0000000000000D+00
420  4.1900000000000D+00  0.0000000000000D+00  0.0000000000000D+00
421  4.2000000000000D+00  0.0000000000000D+00  0.0000000000000D+00
422  4.2100000000000D+00  0.0000000000000D+00  0.0000000000000D+00
423  4.2200000000000D+00  0.0000000000000D+00  0.0000000000000D+00
424  4.2300000000000D+00  0.0000000000000D+00  0.0000000000000D+00
425  4.2400000000000D+00  0.0000000000000D+00  0.0000000000000D+00
426  4.2500000000000D+00  0.0000000000000D+00  0.0000000000000D+00
427  4.2600000000000D+00  0.0000000000000D+00  0.0000000000000D+00
428  4.2700000000000D+00  0.0000000000000D+00  0.0000000000000D+00
429  4.2800000000000D+00  0.0000000000000D+00  0.0000000000000D+00
430  4.2900000000000D+00  0.0000000000000D+00  0.0000000000000D+00
431  4.3000000000000D+00  0.0000000000000D+00  0.0000000000000D+00
432  4.3100000000000D+00  0.0000000000000D+00  0.0000000000000D+00
433  4.3200000000000D+00  0.0000000000000D+00  0.0000000000000D+00
434  4.3300000000000D+00  0.0000000000000D+00  0.0000000000000D+00
435  4.3400000000000D+00  0.0000000000000D+00  0.0000000000000D+00
436  4.3500000000000D+00  0.0000000000000D+00  0.0000000000000D+00
437  4.3600000000000D+00  0.0000000000000D+00  0.0000000000000D+00
438  4.3700000000000D+00  0.0000000000000D+00  0.0000000000000D+00
439  4.3800000000000D+00  0.0000000000000D+00  0.0000000000000D+00
440  4.3900000000000D+00  0.0000000000000D+00  0.0000000000000D+00
441  4.4000000000000D+00  0.0000000000000D+00  0.0000000000000D+00
442  4.4100000000000D+00  0.0000000000000D+00  0.0000000000000D+00
443  4.4200000000000D+00  0.0000000000000D+00  0.0000000000000D+00
444  4.4300000000000D+00  0.0000000000000D+00  0.0000000000000D+00