Hf    ONCVPSP  r_core=  1.56  1.56  1.45
72.0000     12.0000      140826    zatom,zion,pspd
8    11     2     4   601     0    pspcod,pspxc,lmax,lloc,mmax,r2well
6.00000000  0.85000000  0.00000000    rchrg fchrg qchrg
2     2     2     0     0    nproj
0                 extension_switch
0                         1.3128952660254D+01  1.4142626595174D+00
1  0.0000000000000D+00 -0.0000000000000D+00  0.0000000000000D+00
2  1.0000000000000D-02 -5.0426339294970D-02  6.3423536898429D-03
3  2.0000000000000D-02 -1.0083077863348D-01  1.2755489612844D-02
4  3.0000000000000D-02 -1.5119101627360D-01  1.9309015523594D-02
5  4.0000000000000D-02 -2.0148395104785D-01  2.6070201107712D-02
6  5.0000000000000D-02 -2.5168529298170D-01  3.3102836083907D-02
7  6.0000000000000D-02 -3.0176918621914D-01  4.0466120633088D-02
8  7.0000000000000D-02 -3.5170784820994D-01  4.8213598544455D-02
9  8.0000000000000D-02 -4.0147122898184D-01  5.6392143123114D-02
10  9.0000000000000D-02 -4.5102669417439D-01  6.5041005524254D-02
11  1.0000000000000D-01 -5.0033873530632D-01  7.4190934636035D-02
12  1.1000000000000D-01 -5.4936871055913D-01  8.3863377146883D-02
13  1.2000000000000D-01 -5.9807461909994D-01  9.4069765745793D-02
14  1.3000000000000D-01 -6.4641091172989D-01  1.0481090280046D-01
15  1.4000000000000D-01 -6.9432834026175D-01  1.1607644579656D-01
16  1.5000000000000D-01 -7.4177384794954D-01  1.2784450075350D-01
17  1.6000000000000D-01 -7.8869050260262D-01  1.4008132777739D-01
18  1.7000000000000D-01 -8.3501747411533D-01  1.5274116351294D-01
19  1.8000000000000D-01 -8.8069005732986D-01  1.6576616268992D-01
20  1.9000000000000D-01 -9.2563974118177D-01  1.7908646158480D-01
21  2.0000000000000D-01 -9.6979432444375D-01  1.9262036380622D-01
22  2.1000000000000D-01 -1.0130780780358D+00  2.0627464899587D-01
23  2.2000000000000D-01 -1.0554119535883D+00  2.1994500296693D-01
24  2.3000000000000D-01 -1.0967138375419D+00  2.3351656780641D-01
25  2.4000000000000D-01 -1.1368988496657D+00  2.4686460893496D-01
26  2.5000000000000D-01 -1.1758796834395D+00  2.5985529290389D-01
27  2.6000000000000D-01 -1.2135669895132D+00  2.7234657756178D-01
28  2.7000000000000D-01 -1.2498697948053D+00  2.8418919772941D-01
29  2.8000000000000D-01 -1.2846959596046D+00  2.9522775004036D-01
30  2.9000000000000D-01 -1.3179526674113D+00  3.0530186445970D-01
31  3.0000000000000D-01 -1.3495469439632D+00  3.1424745311765D-01
32  3.1000000000000D-01 -1.3793862034102D+00  3.2189803066599D-01
33  3.2000000000000D-01 -1.4073788164836D+00  3.2808609308854D-01
34  3.3000000000000D-01 -1.4334346936634D+00  3.3264453724427D-01
35  3.4000000000000D-01 -1.4574658892740D+00  3.3540813423645D-01
36  3.5000000000000D-01 -1.4793872102014D+00  3.3621501692588D-01
37  3.6000000000000D-01 -1.4991168308585D+00  3.3490818414953D-01
38  3.7000000000000D-01 -1.5165769009116D+00  3.3133698829897D-01
39  3.8000000000000D-01 -1.5316941732795D+00  3.2535867172130D-01
40  3.9000000000000D-01 -1.5444005878004D+00  3.1683979501166D-01
41  4.0000000000000D-01 -1.5546338637718D+00  3.0565768469762D-01
42  4.1000000000000D-01 -1.5623380679515D+00  2.9170181880940D-01
43  4.2000000000000D-01 -1.5674641583007D+00  2.7487515010704D-01
44  4.3000000000000D-01 -1.5699704990377D+00  2.5509535544085D-01
45  4.4000000000000D-01 -1.5698233427101D+00  2.3229600011859D-01
46  4.5000000000000D-01 -1.5669972750819D+00  2.0642760642689D-01
47  4.6000000000000D-01 -1.5614756186691D+00  1.7745861561912D-01
48  4.7000000000000D-01 -1.5532507907806D+00  1.4537623281547D-01
49  4.8000000000000D-01 -1.5423246119940D+00  1.1018714454568D-01
50  4.9000000000000D-01 -1.5287085553445D+00  7.1918085388642D-02
51  5.0000000000000D-01 -1.5124239488053D+00  3.0616283925483D-02
52  5.1000000000000D-01 -1.4935021566251D+00 -1.3650153045234D-02
53  5.2000000000000D-01 -1.4719846064316D+00 -6.0792233069412D-02
54  5.3000000000000D-01 -1.4479228289371D+00 -1.1070004921428D-01
55  5.4000000000000D-01 -1.4213784701775D+00 -1.6324283320250D-01
56  5.5000000000000D-01 -1.3924230879264D+00 -2.1826951789939D-01
57  5.6000000000000D-01 -1.3611380986510D+00 -2.7560897247247D-01
58  5.7000000000000D-01 -1.3276144418957D+00 -3.3507088955535D-01
59  5.8000000000000D-01 -1.2919523714798D+00 -3.9644641336808D-01
60  5.9000000000000D-01 -1.2542610310288D+00 -4.5950924190249D-01
61  6.0000000000000D-01 -1.2146580888407D+00 -5.2401665531109D-01
62  6.1000000000000D-01 -1.1732692351184D+00 -5.8971079600366D-01
63  6.2000000000000D-01 -1.1302276522071D+00 -6.5632010158803D-01
64  6.3000000000000D-01 -1.0856734281606D+00 -7.2356080954458D-01
65  6.4000000000000D-01 -1.0397529795758D+00 -7.9113843799067D-01
66  6.5000000000000D-01 -9.9261824905791D-01 -8.5874988536914D-01
67  6.6000000000000D-01 -9.4442608406839D-01 -9.2608497672474D-01
68  6.7000000000000D-01 -8.9533750590037D-01 -9.9282832040463D-01
69  6.8000000000000D-01 -8.4551681891969D-01 -1.0586615672184D+00
70  6.9000000000000D-01 -7.9513080790370D-01 -1.1232654071897D+00
71  7.0000000000000D-01 -7.4434796488845D-01 -1.1863214761319D+00
72  7.1000000000000D-01 -6.9333761476925D-01 -1.2475145125530D+00
73  7.2000000000000D-01 -6.4226912559763D-01 -1.3065342774513D+00
74  7.3000000000000D-01 -5.9131075908054D-01 -1.3630783693593D+00
75  7.4000000000000D-01 -5.4062908217955D-01 -1.4168535843732D+00
76  7.5000000000000D-01 -4.9038802182486D-01 -1.4675781702534D+00
77  7.6000000000000D-01 -4.4074801728968D-01 -1.5149838067028D+00
78  7.7000000000000D-01 -3.9186519208548D-01 -1.5588175123736D+00
79  7.8000000000000D-01 -3.4389055132240D-01 -1.5988434628805D+00
80  7.9000000000000D-01 -2.9696921027185D-01 -1.6348447047681D+00
81  8.0000000000000D-01 -2.5123968306993D-01 -1.6666246955063D+00
82  8.1000000000000D-01 -2.0683315546829D-01 -1.6940088510841D+00
83  8.2000000000000D-01 -1.6387278813895D-01 -1.7168459826191D+00
84  8.3000000000000D-01 -1.2247322948400D-01 -1.7350092056049D+00
85  8.4000000000000D-01 -8.2740030051287D-02 -1.7483970496550D+00
86  8.5000000000000D-01 -4.4769161700311D-02 -1.7569342845498D+00
87  8.6000000000000D-01 -8.6465992988547D-03 -1.7605725640366D+00
88  8.7000000000000D-01  2.5552032167742D-02 -1.7592908810656D+00
89  8.8000000000000D-01  5.7761742687324D-02 -1.7530958296288D+00
90  8.9000000000000D-01  8.7928310696751D-02 -1.7420215028884D+00
91  9.0000000000000D-01  1.1600864231336D-01 -1.7261298111110D+00
92  9.1000000000000D-01  1.4197068318154D-01 -1.7055098031789D+00
93  9.2000000000000D-01  1.6579343797412D-01 -1.6802771808574D+00
94  9.3000000000000D-01  1.8746691420252D-01 -1.6505736058434D+00
95  9.4000000000000D-01  2.0699198080754D-01 -1.6165657870087D+00
96  9.5000000000000D-01  2.2438015715025D-01 -1.5784443840716D+00
97  9.6000000000000D-01  2.3965333459782D-01 -1.5364227363470D+00
98  9.7000000000000D-01  2.5284343364385D-01 -1.4907354273449D+00
99  9.8000000000000D-01  2.6399200027168D-01 -1.4416366981307D+00
100  9.9000000000000D-01  2.7314963542181D-01 -1.3893987228267D+00
101  1.0000000000000D+00  2.8037585871514D-01 -1.3343099816692D+00
102  1.0100000000000D+00  2.8573818893483D-01 -1.2766728783161D+00
103  1.0200000000000D+00  2.8931157612559D-01 -1.2168017784047D+00
104  1.0300000000000D+00  2.9117778785529D-01 -1.1550208817193D+00
105  1.0400000000000D+00  2.9142473087819D-01 -1.0916620229657D+00
106  1.0500000000000D+00  2.9014586243035D-01 -1.0270633431605D+00
107  1.0600000000000D+00  2.8743926333454D-01 -9.6156463783561D-01
108  1.0700000000000D+00  2.8340689058083D-01 -8.9550669588104D-01
109  1.0800000000000D+00  2.7815386205131D-01 -8.2922873766058D-01
110  1.0900000000000D+00  2.7178780919640D-01 -7.6306662206767D-01
111  1.1000000000000D+00  2.6441828549475D-01 -6.9735112819517D-01
112  1.1100000000000D+00  2.5615499668187D-01 -6.3240148525639D-01
113  1.1200000000000D+00  2.4710799905320D-01 -5.6852774674570D-01
114  1.1300000000000D+00  2.3738687052513D-01 -5.0602802303643D-01
115  1.1400000000000D+00  2.2710059724914D-01 -4.4518859595830D-01
116  1.1500000000000D+00  2.1635449752957D-01 -3.8627326189426D-01
117  1.1600000000000D+00  2.0525187585928D-01 -3.2953055312102D-01
118  1.1700000000000D+00  1.9389342269324D-01 -2.7519182800777D-01
119  1.1800000000000D+00  1.8237579207769D-01 -2.2346674298758D-01
120  1.1900000000000D+00  1.7078983566323D-01 -1.7453821552738D-01
121  1.2000000000000D+00  1.5922241349287D-01 -1.2856914270684D-01
122  1.2100000000000D+00  1.4775697218731D-01 -8.5704284586066D-02
123  1.2200000000000D+00  1.3646763033615D-01 -4.6052059097891D-02
124  1.2300000000000D+00  1.2542401356895D-01 -9.7007660701337D-03
125  1.2400000000000D+00  1.1469134046750D-01  2.3281296753691D-02
126  1.2500000000000D+00  1.0432543658041D-01  5.2860299102653D-02
127  1.2600000000000D+00  9.4375869528703D-02  7.9026476276185D-02
128  1.2700000000000D+00  8.4887848157472D-02  1.0178872369896D-01
129  1.2800000000000D+00  7.5896863739013D-02  1.2118921643946D-01
130  1.2900000000000D+00  6.7431785594289D-02  1.3729355796739D-01
131  1.3000000000000D+00  5.9517482902765D-02  1.5018401365830D-01
132  1.3100000000000D+00  5.2168418762225D-02  1.5997538425221D-01
133  1.3200000000000D+00  4.5393563911583D-02  1.6680111329702D-01
134  1.3300000000000D+00  3.9198232591927D-02  1.7080967326965D-01
135  1.3400000000000D+00  3.3576641776980D-02  1.7218004189293D-01
136  1.3500000000000D+00  2.8520282858192D-02  1.7110212976328D-01
137  1.3600000000000D+00  2.4014746551509D-02  1.6778415740825D-01
138  1.3700000000000D+00  2.0037914448732D-02  1.6245334343347D-01
139  1.3800000000000D+00  1.6565447099609D-02  1.5534674675366D-01
140  1.3900000000000D+00  1.3565604808993D-02  1.4671828772137D-01
141  1.4000000000000D+00  1.1003136865543D-02  1.3683038915682D-01
142  1.4100000000000D+00  8.8386578256052D-03  1.2595948369721D-01
143  1.4200000000000D+00  7.0306655920898D-03  1.1437449835494D-01
144  1.4300000000000D+00  5.5366336784290D-03  1.0235054446231D-01
145  1.4400000000000D+00  4.3159997949293D-03  9.0141373997313D-02
146  1.4500000000000D+00  3.3297834548259D-03  7.7990944927633D-02
147  1.4600000000000D+00  2.5395491635062D-03  6.6136655806349D-02
148  1.4700000000000D+00  1.9132827137127D-03  5.4779380506256D-02
149  1.4800000000000D+00  1.4166611194327D-03  4.4131802447972D-02
150  1.4900000000000D+00  1.0257468983982D-03  3.4351446780913D-02
151  1.5000000000000D+00  7.1520834914949D-04  2.5603773688013D-02
152  1.5100000000000D+00  4.6788752386516D-04  1.8012879028038D-02
153  1.5200000000000D+00  2.7031681679804D-04  1.1685702832680D-02
154  1.5300000000000D+00  1.1305058395560D-04  6.7095670219511D-03
155  1.5400000000000D+00 -4.3140163080302D-06  3.1294069066465D-03
156  1.5500000000000D+00 -8.1223083246033D-05  1.1496945557777D-03
157  1.5600000000000D+00 -1.0872201120602D-04  2.7735666765306D-04
158  1.5700000000000D+00 -5.6232298076895D-05 -2.4981565041761D-05
159  1.5800000000000D+00  2.3950968295017D-06 -6.1789900341031D-06
160  1.5900000000000D+00  6.3945052327908D-06 -1.6496862932533D-05
161  1.6000000000000D+00  0.0000000000000D+00  0.0000000000000D+00
162  1.6100000000000D+00  0.0000000000000D+00  0.0000000000000D+00
163  1.6200000000000D+00  0.0000000000000D+00  0.0000000000000D+00
164  1.6300000000000D+00  0.0000000000000D+00  0.0000000000000D+00
165  1.6400000000000D+00  0.0000000000000D+00  0.0000000000000D+00
166  1.6500000000000D+00  0.0000000000000D+00  0.0000000000000D+00
167  1.6600000000000D+00  0.0000000000000D+00  0.0000000000000D+00
168  1.6700000000000D+00  0.0000000000000D+00  0.0000000000000D+00
169  1.6800000000000D+00  0.0000000000000D+00  0.0000000000000D+00
170  1.6900000000000D+00  0.0000000000000D+00  0.0000000000000D+00
171  1.7000000000000D+00  0.0000000000000D+00  0.0000000000000D+00
172  1.7100000000000D+00  0.0000000000000D+00  0.0000000000000D+00
173  1.7200000000000D+00  0.0000000000000D+00  0.0000000000000D+00
174  1.7300000000000D+00  0.0000000000000D+00  0.0000000000000D+00
175  1.7400000000000D+00  0.0000000000000D+00  0.0000000000000D+00
176  1.7500000000000D+00  0.0000000000000D+00  0.0000000000000D+00
177  1.7600000000000D+00  0.0000000000000D+00  0.0000000000000D+00
178  1.7700000000000D+00  0.0000000000000D+00  0.0000000000000D+00
179  1.7800000000000D+00  0.0000000000000D+00  0.0000000000000D+00
180  1.7900000000000D+00  0.0000000000000D+00  0.0000000000000D+00
181  1.8000000000000D+00  0.0000000000000D+00  0.0000000000000D+00
182  1.8100000000000D+00  0.0000000000000D+00  0.0000000000000D+00
183  1.8200000000000D+00  0.0000000000000D+00  0.0000000000000D+00
184  1.8300000000000D+00  0.0000000000000D+00  0.0000000000000D+00
185  1.8400000000000D+00  0.0000000000000D+00  0.0000000000000D+00
186  1.8500000000000D+00  0.0000000000000D+00  0.0000000000000D+00
187  1.8600000000000D+00  0.0000000000000D+00  0.0000000000000D+00
188  1.8700000000000D+00  0.0000000000000D+00  0.0000000000000D+00
189  1.8800000000000D+00  0.0000000000000D+00  0.0000000000000D+00
190  1.8900000000000D+00  0.0000000000000D+00  0.0000000000000D+00
191  1.9000000000000D+00  0.0000000000000D+00  0.0000000000000D+00
192  1.9100000000000D+00  0.0000000000000D+00  0.0000000000000D+00
193  1.9200000000000D+00  0.0000000000000D+00  0.0000000000000D+00
194  1.9300000000000D+00  0.0000000000000D+00  0.0000000000000D+00
195  1.9400000000000D+00  0.0000000000000D+00  0.0000000000000D+00
196  1.9500000000000D+00  0.0000000000000D+00  0.0000000000000D+00
197  1.9600000000000D+00  0.0000000000000D+00  0.0000000000000D+00
198  1.9700000000000D+00  0.0000000000000D+00  0.0000000000000D+00
199  1.9800000000000D+00  0.0000000000000D+00  0.0000000000000D+00
200  1.9900000000000D+00  0.0000000000000D+00  0.0000000000000D+00
201  2.0000000000000D+00  0.0000000000000D+00  0.0000000000000D+00
202  2.0100000000000D+00  0.0000000000000D+00  0.0000000000000D+00
203  2.0200000000000D+00  0.0000000000000D+00  0.0000000000000D+00
204  2.0300000000000D+00  0.0000000000000D+00  0.0000000000000D+00
205  2.0400000000000D+00  0.0000000000000D+00  0.0000000000000D+00
206  2.0500000000000D+00  0.0000000000000D+00  0.0000000000000D+00
207  2.0600000000000D+00  0.0000000000000D+00  0.0000000000000D+00
208  2.0700000000000D+00  0.0000000000000D+00  0.0000000000000D+00
209  2.0800000000000D+00  0.0000000000000D+00  0.0000000000000D+00
210  2.0900000000000D+00  0.0000000000000D+00  0.0000000000000D+00
211  2.1000000000000D+00  0.0000000000000D+00  0.0000000000000D+00
212  2.1100000000000D+00  0.0000000000000D+00  0.0000000000000D+00
213  2.1200000000000D+00  0.0000000000000D+00  0.0000000000000D+00
214  2.1300000000000D+00  0.0000000000000D+00  0.0000000000000D+00
215  2.1400000000000D+00  0.0000000000000D+00  0.0000000000000D+00
216  2.1500000000000D+00  0.0000000000000D+00  0.0000000000000D+00
217  2.1600000000000D+00  0.0000000000000D+00  0.0000000000000D+00
218  2.1700000000000D+00  0.0000000000000D+00  0.0000000000000D+00
219  2.1800000000000D+00  0.0000000000000D+00  0.0000000000000D+00
220  2.1900000000000D+00  0.0000000000000D+00  0.0000000000000D+00
221  2.2000000000000D+00  0.0000000000000D+00  0.0000000000000D+00
222  2.2100000000000D+00  0.0000000000000D+00  0.0000000000000D+00
223  2.2200000000000D+00  0.0000000000000D+00  0.0000000000000D+00
224  2.2300000000000D+00  0.0000000000000D+00  0.0000000000000D+00
225  2.2400000000000D+00  0.0000000000000D+00  0.0000000000000D+00
226  2.2500000000000D+00  0.0000000000000D+00  0.0000000000000D+00
227  2.2600000000000D+00  0.0000000000000D+00  0.0000000000000D+00
228  2.2700000000000D+00  0.0000000000000D+00  0.0000000000000D+00
229  2.2800000000000D+00  0.0000000000000D+00  0.0000000000000D+00
230  2.2900000000000D+00  0.0000000000000D+00  0.0000000000000D+00
231  2.3000000000000D+00  0.0000000000000D+00  0.0000000000000D+00
232  2.3100000000000D+00  0.0000000000000D+00  0.0000000000000D+00
233  2.3200000000000D+00  0.0000000000000D+00  0.0000000000000D+00
234  2.3300000000000D+00  0.0000000000000D+00  0.0000000000000D+00
235  2.3400000000000D+00  0.0000000000000D+00  0.0000000000000D+00
236  2.3500000000000D+00  0.0000000000000D+00  0.0000000000000D+00
237  2.3600000000000D+00  0.0000000000000D+00  0.0000000000000D+00
238  2.3700000000000D+00  0.0000000000000D+00  0.0000000000000D+00
239  2.3800000000000D+00  0.0000000000000D+00  0.0000000000000D+00
240  2.3900000000000D+00  0.0000000000000D+00  0.0000000000000D+00
241  2.4000000000000D+00  0.0000000000000D+00  0.0000000000000D+00
242  2.4100000000000D+00  0.0000000000000D+00  0.0000000000000D+00
243  2.4200000000000D+00  0.0000000000000D+00  0.0000000000000D+00
244  2.4300000000000D+00  0.0000000000000D+00  0.0000000000000D+00
245  2.4400000000000D+00  0.0000000000000D+00  0.0000000000000D+00
246  2.4500000000000D+00  0.0000000000000D+00  0.0000000000000D+00
247  2.4600000000000D+00  0.0000000000000D+00  0.0000000000000D+00
248  2.4700000000000D+00  0.0000000000000D+00  0.0000000000000D+00
249  2.4800000000000D+00  0.0000000000000D+00  0.0000000000000D+00
250  2.4900000000000D+00  0.0000000000000D+00  0.0000000000000D+00
251  2.5000000000000D+00  0.0000000000000D+00  0.0000000000000D+00
252  2.5100000000000D+00  0.0000000000000D+00  0.0000000000000D+00
253  2.5200000000000D+00  0.0000000000000D+00  0.0000000000000D+00
254  2.5300000000000D+00  0.0000000000000D+00  0.0000000000000D+00
255  2.5400000000000D+00  0.0000000000000D+00  0.0000000000000D+00
256  2.5500000000000D+00  0.0000000000000D+00  0.0000000000000D+00
257  2.5600000000000D+00  0.0000000000000D+00  0.0000000000000D+00
258  2.5700000000000D+00  0.0000000000000D+00  0.0000000000000D+00
259  2.5800000000000D+00  0.0000000000000D+00  0.0000000000000D+00
260  2.5900000000000D+00  0.0000000000000D+00  0.0000000000000D+00
261  2.6000000000000D+00  0.0000000000000D+00  0.0000000000000D+00
262  2.6100000000000D+00  0.0000000000000D+00  0.0000000000000D+00
263  2.6200000000000D+00  0.0000000000000D+00  0.0000000000000D+00
264  2.6300000000000D+00  0.0000000000000D+00  0.0000000000000D+00
265  2.6400000000000D+00  0.0000000000000D+00  0.0000000000000D+00
266  2.6500000000000D+00  0.0000000000000D+00  0.0000000000000D+00
267  2.6600000000000D+00  0.0000000000000D+00  0.0000000000000D+00
268  2.6700000000000D+00  0.0000000000000D+00  0.0000000000000D+00
269  2.6800000000000D+00  0.0000000000000D+00  0.0000000000000D+00
270  2.6900000000000D+00  0.0000000000000D+00  0.0000000000000D+00
271  2.7000000000000D+00  0.0000000000000D+00  0.0000000000000D+00
272  2.7100000000000D+00  0.0000000000000D+00  0.0000000000000D+00
273  2.7200000000000D+00  0.0000000000000D+00  0.0000000000000D+00
274  2.7300000000000D+00  0.0000000000000D+00  0.0000000000000D+00
275  2.7400000000000D+00  0.0000000000000D+00  0.0000000000000D+00
276  2.7500000000000D+00  0.0000000000000D+00  0.0000000000000D+00
277  2.7600000000000D+00  0.0000000000000D+00  0.0000000000000D+00
278  2.7700000000000D+00  0.0000000000000D+00  0.0000000000000D+00
279  2.7800000000000D+00  0.0000000000000D+00  0.0000000000000D+00
280  2.7900000000000D+00  0.0000000000000D+00  0.0000000000000D+00
281  2.8000000000000D+00  0.0000000000000D+00  0.0000000000000D+00
282  2.8100000000000D+00  0.0000000000000D+00  0.0000000000000D+00
283  2.8200000000000D+00  0.0000000000000D+00  0.0000000000000D+00
284  2.8300000000000D+00  0.0000000000000D+00  0.0000000000000D+00
285  2.8400000000000D+00  0.0000000000000D+00  0.0000000000000D+00
286  2.8500000000000D+00  0.0000000000000D+00  0.0000000000000D+00
287  2.8600000000000D+00  0.0000000000000D+00  0.0000000000000D+00
288  2.8700000000000D+00  0.0000000000000D+00  0.0000000000000D+00
289  2.8800000000000D+00  0.0000000000000D+00  0.0000000000000D+00
290  2.8900000000000D+00  0.0000000000000D+00  0.0000000000000D+00
291  2.9000000000000D+00  0.0000000000000D+00  0.0000000000000D+00
292  2.9100000000000D+00  0.0000000000000D+00  0.0000000000000D+00
293  2.9200000000000D+00  0.0000000000000D+00  0.0000000000000D+00
294  2.9300000000000D+00  0.0000000000000D+00  0.0000000000000D+00
295  2.9400000000000D+00  0.0000000000000D+00  0.0000000000000D+00
296  2.9500000000000D+00  0.0000000000000D+00  0.0000000000000D+00
297  2.9600000000000D+00  0.0000000000000D+00  0.0000000000000D+00
298  2.9700000000000D+00  0.0000000000000D+00  0.0000000000000D+00
299  2.9800000000000D+00  0.0000000000000D+00  0.0000000000000D+00
300  2.9900000000000D+00  0.0000000000000D+00  0.0000000000000D+00
301  3.0000000000000D+00  0.0000000000000D+00  0.0000000000000D+00
302  3.0100000000000D+00  0.0000000000000D+00  0.0000000000000D+00
303  3.0200000000000D+00  0.0000000000000D+00  0.0000000000000D+00
304  3.0300000000000D+00  0.0000000000000D+00  0.0000000000000D+00
305  3.0400000000000D+00  0.0000000000000D+00  0.0000000000000D+00
306  3.0500000000000D+00  0.0000000000000D+00  0.0000000000000D+00
307  3.0600000000000D+00  0.0000000000000D+00  0.0000000000000D+00
308  3.0700000000000D+00  0.0000000000000D+00  0.0000000000000D+00
309  3.0800000000000D+00  0.0000000000000D+00  0.0000000000000D+00
310  3.0900000000000D+00  0.0000000000000D+00  0.0000000000000D+00
311  3.1000000000000D+00  0.0000000000000D+00  0.0000000000000D+00
312  3.1100000000000D+00  0.0000000000000D+00  0.0000000000000D+00
313  3.1200000000000D+00  0.0000000000000D+00  0.0000000000000D+00
314  3.1300000000000D+00  0.0000000000000D+00  0.0000000000000D+00
315  3.1400000000000D+00  0.0000000000000D+00  0.0000000000000D+00
316  3.1500000000000D+00  0.0000000000000D+00  0.0000000000000D+00
317  3.1600000000000D+00  0.0000000000000D+00  0.0000000000000D+00
318  3.1700000000000D+00  0.0000000000000D+00  0.0000000000000D+00
319  3.1800000000000D+00  0.0000000000000D+00  0.0000000000000D+00
320  3.1900000000000D+00  0.0000000000000D+00  0.0000000000000D+00
321  3.2000000000000D+00  0.0000000000000D+00  0.0000000000000D+00
322  3.2100000000000D+00  0.0000000000000D+00  0.0000000000000D+00
323  3.2200000000000D+00  0.0000000000000D+00  0.0000000000000D+00
324  3.2300000000000D+00  0.0000000000000D+00  0.0000000000000D+00
325  3.2400000000000D+00  0.0000000000000D+00  0.0000000000000D+00
326  3.2500000000000D+00  0.0000000000000D+00  0.0000000000000D+00
327  3.2600000000000D+00  0.0000000000000D+00  0.0000000000000D+00
328  3.2700000000000D+00  0.0000000000000D+00  0.0000000000000D+00
329  3.2800000000000D+00  0.0000000000000D+00  0.0000000000000D+00
330  3.2900000000000D+00  0.0000000000000D+00  0.0000000000000D+00
331  3.3000000000000D+00  0.0000000000000D+00  0.0000000000000D+00
332  3.3100000000000D+00  0.0000000000000D+00  0.0000000000000D+00
333  3.3200000000000D+00  0.0000000000000D+00  0.0000000000000D+00
334  3.3300000000000D+00  0.0000000000000D+00  0.0000000000000D+00
335  3.3400000000000D+00  0.0000000000000D+00  0.0000000000000D+00
336  3.3500000000000D+00  0.0000000000000D+00  0.0000000000000D+00
337  3.3600000000000D+00  0.0000000000000D+00  0.0000000000000D+00
338  3.3700000000000D+00  0.0000000000000D+00  0.0000000000000D+00
339  3.3800000000000D+00  0.0000000000000D+00  0.0000000000000D+00
340  3.3900000000000D+00  0.0000000000000D+00  0.0000000000000D+00
341  3.4000000000000D+00  0.0000000000000D+00  0.0000000000000D+00
342  3.4100000000000D+00  0.0000000000000D+00  0.0000000000000D+00
343  3.4200000000000D+00  0.0000000000000D+00  0.0000000000000D+00
344  3.4300000000000D+00  0.0000000000000D+00  0.0000000000000D+00
345  3.4400000000000D+00  0.0000000000000D+00  0.0000000000000D+00
346  3.4500000000000D+00  0.0000000000000D+00  0.0000000000000D+00
347  3.4600000000000D+00  0.0000000000000D+00  0.0000000000000D+00
348  3.4700000000000D+00  0.0000000000000D+00  0.0000000000000D+00
349  3.4800000000000D+00  0.0000000000000D+00  0.0000000000000D+00
350  3.4900000000000D+00  0.0000000000000D+00  0.0000000000000D+00
351  3.5000000000000D+00  0.0000000000000D+00  0.0000000000000D+00
352  3.5100000000000D+00  0.0000000000000D+00  0.0000000000000D+00
353  3.5200000000000D+00  0.0000000000000D+00  0.0000000000000D+00
354  3.5300000000000D+00  0.0000000000000D+00  0.0000000000000D+00
355  3.5400000000000D+00  0.0000000000000D+00  0.0000000000000D+00
356  3.5500000000000D+00  0.0000000000000D+00  0.0000000000000D+00
357  3.5600000000000D+00  0.0000000000000D+00  0.0000000000000D+00
358  3.5700000000000D+00  0.0000000000000D+00  0.0000000000000D+00
359  3.5800000000000D+00  0.0000000000000D+00  0.0000000000000D+00
360  3.5900000000000D+00  0.0000000000000D+00  0.0000000000000D+00
361  3.6000000000000D+00  0.0000000000000D+00  0.0000000000000D+00
362  3.6100000000000D+00  0.0000000000000D+00  0.0000000000000D+00
363  3.6200000000000D+00  0.0000000000000D+00  0.0000000000000D+00
364  3.6300000000000D+00  0.0000000000000D+00  0.0000000000000D+00
365  3.6400000000000D+00  0.0000000000000D+00  0.0000000000000D+00
366  3.6500000000000D+00  0.0000000000000D+00  0.0000000000000D+00
367  3.6600000000000D+00  0.0000000000000D+00  0.0000000000000D+00
368  3.6700000000000D+00  0.0000000000000D+00  0.0000000000000D+00
369  3.6800000000000D+00  0.0000000000000D+00  0.0000000000000D+00
370  3.6900000000000D+00  0.0000000000000D+00  0.0000000000000D+00
371  3.7000000000000D+00  0.0000000000000D+00  0.0000000000000D+00
372  3.7100000000000D+00  0.0000000000000D+00  0.0000000000000D+00
373  3.7200000000000D+00  0.0000000000000D+00  0.0000000000000D+00
374  3.7300000000000D+00  0.0000000000000D+00  0.0000000000000D+00
375  3.7400000000000D+00  0.0000000000000D+00  0.0000000000000D+00
376  3.7500000000000D+00  0.0000000000000D+00  0.0000000000000D+00
377  3.7600000000000D+00  0.0000000000000D+00  0.0000000000000D+00
378  3.7700000000000D+00  0.0000000000000D+00  0.0000000000000D+00
379  3.7800000000000D+00  0.0000000000000D+00  0.0000000000000D+00
380  3.7900000000000D+00  0.0000000000000D+00  0.0000000000000D+00
381  3.8000000000000D+00  0.0000000000000D+00  0.0000000000000D+00
382  3.8100000000000D+00  0.0000000000000D+00  0.0000000000000D+00
383  3.8200000000000D+00  0.0000000000000D+00  0.0000000000000D+00
384  3.8300000000000D+00  0.0000000000000D+00  0.0000000000000D+00
385  3.8400000000000D+00  0.0000000000000D+00  0.0000000000000D+00
386  3.8500000000000D+00  0.0000000000000D+00  0.0000000000000D+00
387  3.8600000000000D+00  0.0000000000000D+00  0.0000000000000D+00
388  3.8700000000000D+00  0.0000000000000D+00  0.0000000000000D+00
389  3.8800000000000D+00  0.0000000000000D+00  0.0000000000000D+00
390  3.8900000000000D+00  0.0000000000000D+00  0.0000000000000D+00
391  3.9000000000000D+00  0.0000000000000D+00  0.0000000000000D+00
392  3.9100000000000D+00  0.0000000000000D+00  0.0000000000000D+00
393  3.9200000000000D+00  0.0000000000000D+00  0.0000000000000D+00
394  3.9300000000000D+00  0.0000000000000D+00  0.0000000000000D+00
395  3.9400000000000D+00  0.0000000000000D+00  0.0000000000000D+00
396  3.9500000000000D+00  0.0000000000000D+00  0.0000000000000D+00
397  3.9600000000000D+00  0.0000000000000D+00  0.0000000000000D+00
398  3.9700000000000D+00  0.0000000000000D+00  0.0000000000000D+00
399  3.9800000000000D+00  0.0000000000000D+00  0.0000000000000D+00
400  3.9900000000000D+00  0.0000000000000D+00  0.0000000000000D+00
401  4.0000000000000D+00  0.0000000000000D+00  0.0000000000000D+00
402  4.0100000000000D+00  0.0000000000000D+00  0.0000000000000D+00
403  4.0200000000000D+00  0.0000000000000D+00  0.0000000000000D+00
404  4.0300000000000D+00  0.0000000000000D+00  0.0000000000000D+00
405  4.0400000000000D+00  0.0000000000000D+00  0.0000000000000D+00
406  4.0500000000000D+00  0.0000000000000D+00  0.0000000000000D+00
407  4.0600000000000D+00  0.0000000000000D+00  0.0000000000000D+00
408  4.0700000000000D+00  0.0000000000000D+00  0.0000000000000D+00
409  4.0800000000000D+00  0.0000000000000D+00  0.0000000000000D+00
410  4.0900000000000D+00  0.0000000000000D+00  0.0000000000000D+00
411  4.1000000000000D+00  0.0000000000000D+00  0.0000000000000D+00
412  4.1100000000000D+00  0.0000000000000D+00  0.0000000000000D+00
413  4.1200000000000D+00  0.0000000000000D+00  0.0000000000000D+00
414  4.1300000000000D+00  0.0000000000000D+00  0.0000000000000D+00
415  4.1400000000000D+00  0.0000000000000D+00  0.0000000000000D+00
416  4.1500000000000D+00  0.0000000000000D+00  0.0000000000000D+00
417  4.1600000000000D+00  0.0000000000000D+00  0.0000000000000D+00
418  4.1700000000000D+00  0.0000000000000D+00  0.0000000000000D+00
419  4.1800000000000D+00  0.0000000000000D+00  0.0000000000000D+00
420  4.1900000000000D+00  0.0000000000000D+00  0.0000000000000D+00
421  4.2000000000000D+00  0.0000000000000D+00  0.0000000000000D+00
422  4.2100000000000D+00  0.0000000000000D+00  0.0000000000000D+00
423  4.2200000000000D+00  0.0000000000000D+00  0.0000000000000D+00
424  4.2300000000000D+00  0.0000000000000D+00  0.0000000000000D+00
425  4.2400000000000D+00  0.0000000000000D+00  0.0000000000000D+00
426  4.2500000000000D+00  0.0000000000000D+00  0.0000000000000D+00
427  4.2600000000000D+00  0.0000000000000D+00  0.0000000000000D+00
428  4.2700000000000D+00  0.0000000000000D+00  0.0000000000000D+00
429  4.2800000000000D+00  0.0000000000000D+00  0.0000000000000D+00
430  4.2900000000000D+00  0.0000000000000D+00  0.0000000000000D+00
431  4.3000000000000D+00  0.0000000000000D+00  0.0000000000000D+00
432  4.3100000000000D+00  0.0000000000000D+00  0.0000000000000D+00
433  4.3200000000000D+00  0.0000000000000D+00  0.0000000000000D+00
434  4.3300000000000D+00  0.0000000000000D+00  0.0000000000000D+00
435  4.3400000000000D+00  0.0000000000000D+00  0.0000000000000D+00
436  4.3500000000000D+00  0.0000000000000D+00  0.0000000000000D+00
437  4.3600000000000D+00  0.0000000000000D+00  0.0000000000000D+00
438  4.3700000000000D+00  0.0000000000000D+00  0.0000000000000D+00
439  4.3800000000000D+00  0.0000000000000D+00  0.0000000000000D+00
440  4.3900000000000D+00  0.0000000000000D+00  0.0000000000000D+00
441  4.4000000000000D+00  0.0000000000000D+00  0.0000000000000D+00
442  4.4100000000000D+00  0.0000000000000D+00  0.0000000000000D+00
443  4.4200000000000D+00  0.0000000000000D+00  0.0000000000000D+00
444  4.4300000000000D+00  0.0000000000000D+00  0.0000000000000D+00