Cd    ONCVPSP  r_core=  1.91  2.10  1.72
48.0000     12.0000      160330    zatom,zion,pspd
8      11   2     4   600     0    pspcod,pspxc,lmax,lloc,mmax,r2well
5.99000000  5.00000000  0.00000000    rchrg fchrg qchrg
2     4     2     0    nproj
3                 extension_switch
4     4     0    nprojso
0                         1.8320527724188D+00  1.0678725278999D+01
1  0.0000000000000D+00  6.8189093260784D-11 -5.8523796919729D-11
2  1.0000000000000D-02 -2.9176476110828D-02  4.4208082773789D-02
3  2.0000000000000D-02 -5.8196902686215D-02  8.8274096903975D-02
4  3.0000000000000D-02 -8.6906023067208D-02  1.3205667978649D-01
5  4.0000000000000D-02 -1.1515016244338D-01  1.7541587746751D-01
6  5.0000000000000D-02 -1.4277800903319D-01  2.1821384041145D-01
7  6.0000000000000D-02 -1.6964138361978D-01  2.6031550904147D-01
8  7.0000000000000D-02 -1.9559599364060D-01  3.0158928571226D-01
9  8.0000000000000D-02 -2.2050216809764D-01  3.4190768983289D-01
10  9.0000000000000D-02 -2.4422556963973D-01  3.8114799293095D-01
11  1.0000000000000D-01 -2.6663788026969D-01  4.1919283053549D-01
12  1.1000000000000D-01 -2.8761745724630D-01  4.5593078785751D-01
13  1.2000000000000D-01 -3.0704995588369D-01  4.9125695636038D-01
14  1.3000000000000D-01 -3.2482891609906D-01  5.2507345844032D-01
15  1.4000000000000D-01 -3.4085630972184D-01  5.5728993757635D-01
16  1.5000000000000D-01 -3.5504304575447D-01  5.8782401146177D-01
17  1.6000000000000D-01 -3.6730943096470D-01  6.1660168579247D-01
18  1.7000000000000D-01 -3.7758558339259D-01  6.4355772656264D-01
19  1.8000000000000D-01 -3.8581179656999D-01  6.6863598890351D-01
20  1.9000000000000D-01 -3.9193885247682D-01  6.9178970069627D-01
21  2.0000000000000D-01 -3.9592828149458D-01  7.1298169939439D-01
22  2.1000000000000D-01 -3.9775256786448D-01  7.3218462070398D-01
23  2.2000000000000D-01 -3.9739529941088D-01  7.4938103799012D-01
24  2.3000000000000D-01 -3.9485126055486D-01  7.6456355150611D-01
25  2.4000000000000D-01 -3.9012646790995D-01  7.7773482677393D-01
26  2.5000000000000D-01 -3.8323814802704D-01  7.8890758168351D-01
27  2.6000000000000D-01 -3.7421465713436D-01  7.9810452212068D-01
28  2.7000000000000D-01 -3.6309534300002D-01  8.0535822617860D-01
29  2.8000000000000D-01 -3.4993034932794D-01  8.1071097725497D-01
30  2.9000000000000D-01 -3.3478036338352D-01  8.1421454658637D-01
31  3.0000000000000D-01 -3.1771630782878D-01  8.1592992601886D-01
32  3.1000000000000D-01 -2.9881897802895D-01  8.1592701206140D-01
33  3.2000000000000D-01 -2.7817862637225D-01  8.1428424251434D-01
34  3.3000000000000D-01 -2.5589449541857D-01  8.1108818720580D-01
35  3.4000000000000D-01 -2.3207430196261D-01  8.0643309460690D-01
36  3.5000000000000D-01 -2.0683367435800D-01  8.0042039632741D-01
37  3.6000000000000D-01 -1.8029554570376D-01  7.9315817171902D-01
38  3.7000000000000D-01 -1.5258950573682D-01  7.8476057502851D-01
39  3.8000000000000D-01 -1.2385111450856D-01  7.7534722775248D-01
40  3.9000000000000D-01 -9.4221181142768D-02  7.6504257904108D-01
41  4.0000000000000D-01 -6.3845011179549D-02  7.5397523718427D-01
42  4.1000000000000D-01 -3.2871626202656D-02  7.4227727538886D-01
43  4.2000000000000D-01 -1.4529596228259D-03  7.3008351521285D-01
44  4.3000000000000D-01  3.0256967350862D-02  7.1753079117019D-01
45  4.4000000000000D-01  6.2102885377963D-02  7.0475720014906D-01
46  4.5000000000000D-01  9.3929127998034D-02  6.9190133939980D-01
47  4.6000000000000D-01  1.2558048958884D-01  6.7910153694686D-01
48  4.7000000000000D-01  1.5690308579553D-01  6.6649507835492D-01
49  4.8000000000000D-01  1.8774521189326D-01  6.5421743384289D-01
50  4.9000000000000D-01  2.1795819451190D-01  6.4240148977648D-01
51  5.0000000000000D-01  2.4739723213562D-01  6.3117678859341D-01
52  5.1000000000000D-01  2.7592221980135D-01  6.2066878121456D-01
53  5.2000000000000D-01  3.0339855345381D-01  6.1099809597389D-01
54  5.3000000000000D-01  3.2969790947096D-01  6.0227982806054D-01
55  5.4000000000000D-01  3.5469899495886D-01  5.9462285340054D-01
56  5.5000000000000D-01  3.7828826451705D-01  5.8812917082685D-01
57  5.6000000000000D-01  4.0036059930920D-01  5.8289327627779D-01
58  5.7000000000000D-01  4.2081994442606D-01  5.7900157264006D-01
59  5.8000000000000D-01  4.3957990070498D-01  5.7653181870704D-01
60  5.9000000000000D-01  4.5656426737123D-01  5.7555262055520D-01
61  6.0000000000000D-01  4.7170753208941D-01  5.7612296845508D-01
62  6.1000000000000D-01  4.8495530525391D-01  5.7829182223108D-01
63  6.2000000000000D-01  4.9626469561698D-01  5.8209774775533D-01
64  6.3000000000000D-01  5.0560462463104D-01  5.8756860702571D-01
65  6.4000000000000D-01  5.1295607718713D-01  5.9472130401658D-01
66  6.5000000000000D-01  5.1831228675052D-01  6.0356158821861D-01
67  6.6000000000000D-01  5.2167885322461D-01  6.1408391749982D-01
68  6.7000000000000D-01  5.2307379222687D-01  6.2627138161651D-01
69  6.8000000000000D-01  5.2252751481860D-01  6.4009568739339D-01
70  6.9000000000000D-01  5.2008273709875D-01  6.5551720627262D-01
71  7.0000000000000D-01  5.1579431945456D-01  6.7248508459980D-01
72  7.1000000000000D-01  5.0972903564446D-01  6.9093741668028D-01
73  7.2000000000000D-01  5.0196527227945D-01  7.1080148029935D-01
74  7.3000000000000D-01  4.9259265966153D-01  7.3199403405445D-01
75  7.4000000000000D-01  4.8171163532901D-01  7.5442167550522D-01
76  7.5000000000000D-01  4.6943294205016D-01  7.7798125880113D-01
77  7.6000000000000D-01  4.5587706239216D-01  8.0256037010631D-01
78  7.7000000000000D-01  4.4117359237121D-01  8.2803785880502D-01
79  7.8000000000000D-01  4.2546055706132D-01  8.5428442214070D-01
80  7.9000000000000D-01  4.0888367139829D-01  8.8116324062081D-01
81  8.0000000000000D-01  3.9159554976209D-01  9.0853066120912D-01
82  8.1000000000000D-01  3.7375486825126D-01  9.3623692502948D-01
83  8.2000000000000D-01  3.5552548387675D-01  9.6412693602099D-01
84  8.3000000000000D-01  3.3707551519547D-01  9.9204106671800D-01
85  8.4000000000000D-01  3.1857638917621D-01  1.0198159970791D+00
86  8.5000000000000D-01  3.0020185933843D-01  1.0472855820589D+00
87  8.6000000000000D-01  2.8212700042720D-01  1.0742817434114D+00
88  8.7000000000000D-01  2.6452718508276D-01  1.1006353810242D+00
89  8.8000000000000D-01  2.4757704813098D-01  1.1261772989273D+00
90  8.9000000000000D-01  2.3144944425731D-01  1.1507391409815D+00
91  9.0000000000000D-01  2.1631440493169D-01  1.1741543311442D+00
92  9.1000000000000D-01  2.0233810052699D-01  1.1962590131305D+00
93  9.2000000000000D-01  1.8968181361065D-01  1.2168929842362D+00
94  9.3000000000000D-01  1.7850092939794D-01  1.2359006180634D+00
95  9.4000000000000D-01  1.6894394932411D-01  1.2531317709021D+00
96  9.5000000000000D-01  1.6115153363021D-01  1.2684426665547D+00
97  9.6000000000000D-01  1.5525557875924D-01  1.2816967544587D+00
98  9.7000000000000D-01  1.5137833522440D-01  1.2927655360643D+00
99  9.8000000000000D-01  1.4963157144403D-01  1.3015293545491D+00
100  9.9000000000000D-01  1.5011578883710D-01  1.3078781431120D+00
101  1.0000000000000D+00  1.5291949323131D-01  1.3117121272783D+00
102  1.0100000000000D+00  1.5811852737925D-01  1.3129424768590D+00
103  1.0200000000000D+00  1.6577546906870D-01  1.3114919034577D+00
104  1.0300000000000D+00  1.7593909898781D-01  1.3072951996855D+00
105  1.0400000000000D+00  1.8864394214977D-01  1.3002997165424D+00
106  1.0500000000000D+00  2.0390988630009D-01  1.2904657757380D+00
107  1.0600000000000D+00  2.2174188030054D-01  1.2777670140874D+00
108  1.0700000000000D+00  2.4212971510183D-01  1.2621906574352D+00
109  1.0800000000000D+00  2.6504788940892D-01  1.2437377219947D+00
110  1.0900000000000D+00  2.9045556171095D-01  1.2224231413505D+00
111  1.1000000000000D+00  3.1829658985181D-01  1.1982758177995D+00
112  1.1100000000000D+00  3.4849965880399D-01  1.1713385971400D+00
113  1.1200000000000D+00  3.8097849687287D-01  1.1416681663923D+00
114  1.1300000000000D+00  4.1563217994268D-01  1.1093348744651D+00
115  1.1400000000000D+00  4.5234552294229D-01  1.0744224761512D+00
116  1.1500000000000D+00  4.9098955711530D-01  1.0370278003540D+00
117  1.1600000000000D+00  5.3142209131046D-01  9.9726034376038D-01
118  1.1700000000000D+00  5.7348835481048D-01  9.5524179178593D-01
119  1.1800000000000D+00  6.1702171883496D-01  9.1110546895026D-01
120  1.1900000000000D+00  6.6184449334483D-01  8.6499572128572D-01
121  1.2000000000000D+00  7.0776879534388D-01  8.1706723376108D-01
122  1.2100000000000D+00  7.5459748431439D-01  7.6748428619409D-01
123  1.2200000000000D+00  8.0212516002120D-01  7.1641995148555D-01
124  1.2300000000000D+00  8.5013921768380D-01  6.6405524021378D-01
125  1.2400000000000D+00  8.9842095485118D-01  6.1057819622249D-01
126  1.2500000000000D+00  9.4674672410829D-01  5.5618294802460D-01
127  1.2600000000000D+00  9.9488912550920D-01  5.0106872105344D-01
128  1.2700000000000D+00  1.0426182321644D+00  4.4543881621897D-01
129  1.2800000000000D+00  1.0897028422169D+00  3.8949956041171D-01
130  1.2900000000000D+00  1.1359117503433D+00  3.3345923468788D-01
131  1.3000000000000D+00  1.1810150315656D+00  2.7752698619756D-01
132  1.3100000000000D+00  1.2247853301149D+00  2.2191172998323D-01
133  1.3200000000000D+00  1.2669991460388D+00  1.6682104681548D-01
134  1.3300000000000D+00  1.3074381120530D+00  1.1246008343635D-01
135  1.3400000000000D+00  1.3458902533324D+00  5.9030461441688D-02
136  1.3500000000000D+00  1.3821512227404D+00  6.7292011834828D-03
137  1.3600000000000D+00  1.4160255042665D+00 -4.4252333086277D-02
138  1.3700000000000D+00  1.4473275775746D+00 -9.3729460732662D-02
139  1.3800000000000D+00  1.4758830363993D+00 -1.4152517866625D-01
140  1.3900000000000D+00  1.5015296543814D+00 -1.8747111609540D-01
141  1.4000000000000D+00  1.5241183914633D+00 -2.3140844415554D-01
142  1.4100000000000D+00  1.5435143346715D+00 -2.7318873500562D-01
143  1.4200000000000D+00  1.5595975677637D+00 -3.1267476552545D-01
144  1.4300000000000D+00  1.5722639633502D+00 -3.4974126002911D-01
145  1.4400000000000D+00  1.5814258934289D+00 -3.8427556830793D-01
146  1.4500000000000D+00  1.5870128527042D+00 -4.1617827403879D-01
147  1.4600000000000D+00  1.5889719908949D+00 -4.4536373008747D-01
148  1.4700000000000D+00  1.5872685506292D+00 -4.7176051757533D-01
149  1.4800000000000D+00  1.5818862065192D+00 -4.9531182473058D-01
150  1.4900000000000D+00  1.5728273047277D+00 -5.1597574464500D-01
151  1.5000000000000D+00  1.5601129984857D+00 -5.3372548784364D-01
152  1.5100000000000D+00  1.5437832803941D+00 -5.4854951005603D-01
153  1.5200000000000D+00  1.5238969088103D+00 -5.6045155263662D-01
154  1.5300000000000D+00  1.5005312288324D+00 -5.6945059575546D-01
155  1.5400000000000D+00  1.4737818883135D+00 -5.7558072443691D-01
156  1.5500000000000D+00  1.4437624485341D+00 -5.7889090682163D-01
157  1.5600000000000D+00  1.4106038932868D+00 -5.7944468753679D-01
158  1.5700000000000D+00  1.3744540351600D+00 -5.7731979483168D-01
159  1.5800000000000D+00  1.3354768257419D+00 -5.7260766689007D-01
160  1.5900000000000D+00  1.2938515683906D+00 -5.6541289584388D-01
161  1.6000000000000D+00  1.2497720419267D+00 -5.5585259630630D-01
162  1.6100000000000D+00  1.2034455353299D+00 -5.4405569816167D-01
163  1.6200000000000D+00  1.1550918018945D+00 -5.3016217052962D-01
164  1.6300000000000D+00  1.1049419350535D+00 -5.1432217845468D-01
165  1.6400000000000D+00  1.0532371741519D+00 -4.9669517910140D-01
166  1.6500000000000D+00  1.0002276442468D+00 -4.7744896061231D-01
167  1.6600000000000D+00  9.4617103705495D-01 -4.5675863015843D-01
168  1.6700000000000D+00  8.9133124469191D-01 -4.3480555672077D-01
169  1.6800000000000D+00  8.3597693449816D-01 -4.1177627150285D-01
170  1.6900000000000D+00  7.8038012201605D-01 -3.8786134185078D-01
171  1.7000000000000D+00  7.2481470294539D-01 -3.6325421416124D-01
172  1.7100000000000D+00  6.6955481326033D-01 -3.3815000846830D-01
173  1.7200000000000D+00  6.1487342738709D-01 -3.1274434701244D-01
174  1.7300000000000D+00  5.6104123990610D-01 -2.8723222210885D-01
175  1.7400000000000D+00  5.0832545526711D-01 -2.6180686028663D-01
176  1.7500000000000D+00  4.5698870006282D-01 -2.3665863318370D-01
177  1.7600000000000D+00  4.0728786039580D-01 -2.1197396216485D-01
178  1.7700000000000D+00  3.5947255954382D-01 -1.8793417905333D-01
179  1.7800000000000D+00  3.1378377369818D-01 -1.6471443322336D-01
180  1.7900000000000D+00  2.7045258493113D-01 -1.4248264182708D-01
181  1.8000000000000D+00  2.2969889133937D-01 -1.2139846345217D-01
182  1.8100000000000D+00  1.9173020921896D-01 -1.0161232197706D-01
183  1.8200000000000D+00  1.5674051938383D-01 -8.3264473135364D-02
184  1.8300000000000D+00  1.2490918563206D-01 -6.6484128163293D-02
185  1.8400000000000D+00  9.6399939120444D-02 -5.1388630711080D-02
186  1.8500000000000D+00  7.1376901124282D-02 -3.8091666022465D-02
187  1.8600000000000D+00  4.9935635806887D-02 -2.6666563960068D-02
188  1.8700000000000D+00  3.2116216857791D-02 -1.7152916935434D-02
189  1.8800000000000D+00  1.8131004861973D-02 -9.6770794885738D-03
190  1.8900000000000D+00  8.3102415871572D-03 -4.4231594276342D-03
191  1.9000000000000D+00  2.5662240703601D-03 -1.3490553392333D-03
192  1.9100000000000D+00 -1.7231344664954D-05  3.0516631216028D-05
193  1.9200000000000D+00 -5.5406386141428D-04  3.0887875902440D-04
194  1.9300000000000D+00 -1.6849701565398D-04  9.2764778353869D-05
195  1.9400000000000D+00  1.4520313416060D-04 -7.9719102790637D-05
196  1.9500000000000D+00  1.1751678699403D-04 -6.4362589108640D-05
197  1.9600000000000D+00 -1.5475582126599D-05  8.5437512087258D-06
198  1.9700000000000D+00 -2.9161486563732D-05  1.6071695779614D-05
199  1.9800000000000D+00 -1.0199232693635D-07  5.6141167659320D-08
200  1.9900000000000D+00  2.0390327361676D-07 -1.6801594584205D-07
201  2.0000000000000D+00  9.3623916298228D-08 -7.7145945581282D-08
202  2.0100000000000D+00  0.0000000000000D+00  0.0000000000000D+00
203  2.0200000000000D+00  0.0000000000000D+00  0.0000000000000D+00
204  2.0300000000000D+00  0.0000000000000D+00  0.0000000000000D+00
205  2.0400000000000D+00  0.0000000000000D+00  0.0000000000000D+00
206  2.0500000000000D+00  0.0000000000000D+00  0.0000000000000D+00
207  2.0600000000000D+00  0.0000000000000D+00  0.0000000000000D+00
208  2.0700000000000D+00  0.0000000000000D+00  0.0000000000000D+00
209  2.0800000000000D+00  0.0000000000000D+00  0.0000000000000D+00
210  2.0900000000000D+00  0.0000000000000D+00  0.0000000000000D+00
211  2.1000000000000D+00  0.0000000000000D+00  0.0000000000000D+00
212  2.1100000000000D+00  0.0000000000000D+00  0.0000000000000D+00
213  2.1200000000000D+00  0.0000000000000D+00  0.0000000000000D+00
214  2.1300000000000D+00  0.0000000000000D+00  0.0000000000000D+00
215  2.1400000000000D+00  0.0000000000000D+00  0.0000000000000D+00
216  2.1500000000000D+00  0.0000000000000D+00  0.0000000000000D+00
217  2.1600000000000D+00  0.0000000000000D+00  0.0000000000000D+00
218  2.1700000000000D+00  0.0000000000000D+00  0.0000000000000D+00
219  2.1800000000000D+00  0.0000000000000D+00  0.0000000000000D+00
220  2.1900000000000D+00  0.0000000000000D+00  0.0000000000000D+00
221  2.2000000000000D+00  0.0000000000000D+00  0.0000000000000D+00
222  2.2100000000000D+00  0.0000000000000D+00  0.0000000000000D+00
223  2.2200000000000D+00  0.0000000000000D+00  0.0000000000000D+00
224  2.2300000000000D+00  0.0000000000000D+00  0.0000000000000D+00
225  2.2400000000000D+00  0.0000000000000D+00  0.0000000000000D+00
226  2.2500000000000D+00  0.0000000000000D+00  0.0000000000000D+00
227  2.2600000000000D+00  0.0000000000000D+00  0.0000000000000D+00
228  2.2700000000000D+00  0.0000000000000D+00  0.0000000000000D+00
229  2.2800000000000D+00  0.0000000000000D+00  0.0000000000000D+00
230  2.2900000000000D+00  0.0000000000000D+00  0.0000000000000D+00
231  2.3000000000000D+00  0.0000000000000D+00  0.0000000000000D+00
232  2.3100000000000D+00  0.0000000000000D+00  0.0000000000000D+00
233  2.3200000000000D+00  0.0000000000000D+00  0.0000000000000D+00
234  2.3300000000000D+00  0.0000000000000D+00  0.0000000000000D+00
235  2.3400000000000D+00  0.0000000000000D+00  0.0000000000000D+00
236  2.3500000000000D+00  0.0000000000000D+00  0.0000000000000D+00
237  2.3600000000000D+00  0.0000000000000D+00  0.0000000000000D+00
238  2.3700000000000D+00  0.0000000000000D+00  0.0000000000000D+00
239  2.3800000000000D+00  0.0000000000000D+00  0.0000000000000D+00
240  2.3900000000000D+00  0.0000000000000D+00  0.0000000000000D+00
241  2.4000000000000D+00  0.0000000000000D+00  0.0000000000000D+00
242  2.4100000000000D+00  0.0000000000000D+00  0.0000000000000D+00
243  2.4200000000000D+00  0.0000000000000D+00  0.0000000000000D+00
244  2.4300000000000D+00  0.0000000000000D+00  0.0000000000000D+00
245  2.4400000000000D+00  0.0000000000000D+00  0.0000000000000D+00
246  2.4500000000000D+00  0.0000000000000D+00  0.0000000000000D+00
247  2.4600000000000D+00  0.0000000000000D+00  0.0000000000000D+00
248  2.4700000000000D+00  0.0000000000000D+00  0.0000000000000D+00
249  2.4800000000000D+00  0.0000000000000D+00  0.0000000000000D+00
250  2.4900000000000D+00  0.0000000000000D+00  0.0000000000000D+00
251  2.5000000000000D+00  0.0000000000000D+00  0.0000000000000D+00
252  2.5100000000000D+00  0.0000000000000D+00  0.0000000000000D+00
253  2.5200000000000D+00  0.0000000000000D+00  0.0000000000000D+00
254  2.5300000000000D+00  0.0000000000000D+00  0.0000000000000D+00
255  2.5400000000000D+00  0.0000000000000D+00  0.0000000000000D+00
256  2.5500000000000D+00  0.0000000000000D+00  0.0000000000000D+00
257  2.5600000000000D+00  0.0000000000000D+00  0.0000000000000D+00
258  2.5700000000000D+00  0.0000000000000D+00  0.0000000000000D+00
259  2.5800000000000D+00  0.0000000000000D+00  0.0000000000000D+00
260  2.5900000000000D+00  0.0000000000000D+00  0.0000000000000D+00
261  2.6000000000000D+00  0.0000000000000D+00  0.0000000000000D+00
262  2.6100000000000D+00  0.0000000000000D+00  0.0000000000000D+00
263  2.6200000000000D+00  0.0000000000000D+00  0.0000000000000D+00
264  2.6300000000000D+00  0.0000000000000D+00  0.0000000000000D+00
265  2.6400000000000D+00  0.0000000000000D+00  0.0000000000000D+00
266  2.6500000000000D+00  0.0000000000000D+00  0.0000000000000D+00
267  2.6600000000000D+00  0.0000000000000D+00  0.0000000000000D+00
268  2.6700000000000D+00  0.0000000000000D+00  0.0000000000000D+00
269  2.6800000000000D+00  0.0000000000000D+00  0.0000000000000D+00
270  2.6900000000000D+00  0.0000000000000D+00  0.0000000000000D+00
271  2.7000000000000D+00  0.0000000000000D+00  0.0000000000000D+00
272  2.7100000000000D+00  0.0000000000000D+00  0.0000000000000D+00
273  2.7200000000000D+00  0.0000000000000D+00  0.0000000000000D+00
274  2.7300000000000D+00  0.0000000000000D+00  0.0000000000000D+00
275  2.7400000000000D+00  0.0000000000000D+00  0.0000000000000D+00
276  2.7500000000000D+00  0.0000000000000D+00  0.0000000000000D+00
277  2.7600000000000D+00  0.0000000000000D+00  0.0000000000000D+00
278  2.7700000000000D+00  0.0000000000000D+00  0.0000000000000D+00
279  2.7800000000000D+00  0.0000000000000D+00  0.0000000000000D+00
280  2.7900000000000D+00  0.0000000000000D+00  0.0000000000000D+00
281  2.8000000000000D+00  0.0000000000000D+00  0.0000000000000D+00
282  2.8100000000000D+00  0.0000000000000D+00  0.0000000000000D+00
283  2.8200000000000D+00  0.0000000000000D+00  0.0000000000000D+00
284  2.8300000000000D+00  0.0000000000000D+00  0.0000000000000D+00
285  2.8400000000000D+00  0.0000000000000D+00  0.0000000000000D+00
286  2.8500000000000D+00  0.0000000000000D+00  0.0000000000000D+00
287  2.8600000000000D+00  0.0000000000000D+00  0.0000000000000D+00
288  2.8700000000000D+00  0.0000000000000D+00  0.0000000000000D+00
289  2.8800000000000D+00  0.0000000000000D+00  0.0000000000000D+00
290  2.8900000000000D+00  0.0000000000000D+00  0.0000000000000D+00
291  2.9000000000000D+00  0.0000000000000D+00  0.0000000000000D+00
292  2.9100000000000D+00  0.0000000000000D+00  0.0000000000000D+00
293  2.9200000000000D+00  0.0000000000000D+00  0.0000000000000D+00
294  2.9300000000000D+00  0.0000000000000D+00  0.0000000000000D+00
295  2.9400000000000D+00  0.0000000000000D+00  0.0000000000000D+00
296  2.9500000000000D+00  0.0000000000000D+00  0.0000000000000D+00
297  2.9600000000000D+00  0.0000000000000D+00  0.0000000000000D+00
298  2.9700000000000D+00  0.0000000000000D+00  0.0000000000000D+00
299  2.9800000000000D+00  0.0000000000000D+00  0.0000000000000D+00
300  2.9900000000000D+00  0.0000000000000D+00  0.0000000000000D+00
301  3.0000000000000D+00  0.0000000000000D+00  0.0000000000000D+00
302  3.0100000000000D+00  0.0000000000000D+00  0.0000000000000D+00
303  3.0200000000000D+00  0.0000000000000D+00  0.0000000000000D+00
304  3.0300000000000D+00  0.0000000000000D+00  0.0000000000000D+00
305  3.0400000000000D+00  0.0000000000000D+00  0.0000000000000D+00
306  3.0500000000000D+00  0.0000000000000D+00  0.0000000000000D+00
307  3.0600000000000D+00  0.0000000000000D+00  0.0000000000000D+00
308  3.0700000000000D+00  0.0000000000000D+00  0.0000000000000D+00
309  3.0800000000000D+00  0.0000000000000D+00  0.0000000000000D+00
310  3.0900000000000D+00  0.0000000000000D+00  0.0000000000000D+00
311  3.1000000000000D+00  0.0000000000000D+00  0.0000000000000D+00
312  3.1100000000000D+00  0.0000000000000D+00  0.0000000000000D+00
313  3.1200000000000D+00  0.0000000000000D+00  0.0000000000000D+00
314  3.1300000000000D+00  0.0000000000000D+00  0.0000000000000D+00
315  3.1400000000000D+00  0.0000000000000D+00  0.0000000000000D+00
316  3.1500000000000D+00  0.0000000000000D+00  0.0000000000000D+00
317  3.1600000000000D+00  0.0000000000000D+00  0.0000000000000D+00
318  3.1700000000000D+00  0.0000000000000D+00  0.0000000000000D+00
319  3.1800000000000D+00  0.0000000000000D+00  0.0000000000000D+00
320  3.1900000000000D+00  0.0000000000000D+00  0.0000000000000D+00
321  3.2000000000000D+00  0.0000000000000D+00  0.0000000000000D+00
322  3.2100000000000D+00  0.0000000000000D+00  0.0000000000000D+00
323  3.2200000000000D+00  0.0000000000000D+00  0.0000000000000D+00
324  3.2300000000000D+00  0.0000000000000D+00  0.0000000000000D+00
325  3.2400000000000D+00  0.0000000000000D+00  0.0000000000000D+00
326  3.2500000000000D+00  0.0000000000000D+00  0.0000000000000D+00
327  3.2600000000000D+00  0.0000000000000D+00  0.0000000000000D+00
328  3.2700000000000D+00  0.0000000000000D+00  0.0000000000000D+00
329  3.2800000000000D+00  0.0000000000000D+00  0.0000000000000D+00
330  3.2900000000000D+00  0.0000000000000D+00  0.0000000000000D+00
331  3.3000000000000D+00  0.0000000000000D+00  0.0000000000000D+00
332  3.3100000000000D+00  0.0000000000000D+00  0.0000000000000D+00
333  3.3200000000000D+00  0.0000000000000D+00  0.0000000000000D+00
334  3.3300000000000D+00  0.0000000000000D+00  0.0000000000000D+00
335  3.3400000000000D+00  0.0000000000000D+00  0.0000000000000D+00
336  3.3500000000000D+00  0.0000000000000D+00  0.0000000000000D+00
337  3.3600000000000D+00  0.0000000000000D+00  0.0000000000000D+00
338  3.3700000000000D+00  0.0000000000000D+00  0.0000000000000D+00
339  3.3800000000000D+00  0.0000000000000D+00  0.0000000000000D+00
340  3.3900000000000D+00  0.0000000000000D+00  0.0000000000000D+00
341  3.4000000000000D+00  0.0000000000000D+00  0.0000000000000D+00
342  3.4100000000000D+00  0.0000000000000D+00  0.0000000000000D+00
343  3.4200000000000D+00  0.0000000000000D+00  0.0000000000000D+00
344  3.4300000000000D+00  0.0000000000000D+00  0.0000000000000D+00
345  3.4400000000000D+00  0.0000000000000D+00  0.0000000000000D+00
346  3.4500000000000D+00  0.0000000000000D+00  0.0000000000000D+00
347  3.4600000000000D+00  0.0000000000000D+00  0.0000000000000D+00
348  3.4700000000000D+00  0.0000000000000D+00  0.0000000000000D+00
349  3.4800000000000D+00  0.0000000000000D+00  0.0000000000000D+00
350  3.4900000000000D+00  0.0000000000000D+00  0.0000000000000D+00
351  3.5000000000000D+00  0.0000000000000D+00  0.0000000000000D+00
352  3.5100000000000D+00  0.0000000000000D+00  0.0000000000000D+00
353  3.5200000000000D+00  0.0000000000000D+00  0.0000000000000D+00
354  3.5300000000000D+00  0.0000000000000D+00  0.0000000000000D+00
355  3.5400000000000D+00  0.0000000000000D+00  0.0000000000000D+00
356  3.5500000000000D+00  0.0000000000000D+00  0.0000000000000D+00
357  3.5600000000000D+00  0.0000000000000D+00  0.0000000000000D+00
358  3.5700000000000D+00  0.0000000000000D+00  0.0000000000000D+00
359  3.5800000000000D+00  0.0000000000000D+00  0.0000000000000D+00
360  3.5900000000000D+00  0.0000000000000D+00  0.0000000000000D+00
361  3.6000000000000D+00  0.0000000000000D+00  0.0000000000000D+00
362  3.6100000000000D+00  0.0000000000000D+00  0.0000000000000D+00
363  3.6200000000000D+00  0.0000000000000D+00  0.0000000000000D+00
364  3.6300000000000D+00  0.0000000000000D+00  0.0000000000000D+00
365  3.6400000000000D+00  0.0000000000000D+00  0.0000000000000D+00
366  3.6500000000000D+00  0.0000000000000D+00  0.0000000000000D+00
367  3.6600000000000D+00  0.0000000000000D+00  0.0000000000000D+00
368  3.6700000000000D+00  0.0000000000000D+00  0.0000000000000D+00
369  3.6800000000000D+00  0.0000000000000D+00  0.0000000000000D+00
370  3.6900000000000D+00  0.0000000000000D+00  0.0000000000000D+00
371  3.7000000000000D+00  0.0000000000000D+00  0.0000000000000D+00
372  3.7100000000000D+00  0.0000000000000D+00  0.0000000000000D+00
373  3.7200000000000D+00  0.0000000000000D+00  0.0000000000000D+00
374  3.7300000000000D+00  0.0000000000000D+00  0.0000000000000D+00
375  3.7400000000000D+00  0.0000000000000D+00  0.0000000000000D+00
376  3.7500000000000D+00  0.0000000000000D+00  0.0000000000000D+00
377  3.7600000000000D+00  0.0000000000000D+00  0.0000000000000D+00
378  3.7700000000000D+00  0.0000000000000D+00  0.0000000000000D+00
379  3.7800000000000D+00  0.0000000000000D+00  0.0000000000000D+00
380  3.7900000000000D+00  0.0000000000000D+00  0.0000000000000D+00
381  3.8000000000000D+00  0.0000000000000D+00  0.0000000000000D+00
382  3.8100000000000D+00  0.0000000000000D+00  0.0000000000000D+00
383  3.8200000000000D+00  0.0000000000000D+00  0.0000000000000D+00
384  3.8300000000000D+00  0.0000000000000D+00  0.0000000000000D+00
385  3.8400000000000D+00  0.0000000000000D+00  0.0000000000000D+00
386  3.8500000000000D+00  0.0000000000000D+00  0.0000000000000D+00
387  3.8600000000000D+00  0.0000000000000D+00  0.0000000000000D+00
388  3.8700000000000D+00  0.0000000000000D+00  0.0000000000000D+00
389  3.8800000000000D+00  0.0000000000000D+00  0.0000000000000D+00
390  3.8900000000000D+00  0.0000000000000D+00  0.0000000000000D+00
391  3.9000000000000D+00  0.0000000000000D+00  0.0000000000000D+00
392  3.9100000000000D+00  0.0000000000000D+00  0.0000000000000D+00
393  3.9200000000000D+00  0.0000000000000D+00  0.0000000000000D+00
394  3.9300000000000D+00  0.0000000000000D+00  0.0000000000000D+00
395  3.9400000000000D+00  0.0000000000000D+00  0.0000000000000D+00
396  3.9500000000000D+00  0.0000000000000D+00  0.0000000000000D+00
397  3.9600000000000D+00  0.0000000000000D+00  0.0000000000000D+00
398  3.9700000000000D+00  0.0000000000000D+00  0.0000000000000D+00
399  3.9800000000000D+00  0.0000000000000D+00  0.0000000000000D+00
400  3.9900000000000D+00  0.0000000000000D+00  0.0000000000000D+00
401  4.0000000000000D+00  0.0000000000000D+00  0.0000000000000D+00
402  4.0100000000000D+00  0.0000000000000D+00  0.0000000000000D+00
403  4.0200000000000D+00  0.0000000000000D+00  0.0000000000000D+00
404  4.0300000000000D+00  0.0000000000000D+00  0.0000000000000D+00
405  4.0400000000000D+00  0.0000000000000D+00  0.0000000000000D+00
406  4.0500000000000D+00  0.0000000000000D+00  0.0000000000000D+00
407  4.0600000000000D+00  0.0000000000000D+00  0.0000000000000D+00
408  4.0700000000000D+00  0.0000000000000D+00  0.0000000000000D+00
409  4.0800000000000D+00  0.0000000000000D+00  0.0000000000000D+00
410  4.0900000000000D+00  0.0000000000000D+00  0.0000000000000D+00
411  4.1000000000000D+00  0.0000000000000D+00  0.0000000000000D+00
412  4.1100000000000D+00  0.0000000000000D+00  0.0000000000000D+00
413  4.1200000000000D+00  0.0000000000000D+00  0.0000000000000D+00
414  4.1300000000000D+00  0.0000000000000D+00  0.0000000000000D+00
415  4.1400000000000D+00  0.0000000000000D+00  0.0000000000000D+00
416  4.1500000000000D+00  0.0000000000000D+00  0.0000000000000D+00
417  4.1600000000000D+00  0.0000000000000D+00  0.0000000000000D+00
418  4.1700000000000D+00  0.0000000000000D+00  0.0000000000000D+00
419  4.1800000000000D+00  0.0000000000000D+00  0.0000000000000D+00
420  4.1900000000000D+00  0.0000000000000D+00  0.0000000000000D+00
421  4.2000000000000D+00  0.0000000000000D+00  0.0000000000000D+00
422  4.2100000000000D+00  0.0000000000000D+00  0.0000000000000D+00
423  4.2200000000000D+00  0.0000000000000D+00  0.0000000000000D+00
424  4.2300000000000D+00  0.0000000000000D+00  0.0000000000000D+00
425  4.2400000000000D+00  0.0000000000000D+00  0.0000000000000D+00
426  4.2500000000000D+00  0.0000000000000D+00  0.0000000000000D+00
427  4.2600000000000D+00  0.0000000000000D+00  0.0000000000000D+00
428  4.2700000000000D+00  0.0000000000000D+00  0.0000000000000D+00
429  4.2800000000000D+00  0.0000000000000D+00  0.0000000000000D+00
430  4.2900000000000D+00  0.0000000000000D+00  0.0000000000000D+00
431  4.3000000000000D+00  0.0000000000000D+00  0.0000000000000D+00
432  4.3100000000000D+00  0.0000000000000D+00  0.0000000000000D+00
433  4.3200000000000D+00  0.0000000000000D+00  0.0000000000000D+00
434  4.3300000000000D+00  0.0000000000000D+00  0.0000000000000D+00
435  4.3400000000000D+00  0.0000000000000D+00  0.0000000000000D+00
436  4.3500000000000D+00  0.0000000000000D+00  0.0000000000000D+00
437  4.3600000000000D+00  0.0000000000000D+00  0.0000000000000D+00
438  4.3700000000000D+00  0.0000000000000D+00  0.0000000000000D+00
439  4.3800000000000D+00  0.0000000000000D+00  0.0000000000000D+00
440  4.3900000000000D+00  0.0000000000000D+00  0.0000000000000D+00
441  4.4000000000000D+00  0.0000000000000D+00  0.0000000000000D+00
442  4.4100000000000D+00  0.0000000000000D+00  0.0000000000000D+00
443  4.4200000000000D+00  0.0000000000000D+00  0.0000000000000D+00