
.Version 7.11.5 of ABINIT 
.(MPI version, prepared for a x86_64_linux_intel14.0 computer) 

.Copyright (C) 1998-2015 ABINIT group . 
 ABINIT comes with ABSOLUTELY NO WARRANTY.
 It is free software, and you are welcome to redistribute it
 under certain conditions (GNU General Public License,
 see ~abinit/COPYING or http://www.gnu.org/copyleft/gpl.txt).

 ABINIT is a project of the Universite Catholique de Louvain,
 Corning Inc. and other collaborators, see ~abinit/doc/developers/contributors.txt .
 Please read ~abinit/doc/users/acknowledgments.html for suggested
 acknowledgments of the ABINIT effort.
 For more information, see http://www.abinit.org .

.Starting date : Tue 19 Jan 2016.
- ( at 09h37 )
  
- input  file    -> /home/acad/ucl-naps/setten/software/pseudo_dojo/pseudo_dojo/pseudos/ONCVPSP-PBE-PDv0.3/H/test/H.psp8_DOJO/EbandsAt43/t0/run.abi
- output file    -> /home/acad/ucl-naps/setten/software/pseudo_dojo/pseudo_dojo/pseudos/ONCVPSP-PBE-PDv0.3/H/test/H.psp8_DOJO/EbandsAt43/t0/run.abo
- root for input  files -> /home/acad/ucl-naps/setten/software/pseudo_dojo/pseudo_dojo/pseudos/ONCVPSP-PBE-PDv0.3/H/test/H.psp8_DOJO/EbandsAt43/t0/indata/in
- root for output files -> /home/acad/ucl-naps/setten/software/pseudo_dojo/pseudo_dojo/pseudos/ONCVPSP-PBE-PDv0.3/H/test/H.psp8_DOJO/EbandsAt43/t0/outdata/out
 
 
 Symmetries : space group Cm c m (# 63); Bravais oC (1-face-center ortho.)
================================================================================
 Values of the parameters that define the memory need of the present run
   intxc =         0  ionmov =         0    iscf =         7 xclevel =         2
  lmnmax =         2   lnmax =         2   mband =        40  mffmem =         1
P  mgfft =        60   mkmem =        10 mpssoang=         2     mpw =      6351
  mqgrid =      3001   natom =         4    nfft =    138240    nkpt =       200
  nloalg =         4  nspden =         1 nspinor =         1  nsppol =         1
    nsym =         8  n1xccc =         0  ntypat =         1  occopt =         3
================================================================================
P This job should need less than                      83.127 Mbytes of memory.
  Rough estimation (10% accuracy) of disk space for files :
_ WF disk file :    775.271 Mbytes ; DEN or POT disk file :      1.057 Mbytes.
================================================================================
 
--------------------------------------------------------------------------------
------------- Echo of variables that govern the present computation ------------
--------------------------------------------------------------------------------
-
- outvars: echo of selected default values                                      
-   accesswff0 =  0 , fftalg0 =312 , wfoptalg0 =  0
-
- outvars: echo of global parameters not present in the input file              
-  max_nthreads =    0
-
 -outvars: echo values of preprocessed input variables --------
            acell      1.0000000000E+00  1.0000000000E+00  1.0000000000E+00 Bohr
              amu      1.00794000E+00
      chksymbreak           0
             ecut      4.30000000E+01 Hartree
           ecutsm      5.00000000E-01 Hartree
-          fftalg         312
              ixc          11
              kpt      5.00000000E-02  5.00000000E-02  6.25000000E-02
                       1.50000000E-01  5.00000000E-02  6.25000000E-02
                       2.50000000E-01  5.00000000E-02  6.25000000E-02
                       3.50000000E-01  5.00000000E-02  6.25000000E-02
                       4.50000000E-01  5.00000000E-02  6.25000000E-02
                      -4.50000000E-01  5.00000000E-02  6.25000000E-02
                      -3.50000000E-01  5.00000000E-02  6.25000000E-02
                      -2.50000000E-01  5.00000000E-02  6.25000000E-02
                      -1.50000000E-01  5.00000000E-02  6.25000000E-02
                      -5.00000000E-02  5.00000000E-02  6.25000000E-02
                       5.00000000E-02  1.50000000E-01  6.25000000E-02
                       1.50000000E-01  1.50000000E-01  6.25000000E-02
                       2.50000000E-01  1.50000000E-01  6.25000000E-02
                       3.50000000E-01  1.50000000E-01  6.25000000E-02
                       4.50000000E-01  1.50000000E-01  6.25000000E-02
                      -4.50000000E-01  1.50000000E-01  6.25000000E-02
                      -3.50000000E-01  1.50000000E-01  6.25000000E-02
                      -2.50000000E-01  1.50000000E-01  6.25000000E-02
                      -1.50000000E-01  1.50000000E-01  6.25000000E-02
                      -5.00000000E-02  1.50000000E-01  6.25000000E-02
                       5.00000000E-02  2.50000000E-01  6.25000000E-02
                       1.50000000E-01  2.50000000E-01  6.25000000E-02
                       2.50000000E-01  2.50000000E-01  6.25000000E-02
                       3.50000000E-01  2.50000000E-01  6.25000000E-02
                       4.50000000E-01  2.50000000E-01  6.25000000E-02
                      -4.50000000E-01  2.50000000E-01  6.25000000E-02
                      -3.50000000E-01  2.50000000E-01  6.25000000E-02
                      -2.50000000E-01  2.50000000E-01  6.25000000E-02
                      -1.50000000E-01  2.50000000E-01  6.25000000E-02
                      -5.00000000E-02  2.50000000E-01  6.25000000E-02
                       5.00000000E-02  3.50000000E-01  6.25000000E-02
                       1.50000000E-01  3.50000000E-01  6.25000000E-02
                       2.50000000E-01  3.50000000E-01  6.25000000E-02
                       3.50000000E-01  3.50000000E-01  6.25000000E-02
                       4.50000000E-01  3.50000000E-01  6.25000000E-02
                      -4.50000000E-01  3.50000000E-01  6.25000000E-02
                      -3.50000000E-01  3.50000000E-01  6.25000000E-02
                      -2.50000000E-01  3.50000000E-01  6.25000000E-02
                      -1.50000000E-01  3.50000000E-01  6.25000000E-02
                      -5.00000000E-02  3.50000000E-01  6.25000000E-02
                       5.00000000E-02  4.50000000E-01  6.25000000E-02
                       1.50000000E-01  4.50000000E-01  6.25000000E-02
                       2.50000000E-01  4.50000000E-01  6.25000000E-02
                       3.50000000E-01  4.50000000E-01  6.25000000E-02
                       4.50000000E-01  4.50000000E-01  6.25000000E-02
                      -4.50000000E-01  4.50000000E-01  6.25000000E-02
                      -3.50000000E-01  4.50000000E-01  6.25000000E-02
                      -2.50000000E-01  4.50000000E-01  6.25000000E-02
                      -1.50000000E-01  4.50000000E-01  6.25000000E-02
                      -5.00000000E-02  4.50000000E-01  6.25000000E-02
                       outvar_i_n : Printing only first  50 k-points.
         kptrlatt       10    0    0      0   10    0      0    0    8
          kptrlen      7.56354570E+01
         mem_test        0
P           mkmem          10
            natom           4
            nband          40
            ngfft          48      48      60
             nkpt         200
            nstep         200
             nsym           8
           ntypat           1
              occ      2.000000  2.000000  0.000000  0.000000  0.000000  0.000000
                       0.000000  0.000000  0.000000  0.000000  0.000000  0.000000
                       0.000000  0.000000  0.000000  0.000000  0.000000  0.000000
                       0.000000  0.000000  0.000000  0.000000  0.000000  0.000000
                       0.000000  0.000000  0.000000  0.000000  0.000000  0.000000
                       0.000000  0.000000  0.000000  0.000000  0.000000  0.000000
                       0.000000  0.000000  0.000000  0.000000
                       2.000000  2.000000  0.000000  0.000000  0.000000  0.000000
                       0.000000  0.000000  0.000000  0.000000  0.000000  0.000000
                       0.000000  0.000000  0.000000  0.000000  0.000000  0.000000
                       0.000000  0.000000  0.000000  0.000000  0.000000  0.000000
                       0.000000  0.000000  0.000000  0.000000  0.000000  0.000000
                       0.000000  0.000000  0.000000  0.000000  0.000000  0.000000
                       0.000000  0.000000  0.000000  0.000000
                       2.000000  2.000000  0.000000  0.000000  0.000000  0.000000
                       0.000000  0.000000  0.000000  0.000000  0.000000  0.000000
                       0.000000  0.000000  0.000000  0.000000  0.000000  0.000000
                       0.000000  0.000000  0.000000  0.000000  0.000000  0.000000
                       0.000000  0.000000  0.000000  0.000000  0.000000  0.000000
                       0.000000  0.000000  0.000000  0.000000  0.000000  0.000000
                       0.000000  0.000000  0.000000  0.000000
                       2.000000  2.000000  0.000000  0.000000  0.000000  0.000000
                       0.000000  0.000000  0.000000  0.000000  0.000000  0.000000
                       0.000000  0.000000  0.000000  0.000000  0.000000  0.000000
                       0.000000  0.000000  0.000000  0.000000  0.000000  0.000000
                       0.000000  0.000000  0.000000  0.000000  0.000000  0.000000
                       0.000000  0.000000  0.000000  0.000000  0.000000  0.000000
                       0.000000  0.000000  0.000000  0.000000
                       2.000000  2.000000  0.000000  0.000000  0.000000  0.000000
                       0.000000  0.000000  0.000000  0.000000  0.000000  0.000000
                       0.000000  0.000000  0.000000  0.000000  0.000000  0.000000
                       0.000000  0.000000  0.000000  0.000000  0.000000  0.000000
                       0.000000  0.000000  0.000000  0.000000  0.000000  0.000000
                       0.000000  0.000000  0.000000  0.000000  0.000000  0.000000
                       0.000000  0.000000  0.000000  0.000000
                       2.000000  2.000000  0.000000  0.000000  0.000000  0.000000
                       0.000000  0.000000  0.000000  0.000000  0.000000  0.000000
                       0.000000  0.000000  0.000000  0.000000  0.000000  0.000000
                       0.000000  0.000000  0.000000  0.000000  0.000000  0.000000
                       0.000000  0.000000  0.000000  0.000000  0.000000  0.000000
                       0.000000  0.000000  0.000000  0.000000  0.000000  0.000000
                       0.000000  0.000000  0.000000  0.000000
                       2.000000  2.000000  0.000000  0.000000  0.000000  0.000000
                       0.000000  0.000000  0.000000  0.000000  0.000000  0.000000
                       0.000000  0.000000  0.000000  0.000000  0.000000  0.000000
                       0.000000  0.000000  0.000000  0.000000  0.000000  0.000000
                       0.000000  0.000000  0.000000  0.000000  0.000000  0.000000
                       0.000000  0.000000  0.000000  0.000000  0.000000  0.000000
                       0.000000  0.000000  0.000000  0.000000
                       2.000000  2.000000  0.000000  0.000000  0.000000  0.000000
                       0.000000  0.000000  0.000000  0.000000  0.000000  0.000000
                       0.000000  0.000000  0.000000  0.000000  0.000000  0.000000
                       0.000000  0.000000  0.000000  0.000000  0.000000  0.000000
                       0.000000  0.000000  0.000000  0.000000  0.000000  0.000000
                       0.000000  0.000000  0.000000  0.000000  0.000000  0.000000
                       0.000000  0.000000  0.000000  0.000000
                       2.000000  2.000000  0.000000  0.000000  0.000000  0.000000
                       0.000000  0.000000  0.000000  0.000000  0.000000  0.000000
                       0.000000  0.000000  0.000000  0.000000  0.000000  0.000000
                       0.000000  0.000000  0.000000  0.000000  0.000000  0.000000
                       0.000000  0.000000  0.000000  0.000000  0.000000  0.000000
                       0.000000  0.000000  0.000000  0.000000  0.000000  0.000000
                       0.000000  0.000000  0.000000  0.000000
                       2.000000  2.000000  0.000000  0.000000  0.000000  0.000000
                       0.000000  0.000000  0.000000  0.000000  0.000000  0.000000
                       0.000000  0.000000  0.000000  0.000000  0.000000  0.000000
                       0.000000  0.000000  0.000000  0.000000  0.000000  0.000000
                       0.000000  0.000000  0.000000  0.000000  0.000000  0.000000
                       0.000000  0.000000  0.000000  0.000000  0.000000  0.000000
                       0.000000  0.000000  0.000000  0.000000
                       2.000000  2.000000  0.000000  0.000000  0.000000  0.000000
                       0.000000  0.000000  0.000000  0.000000  0.000000  0.000000
                       0.000000  0.000000  0.000000  0.000000  0.000000  0.000000
                       0.000000  0.000000  0.000000  0.000000  0.000000  0.000000
                       0.000000  0.000000  0.000000  0.000000  0.000000  0.000000
                       0.000000  0.000000  0.000000  0.000000  0.000000  0.000000
                       0.000000  0.000000  0.000000  0.000000
                       2.000000  2.000000  0.000000  0.000000  0.000000  0.000000
                       0.000000  0.000000  0.000000  0.000000  0.000000  0.000000
                       0.000000  0.000000  0.000000  0.000000  0.000000  0.000000
                       0.000000  0.000000  0.000000  0.000000  0.000000  0.000000
                       0.000000  0.000000  0.000000  0.000000  0.000000  0.000000
                       0.000000  0.000000  0.000000  0.000000  0.000000  0.000000
                       0.000000  0.000000  0.000000  0.000000
                       2.000000  2.000000  0.000000  0.000000  0.000000  0.000000
                       0.000000  0.000000  0.000000  0.000000  0.000000  0.000000
                       0.000000  0.000000  0.000000  0.000000  0.000000  0.000000
                       0.000000  0.000000  0.000000  0.000000  0.000000  0.000000
                       0.000000  0.000000  0.000000  0.000000  0.000000  0.000000
                       0.000000  0.000000  0.000000  0.000000  0.000000  0.000000
                       0.000000  0.000000  0.000000  0.000000
                       2.000000  2.000000  0.000000  0.000000  0.000000  0.000000
                       0.000000  0.000000  0.000000  0.000000  0.000000  0.000000
                       0.000000  0.000000  0.000000  0.000000  0.000000  0.000000
                       0.000000  0.000000  0.000000  0.000000  0.000000  0.000000
                       0.000000  0.000000  0.000000  0.000000  0.000000  0.000000
                       0.000000  0.000000  0.000000  0.000000  0.000000  0.000000
                       0.000000  0.000000  0.000000  0.000000
                       2.000000  2.000000  0.000000  0.000000  0.000000  0.000000
                       0.000000  0.000000  0.000000  0.000000  0.000000  0.000000
                       0.000000  0.000000  0.000000  0.000000  0.000000  0.000000
                       0.000000  0.000000  0.000000  0.000000  0.000000  0.000000
                       0.000000  0.000000  0.000000  0.000000  0.000000  0.000000
                       0.000000  0.000000  0.000000  0.000000  0.000000  0.000000
                       0.000000  0.000000  0.000000  0.000000
                       2.000000  2.000000  0.000000  0.000000  0.000000  0.000000
                       0.000000  0.000000  0.000000  0.000000  0.000000  0.000000
                       0.000000  0.000000  0.000000  0.000000  0.000000  0.000000
                       0.000000  0.000000  0.000000  0.000000  0.000000  0.000000
                       0.000000  0.000000  0.000000  0.000000  0.000000  0.000000
                       0.000000  0.000000  0.000000  0.000000  0.000000  0.000000
                       0.000000  0.000000  0.000000  0.000000
                       2.000000  2.000000  0.000000  0.000000  0.000000  0.000000
                       0.000000  0.000000  0.000000  0.000000  0.000000  0.000000
                       0.000000  0.000000  0.000000  0.000000  0.000000  0.000000
                       0.000000  0.000000  0.000000  0.000000  0.000000  0.000000
                       0.000000  0.000000  0.000000  0.000000  0.000000  0.000000
                       0.000000  0.000000  0.000000  0.000000  0.000000  0.000000
                       0.000000  0.000000  0.000000  0.000000
                       2.000000  2.000000  0.000000  0.000000  0.000000  0.000000
                       0.000000  0.000000  0.000000  0.000000  0.000000  0.000000
                       0.000000  0.000000  0.000000  0.000000  0.000000  0.000000
                       0.000000  0.000000  0.000000  0.000000  0.000000  0.000000
                       0.000000  0.000000  0.000000  0.000000  0.000000  0.000000
                       0.000000  0.000000  0.000000  0.000000  0.000000  0.000000
                       0.000000  0.000000  0.000000  0.000000
                       2.000000  2.000000  0.000000  0.000000  0.000000  0.000000
                       0.000000  0.000000  0.000000  0.000000  0.000000  0.000000
                       0.000000  0.000000  0.000000  0.000000  0.000000  0.000000
                       0.000000  0.000000  0.000000  0.000000  0.000000  0.000000
                       0.000000  0.000000  0.000000  0.000000  0.000000  0.000000
                       0.000000  0.000000  0.000000  0.000000  0.000000  0.000000
                       0.000000  0.000000  0.000000  0.000000
                       2.000000  2.000000  0.000000  0.000000  0.000000  0.000000
                       0.000000  0.000000  0.000000  0.000000  0.000000  0.000000
                       0.000000  0.000000  0.000000  0.000000  0.000000  0.000000
                       0.000000  0.000000  0.000000  0.000000  0.000000  0.000000
                       0.000000  0.000000  0.000000  0.000000  0.000000  0.000000
                       0.000000  0.000000  0.000000  0.000000  0.000000  0.000000
                       0.000000  0.000000  0.000000  0.000000
                       2.000000  2.000000  0.000000  0.000000  0.000000  0.000000
                       0.000000  0.000000  0.000000  0.000000  0.000000  0.000000
                       0.000000  0.000000  0.000000  0.000000  0.000000  0.000000
                       0.000000  0.000000  0.000000  0.000000  0.000000  0.000000
                       0.000000  0.000000  0.000000  0.000000  0.000000  0.000000
                       0.000000  0.000000  0.000000  0.000000  0.000000  0.000000
                       0.000000  0.000000  0.000000  0.000000
                       2.000000  2.000000  0.000000  0.000000  0.000000  0.000000
                       0.000000  0.000000  0.000000  0.000000  0.000000  0.000000
                       0.000000  0.000000  0.000000  0.000000  0.000000  0.000000
                       0.000000  0.000000  0.000000  0.000000  0.000000  0.000000
                       0.000000  0.000000  0.000000  0.000000  0.000000  0.000000
                       0.000000  0.000000  0.000000  0.000000  0.000000  0.000000
                       0.000000  0.000000  0.000000  0.000000
                       2.000000  2.000000  0.000000  0.000000  0.000000  0.000000
                       0.000000  0.000000  0.000000  0.000000  0.000000  0.000000
                       0.000000  0.000000  0.000000  0.000000  0.000000  0.000000
                       0.000000  0.000000  0.000000  0.000000  0.000000  0.000000
                       0.000000  0.000000  0.000000  0.000000  0.000000  0.000000
                       0.000000  0.000000  0.000000  0.000000  0.000000  0.000000
                       0.000000  0.000000  0.000000  0.000000
                       2.000000  2.000000  0.000000  0.000000  0.000000  0.000000
                       0.000000  0.000000  0.000000  0.000000  0.000000  0.000000
                       0.000000  0.000000  0.000000  0.000000  0.000000  0.000000
                       0.000000  0.000000  0.000000  0.000000  0.000000  0.000000
                       0.000000  0.000000  0.000000  0.000000  0.000000  0.000000
                       0.000000  0.000000  0.000000  0.000000  0.000000  0.000000
                       0.000000  0.000000  0.000000  0.000000
                       2.000000  2.000000  0.000000  0.000000  0.000000  0.000000
                       0.000000  0.000000  0.000000  0.000000  0.000000  0.000000
                       0.000000  0.000000  0.000000  0.000000  0.000000  0.000000
                       0.000000  0.000000  0.000000  0.000000  0.000000  0.000000
                       0.000000  0.000000  0.000000  0.000000  0.000000  0.000000
                       0.000000  0.000000  0.000000  0.000000  0.000000  0.000000
                       0.000000  0.000000  0.000000  0.000000
                       2.000000  2.000000  0.000000  0.000000  0.000000  0.000000
                       0.000000  0.000000  0.000000  0.000000  0.000000  0.000000
                       0.000000  0.000000  0.000000  0.000000  0.000000  0.000000
                       0.000000  0.000000  0.000000  0.000000  0.000000  0.000000
                       0.000000  0.000000  0.000000  0.000000  0.000000  0.000000
                       0.000000  0.000000  0.000000  0.000000  0.000000  0.000000
                       0.000000  0.000000  0.000000  0.000000
                       2.000000  2.000000  0.000000  0.000000  0.000000  0.000000
                       0.000000  0.000000  0.000000  0.000000  0.000000  0.000000
                       0.000000  0.000000  0.000000  0.000000  0.000000  0.000000
                       0.000000  0.000000  0.000000  0.000000  0.000000  0.000000
                       0.000000  0.000000  0.000000  0.000000  0.000000  0.000000
                       0.000000  0.000000  0.000000  0.000000  0.000000  0.000000
                       0.000000  0.000000  0.000000  0.000000
                       2.000000  2.000000  0.000000  0.000000  0.000000  0.000000
                       0.000000  0.000000  0.000000  0.000000  0.000000  0.000000
                       0.000000  0.000000  0.000000  0.000000  0.000000  0.000000
                       0.000000  0.000000  0.000000  0.000000  0.000000  0.000000
                       0.000000  0.000000  0.000000  0.000000  0.000000  0.000000
                       0.000000  0.000000  0.000000  0.000000  0.000000  0.000000
                       0.000000  0.000000  0.000000  0.000000
                       2.000000  2.000000  0.000000  0.000000  0.000000  0.000000
                       0.000000  0.000000  0.000000  0.000000  0.000000  0.000000
                       0.000000  0.000000  0.000000  0.000000  0.000000  0.000000
                       0.000000  0.000000  0.000000  0.000000  0.000000  0.000000
                       0.000000  0.000000  0.000000  0.000000  0.000000  0.000000
                       0.000000  0.000000  0.000000  0.000000  0.000000  0.000000
                       0.000000  0.000000  0.000000  0.000000
                       2.000000  2.000000  0.000000  0.000000  0.000000  0.000000
                       0.000000  0.000000  0.000000  0.000000  0.000000  0.000000
                       0.000000  0.000000  0.000000  0.000000  0.000000  0.000000
                       0.000000  0.000000  0.000000  0.000000  0.000000  0.000000
                       0.000000  0.000000  0.000000  0.000000  0.000000  0.000000
                       0.000000  0.000000  0.000000  0.000000  0.000000  0.000000
                       0.000000  0.000000  0.000000  0.000000
                       2.000000  2.000000  0.000000  0.000000  0.000000  0.000000
                       0.000000  0.000000  0.000000  0.000000  0.000000  0.000000
                       0.000000  0.000000  0.000000  0.000000  0.000000  0.000000
                       0.000000  0.000000  0.000000  0.000000  0.000000  0.000000
                       0.000000  0.000000  0.000000  0.000000  0.000000  0.000000
                       0.000000  0.000000  0.000000  0.000000  0.000000  0.000000
                       0.000000  0.000000  0.000000  0.000000
                       2.000000  2.000000  0.000000  0.000000  0.000000  0.000000
                       0.000000  0.000000  0.000000  0.000000  0.000000  0.000000
                       0.000000  0.000000  0.000000  0.000000  0.000000  0.000000
                       0.000000  0.000000  0.000000  0.000000  0.000000  0.000000
                       0.000000  0.000000  0.000000  0.000000  0.000000  0.000000
                       0.000000  0.000000  0.000000  0.000000  0.000000  0.000000
                       0.000000  0.000000  0.000000  0.000000
                       2.000000  2.000000  0.000000  0.000000  0.000000  0.000000
                       0.000000  0.000000  0.000000  0.000000  0.000000  0.000000
                       0.000000  0.000000  0.000000  0.000000  0.000000  0.000000
                       0.000000  0.000000  0.000000  0.000000  0.000000  0.000000
                       0.000000  0.000000  0.000000  0.000000  0.000000  0.000000
                       0.000000  0.000000  0.000000  0.000000  0.000000  0.000000
                       0.000000  0.000000  0.000000  0.000000
                       2.000000  2.000000  0.000000  0.000000  0.000000  0.000000
                       0.000000  0.000000  0.000000  0.000000  0.000000  0.000000
                       0.000000  0.000000  0.000000  0.000000  0.000000  0.000000
                       0.000000  0.000000  0.000000  0.000000  0.000000  0.000000
                       0.000000  0.000000  0.000000  0.000000  0.000000  0.000000
                       0.000000  0.000000  0.000000  0.000000  0.000000  0.000000
                       0.000000  0.000000  0.000000  0.000000
                       2.000000  2.000000  0.000000  0.000000  0.000000  0.000000
                       0.000000  0.000000  0.000000  0.000000  0.000000  0.000000
                       0.000000  0.000000  0.000000  0.000000  0.000000  0.000000
                       0.000000  0.000000  0.000000  0.000000  0.000000  0.000000
                       0.000000  0.000000  0.000000  0.000000  0.000000  0.000000
                       0.000000  0.000000  0.000000  0.000000  0.000000  0.000000
                       0.000000  0.000000  0.000000  0.000000
                       2.000000  2.000000  0.000000  0.000000  0.000000  0.000000
                       0.000000  0.000000  0.000000  0.000000  0.000000  0.000000
                       0.000000  0.000000  0.000000  0.000000  0.000000  0.000000
                       0.000000  0.000000  0.000000  0.000000  0.000000  0.000000
                       0.000000  0.000000  0.000000  0.000000  0.000000  0.000000
                       0.000000  0.000000  0.000000  0.000000  0.000000  0.000000
                       0.000000  0.000000  0.000000  0.000000
                       2.000000  2.000000  0.000000  0.000000  0.000000  0.000000
                       0.000000  0.000000  0.000000  0.000000  0.000000  0.000000
                       0.000000  0.000000  0.000000  0.000000  0.000000  0.000000
                       0.000000  0.000000  0.000000  0.000000  0.000000  0.000000
                       0.000000  0.000000  0.000000  0.000000  0.000000  0.000000
                       0.000000  0.000000  0.000000  0.000000  0.000000  0.000000
                       0.000000  0.000000  0.000000  0.000000
                       2.000000  2.000000  0.000000  0.000000  0.000000  0.000000
                       0.000000  0.000000  0.000000  0.000000  0.000000  0.000000
                       0.000000  0.000000  0.000000  0.000000  0.000000  0.000000
                       0.000000  0.000000  0.000000  0.000000  0.000000  0.000000
                       0.000000  0.000000  0.000000  0.000000  0.000000  0.000000
                       0.000000  0.000000  0.000000  0.000000  0.000000  0.000000
                       0.000000  0.000000  0.000000  0.000000
                       2.000000  2.000000  0.000000  0.000000  0.000000  0.000000
                       0.000000  0.000000  0.000000  0.000000  0.000000  0.000000
                       0.000000  0.000000  0.000000  0.000000  0.000000  0.000000
                       0.000000  0.000000  0.000000  0.000000  0.000000  0.000000
                       0.000000  0.000000  0.000000  0.000000  0.000000  0.000000
                       0.000000  0.000000  0.000000  0.000000  0.000000  0.000000
                       0.000000  0.000000  0.000000  0.000000
                       2.000000  2.000000  0.000000  0.000000  0.000000  0.000000
                       0.000000  0.000000  0.000000  0.000000  0.000000  0.000000
                       0.000000  0.000000  0.000000  0.000000  0.000000  0.000000
                       0.000000  0.000000  0.000000  0.000000  0.000000  0.000000
                       0.000000  0.000000  0.000000  0.000000  0.000000  0.000000
                       0.000000  0.000000  0.000000  0.000000  0.000000  0.000000
                       0.000000  0.000000  0.000000  0.000000
                       2.000000  2.000000  0.000000  0.000000  0.000000  0.000000
                       0.000000  0.000000  0.000000  0.000000  0.000000  0.000000
                       0.000000  0.000000  0.000000  0.000000  0.000000  0.000000
                       0.000000  0.000000  0.000000  0.000000  0.000000  0.000000
                       0.000000  0.000000  0.000000  0.000000  0.000000  0.000000
                       0.000000  0.000000  0.000000  0.000000  0.000000  0.000000
                       0.000000  0.000000  0.000000  0.000000
                       2.000000  2.000000  0.000000  0.000000  0.000000  0.000000
                       0.000000  0.000000  0.000000  0.000000  0.000000  0.000000
                       0.000000  0.000000  0.000000  0.000000  0.000000  0.000000
                       0.000000  0.000000  0.000000  0.000000  0.000000  0.000000
                       0.000000  0.000000  0.000000  0.000000  0.000000  0.000000
                       0.000000  0.000000  0.000000  0.000000  0.000000  0.000000
                       0.000000  0.000000  0.000000  0.000000
                       2.000000  2.000000  0.000000  0.000000  0.000000  0.000000
                       0.000000  0.000000  0.000000  0.000000  0.000000  0.000000
                       0.000000  0.000000  0.000000  0.000000  0.000000  0.000000
                       0.000000  0.000000  0.000000  0.000000  0.000000  0.000000
                       0.000000  0.000000  0.000000  0.000000  0.000000  0.000000
                       0.000000  0.000000  0.000000  0.000000  0.000000  0.000000
                       0.000000  0.000000  0.000000  0.000000
                       2.000000  2.000000  0.000000  0.000000  0.000000  0.000000
                       0.000000  0.000000  0.000000  0.000000  0.000000  0.000000
                       0.000000  0.000000  0.000000  0.000000  0.000000  0.000000
                       0.000000  0.000000  0.000000  0.000000  0.000000  0.000000
                       0.000000  0.000000  0.000000  0.000000  0.000000  0.000000
                       0.000000  0.000000  0.000000  0.000000  0.000000  0.000000
                       0.000000  0.000000  0.000000  0.000000
                       2.000000  2.000000  0.000000  0.000000  0.000000  0.000000
                       0.000000  0.000000  0.000000  0.000000  0.000000  0.000000
                       0.000000  0.000000  0.000000  0.000000  0.000000  0.000000
                       0.000000  0.000000  0.000000  0.000000  0.000000  0.000000
                       0.000000  0.000000  0.000000  0.000000  0.000000  0.000000
                       0.000000  0.000000  0.000000  0.000000  0.000000  0.000000
                       0.000000  0.000000  0.000000  0.000000
                       2.000000  2.000000  0.000000  0.000000  0.000000  0.000000
                       0.000000  0.000000  0.000000  0.000000  0.000000  0.000000
                       0.000000  0.000000  0.000000  0.000000  0.000000  0.000000
                       0.000000  0.000000  0.000000  0.000000  0.000000  0.000000
                       0.000000  0.000000  0.000000  0.000000  0.000000  0.000000
                       0.000000  0.000000  0.000000  0.000000  0.000000  0.000000
                       0.000000  0.000000  0.000000  0.000000
                       2.000000  2.000000  0.000000  0.000000  0.000000  0.000000
                       0.000000  0.000000  0.000000  0.000000  0.000000  0.000000
                       0.000000  0.000000  0.000000  0.000000  0.000000  0.000000
                       0.000000  0.000000  0.000000  0.000000  0.000000  0.000000
                       0.000000  0.000000  0.000000  0.000000  0.000000  0.000000
                       0.000000  0.000000  0.000000  0.000000  0.000000  0.000000
                       0.000000  0.000000  0.000000  0.000000
                       2.000000  2.000000  0.000000  0.000000  0.000000  0.000000
                       0.000000  0.000000  0.000000  0.000000  0.000000  0.000000
                       0.000000  0.000000  0.000000  0.000000  0.000000  0.000000
                       0.000000  0.000000  0.000000  0.000000  0.000000  0.000000
                       0.000000  0.000000  0.000000  0.000000  0.000000  0.000000
                       0.000000  0.000000  0.000000  0.000000  0.000000  0.000000
                       0.000000  0.000000  0.000000  0.000000
                       2.000000  2.000000  0.000000  0.000000  0.000000  0.000000
                       0.000000  0.000000  0.000000  0.000000  0.000000  0.000000
                       0.000000  0.000000  0.000000  0.000000  0.000000  0.000000
                       0.000000  0.000000  0.000000  0.000000  0.000000  0.000000
                       0.000000  0.000000  0.000000  0.000000  0.000000  0.000000
                       0.000000  0.000000  0.000000  0.000000  0.000000  0.000000
                       0.000000  0.000000  0.000000  0.000000
                       2.000000  2.000000  0.000000  0.000000  0.000000  0.000000
                       0.000000  0.000000  0.000000  0.000000  0.000000  0.000000
                       0.000000  0.000000  0.000000  0.000000  0.000000  0.000000
                       0.000000  0.000000  0.000000  0.000000  0.000000  0.000000
                       0.000000  0.000000  0.000000  0.000000  0.000000  0.000000
                       0.000000  0.000000  0.000000  0.000000  0.000000  0.000000
                       0.000000  0.000000  0.000000  0.000000
                       prtocc : prtvol=0, do not print more k-points.
           occopt           3
            prtwf           0
            rprim     -3.7866237785E+00 -6.5586247735E+00  0.0000000000E+00
                      -3.7866237785E+00  6.5586247735E+00  0.0000000000E+00
                       0.0000000000E+00  0.0000000000E+00 -9.4544321288E+00
           shiftk      5.00000000E-01  5.00000000E-01  5.00000000E-01
          spgroup          63
           symrel      1  0  0   0  1  0   0  0  1      -1  0  0   0 -1  0   0  0 -1
                      -1  0  0   1  1  0   0  0  1       1  0  0  -1 -1  0   0  0 -1
                      -1  0  0   0 -1  0   0  0  1       1  0  0   0  1  0   0  0 -1
                       1  0  0  -1 -1  0   0  0  1      -1  0  0   1  1  0   0  0 -1
            tnons      0.0000000  0.0000000  0.0000000     0.0000000  0.0000000  0.0000000
                       0.0000000  0.0000000  0.0000000    -0.0000000  0.0000000  0.0000000
                       0.0000000  0.0000000  0.5000000     0.0000000  0.0000000  0.5000000
                      -0.0000000  0.0000000  0.5000000     0.0000000  0.0000000  0.5000000
           toldfe      1.00000000E-09 Hartree
           tsmear      5.00000000E-04 Hartree
            typat      1  1  1  1
              wtk        0.00500    0.00500    0.00500    0.00500    0.00500    0.00500
                         0.00500    0.00500    0.00500    0.00500    0.00500    0.00500
                         0.00500    0.00500    0.00500    0.00500    0.00500    0.00500
                         0.00500    0.00500    0.00500    0.00500    0.00500    0.00500
                         0.00500    0.00500    0.00500    0.00500    0.00500    0.00500
                         0.00500    0.00500    0.00500    0.00500    0.00500    0.00500
                         0.00500    0.00500    0.00500    0.00500    0.00500    0.00500
                         0.00500    0.00500    0.00500    0.00500    0.00500    0.00500
                         0.00500    0.00500
                       outvars : Printing only first  50 k-points.
           xangst     -2.0038150390E+00 -1.1568800144E+00 -4.1276328136E+00
                      -2.0037749631E+00  1.1568800144E+00 -8.7543718908E-01
                      -2.0037749631E+00  1.1568800144E+00 -1.6260978123E+00
                      -2.0038150390E+00 -1.1568800144E+00 -3.3769721904E+00
            xcart     -3.7866616447E+00 -2.1861863958E+00 -7.8000955949E+00
                      -3.7865859123E+00  2.1861863958E+00 -1.6543365339E+00
                      -3.7865859123E+00  2.1861863958E+00 -3.0728795305E+00
                      -3.7866616447E+00 -2.1861863958E+00 -6.3815525983E+00
             xred      6.6667000000E-01  3.3334000000E-01  8.2502000000E-01
                       3.3333000000E-01  6.6666000000E-01  1.7498000000E-01
                       3.3333000000E-01  6.6666000000E-01  3.2502000000E-01
                       6.6667000000E-01  3.3334000000E-01  6.7498000000E-01
            znucl        1.00000
 
================================================================================
 
 chkinp: Checking input parameters for consistency.
 
================================================================================
== DATASET  1 ==================================================================
-   nproc =   20
 
 Exchange-correlation functional for the present dataset will be:
  GGA: Perdew-Burke-Ernzerhof functional - ixc=11
 Citation for XC functional:
  J.P.Perdew, K.Burke, M.Ernzerhof, PRL 77, 3865 (1996)
 
 Real(R)+Recip(G) space primitive vectors, cartesian coordinates (Bohr,Bohr^-1):
 R(1)= -3.7866238 -6.5586248  0.0000000  G(1)= -0.1320437 -0.0762355  0.0000000
 R(2)= -3.7866238  6.5586248  0.0000000  G(2)= -0.1320437  0.0762355  0.0000000
 R(3)=  0.0000000  0.0000000 -9.4544321  G(3)=  0.0000000  0.0000000 -0.1057705
 Unit cell volume ucvol=  4.6960249E+02 bohr^3
 Angles (23,13,12)=  9.00000000E+01  9.00000000E+01  1.20000000E+02 degrees
 
 getcut: wavevector=  0.0000  0.0000  0.0000  ngfft=  48  48  60
         ecut(hartree)=     43.000   => boxcut(ratio)=   2.14714
 
--- Pseudopotential description ------------------------------------------------
- pspini: atom type   1  psp file is /home/acad/ucl-naps/setten/software/pseudo_dojo/pseudo_dojo/pseudos/ONCVPSP-PBE-PDv0.3/H/test/H.psp8
- pspatm: opening atomic psp file    /home/acad/ucl-naps/setten/software/pseudo_dojo/pseudo_dojo/pseudos/ONCVPSP-PBE-PDv0.3/H/test/H.psp8
- H     ONCVPSP  r_core=  1.01  0.71
-  1.00000   1.00000    151026                znucl, zion, pspdat
    8   11    1    1       300   0.00000      pspcod,pspxc,lmax,lloc,mmax,r2well
    2.99000000000000    0.00000000000000    0.00000000000000   rchrg,fchrg,qchrg
     nproj     2     0
extension_switch     0
 pspatm: epsatm=   -0.02267303
         --- l  ekb(1:nproj) -->
             0   78.287850   -9.277482
 pspatm: atomic psp has been read  and splines computed
 
  -3.62768430E-01                                ecore*ucvol(ha*bohr**3)
--------------------------------------------------------------------------------
 
P newkpt: treating     40 bands with npw=    6298 for ikpt=   1 by node    0
P newkpt: treating     40 bands with npw=    6288 for ikpt=   2 by node    0
P newkpt: treating     40 bands with npw=    6313 for ikpt=   3 by node    0
P newkpt: treating     40 bands with npw=    6331 for ikpt=   4 by node    0
P newkpt: treating     40 bands with npw=    6325 for ikpt=   5 by node    0
P newkpt: treating     40 bands with npw=    6336 for ikpt=   6 by node    0
P newkpt: treating     40 bands with npw=    6328 for ikpt=   7 by node    0
P newkpt: treating     40 bands with npw=    6303 for ikpt=   8 by node    0
P newkpt: treating     40 bands with npw=    6302 for ikpt=   9 by node    0
P newkpt: treating     40 bands with npw=    6306 for ikpt=  10 by node    0
P newkpt: treating     40 bands with npw=    6288 for ikpt=  11 by node    1
P newkpt: treating     40 bands with npw=    6309 for ikpt=  12 by node    1
P newkpt: treating     40 bands with npw=    6323 for ikpt=  13 by node    1
P newkpt: treating     40 bands with npw=    6329 for ikpt=  14 by node    1
P newkpt: treating     40 bands with npw=    6323 for ikpt=  15 by node    1
P newkpt: treating     40 bands with npw=    6328 for ikpt=  16 by node    1
P newkpt: treating     40 bands with npw=    6316 for ikpt=  17 by node    1
P newkpt: treating     40 bands with npw=    6299 for ikpt=  18 by node    1
P newkpt: treating     40 bands with npw=    6294 for ikpt=  19 by node    1
P newkpt: treating     40 bands with npw=    6302 for ikpt=  20 by node    1
P newkpt: treating     40 bands with npw=    6313 for ikpt=  21 by node    2
P newkpt: treating     40 bands with npw=    6323 for ikpt=  22 by node    2
P newkpt: treating     40 bands with npw=    6319 for ikpt=  23 by node    2
P newkpt: treating     40 bands with npw=    6327 for ikpt=  24 by node    2
P newkpt: treating     40 bands with npw=    6319 for ikpt=  25 by node    2
P newkpt: treating     40 bands with npw=    6327 for ikpt=  26 by node    2
P newkpt: treating     40 bands with npw=    6318 for ikpt=  27 by node    2
P newkpt: treating     40 bands with npw=    6306 for ikpt=  28 by node    2
P newkpt: treating     40 bands with npw=    6299 for ikpt=  29 by node    2
P newkpt: treating     40 bands with npw=    6303 for ikpt=  30 by node    2
P newkpt: treating     40 bands with npw=    6331 for ikpt=  31 by node    3
P newkpt: treating     40 bands with npw=    6329 for ikpt=  32 by node    3
P newkpt: treating     40 bands with npw=    6327 for ikpt=  33 by node    3
P newkpt: treating     40 bands with npw=    6320 for ikpt=  34 by node    3
P newkpt: treating     40 bands with npw=    6324 for ikpt=  35 by node    3
P newkpt: treating     40 bands with npw=    6336 for ikpt=  36 by node    3
P newkpt: treating     40 bands with npw=    6334 for ikpt=  37 by node    3
P newkpt: treating     40 bands with npw=    6318 for ikpt=  38 by node    3
P newkpt: treating     40 bands with npw=    6316 for ikpt=  39 by node    3
P newkpt: treating     40 bands with npw=    6328 for ikpt=  40 by node    3
P newkpt: treating     40 bands with npw=    6325 for ikpt=  41 by node    4
P newkpt: treating     40 bands with npw=    6323 for ikpt=  42 by node    4
P newkpt: treating     40 bands with npw=    6319 for ikpt=  43 by node    4
P newkpt: treating     40 bands with npw=    6324 for ikpt=  44 by node    4
P newkpt: treating     40 bands with npw=    6333 for ikpt=  45 by node    4
P newkpt: treating     40 bands with npw=    6330 for ikpt=  46 by node    4
P newkpt: treating     40 bands with npw=    6336 for ikpt=  47 by node    4
P newkpt: treating     40 bands with npw=    6327 for ikpt=  48 by node    4
P newkpt: treating     40 bands with npw=    6328 for ikpt=  49 by node    4
P newkpt: treating     40 bands with npw=    6336 for ikpt=  50 by node    4
 newkpt: prtvol=0 or 1, do not print more k-points.
 
_setup2: Arith. and geom. avg. npw (full set) are    6324.305    6324.298
 
================================================================================
 
     iter   Etot(hartree)      deltaE(h)  residm     vres2
 ETOT  1  -2.3225185098302    -2.323E+00 3.675E-02 1.825E+02
 ETOT  2  -2.3340453904563    -1.153E-02 7.089E-03 1.210E+01
 ETOT  3  -2.3342444373892    -1.990E-04 2.692E-03 1.552E+00
 ETOT  4  -2.3342598491468    -1.541E-05 2.528E-03 4.350E-02
 ETOT  5  -2.3342600281678    -1.790E-07 2.329E-03 4.982E-03
 ETOT  6  -2.3342600488618    -2.069E-08 1.159E-03 7.400E-05
 ETOT  7  -2.3342600491161    -2.542E-10 1.693E-03 9.328E-07
 ETOT  8  -2.3342600491190    -2.965E-12 4.741E-04 1.135E-08
 
 At SCF step    8, etot is converged : 
  for the second time, diff in etot=  2.965E-12 < toldfe=  1.000E-09
 
 Cartesian components of stress tensor (hartree/bohr^3)
  sigma(1 1)=  6.18418008E-08  sigma(3 2)=  0.00000000E+00
  sigma(2 2)=  6.16882615E-08  sigma(3 1)=  0.00000000E+00
  sigma(3 3)=  3.71156362E-06  sigma(2 1)= -1.32968959E-10
 
================================================================================
 
 ----iterations are completed or convergence reached----
 
 Mean square residual over all n,k,spin=   5.8216E-07; max=  4.7412E-04
   0.0500  0.0500  0.0625    1  5.54485E-05 kpt; spin; max resid(k); each band:
  1.21E-12 1.75E-13 4.72E-13 4.90E-12 6.03E-12 8.56E-13 1.18E-12 2.52E-12
  2.07E-12 1.17E-12 4.90E-12 2.87E-12 2.48E-12 3.14E-12 3.05E-12 2.06E-12
  2.12E-12 1.31E-12 2.25E-12 1.13E-12 1.75E-12 4.03E-12 4.30E-12 1.02E-12
  1.67E-12 4.11E-12 6.93E-13 1.03E-12 1.07E-12 1.29E-12 1.12E-12 8.99E-13
  8.53E-13 1.74E-12 5.20E-12 1.47E-12 2.34E-12 3.47E-11 8.35E-08 5.54E-05
   0.1500  0.0500  0.0625    1  2.01505E-05 kpt; spin; max resid(k); each band:
  1.11E-12 1.76E-13 7.30E-13 4.52E-12 5.98E-12 2.35E-12 1.06E-12 3.75E-12
  3.33E-12 2.22E-12 2.31E-12 1.39E-12 2.47E-12 2.44E-12 2.54E-12 1.60E-12
  2.33E-12 1.54E-12 2.08E-12 1.36E-12 3.30E-12 2.78E-12 3.96E-12 1.64E-12
  2.62E-12 2.38E-12 1.28E-12 7.75E-13 9.85E-13 3.75E-12 1.94E-12 2.22E-12
  7.41E-13 7.22E-13 2.72E-12 2.55E-12 1.61E-10 1.22E-10 1.76E-07 2.02E-05
   0.2500  0.0500  0.0625    1  2.35393E-07 kpt; spin; max resid(k); each band:
  9.70E-13 2.01E-13 1.05E-12 4.08E-12 6.19E-12 2.39E-12 1.66E-12 4.94E-12
  3.21E-12 9.70E-13 1.27E-12 3.77E-12 2.99E-13 1.56E-12 2.65E-12 5.78E-13
  1.65E-12 1.50E-12 2.25E-12 1.22E-12 4.31E-12 1.52E-12 2.51E-12 3.26E-12
  3.36E-12 1.50E-12 1.13E-12 1.55E-12 4.59E-12 8.41E-13 1.31E-12 1.10E-12
  2.19E-12 1.78E-12 1.65E-12 9.37E-13 1.67E-12 4.34E-12 2.06E-08 2.35E-07
   0.3500  0.0500  0.0625    1  5.58991E-08 kpt; spin; max resid(k); each band:
  8.04E-13 2.54E-13 3.89E-12 1.23E-12 6.05E-12 1.84E-12 2.97E-12 5.91E-12
  2.64E-12 7.35E-13 1.10E-12 3.01E-13 3.43E-12 1.55E-12 1.57E-12 8.75E-13
  1.96E-12 2.40E-12 1.63E-12 8.17E-13 8.43E-13 1.46E-12 1.33E-12 5.22E-12
  3.74E-12 2.43E-12 3.01E-12 1.23E-12 2.73E-12 2.25E-12 1.37E-12 1.32E-12
  1.80E-12 1.45E-12 3.69E-12 1.72E-12 2.01E-12 6.64E-12 3.93E-10 5.59E-08
   0.4500  0.0500  0.0625    1  2.17788E-11 kpt; spin; max resid(k); each band:
  6.95E-13 3.13E-13 3.98E-12 8.62E-13 5.66E-12 2.73E-12 3.32E-12 6.57E-12
  1.78E-12 7.41E-13 1.13E-12 3.74E-13 1.84E-12 3.97E-12 2.11E-12 1.16E-12
  1.32E-12 1.05E-12 1.05E-12 8.08E-13 2.94E-12 2.43E-12 2.40E-12 1.69E-12
  1.36E-12 2.69E-12 2.51E-12 2.04E-12 3.00E-12 2.81E-12 4.27E-12 1.63E-12
  1.77E-12 2.32E-12 1.57E-12 2.32E-12 1.53E-12 1.74E-12 2.81E-12 2.18E-11
  -0.4500  0.0500  0.0625    1  9.55403E-09 kpt; spin; max resid(k); each band:
  7.38E-13 2.89E-13 3.96E-12 1.19E-12 5.82E-12 2.18E-12 3.25E-12 6.35E-12
  2.15E-12 7.37E-13 1.12E-12 3.49E-13 2.93E-12 2.23E-12 1.36E-12 1.54E-12
  2.92E-12 9.50E-13 8.41E-13 1.02E-12 1.87E-12 1.58E-12 1.54E-12 4.49E-12
  3.55E-12 3.73E-12 1.53E-12 2.11E-12 1.68E-12 2.08E-12 1.59E-12 1.65E-12
  3.52E-12 1.68E-12 2.63E-12 1.37E-12 1.99E-12 2.25E-12 2.65E-12 9.55E-09
  -0.3500  0.0500  0.0625    1  3.06467E-07 kpt; spin; max resid(k); each band:
  8.82E-13 2.22E-13 2.98E-12 2.33E-12 6.07E-12 2.08E-12 2.36E-12 5.43E-12
  3.01E-12 8.21E-13 1.25E-12 3.63E-12 2.16E-13 1.35E-12 1.96E-12 6.93E-13
  2.01E-12 1.34E-12 1.33E-12 2.00E-12 1.73E-12 5.64E-12 8.87E-13 1.63E-12
  3.20E-12 2.25E-12 1.84E-12 2.74E-12 3.97E-12 8.48E-13 1.24E-12 1.47E-12
  2.12E-12 1.55E-12 1.98E-12 1.97E-12 3.12E-12 9.47E-13 4.19E-08 3.06E-07
  -0.2500  0.0500  0.0625    1  2.22590E-08 kpt; spin; max resid(k); each band:
  1.04E-12 1.78E-13 7.98E-13 4.32E-12 5.88E-12 2.50E-12 1.22E-12 4.36E-12
  3.07E-12 9.12E-13 3.35E-12 1.96E-12 1.98E-12 1.49E-12 2.73E-12 7.26E-13
  1.98E-12 1.51E-12 2.46E-12 1.15E-12 3.85E-12 2.21E-12 2.88E-12 3.07E-12
  3.25E-12 1.35E-12 1.12E-12 9.56E-13 1.58E-12 3.76E-12 1.62E-12 1.03E-12
  1.49E-12 2.10E-12 8.14E-13 2.14E-12 2.42E-12 4.32E-11 2.54E-10 2.23E-08
  -0.1500  0.0500  0.0625    1  7.68552E-10 kpt; spin; max resid(k); each band:
  1.17E-12 1.76E-13 6.46E-13 4.73E-12 6.10E-12 1.96E-12 1.07E-12 3.09E-12
  3.01E-12 1.16E-12 3.30E-12 2.81E-12 2.19E-12 3.05E-12 2.50E-12 2.45E-12
  2.28E-12 1.55E-12 2.00E-12 1.32E-12 1.84E-12 4.33E-12 4.18E-12 1.46E-12
  1.67E-12 3.53E-12 7.67E-13 1.33E-12 8.47E-13 1.43E-12 1.34E-12 1.58E-12
  4.09E-12 9.89E-13 1.11E-12 1.69E-12 3.36E-12 4.36E-11 7.69E-10 1.30E-10
  -0.0500  0.0500  0.0625    1  4.68450E-06 kpt; spin; max resid(k); each band:
  1.23E-12 1.77E-13 4.70E-13 4.97E-12 6.14E-12 2.18E-13 1.48E-12 2.03E-12
  1.30E-12 1.08E-12 6.27E-12 2.34E-12 3.09E-12 2.97E-12 2.77E-12 1.45E-12
  1.92E-12 1.24E-12 2.76E-12 1.05E-12 1.64E-12 3.92E-12 4.37E-12 1.00E-12
  1.84E-12 4.79E-12 9.17E-13 8.62E-13 6.54E-13 1.43E-12 2.46E-12 7.05E-13
  7.82E-13 8.86E-13 1.09E-12 9.57E-13 5.88E-11 2.96E-11 6.11E-10 4.68E-06
   0.0500  0.1500  0.0625    1  7.07928E-06 kpt; spin; max resid(k); each band:
  1.11E-12 1.76E-13 7.34E-13 4.52E-12 5.96E-12 2.36E-12 1.06E-12 3.76E-12
  3.33E-12 2.22E-12 2.30E-12 1.40E-12 2.48E-12 2.44E-12 2.54E-12 1.59E-12
  2.32E-12 1.54E-12 2.09E-12 1.37E-12 3.31E-12 2.78E-12 3.96E-12 1.64E-12
  2.61E-12 2.39E-12 1.29E-12 7.79E-13 9.86E-13 3.73E-12 1.94E-12 2.22E-12
  7.27E-13 7.38E-13 2.80E-12 2.79E-12 6.32E-12 1.01E-11 4.55E-09 7.08E-06
   0.1500  0.1500  0.0625    1  1.15119E-05 kpt; spin; max resid(k); each band:
  9.87E-13 1.79E-13 9.39E-13 4.05E-12 5.75E-12 3.71E-12 1.52E-12 2.55E-12
  3.95E-12 4.74E-12 2.54E-12 9.19E-13 8.71E-13 2.41E-13 1.63E-12 2.40E-12
  1.68E-12 1.64E-12 1.18E-12 1.38E-12 5.18E-12 1.64E-12 2.31E-12 1.61E-12
  3.95E-12 1.46E-12 1.26E-12 1.70E-12 3.45E-12 1.96E-12 9.07E-13 1.02E-12
  1.58E-12 8.41E-13 7.38E-13 1.21E-12 3.39E-12 4.27E-12 1.15E-05 1.97E-06
   0.2500  0.1500  0.0625    1  1.11363E-05 kpt; spin; max resid(k); each band:
  8.42E-13 2.37E-13 3.53E-12 1.42E-12 6.18E-12 4.22E-12 2.13E-12 1.81E-12
  5.09E-12 2.44E-12 2.54E-12 2.03E-12 1.04E-12 3.90E-13 6.42E-13 2.09E-12
  2.56E-12 1.56E-12 1.85E-12 8.61E-13 1.26E-12 8.06E-13 5.18E-12 2.28E-12
  2.64E-12 2.04E-12 2.42E-12 1.54E-12 3.95E-12 2.60E-12 1.48E-12 1.23E-12
  1.26E-12 1.10E-12 8.12E-13 2.37E-12 2.72E-12 2.40E-12 9.55E-10 1.11E-05
   0.3500  0.1500  0.0625    1  7.05815E-07 kpt; spin; max resid(k); each band:
  6.97E-13 2.97E-13 3.59E-12 1.48E-12 5.78E-12 4.36E-12 3.18E-12 1.51E-12
  5.65E-12 1.45E-12 1.24E-12 2.90E-12 5.83E-13 1.44E-12 2.36E-12 1.71E-12
  1.62E-12 1.30E-12 1.49E-12 2.52E-12 8.37E-13 1.78E-12 2.04E-12 2.95E-12
  4.45E-12 1.52E-12 2.69E-12 1.17E-12 3.08E-12 1.57E-12 1.58E-12 2.10E-12
  1.94E-12 1.87E-12 3.42E-12 1.79E-12 5.13E-13 3.07E-12 9.36E-10 7.06E-07
   0.4500  0.1500  0.0625    1  4.14656E-09 kpt; spin; max resid(k); each band:
  6.53E-13 3.23E-13 3.57E-12 1.21E-12 5.63E-12 4.60E-12 3.44E-12 1.50E-12
  5.88E-12 8.37E-13 1.23E-12 7.13E-13 2.29E-12 3.09E-12 1.55E-12 9.55E-13
  1.07E-12 1.18E-12 1.75E-12 2.04E-12 2.40E-12 3.03E-12 8.29E-13 2.77E-12
  2.26E-12 1.14E-12 1.72E-12 3.51E-12 2.49E-12 4.21E-12 1.38E-12 1.90E-12
  2.64E-12 1.63E-12 1.73E-12 2.25E-12 1.92E-12 6.08E-13 1.99E-12 4.15E-09
  -0.4500  0.1500  0.0625    1  2.80339E-09 kpt; spin; max resid(k); each band:
  7.64E-13 2.58E-13 3.63E-12 1.32E-12 6.02E-12 4.34E-12 2.59E-12 1.62E-12
  5.41E-12 2.02E-12 1.37E-12 3.17E-12 4.28E-13 1.06E-12 5.95E-13 2.37E-12
  2.42E-12 1.25E-12 2.32E-12 8.55E-13 9.49E-13 1.90E-12 3.56E-12 2.37E-12
  3.41E-12 2.86E-12 2.22E-12 2.57E-12 2.23E-12 2.34E-12 7.25E-13 1.78E-12
  1.55E-12 1.09E-12 3.32E-12 1.59E-12 6.54E-13 1.67E-12 3.64E-11 2.80E-09
  -0.3500  0.1500  0.0625    1  7.17607E-07 kpt; spin; max resid(k); each band:
  9.17E-13 2.02E-13 1.03E-12 3.90E-12 6.01E-12 4.07E-12 1.80E-12 2.03E-12
  4.59E-12 3.35E-12 3.88E-12 1.13E-12 8.77E-13 3.08E-13 9.69E-13 2.22E-12
  1.73E-12 1.84E-12 1.08E-12 1.52E-12 1.48E-12 6.01E-12 1.03E-12 2.25E-12
  3.38E-12 1.48E-12 1.59E-12 1.36E-12 4.51E-12 1.51E-12 1.90E-12 1.32E-12
  9.00E-13 1.10E-12 9.92E-13 1.49E-12 2.98E-12 7.36E-12 6.65E-09 7.18E-07
  -0.2500  0.1500  0.0625    1  9.00886E-08 kpt; spin; max resid(k); each band:
  1.05E-12 1.76E-13 8.02E-13 4.26E-12 5.87E-12 3.27E-12 1.29E-12 3.29E-12
  4.32E-12 3.83E-12 1.18E-12 1.34E-12 2.04E-12 6.16E-13 2.54E-12 1.98E-12
  1.98E-12 1.46E-12 1.89E-12 1.55E-12 4.66E-12 1.92E-12 3.54E-12 2.35E-12
  2.97E-12 1.38E-12 1.18E-12 1.24E-12 3.55E-12 1.82E-12 1.09E-12 1.16E-12
  7.97E-13 1.93E-12 7.12E-13 2.48E-12 1.89E-12 2.84E-10 3.78E-09 9.01E-08
  -0.1500  0.1500  0.0625    1  2.69767E-07 kpt; spin; max resid(k); each band:
  1.15E-12 1.76E-13 7.15E-13 4.63E-12 6.08E-12 2.07E-12 6.23E-13 3.81E-12
  4.50E-13 3.84E-12 2.76E-12 1.90E-12 2.32E-12 3.75E-12 1.50E-12 1.89E-12
  2.57E-12 1.45E-12 2.00E-12 9.79E-13 2.43E-12 4.30E-12 4.10E-12 1.61E-12
  1.66E-12 3.57E-12 7.90E-13 7.76E-13 8.37E-13 2.24E-12 3.33E-12 3.08E-12
  7.03E-13 1.74E-12 1.80E-12 9.37E-13 1.66E-12 3.31E-11 2.89E-08 2.70E-07
  -0.0500  0.1500  0.0625    1  1.57276E-09 kpt; spin; max resid(k); each band:
  1.17E-12 1.76E-13 6.49E-13 4.72E-12 6.08E-12 1.96E-12 1.07E-12 3.11E-12
  3.00E-12 1.16E-12 3.29E-12 2.82E-12 2.19E-12 3.05E-12 2.49E-12 2.45E-12
  2.28E-12 1.55E-12 2.00E-12 1.32E-12 1.84E-12 4.32E-12 4.17E-12 1.46E-12
  1.67E-12 3.53E-12 7.70E-13 1.33E-12 8.49E-13 1.42E-12 1.33E-12 1.58E-12
  4.10E-12 9.89E-13 1.11E-12 1.73E-12 4.18E-12 1.73E-10 1.57E-09 7.95E-10
   0.0500  0.2500  0.0625    1  7.30677E-06 kpt; spin; max resid(k); each band:
  9.70E-13 2.02E-13 1.05E-12 4.08E-12 6.16E-12 2.40E-12 1.66E-12 4.96E-12
  3.21E-12 9.76E-13 1.27E-12 3.76E-12 3.04E-13 1.56E-12 2.66E-12 5.74E-13
  1.64E-12 1.49E-12 2.26E-12 1.22E-12 4.32E-12 1.53E-12 2.50E-12 3.27E-12
  3.36E-12 1.50E-12 1.14E-12 1.55E-12 4.58E-12 8.39E-13 1.31E-12 1.11E-12
  2.19E-12 1.80E-12 1.64E-12 9.49E-13 1.67E-12 5.24E-12 7.97E-08 7.31E-06
   0.1500  0.2500  0.0625    1  9.33362E-05 kpt; spin; max resid(k); each band:
  8.42E-13 2.36E-13 3.53E-12 1.42E-12 6.15E-12 4.16E-12 2.13E-12 1.83E-12
  5.04E-12 2.43E-12 2.63E-12 2.09E-12 1.00E-12 3.90E-13 6.37E-13 2.09E-12
  2.56E-12 1.55E-12 1.86E-12 8.72E-13 1.25E-12 8.00E-13 5.21E-12 2.32E-12
  2.67E-12 2.06E-12 2.41E-12 1.53E-12 3.87E-12 2.62E-12 1.47E-12 1.21E-12
  1.26E-12 1.11E-12 8.15E-13 2.39E-12 2.82E-12 2.25E-12 3.41E-10 9.33E-05
   0.2500  0.2500  0.0625    1  2.61434E-09 kpt; spin; max resid(k); each band:
  7.00E-13 3.11E-13 3.11E-12 2.11E-12 6.17E-12 5.03E-12 2.59E-12 1.36E-12
  7.74E-13 4.30E-12 2.22E-12 1.29E-12 1.37E-12 5.60E-13 5.34E-13 2.69E-12
  1.33E-12 1.71E-12 2.86E-12 1.18E-12 8.37E-13 2.67E-12 3.66E-12 3.20E-12
  1.36E-12 3.31E-12 2.53E-12 1.49E-12 1.89E-12 3.03E-12 9.04E-13 2.07E-12
  5.61E-13 6.16E-13 1.74E-12 1.92E-12 3.93E-12 4.46E-12 1.93E-10 2.61E-09
   0.3500  0.2500  0.0625    1  2.32853E-06 kpt; spin; max resid(k); each band:
  5.81E-13 4.03E-13 2.66E-12 3.18E-12 5.47E-12 5.42E-12 3.40E-12 1.31E-12
  7.47E-13 3.81E-12 1.91E-12 1.39E-12 2.96E-12 1.45E-12 1.29E-12 1.04E-12
  7.47E-13 1.31E-12 3.25E-12 2.46E-12 2.37E-12 2.19E-12 2.50E-12 8.40E-13
  9.30E-13 3.53E-12 6.49E-13 9.93E-13 1.55E-12 3.34E-12 1.37E-12 2.63E-12
  3.19E-12 1.56E-12 3.00E-12 2.20E-12 1.92E-12 7.58E-12 3.97E-11 2.33E-06
   0.4500  0.2500  0.0625    1  9.31553E-06 kpt; spin; max resid(k); each band:
  6.32E-13 3.67E-13 2.81E-12 2.72E-12 5.44E-12 5.83E-12 3.00E-12 1.33E-12
  7.23E-13 3.70E-12 2.42E-12 1.33E-12 1.60E-12 8.70E-13 2.90E-12 8.29E-13
  8.46E-13 1.54E-12 2.86E-12 1.89E-12 1.34E-12 3.29E-12 2.70E-12 1.40E-12
  9.73E-13 3.47E-12 1.90E-12 2.98E-12 1.21E-12 1.39E-12 1.57E-12 2.25E-12
  4.90E-13 2.01E-12 2.90E-12 3.80E-12 3.76E-12 1.11E-11 2.64E-07 9.32E-06
  -0.4500  0.2500  0.0625    1  3.07768E-06 kpt; spin; max resid(k); each band:
  7.72E-13 2.66E-13 3.45E-12 1.53E-12 6.16E-12 4.79E-12 2.32E-12 1.41E-12
  1.46E-12 4.13E-12 3.24E-12 1.37E-12 1.23E-12 4.78E-13 4.22E-13 2.78E-12
  1.94E-12 1.83E-12 1.86E-12 7.12E-13 9.54E-13 2.03E-12 4.15E-12 2.15E-12
  2.70E-12 3.33E-12 1.18E-12 3.31E-12 1.70E-12 2.52E-12 2.17E-12 8.76E-13
  7.56E-13 6.23E-13 1.11E-12 1.77E-12 4.29E-12 2.43E-12 4.64E-09 3.08E-06
  -0.3500  0.2500  0.0625    1  1.20194E-05 kpt; spin; max resid(k); each band:
  9.06E-13 2.13E-13 1.66E-12 3.48E-12 6.12E-12 3.40E-12 1.93E-12 3.52E-12
  4.25E-12 1.25E-12 1.17E-12 4.40E-12 4.49E-13 1.01E-12 2.03E-12 1.44E-12
  1.72E-12 1.75E-12 1.21E-12 1.71E-12 1.60E-12 5.77E-12 8.61E-13 2.96E-12
  2.99E-12 1.52E-12 1.80E-12 1.73E-12 4.31E-12 1.36E-12 1.01E-12 2.01E-12
  1.46E-12 1.29E-12 1.86E-12 7.21E-13 1.96E-12 3.94E-12 5.47E-12 1.20E-05
  -0.2500  0.2500  0.0625    1  8.61587E-06 kpt; spin; max resid(k); each band:
  1.01E-12 1.91E-13 8.73E-13 4.28E-12 6.22E-12 8.52E-13 2.31E-12 5.26E-12
  3.00E-12 8.11E-13 1.70E-12 3.08E-12 7.82E-13 3.08E-12 1.95E-12 5.45E-13
  1.83E-12 1.41E-12 2.66E-12 1.01E-12 3.74E-12 2.00E-12 2.83E-12 2.33E-12
  4.10E-12 1.36E-12 6.84E-13 1.37E-12 7.62E-13 4.89E-12 6.30E-13 1.82E-12
  1.67E-12 2.13E-12 1.97E-12 2.07E-12 1.86E-12 3.65E-12 2.75E-06 8.62E-06
  -0.1500  0.2500  0.0625    1  4.07220E-08 kpt; spin; max resid(k); each band:
  1.05E-12 1.76E-13 8.01E-13 4.25E-12 5.86E-12 3.26E-12 1.29E-12 3.32E-12
  4.31E-12 3.82E-12 1.18E-12 1.34E-12 2.04E-12 6.16E-13 2.53E-12 1.98E-12
  1.98E-12 1.47E-12 1.89E-12 1.55E-12 4.66E-12 1.93E-12 3.53E-12 2.35E-12
  2.98E-12 1.38E-12 1.18E-12 1.23E-12 3.55E-12 1.83E-12 1.10E-12 1.15E-12
  7.91E-13 1.95E-12 7.06E-13 2.44E-12 1.79E-12 1.25E-10 1.59E-09 4.07E-08
  -0.0500  0.2500  0.0625    1  8.22954E-09 kpt; spin; max resid(k); each band:
  1.04E-12 1.78E-13 7.99E-13 4.32E-12 5.86E-12 2.51E-12 1.23E-12 4.40E-12
  3.06E-12 9.14E-13 3.34E-12 1.96E-12 1.99E-12 1.50E-12 2.73E-12 7.23E-13
  1.98E-12 1.51E-12 2.47E-12 1.16E-12 3.85E-12 2.22E-12 2.89E-12 3.06E-12
  3.25E-12 1.35E-12 1.12E-12 9.57E-13 1.58E-12 3.76E-12 1.63E-12 1.03E-12
  1.49E-12 2.11E-12 8.12E-13 2.15E-12 2.49E-12 3.24E-12 9.59E-11 8.23E-09
   0.0500  0.3500  0.0625    1  2.12388E-07 kpt; spin; max resid(k); each band:
  8.04E-13 2.56E-13 3.88E-12 1.24E-12 6.03E-12 1.85E-12 2.98E-12 5.94E-12
  2.65E-12 7.28E-13 1.11E-12 2.99E-13 3.41E-12 1.55E-12 1.57E-12 8.71E-13
  1.96E-12 2.40E-12 1.63E-12 8.16E-13 8.37E-13 1.47E-12 1.34E-12 5.24E-12
  3.77E-12 2.43E-12 3.00E-12 1.23E-12 2.74E-12 2.24E-12 1.37E-12 1.33E-12
  1.80E-12 1.46E-12 3.70E-12 1.72E-12 2.01E-12 5.28E-12 6.99E-10 2.12E-07
   0.1500  0.3500  0.0625    1  1.10804E-07 kpt; spin; max resid(k); each band:
  6.97E-13 2.99E-13 3.58E-12 1.49E-12 5.76E-12 4.38E-12 3.19E-12 1.52E-12
  5.67E-12 1.44E-12 1.25E-12 2.90E-12 5.82E-13 1.44E-12 2.35E-12 1.71E-12
  1.62E-12 1.31E-12 1.50E-12 2.52E-12 8.33E-13 1.78E-12 2.05E-12 2.97E-12
  4.45E-12 1.52E-12 2.70E-12 1.16E-12 3.09E-12 1.57E-12 1.57E-12 2.11E-12
  1.94E-12 1.86E-12 3.44E-12 1.78E-12 4.95E-13 2.50E-12 8.70E-11 1.11E-07
   0.2500  0.3500  0.0625    1  4.63288E-05 kpt; spin; max resid(k); each band:
  5.80E-13 4.06E-13 2.66E-12 3.17E-12 5.47E-12 5.43E-12 3.41E-12 1.32E-12
  7.46E-13 3.70E-12 1.91E-12 1.39E-12 2.96E-12 1.45E-12 1.29E-12 1.02E-12
  7.34E-13 1.31E-12 3.26E-12 2.46E-12 2.37E-12 2.18E-12 2.52E-12 8.34E-13
  9.27E-13 3.54E-12 6.48E-13 9.92E-13 1.55E-12 3.32E-12 1.38E-12 2.64E-12
  3.18E-12 1.58E-12 3.05E-12 2.20E-12 1.79E-12 2.49E-11 3.82E-11 4.63E-05
   0.3500  0.3500  0.0625    1  4.32083E-05 kpt; spin; max resid(k); each band:
  5.27E-13 4.43E-13 2.29E-12 4.29E-12 5.30E-12 4.80E-12 3.96E-12 1.32E-12
  7.57E-13 2.89E-12 2.45E-12 7.98E-13 2.42E-12 1.72E-12 9.68E-13 9.34E-13
  6.57E-13 5.10E-13 3.12E-12 3.11E-12 1.51E-12 2.54E-12 2.67E-12 9.08E-13
  3.24E-12 1.22E-12 5.04E-13 3.37E-13 4.77E-13 5.89E-13 3.15E-12 3.79E-12
  2.74E-12 2.19E-12 3.41E-12 2.97E-12 1.08E-11 6.97E-10 5.44E-07 4.32E-05
   0.4500  0.3500  0.0625    1  7.05288E-09 kpt; spin; max resid(k); each band:
  6.39E-13 3.47E-13 3.17E-12 2.13E-12 5.50E-12 5.38E-12 3.15E-12 1.39E-12
  7.94E-13 4.32E-12 1.43E-12 2.50E-12 6.85E-13 2.09E-12 2.41E-12 9.76E-13
  9.42E-13 1.49E-12 1.89E-12 2.98E-12 1.56E-12 3.10E-12 1.20E-12 2.35E-12
  1.24E-12 3.45E-12 2.54E-12 1.94E-12 1.48E-12 2.28E-12 1.98E-12 2.24E-12
  2.46E-12 2.83E-12 5.10E-13 2.52E-12 1.56E-12 2.65E-12 8.65E-11 7.05E-09
  -0.4500  0.3500  0.0625    1  1.91875E-08 kpt; spin; max resid(k); each band:
  7.53E-13 2.73E-13 3.82E-12 1.26E-12 5.97E-12 3.11E-12 3.33E-12 3.43E-12
  4.80E-12 8.16E-13 1.16E-12 8.89E-13 3.13E-12 1.33E-12 1.01E-12 2.18E-12
  2.68E-12 1.09E-12 1.92E-12 1.26E-12 1.04E-12 1.26E-12 1.39E-12 4.69E-12
  3.47E-12 3.54E-12 1.80E-12 3.24E-12 1.52E-12 1.04E-12 1.71E-12 1.24E-12
  1.80E-12 3.48E-12 1.65E-12 1.89E-12 2.40E-12 2.73E-12 7.66E-12 1.92E-08
  -0.3500  0.3500  0.0625    1  1.62474E-07 kpt; spin; max resid(k); each band:
  8.59E-13 2.36E-13 3.72E-12 1.51E-12 6.22E-12 1.24E-12 2.33E-12 6.29E-12
  2.53E-12 1.15E-12 7.37E-13 2.14E-13 3.64E-12 2.48E-12 1.15E-12 7.33E-13
  1.84E-12 1.34E-12 1.40E-12 2.24E-12 1.48E-12 9.30E-13 5.18E-12 7.51E-13
  3.95E-12 2.15E-12 2.43E-12 3.06E-12 8.50E-13 3.22E-12 1.51E-12 1.48E-12
  1.39E-12 1.78E-12 3.60E-12 1.51E-12 1.92E-12 5.58E-12 1.32E-11 1.62E-07
  -0.2500  0.3500  0.0625    1  3.29075E-06 kpt; spin; max resid(k); each band:
  9.06E-13 2.13E-13 1.66E-12 3.48E-12 6.11E-12 3.40E-12 1.93E-12 3.55E-12
  4.24E-12 1.24E-12 1.17E-12 4.40E-12 4.50E-13 1.01E-12 2.03E-12 1.43E-12
  1.72E-12 1.76E-12 1.21E-12 1.73E-12 1.60E-12 5.77E-12 8.61E-13 2.97E-12
  2.99E-12 1.53E-12 1.79E-12 1.73E-12 4.31E-12 1.36E-12 1.01E-12 2.01E-12
  1.47E-12 1.29E-12 1.86E-12 7.12E-13 1.94E-12 4.15E-12 3.46E-12 3.29E-06
  -0.1500  0.3500  0.0625    1  1.20166E-05 kpt; spin; max resid(k); each band:
  9.17E-13 2.03E-13 1.03E-12 3.90E-12 6.00E-12 4.06E-12 1.81E-12 2.04E-12
  4.61E-12 3.34E-12 3.88E-12 1.14E-12 8.82E-13 3.11E-13 9.65E-13 2.21E-12
  1.73E-12 1.85E-12 1.07E-12 1.54E-12 1.48E-12 6.02E-12 1.03E-12 2.25E-12
  3.38E-12 1.48E-12 1.59E-12 1.36E-12 4.52E-12 1.50E-12 1.91E-12 1.32E-12
  9.10E-13 1.10E-12 9.92E-13 1.47E-12 2.75E-12 2.64E-11 5.95E-08 1.20E-05
  -0.0500  0.3500  0.0625    1  1.82008E-06 kpt; spin; max resid(k); each band:
  8.82E-13 2.23E-13 2.98E-12 2.33E-12 6.04E-12 2.09E-12 2.37E-12 5.47E-12
  3.01E-12 8.12E-13 1.26E-12 3.61E-12 2.15E-13 1.35E-12 1.97E-12 6.88E-13
  2.02E-12 1.34E-12 1.32E-12 2.01E-12 1.74E-12 5.65E-12 8.83E-13 1.65E-12
  3.20E-12 2.25E-12 1.84E-12 2.74E-12 3.96E-12 8.49E-13 1.25E-12 1.49E-12
  2.13E-12 1.55E-12 1.96E-12 2.01E-12 3.15E-12 9.97E-13 7.93E-07 1.82E-06
   0.0500  0.4500  0.0625    1  5.85188E-10 kpt; spin; max resid(k); each band:
  6.95E-13 3.15E-13 3.97E-12 8.60E-13 5.65E-12 2.74E-12 3.33E-12 6.62E-12
  1.79E-12 7.33E-13 1.14E-12 3.73E-13 1.83E-12 3.95E-12 2.10E-12 1.16E-12
  1.31E-12 1.06E-12 1.06E-12 8.04E-13 2.95E-12 2.43E-12 2.40E-12 1.69E-12
  1.37E-12 2.70E-12 2.53E-12 2.06E-12 2.99E-12 2.81E-12 4.28E-12 1.62E-12
  1.76E-12 2.32E-12 1.56E-12 2.34E-12 1.53E-12 1.74E-12 2.85E-12 5.85E-10
   0.1500  0.4500  0.0625    1  2.07261E-09 kpt; spin; max resid(k); each band:
  6.53E-13 3.26E-13 3.56E-12 1.21E-12 5.62E-12 4.61E-12 3.45E-12 1.50E-12
  5.92E-12 8.32E-13 1.25E-12 7.13E-13 2.28E-12 3.08E-12 1.55E-12 9.49E-13
  1.06E-12 1.18E-12 1.75E-12 2.04E-12 2.41E-12 3.03E-12 8.29E-13 2.78E-12
  2.27E-12 1.13E-12 1.72E-12 3.52E-12 2.51E-12 4.20E-12 1.38E-12 1.90E-12
  2.65E-12 1.63E-12 1.73E-12 2.26E-12 1.91E-12 5.94E-13 1.91E-12 2.07E-09
   0.2500  0.4500  0.0625    1  7.82364E-05 kpt; spin; max resid(k); each band:
  6.31E-13 3.66E-13 2.81E-12 2.73E-12 5.42E-12 5.85E-12 2.99E-12 1.33E-12
  7.23E-13 3.83E-12 2.40E-12 1.33E-12 1.58E-12 8.71E-13 2.88E-12 8.26E-13
  8.40E-13 1.54E-12 2.88E-12 1.89E-12 1.35E-12 3.30E-12 2.70E-12 1.40E-12
  9.73E-13 3.45E-12 1.90E-12 3.00E-12 1.21E-12 1.41E-12 1.58E-12 2.25E-12
  4.82E-13 2.01E-12 2.96E-12 4.03E-12 1.47E-11 3.22E-11 2.33E-07 7.82E-05
   0.3500  0.4500  0.0625    1  1.73362E-07 kpt; spin; max resid(k); each band:
  6.39E-13 3.47E-13 3.17E-12 2.14E-12 5.50E-12 5.37E-12 3.15E-12 1.39E-12
  7.91E-13 4.32E-12 1.43E-12 2.50E-12 6.85E-13 2.08E-12 2.41E-12 9.73E-13
  9.40E-13 1.49E-12 1.88E-12 2.99E-12 1.57E-12 3.09E-12 1.20E-12 2.35E-12
  1.25E-12 3.44E-12 2.54E-12 1.97E-12 1.48E-12 2.28E-12 1.98E-12 2.24E-12
  2.46E-12 2.83E-12 5.06E-13 2.51E-12 1.62E-12 3.29E-12 3.90E-10 1.73E-07
   0.4500  0.4500  0.0625    1  6.21025E-12 kpt; spin; max resid(k); each band:
  6.73E-13 3.20E-13 3.83E-12 6.23E-13 5.79E-12 2.86E-12 4.35E-12 1.61E-12
  6.21E-12 7.30E-13 1.19E-12 4.14E-13 1.29E-12 4.16E-12 1.05E-12 9.17E-13
  1.21E-12 1.58E-12 9.17E-13 1.05E-12 3.69E-12 2.54E-12 1.27E-12 2.03E-12
  1.11E-12 1.98E-12 1.50E-12 3.07E-12 3.55E-12 4.44E-12 2.61E-12 2.09E-12
  1.50E-12 1.54E-12 2.01E-12 1.25E-12 1.33E-12 2.75E-12 2.16E-12 4.86E-13
  -0.4500  0.4500  0.0625    1  4.54330E-09 kpt; spin; max resid(k); each band:
  7.31E-13 3.02E-13 4.01E-12 1.11E-12 5.80E-12 2.47E-12 2.33E-12 6.74E-12
  1.91E-12 1.30E-12 7.60E-13 3.66E-13 2.43E-12 3.81E-12 9.23E-13 2.08E-12
  2.49E-12 1.09E-12 7.16E-13 7.36E-13 1.40E-12 2.98E-12 2.87E-12 9.60E-13
  3.82E-12 1.04E-12 4.30E-12 1.37E-12 8.36E-13 1.84E-12 4.23E-12 1.99E-12
  1.49E-12 2.19E-12 2.51E-12 1.88E-12 1.50E-12 1.67E-12 2.95E-10 4.54E-09
  -0.3500  0.4500  0.0625    1  5.06893E-09 kpt; spin; max resid(k); each band:
  7.53E-13 2.73E-13 3.82E-12 1.26E-12 5.97E-12 3.11E-12 3.33E-12 3.44E-12
  4.78E-12 8.17E-13 1.16E-12 8.90E-13 3.14E-12 1.33E-12 1.01E-12 2.18E-12
  2.68E-12 1.09E-12 1.93E-12 1.26E-12 1.04E-12 1.25E-12 1.39E-12 4.70E-12
  3.46E-12 3.55E-12 1.81E-12 3.23E-12 1.52E-12 1.04E-12 1.72E-12 1.23E-12
  1.80E-12 3.47E-12 1.65E-12 1.90E-12 2.32E-12 2.74E-12 3.03E-12 5.07E-09
  -0.2500  0.4500  0.0625    1  9.52043E-07 kpt; spin; max resid(k); each band:
  7.72E-13 2.66E-13 3.44E-12 1.53E-12 6.15E-12 4.78E-12 2.32E-12 1.41E-12
  1.45E-12 4.12E-12 3.24E-12 1.38E-12 1.22E-12 4.81E-13 4.18E-13 2.79E-12
  1.93E-12 1.84E-12 1.87E-12 7.19E-13 9.52E-13 2.04E-12 4.16E-12 2.16E-12
  2.69E-12 3.33E-12 1.17E-12 3.31E-12 1.71E-12 2.51E-12 2.18E-12 8.77E-13
  7.49E-13 6.22E-13 1.11E-12 1.80E-12 4.32E-12 2.28E-12 1.30E-09 9.52E-07
  -0.1500  0.4500  0.0625    1  2.50138E-09 kpt; spin; max resid(k); each band:
  7.64E-13 2.59E-13 3.62E-12 1.33E-12 6.00E-12 4.35E-12 2.59E-12 1.63E-12
  5.43E-12 2.02E-12 1.38E-12 3.17E-12 4.28E-13 1.05E-12 5.90E-13 2.36E-12
  2.43E-12 1.25E-12 2.33E-12 8.55E-13 9.45E-13 1.91E-12 3.57E-12 2.38E-12
  3.41E-12 2.87E-12 2.22E-12 2.57E-12 2.23E-12 2.34E-12 7.22E-13 1.78E-12
  1.54E-12 1.10E-12 3.32E-12 1.59E-12 6.42E-13 1.67E-12 1.01E-11 2.50E-09
  -0.0500  0.4500  0.0625    1  8.15940E-09 kpt; spin; max resid(k); each band:
  7.38E-13 2.90E-13 3.96E-12 1.19E-12 5.80E-12 2.18E-12 3.26E-12 6.40E-12
  2.16E-12 7.28E-13 1.13E-12 3.48E-13 2.92E-12 2.22E-12 1.37E-12 1.53E-12
  2.91E-12 9.48E-13 8.39E-13 1.03E-12 1.88E-12 1.58E-12 1.55E-12 4.51E-12
  3.55E-12 3.74E-12 1.52E-12 2.11E-12 1.69E-12 2.08E-12 1.60E-12 1.66E-12
  3.52E-12 1.67E-12 2.63E-12 1.37E-12 1.99E-12 2.23E-12 2.54E-12 8.16E-09
 outwf : prtvol=0 or 1, do not print more k-points.
 
 reduced coordinates (array xred) for    4 atoms
       0.666670000000      0.333340000000      0.825020000000
       0.333330000000      0.666660000000      0.174980000000
       0.333330000000      0.666660000000      0.325020000000
       0.666670000000      0.333340000000      0.674980000000
 rms dE/dt=  3.3524E-03; max dE/dt=  5.8066E-03; dE/dt below (all hartree)
    1       0.000000000000      0.000000079190      0.005806592813
    2       0.000000000000     -0.000000079190     -0.005806592813
    3       0.000000000000     -0.000000079190      0.005806592813
    4       0.000000000000      0.000000079190     -0.005806592813
 
 cartesian coordinates (angstrom) at end:
    1     -2.00381503903716    -1.15688001436082    -4.12763281364570
    2     -2.00377496313714     1.15688001436082    -0.87543718907629
    3     -2.00377496313714     1.15688001436082    -1.62609781228470
    4     -2.00381503903716    -1.15688001436082    -3.37697219043729
 
 cartesian forces (hartree/bohr) at end:
    1      0.00000001045657    -0.00000000603710     0.00061416621683
    2     -0.00000001045657     0.00000000603710    -0.00061416621683
    3     -0.00000001045657     0.00000000603710     0.00061416621683
    4      0.00000001045657    -0.00000000603710    -0.00061416621683
 frms,max,avg= 3.5458903E-04 6.1416622E-04   0.000E+00  0.000E+00  0.000E+00 h/b
 
 cartesian forces (eV/Angstrom) at end:
    1      0.00000053769825    -0.00000031044023     0.03158169401260
    2     -0.00000053769825     0.00000031044023    -0.03158169401260
    3     -0.00000053769825     0.00000031044023     0.03158169401260
    4      0.00000053769825    -0.00000031044023    -0.03158169401260
 frms,max,avg= 1.8233700E-02 3.1581694E-02   0.000E+00  0.000E+00  0.000E+00 e/A
 length scales=  1.000000000000  1.000000000000  1.000000000000 bohr
              =  0.529177208590  0.529177208590  0.529177208590 angstroms
 prteigrs : about to open file /home/acad/ucl-naps/setten/software/pseudo_dojo/pseudo_dojo/pseudos/ONCVPSP-PBE-PDv0.3/H/test/H.psp8_DOJO/EbandsAt43/t0/outdata/out_EIG
 Fermi (or HOMO) energy (hartree) =   0.01480   Average Vxc (hartree)=  -0.16199
 Eigenvalues (hartree) for nkpt= 200  k points:
 kpt#   1, nband= 40, wtk=  0.00500, kpt=  0.0500  0.0500  0.0625 (reduced coord)
  -0.37025  -0.32485   0.02974   0.09652   0.20512   0.25913   0.26633   0.28216
   0.34432   0.35167   0.42636   0.45687   0.49190   0.49515   0.51722   0.54096
   0.55101   0.56547   0.59565   0.62501   0.64769   0.68994   0.78982   0.84142
   0.95246   1.02206   1.08165   1.10235   1.11792   1.14332   1.14796   1.18798
   1.19763   1.20910   1.21552   1.21556   1.23152   1.25970   1.29068   1.30927
      occupation numbers for kpt#   1
   2.00000   2.00000   0.00000   0.00000   0.00000   0.00000   0.00000   0.00000
   0.00000   0.00000   0.00000   0.00000   0.00000   0.00000   0.00000   0.00000
   0.00000   0.00000   0.00000   0.00000   0.00000   0.00000   0.00000   0.00000
   0.00000   0.00000   0.00000   0.00000   0.00000   0.00000   0.00000   0.00000
   0.00000   0.00000   0.00000   0.00000   0.00000   0.00000   0.00000   0.00000
 kpt#   2, nband= 40, wtk=  0.00500, kpt=  0.1500  0.0500  0.0625 (reduced coord)
  -0.36639  -0.32570   0.03881   0.08610   0.17593   0.23184   0.24614   0.28337
   0.36657   0.38894   0.39963   0.43289   0.46364   0.49087   0.52037   0.54528
   0.58758   0.61528   0.66472   0.67538   0.71368   0.72459   0.80797   0.82612
   0.91869   0.92020   1.02302   1.02987   1.07828   1.11607   1.13629   1.14032
   1.15995   1.17920   1.21397   1.22997   1.24834   1.25109   1.27830   1.29779
      occupation numbers for kpt#   2
   2.00000   2.00000   0.00000   0.00000   0.00000   0.00000   0.00000   0.00000
   0.00000   0.00000   0.00000   0.00000   0.00000   0.00000   0.00000   0.00000
   0.00000   0.00000   0.00000   0.00000   0.00000   0.00000   0.00000   0.00000
   0.00000   0.00000   0.00000   0.00000   0.00000   0.00000   0.00000   0.00000
   0.00000   0.00000   0.00000   0.00000   0.00000   0.00000   0.00000   0.00000
 kpt#   3, nband= 40, wtk=  0.00500, kpt=  0.2500  0.0500  0.0625 (reduced coord)
  -0.36022  -0.32756   0.05395   0.07190   0.15055   0.20613   0.21993   0.27702
   0.34374   0.39178   0.39886   0.44046   0.47652   0.49641   0.53701   0.58449
   0.65908   0.67519   0.70790   0.73748   0.76638   0.78589   0.81368   0.82644
   0.85065   0.89555   0.91120   0.98213   1.03019   1.04210   1.09070   1.10669
   1.12519   1.15000   1.16107   1.19770   1.20751   1.24818   1.28468   1.29576
      occupation numbers for kpt#   3
   2.00000   2.00000   0.00000   0.00000   0.00000   0.00000   0.00000   0.00000
   0.00000   0.00000   0.00000   0.00000   0.00000   0.00000   0.00000   0.00000
   0.00000   0.00000   0.00000   0.00000   0.00000   0.00000   0.00000   0.00000
   0.00000   0.00000   0.00000   0.00000   0.00000   0.00000   0.00000   0.00000
   0.00000   0.00000   0.00000   0.00000   0.00000   0.00000   0.00000   0.00000
 kpt#   4, nband= 40, wtk=  0.00500, kpt=  0.3500  0.0500  0.0625 (reduced coord)
  -0.35319  -0.33062   0.05517   0.07808   0.13341   0.18219   0.19805   0.27040
   0.31421   0.37791   0.38578   0.46724   0.49667   0.54868   0.59016   0.62553
   0.69541   0.71532   0.73979   0.75665   0.77818   0.79995   0.81125   0.81384
   0.87972   0.90790   0.92239   0.96904   0.97412   0.98639   1.01175   1.04407
   1.07756   1.08856   1.10624   1.17317   1.18141   1.22836   1.26397   1.28328
      occupation numbers for kpt#   4
   2.00000   2.00000   0.00000   0.00000   0.00000   0.00000   0.00000   0.00000
   0.00000   0.00000   0.00000   0.00000   0.00000   0.00000   0.00000   0.00000
   0.00000   0.00000   0.00000   0.00000   0.00000   0.00000   0.00000   0.00000
   0.00000   0.00000   0.00000   0.00000   0.00000   0.00000   0.00000   0.00000
   0.00000   0.00000   0.00000   0.00000   0.00000   0.00000   0.00000   0.00000
 kpt#   5, nband= 40, wtk=  0.00500, kpt=  0.4500  0.0500  0.0625 (reduced coord)
  -0.34821  -0.33354   0.04838   0.09924   0.11901   0.16594   0.18888   0.26807
   0.29947   0.36810   0.38184   0.46177   0.55759   0.59006   0.62817   0.65835
   0.67043   0.67801   0.71213   0.73840   0.81212   0.83034   0.85419   0.87593
   0.88547   0.89898   0.91786   0.94953   0.95382   0.96750   0.99064   1.03163
   1.05287   1.06688   1.09993   1.10323   1.15365   1.17502   1.21433   1.27423
      occupation numbers for kpt#   5
   2.00000   2.00000   0.00000   0.00000   0.00000   0.00000   0.00000   0.00000
   0.00000   0.00000   0.00000   0.00000   0.00000   0.00000   0.00000   0.00000
   0.00000   0.00000   0.00000   0.00000   0.00000   0.00000   0.00000   0.00000
   0.00000   0.00000   0.00000   0.00000   0.00000   0.00000   0.00000   0.00000
   0.00000   0.00000   0.00000   0.00000   0.00000   0.00000   0.00000   0.00000
 kpt#   6, nband= 40, wtk=  0.00500, kpt= -0.4500  0.0500  0.0625 (reduced coord)
  -0.35014  -0.33232   0.05080   0.08934   0.12609   0.17193   0.19189   0.26872
   0.30460   0.37138   0.38322   0.46364   0.52912   0.57282   0.62493   0.64193
   0.67443   0.68557   0.75390   0.75626   0.78008   0.79578   0.84174   0.85078
   0.88327   0.90855   0.92669   0.95470   0.96796   0.98674   1.00354   1.02633
   1.04456   1.06284   1.08540   1.15560   1.16675   1.20563   1.22976   1.27566
      occupation numbers for kpt#   6
   2.00000   2.00000   0.00000   0.00000   0.00000   0.00000   0.00000   0.00000
   0.00000   0.00000   0.00000   0.00000   0.00000   0.00000   0.00000   0.00000
   0.00000   0.00000   0.00000   0.00000   0.00000   0.00000   0.00000   0.00000
   0.00000   0.00000   0.00000   0.00000   0.00000   0.00000   0.00000   0.00000
   0.00000   0.00000   0.00000   0.00000   0.00000   0.00000   0.00000   0.00000
 kpt#   7, nband= 40, wtk=  0.00500, kpt= -0.3500  0.0500  0.0625 (reduced coord)
  -0.35669  -0.32896   0.05917   0.06933   0.14119   0.19411   0.20757   0.27328
   0.32755   0.38729   0.38923   0.46615   0.47224   0.52174   0.56018   0.60506
   0.69760   0.70019   0.72414   0.76112   0.77092   0.78587   0.79413   0.85655
   0.85914   0.86526   0.92325   0.95635   1.00099   1.01149   1.05387   1.07293
   1.10146   1.11153   1.16398   1.17818   1.19038   1.22230   1.29198   1.29896
      occupation numbers for kpt#   7
   2.00000   2.00000   0.00000   0.00000   0.00000   0.00000   0.00000   0.00000
   0.00000   0.00000   0.00000   0.00000   0.00000   0.00000   0.00000   0.00000
   0.00000   0.00000   0.00000   0.00000   0.00000   0.00000   0.00000   0.00000
   0.00000   0.00000   0.00000   0.00000   0.00000   0.00000   0.00000   0.00000
   0.00000   0.00000   0.00000   0.00000   0.00000   0.00000   0.00000   0.00000
 kpt#   8, nband= 40, wtk=  0.00500, kpt= -0.2500  0.0500  0.0625 (reduced coord)
  -0.36352  -0.32648   0.04582   0.07903   0.16215   0.21854   0.23333   0.28079
   0.36050   0.39301   0.40234   0.42871   0.46815   0.48818   0.52319   0.56440
   0.62047   0.64470   0.69039   0.70622   0.74121   0.75824   0.81850   0.82859
   0.86596   0.90135   0.96664   1.00530   1.06023   1.07273   1.11574   1.14705
   1.14979   1.16679   1.17581   1.18526   1.24645   1.26824   1.27535   1.29330
      occupation numbers for kpt#   8
   2.00000   2.00000   0.00000   0.00000   0.00000   0.00000   0.00000   0.00000
   0.00000   0.00000   0.00000   0.00000   0.00000   0.00000   0.00000   0.00000
   0.00000   0.00000   0.00000   0.00000   0.00000   0.00000   0.00000   0.00000
   0.00000   0.00000   0.00000   0.00000   0.00000   0.00000   0.00000   0.00000
   0.00000   0.00000   0.00000   0.00000   0.00000   0.00000   0.00000   0.00000
 kpt#   9, nband= 40, wtk=  0.00500, kpt= -0.1500  0.0500  0.0625 (reduced coord)
  -0.36867  -0.32517   0.03340   0.09213   0.19096   0.24589   0.25734   0.28374
   0.35624   0.37130   0.41540   0.43824   0.47786   0.49676   0.51623   0.53607
   0.56348   0.58837   0.63021   0.64825   0.68324   0.69997   0.79672   0.83420
   0.93788   0.97287   1.05427   1.08069   1.09660   1.12409   1.14521   1.16407
   1.17021   1.19878   1.22079   1.23399   1.25415   1.26958   1.28102   1.28498
      occupation numbers for kpt#   9
   2.00000   2.00000   0.00000   0.00000   0.00000   0.00000   0.00000   0.00000
   0.00000   0.00000   0.00000   0.00000   0.00000   0.00000   0.00000   0.00000
   0.00000   0.00000   0.00000   0.00000   0.00000   0.00000   0.00000   0.00000
   0.00000   0.00000   0.00000   0.00000   0.00000   0.00000   0.00000   0.00000
   0.00000   0.00000   0.00000   0.00000   0.00000   0.00000   0.00000   0.00000
 kpt#  10, nband= 40, wtk=  0.00500, kpt= -0.0500  0.0500  0.0625 (reduced coord)
  -0.37106  -0.32471   0.02790   0.09884   0.21453   0.26587   0.27395   0.28090
   0.33656   0.33752   0.43320   0.48026   0.48107   0.49726   0.53648   0.54087
   0.54987   0.55153   0.57159   0.60918   0.62139   0.68551   0.78652   0.84552
   0.96058   1.05528   1.10221   1.10398   1.12557   1.15692   1.18114   1.18246
   1.19812   1.20818   1.20997   1.21956   1.24449   1.24827   1.26964   1.29129
      occupation numbers for kpt#  10
   2.00000   2.00000   0.00000   0.00000   0.00000   0.00000   0.00000   0.00000
   0.00000   0.00000   0.00000   0.00000   0.00000   0.00000   0.00000   0.00000
   0.00000   0.00000   0.00000   0.00000   0.00000   0.00000   0.00000   0.00000
   0.00000   0.00000   0.00000   0.00000   0.00000   0.00000   0.00000   0.00000
   0.00000   0.00000   0.00000   0.00000   0.00000   0.00000   0.00000   0.00000
 kpt#  11, nband= 40, wtk=  0.00500, kpt=  0.0500  0.1500  0.0625 (reduced coord)
  -0.36639  -0.32570   0.03881   0.08610   0.17593   0.23184   0.24614   0.28337
   0.36657   0.38894   0.39963   0.43289   0.46364   0.49087   0.52037   0.54528
   0.58759   0.61528   0.66472   0.67538   0.71368   0.72459   0.80797   0.82613
   0.91870   0.92020   1.02301   1.02987   1.07827   1.11607   1.13629   1.14032
   1.15995   1.17919   1.21397   1.22997   1.24834   1.25109   1.27830   1.29778
      occupation numbers for kpt#  11
   2.00000   2.00000   0.00000   0.00000   0.00000   0.00000   0.00000   0.00000
   0.00000   0.00000   0.00000   0.00000   0.00000   0.00000   0.00000   0.00000
[...]
                       0.000000  0.000000  0.000000  0.000000  0.000000  0.000000
                       0.000000  0.000000  0.000000  0.000000  0.000000  0.000000
                       0.000000  0.000000  0.000000  0.000000  0.000000  0.000000
                       0.000000  0.000000  0.000000  0.000000
                       2.000000  2.000000  0.000000  0.000000  0.000000  0.000000
                       0.000000  0.000000  0.000000  0.000000  0.000000  0.000000
                       0.000000  0.000000  0.000000  0.000000  0.000000  0.000000
                       0.000000  0.000000  0.000000  0.000000  0.000000  0.000000
                       0.000000  0.000000  0.000000  0.000000  0.000000  0.000000
                       0.000000  0.000000  0.000000  0.000000  0.000000  0.000000
                       0.000000  0.000000  0.000000  0.000000
                       2.000000  2.000000  0.000000  0.000000  0.000000  0.000000
                       0.000000  0.000000  0.000000  0.000000  0.000000  0.000000
                       0.000000  0.000000  0.000000  0.000000  0.000000  0.000000
                       0.000000  0.000000  0.000000  0.000000  0.000000  0.000000
                       0.000000  0.000000  0.000000  0.000000  0.000000  0.000000
                       0.000000  0.000000  0.000000  0.000000  0.000000  0.000000
                       0.000000  0.000000  0.000000  0.000000
                       2.000000  2.000000  0.000000  0.000000  0.000000  0.000000
                       0.000000  0.000000  0.000000  0.000000  0.000000  0.000000
                       0.000000  0.000000  0.000000  0.000000  0.000000  0.000000
                       0.000000  0.000000  0.000000  0.000000  0.000000  0.000000
                       0.000000  0.000000  0.000000  0.000000  0.000000  0.000000
                       0.000000  0.000000  0.000000  0.000000  0.000000  0.000000
                       0.000000  0.000000  0.000000  0.000000
                       2.000000  2.000000  0.000000  0.000000  0.000000  0.000000
                       0.000000  0.000000  0.000000  0.000000  0.000000  0.000000
                       0.000000  0.000000  0.000000  0.000000  0.000000  0.000000
                       0.000000  0.000000  0.000000  0.000000  0.000000  0.000000
                       0.000000  0.000000  0.000000  0.000000  0.000000  0.000000
                       0.000000  0.000000  0.000000  0.000000  0.000000  0.000000
                       0.000000  0.000000  0.000000  0.000000
                       2.000000  2.000000  0.000000  0.000000  0.000000  0.000000
                       0.000000  0.000000  0.000000  0.000000  0.000000  0.000000
                       0.000000  0.000000  0.000000  0.000000  0.000000  0.000000
                       0.000000  0.000000  0.000000  0.000000  0.000000  0.000000
                       0.000000  0.000000  0.000000  0.000000  0.000000  0.000000
                       0.000000  0.000000  0.000000  0.000000  0.000000  0.000000
                       0.000000  0.000000  0.000000  0.000000
                       2.000000  2.000000  0.000000  0.000000  0.000000  0.000000
                       0.000000  0.000000  0.000000  0.000000  0.000000  0.000000
                       0.000000  0.000000  0.000000  0.000000  0.000000  0.000000
                       0.000000  0.000000  0.000000  0.000000  0.000000  0.000000
                       0.000000  0.000000  0.000000  0.000000  0.000000  0.000000
                       0.000000  0.000000  0.000000  0.000000  0.000000  0.000000
                       0.000000  0.000000  0.000000  0.000000
                       2.000000  2.000000  0.000000  0.000000  0.000000  0.000000
                       0.000000  0.000000  0.000000  0.000000  0.000000  0.000000
                       0.000000  0.000000  0.000000  0.000000  0.000000  0.000000
                       0.000000  0.000000  0.000000  0.000000  0.000000  0.000000
                       0.000000  0.000000  0.000000  0.000000  0.000000  0.000000
                       0.000000  0.000000  0.000000  0.000000  0.000000  0.000000
                       0.000000  0.000000  0.000000  0.000000
                       2.000000  2.000000  0.000000  0.000000  0.000000  0.000000
                       0.000000  0.000000  0.000000  0.000000  0.000000  0.000000
                       0.000000  0.000000  0.000000  0.000000  0.000000  0.000000
                       0.000000  0.000000  0.000000  0.000000  0.000000  0.000000
                       0.000000  0.000000  0.000000  0.000000  0.000000  0.000000
                       0.000000  0.000000  0.000000  0.000000  0.000000  0.000000
                       0.000000  0.000000  0.000000  0.000000
                       2.000000  2.000000  0.000000  0.000000  0.000000  0.000000
                       0.000000  0.000000  0.000000  0.000000  0.000000  0.000000
                       0.000000  0.000000  0.000000  0.000000  0.000000  0.000000
                       0.000000  0.000000  0.000000  0.000000  0.000000  0.000000
                       0.000000  0.000000  0.000000  0.000000  0.000000  0.000000
                       0.000000  0.000000  0.000000  0.000000  0.000000  0.000000
                       0.000000  0.000000  0.000000  0.000000
                       2.000000  2.000000  0.000000  0.000000  0.000000  0.000000
                       0.000000  0.000000  0.000000  0.000000  0.000000  0.000000
                       0.000000  0.000000  0.000000  0.000000  0.000000  0.000000
                       0.000000  0.000000  0.000000  0.000000  0.000000  0.000000
                       0.000000  0.000000  0.000000  0.000000  0.000000  0.000000
                       0.000000  0.000000  0.000000  0.000000  0.000000  0.000000
                       0.000000  0.000000  0.000000  0.000000
                       2.000000  2.000000  0.000000  0.000000  0.000000  0.000000
                       0.000000  0.000000  0.000000  0.000000  0.000000  0.000000
                       0.000000  0.000000  0.000000  0.000000  0.000000  0.000000
                       0.000000  0.000000  0.000000  0.000000  0.000000  0.000000
                       0.000000  0.000000  0.000000  0.000000  0.000000  0.000000
                       0.000000  0.000000  0.000000  0.000000  0.000000  0.000000
                       0.000000  0.000000  0.000000  0.000000
                       2.000000  2.000000  0.000000  0.000000  0.000000  0.000000
                       0.000000  0.000000  0.000000  0.000000  0.000000  0.000000
                       0.000000  0.000000  0.000000  0.000000  0.000000  0.000000
                       0.000000  0.000000  0.000000  0.000000  0.000000  0.000000
                       0.000000  0.000000  0.000000  0.000000  0.000000  0.000000
                       0.000000  0.000000  0.000000  0.000000  0.000000  0.000000
                       0.000000  0.000000  0.000000  0.000000
                       2.000000  2.000000  0.000000  0.000000  0.000000  0.000000
                       0.000000  0.000000  0.000000  0.000000  0.000000  0.000000
                       0.000000  0.000000  0.000000  0.000000  0.000000  0.000000
                       0.000000  0.000000  0.000000  0.000000  0.000000  0.000000
                       0.000000  0.000000  0.000000  0.000000  0.000000  0.000000
                       0.000000  0.000000  0.000000  0.000000  0.000000  0.000000
                       0.000000  0.000000  0.000000  0.000000
                       2.000000  2.000000  0.000000  0.000000  0.000000  0.000000
                       0.000000  0.000000  0.000000  0.000000  0.000000  0.000000
                       0.000000  0.000000  0.000000  0.000000  0.000000  0.000000
                       0.000000  0.000000  0.000000  0.000000  0.000000  0.000000
                       0.000000  0.000000  0.000000  0.000000  0.000000  0.000000
                       0.000000  0.000000  0.000000  0.000000  0.000000  0.000000
                       0.000000  0.000000  0.000000  0.000000
                       2.000000  2.000000  0.000000  0.000000  0.000000  0.000000
                       0.000000  0.000000  0.000000  0.000000  0.000000  0.000000
                       0.000000  0.000000  0.000000  0.000000  0.000000  0.000000
                       0.000000  0.000000  0.000000  0.000000  0.000000  0.000000
                       0.000000  0.000000  0.000000  0.000000  0.000000  0.000000
                       0.000000  0.000000  0.000000  0.000000  0.000000  0.000000
                       0.000000  0.000000  0.000000  0.000000
                       2.000000  2.000000  0.000000  0.000000  0.000000  0.000000
                       0.000000  0.000000  0.000000  0.000000  0.000000  0.000000
                       0.000000  0.000000  0.000000  0.000000  0.000000  0.000000
                       0.000000  0.000000  0.000000  0.000000  0.000000  0.000000
                       0.000000  0.000000  0.000000  0.000000  0.000000  0.000000
                       0.000000  0.000000  0.000000  0.000000  0.000000  0.000000
                       0.000000  0.000000  0.000000  0.000000
                       2.000000  2.000000  0.000000  0.000000  0.000000  0.000000
                       0.000000  0.000000  0.000000  0.000000  0.000000  0.000000
                       0.000000  0.000000  0.000000  0.000000  0.000000  0.000000
                       0.000000  0.000000  0.000000  0.000000  0.000000  0.000000
                       0.000000  0.000000  0.000000  0.000000  0.000000  0.000000
                       0.000000  0.000000  0.000000  0.000000  0.000000  0.000000
                       0.000000  0.000000  0.000000  0.000000
                       2.000000  2.000000  0.000000  0.000000  0.000000  0.000000
                       0.000000  0.000000  0.000000  0.000000  0.000000  0.000000
                       0.000000  0.000000  0.000000  0.000000  0.000000  0.000000
                       0.000000  0.000000  0.000000  0.000000  0.000000  0.000000
                       0.000000  0.000000  0.000000  0.000000  0.000000  0.000000
                       0.000000  0.000000  0.000000  0.000000  0.000000  0.000000
                       0.000000  0.000000  0.000000  0.000000
                       2.000000  2.000000  0.000000  0.000000  0.000000  0.000000
                       0.000000  0.000000  0.000000  0.000000  0.000000  0.000000
                       0.000000  0.000000  0.000000  0.000000  0.000000  0.000000
                       0.000000  0.000000  0.000000  0.000000  0.000000  0.000000
                       0.000000  0.000000  0.000000  0.000000  0.000000  0.000000
                       0.000000  0.000000  0.000000  0.000000  0.000000  0.000000
                       0.000000  0.000000  0.000000  0.000000
                       2.000000  2.000000  0.000000  0.000000  0.000000  0.000000
                       0.000000  0.000000  0.000000  0.000000  0.000000  0.000000
                       0.000000  0.000000  0.000000  0.000000  0.000000  0.000000
                       0.000000  0.000000  0.000000  0.000000  0.000000  0.000000
                       0.000000  0.000000  0.000000  0.000000  0.000000  0.000000
                       0.000000  0.000000  0.000000  0.000000  0.000000  0.000000
                       0.000000  0.000000  0.000000  0.000000
                       2.000000  2.000000  0.000000  0.000000  0.000000  0.000000
                       0.000000  0.000000  0.000000  0.000000  0.000000  0.000000
                       0.000000  0.000000  0.000000  0.000000  0.000000  0.000000
                       0.000000  0.000000  0.000000  0.000000  0.000000  0.000000
                       0.000000  0.000000  0.000000  0.000000  0.000000  0.000000
                       0.000000  0.000000  0.000000  0.000000  0.000000  0.000000
                       0.000000  0.000000  0.000000  0.000000
                       2.000000  2.000000  0.000000  0.000000  0.000000  0.000000
                       0.000000  0.000000  0.000000  0.000000  0.000000  0.000000
                       0.000000  0.000000  0.000000  0.000000  0.000000  0.000000
                       0.000000  0.000000  0.000000  0.000000  0.000000  0.000000
                       0.000000  0.000000  0.000000  0.000000  0.000000  0.000000
                       0.000000  0.000000  0.000000  0.000000  0.000000  0.000000
                       0.000000  0.000000  0.000000  0.000000
                       2.000000  2.000000  0.000000  0.000000  0.000000  0.000000
                       0.000000  0.000000  0.000000  0.000000  0.000000  0.000000
                       0.000000  0.000000  0.000000  0.000000  0.000000  0.000000
                       0.000000  0.000000  0.000000  0.000000  0.000000  0.000000
                       0.000000  0.000000  0.000000  0.000000  0.000000  0.000000
                       0.000000  0.000000  0.000000  0.000000  0.000000  0.000000
                       0.000000  0.000000  0.000000  0.000000
                       prtocc : prtvol=0, do not print more k-points.
           occopt           3
            prtwf           0
            rprim     -3.7866237785E+00 -6.5586247735E+00  0.0000000000E+00
                      -3.7866237785E+00  6.5586247735E+00  0.0000000000E+00
                       0.0000000000E+00  0.0000000000E+00 -9.4544321288E+00
           shiftk      5.00000000E-01  5.00000000E-01  5.00000000E-01
          spgroup          63
           strten      6.1841800820E-08  6.1688261486E-08  3.7115636220E-06
                       0.0000000000E+00  0.0000000000E+00 -1.3296895943E-10
           symrel      1  0  0   0  1  0   0  0  1      -1  0  0   0 -1  0   0  0 -1
                      -1  0  0   1  1  0   0  0  1       1  0  0  -1 -1  0   0  0 -1
                      -1  0  0   0 -1  0   0  0  1       1  0  0   0  1  0   0  0 -1
                       1  0  0  -1 -1  0   0  0  1      -1  0  0   1  1  0   0  0 -1
            tnons      0.0000000  0.0000000  0.0000000     0.0000000  0.0000000  0.0000000
                       0.0000000  0.0000000  0.0000000    -0.0000000  0.0000000  0.0000000
                       0.0000000  0.0000000  0.5000000     0.0000000  0.0000000  0.5000000
                      -0.0000000  0.0000000  0.5000000     0.0000000  0.0000000  0.5000000
           toldfe      1.00000000E-09 Hartree
           tsmear      5.00000000E-04 Hartree
            typat      1  1  1  1
              wtk        0.00500    0.00500    0.00500    0.00500    0.00500    0.00500
                         0.00500    0.00500    0.00500    0.00500    0.00500    0.00500
                         0.00500    0.00500    0.00500    0.00500    0.00500    0.00500
                         0.00500    0.00500    0.00500    0.00500    0.00500    0.00500
                         0.00500    0.00500    0.00500    0.00500    0.00500    0.00500
                         0.00500    0.00500    0.00500    0.00500    0.00500    0.00500
                         0.00500    0.00500    0.00500    0.00500    0.00500    0.00500
                         0.00500    0.00500    0.00500    0.00500    0.00500    0.00500
                         0.00500    0.00500
                       outvars : Printing only first  50 k-points.
           xangst     -2.0038150390E+00 -1.1568800144E+00 -4.1276328136E+00
                      -2.0037749631E+00  1.1568800144E+00 -8.7543718908E-01
                      -2.0037749631E+00  1.1568800144E+00 -1.6260978123E+00
                      -2.0038150390E+00 -1.1568800144E+00 -3.3769721904E+00
            xcart     -3.7866616447E+00 -2.1861863958E+00 -7.8000955949E+00
                      -3.7865859123E+00  2.1861863958E+00 -1.6543365339E+00
                      -3.7865859123E+00  2.1861863958E+00 -3.0728795305E+00
                      -3.7866616447E+00 -2.1861863958E+00 -6.3815525983E+00
             xred      6.6667000000E-01  3.3334000000E-01  8.2502000000E-01
                       3.3333000000E-01  6.6666000000E-01  1.7498000000E-01
                       3.3333000000E-01  6.6666000000E-01  3.2502000000E-01
                       6.6667000000E-01  3.3334000000E-01  6.7498000000E-01
            znucl        1.00000
 
================================================================================


- Timing analysis has been suppressed with timopt=0



================================================================================

 Suggested references for the acknowledgment of ABINIT usage.

 The users of ABINIT have little formal obligations with respect to the ABINIT group
 (those specified in the GNU General Public License, http://www.gnu.org/copyleft/gpl.txt).
 However, it is common practice in the scientific literature,
 to acknowledge the efforts of people that have made the research possible.
 In this spirit, please find below suggested citations of work written by ABINIT developers,
 corresponding to implementations inside of ABINIT that you have used in the present run.
 Note also that it will be of great value to readers of publications presenting these results,
 to read papers enabling them to understand the theoretical formalism and details
 of the ABINIT implementation.
 For information on why they are suggested, see also http://www.abinit.org/about/?text=acknowledgments.

 [1] ABINIT : First-principles approach of materials and nanosystem properties.
 X. Gonze, B. Amadon, P.-M. Anglade, J.-M. Beuken, F. Bottin, P. Boulanger, F. Bruneval,
 D. Caliste, R. Caracas, M. Cote, T. Deutsch, L. Genovese, Ph. Ghosez, M. Giantomassi
 S. Goedecker, D.R. Hamann, P. Hermet, F. Jollet, G. Jomard, S. Leroux, M. Mancini, S. Mazevet,
 M.J.T. Oliveira, G. Onida, Y. Pouillon, T. Rangel, G.-M. Rignanese, D. Sangalli, R. Shaltaf,
 M. Torrent, M.J. Verstraete, G. Zerah, J.W. Zwanziger
 Computer Phys. Comm. 180, 2582-2615 (2009).
 Comment : the third generic paper describing the ABINIT project.
 Note that a version of this paper, that is not formatted for Computer Phys. Comm. 
 is available at http://www.abinit.org/about/ABINIT_CPC_v10.pdf .
 The licence allows the authors to put it on the Web.

 [2] A brief introduction to the ABINIT software package.
 X. Gonze, G.-M. Rignanese, M. Verstraete, J.-M. Beuken, Y. Pouillon, R. Caracas, F. Jollet,
 M. Torrent, G. Zerah, M. Mikami, Ph. Ghosez, M. Veithen, J.-Y. Raty, V. Olevano, F. Bruneval,
 L. Reining, R. Godby, G. Onida, D.R. Hamann, and D.C. Allan.
 Z. Kristallogr. 220, 558-562 (2005).
 Comment : the second generic paper describing the ABINIT project. Note that this paper
 should be cited especially if you are using the GW part of ABINIT, as several authors
 of this part are not in the list of authors of the first or third paper.
 The .pdf of the latter paper is available at http://www.abinit.org/about/zfk_0505-06_558-562.pdf.
 Note that it should not redistributed (Copyright by Oldenburg Wissenshaftverlag,
 the licence allows the authors to put it on the Web).


 And optionally :

 [3] First-principles computation of material properties : the ABINIT software project. 
 X. Gonze, J.-M. Beuken, R. Caracas, F. Detraux, M. Fuchs, G.-M. Rignanese, L. Sindic,
 M. Verstraete, G. Zerah, F. Jollet, M. Torrent, A. Roy, M. Mikami, Ph. Ghosez, J.-Y. Raty, D.C. Allan.
 Computational Materials Science 25, 478-492 (2002). http://dx.doi.org/10.1016/S0927-0256(02)00325-7
 Comment : the original paper describing the ABINIT project.

 [4] Fast radix 2, 3, 4 and 5 kernels for Fast Fourier Transformations
 on computers with overlapping multiply-add instructions.
 S. Goedecker, SIAM J. on Scientific Computing 18, 1605 (1997).
-
- Proc.   0 individual time (sec): cpu=         79.9  wall=         80.1
 
================================================================================
 
 Calculation completed.
.Delivered    0 WARNINGs and   0 COMMENTs to log file.
+Overall time at end (sec) : cpu=       1595.3  wall=       1601.1
