<?xml version="1.0" encoding="UTF-8" ?>
<psml version="1.1" energy_unit="hartree" length_unit="bohr"
 uuid="bc1807c0-3433-11eb-56de-6bb1efaa9ef5"
 xmlns="http://esl.cecam.org/PSML/ns/1.1">
<provenance creator="ONCVPSP-3.3.1+psml-3.3.1-75 (scalar-relativistic)"
 date="2020-12-01">
<annotation action="semilocal-pseudopotential-generation"
 action-cont="projectors-generation" />
<input-file name="oncvpsp-input">
<![CDATA[# atsym z nc nv iexc psfile
Ge 32 5 3 -001012 both
# n l f
1 0 2.0
2 0 2.0
2 1 6.0
3 0 2.0
3 1 6.0
3 2 10.0
4 0 2.0
4 1 2.0
# lmax
2
# l rc ep ncon nbas qcut
0 1.9 0.0 4 7 4.7
1 1.8 0.0 4 7 5.0
2 1.9 0.0 4 7 8.8
# lloc lpopt rc5 dvloc0
4 5 1.75 0.0
# l nproj debl
0 2 3.0
1 2 2.5
2 2 1.5
# icmod fcfact rcfact
3 5.0 1.4
# epsh1 epsh2 depsh
-12.0 12.0 0.02
# rlmax drl
6.0 0.01
 0
]]>
</input-file>
</provenance>
<pseudo-atom-spec atomic-label="Ge" atomic-number="32" z-pseudo="14"
 flavor="Hamann&apos;s oncvpsp" relativity="scalar" spin-dft="no"
 core-corrections="yes">
<annotation pseudo-energy="-79.9510257551" cutoff_hint_low="34"
 cutoff_hint_normal="35" cutoff_hint_high="37" />
<exchange-correlation>
<annotation oncvpsp-xc-code="-1012" oncvpsp-xc-type="libxc-interface" />
<libxc-info number-of-functionals="2">
<functional name="Slater exchange (LDA)" type="exchange" id="1" />
<functional name="Perdew &amp; Wang (LDA)" type="correlation" id="12" />
</libxc-info>
</exchange-correlation>
<valence-configuration total-valence-charge="14">
<shell n="3" l="d" occupation="10" />
<shell n="4" l="s" occupation="2" />
<shell n="4" l="p" occupation="2" />
</valence-configuration>
</pseudo-atom-spec>
<grid npts="457">
<annotation type="sampled from oncvpsp log grid"
 recipe="r(i:1..N) = r1*exp(a*(i-1)) + r=0; resampled"
 recipe-cont="r1: scale; a: step" scale="0.156250000000E-04"
 step="0.119285708653E-01" delta="0.500000000000E-02" rmax="44.0106814606" />
<grid-data>
  0.000000000000E+00  5.025601837514E-03  1.003824527536E-02  1.505896861607E-02
  2.029121445031E-02  2.545292972101E-02  3.080533800935E-02  3.597266729221E-02
  4.101646976877E-02  4.621291924683E-02  5.145031239924E-02  5.660204419540E-02
  6.226962009944E-02  6.769238310509E-02  7.271481084123E-02  7.810987696307E-02
  8.390522932815E-02  8.906182522060E-02  9.453533200659E-02  1.003452262006E-01
  1.065121812926E-01  1.117175309401E-01  1.171772708801E-01  1.229038334035E-01
  1.289102583787E-01  1.352102229449E-01  1.418180726557E-01  1.469850337403E-01
  1.523402464797E-01  1.578905695834E-01  1.636431116494E-01  1.696052402683E-01
  1.757845914596E-01  1.821890794514E-01  1.888269068167E-01  1.957065749787E-01
  2.028368950993E-01  2.102269993637E-01  2.153027200364E-01  2.205009889089E-01
  2.258247647852E-01  2.312770779061E-01  2.368610316751E-01  2.425798044239E-01
  2.484366512219E-01  2.544349057290E-01  2.605779820929E-01  2.668693768925E-01
  2.733126711282E-01  2.799115322600E-01  2.866697162948E-01  2.935910699251E-01
  3.006795327173E-01  3.079391393553E-01  3.153740219359E-01  3.229884123215E-01
  3.307866445486E-01  3.387731572945E-01  3.469524964043E-01  3.553293174774E-01
  3.639083885186E-01  3.726945926510E-01  3.816929308960E-01  3.909085250195E-01
  4.003466204476E-01  4.100125892517E-01  4.199119332066E-01  4.249508764051E-01
  4.300502869219E-01  4.352108903650E-01  4.404334210494E-01  4.457186221020E-01
  4.510672455672E-01  4.564800525140E-01  4.619578131442E-01  4.675013069019E-01
  4.731113225847E-01  4.787886584557E-01  4.845341223572E-01  4.903485318255E-01
  4.962327142074E-01  5.021875067779E-01  5.082137568592E-01  5.143123219415E-01
  5.204840698048E-01  5.267298786425E-01  5.330506371862E-01  5.394472448324E-01
  5.459206117704E-01  5.524716591117E-01  5.591013190210E-01  5.658105348493E-01
  5.726002612674E-01  5.794714644027E-01  5.864251219755E-01  5.934622234392E-01
  6.005837701205E-01  6.077907753619E-01  6.150842646662E-01  6.224652758422E-01
  6.299348591524E-01  6.374940774622E-01  6.451440063917E-01  6.528857344684E-01
  6.607203632820E-01  6.686490076414E-01  6.766727957331E-01  6.847928692819E-01
  6.930103837133E-01  7.013265083179E-01  7.097424264177E-01  7.182593355347E-01
  7.268784475611E-01  7.356009889318E-01  7.444282007990E-01  7.533613392086E-01
  7.624016752791E-01  7.715504953825E-01  7.808091013271E-01  7.901788105430E-01
  7.996609562695E-01  8.092568877447E-01  8.189679703977E-01  8.287955860424E-01
  8.387411330750E-01  8.488060266719E-01  8.589916989919E-01  8.692995993798E-01
  8.797311945724E-01  8.902879689072E-01  9.009714245341E-01  9.117830816285E-01
  9.227244786081E-01  9.337971723514E-01  9.450027384196E-01  9.563427712806E-01
  9.678188845360E-01  9.794327111504E-01  9.911859036842E-01  1.003080134528E+00
  1.015117096143E+00  1.027298501296E+00  1.039626083312E+00  1.052101596312E+00
  1.064726815468E+00  1.077503537253E+00  1.090433579700E+00  1.103518782657E+00
  1.116761008048E+00  1.130162140145E+00  1.143724085827E+00  1.157448774857E+00
  1.171338160155E+00  1.185394218077E+00  1.199618948694E+00  1.214014376078E+00
  1.228582548591E+00  1.243325539174E+00  1.258245445644E+00  1.273344390992E+00
  1.288624523684E+00  1.304088017968E+00  1.319737074184E+00  1.335573919074E+00
  1.351600806103E+00  1.367820015776E+00  1.384233855965E+00  1.400844662237E+00
  1.417654798184E+00  1.434666655762E+00  1.451882655631E+00  1.469305247499E+00
  1.486936910469E+00  1.504780153394E+00  1.522837515235E+00  1.541111565418E+00
  1.559604904203E+00  1.578320163053E+00  1.597260005010E+00  1.616427125070E+00
  1.635824250571E+00  1.655454141578E+00  1.675319591277E+00  1.695423426372E+00
  1.715768507488E+00  1.736357729578E+00  1.757194022333E+00  1.778280350601E+00
  1.799619714808E+00  1.821215151386E+00  1.843069733203E+00  1.865186570001E+00
  1.887568808841E+00  1.910219634547E+00  1.933142270162E+00  1.956339977404E+00
  1.979816057133E+00  2.003573849818E+00  2.027616736016E+00  2.051948136848E+00
  2.076571514490E+00  2.101490372664E+00  2.126708257136E+00  2.152228756222E+00
  2.178055501297E+00  2.204192167312E+00  2.230642473320E+00  2.257410183000E+00
  2.284499105196E+00  2.311913094458E+00  2.339656051592E+00  2.367731924211E+00
  2.396144707301E+00  2.424898443789E+00  2.453997225114E+00  2.483445191816E+00
  2.513246534117E+00  2.543405492527E+00  2.573926358437E+00  2.604813474738E+00
  2.636071236435E+00  2.667704091273E+00  2.699716540368E+00  2.732113138852E+00
  2.764898496518E+00  2.798077278477E+00  2.831654205818E+00  2.865634056288E+00
  2.900021664964E+00  2.934821924943E+00  2.970039788043E+00  3.005680265499E+00
  3.041748428685E+00  3.078249409829E+00  3.115188402747E+00  3.152570663580E+00
  3.190401511543E+00  3.228686329682E+00  3.267430565638E+00  3.306639732426E+00
  3.346319409215E+00  3.386475242125E+00  3.427112945031E+00  3.468238300371E+00
  3.509857159976E+00  3.551975445895E+00  3.594599151246E+00  3.637734341061E+00
  3.681387153154E+00  3.725563798992E+00  3.770270564579E+00  3.815513811354E+00
  3.861299977091E+00  3.907635576816E+00  3.954527203737E+00  4.001981530182E+00
  4.050005308545E+00  4.098605372247E+00  4.147788636714E+00  4.197562100355E+00
  4.247932845559E+00  4.298908039706E+00  4.350494936182E+00  4.402700875416E+00
  4.455533285921E+00  4.508999685352E+00  4.563107681576E+00  4.617864973755E+00
  4.673279353440E+00  4.729358705682E+00  4.786111010150E+00  4.843544342272E+00
  4.901666874379E+00  4.960486876872E+00  5.020012719394E+00  5.080252872027E+00
  5.141215906491E+00  5.202910497369E+00  5.265345423337E+00  5.328529568417E+00
  5.392471923238E+00  5.457181586317E+00  5.522667765353E+00  5.588939778537E+00
  5.656007055880E+00  5.723879140550E+00  5.792565690237E+00  5.862076478520E+00
  5.932421396262E+00  6.003610453017E+00  6.075653778453E+00  6.148561623795E+00
  6.222344363280E+00  6.297012495640E+00  6.372576645587E+00  6.449047565334E+00
  6.526436136118E+00  6.604753369752E+00  6.684010410189E+00  6.764218535111E+00
  6.845389157533E+00  6.927533827423E+00  7.010664233352E+00  7.094792204152E+00
  7.179929710602E+00  7.266088867129E+00  7.353281933535E+00  7.441521316737E+00
  7.530819572538E+00  7.621189407409E+00  7.712643680297E+00  7.805195404461E+00
  7.898857749315E+00  7.993644042306E+00  8.089567770814E+00  8.186642584064E+00
  8.284882295073E+00  8.384300882613E+00  8.484912493205E+00  8.586731443123E+00
  8.689772220441E+00  8.794049487086E+00  8.899578080931E+00  9.006373017902E+00
  9.114449494117E+00  9.223822888046E+00  9.334508762703E+00  9.446522867855E+00
  9.559881142270E+00  9.674599715977E+00  9.790694912569E+00  9.908183251519E+00
  1.002708145054E+01  1.014740642794E+01  1.026917530508E+01  1.039240540874E+01
  1.051711427365E+01  1.064331964493E+01  1.077103948067E+01  1.090029195444E+01
  1.103109545789E+01  1.116346860338E+01  1.129743022662E+01  1.143299938934E+01
  1.157019538202E+01  1.170903772660E+01  1.184954617932E+01  1.199174073347E+01
  1.213564162227E+01  1.228126932174E+01  1.242864455360E+01  1.257778828824E+01
  1.272872174770E+01  1.288146640868E+01  1.303604400558E+01  1.319247653365E+01
  1.335078625205E+01  1.351099568708E+01  1.367312763532E+01  1.383720516694E+01
  1.400325162895E+01  1.417129064849E+01  1.434134613628E+01  1.451344228991E+01
  1.468760359739E+01  1.486385484056E+01  1.504222109865E+01  1.522272775183E+01
  1.540540048485E+01  1.559026529067E+01  1.577734847416E+01  1.596667665585E+01
  1.615827677572E+01  1.635217609703E+01  1.654840221019E+01  1.674698303671E+01
  1.694794683315E+01  1.715132219515E+01  1.735713806149E+01  1.756542371823E+01
  1.777620880285E+01  1.798952330849E+01  1.820539758819E+01  1.842386235925E+01
  1.864494870756E+01  1.886868809205E+01  1.909511234915E+01  1.932425369734E+01
  1.955614474171E+01  1.979081847861E+01  2.002830830035E+01  2.026864799996E+01
  2.051187177596E+01  2.075801423727E+01  2.100711040812E+01  2.125919573301E+01
  2.151430608181E+01  2.177247775479E+01  2.203374748785E+01  2.229815245770E+01
  2.256573028719E+01  2.283651905064E+01  2.311055727925E+01  2.338788396660E+01
  2.366853857420E+01  2.395256103709E+01  2.423999176953E+01  2.453087167077E+01
  2.482524213082E+01  2.512314503639E+01  2.542462277682E+01  2.572971825015E+01
  2.603847486915E+01  2.635093656758E+01  2.666714780639E+01  2.698715358007E+01
  2.731099942303E+01  2.763873141610E+01  2.797039619310E+01  2.830604094741E+01
  2.864571343878E+01  2.898946200005E+01  2.933733554405E+01  2.968938357058E+01
  3.004565617342E+01  3.040620404750E+01  3.077107849607E+01  3.114033143803E+01
  3.151401541528E+01  3.189218360027E+01  3.227488980347E+01  3.266218848111E+01
  3.305413474289E+01  3.345078435980E+01  3.385219377212E+01  3.425842009738E+01
  3.466952113855E+01  3.508555539221E+01  3.550658205692E+01  3.593266104160E+01
  3.636385297410E+01  3.680021920979E+01  3.724182184031E+01  3.768872370239E+01
  3.814098838682E+01  3.859868024746E+01  3.906186441043E+01  3.953060678336E+01
  4.000497406476E+01  4.048503375354E+01  4.097085415858E+01  4.146250440848E+01
  4.196005446138E+01  4.246357511492E+01  4.297313801630E+01  4.348881567249E+01
  4.401068146056E+01
</grid-data>
</grid>
<valence-charge total-charge="14" is-unscreening-charge="yes"
 rescaled-to-z-pseudo="no">
<radfunc>
<data npts="457">
  1.092040972249E-03  1.096900838800E-03  1.117179739315E-03  1.170190657550E-03
  1.291361405037E-03  1.520832196952E-03  1.934805697266E-03  2.575848860463E-03
  3.509222517861E-03  4.881358233573E-03  6.793337783083E-03  9.309561304167E-03
  1.295774001795E-02  1.747501962423E-02  2.270652757845E-02  2.961960283420E-02
  3.875196380657E-02  4.856129066496E-02  6.092208839618E-02  7.648966294846E-02
  9.608321356289E-02  1.153356253951E-01  1.384501578044E-01  1.661836247522E-01
  1.994347997062E-01  2.392689159601E-01  2.869456825844E-01  3.287344111344E-01
  3.764869477742E-01  4.310172312080E-01  4.932413287045E-01  5.641881048289E-01
  6.450104726105E-01  7.369971087473E-01  8.415844600839E-01  9.603688011480E-01
  1.095118019947E+00  1.247782709375E+00  1.360562375155E+00  1.482937114307E+00
  1.615631608637E+00  1.759411427225E+00  1.915083128822E+00  2.083493924882E+00
  2.265530819608E+00  2.462119133915E+00  2.674220310370E+00  2.902828886137E+00
  3.148968510886E+00  3.413686876842E+00  3.698049418888E+00  4.003131634426E+00
  4.330009865858E+00  4.679750383871E+00  5.053396607681E+00  5.451954299995E+00
  5.876374580529E+00  6.327534613529E+00  6.806215843141E+00  7.313079676831E+00
  7.848640552937E+00  8.413236375112E+00  9.006996355558E+00  9.629806381952E+00
  1.028127211119E+01  1.096068009777E+01  1.166695738667E+01  1.202972824462E+01
  1.239863014029E+01  1.277340937624E+01  1.315378202625E+01  1.353943268710E+01
  1.393001326671E+01  1.432514181914E+01  1.472440143777E+01  1.512733921861E+01
  1.553346530669E+01  1.594225203915E+01  1.635313319952E+01  1.676550339831E+01
  1.717871759580E+01  1.759209078348E+01  1.800489784125E+01  1.841637358787E+01
  1.882571304249E+01  1.923207191546E+01  1.963456734655E+01  2.003227890878E+01
  2.042424989571E+01  2.080948890964E+01  2.118697176742E+01  2.155564373972E+01
  2.191442213842E+01  2.226219926509E+01  2.259784573197E+01  2.292021416459E+01
  2.322814329274E+01  2.352046243361E+01  2.379599636771E+01  2.405357060472E+01
  2.429201703223E+01  2.451017993622E+01  2.470692237725E+01  2.488113290134E+01
  2.503173255928E+01  2.515768220206E+01  2.525799001468E+01  2.533171924418E+01
  2.537799607147E+01  2.539601757048E+01  2.538505969159E+01  2.534448520038E+01
  2.527375149667E+01  2.517241823331E+01  2.504015464913E+01  2.487674652582E+01
  2.468210267501E+01  2.445626085883E+01  2.419939304558E+01  2.391180990149E+01
  2.359396442060E+01  2.324645459679E+01  2.287002504629E+01  2.246556749449E+01
  2.203412004856E+01  2.157686518686E+01  2.109512640758E+01  2.059036349237E+01
  2.006416635631E+01  1.951824747239E+01  1.895443287784E+01  1.837465178998E+01
  1.778092488070E+01  1.717535128173E+01  1.656009441554E+01  1.593736677056E+01
  1.530941376237E+01  1.467849684461E+01  1.404687605477E+01  1.341679219852E+01
  1.279044889318E+01  1.216999470419E+01  1.155750561802E+01  1.095496810077E+01
  1.036426299240E+01  9.787150482544E+00  9.225256404263E+00  8.680060067198E+00
  8.152883831302E+00  7.644884596484E+00  7.157047352821E+00  6.690180900766E+00
  6.244915811722E+00  5.821704657255E+00  5.420824491180E+00  5.042381523818E+00
  4.686317883155E+00  4.352420314721E+00  4.040330632089E+00  3.749557694256E+00
  3.479490655965E+00  3.229413213417E+00  2.998518551614E+00  2.785924691415E+00
  2.590689934675E+00  2.411828114556E+00  2.248323375040E+00  2.099144228101E+00
  1.963256668157E+00  1.839636159892E+00  1.727278356046E+00  1.625208444585E+00
  1.532489068141E+00  1.448226800983E+00  1.371577208473E+00  1.301748549507E+00
  1.238004212587E+00  1.179664000117E+00  1.126104392667E+00  1.076757935170E+00
  1.031111890546E+00  9.887063036674E-01  9.491316107020E-01  9.120259168146E-01
  8.770720501806E-01  8.439944834772E-01  8.125561967048E-01  7.825555384078E-01
  7.538231270106E-01  7.262188207428E-01  6.996287214119E-01  6.739620528648E-01
  6.491480119024E-01  6.251330487547E-01  6.018777468416E-01  5.793512762599E-01
  5.575255527184E-01  5.363742609065E-01  5.158734769835E-01  4.960010978856E-01
  4.767367317725E-01  4.580615306440E-01  4.399580390236E-01  4.224100524074E-01
  4.054024851843E-01  3.889212478182E-01  3.729531330449E-01  3.574857108161E-01
  3.425072317024E-01  3.280065384496E-01  3.139729853704E-01  3.003963652379E-01
  2.872668433400E-01  2.745748983494E-01  2.623112696342E-01  2.504669106923E-01
  2.390329483087E-01  2.280006470967E-01  2.173613790651E-01  2.071065978558E-01
  1.972278173113E-01  1.877165940125E-01  1.785645134901E-01  1.697631797541E-01
  1.613042078443E-01  1.531792191002E-01  1.453798388581E-01  1.378976963032E-01
  1.307244262110E-01  1.238516723301E-01  1.172710921714E-01  1.109743629825E-01
  1.049531887003E-01  9.919930769052E-02  9.370450109484E-02  8.846060162242E-02
  8.345950263551E-02  7.869316739251E-02  7.415363832498E-02  6.983304623830E-02
  6.572361933734E-02  6.181769199096E-02  5.810771316004E-02  5.458625442467E-02
  5.124601755607E-02  4.807984158871E-02  4.508070935646E-02  4.224175346550E-02
  3.955626168392E-02  3.701768173538E-02  3.461962549022E-02  3.235587255372E-02
  3.022037325610E-02  2.820725105375E-02  2.631080435511E-02  2.452550778858E-02
  2.284601293253E-02  2.126714853036E-02  1.978392021563E-02  1.839150977416E-02
  1.708527397111E-02  1.586074297223E-02  1.471361838901E-02  1.363977097791E-02
  1.263523802365E-02  1.169622043667E-02  1.081907959410E-02  1.000033395321E-02
  9.236655465443E-03  8.524865817932E-03  7.861932528831E-03  7.244964921061E-03
  6.671209998185E-03  6.138048244636E-03  5.642989371193E-03  5.183668025190E-03
  4.757839483546E-03  4.363375345282E-03  3.998259238818E-03  3.660582557928E-03
  3.348540238967E-03  3.060426590607E-03  2.794631186159E-03  2.549634827302E-03
  2.324005586951E-03  2.116394937931E-03  1.925533973088E-03  1.750229721598E-03
  1.589361565300E-03  1.441877758142E-03  1.306792051060E-03  1.183180423959E-03
  1.070177925865E-03  9.669756237621E-04  8.728176601678E-04  7.869984190335E-04
  7.088597992190E-04  6.377885944316E-04  5.732139782434E-04  5.146050925558E-04
  4.614687376685E-04  4.133471619373E-04  3.698159488585E-04  3.304819993005E-04
  2.949816065085E-04  2.629786214357E-04  2.341627058963E-04  2.082476710006E-04
  1.849698983004E-04  1.640868410658E-04  1.453756031002E-04  1.286315925131E-04
  1.136672478716E-04  1.003108341734E-04  8.840530609926E-05  7.780723603092E-05
  6.838580434401E-05  6.002184951911E-05  5.260697563936E-05  4.604271489605E-05
  4.023974272537E-05  3.511714327348E-05  3.060172291445E-05  2.662736957910E-05
  2.313445570408E-05  2.006928265578E-05  1.738356453006E-05  1.503394927797E-05
  1.298157515868E-05  1.119166057362E-05  9.633125390405E-06  8.278241921533E-06
  7.102313780755E-06  6.083380899450E-06  5.201949046163E-06  4.440742254411E-06
  3.784476626804E-06  3.219654047251E-06  2.734374397220E-06  2.318164936589E-06
  1.961825574155E-06  1.657288817264E-06  1.397493253919E-06  1.176269483933E-06
  9.882374779831E-07  8.287144045393E-07  6.936320243852E-07  5.794628106673E-07
  4.831540088520E-07  4.020689055572E-07  3.339346277797E-07  2.767958444644E-07
  2.289737905654E-07  1.890300796655E-07  1.557348147974E-07  1.280385483252E-07
  1.050476805870E-07  8.600292348374E-08  7.026048934216E-08  5.727569723461E-08
  4.658871854926E-08  3.781221104310E-08  3.062061594939E-08  2.474091603695E-08
  1.994467391870E-08  1.604118947941E-08  1.287163313357E-08  1.030402783737E-08
  8.228967463734E-09  6.555972409541E-09  5.210395239700E-09  4.130799881955E-09
  3.266747465843E-09  2.576930440974E-09  2.027604202900E-09  1.591272183465E-09
  1.245586306756E-09  9.724299467440E-10  7.571551187086E-10  5.879496591821E-10
  4.553136589144E-10  3.516274662431E-10  2.707962253864E-10  2.079582023758E-10
  1.592461230853E-10  1.215924415246E-10  9.257090688428E-11  7.026803578847E-11
  5.317914957641E-11  4.012452985427E-11  3.018200089954E-11  2.263288403791E-11
  1.691880379429E-11  1.260727327835E-11  9.364359832157E-12  6.933042674433E-12
  5.116131839522E-12  3.762830500928E-12  2.758197977916E-12  2.014914494076E-12
  1.466866324450E-12  1.064165774606E-12  7.692982354170E-13  5.541515122442E-13
  3.977333878716E-13  2.844241595946E-13  2.026435352654E-13  1.438373084034E-13
  1.017099197962E-13  7.164538935544E-14  5.027201669138E-14  3.513639473380E-14
  2.446022029310E-14  1.695957707523E-14  1.171116483562E-14  8.053678219898E-15
  5.515386829857E-15  3.761173446818E-15  2.553961301589E-15  1.726738005762E-15
  1.162350513733E-15  7.789747331732E-16  5.197111239458E-16  3.451672158341E-16
  2.281929207016E-16  1.501605388175E-16  9.834813230019E-17  6.410743232168E-17
  4.158700261573E-17  2.684655134378E-17  1.724548325643E-17  1.102280608234E-17
  7.009909959416E-18  4.435159487363E-18  2.791611893060E-18  1.747919932915E-18
  1.088627940767E-18  6.743694175580E-19  0.000000000000E+00  0.000000000000E+00
  0.000000000000E+00  0.000000000000E+00  0.000000000000E+00  0.000000000000E+00
  0.000000000000E+00  0.000000000000E+00  0.000000000000E+00  0.000000000000E+00
  0.000000000000E+00  0.000000000000E+00  0.000000000000E+00  0.000000000000E+00
  0.000000000000E+00  0.000000000000E+00  0.000000000000E+00  0.000000000000E+00
  0.000000000000E+00
</data>
</radfunc>
</valence-charge>
<pseudocore-charge matching-radius="0.684792869282"
 number-of-continuous-derivatives="4">
<annotation model-charge-form="Teter function with specified parameters" />
<radfunc>
<data npts="290">
  1.285150861981E+02  1.285039290636E+02  1.284705780691E+02  1.284149419259E+02
  1.283333160890E+02  1.282291843711E+02  1.280965019160E+02  1.279446131254E+02
  1.277738866389E+02  1.275748676802E+02  1.273506362371E+02  1.271070287099E+02
  1.268127774405E+02  1.265056522832E+02  1.261990361639E+02  1.258460982340E+02
  1.254399936109E+02  1.250553597654E+02  1.246233190525E+02  1.241382167698E+02
  1.235937742964E+02  1.231108441204E+02  1.225815991104E+02  1.220018216005E+02
  1.213669568414E+02  1.206720961794E+02  1.199119617932E+02  1.192956349694E+02
  1.186368838434E+02  1.179330506871E+02  1.171813516528E+02  1.163788773517E+02
  1.155225947759E+02  1.146093508139E+02  1.136358776365E+02  1.125988002671E+02
  1.114946466793E+02  1.103198608035E+02  1.094956427431E+02  1.086373365521E+02
  1.077438494260E+02  1.068140856806E+02  1.058469506870E+02  1.048413552713E+02
  1.037962206096E+02  1.027104836496E+02  1.015831030928E+02  1.004130659658E+02
  9.919939481265E+01  9.794115553528E+01  9.663746590940E+01  9.528750479703E+01
  9.389052207512E+01  9.244584929310E+01  9.095291106627E+01  8.941123720391E+01
  8.782047556190E+01  8.618040559842E+01  8.449095259893E+01  8.275220252151E+01
  8.096441739744E+01  7.912805120242E+01  7.724376609307E+01  7.531244887957E+01
  7.333522757967E+01  7.131348787077E+01  6.924888922708E+01  6.820111510580E+01
  6.714338049588E+01  6.607597663639E+01  6.499921463384E+01  6.391342585419E+01
  6.281896228866E+01  6.171619688998E+01  6.060552387612E+01  5.948735899789E+01
  5.836213976721E+01  5.723032564224E+01  5.609239816576E+01  5.494886105305E+01
  5.380024022523E+01  5.264708378423E+01  5.148996192531E+01  5.032946678301E+01
  4.916621220645E+01  4.800083345997E+01  4.683398684486E+01  4.566634923823E+01
  4.449861754511E+01  4.333150805981E+01  4.216575573296E+01  4.100211334054E+01
  3.984135055176E+01  3.868425289266E+01  3.753162060270E+01  3.638426738194E+01
  3.524301902691E+01  3.410871195357E+01  3.298219160644E+01  3.186431075342E+01
  3.075592766652E+01  2.965790418936E+01  2.857110369314E+01  2.749638892344E+01
  2.643461974115E+01  2.538665076183E+01  2.435332889862E+01  2.333549081490E+01
  2.233396029406E+01  2.134954553467E+01  2.038303638080E+01  1.943520149795E+01
  1.850678550679E+01  1.759850608766E+01  1.671105107032E+01  1.584507552441E+01
  1.500119886736E+01  1.418000200772E+01  1.338202454263E+01  1.260776202951E+01
  1.185766335272E+01  1.113212820683E+01  1.043150471863E+01  9.756087230792E+00
  9.106114270032E+00  8.481766723081E+00  7.883166243350E+00  7.310373911020E+00
  6.763389168549E+00  6.242149052683E+00  5.746527742848E+00  5.276336444226E+00
  4.831323621970E+00  4.411175600774E+00  4.015517541460E+00  3.643914803349E+00
  3.295874697942E+00  2.970848635878E+00  2.668234665288E+00  2.387380395525E+00
  2.127586295871E+00  1.888109354293E+00  1.668167076563E+00  1.466941801316E+00
  1.283585301767E+00  1.117223640119E+00  9.669622360319E-01  8.318911062066E-01
  7.110902280765E-01  6.036349769786E-01  5.086015830995E-01  4.250725520192E-01
  3.521419909270E-01  2.889207816497E-01  2.345415415891E-01  1.881633145867E-01
  1.489759356763E-01  1.162040166882E-01  8.911050375015E-02  6.699976288773E-02
  4.922015611971E-02  3.516607762775E-02  2.427942764793E-02  1.605051057597E-02
  1.001835324066E-02  5.770449203663E-03  2.941945078429E-03  1.214294996868E-03
  3.134192376511E-04  7.412401802977E-06  1.038551103098E-04  4.467907382031E-04
  9.134349356039E-04  1.410690385915E-03  1.871542214517E-03  2.251410530192E-03
  2.524535650773E-03  2.680468589651E-03  2.720734384842E-03  2.655728934080E-03
  2.501901330715E-03  2.279263523330E-03  2.009257765027E-03  1.713000156698E-03
  1.409906053464E-03  1.116690661043E-03  8.467262814263E-04  6.097268519693E-04
  4.117211068718E-04  2.552682702370E-04  1.398649842116E-04  6.248940505671E-05
  1.822816998599E-05  9.342260243459E-07  3.868163268965E-06  2.028242157943E-05
  4.391613373118E-05  6.937791956695E-05  9.240407057701E-05  1.099896389541E-04
  1.203993461950E-04  1.230733735892E-04  1.184494959271E-04  1.077273004523E-04
  9.260218156357E-05  7.499638132803E-05  5.681170464339E-05  3.972400139562E-05
  2.503355552285E-05  1.357874709820E-05  5.713416831789E-06  1.341925018830E-06
  5.614971071892E-10  9.702119721174E-07  3.403330327543E-06  6.448411366693E-06
  9.357188987462E-06  1.156337676228E-05  1.272642280428E-05  1.273885369164E-05
  1.170067599927E-05  9.868372035752E-06  7.588773046219E-06  5.229210936294E-06
  3.114762837234E-06  1.481279951409E-06  4.496224518122E-07  2.265897782718E-08
  0.000000000000E+00  0.000000000000E+00  0.000000000000E+00  0.000000000000E+00
  0.000000000000E+00  0.000000000000E+00  0.000000000000E+00  0.000000000000E+00
  0.000000000000E+00  0.000000000000E+00  0.000000000000E+00  0.000000000000E+00
  0.000000000000E+00  0.000000000000E+00  0.000000000000E+00  0.000000000000E+00
  0.000000000000E+00  0.000000000000E+00  0.000000000000E+00  0.000000000000E+00
  0.000000000000E+00  0.000000000000E+00  0.000000000000E+00  0.000000000000E+00
  0.000000000000E+00  0.000000000000E+00  0.000000000000E+00  0.000000000000E+00
  0.000000000000E+00  0.000000000000E+00  0.000000000000E+00  0.000000000000E+00
  0.000000000000E+00  0.000000000000E+00  0.000000000000E+00  0.000000000000E+00
  0.000000000000E+00  0.000000000000E+00  0.000000000000E+00  0.000000000000E+00
  0.000000000000E+00  0.000000000000E+00  0.000000000000E+00  0.000000000000E+00
  0.000000000000E+00  0.000000000000E+00  0.000000000000E+00  0.000000000000E+00
  0.000000000000E+00  0.000000000000E+00  0.000000000000E+00  0.000000000000E+00
  0.000000000000E+00  0.000000000000E+00  0.000000000000E+00  0.000000000000E+00
  0.000000000000E+00  0.000000000000E+00  0.000000000000E+00  0.000000000000E+00
  0.000000000000E+00  0.000000000000E+00
</data>
</radfunc>
</pseudocore-charge>
<semilocal-potentials set="scalar_relativistic">
<slps n="4" l="s" rc="1.91021963455" eref="-0.438995219187">
<radfunc>
<data npts="290">
  9.143260476166E+01  9.133623192211E+01  9.104912140597E+01  9.057338013235E+01
  8.988258872953E+01  8.901351578978E+01  8.792548747921E+01  8.670579455657E+01
  8.536667003290E+01  8.384658961410E+01  8.218457561999E+01  8.043696598450E+01
  7.840248106642E+01  7.636321364457E+01  7.440810492762E+01  7.225144495789E+01
  6.988597448533E+01  6.775220266105E+01  6.547026901715E+01  6.304211463180E+01
  6.047214551333E+01  5.831871911919E+01  5.608389395137E+01  5.377371060869E+01
  5.139533450788E+01  4.895700190002E+01  4.646793287333E+01  4.457387343048E+01
  4.266145908823E+01  4.073540245495E+01  3.880055763863E+01  3.686187263741E+01
  3.492433978504E+01  3.299294531716E+01  3.107261915861E+01  2.916818602544E+01
  2.728431888922E+01  2.542549576718E+01  2.420230020458E+01  2.299331960672E+01
  2.179968951936E+01  2.062248509430E+01  1.946271819453E+01  1.832133502666E+01
  1.719921430346E+01  1.609716593303E+01  1.501593022496E+01  1.395617759844E+01
  1.291850877223E+01  1.190345541185E+01  1.091148120589E+01  9.942983339961E+00
  8.998294334439E+00  8.077684210371E+00  7.181362946515E+00  6.309483189942E+00
  5.462143182326E+00  4.639389864381E+00  3.841222121466E+00  3.067594134374E+00
  2.318418800509E+00  1.593571192023E+00  8.928920190381E-01  2.161910676599E-01
 -4.367494158873E-01 -1.066171422033E+00 -1.672337980997E+00 -1.966787660094E+00
 -2.255530096216E+00 -2.538602745001E+00 -2.816043830539E+00 -3.087892264140E+00
 -3.354187566279E+00 -3.614969791859E+00 -3.870279458934E+00 -4.120157481016E+00
 -4.364645103110E+00 -4.603783841584E+00 -4.837615428000E+00 -5.066181757025E+00
 -5.289524838524E+00 -5.507686753930E+00 -5.720709617015E+00 -5.928635539117E+00
 -6.131506598932E+00 -6.329364816944E+00 -6.522252134542E+00 -6.710210397906E+00
 -6.893281346692E+00 -7.071506607559E+00 -7.244927692553E+00 -7.413586002366E+00
 -7.577522834441E+00 -7.736779395923E+00 -7.891396821370E+00 -8.041416195176E+00
 -8.186878578603E+00 -8.327825041279E+00 -8.464296697007E+00 -8.596334743700E+00
 -8.723980507180E+00 -8.847275488583E+00 -8.966261415034E+00 -9.080980293216E+00
 -9.191474465414E+00 -9.297786667526E+00 -9.399960088515E+00 -9.498038430683E+00
 -9.592065970089E+00 -9.682087616359E+00 -9.768148971099E+00 -9.850296383988E+00
 -9.928577005638E+00 -1.000303883616E+01 -1.007373076838E+01 -1.014070262455E+01
 -1.020400518531E+01 -1.026369020972E+01 -1.031981044503E+01 -1.037241962487E+01
 -1.042157245455E+01 -1.046732458209E+01 -1.050973255384E+01 -1.054885375317E+01
 -1.058474632129E+01 -1.061746905893E+01 -1.064708130795E+01 -1.067364281202E+01
 -1.069721355581E+01 -1.071785358204E+01 -1.073562278638E+01 -1.075058069021E+01
 -1.076278619158E+01 -1.077229729523E+01 -1.077917082279E+01 -1.078346210466E+01
 -1.078522465569E+01 -1.078450983727E+01 -1.078136650875E+01 -1.077584067192E+01
 -1.076797511289E+01 -1.075780904603E+01 -1.074537776569E+01 -1.073071231172E+01
 -1.071383915573E+01 -1.069477991559E+01 -1.067355110637E+01 -1.065016393656E+01
 -1.062462415911E+01 -1.059693198719E+01 -1.056708208512E+01 -1.053506364520E+01
 -1.050086056116E+01 -1.046445170857E+01 -1.042581134210E+01 -1.038490961809E+01