Re    ONCVPSP  r_core=  2.56  2.17  2.17
75.0000     13.0000      140903    zatom,zion,pspd
8    11     2     4   601     0    pspcod,pspxc,lmax,lloc,mmax,r2well
6.00000000  0.50000000  0.00000000    rchrg fchrg qchrg
2     2     2     0     0    nproj
0                 extension_switch
0                         4.1650587388208D+00  4.9944150355165D-01
1  0.0000000000000D+00 -0.0000000000000D+00 -0.0000000000000D+00
2  1.0000000000000D-02 -2.1918833710610D-02 -2.4156188711398D-02
3  2.0000000000000D-02 -4.3809223265749D-02 -4.8264594736017D-02
4  3.0000000000000D-02 -6.5642800377829D-02 -7.2277550245333D-02
5  4.0000000000000D-02 -8.7391348295883D-02 -9.6147616849102D-02
6  5.0000000000000D-02 -1.0902687707643D-01 -1.1982769961950D-01
7  6.0000000000000D-02 -1.3052169825844D-01 -1.4327116028248D-01
8  7.0000000000000D-02 -1.5184849874620D-01 -1.6643192930195D-01
9  8.0000000000000D-02 -1.7298041370425D-01 -1.8926461658247D-01
10  9.0000000000000D-02 -1.9389109827283D-01 -2.1172462052208D-01
11  1.0000000000000D-01 -2.1455479791195D-01 -2.3376823514579D-01
12  1.1000000000000D-01 -2.3494641718724D-01 -2.5535275505688D-01
13  1.2000000000000D-01 -2.5504158681397D-01 -2.7643657794775D-01
14  1.3000000000000D-01 -2.7481672878256D-01 -2.9697930442112D-01
15  1.4000000000000D-01 -2.9424911937045D-01 -3.1694183484312D-01
16  1.5000000000000D-01 -3.1331694991119D-01 -3.3628646305025D-01
17  1.6000000000000D-01 -3.3199938508474D-01 -3.5497696656613D-01
18  1.7000000000000D-01 -3.5027661866432D-01 -3.7297869324637D-01
19  1.8000000000000D-01 -3.6812992644909D-01 -3.9025864395135D-01
20  1.9000000000000D-01 -3.8554171634448D-01 -4.0678555120322D-01
21  2.0000000000000D-01 -4.0249557533035D-01 -4.2252995343878D-01
22  2.1000000000000D-01 -4.1897631335158D-01 -4.3746426492699D-01
23  2.2000000000000D-01 -4.3497000378559D-01 -4.5156284082404D-01
24  2.3000000000000D-01 -4.5046402052563D-01 -4.6480203743674D-01
25  2.4000000000000D-01 -4.6544707147416D-01 -4.7716026738021D-01
26  2.5000000000000D-01 -4.7990922857603D-01 -4.8861804985156D-01
27  2.6000000000000D-01 -4.9384195366726D-01 -4.9915805485880D-01
28  2.7000000000000D-01 -5.0723812104155D-01 -5.0876514287260D-01
29  2.8000000000000D-01 -5.2009203566197D-01 -5.1742639816736D-01
30  2.9000000000000D-01 -5.3239944756397D-01 -5.2513115673876D-01
31  3.0000000000000D-01 -5.4415756220873D-01 -5.3187102841025D-01
32  3.1000000000000D-01 -5.5536504669879D-01 -5.3763991297726D-01
33  3.2000000000000D-01 -5.6602203181363D-01 -5.4243401029373D-01
34  3.3000000000000D-01 -5.7613011018007D-01 -5.4625182492457D-01
35  3.4000000000000D-01 -5.8569232966686D-01 -5.4909416359970D-01
36  3.5000000000000D-01 -5.9471318320941D-01 -5.5096412779271D-01
37  3.6000000000000D-01 -6.0319859400088D-01 -5.5186709926637D-01
38  3.7000000000000D-01 -6.1115589676923D-01 -5.5181072024052D-01
39  3.8000000000000D-01 -6.1859381472999D-01 -5.5080486681766D-01
40  3.9000000000000D-01 -6.2552243263085D-01 -5.4886161693129D-01
41  4.0000000000000D-01 -6.3195316534658D-01 -5.4599521186563D-01
42  4.1000000000000D-01 -6.3789872289060D-01 -5.4222201208672D-01
43  4.2000000000000D-01 -6.4337307125501D-01 -5.3756044716362D-01
44  4.3000000000000D-01 -6.4839138942179D-01 -5.3203095991611D-01
45  4.4000000000000D-01 -6.5297002259952D-01 -5.2565594491427D-01
46  4.5000000000000D-01 -6.5712643179050D-01 -5.1845968146227D-01
47  4.6000000000000D-01 -6.6087913981360D-01 -5.1046826122701D-01
48  4.7000000000000D-01 -6.6424767478252D-01 -5.0170951179474D-01
49  4.8000000000000D-01 -6.6725250769998D-01 -4.9221291193277D-01
50  4.9000000000000D-01 -6.6991498913745D-01 -4.8200950475594D-01
51  5.0000000000000D-01 -6.7225728291271D-01 -4.7113180632695D-01
52  5.1000000000000D-01 -6.7430229993770D-01 -4.5961371389254D-01
53  5.2000000000000D-01 -6.7607361672912D-01 -4.4749039310448D-01
54  5.3000000000000D-01 -6.7759540855431D-01 -4.3479818387780D-01
55  5.4000000000000D-01 -6.7889237519911D-01 -4.2157449616726D-01
56  5.5000000000000D-01 -6.7998964564999D-01 -4.0785767638688D-01
57  5.6000000000000D-01 -6.8091272463281D-01 -3.9368693017689D-01
58  5.7000000000000D-01 -6.8168737426522D-01 -3.7910215615722D-01
59  5.8000000000000D-01 -6.8233957287325D-01 -3.6414388482800D-01
60  5.9000000000000D-01 -6.8289538165346D-01 -3.4885309016727D-01
61  6.0000000000000D-01 -6.8338090922378D-01 -3.3327113599940D-01
62  6.1000000000000D-01 -6.8382217866099D-01 -3.1743958659218D-01
63  6.2000000000000D-01 -6.8424506997679D-01 -3.0140012171744D-01
64  6.3000000000000D-01 -6.8467523542119D-01 -2.8519441361805D-01
65  6.4000000000000D-01 -6.8513797593557D-01 -2.6886394852241D-01
66  6.5000000000000D-01 -6.8565819558179D-01 -2.5244995767950D-01
67  6.6000000000000D-01 -6.8626031188119D-01 -2.3599328606769D-01
68  6.7000000000000D-01 -6.8696812632064D-01 -2.1953420349023D-01
69  6.8000000000000D-01 -6.8780478684351D-01 -2.0311234629382D-01
70  6.9000000000000D-01 -6.8879269418602D-01 -1.8676657885150D-01
71  7.0000000000000D-01 -6.8995342403099D-01 -1.7053487718032D-01
72  7.1000000000000D-01 -6.9130761194335D-01 -1.5445415818263D-01
73  7.2000000000000D-01 -6.9287491816928D-01 -1.3856022375946D-01
74  7.3000000000000D-01 -6.9467393917029D-01 -1.2288762773404D-01
75  7.4000000000000D-01 -6.9672213524789D-01 -1.0746956551340D-01
76  7.5000000000000D-01 -6.9903576465349D-01 -9.2337772788375D-02
77  7.6000000000000D-01 -7.0162981709048D-01 -7.7522422920822D-02
78  7.7000000000000D-01 -7.0451792961864D-01 -6.3051997751117D-02
79  7.8000000000000D-01 -7.0771235715427D-01 -4.8953238363315D-02
80  7.9000000000000D-01 -7.1122390664608D-01 -3.5251042006986D-02
81  8.0000000000000D-01 -7.1506188599435D-01 -2.1968380208305D-02
82  8.1000000000000D-01 -7.1923405726033D-01 -9.1262227481142D-03
83  8.2000000000000D-01 -7.2374659434857D-01  3.2565322106947D-03
84  8.3000000000000D-01 -7.2860404533422D-01  1.5163121579668D-02
85  8.4000000000000D-01 -7.3380929959600D-01  2.6578974133916D-02
86  8.5000000000000D-01 -7.3936355990440D-01  3.7491760398377D-02
87  8.6000000000000D-01 -7.4526631960339D-01  4.7891435411900D-02
88  8.7000000000000D-01 -7.5151534501205D-01  5.7770274166244D-02
89  8.8000000000000D-01 -7.5810666316005D-01  6.7122899534956D-02
90  8.9000000000000D-01 -7.6503455495765D-01  7.5946302525939D-02
91  9.0000000000000D-01 -7.7229155388523D-01  8.4239854712884D-02
92  9.1000000000000D-01 -7.7986845027070D-01  9.2005312725350D-02
93  9.2000000000000D-01 -7.8775430120240D-01  9.9246814705319D-02
94  9.3000000000000D-01 -7.9593644610178D-01  1.0597086867179D-01
95  9.4000000000000D-01 -8.0440053390841D-01  1.1218632267878D-01
96  9.5000000000000D-01 -8.1313054033282D-01  1.1790435230345D-01
97  9.6000000000000D-01 -8.2210878937754D-01  1.2313844453605D-01
98  9.7000000000000D-01 -8.3131601553170D-01  1.2790431315442D-01
99  9.8000000000000D-01 -8.4073139778714D-01  1.3221986273230D-01
100  9.9000000000000D-01 -8.5033260887700D-01  1.3610512849988D-01
101  1.0000000000000D+00 -8.6009586973001D-01  1.3958220859299D-01
102  1.0100000000000D+00 -8.6999600943375D-01  1.4267518707642D-01
103  1.0200000000000D+00 -8.8000652576293D-01  1.4541005095792D-01
104  1.0300000000000D+00 -8.9009964925725D-01  1.4781463433272D-01
105  1.0400000000000D+00 -9.0024643664367D-01  1.4991846818750D-01
106  1.0500000000000D+00 -9.1041684129220D-01  1.5175269706860D-01
107  1.0600000000000D+00 -9.2057979538791D-01  1.5334997055851D-01
108  1.0700000000000D+00 -9.3070326275487D-01  1.5474436185507D-01
109  1.0800000000000D+00 -9.4075440535936D-01  1.5597118140268D-01
110  1.0900000000000D+00 -9.5069963950848D-01  1.5706687121114D-01
111  1.1000000000000D+00 -9.6050472976238D-01  1.5806888290714D-01
112  1.1100000000000D+00 -9.7013485012392D-01  1.5901559015586D-01
113  1.1200000000000D+00 -9.7955473559980D-01  1.5994609839792D-01
114  1.1300000000000D+00 -9.8872887914613D-01  1.6089998626996D-01
115  1.1400000000000D+00 -9.9762150531044D-01  1.6191731581842D-01
116  1.1500000000000D+00 -1.0061966267234D+00  1.6303855532911D-01
117  1.1600000000000D+00 -1.0144183159551D+00  1.6430423324137D-01
118  1.1700000000000D+00 -1.0222508866891D+00  1.6575469032760D-01
119  1.1800000000000D+00 -1.0296587966339D+00  1.6743018812812D-01
120  1.1900000000000D+00 -1.0366065756416D+00  1.6937099754672D-01
121  1.2000000000000D+00 -1.0430596814350D+00  1.7161629512733D-01
122  1.2100000000000D+00 -1.0489839967085D+00  1.7420478841312D-01
123  1.2200000000000D+00 -1.0543458188495D+00  1.7717472904619D-01
124  1.2300000000000D+00 -1.0591125083331D+00  1.8056306665543D-01
125  1.2400000000000D+00 -1.0632525082563D+00  1.8440540779109D-01
126  1.2500000000000D+00 -1.0667348820204D+00  1.8873661566703D-01
127  1.2600000000000D+00 -1.0695299578320D+00  1.9358996498105D-01
128  1.2700000000000D+00 -1.0716097204820D+00  1.9899661588124D-01
129  1.2800000000000D+00 -1.0729469085726D+00  2.0498679776090D-01
130  1.2900000000000D+00 -1.0735159051269D+00  2.1158863567392D-01
131  1.3000000000000D+00 -1.0732931153357D+00  2.1882764342125D-01
132  1.3100000000000D+00 -1.0722557470296D+00  2.2672833360772D-01
133  1.3200000000000D+00 -1.0703833199026D+00  2.3531222124669D-01
134  1.3300000000000D+00 -1.0676573929510D+00  2.4459818034366D-01
135  1.3400000000000D+00 -1.0640603158105D+00  2.5460409727683D-01
136  1.3500000000000D+00 -1.0595777759837D+00  2.6534349804526D-01
137  1.3600000000000D+00 -1.0541968589942D+00  2.7682811784602D-01
138  1.3700000000000D+00 -1.0479061659243D+00  2.8906774370292D-01
139  1.3800000000000D+00 -1.0406979033352D+00  3.0206745604304D-01
140  1.3900000000000D+00 -1.0325649838138D+00  3.1583146210650D-01
141  1.4000000000000D+00 -1.0235035237312D+00  3.3035979869260D-01
142  1.4100000000000D+00 -1.0135119634555D+00  3.4564950613309D-01
143  1.4200000000000D+00 -1.0025898908060D+00  3.6169616703397D-01
144  1.4300000000000D+00 -9.9074117170316D-01  3.7848981551520D-01
145  1.4400000000000D+00 -9.7797015648738D-01  3.9601990837320D-01
146  1.4500000000000D+00 -9.6428488450698D-01  4.1427114161008D-01
147  1.4600000000000D+00 -9.4969531721776D-01  4.3322577830761D-01
148  1.4700000000000D+00 -9.3421330467852D-01  4.5286367277307D-01
149  1.4800000000000D+00 -9.1785440989474D-01  4.7315996468910D-01
150  1.4900000000000D+00 -9.0063449889659D-01  4.9408942952894D-01
151  1.5000000000000D+00 -8.8257409690584D-01  5.1562096660455D-01
152  1.5100000000000D+00 -8.6369403791132D-01  5.3772311834736D-01
153  1.5200000000000D+00 -8.4401871878447D-01  5.6035998266753D-01
154  1.5300000000000D+00 -8.2357403480881D-01  5.8349383890055D-01
155  1.5400000000000D+00 -8.0238816873868D-01  6.0708413993098D-01
156  1.5500000000000D+00 -7.8049171116887D-01  6.3108747148492D-01
157  1.5600000000000D+00 -7.5791654810927D-01  6.5545880226906D-01
158  1.5700000000000D+00 -7.3469750293058D-01  6.8014972438072D-01
159  1.5800000000000D+00 -7.1087005131172D-01  7.0511093317113D-01
160  1.5900000000000D+00 -6.8647270141479D-01  7.3028982976248D-01
161  1.6000000000000D+00 -6.6154442022148D-01  7.5563306970789D-01
162  1.6100000000000D+00 -6.3612677498028D-01  7.8108472652435D-01
163  1.6200000000000D+00 -6.1026199530835D-01  8.0658786364130D-01
164  1.6300000000000D+00 -5.8399419317271D-01  8.3208393807433D-01
165  1.6400000000000D+00 -5.5736839661295D-01  8.5751313676594D-01
166  1.6500000000000D+00 -5.3043085964353D-01  8.8281492125292D-01
167  1.6600000000000D+00 -5.0322887302339D-01  9.0792738933985D-01
168  1.6700000000000D+00 -4.7581036685335D-01  9.3278871927610D-01
169  1.6800000000000D+00 -4.4822436319448D-01  9.5733569298260D-01
170  1.6900000000000D+00 -4.2051993118009D-01  9.8150601793998D-01
171  1.7000000000000D+00 -3.9274731581004D-01  1.0052358927603D+00
172  1.7100000000000D+00 -3.6495611269924D-01  1.0284634710572D+00
173  1.7200000000000D+00 -3.3719732068474D-01  1.0511250374063D+00
174  1.7300000000000D+00 -3.0952037311329D-01  1.0731602110942D+00
175  1.7400000000000D+00 -2.8197660540604D-01  1.0945059517883D+00
176  1.7500000000000D+00 -2.5461452826337D-01  1.1151044565642D+00
177  1.7600000000000D+00 -2.2748545480042D-01  1.1348938618899D+00
178  1.7700000000000D+00 -2.0063615391788D-01  1.1538201244282D+00
179  1.7800000000000D+00 -1.7411761243624D-01  1.1718229797717D+00
180  1.7900000000000D+00 -1.4797429613064D-01  1.1888529036751D+00
181  1.8000000000000D+00 -1.2225572460385D-01  1.2048529543129D+00
182  1.8100000000000D+00 -9.7004345848764D-02  1.2197775729684D+00
183  1.8200000000000D+00 -7.2266887679500D-02  1.2335750930952D+00
184  1.8300000000000D+00 -4.8083956871518D-02  1.2462035868125D+00
185  1.8400000000000D+00 -2.4498359401316D-02  1.2576182617266D+00
186  1.8500000000000D+00 -1.5489400454431D-03  1.2677806642846D+00
187  1.8600000000000D+00  2.0726506739361D-02  1.2766543693748D+00
188  1.8700000000000D+00  4.2290751503514D-02  1.2842041625868D+00
189  1.8800000000000D+00  6.3112047177374D-02  1.2904033534783D+00
190  1.8900000000000D+00  8.3154658576270D-02  1.2952197947386D+00
191  1.9000000000000D+00  1.0239323775285D-01  1.2986368617675D+00
192  1.9100000000000D+00  1.2079509308006D-01  1.3006277250018D+00
193  1.9200000000000D+00  1.3833936438396D-01  1.3011829072072D+00
194  1.9300000000000D+00  1.5500000812027D-01  1.3002859697579D+00
195  1.9400000000000D+00  1.7075788420229D-01  1.2979305784861D+00
196  1.9500000000000D+00  1.8559541909603D-01  1.2941130418541D+00
197  1.9600000000000D+00  1.9949471337791D-01  1.2888295560993D+00
198  1.9700000000000D+00  2.1244718531918D-01  1.2820895783395D+00
199  1.9800000000000D+00  2.2443661144882D-01  1.2738925415874D+00
200  1.9900000000000D+00  2.3546116622081D-01  1.2642576998067D+00
201  2.0000000000000D+00  2.4551233897803D-01  1.2531957983673D+00
202  2.0100000000000D+00  2.5458916879416D-01  1.2407278754593D+00
203  2.0200000000000D+00  2.6269326981706D-01  1.2268788002653D+00
204  2.0300000000000D+00  2.6982417699955D-01  1.2116711348452D+00
205  2.0400000000000D+00  2.7599242373699D-01  1.1951417511145D+00
206  2.0500000000000D+00  2.8120172392119D-01  1.1773195462781D+00
207  2.0600000000000D+00  2.8546633267166D-01  1.1582465246791D+00
208  2.0700000000000D+00  2.8879909398003D-01  1.1379635709816D+00
209  2.0800000000000D+00  2.9121415275346D-01  1.1165134258958D+00
210  2.0900000000000D+00  2.9273342665976D-01  1.0939480037653D+00
211  2.1000000000000D+00  2.9337348182337D-01  1.0703141116023D+00
212  2.1100000000000D+00  2.9316063953255D-01  1.0456688380230D+00
213  2.1200000000000D+00  2.9211931341093D-01  1.0200681651860D+00
214  2.1300000000000D+00  2.9027546277832D-01  9.9356991009113D-01
215  2.1400000000000D+00  2.8766092143735D-01  9.6623731809090D-01
216  2.1500000000000D+00  2.8430424800007D-01  9.3813229214667D-01
217  2.1600000000000D+00  2.8024013611332D-01  9.0932073493461D-01
218  2.1700000000000D+00  2.7550317968400D-01  8.7986945273153D-01
219  2.1800000000000D+00  2.7012827703640D-01  8.4984633470550D-01
220  2.1900000000000D+00  2.6415449287964D-01  8.1932210619391D-01
221  2.2000000000000D+00  2.5761990201639D-01  7.8836804022015D-01
222  2.2100000000000D+00  2.5056474876496D-01  7.5705731264475D-01
223  2.2200000000000D+00  2.4303053135251D-01  7.2546463088033D-01
224  2.2300000000000D+00  2.3505934608237D-01  6.9366690199239D-01
225  2.2400000000000D+00  2.2669390387869D-01  6.6173937763141D-01
226  2.2500000000000D+00  2.1797826387817D-01  6.2976066239963D-01
227  2.2600000000000D+00  2.0895691442957D-01  5.9780966977471D-01
228  2.2700000000000D+00  1.9967339801593D-01  5.6596227061937D-01
229  2.2800000000000D+00  1.9017434876241D-01  5.3430050515357D-01
230  2.2900000000000D+00  1.8050379851383D-01  5.0290076744081D-01
231  2.3000000000000D+00  1.7070566368618D-01  4.7183882847193D-01
232  2.3100000000000D+00  1.6082855858005D-01  4.4119911292491D-01
233  2.3200000000000D+00  1.5091338025878D-01  4.1105130704874D-01
234  2.3300000000000D+00  1.4100475478540D-01  3.8147175391571D-01
235  2.3400000000000D+00  1.3114999015882D-01  3.5254142916236D-01
236  2.3500000000000D+00  1.2138697061577D-01  3.2432411529302D-01
237  2.3600000000000D+00  1.1176031861383D-01  2.9689541369830D-01
238  2.3700000000000D+00  1.0231290232745D-01  2.7032765198809D-01
239  2.3800000000000D+00  9.3079824112454D-02  2.4467931660742D-01
240  2.3900000000000D+00  8.4104472893796D-02  2.2002316040827D-01
241  2.4000000000000D+00  7.5423448938716D-02  1.9642001993058D-01
242  2.4100000000000D+00  6.7068361467942D-02  1.7392192492034D-01
243  2.4200000000000D+00  5.9080278873948D-02  1.5259698770723D-01
244  2.4300000000000D+00  5.1488217924077D-02  1.3249254019908D-01
245  2.4400000000000D+00  4.4319497324759D-02  1.1365284579146D-01
246  2.4500000000000D+00  3.7611685758748D-02  9.6139444590688D-02
247  2.4600000000000D+00  3.1385436813647D-02  7.9985006809471D-02
248  2.4700000000000D+00  2.5662910710201D-02  6.5224601703667D-02
249  2.4800000000000D+00  2.0476965024989D-02  5.1911221102847D-02
250  2.4900000000000D+00  1.5839631597881D-02  4.0062544264430D-02
251  2.5000000000000D+00  1.1767014050452D-02  2.9702968563637D-02
252  2.5100000000000D+00  8.2860695926217D-03  2.0875002122843D-02
253  2.5200000000000D+00  5.4004313155360D-03  1.3581767419621D-02
254  2.5300000000000D+00  3.1192750705347D-03  7.8355552120657D-03
255  2.5400000000000D+00  1.5872619303717D-03  3.9786596254839D-03
256  2.5500000000000D+00  6.0594402858970D-04  1.5144948638269D-03
257  2.5600000000000D+00  5.5878520326192D-05  1.3940190985358D-04
258  2.5700000000000D+00 -1.7025328157420D-04 -4.2743285090786D-04
259  2.5800000000000D+00 -1.6804844899078D-04 -4.2198483935052D-04
260  2.5900000000000D+00 -3.7211461004642D-05 -9.3447047662332D-05
261  2.6000000000000D+00 -1.6968134280200D-07 -4.4083997540385D-07
262  2.6100000000000D+00 -1.8299061738416D-07 -4.7541808624714D-07
263  2.6200000000000D+00 -5.6488667654444D-08 -1.4676017084825D-07
264  2.6300000000000D+00  0.0000000000000D+00  0.0000000000000D+00
265  2.6400000000000D+00  0.0000000000000D+00  0.0000000000000D+00
266  2.6500000000000D+00  0.0000000000000D+00  0.0000000000000D+00
267  2.6600000000000D+00  0.0000000000000D+00  0.0000000000000D+00
268  2.6700000000000D+00  0.0000000000000D+00  0.0000000000000D+00
269  2.6800000000000D+00  0.0000000000000D+00  0.0000000000000D+00
270  2.6900000000000D+00  0.0000000000000D+00  0.0000000000000D+00
271  2.7000000000000D+00  0.0000000000000D+00  0.0000000000000D+00
272  2.7100000000000D+00  0.0000000000000D+00  0.0000000000000D+00
273  2.7200000000000D+00  0.0000000000000D+00  0.0000000000000D+00
274  2.7300000000000D+00  0.0000000000000D+00  0.0000000000000D+00
275  2.7400000000000D+00  0.0000000000000D+00  0.0000000000000D+00
276  2.7500000000000D+00  0.0000000000000D+00  0.0000000000000D+00
277  2.7600000000000D+00  0.0000000000000D+00  0.0000000000000D+00
278  2.7700000000000D+00  0.0000000000000D+00  0.0000000000000D+00
279  2.7800000000000D+00  0.0000000000000D+00  0.0000000000000D+00
280  2.7900000000000D+00  0.0000000000000D+00  0.0000000000000D+00
281  2.8000000000000D+00  0.0000000000000D+00  0.0000000000000D+00
282  2.8100000000000D+00  0.0000000000000D+00  0.0000000000000D+00
283  2.8200000000000D+00  0.0000000000000D+00  0.0000000000000D+00
284  2.8300000000000D+00  0.0000000000000D+00  0.0000000000000D+00
285  2.8400000000000D+00  0.0000000000000D+00  0.0000000000000D+00
286  2.8500000000000D+00  0.0000000000000D+00  0.0000000000000D+00
287  2.8600000000000D+00  0.0000000000000D+00  0.0000000000000D+00
288  2.8700000000000D+00  0.0000000000000D+00  0.0000000000000D+00
289  2.8800000000000D+00  0.0000000000000D+00  0.0000000000000D+00
290  2.8900000000000D+00  0.0000000000000D+00  0.0000000000000D+00
291  2.9000000000000D+00  0.0000000000000D+00  0.0000000000000D+00
292  2.9100000000000D+00  0.0000000000000D+00  0.0000000000000D+00
293  2.9200000000000D+00  0.0000000000000D+00  0.0000000000000D+00
294  2.9300000000000D+00  0.0000000000000D+00  0.0000000000000D+00
295  2.9400000000000D+00  0.0000000000000D+00  0.0000000000000D+00
296  2.9500000000000D+00  0.0000000000000D+00  0.0000000000000D+00
297  2.9600000000000D+00  0.0000000000000D+00  0.0000000000000D+00
298  2.9700000000000D+00  0.0000000000000D+00  0.0000000000000D+00
299  2.9800000000000D+00  0.0000000000000D+00  0.0000000000000D+00
300  2.9900000000000D+00  0.0000000000000D+00  0.0000000000000D+00
301  3.0000000000000D+00  0.0000000000000D+00  0.0000000000000D+00
302  3.0100000000000D+00  0.0000000000000D+00  0.0000000000000D+00
303  3.0200000000000D+00  0.0000000000000D+00  0.0000000000000D+00
304  3.0300000000000D+00  0.0000000000000D+00  0.0000000000000D+00
305  3.0400000000000D+00  0.0000000000000D+00  0.0000000000000D+00
306  3.0500000000000D+00  0.0000000000000D+00  0.0000000000000D+00
307  3.0600000000000D+00  0.0000000000000D+00  0.0000000000000D+00
308  3.0700000000000D+00  0.0000000000000D+00  0.0000000000000D+00
309  3.0800000000000D+00  0.0000000000000D+00  0.0000000000000D+00
310  3.0900000000000D+00  0.0000000000000D+00  0.0000000000000D+00
311  3.1000000000000D+00  0.0000000000000D+00  0.0000000000000D+00
312  3.1100000000000D+00  0.0000000000000D+00  0.0000000000000D+00
313  3.1200000000000D+00  0.0000000000000D+00  0.0000000000000D+00
314  3.1300000000000D+00  0.0000000000000D+00  0.0000000000000D+00
315  3.1400000000000D+00  0.0000000000000D+00  0.0000000000000D+00
316  3.1500000000000D+00  0.0000000000000D+00  0.0000000000000D+00
317  3.1600000000000D+00  0.0000000000000D+00  0.0000000000000D+00
318  3.1700000000000D+00  0.0000000000000D+00  0.0000000000000D+00
319  3.1800000000000D+00  0.0000000000000D+00  0.0000000000000D+00
320  3.1900000000000D+00  0.0000000000000D+00  0.0000000000000D+00
321  3.2000000000000D+00  0.0000000000000D+00  0.0000000000000D+00
322  3.2100000000000D+00  0.0000000000000D+00  0.0000000000000D+00
323  3.2200000000000D+00  0.0000000000000D+00  0.0000000000000D+00
324  3.2300000000000D+00  0.0000000000000D+00  0.0000000000000D+00
325  3.2400000000000D+00  0.0000000000000D+00  0.0000000000000D+00
326  3.2500000000000D+00  0.0000000000000D+00  0.0000000000000D+00
327  3.2600000000000D+00  0.0000000000000D+00  0.0000000000000D+00
328  3.2700000000000D+00  0.0000000000000D+00  0.0000000000000D+00
329  3.2800000000000D+00  0.0000000000000D+00  0.0000000000000D+00
330  3.2900000000000D+00  0.0000000000000D+00  0.0000000000000D+00
331  3.3000000000000D+00  0.0000000000000D+00  0.0000000000000D+00
332  3.3100000000000D+00  0.0000000000000D+00  0.0000000000000D+00
333  3.3200000000000D+00  0.0000000000000D+00  0.0000000000000D+00
334  3.3300000000000D+00  0.0000000000000D+00  0.0000000000000D+00
335  3.3400000000000D+00  0.0000000000000D+00  0.0000000000000D+00
336  3.3500000000000D+00  0.0000000000000D+00  0.0000000000000D+00
337  3.3600000000000D+00  0.0000000000000D+00  0.0000000000000D+00
338  3.3700000000000D+00  0.0000000000000D+00  0.0000000000000D+00
339  3.3800000000000D+00  0.0000000000000D+00  0.0000000000000D+00
340  3.3900000000000D+00  0.0000000000000D+00  0.0000000000000D+00
341  3.4000000000000D+00  0.0000000000000D+00  0.0000000000000D+00
342  3.4100000000000D+00  0.0000000000000D+00  0.0000000000000D+00
343  3.4200000000000D+00  0.0000000000000D+00  0.0000000000000D+00
344  3.4300000000000D+00  0.0000000000000D+00  0.0000000000000D+00
345  3.4400000000000D+00  0.0000000000000D+00  0.0000000000000D+00
346  3.4500000000000D+00  0.0000000000000D+00  0.0000000000000D+00
347  3.4600000000000D+00  0.0000000000000D+00  0.0000000000000D+00
348  3.4700000000000D+00  0.0000000000000D+00  0.0000000000000D+00
349  3.4800000000000D+00  0.0000000000000D+00  0.0000000000000D+00
350  3.4900000000000D+00  0.0000000000000D+00  0.0000000000000D+00
351  3.5000000000000D+00  0.0000000000000D+00  0.0000000000000D+00
352  3.5100000000000D+00  0.0000000000000D+00  0.0000000000000D+00
353  3.5200000000000D+00  0.0000000000000D+00  0.0000000000000D+00
354  3.5300000000000D+00  0.0000000000000D+00  0.0000000000000D+00
355  3.5400000000000D+00  0.0000000000000D+00  0.0000000000000D+00
356  3.5500000000000D+00  0.0000000000000D+00  0.0000000000000D+00
357  3.5600000000000D+00  0.0000000000000D+00  0.0000000000000D+00
358  3.5700000000000D+00  0.0000000000000D+00  0.0000000000000D+00
359  3.5800000000000D+00  0.0000000000000D+00  0.0000000000000D+00
360  3.5900000000000D+00  0.0000000000000D+00  0.0000000000000D+00
361  3.6000000000000D+00  0.0000000000000D+00  0.0000000000000D+00
362  3.6100000000000D+00  0.0000000000000D+00  0.0000000000000D+00
363  3.6200000000000D+00  0.0000000000000D+00  0.0000000000000D+00
364  3.6300000000000D+00  0.0000000000000D+00  0.0000000000000D+00
365  3.6400000000000D+00  0.0000000000000D+00  0.0000000000000D+00
366  3.6500000000000D+00  0.0000000000000D+00  0.0000000000000D+00
367  3.6600000000000D+00  0.0000000000000D+00  0.0000000000000D+00
368  3.6700000000000D+00  0.0000000000000D+00  0.0000000000000D+00
369  3.6800000000000D+00  0.0000000000000D+00  0.0000000000000D+00
370  3.6900000000000D+00  0.0000000000000D+00  0.0000000000000D+00
371  3.7000000000000D+00  0.0000000000000D+00  0.0000000000000D+00
372  3.7100000000000D+00  0.0000000000000D+00  0.0000000000000D+00
373  3.7200000000000D+00  0.0000000000000D+00  0.0000000000000D+00
374  3.7300000000000D+00  0.0000000000000D+00  0.0000000000000D+00
375  3.7400000000000D+00  0.0000000000000D+00  0.0000000000000D+00
376  3.7500000000000D+00  0.0000000000000D+00  0.0000000000000D+00
377  3.7600000000000D+00  0.0000000000000D+00  0.0000000000000D+00
378  3.7700000000000D+00  0.0000000000000D+00  0.0000000000000D+00
379  3.7800000000000D+00  0.0000000000000D+00  0.0000000000000D+00
380  3.7900000000000D+00  0.0000000000000D+00  0.0000000000000D+00
381  3.8000000000000D+00  0.0000000000000D+00  0.0000000000000D+00
382  3.8100000000000D+00  0.0000000000000D+00  0.0000000000000D+00
383  3.8200000000000D+00  0.0000000000000D+00  0.0000000000000D+00
384  3.8300000000000D+00  0.0000000000000D+00  0.0000000000000D+00
385  3.8400000000000D+00  0.0000000000000D+00  0.0000000000000D+00
386  3.8500000000000D+00  0.0000000000000D+00  0.0000000000000D+00
387  3.8600000000000D+00  0.0000000000000D+00  0.0000000000000D+00
388  3.8700000000000D+00  0.0000000000000D+00  0.0000000000000D+00
389  3.8800000000000D+00  0.0000000000000D+00  0.0000000000000D+00
390  3.8900000000000D+00  0.0000000000000D+00  0.0000000000000D+00
391  3.9000000000000D+00  0.0000000000000D+00  0.0000000000000D+00
392  3.9100000000000D+00  0.0000000000000D+00  0.0000000000000D+00
393  3.9200000000000D+00  0.0000000000000D+00  0.0000000000000D+00
394  3.9300000000000D+00  0.0000000000000D+00  0.0000000000000D+00
395  3.9400000000000D+00  0.0000000000000D+00  0.0000000000000D+00
396  3.9500000000000D+00  0.0000000000000D+00  0.0000000000000D+00
397  3.9600000000000D+00  0.0000000000000D+00  0.0000000000000D+00
398  3.9700000000000D+00  0.0000000000000D+00  0.0000000000000D+00
399  3.9800000000000D+00  0.0000000000000D+00  0.0000000000000D+00
400  3.9900000000000D+00  0.0000000000000D+00  0.0000000000000D+00
401  4.0000000000000D+00  0.0000000000000D+00  0.0000000000000D+00
402  4.0100000000000D+00  0.0000000000000D+00  0.0000000000000D+00
403  4.0200000000000D+00  0.0000000000000D+00  0.0000000000000D+00
404  4.0300000000000D+00  0.0000000000000D+00  0.0000000000000D+00
405  4.0400000000000D+00  0.0000000000000D+00  0.0000000000000D+00
406  4.0500000000000D+00  0.0000000000000D+00  0.0000000000000D+00
407  4.0600000000000D+00  0.0000000000000D+00  0.0000000000000D+00
408  4.0700000000000D+00  0.0000000000000D+00  0.0000000000000D+00
409  4.0800000000000D+00  0.0000000000000D+00  0.0000000000000D+00
410  4.0900000000000D+00  0.0000000000000D+00  0.0000000000000D+00
411  4.1000000000000D+00  0.0000000000000D+00  0.0000000000000D+00
412  4.1100000000000D+00  0.0000000000000D+00  0.0000000000000D+00
413  4.1200000000000D+00  0.0000000000000D+00  0.0000000000000D+00
414  4.1300000000000D+00  0.0000000000000D+00  0.0000000000000D+00
415  4.1400000000000D+00  0.0000000000000D+00  0.0000000000000D+00
416  4.1500000000000D+00  0.0000000000000D+00  0.0000000000000D+00
417  4.1600000000000D+00  0.0000000000000D+00  0.0000000000000D+00
418  4.1700000000000D+00  0.0000000000000D+00  0.0000000000000D+00
419  4.1800000000000D+00  0.0000000000000D+00  0.0000000000000D+00
420  4.1900000000000D+00  0.0000000000000D+00  0.0000000000000D+00
421  4.2000000000000D+00  0.0000000000000D+00  0.0000000000000D+00
422  4.2100000000000D+00  0.0000000000000D+00  0.0000000000000D+00
423  4.2200000000000D+00  0.0000000000000D+00  0.0000000000000D+00
424  4.2300000000000D+00  0.0000000000000D+00  0.0000000000000D+00
425  4.2400000000000D+00  0.0000000000000D+00  0.0000000000000D+00
426  4.2500000000000D+00  0.0000000000000D+00  0.0000000000000D+00
427  4.2600000000000D+00  0.0000000000000D+00  0.0000000000000D+00
428  4.2700000000000D+00  0.0000000000000D+00  0.0000000000000D+00
429  4.2800000000000D+00  0.0000000000000D+00  0.0000000000000D+00
430  4.2900000000000D+00  0.0000000000000D+00  0.0000000000000D+00
431  4.3000000000000D+00  0.0000000000000D+00  0.0000000000000D+00
432  4.3100000000000D+00  0.0000000000000D+00  0.0000000000000D+00
433  4.3200000000000D+00  0.0000000000000D+00  0.0000000000000D+00
434  4.3300000000000D+00  0.0000000000000D+00  0.0000000000000D+00
435  4.3400000000000D+00  0.0000000000000D+00  0.0000000000000D+00
436  4.3500000000000D+00  0.0000000000000D+00  0.0000000000000D+00
437  4.3600000000000D+00  0.0000000000000D+00  0.0000000000000D+00
438  4.3700000000000D+00  0.0000000000000D+00  0.0000000000000D+00
439  4.3800000000000D+00  0.0000000000000D+00  0.0000000000000D+00
440  4.3900000000000D+00  0.0000000000000D+00  0.0000000000000D+00
441  4.4000000000000D+00  0.0000000000000D+00  0.0000000000000D+00
442  4.4100000000000D+00  0.0000000000000D+00  0.0000000000000D+00
443  4.4200000000000D+00  0.0000000000000D+00  0.0000000000000D+00
444  4.4300000000000D+00  0.0000000000000D+00  0.0000000000000D+00