Re    ONCVPSP  r_core=  1.46  1.55  1.55
75.0000     15.0000      140827    zatom,zion,pspd
8    11     2     4   601     0    pspcod,pspxc,lmax,lloc,mmax,r2well
6.00000000  0.50000000  0.00000000    rchrg fchrg qchrg
2     2     2     0     0    nproj
0                 extension_switch
0                         7.4616031660687D+01  3.1290397865955D+00
1  0.0000000000000D+00 -0.0000000000000D+00 -0.0000000000000D+00
2  1.0000000000000D-02 -6.7302920863580D-02 -9.0488657610866D-03
3  2.0000000000000D-02 -1.3454473363139D-01 -1.8014395714448D-02
4  3.0000000000000D-02 -2.0166345217229D-01 -2.6814836318950D-02
5  4.0000000000000D-02 -2.6859534693237D-01 -3.5371580000142D-02
6  5.0000000000000D-02 -3.3527410471462D-01 -4.3610691900534D-02
7  6.0000000000000D-02 -4.0163002589054D-01 -5.1464381657289D-02
8  7.0000000000000D-02 -4.6758927092149D-01 -5.8872402736367D-02
9  8.0000000000000D-02 -5.3307316757705D-01 -6.5783362544393D-02
10  9.0000000000000D-02 -5.9799758959704D-01 -7.2155927458387D-02
11  1.0000000000000D-01 -6.6227241683804D-01 -7.7959907904409D-02
12  1.1000000000000D-01 -7.2580108608580D-01 -8.3177209847332D-02
13  1.2000000000000D-01 -7.8848024078292D-01 -8.7802640378513D-02
14  1.3000000000000D-01 -8.5019948689185D-01 -9.1844556567375D-02
15  1.4000000000000D-01 -9.1084126109022D-01 -9.5325348092588D-02
16  1.5000000000000D-01 -9.7028081609160D-01 -9.8281746453059D-02
17  1.6000000000000D-01 -1.0283863269961D+00 -1.0076495430175D-01
18  1.7000000000000D-01 -1.0850191209507D+00 -1.0284059153903D-01
19  1.8000000000000D-01 -1.1400340313019D+00 -1.0458845536534D-01
20  1.9000000000000D-01 -1.1932798760640D+00 -1.0610209450975D-01
21  2.0000000000000D-01 -1.2446000586764D+00 -1.0748819938205D-01
22  2.1000000000000D-01 -1.2938332892390D+00 -1.0886581102637D-01
23  2.2000000000000D-01 -1.3408144204321D+00 -1.1036535548665D-01
24  2.3000000000000D-01 -1.3853753935137D+00 -1.1212751040157D-01
25  2.4000000000000D-01 -1.4273462863461D+00 -1.1430191427343D-01
26  2.5000000000000D-01 -1.4665564606095D+00 -1.1704572326780D-01
27  2.6000000000000D-01 -1.5028357848920D+00 -1.2052204468342D-01
28  2.7000000000000D-01 -1.5360159459237D+00 -1.2489823475936D-01
29  2.8000000000000D-01 -1.5659318133399D+00 -1.3034410397151D-01
30  2.9000000000000D-01 -1.5924228600471D+00 -1.3703002992458D-01
31  3.0000000000000D-01 -1.6153346217573D+00 -1.4512499982597D-01
32  3.1000000000000D-01 -1.6345201797554D+00 -1.5479460455063D-01
33  3.2000000000000D-01 -1.6498416482543D+00 -1.6619901022537D-01
34  3.3000000000000D-01 -1.6611716858991D+00 -1.7949088249696D-01
35  3.4000000000000D-01 -1.6683949355034D+00 -1.9481339148119D-01
36  3.5000000000000D-01 -1.6714094878976D+00 -2.1229817191314D-01
37  3.6000000000000D-01 -1.6701282415425D+00 -2.3206341014310D-01
38  3.7000000000000D-01 -1.6644802622848D+00 -2.5421191898234D-01
39  3.8000000000000D-01 -1.6544119854468D+00 -2.7882941474441D-01
40  3.9000000000000D-01 -1.6398883761119D+00 -3.0598284054090D-01
41  4.0000000000000D-01 -1.6208940021405D+00 -3.3571879653940D-01
42  4.1000000000000D-01 -1.5974339184819D+00 -3.6806221906829D-01
43  4.2000000000000D-01 -1.5695344692785D+00 -4.0301516175114D-01
44  4.3000000000000D-01 -1.5372439337197D+00 -4.4055578129678D-01
45  4.4000000000000D-01 -1.5006330178139D+00 -4.8063752554464D-01
46  4.5000000000000D-01 -1.4597951832735D+00 -5.2318853644457D-01
47  4.6000000000000D-01 -1.4148468058254D+00 -5.6811127911664D-01
48  4.7000000000000D-01 -1.3659271440152D+00 -6.1528242594506D-01
49  4.8000000000000D-01 -1.3131981787033D+00 -6.6455290385095D-01
50  4.9000000000000D-01 -1.2568442062462D+00 -7.1574827936793D-01
51  5.0000000000000D-01 -1.1970712642193D+00 -7.6866936734711D-01
52  5.1000000000000D-01 -1.1341063786550D+00 -8.2309308696488D-01
53  5.2000000000000D-01 -1.0681966707823D+00 -8.7877347038026D-01
54  5.3000000000000D-01 -9.9960818860539D-01 -9.3544309090452D-01
55  5.4000000000000D-01 -9.2862467328140D-01 -9.9281456125211D-01
56  5.5000000000000D-01 -8.5554603003316D-01 -1.0505823815927D+00
57  5.6000000000000D-01 -7.8068686016998D-01 -1.1084248167697D+00
58  5.7000000000000D-01 -7.0437446337822D-01 -1.1660063261538D+00
59  5.8000000000000D-01 -6.2694730316917D-01 -1.2229795639442D+00
60  5.9000000000000D-01 -5.4875250811843D-01 -1.2789884550639D+00
61  6.0000000000000D-01 -4.7014433214446D-01 -1.3336702143506D+00
62  6.1000000000000D-01 -3.9148134786955D-01 -1.3866588414336D+00
63  6.2000000000000D-01 -3.1312455751234D-01 -1.4375875544063D+00
64  6.3000000000000D-01 -2.3543513186334D-01 -1.4860916575993D+00
65  6.4000000000000D-01 -1.5877139383188D-01 -1.5318123356608D+00
66  6.5000000000000D-01 -8.3487131770029D-02 -1.5743988275268D+00
67  6.6000000000000D-01 -9.9291916093316D-03 -1.6135114658091D+00
68  6.7000000000000D-01  6.1565787281304D-02 -1.6488257712298D+00
69  6.8000000000000D-01  1.3067278542082D-01 -1.6800342534920D+00
70  6.9000000000000D-01  1.9708086998167D-01 -1.7068494945364D+00
71  7.0000000000000D-01  2.6049530308891D-01 -1.7290067743864D+00
72  7.1000000000000D-01  3.2064041944596D-01 -1.7462676298737D+00
73  7.2000000000000D-01  3.7726067806672D-01 -1.7584211309495D+00
74  7.3000000000000D-01  4.3012278575618D-01 -1.7652864601754D+00
75  7.4000000000000D-01  4.7901737676781D-01 -1.7667149167010D+00
76  7.5000000000000D-01  5.2376044338562D-01 -1.7625915853941D+00
77  7.6000000000000D-01  5.6419466834633D-01 -1.7528368552588D+00
78  7.7000000000000D-01  6.0019100750492D-01 -1.7374082018294D+00
79  7.8000000000000D-01  6.3164894694629D-01 -1.7163003210833D+00
80  7.9000000000000D-01  6.5849742579763D-01 -1.6895460389954D+00
81  8.0000000000000D-01  6.8069529453848D-01 -1.6572166163117D+00
82  8.1000000000000D-01  6.9823153870007D-01 -1.6194217295947D+00
83  8.2000000000000D-01  7.1112526431347D-01 -1.5763091243953D+00
84  8.3000000000000D-01  7.1942544358471D-01 -1.5280639394176D+00
85  8.4000000000000D-01  7.2321042140621D-01 -1.4749077035667D+00
86  8.5000000000000D-01  7.2258718544461D-01 -1.4170970107963D+00
87  8.6000000000000D-01  7.1769040466718D-01 -1.3549218806840D+00
88  8.7000000000000D-01  7.0868124327855D-01 -1.2887038156574D+00
89  8.8000000000000D-01  6.9574595913232D-01 -1.2187935687631D+00
90  8.9000000000000D-01  6.7909429775963D-01 -1.1455686388121D+00
91  9.0000000000000D-01  6.5895769521187D-01 -1.0694305126421D+00
92  9.1000000000000D-01  6.3558730494260D-01 -9.9080167709672D-01
93  9.2000000000000D-01  6.0925186593603D-01 -9.1012242610221D-01
94  9.3000000000000D-01  5.8023543119980D-01 -8.2784749088987D-01
95  9.4000000000000D-01  5.4883505485021D-01 -7.4444268496738D-01
96  9.5000000000000D-01  5.1535832378188D-01 -6.6038123492022D-01
97  9.6000000000000D-01  4.8012045173066D-01 -5.7613946084404D-01
98  9.7000000000000D-01  4.4344193737065D-01 -4.9219360256636D-01
99  9.8000000000000D-01  4.0564583109645D-01 -4.0901583403611D-01
100  9.9000000000000D-01  3.6705507463035D-01 -3.2707048475815D-01
101  1.0000000000000D+00  3.2798986744746D-01 -2.4681032511173D-01
102  1.0100000000000D+00  2.8876523056855D-01 -1.6867318084923D-01
103  1.0200000000000D+00  2.4968935568265D-01 -9.3079761243707D-02
104  1.0300000000000D+00  2.1105782762317D-01 -2.0425067017482D-02
105  1.0400000000000D+00  1.7315443064092D-01  4.8919789997378D-02
106  1.0500000000000D+00  1.3624805940301D-01  1.1461199618159D-01
107  1.0600000000000D+00  1.0059073233714D-01  1.7633967692397D-01
108  1.0700000000000D+00  6.6417913305952D-02  2.3382111274712D-01
109  1.0800000000000D+00  3.3940581575936D-02  2.8681622381774D-01
110  1.0900000000000D+00  3.3486441826196D-03  3.3512101856179D-01
111  1.1000000000000D+00 -2.5190783983621D-02  3.7856984478799D-01
112  1.1100000000000D+00 -5.1533233574740D-02  4.1703490539862D-01
113  1.1200000000000D+00 -7.5560433086036D-02  4.5043110922757D-01
114  1.1300000000000D+00 -9.7182687179007D-02  4.7871897138315D-01
115  1.1400000000000D+00 -1.1633415156524D-01  5.0189749409706D-01
116  1.1500000000000D+00 -1.3297277040622D-01  5.2000387647372D-01
117  1.1600000000000D+00 -1.4708474268761D-01  5.3311938485299D-01
118  1.1700000000000D+00 -1.5868361572275D-01  5.4136739225493D-01
119  1.1800000000000D+00 -1.6780521151491D-01  5.4490602326551D-01
120  1.1900000000000D+00 -1.7450594180037D-01  5.4392583065511D-01
121  1.2000000000000D+00 -1.7887156525216D-01  5.3866037386173D-01
122  1.2100000000000D+00 -1.8100560976814D-01  5.2937033923963D-01
123  1.2200000000000D+00 -1.8102912732119D-01  5.1634320659454D-01
124  1.2300000000000D+00 -1.7908396307263D-01  4.9989623465458D-01
125  1.2400000000000D+00 -1.7532737743715D-01  4.8036836890136D-01
126  1.2500000000000D+00 -1.6992851160691D-01  4.5811631257932D-01
127  1.2600000000000D+00 -1.6306971353479D-01  4.3351463396707D-01
128  1.2700000000000D+00 -1.5494172414457D-01  4.0694746534682D-01
129  1.2800000000000D+00 -1.4574186923874D-01  3.7880842357575D-01
130  1.2900000000000D+00 -1.3567290663894D-01  3.4949632084777D-01
131  1.3000000000000D+00 -1.2493672036544D-01  3.1940470124271D-01
132  1.3100000000000D+00 -1.1373790257591D-01  2.8893068991138D-01
133  1.3200000000000D+00 -1.0227615459095D-01  2.5845933900024D-01
134  1.3300000000000D+00 -9.0742711174713D-02  2.2835910286066D-01
135  1.3400000000000D+00 -7.9329554576362D-02  1.9899913915930D-01
136  1.3500000000000D+00 -6.8208455256710D-02  1.7071079809347D-01
137  1.3600000000000D+00 -5.7543170654427D-02  1.4381134704132D-01
138  1.3700000000000D+00 -4.7490187963538D-02  1.1860474581096D-01
139  1.3800000000000D+00 -3.8175694238854D-02  9.5341330362546D-02
140  1.3900000000000D+00 -2.9723907222373D-02  7.4268328193684D-02
141  1.4000000000000D+00 -2.2231066612998D-02  5.5583930504144D-02
142  1.4100000000000D+00 -1.5773011555657D-02  3.9451038641770D-02
143  1.4200000000000D+00 -1.0418856735086D-02  2.6021105856107D-02
144  1.4300000000000D+00 -6.1950684823536D-03  1.5371364611492D-02
145  1.4400000000000D+00 -3.1284956279199D-03  7.5800568350537D-03
146  1.4500000000000D+00 -1.2943097625786D-03  2.8671606214129D-03
147  1.4600000000000D+00 -4.8234066214755D-04  7.7052253005795D-04
148  1.4700000000000D+00 -1.0833143681071D-04  1.7980622590988D-05
149  1.4800000000000D+00  1.6135437356850D-06 -2.2352993231377D-06
150  1.4900000000000D+00  2.3477368571719D-05 -3.2524030750948D-05
151  1.5000000000000D+00  0.0000000000000D+00  0.0000000000000D+00
152  1.5100000000000D+00  0.0000000000000D+00  0.0000000000000D+00
153  1.5200000000000D+00  0.0000000000000D+00  0.0000000000000D+00
154  1.5300000000000D+00  0.0000000000000D+00  0.0000000000000D+00
155  1.5400000000000D+00  0.0000000000000D+00  0.0000000000000D+00
156  1.5500000000000D+00  0.0000000000000D+00  0.0000000000000D+00
157  1.5600000000000D+00  0.0000000000000D+00  0.0000000000000D+00
158  1.5700000000000D+00  0.0000000000000D+00  0.0000000000000D+00
159  1.5800000000000D+00  0.0000000000000D+00  0.0000000000000D+00
160  1.5900000000000D+00  0.0000000000000D+00  0.0000000000000D+00
161  1.6000000000000D+00  0.0000000000000D+00  0.0000000000000D+00
162  1.6100000000000D+00  0.0000000000000D+00  0.0000000000000D+00
163  1.6200000000000D+00  0.0000000000000D+00  0.0000000000000D+00
164  1.6300000000000D+00  0.0000000000000D+00  0.0000000000000D+00
165  1.6400000000000D+00  0.0000000000000D+00  0.0000000000000D+00
166  1.6500000000000D+00  0.0000000000000D+00  0.0000000000000D+00
167  1.6600000000000D+00  0.0000000000000D+00  0.0000000000000D+00
168  1.6700000000000D+00  0.0000000000000D+00  0.0000000000000D+00
169  1.6800000000000D+00  0.0000000000000D+00  0.0000000000000D+00
170  1.6900000000000D+00  0.0000000000000D+00  0.0000000000000D+00
171  1.7000000000000D+00  0.0000000000000D+00  0.0000000000000D+00
172  1.7100000000000D+00  0.0000000000000D+00  0.0000000000000D+00
173  1.7200000000000D+00  0.0000000000000D+00  0.0000000000000D+00
174  1.7300000000000D+00  0.0000000000000D+00  0.0000000000000D+00
175  1.7400000000000D+00  0.0000000000000D+00  0.0000000000000D+00
176  1.7500000000000D+00  0.0000000000000D+00  0.0000000000000D+00
177  1.7600000000000D+00  0.0000000000000D+00  0.0000000000000D+00
178  1.7700000000000D+00  0.0000000000000D+00  0.0000000000000D+00
179  1.7800000000000D+00  0.0000000000000D+00  0.0000000000000D+00
180  1.7900000000000D+00  0.0000000000000D+00  0.0000000000000D+00
181  1.8000000000000D+00  0.0000000000000D+00  0.0000000000000D+00
182  1.8100000000000D+00  0.0000000000000D+00  0.0000000000000D+00
183  1.8200000000000D+00  0.0000000000000D+00  0.0000000000000D+00
184  1.8300000000000D+00  0.0000000000000D+00  0.0000000000000D+00
185  1.8400000000000D+00  0.0000000000000D+00  0.0000000000000D+00
186  1.8500000000000D+00  0.0000000000000D+00  0.0000000000000D+00
187  1.8600000000000D+00  0.0000000000000D+00  0.0000000000000D+00
188  1.8700000000000D+00  0.0000000000000D+00  0.0000000000000D+00
189  1.8800000000000D+00  0.0000000000000D+00  0.0000000000000D+00
190  1.8900000000000D+00  0.0000000000000D+00  0.0000000000000D+00
191  1.9000000000000D+00  0.0000000000000D+00  0.0000000000000D+00
192  1.9100000000000D+00  0.0000000000000D+00  0.0000000000000D+00
193  1.9200000000000D+00  0.0000000000000D+00  0.0000000000000D+00
194  1.9300000000000D+00  0.0000000000000D+00  0.0000000000000D+00
195  1.9400000000000D+00  0.0000000000000D+00  0.0000000000000D+00
196  1.9500000000000D+00  0.0000000000000D+00  0.0000000000000D+00
197  1.9600000000000D+00  0.0000000000000D+00  0.0000000000000D+00
198  1.9700000000000D+00  0.0000000000000D+00  0.0000000000000D+00
199  1.9800000000000D+00  0.0000000000000D+00  0.0000000000000D+00
200  1.9900000000000D+00  0.0000000000000D+00  0.0000000000000D+00
201  2.0000000000000D+00  0.0000000000000D+00  0.0000000000000D+00
202  2.0100000000000D+00  0.0000000000000D+00  0.0000000000000D+00
203  2.0200000000000D+00  0.0000000000000D+00  0.0000000000000D+00
204  2.0300000000000D+00  0.0000000000000D+00  0.0000000000000D+00
205  2.0400000000000D+00  0.0000000000000D+00  0.0000000000000D+00
206  2.0500000000000D+00  0.0000000000000D+00  0.0000000000000D+00
207  2.0600000000000D+00  0.0000000000000D+00  0.0000000000000D+00
208  2.0700000000000D+00  0.0000000000000D+00  0.0000000000000D+00
209  2.0800000000000D+00  0.0000000000000D+00  0.0000000000000D+00
210  2.0900000000000D+00  0.0000000000000D+00  0.0000000000000D+00
211  2.1000000000000D+00  0.0000000000000D+00  0.0000000000000D+00
212  2.1100000000000D+00  0.0000000000000D+00  0.0000000000000D+00
213  2.1200000000000D+00  0.0000000000000D+00  0.0000000000000D+00
214  2.1300000000000D+00  0.0000000000000D+00  0.0000000000000D+00
215  2.1400000000000D+00  0.0000000000000D+00  0.0000000000000D+00
216  2.1500000000000D+00  0.0000000000000D+00  0.0000000000000D+00
217  2.1600000000000D+00  0.0000000000000D+00  0.0000000000000D+00
218  2.1700000000000D+00  0.0000000000000D+00  0.0000000000000D+00
219  2.1800000000000D+00  0.0000000000000D+00  0.0000000000000D+00
220  2.1900000000000D+00  0.0000000000000D+00  0.0000000000000D+00
221  2.2000000000000D+00  0.0000000000000D+00  0.0000000000000D+00
222  2.2100000000000D+00  0.0000000000000D+00  0.0000000000000D+00
223  2.2200000000000D+00  0.0000000000000D+00  0.0000000000000D+00
224  2.2300000000000D+00  0.0000000000000D+00  0.0000000000000D+00
225  2.2400000000000D+00  0.0000000000000D+00  0.0000000000000D+00
226  2.2500000000000D+00  0.0000000000000D+00  0.0000000000000D+00
227  2.2600000000000D+00  0.0000000000000D+00  0.0000000000000D+00
228  2.2700000000000D+00  0.0000000000000D+00  0.0000000000000D+00
229  2.2800000000000D+00  0.0000000000000D+00  0.0000000000000D+00
230  2.2900000000000D+00  0.0000000000000D+00  0.0000000000000D+00
231  2.3000000000000D+00  0.0000000000000D+00  0.0000000000000D+00
232  2.3100000000000D+00  0.0000000000000D+00  0.0000000000000D+00
233  2.3200000000000D+00  0.0000000000000D+00  0.0000000000000D+00
234  2.3300000000000D+00  0.0000000000000D+00  0.0000000000000D+00
235  2.3400000000000D+00  0.0000000000000D+00  0.0000000000000D+00
236  2.3500000000000D+00  0.0000000000000D+00  0.0000000000000D+00
237  2.3600000000000D+00  0.0000000000000D+00  0.0000000000000D+00
238  2.3700000000000D+00  0.0000000000000D+00  0.0000000000000D+00
239  2.3800000000000D+00  0.0000000000000D+00  0.0000000000000D+00
240  2.3900000000000D+00  0.0000000000000D+00  0.0000000000000D+00
241  2.4000000000000D+00  0.0000000000000D+00  0.0000000000000D+00
242  2.4100000000000D+00  0.0000000000000D+00  0.0000000000000D+00
243  2.4200000000000D+00  0.0000000000000D+00  0.0000000000000D+00
244  2.4300000000000D+00  0.0000000000000D+00  0.0000000000000D+00
245  2.4400000000000D+00  0.0000000000000D+00  0.0000000000000D+00
246  2.4500000000000D+00  0.0000000000000D+00  0.0000000000000D+00
247  2.4600000000000D+00  0.0000000000000D+00  0.0000000000000D+00
248  2.4700000000000D+00  0.0000000000000D+00  0.0000000000000D+00
249  2.4800000000000D+00  0.0000000000000D+00  0.0000000000000D+00
250  2.4900000000000D+00  0.0000000000000D+00  0.0000000000000D+00
251  2.5000000000000D+00  0.0000000000000D+00  0.0000000000000D+00
252  2.5100000000000D+00  0.0000000000000D+00  0.0000000000000D+00
253  2.5200000000000D+00  0.0000000000000D+00  0.0000000000000D+00
254  2.5300000000000D+00  0.0000000000000D+00  0.0000000000000D+00
255  2.5400000000000D+00  0.0000000000000D+00  0.0000000000000D+00
256  2.5500000000000D+00  0.0000000000000D+00  0.0000000000000D+00
257  2.5600000000000D+00  0.0000000000000D+00  0.0000000000000D+00
258  2.5700000000000D+00  0.0000000000000D+00  0.0000000000000D+00
259  2.5800000000000D+00  0.0000000000000D+00  0.0000000000000D+00
260  2.5900000000000D+00  0.0000000000000D+00  0.0000000000000D+00
261  2.6000000000000D+00  0.0000000000000D+00  0.0000000000000D+00
262  2.6100000000000D+00  0.0000000000000D+00  0.0000000000000D+00
263  2.6200000000000D+00  0.0000000000000D+00  0.0000000000000D+00
264  2.6300000000000D+00  0.0000000000000D+00  0.0000000000000D+00
265  2.6400000000000D+00  0.0000000000000D+00  0.0000000000000D+00
266  2.6500000000000D+00  0.0000000000000D+00  0.0000000000000D+00
267  2.6600000000000D+00  0.0000000000000D+00  0.0000000000000D+00
268  2.6700000000000D+00  0.0000000000000D+00  0.0000000000000D+00
269  2.6800000000000D+00  0.0000000000000D+00  0.0000000000000D+00
270  2.6900000000000D+00  0.0000000000000D+00  0.0000000000000D+00
271  2.7000000000000D+00  0.0000000000000D+00  0.0000000000000D+00
272  2.7100000000000D+00  0.0000000000000D+00  0.0000000000000D+00
273  2.7200000000000D+00  0.0000000000000D+00  0.0000000000000D+00
274  2.7300000000000D+00  0.0000000000000D+00  0.0000000000000D+00
275  2.7400000000000D+00  0.0000000000000D+00  0.0000000000000D+00
276  2.7500000000000D+00  0.0000000000000D+00  0.0000000000000D+00
277  2.7600000000000D+00  0.0000000000000D+00  0.0000000000000D+00
278  2.7700000000000D+00  0.0000000000000D+00  0.0000000000000D+00
279  2.7800000000000D+00  0.0000000000000D+00  0.0000000000000D+00
280  2.7900000000000D+00  0.0000000000000D+00  0.0000000000000D+00
281  2.8000000000000D+00  0.0000000000000D+00  0.0000000000000D+00
282  2.8100000000000D+00  0.0000000000000D+00  0.0000000000000D+00
283  2.8200000000000D+00  0.0000000000000D+00  0.0000000000000D+00
284  2.8300000000000D+00  0.0000000000000D+00  0.0000000000000D+00
285  2.8400000000000D+00  0.0000000000000D+00  0.0000000000000D+00
286  2.8500000000000D+00  0.0000000000000D+00  0.0000000000000D+00
287  2.8600000000000D+00  0.0000000000000D+00  0.0000000000000D+00
288  2.8700000000000D+00  0.0000000000000D+00  0.0000000000000D+00
289  2.8800000000000D+00  0.0000000000000D+00  0.0000000000000D+00
290  2.8900000000000D+00  0.0000000000000D+00  0.0000000000000D+00
291  2.9000000000000D+00  0.0000000000000D+00  0.0000000000000D+00
292  2.9100000000000D+00  0.0000000000000D+00  0.0000000000000D+00
293  2.9200000000000D+00  0.0000000000000D+00  0.0000000000000D+00
294  2.9300000000000D+00  0.0000000000000D+00  0.0000000000000D+00
295  2.9400000000000D+00  0.0000000000000D+00  0.0000000000000D+00
296  2.9500000000000D+00  0.0000000000000D+00  0.0000000000000D+00
297  2.9600000000000D+00  0.0000000000000D+00  0.0000000000000D+00
298  2.9700000000000D+00  0.0000000000000D+00  0.0000000000000D+00
299  2.9800000000000D+00  0.0000000000000D+00  0.0000000000000D+00
300  2.9900000000000D+00  0.0000000000000D+00  0.0000000000000D+00
301  3.0000000000000D+00  0.0000000000000D+00  0.0000000000000D+00
302  3.0100000000000D+00  0.0000000000000D+00  0.0000000000000D+00
303  3.0200000000000D+00  0.0000000000000D+00  0.0000000000000D+00
304  3.0300000000000D+00  0.0000000000000D+00  0.0000000000000D+00
305  3.0400000000000D+00  0.0000000000000D+00  0.0000000000000D+00
306  3.0500000000000D+00  0.0000000000000D+00  0.0000000000000D+00
307  3.0600000000000D+00  0.0000000000000D+00  0.0000000000000D+00
308  3.0700000000000D+00  0.0000000000000D+00  0.0000000000000D+00
309  3.0800000000000D+00  0.0000000000000D+00  0.0000000000000D+00
310  3.0900000000000D+00  0.0000000000000D+00  0.0000000000000D+00
311  3.1000000000000D+00  0.0000000000000D+00  0.0000000000000D+00
312  3.1100000000000D+00  0.0000000000000D+00  0.0000000000000D+00
313  3.1200000000000D+00  0.0000000000000D+00  0.0000000000000D+00
314  3.1300000000000D+00  0.0000000000000D+00  0.0000000000000D+00
315  3.1400000000000D+00  0.0000000000000D+00  0.0000000000000D+00
316  3.1500000000000D+00  0.0000000000000D+00  0.0000000000000D+00
317  3.1600000000000D+00  0.0000000000000D+00  0.0000000000000D+00
318  3.1700000000000D+00  0.0000000000000D+00  0.0000000000000D+00
319  3.1800000000000D+00  0.0000000000000D+00  0.0000000000000D+00
320  3.1900000000000D+00  0.0000000000000D+00  0.0000000000000D+00
321  3.2000000000000D+00  0.0000000000000D+00  0.0000000000000D+00
322  3.2100000000000D+00  0.0000000000000D+00  0.0000000000000D+00
323  3.2200000000000D+00  0.0000000000000D+00  0.0000000000000D+00
324  3.2300000000000D+00  0.0000000000000D+00  0.0000000000000D+00
325  3.2400000000000D+00  0.0000000000000D+00  0.0000000000000D+00
326  3.2500000000000D+00  0.0000000000000D+00  0.0000000000000D+00
327  3.2600000000000D+00  0.0000000000000D+00  0.0000000000000D+00
328  3.2700000000000D+00  0.0000000000000D+00  0.0000000000000D+00
329  3.2800000000000D+00  0.0000000000000D+00  0.0000000000000D+00
330  3.2900000000000D+00  0.0000000000000D+00  0.0000000000000D+00
331  3.3000000000000D+00  0.0000000000000D+00  0.0000000000000D+00
332  3.3100000000000D+00  0.0000000000000D+00  0.0000000000000D+00
333  3.3200000000000D+00  0.0000000000000D+00  0.0000000000000D+00
334  3.3300000000000D+00  0.0000000000000D+00  0.0000000000000D+00
335  3.3400000000000D+00  0.0000000000000D+00  0.0000000000000D+00
336  3.3500000000000D+00  0.0000000000000D+00  0.0000000000000D+00
337  3.3600000000000D+00  0.0000000000000D+00  0.0000000000000D+00
338  3.3700000000000D+00  0.0000000000000D+00  0.0000000000000D+00
339  3.3800000000000D+00  0.0000000000000D+00  0.0000000000000D+00
340  3.3900000000000D+00  0.0000000000000D+00  0.0000000000000D+00
341  3.4000000000000D+00  0.0000000000000D+00  0.0000000000000D+00
342  3.4100000000000D+00  0.0000000000000D+00  0.0000000000000D+00
343  3.4200000000000D+00  0.0000000000000D+00  0.0000000000000D+00
344  3.4300000000000D+00  0.0000000000000D+00  0.0000000000000D+00
345  3.4400000000000D+00  0.0000000000000D+00  0.0000000000000D+00
346  3.4500000000000D+00  0.0000000000000D+00  0.0000000000000D+00
347  3.4600000000000D+00  0.0000000000000D+00  0.0000000000000D+00
348  3.4700000000000D+00  0.0000000000000D+00  0.0000000000000D+00
349  3.4800000000000D+00  0.0000000000000D+00  0.0000000000000D+00
350  3.4900000000000D+00  0.0000000000000D+00  0.0000000000000D+00
351  3.5000000000000D+00  0.0000000000000D+00  0.0000000000000D+00
352  3.5100000000000D+00  0.0000000000000D+00  0.0000000000000D+00
353  3.5200000000000D+00  0.0000000000000D+00  0.0000000000000D+00
354  3.5300000000000D+00  0.0000000000000D+00  0.0000000000000D+00
355  3.5400000000000D+00  0.0000000000000D+00  0.0000000000000D+00
356  3.5500000000000D+00  0.0000000000000D+00  0.0000000000000D+00
357  3.5600000000000D+00  0.0000000000000D+00  0.0000000000000D+00
358  3.5700000000000D+00  0.0000000000000D+00  0.0000000000000D+00
359  3.5800000000000D+00  0.0000000000000D+00  0.0000000000000D+00
360  3.5900000000000D+00  0.0000000000000D+00  0.0000000000000D+00
361  3.6000000000000D+00  0.0000000000000D+00  0.0000000000000D+00
362  3.6100000000000D+00  0.0000000000000D+00  0.0000000000000D+00
363  3.6200000000000D+00  0.0000000000000D+00  0.0000000000000D+00
364  3.6300000000000D+00  0.0000000000000D+00  0.0000000000000D+00
365  3.6400000000000D+00  0.0000000000000D+00  0.0000000000000D+00
366  3.6500000000000D+00  0.0000000000000D+00  0.0000000000000D+00
367  3.6600000000000D+00  0.0000000000000D+00  0.0000000000000D+00
368  3.6700000000000D+00  0.0000000000000D+00  0.0000000000000D+00
369  3.6800000000000D+00  0.0000000000000D+00  0.0000000000000D+00
370  3.6900000000000D+00  0.0000000000000D+00  0.0000000000000D+00
371  3.7000000000000D+00  0.0000000000000D+00  0.0000000000000D+00
372  3.7100000000000D+00  0.0000000000000D+00  0.0000000000000D+00
373  3.7200000000000D+00  0.0000000000000D+00  0.0000000000000D+00
374  3.7300000000000D+00  0.0000000000000D+00  0.0000000000000D+00
375  3.7400000000000D+00  0.0000000000000D+00  0.0000000000000D+00
376  3.7500000000000D+00  0.0000000000000D+00  0.0000000000000D+00
377  3.7600000000000D+00  0.0000000000000D+00  0.0000000000000D+00
378  3.7700000000000D+00  0.0000000000000D+00  0.0000000000000D+00
379  3.7800000000000D+00  0.0000000000000D+00  0.0000000000000D+00
380  3.7900000000000D+00  0.0000000000000D+00  0.0000000000000D+00
381  3.8000000000000D+00  0.0000000000000D+00  0.0000000000000D+00
382  3.8100000000000D+00  0.0000000000000D+00  0.0000000000000D+00
383  3.8200000000000D+00  0.0000000000000D+00  0.0000000000000D+00
384  3.8300000000000D+00  0.0000000000000D+00  0.0000000000000D+00
385  3.8400000000000D+00  0.0000000000000D+00  0.0000000000000D+00
386  3.8500000000000D+00  0.0000000000000D+00  0.0000000000000D+00
387  3.8600000000000D+00  0.0000000000000D+00  0.0000000000000D+00
388  3.8700000000000D+00  0.0000000000000D+00  0.0000000000000D+00
389  3.8800000000000D+00  0.0000000000000D+00  0.0000000000000D+00
390  3.8900000000000D+00  0.0000000000000D+00  0.0000000000000D+00
391  3.9000000000000D+00  0.0000000000000D+00  0.0000000000000D+00
392  3.9100000000000D+00  0.0000000000000D+00  0.0000000000000D+00
393  3.9200000000000D+00  0.0000000000000D+00  0.0000000000000D+00
394  3.9300000000000D+00  0.0000000000000D+00  0.0000000000000D+00
395  3.9400000000000D+00  0.0000000000000D+00  0.0000000000000D+00
396  3.9500000000000D+00  0.0000000000000D+00  0.0000000000000D+00
397  3.9600000000000D+00  0.0000000000000D+00  0.0000000000000D+00
398  3.9700000000000D+00  0.0000000000000D+00  0.0000000000000D+00
399  3.9800000000000D+00  0.0000000000000D+00  0.0000000000000D+00
400  3.9900000000000D+00  0.0000000000000D+00  0.0000000000000D+00
401  4.0000000000000D+00  0.0000000000000D+00  0.0000000000000D+00
402  4.0100000000000D+00  0.0000000000000D+00  0.0000000000000D+00
403  4.0200000000000D+00  0.0000000000000D+00  0.0000000000000D+00
404  4.0300000000000D+00  0.0000000000000D+00  0.0000000000000D+00
405  4.0400000000000D+00  0.0000000000000D+00  0.0000000000000D+00
406  4.0500000000000D+00  0.0000000000000D+00  0.0000000000000D+00
407  4.0600000000000D+00  0.0000000000000D+00  0.0000000000000D+00
408  4.0700000000000D+00  0.0000000000000D+00  0.0000000000000D+00
409  4.0800000000000D+00  0.0000000000000D+00  0.0000000000000D+00
410  4.0900000000000D+00  0.0000000000000D+00  0.0000000000000D+00
411  4.1000000000000D+00  0.0000000000000D+00  0.0000000000000D+00
412  4.1100000000000D+00  0.0000000000000D+00  0.0000000000000D+00
413  4.1200000000000D+00  0.0000000000000D+00  0.0000000000000D+00
414  4.1300000000000D+00  0.0000000000000D+00  0.0000000000000D+00
415  4.1400000000000D+00  0.0000000000000D+00  0.0000000000000D+00
416  4.1500000000000D+00  0.0000000000000D+00  0.0000000000000D+00
417  4.1600000000000D+00  0.0000000000000D+00  0.0000000000000D+00
418  4.1700000000000D+00  0.0000000000000D+00  0.0000000000000D+00
419  4.1800000000000D+00  0.0000000000000D+00  0.0000000000000D+00
420  4.1900000000000D+00  0.0000000000000D+00  0.0000000000000D+00
421  4.2000000000000D+00  0.0000000000000D+00  0.0000000000000D+00
422  4.2100000000000D+00  0.0000000000000D+00  0.0000000000000D+00
423  4.2200000000000D+00  0.0000000000000D+00  0.0000000000000D+00
424  4.2300000000000D+00  0.0000000000000D+00  0.0000000000000D+00
425  4.2400000000000D+00  0.0000000000000D+00  0.0000000000000D+00
426  4.2500000000000D+00  0.0000000000000D+00  0.0000000000000D+00
427  4.2600000000000D+00  0.0000000000000D+00  0.0000000000000D+00
428  4.2700000000000D+00  0.0000000000000D+00  0.0000000000000D+00
429  4.2800000000000D+00  0.0000000000000D+00  0.0000000000000D+00
430  4.2900000000000D+00  0.0000000000000D+00  0.0000000000000D+00
431  4.3000000000000D+00  0.0000000000000D+00  0.0000000000000D+00
432  4.3100000000000D+00  0.0000000000000D+00  0.0000000000000D+00
433  4.3200000000000D+00  0.0000000000000D+00  0.0000000000000D+00
434  4.3300000000000D+00  0.0000000000000D+00  0.0000000000000D+00
435  4.3400000000000D+00  0.0000000000000D+00  0.0000000000000D+00
436  4.3500000000000D+00  0.0000000000000D+00  0.0000000000000D+00
437  4.3600000000000D+00  0.0000000000000D+00  0.0000000000000D+00
438  4.3700000000000D+00  0.0000000000000D+00  0.0000000000000D+00
439  4.3800000000000D+00  0.0000000000000D+00  0.0000000000000D+00
440  4.3900000000000D+00  0.0000000000000D+00  0.0000000000000D+00
441  4.4000000000000D+00  0.0000000000000D+00  0.0000000000000D+00
442  4.4100000000000D+00  0.0000000000000D+00  0.0000000000000D+00
443  4.4200000000000D+00  0.0000000000000D+00  0.0000000000000D+00
444  4.4300000000000D+00  0.0000000000000D+00  0.0000000000000D+00