He    ONCVPSP-3.3.0  r_core=   1.26476   1.13601
2.0000      2.0000      180112    zatom,zion,pspd
8 -116133   1     4   600     0    pspcod,pspxc,lmax,lloc,mmax,r2well
5.99000000  0.00000000  0.00000000    rchrg fchrg qchrg
2     1     0     0     0    nproj
1     1           extension_switch
0                        -3.4879417595054D+00 -7.9282365759704D-01
1  0.0000000000000D+00 -2.3223251099935D-09  7.0713713773429D-09
2  1.0000000000000D-02  1.0941907143396D-01 -5.2053214576332D-02
3  2.0000000000000D-02  2.1839048591467D-01 -1.0352508094939D-01
4  3.0000000000000D-02  3.2646972338254D-01 -1.5384095607533D-01
5  4.0000000000000D-02  4.3321850029809D-01 -2.0243950378635D-01
6  5.0000000000000D-02  5.3820779534196D-01 -2.4877909147559D-01
7  6.0000000000000D-02  6.4102076573425D-01 -2.9234388383424D-01
8  7.0000000000000D-02  7.4125552049911D-01 -3.3264954114835D-01
9  8.0000000000000D-02  8.3852771932240D-01 -3.6924843673381D-01
10  9.0000000000000D-02  9.3247296847331D-01 -4.0173431667635D-01
11  1.0000000000000D-01  1.0227489885315D+00 -4.2974633498497D-01
12  1.1000000000000D-01  1.1090375323212D+00 -4.5297240837836D-01
13  1.2000000000000D-01  1.1910460354375D+00 -4.7115184699472D-01
14  1.3000000000000D-01  1.2685089859809D+00 -4.8407723012015D-01
15  1.4000000000000D-01  1.3411890045239D+00 -4.9159550933001D-01
16  1.5000000000000D-01  1.4088776298325D+00 -4.9360833498177D-01
17  1.6000000000000D-01  1.4713958103780D+00 -4.9007161553421D-01
18  1.7000000000000D-01  1.5285941061177D+00 -4.8099433244253D-01
19  1.8000000000000D-01  1.5803526093195D+00 -4.6643664614556D-01
20  1.9000000000000D-01  1.6265805972759D+00 -4.4650734068008D-01
21  2.0000000000000D-01  1.6672159335264D+00 -4.2136066550664D-01
22  2.1000000000000D-01  1.7022242376209D+00 -3.9119264300425D-01
23  2.2000000000000D-01  1.7315978464445D+00 -3.5623691860819D-01
24  2.3000000000000D-01  1.7553545926425D+00 -3.1676023756612D-01
25  2.4000000000000D-01  1.7735364276871D+00 -2.7305763764883D-01
26  2.5000000000000D-01  1.7862079185836D+00 -2.2544745077502D-01
27  2.6000000000000D-01  1.7934546481045D+00 -1.7426620833259D-01
28  2.7000000000000D-01  1.7953815487504D+00 -1.1986354497413D-01
29  2.8000000000000D-01  1.7921112003725D+00 -6.2597193838966D-02
30  2.9000000000000D-01  1.7837821205620D+00 -2.8281625487764D-03
31  3.0000000000000D-01  1.7705470755366D+00  5.9083825983626D-02
32  3.1000000000000D-01  1.7525714373749D+00  1.2278455079388D-01
33  3.2000000000000D-01  1.7300316111008D+00  1.8792909937094D-01
34  3.3000000000000D-01  1.7031135523539D+00  2.5418520428533D-01
35  3.4000000000000D-01  1.6720113932671D+00  3.2123606153343D-01
36  3.5000000000000D-01  1.6369261907618D+00  3.8878259380251D-01
37  3.6000000000000D-01  1.5980648078487D+00  4.5654513412318D-01
38  3.7000000000000D-01  1.5556389347552D+00  5.2426451803896D-01
39  3.8000000000000D-01  1.5098642528733D+00  5.9170258523692D-01
40  3.9000000000000D-01  1.4609597407100D+00  6.5864210429524D-01
41  4.0000000000000D-01  1.4091471173086D+00  7.2488614655358D-01
42  4.1000000000000D-01  1.3546504150663D+00  7.9025694685986D-01
43  4.2000000000000D-01  1.2976956705802D+00  8.5459429985098D-01
44  4.3000000000000D-01  1.2385107191741D+00  9.1775355026940D-01
45  4.4000000000000D-01  1.1773250761574D+00  9.7960324439968D-01
46  4.5000000000000D-01  1.1143698856972D+00  1.0400225168572D+00
47  4.6000000000000D-01  1.0498779164961D+00  1.0988982925245D+00
48  4.7000000000000D-01  9.8408358228706D-01  1.1561223872948D+00
49  4.8000000000000D-01  9.1722296452553D-01  1.2115885933653D+00
50  4.9000000000000D-01  8.4953381457392D-01  1.2651898350685D+00
51  5.0000000000000D-01  7.8125551315240D-01  1.3168154796402D+00
52  5.1000000000000D-01  7.1262896585879D-01  1.3663488839049D+00
53  5.2000000000000D-01  6.4389641512067D-01  1.4136652526865D+00
54  5.3000000000000D-01  5.7530115100510D-01  1.4586298779149D+00
55  5.4000000000000D-01  5.0708710583390D-01  1.5010968190306D+00
56  5.5000000000000D-01  4.3949832048997D-01  1.5409080755306D+00
57  5.6000000000000D-01  3.7277827358088D-01  1.5778932915882D+00
58  5.7000000000000D-01  3.0716906820330D-01  1.6118700207518D+00
59  5.8000000000000D-01  2.4291047482801D-01  1.6426445661086D+00
60  5.9000000000000D-01  1.8023883274700D-01  1.6700133981566D+00
61  6.0000000000000D-01  1.1938581648430D-01  1.6937651392956D+00
62  6.1000000000000D-01  6.0577077516679D-02  1.7136830905168D+00
63  6.2000000000000D-01  4.0307754541717D-03  1.7295482629284D+00
64  6.3000000000000D-01 -5.0043983533355D-02  1.7411428642958D+00
65  6.4000000000000D-01 -1.0144877993424D-01  1.7482541792666D+00
66  6.5000000000000D-01 -1.4999756165260D-01  1.7506787714457D+00
67  6.6000000000000D-01 -1.9551834563988D-01  1.7482269263225D+00
68  6.7000000000000D-01 -2.3785491166262D-01  1.7407272464233D+00
69  6.8000000000000D-01 -2.7686845792316D-01  1.7280313040741D+00
70  6.9000000000000D-01 -3.1243918729347D-01  1.7100182530366D+00
71  7.0000000000000D-01 -3.4446779257758D-01  1.6865992980874D+00
72  7.1000000000000D-01 -3.7287680949898D-01  1.6577219214173D+00
73  7.2000000000000D-01 -3.9761180704053D-01  1.6233737665935D+00
74  7.3000000000000D-01 -4.1864238632575D-01  1.5835860847275D+00
75  7.4000000000000D-01 -4.3596296141283D-01  1.5384366533803D+00
76  7.5000000000000D-01 -4.4959329814987D-01  1.4880520865538D+00
77  7.6000000000000D-01 -4.5957879055767D-01  1.4326094636904D+00
78  7.7000000000000D-01 -4.6599045802836D-01  1.3723372168327D+00
79  7.8000000000000D-01 -4.6892465089047D-01  1.3075152277744D+00
80  7.9000000000000D-01 -4.6850245650152D-01  1.2384741008928D+00
81  8.0000000000000D-01 -4.6486880293505D-01  1.1655935922200D+00
82  8.1000000000000D-01 -4.5819126242638D-01  1.0893001908622D+00
83  8.2000000000000D-01 -4.4865856194470D-01  1.0100638648576D+00
84  8.3000000000000D-01 -4.3647881347234D-01  9.2839399966042D-01
85  8.4000000000000D-01 -4.2187748169872D-01  8.4483457336166D-01
86  8.5000000000000D-01 -4.0509511178068D-01  7.5995862819568D-01
87  8.6000000000000D-01 -3.8638484448741D-01  6.7436211254481D-01
88  8.7000000000000D-01 -3.6600975034779D-01  5.8865718125201D-01
89  8.8000000000000D-01 -3.4424001826464D-01  5.0346505431808D-01
90  8.9000000000000D-01 -3.2135003737685D-01  4.1940854474631D-01
91  9.0000000000000D-01 -2.9761541366813D-01  3.3710437518462D-01
92  9.1000000000000D-01 -2.7330996488022D-01  2.5715540991215D-01
93  9.2000000000000D-01 -2.4870273864226D-01  1.8014293347072D-01
94  9.3000000000000D-01 -2.2405509934116D-01  1.0661910973470D-01
95  9.4000000000000D-01 -1.9961792910743D-01  3.7099755368481D-02
96  9.5000000000000D-01 -1.7562898736969D-01 -2.7942440593152D-02
97  9.6000000000000D-01 -1.5231047175324D-01 -8.8084123850889D-02
98  9.7000000000000D-01 -1.2986682060552D-01 -1.4295678849762D-01
99  9.8000000000000D-01 -1.0848279488591D-01 -1.9225148386416D-01
100  9.9000000000000D-01 -8.8321872649535D-02 -2.3572261543879D-01
101  1.0000000000000D+00 -6.9524961161231D-02 -2.7319084799730D-01
102  1.0100000000000D+00 -5.2209586742419D-02 -3.0454448873337D-01
103  1.0200000000000D+00 -3.6469000779504D-02 -3.2974166196595D-01
104  1.0300000000000D+00 -2.2370789577418D-02 -3.4881486881907D-01
105  1.0400000000000D+00 -9.9558140457872D-03 -3.6187435491866D-01
106  1.0500000000000D+00  7.6152447940806D-04 -3.6910638338849D-01
107  1.0600000000000D+00  9.7925824425152D-03 -3.7077016824392D-01
108  1.0700000000000D+00  1.7173416826519D-02 -3.6719380219989D-01
109  1.0800000000000D+00  2.2963364414859D-02 -3.5876911728526D-01
110  1.0900000000000D+00  2.7243285776298D-02 -3.4594557038236D-01
111  1.1000000000000D+00  3.0113504524897D-02 -3.2922324768407D-01
112  1.1100000000000D+00  3.1691476106900D-02 -3.0914509102789D-01
113  1.1200000000000D+00  3.2109224531319D-02 -2.8628846239421D-01
114  1.1300000000000D+00  3.1510589728116D-02 -2.6125617593389D-01
115  1.1400000000000D+00  3.0048331167388D-02 -2.3466713613189D-01
116  1.1500000000000D+00  2.7881135534367D-02 -2.0714672680687D-01
117  1.1600000000000D+00  2.5170578405687D-02 -1.7931710291818D-01
118  1.1700000000000D+00  2.2078090318258D-02 -1.5178753847614D-01
119  1.1800000000000D+00  1.8761978227402D-02 -1.2514498577762D-01
120  1.1900000000000D+00  1.5374550708120D-02 -9.9944992416463D-02
121  1.2000000000000D+00  1.2059394888451D-02 -7.6703122373533D-02
122  1.2100000000000D+00  8.9488508556302D-03 -5.5887020818546D-02
123  1.2200000000000D+00  6.1617261053114D-03 -3.7909252031498D-02
124  1.2300000000000D+00  3.8027193356692D-03 -2.3129618532368D-02
125  1.2400000000000D+00  1.9458290775973D-03 -1.1759865163634D-02
126  1.2500000000000D+00  6.8704660272984D-04 -4.1872599707369D-03
127  1.2600000000000D+00  7.9300201398127D-05 -5.8500134558878D-04
128  1.2700000000000D+00 -5.6798669440690D-05  2.5985058552888D-04
129  1.2800000000000D+00  2.8588179294925D-07 -1.4290967928947D-06
130  1.2900000000000D+00  1.1966934309637D-05 -6.1323508170262D-05
131  1.3000000000000D+00 -2.4117977599576D-06  1.1991703692710D-05
132  1.3100000000000D+00 -4.3334083577701D-07  2.1780473965369D-06
133  1.3200000000000D+00  7.6850125919812D-08 -1.6172335221359D-07
134  1.3300000000000D+00  0.0000000000000D+00  0.0000000000000D+00
135  1.3400000000000D+00  0.0000000000000D+00  0.0000000000000D+00
136  1.3500000000000D+00  0.0000000000000D+00  0.0000000000000D+00
137  1.3600000000000D+00  0.0000000000000D+00  0.0000000000000D+00
138  1.3700000000000D+00  0.0000000000000D+00  0.0000000000000D+00
139  1.3800000000000D+00  0.0000000000000D+00  0.0000000000000D+00
140  1.3900000000000D+00  0.0000000000000D+00  0.0000000000000D+00
141  1.4000000000000D+00  0.0000000000000D+00  0.0000000000000D+00
142  1.4100000000000D+00  0.0000000000000D+00  0.0000000000000D+00
143  1.4200000000000D+00  0.0000000000000D+00  0.0000000000000D+00
144  1.4300000000000D+00  0.0000000000000D+00  0.0000000000000D+00
145  1.4400000000000D+00  0.0000000000000D+00  0.0000000000000D+00
146  1.4500000000000D+00  0.0000000000000D+00  0.0000000000000D+00
147  1.4600000000000D+00  0.0000000000000D+00  0.0000000000000D+00
148  1.4700000000000D+00  0.0000000000000D+00  0.0000000000000D+00
149  1.4800000000000D+00  0.0000000000000D+00  0.0000000000000D+00
150  1.4900000000000D+00  0.0000000000000D+00  0.0000000000000D+00
151  1.5000000000000D+00  0.0000000000000D+00  0.0000000000000D+00
152  1.5100000000000D+00  0.0000000000000D+00  0.0000000000000D+00
153  1.5200000000000D+00  0.0000000000000D+00  0.0000000000000D+00
154  1.5300000000000D+00  0.0000000000000D+00  0.0000000000000D+00
155  1.5400000000000D+00  0.0000000000000D+00  0.0000000000000D+00
156  1.5500000000000D+00  0.0000000000000D+00  0.0000000000000D+00
157  1.5600000000000D+00  0.0000000000000D+00  0.0000000000000D+00
158  1.5700000000000D+00  0.0000000000000D+00  0.0000000000000D+00
159  1.5800000000000D+00  0.0000000000000D+00  0.0000000000000D+00
160  1.5900000000000D+00  0.0000000000000D+00  0.0000000000000D+00
161  1.6000000000000D+00  0.0000000000000D+00  0.0000000000000D+00
162  1.6100000000000D+00  0.0000000000000D+00  0.0000000000000D+00
163  1.6200000000000D+00  0.0000000000000D+00  0.0000000000000D+00
164  1.6300000000000D+00  0.0000000000000D+00  0.0000000000000D+00
165  1.6400000000000D+00  0.0000000000000D+00  0.0000000000000D+00
166  1.6500000000000D+00  0.0000000000000D+00  0.0000000000000D+00
167  1.6600000000000D+00  0.0000000000000D+00  0.0000000000000D+00
168  1.6700000000000D+00  0.0000000000000D+00  0.0000000000000D+00
169  1.6800000000000D+00  0.0000000000000D+00  0.0000000000000D+00
170  1.6900000000000D+00  0.0000000000000D+00  0.0000000000000D+00
171  1.7000000000000D+00  0.0000000000000D+00  0.0000000000000D+00
172  1.7100000000000D+00  0.0000000000000D+00  0.0000000000000D+00
173  1.7200000000000D+00  0.0000000000000D+00  0.0000000000000D+00
174  1.7300000000000D+00  0.0000000000000D+00  0.0000000000000D+00
175  1.7400000000000D+00  0.0000000000000D+00  0.0000000000000D+00
176  1.7500000000000D+00  0.0000000000000D+00  0.0000000000000D+00
177  1.7600000000000D+00  0.0000000000000D+00  0.0000000000000D+00
178  1.7700000000000D+00  0.0000000000000D+00  0.0000000000000D+00
179  1.7800000000000D+00  0.0000000000000D+00  0.0000000000000D+00
180  1.7900000000000D+00  0.0000000000000D+00  0.0000000000000D+00
181  1.8000000000000D+00  0.0000000000000D+00  0.0000000000000D+00
182  1.8100000000000D+00  0.0000000000000D+00  0.0000000000000D+00
183  1.8200000000000D+00  0.0000000000000D+00  0.0000000000000D+00
184  1.8300000000000D+00  0.0000000000000D+00  0.0000000000000D+00
185  1.8400000000000D+00  0.0000000000000D+00  0.0000000000000D+00
186  1.8500000000000D+00  0.0000000000000D+00  0.0000000000000D+00
187  1.8600000000000D+00  0.0000000000000D+00  0.0000000000000D+00
188  1.8700000000000D+00  0.0000000000000D+00  0.0000000000000D+00
189  1.8800000000000D+00  0.0000000000000D+00  0.0000000000000D+00
190  1.8900000000000D+00  0.0000000000000D+00  0.0000000000000D+00
191  1.9000000000000D+00  0.0000000000000D+00  0.0000000000000D+00
192  1.9100000000000D+00  0.0000000000000D+00  0.0000000000000D+00
193  1.9200000000000D+00  0.0000000000000D+00  0.0000000000000D+00
194  1.9300000000000D+00  0.0000000000000D+00  0.0000000000000D+00
195  1.9400000000000D+00  0.0000000000000D+00  0.0000000000000D+00
196  1.9500000000000D+00  0.0000000000000D+00  0.0000000000000D+00
197  1.9600000000000D+00  0.0000000000000D+00  0.0000000000000D+00
198  1.9700000000000D+00  0.0000000000000D+00  0.0000000000000D+00
199  1.9800000000000D+00  0.0000000000000D+00  0.0000000000000D+00
200  1.9900000000000D+00  0.0000000000000D+00  0.0000000000000D+00
201  2.0000000000000D+00  0.0000000000000D+00  0.0000000000000D+00
202  2.0100000000000D+00  0.0000000000000D+00  0.0000000000000D+00
203  2.0200000000000D+00  0.0000000000000D+00  0.0000000000000D+00
204  2.0300000000000D+00  0.0000000000000D+00  0.0000000000000D+00
205  2.0400000000000D+00  0.0000000000000D+00  0.0000000000000D+00
206  2.0500000000000D+00  0.0000000000000D+00  0.0000000000000D+00
207  2.0600000000000D+00  0.0000000000000D+00  0.0000000000000D+00
208  2.0700000000000D+00  0.0000000000000D+00  0.0000000000000D+00
209  2.0800000000000D+00  0.0000000000000D+00  0.0000000000000D+00
210  2.0900000000000D+00  0.0000000000000D+00  0.0000000000000D+00
211  2.1000000000000D+00  0.0000000000000D+00  0.0000000000000D+00
212  2.1100000000000D+00  0.0000000000000D+00  0.0000000000000D+00
213  2.1200000000000D+00  0.0000000000000D+00  0.0000000000000D+00
214  2.1300000000000D+00  0.0000000000000D+00  0.0000000000000D+00
215  2.1400000000000D+00  0.0000000000000D+00  0.0000000000000D+00
216  2.1500000000000D+00  0.0000000000000D+00  0.0000000000000D+00
217  2.1600000000000D+00  0.0000000000000D+00  0.0000000000000D+00
218  2.1700000000000D+00  0.0000000000000D+00  0.0000000000000D+00
219  2.1800000000000D+00  0.0000000000000D+00  0.0000000000000D+00
220  2.1900000000000D+00  0.0000000000000D+00  0.0000000000000D+00
221  2.2000000000000D+00  0.0000000000000D+00  0.0000000000000D+00
222  2.2100000000000D+00  0.0000000000000D+00  0.0000000000000D+00
223  2.2200000000000D+00  0.0000000000000D+00  0.0000000000000D+00
224  2.2300000000000D+00  0.0000000000000D+00  0.0000000000000D+00
225  2.2400000000000D+00  0.0000000000000D+00  0.0000000000000D+00
226  2.2500000000000D+00  0.0000000000000D+00  0.0000000000000D+00
227  2.2600000000000D+00  0.0000000000000D+00  0.0000000000000D+00
228  2.2700000000000D+00  0.0000000000000D+00  0.0000000000000D+00
229  2.2800000000000D+00  0.0000000000000D+00  0.0000000000000D+00
230  2.2900000000000D+00  0.0000000000000D+00  0.0000000000000D+00
231  2.3000000000000D+00  0.0000000000000D+00  0.0000000000000D+00
232  2.3100000000000D+00  0.0000000000000D+00  0.0000000000000D+00
233  2.3200000000000D+00  0.0000000000000D+00  0.0000000000000D+00
234  2.3300000000000D+00  0.0000000000000D+00  0.0000000000000D+00
235  2.3400000000000D+00  0.0000000000000D+00  0.0000000000000D+00
236  2.3500000000000D+00  0.0000000000000D+00  0.0000000000000D+00
237  2.3600000000000D+00  0.0000000000000D+00  0.0000000000000D+00
238  2.3700000000000D+00  0.0000000000000D+00  0.0000000000000D+00
239  2.3800000000000D+00  0.0000000000000D+00  0.0000000000000D+00
240  2.3900000000000D+00  0.0000000000000D+00  0.0000000000000D+00
241  2.4000000000000D+00  0.0000000000000D+00  0.0000000000000D+00
242  2.4100000000000D+00  0.0000000000000D+00  0.0000000000000D+00
243  2.4200000000000D+00  0.0000000000000D+00  0.0000000000000D+00
244  2.4300000000000D+00  0.0000000000000D+00  0.0000000000000D+00
245  2.4400000000000D+00  0.0000000000000D+00  0.0000000000000D+00
246  2.4500000000000D+00  0.0000000000000D+00  0.0000000000000D+00
247  2.4600000000000D+00  0.0000000000000D+00  0.0000000000000D+00
248  2.4700000000000D+00  0.0000000000000D+00  0.0000000000000D+00
249  2.4800000000000D+00  0.0000000000000D+00  0.0000000000000D+00
250  2.4900000000000D+00  0.0000000000000D+00  0.0000000000000D+00
251  2.5000000000000D+00  0.0000000000000D+00  0.0000000000000D+00
252  2.5100000000000D+00  0.0000000000000D+00  0.0000000000000D+00
253  2.5200000000000D+00  0.0000000000000D+00  0.0000000000000D+00
254  2.5300000000000D+00  0.0000000000000D+00  0.0000000000000D+00
255  2.5400000000000D+00  0.0000000000000D+00  0.0000000000000D+00
256  2.5500000000000D+00  0.0000000000000D+00  0.0000000000000D+00
257  2.5600000000000D+00  0.0000000000000D+00  0.0000000000000D+00
258  2.5700000000000D+00  0.0000000000000D+00  0.0000000000000D+00
259  2.5800000000000D+00  0.0000000000000D+00  0.0000000000000D+00
260  2.5900000000000D+00  0.0000000000000D+00  0.0000000000000D+00
261  2.6000000000000D+00  0.0000000000000D+00  0.0000000000000D+00
262  2.6100000000000D+00  0.0000000000000D+00  0.0000000000000D+00
263  2.6200000000000D+00  0.0000000000000D+00  0.0000000000000D+00
264  2.6300000000000D+00  0.0000000000000D+00  0.0000000000000D+00
265  2.6400000000000D+00  0.0000000000000D+00  0.0000000000000D+00
266  2.6500000000000D+00  0.0000000000000D+00  0.0000000000000D+00
267  2.6600000000000D+00  0.0000000000000D+00  0.0000000000000D+00
268  2.6700000000000D+00  0.0000000000000D+00  0.0000000000000D+00
269  2.6800000000000D+00  0.0000000000000D+00  0.0000000000000D+00
270  2.6900000000000D+00  0.0000000000000D+00  0.0000000000000D+00
271  2.7000000000000D+00  0.0000000000000D+00  0.0000000000000D+00
272  2.7100000000000D+00  0.0000000000000D+00  0.0000000000000D+00
273  2.7200000000000D+00  0.0000000000000D+00  0.0000000000000D+00
274  2.7300000000000D+00  0.0000000000000D+00  0.0000000000000D+00
275  2.7400000000000D+00  0.0000000000000D+00  0.0000000000000D+00
276  2.7500000000000D+00  0.0000000000000D+00  0.0000000000000D+00
277  2.7600000000000D+00  0.0000000000000D+00  0.0000000000000D+00
278  2.7700000000000D+00  0.0000000000000D+00  0.0000000000000D+00
279  2.7800000000000D+00  0.0000000000000D+00  0.0000000000000D+00
280  2.7900000000000D+00  0.0000000000000D+00  0.0000000000000D+00
281  2.8000000000000D+00  0.0000000000000D+00  0.0000000000000D+00
282  2.8100000000000D+00  0.0000000000000D+00  0.0000000000000D+00
283  2.8200000000000D+00  0.0000000000000D+00  0.0000000000000D+00
284  2.8300000000000D+00  0.0000000000000D+00  0.0000000000000D+00
285  2.8400000000000D+00  0.0000000000000D+00  0.0000000000000D+00
286  2.8500000000000D+00  0.0000000000000D+00  0.0000000000000D+00
287  2.8600000000000D+00  0.0000000000000D+00  0.0000000000000D+00
288  2.8700000000000D+00  0.0000000000000D+00  0.0000000000000D+00
289  2.8800000000000D+00  0.0000000000000D+00  0.0000000000000D+00
290  2.8900000000000D+00  0.0000000000000D+00  0.0000000000000D+00
291  2.9000000000000D+00  0.0000000000000D+00  0.0000000000000D+00
292  2.9100000000000D+00  0.0000000000000D+00  0.0000000000000D+00
293  2.9200000000000D+00  0.0000000000000D+00  0.0000000000000D+00
294  2.9300000000000D+00  0.0000000000000D+00  0.0000000000000D+00
295  2.9400000000000D+00  0.0000000000000D+00  0.0000000000000D+00
296  2.9500000000000D+00  0.0000000000000D+00  0.0000000000000D+00
297  2.9600000000000D+00  0.0000000000000D+00  0.0000000000000D+00
298  2.9700000000000D+00  0.0000000000000D+00  0.0000000000000D+00
299  2.9800000000000D+00  0.0000000000000D+00  0.0000000000000D+00
300  2.9900000000000D+00  0.0000000000000D+00  0.0000000000000D+00
301  3.0000000000000D+00  0.0000000000000D+00  0.0000000000000D+00
302  3.0100000000000D+00  0.0000000000000D+00  0.0000000000000D+00
303  3.0200000000000D+00  0.0000000000000D+00  0.0000000000000D+00
304  3.0300000000000D+00  0.0000000000000D+00  0.0000000000000D+00
305  3.0400000000000D+00  0.0000000000000D+00  0.0000000000000D+00
306  3.0500000000000D+00  0.0000000000000D+00  0.0000000000000D+00
307  3.0600000000000D+00  0.0000000000000D+00  0.0000000000000D+00
308  3.0700000000000D+00  0.0000000000000D+00  0.0000000000000D+00
309  3.0800000000000D+00  0.0000000000000D+00  0.0000000000000D+00
310  3.0900000000000D+00  0.0000000000000D+00  0.0000000000000D+00
311  3.1000000000000D+00  0.0000000000000D+00  0.0000000000000D+00
312  3.1100000000000D+00  0.0000000000000D+00  0.0000000000000D+00
313  3.1200000000000D+00  0.0000000000000D+00  0.0000000000000D+00
314  3.1300000000000D+00  0.0000000000000D+00  0.0000000000000D+00
315  3.1400000000000D+00  0.0000000000000D+00  0.0000000000000D+00
316  3.1500000000000D+00  0.0000000000000D+00  0.0000000000000D+00
317  3.1600000000000D+00  0.0000000000000D+00  0.0000000000000D+00
318  3.1700000000000D+00  0.0000000000000D+00  0.0000000000000D+00
319  3.1800000000000D+00  0.0000000000000D+00  0.0000000000000D+00
320  3.1900000000000D+00  0.0000000000000D+00  0.0000000000000D+00
321  3.2000000000000D+00  0.0000000000000D+00  0.0000000000000D+00
322  3.2100000000000D+00  0.0000000000000D+00  0.0000000000000D+00
323  3.2200000000000D+00  0.0000000000000D+00  0.0000000000000D+00
324  3.2300000000000D+00  0.0000000000000D+00  0.0000000000000D+00
325  3.2400000000000D+00  0.0000000000000D+00  0.0000000000000D+00
326  3.2500000000000D+00  0.0000000000000D+00  0.0000000000000D+00
327  3.2600000000000D+00  0.0000000000000D+00  0.0000000000000D+00
328  3.2700000000000D+00  0.0000000000000D+00  0.0000000000000D+00
329  3.2800000000000D+00  0.0000000000000D+00  0.0000000000000D+00
330  3.2900000000000D+00  0.0000000000000D+00  0.0000000000000D+00
331  3.3000000000000D+00  0.0000000000000D+00  0.0000000000000D+00
332  3.3100000000000D+00  0.0000000000000D+00  0.0000000000000D+00
333  3.3200000000000D+00  0.0000000000000D+00  0.0000000000000D+00
334  3.3300000000000D+00  0.0000000000000D+00  0.0000000000000D+00
335  3.3400000000000D+00  0.0000000000000D+00  0.0000000000000D+00
336  3.3500000000000D+00  0.0000000000000D+00  0.0000000000000D+00
337  3.3600000000000D+00  0.0000000000000D+00  0.0000000000000D+00
338  3.3700000000000D+00  0.0000000000000D+00  0.0000000000000D+00
339  3.3800000000000D+00  0.0000000000000D+00  0.0000000000000D+00
340  3.3900000000000D+00  0.0000000000000D+00  0.0000000000000D+00
341  3.4000000000000D+00  0.0000000000000D+00  0.0000000000000D+00
342  3.4100000000000D+00  0.0000000000000D+00  0.0000000000000D+00
343  3.4200000000000D+00  0.0000000000000D+00  0.0000000000000D+00
344  3.4300000000000D+00  0.0000000000000D+00  0.0000000000000D+00
345  3.4400000000000D+00  0.0000000000000D+00  0.0000000000000D+00
346  3.4500000000000D+00  0.0000000000000D+00  0.0000000000000D+00
347  3.4600000000000D+00  0.0000000000000D+00  0.0000000000000D+00
348  3.4700000000000D+00  0.0000000000000D+00  0.0000000000000D+00
349  3.4800000000000D+00  0.0000000000000D+00  0.0000000000000D+00
350  3.4900000000000D+00  0.0000000000000D+00  0.0000000000000D+00
351  3.5000000000000D+00  0.0000000000000D+00  0.0000000000000D+00
352  3.5100000000000D+00  0.0000000000000D+00  0.0000000000000D+00
353  3.5200000000000D+00  0.0000000000000D+00  0.0000000000000D+00
354  3.5300000000000D+00  0.0000000000000D+00  0.0000000000000D+00
355  3.5400000000000D+00  0.0000000000000D+00  0.0000000000000D+00
356  3.5500000000000D+00  0.0000000000000D+00  0.0000000000000D+00
357  3.5600000000000D+00  0.0000000000000D+00  0.0000000000000D+00
358  3.5700000000000D+00  0.0000000000000D+00  0.0000000000000D+00
359  3.5800000000000D+00  0.0000000000000D+00  0.0000000000000D+00
360  3.5900000000000D+00  0.0000000000000D+00  0.0000000000000D+00
361  3.6000000000000D+00  0.0000000000000D+00  0.0000000000000D+00
362  3.6100000000000D+00  0.0000000000000D+00  0.0000000000000D+00
363  3.6200000000000D+00  0.0000000000000D+00  0.0000000000000D+00
364  3.6300000000000D+00  0.0000000000000D+00  0.0000000000000D+00
365  3.6400000000000D+00  0.0000000000000D+00  0.0000000000000D+00
366  3.6500000000000D+00  0.0000000000000D+00  0.0000000000000D+00
367  3.6600000000000D+00  0.0000000000000D+00  0.0000000000000D+00
368  3.6700000000000D+00  0.0000000000000D+00  0.0000000000000D+00
369  3.6800000000000D+00  0.0000000000000D+00  0.0000000000000D+00
370  3.6900000000000D+00  0.0000000000000D+00  0.0000000000000D+00
371  3.7000000000000D+00  0.0000000000000D+00  0.0000000000000D+00
372  3.7100000000000D+00  0.0000000000000D+00  0.0000000000000D+00
373  3.7200000000000D+00  0.0000000000000D+00  0.0000000000000D+00
374  3.7300000000000D+00  0.0000000000000D+00  0.0000000000000D+00
375  3.7400000000000D+00  0.0000000000000D+00  0.0000000000000D+00
376  3.7500000000000D+00  0.0000000000000D+00  0.0000000000000D+00
377  3.7600000000000D+00  0.0000000000000D+00  0.0000000000000D+00
378  3.7700000000000D+00  0.0000000000000D+00  0.0000000000000D+00
379  3.7800000000000D+00  0.0000000000000D+00  0.0000000000000D+00
380  3.7900000000000D+00  0.0000000000000D+00  0.0000000000000D+00
381  3.8000000000000D+00  0.0000000000000D+00  0.0000000000000D+00
382  3.8100000000000D+00  0.0000000000000D+00  0.0000000000000D+00
383  3.8200000000000D+00  0.0000000000000D+00  0.0000000000000D+00
384  3.8300000000000D+00  0.0000000000000D+00  0.0000000000000D+00
385  3.8400000000000D+00  0.0000000000000D+00  0.0000000000000D+00
386  3.8500000000000D+00  0.0000000000000D+00  0.0000000000000D+00
387  3.8600000000000D+00  0.0000000000000D+00  0.0000000000000D+00
388  3.8700000000000D+00  0.0000000000000D+00  0.0000000000000D+00
389  3.8800000000000D+00  0.0000000000000D+00  0.0000000000000D+00
390  3.8900000000000D+00  0.0000000000000D+00  0.0000000000000D+00
391  3.9000000000000D+00  0.0000000000000D+00  0.0000000000000D+00
392  3.9100000000000D+00  0.0000000000000D+00  0.0000000000000D+00
393  3.9200000000000D+00  0.0000000000000D+00  0.0000000000000D+00
394  3.9300000000000D+00  0.0000000000000D+00  0.0000000000000D+00
395  3.9400000000000D+00  0.0000000000000D+00  0.0000000000000D+00
396  3.9500000000000D+00  0.0000000000000D+00  0.0000000000000D+00
397  3.9600000000000D+00  0.0000000000000D+00  0.0000000000000D+00
398  3.9700000000000D+00  0.0000000000000D+00  0.0000000000000D+00
399  3.9800000000000D+00  0.0000000000000D+00  0.0000000000000D+00
400  3.9900000000000D+00  0.0000000000000D+00  0.0000000000000D+00
401  4.0000000000000D+00  0.0000000000000D+00  0.0000000000000D+00
402  4.0100000000000D+00  0.0000000000000D+00  0.0000000000000D+00
403  4.0200000000000D+00  0.0000000000000D+00  0.0000000000000D+00
404  4.0300000000000D+00  0.0000000000000D+00  0.0000000000000D+00
405  4.0400000000000D+00  0.0000000000000D+00  0.0000000000000D+00
406  4.0500000000000D+00  0.0000000000000D+00  0.0000000000000D+00
407  4.0600000000000D+00  0.0000000000000D+00  0.0000000000000D+00
408  4.0700000000000D+00  0.0000000000000D+00  0.0000000000000D+00
409  4.0800000000000D+00  0.0000000000000D+00  0.0000000000000D+00
410  4.0900000000000D+00  0.0000000000000D+00  0.0000000000000D+00
411  4.1000000000000D+00  0.0000000000000D+00  0.0000000000000D+00
412  4.1100000000000D+00  0.0000000000000D+00  0.0000000000000D+00
413  4.1200000000000D+00  0.0000000000000D+00  0.0000000000000D+00
414  4.1300000000000D+00  0.0000000000000D+00  0.0000000000000D+00
415  4.1400000000000D+00  0.0000000000000D+00  0.0000000000000D+00
416  4.1500000000000D+00  0.0000000000000D+00  0.0000000000000D+00
417  4.1600000000000D+00  0.0000000000000D+00  0.0000000000000D+00
418  4.1700000000000D+00  0.0000000000000D+00  0.0000000000000D+00
419  4.1800000000000D+00  0.0000000000000D+00  0.0000000000000D+00
420  4.1900000000000D+00  0.0000000000000D+00  0.0000000000000D+00
421  4.2000000000000D+00  0.0000000000000D+00  0.0000000000000D+00
422  4.2100000000000D+00  0.0000000000000D+00  0.0000000000000D+00
423  4.2200000000000D+00  0.0000000000000D+00  0.0000000000000D+00
424  4.2300000000000D+00  0.0000000000000D+00  0.0000000000000D+00
425  4.2400000000000D+00  0.0000000000000D+00  0.0000000000000D+00
426  4.2500000000000D+00  0.0000000000000D+00  0.0000000000000D+00
427  4.2600000000000D+00  0.0000000000000D+00  0.0000000000000D+00
428  4.2700000000000D+00  0.0000000000000D+00  0.0000000000000D+00
429  4.2800000000000D+00  0.0000000000000D+00  0.0000000000000D+00
430  4.2900000000000D+00  0.0000000000000D+00  0.0000000000000D+00
431  4.3000000000000D+00  0.0000000000000D+00  0.0000000000000D+00
432  4.3100000000000D+00  0.0000000000000D+00  0.0000000000000D+00
433  4.3200000000000D+00  0.0000000000000D+00  0.0000000000000D+00
434  4.3300000000000D+00  0.0000000000000D+00  0.0000000000000D+00
435  4.3400000000000D+00  0.0000000000000D+00  0.0000000000000D+00
436  4.3500000000000D+00  0.0000000000000D+00  0.0000000000000D+00
437  4.3600000000000D+00  0.0000000000000D+00  0.0000000000000D+00
438  4.3700000000000D+00  0.0000000000000D+00  0.0000000000000D+00
439  4.3800000000000D+00  0.0000000000000D+00  0.0000000000000D+00
440  4.3900000000000D+00  0.0000000000000D+00  0.0000000000000D+00
441  4.4000000000000D+00  0.0000000000000D+00  0.0000000000000D+00
442  4.4100000000000D+00  0.0000000000000D+00  0.0000000000000D+00
443  4.4200000000000D+00  0.0000000000000D+00  0.0000000000000D+00