Te    ONCVPSP  r_core=  2.40  2.21  2.61
52.0000      6.0000      161004    zatom,zion,pspd
8 -116133   2     4   600     0    pspcod,pspxc,lmax,lloc,mmax,r2well
5.99000000  9.00000000  0.00000000    rchrg fchrg qchrg
2     2     2     0     0    nproj
1                 extension_switch
0                         4.4501722654921D+00  4.3211629255017D-01
1  0.0000000000000D+00 -1.2699730156385D-11  5.3167012459276D-11
2  1.0000000000000D-02  2.5000033892081D-02 -1.2140421315072D-02
3  2.0000000000000D-02  4.9974223279425D-02 -2.4202473678919D-02
4  3.0000000000000D-02  7.4896832912672D-02 -3.6108250606240D-02
5  4.0000000000000D-02  9.9742345446790D-02 -4.7780767973298D-02
6  5.0000000000000D-02  1.2448556888034D-01 -5.9144418786442D-02
7  6.0000000000000D-02  1.4910174218831D-01 -7.0125420293543D-02
8  7.0000000000000D-02  1.7356663856117D-01 -8.0652250948444D-02
9  8.0000000000000D-02  1.9785666567573D-01 -9.0656074791690D-02
10  9.0000000000000D-02  2.2194896243896D-01 -1.0007115087675D-01
11  1.0000000000000D-01  2.4582149166463D-01 -1.0883522544935D-01
12  1.1000000000000D-01  2.6945312816446D-01 -1.1688990467793D-01
13  1.2000000000000D-01  2.9282374175954D-01 -1.2418100583552D-01
14  1.3000000000000D-01  3.1591427474507D-01 -1.3065888494621D-01
15  1.4000000000000D-01  3.3870681337077D-01 -1.3627873903337D-01
16  1.5000000000000D-01  3.6118465293154D-01 -1.4100088124041D-01
17  1.6000000000000D-01  3.8333235609662D-01 -1.4479098723749D-01
18  1.7000000000000D-01  4.0513580414211D-01 -1.4762031147938D-01
19  1.8000000000000D-01  4.2658224078920D-01 -1.4946587203860D-01
20  1.9000000000000D-01  4.4766030839072D-01 -1.5031060290419D-01
21  2.0000000000000D-01  4.6836007624900D-01 -1.5014347280881D-01
22  2.1000000000000D-01  4.8867306089103D-01 -1.4895956982437D-01
23  2.2000000000000D-01  5.0859223816991D-01 -1.4676015114822D-01
24  2.3000000000000D-01  5.2811204710578D-01 -1.4355265768744D-01
25  2.4000000000000D-01  5.4722838542448D-01 -1.3935069323659D-01
26  2.5000000000000D-01  5.6593859679698D-01 -1.3417396823355D-01
27  2.6000000000000D-01  5.8424144982803D-01 -1.2804820826816D-01
28  2.7000000000000D-01  6.0213710888771D-01 -1.2100502770808D-01
29  2.8000000000000D-01  6.1962709692422D-01 -1.1308176899430D-01
30  2.9000000000000D-01  6.3671425044050D-01 -1.0432130834492D-01
31  3.0000000000000D-01  6.5340266686084D-01 -9.4771828788126D-02
32  3.1000000000000D-01  6.6969764455587D-01 -8.4486561624017D-02
33  3.2000000000000D-01  6.8560561583554D-01 -7.3523497588064D-02
34  3.3000000000000D-01  7.0113407325948D-01 -6.1945069156137D-02
35  3.4000000000000D-01  7.1629148965195D-01 -4.9817805591461D-02
36  3.5000000000000D-01  7.3108723224479D-01 -3.7211962486182D-02
37  3.6000000000000D-01  7.4553147140604D-01 -2.4201127694442D-02
38  3.7000000000000D-01  7.5963508444329D-01 -1.0861805688142D-02
39  3.8000000000000D-01  7.7340955500058D-01  2.7270175086453D-03
40  3.9000000000000D-01  7.8686686859422D-01  1.6484326537000D-02
41  4.0000000000000D-01  8.0001940485704D-01  3.0327543700101D-02
42  4.1000000000000D-01  8.1287982708170D-01  4.4173008277209D-02
43  4.2000000000000D-01  8.2546096967190D-01  5.7936465614052D-02
44  4.3000000000000D-01  8.3777572412529D-01  7.1533563383726D-02
45  4.4000000000000D-01  8.4983692418399D-01  8.4880352360418D-02
46  4.5000000000000D-01  8.6165723079687D-01  9.7893789009897D-02
47  4.6000000000000D-01  8.7324901754330D-01  1.1049223717632D-01
48  4.7000000000000D-01  8.8462425716979D-01  1.2259596613437D-01
49  4.8000000000000D-01  8.9579440988963D-01  1.3412764227968D-01
50  4.9000000000000D-01  9.0677031409024D-01  1.4501281174813D-01
51  5.0000000000000D-01  9.1756208008524D-01  1.5518037128707D-01
52  5.1000000000000D-01  9.2817898753596D-01  1.6456302474747D-01
53  5.2000000000000D-01  9.3862938715242D-01  1.7309772262593D-01
54  5.3000000000000D-01  9.4892060726513D-01  1.8072608215974D-01
55  5.4000000000000D-01  9.5905886583785D-01  1.8739478556469D-01
56  5.5000000000000D-01  9.6904918846656D-01  1.9305595410568D-01
57  5.6000000000000D-01  9.7889533288218D-01  1.9766749580296D-01
58  5.7000000000000D-01  9.8859972044420D-01  2.0119342470079D-01
59  5.8000000000000D-01  9.9816337507892D-01  2.0360414976218D-01
60  5.9000000000000D-01  1.0075858700803D+00  2.0487673159950D-01
61  6.0000000000000D-01  1.0168652831526D+00  2.0499510540808D-01
62  6.1000000000000D-01  1.0259981600346D+00  2.0395026863601D-01
63  6.2000000000000D-01  1.0349794870011D+00  2.0174043209828D-01
64  6.3000000000000D-01  1.0438026724935D+00  1.9837113342619D-01
65  6.4000000000000D-01  1.0524595380872D+00  1.9385531193143D-01
66  6.5000000000000D-01  1.0609403189513D+00  1.8821334416072D-01
67  6.6000000000000D-01  1.0692336739139D+00  1.8147303961624D-01
68  6.7000000000000D-01  1.0773267051908D+00  1.7366959632094D-01
69  6.8000000000000D-01  1.0852049877886D+00  1.6484551611563D-01
70  6.9000000000000D-01  1.0928526085429D+00  1.5505047978279D-01
71  7.0000000000000D-01  1.1002522146977D+00  1.4434118230206D-01
72  7.1000000000000D-01  1.1073850718878D+00  1.3278112875122D-01
73  7.2000000000000D-01  1.1142311313275D+00  1.2044039157506D-01
74  7.3000000000000D-01  1.1207691059679D+00  1.0739533014962D-01
75  7.4000000000000D-01  1.1269765553284D+00  9.3728273771527D-02
76  7.5000000000000D-01  1.1328299786663D+00  7.9527169399451D-02
77  7.6000000000000D-01  1.1383049160979D+00  6.4885195666838D-02
78  7.7000000000000D-01  1.1433760572416D+00  4.9900344870341D-02
79  7.8000000000000D-01  1.1480173569117D+00  3.4674974816110D-02
80  7.9000000000000D-01  1.1522021573473D+00  1.9315332575128D-02
81  8.0000000000000D-01  1.1559033164258D+00  3.9310523588336D-03
82  8.1000000000000D-01  1.1590933412732D+00 -1.1365370124746D-02
83  8.2000000000000D-01  1.1617445266494D+00 -2.6459124335442D-02
84  8.3000000000000D-01  1.1638290974568D+00 -4.1233649961306D-02
85  8.4000000000000D-01  1.1653193546952D+00 -5.5571217635910D-02
86  8.5000000000000D-01  1.1661878241581D+00 -6.9353522473965D-02
87  8.6000000000000D-01  1.1664074071489D+00 -8.2462287499824D-02
88  8.7000000000000D-01  1.1659515324759D+00 -9.4779873971438D-02
89  8.8000000000000D-01  1.1647943089721D+00 -1.0618989554557D-01
90  8.9000000000000D-01  1.1629106777771D+00 -1.1657783318788D-01
91  9.0000000000000D-01  1.1602765636107D+00 -1.2583164770547D-01
92  9.1000000000000D-01  1.1568690242678D+00 -1.3384238676913D-01
93  9.2000000000000D-01  1.1526663975629D+00 -1.4050478329785D-01
94  9.3000000000000D-01  1.1476484449632D+00 -1.4571784209982D-01
95  9.4000000000000D-01  1.1417964911530D+00 -1.4938541170188D-01
96  9.5000000000000D-01  1.1350935587898D+00 -1.5141673835252D-01
97  9.6000000000000D-01  1.1275244977289D+00 -1.5172699925322D-01
98  9.7000000000000D-01  1.1190761080132D+00 -1.5023781215678D-01
99  9.8000000000000D-01  1.1097372559506D+00 -1.4687771857359D-01
100  9.9000000000000D-01  1.0994989826307D+00 -1.4158263793655D-01
101  1.0000000000000D+00  1.0883546042614D+00 -1.3429629020936D-01
102  1.0100000000000D+00  1.0762998037450D+00 -1.2497058456238D-01
103  1.0200000000000D+00  1.0633327129491D+00 -1.1356597189596D-01
104  1.0300000000000D+00  1.0494539851691D+00 -1.0005175915906D-01
105  1.0400000000000D+00  1.0346668573250D+00 -8.4406383591892D-02
106  1.0500000000000D+00  1.0189772014804D+00 -6.6617645208617D-02
107  1.0600000000000D+00  1.0023935653195D+00 -4.6682896032551D-02
108  1.0700000000000D+00  9.8492720127408D-01 -2.4609184814330D-02
109  1.0800000000000D+00  9.6659208403811D-01 -4.1335616886792D-04
110  1.0900000000000D+00  9.4740491627151D-01  2.5877896699729D-02
111  1.1000000000000D+00  9.2738512234201D-01  5.4228026299081D-02
112  1.1100000000000D+00  9.0655483001555D-01  8.4590672555816D-02
113  1.1200000000000D+00  8.8493884006513D-01  1.1690975206016D-01
114  1.1300000000000D+00  8.6256458382390D-01  1.5111959475466D-01
115  1.1400000000000D+00  8.3946206877051D-01  1.8714512772122D-01
116  1.1500000000000D+00  8.1566381228394D-01  2.2490210551995D-01
117  1.1600000000000D+00  7.9120476377791D-01  2.6429738623913D-01
118  1.1700000000000D+00  7.6612221547382D-01  3.0522925221674D-01
119  1.1800000000000D+00  7.4045570212817D-01  3.4758777416334D-01
120  1.1900000000000D+00  7.1424689008356D-01  3.9125521720130D-01
121  1.2000000000000D+00  6.8753945607531D-01  4.3610648708014D-01
122  1.2100000000000D+00  6.6037895627649D-01  4.8200961462386D-01
123  1.2200000000000D+00  6.3281268609430D-01  5.2882627634324D-01
124  1.2300000000000D+00  6.0488953130838D-01  5.7641234883390D-01
125  1.2400000000000D+00  5.7665981117227D-01  6.2461849445757D-01
126  1.2500000000000D+00  5.4817511413167D-01  6.7329077567399D-01
127  1.2600000000000D+00  5.1948812686759D-01  7.2227129517166D-01
128  1.2700000000000D+00  4.9065245740890D-01  7.7139885880162D-01
129  1.2800000000000D+00  4.6172245307409D-01  8.2050965825681D-01
130  1.2900000000000D+00  4.3275301404539D-01  8.6943797026683D-01
131  1.3000000000000D+00  4.0379940340602D-01  9.1801686897095D-01
132  1.3100000000000D+00  3.7491705447369D-01  9.6607894812228D-01
133  1.3200000000000D+00  3.4616137629942D-01  1.0134570496350D+00
134  1.3300000000000D+00  3.1758755820522D-01  1.0599849949750D+00
135  1.3400000000000D+00  2.8925037423675D-01  1.1054983158809D+00
136  1.3500000000000D+00  2.6120398842614D-01  1.1498349808348D+00
137  1.3600000000000D+00  2.3350176173637D-01  1.1928361138035D+00
138  1.3700000000000D+00  2.0619606158422D-01  1.2343467016616D+00
139  1.3800000000000D+00  1.7933807479828D-01  1.2742162868918D+00
140  1.3900000000000D+00  1.5297762486914D-01  1.3122996421479D+00
141  1.4000000000000D+00  1.2716299435339D-01  1.3484574232536D+00
142  1.4100000000000D+00  1.0194075319928D-01  1.3825567976070D+00
143  1.4200000000000D+00  7.7355593846459D-02  1.4144720446020D+00
144  1.4300000000000D+00  5.3450173808963D-02  1.4440851252866D+00
145  1.4400000000000D+00  3.0264966474912D-02  1.4712862183677D+00
146  1.4500000000000D+00  7.8381208634324D-03  1.4959742196520D+00
147  1.4600000000000D+00 -1.3794669135874D-02  1.5180572029050D+00
148  1.4700000000000D+00 -3.4600285272951D-02  1.5374528390992D+00
149  1.4800000000000D+00 -5.4548294813373D-02  1.5540887726271D+00
150  1.4900000000000D+00 -7.3611049158615D-02  1.5679029520570D+00
151  1.5000000000000D+00 -9.1763770800255D-02  1.5788439138935D+00
152  1.5100000000000D+00 -1.0898462827672D-01  1.5868710181252D+00
153  1.5200000000000D+00 -1.2525479862862D-01  1.5919546336347D+00
154  1.5300000000000D+00 -1.4055851735551D-01  1.5940762736296D+00
155  1.5400000000000D+00 -1.5488311529902D-01  1.5932286788802D+00
156  1.5500000000000D+00 -1.6821904269063D-01  1.5894158498888D+00
157  1.5600000000000D+00 -1.8055987991676D-01  1.5826530263030D+00
158  1.5700000000000D+00 -1.9190233526648D-01  1.5729666148067D+00
159  1.5800000000000D+00 -2.0224622949533D-01  1.5603940649534D+00
160  1.5900000000000D+00 -2.1159446742181D-01  1.5449836939761D+00
161  1.6000000000000D+00 -2.1995299670082D-01  1.5267944613057D+00
162  1.6100000000000D+00 -2.2733075393234D-01  1.5058956935972D+00
163  1.6200000000000D+00 -2.3373959855039D-01  1.4823667622180D+00
164  1.6300000000000D+00 -2.3919423460566D-01  1.4562967138167D+00
165  1.6400000000000D+00 -2.4371212115474D-01  1.4277838570092D+00
166  1.6500000000000D+00 -2.4731337135234D-01  1.3969353057381D+00
167  1.6600000000000D+00 -2.5002064117713D-01  1.3638664832118D+00
168  1.6700000000000D+00 -2.5185900790883D-01  1.3287005870745D+00
169  1.6800000000000D+00 -2.5285583944239D-01  1.2915680203236D+00
170  1.6900000000000D+00 -2.5304065462122D-01  1.2526057888992D+00
171  1.7000000000000D+00 -2.5244497576128D-01  1.2119568707808D+00
172  1.7100000000000D+00 -2.5110217365615D-01  1.1697695579719D+00
173  1.7200000000000D+00 -2.4904730624937D-01  1.1261967762325D+00
174  1.7300000000000D+00 -2.4631695141187D-01  1.0813953845485D+00
175  1.7400000000000D+00 -2.4294903495871D-01  1.0355254589597D+00
176  1.7500000000000D+00 -2.3898265451767D-01  9.8874956344385D-01
177  1.7600000000000D+00 -2.3445790028074D-01  9.4123201203379D-01
178  1.7700000000000D+00 -2.2941567342899D-01  8.9313812558071D-01
179  1.7800000000000D+00 -2.2389750313639D-01  8.4463348681382D-01
180  1.7900000000000D+00 -2.1794536308621D-01  7.9588319766158D-01
181  1.8000000000000D+00 -2.1160148830359D-01  7.4705114207804D-01
182  1.8100000000000D+00 -2.0490819329038D-01  6.9829925849219D-01
183  1.8200000000000D+00 -1.9790769225158D-01  6.4978682510310D-01
184  1.8300000000000D+00 -1.9064192229040D-01  6.0166976159796D-01
185  1.8400000000000D+00 -1.8315237051034D-01  5.5409995119767D-01
186  1.8500000000000D+00 -1.7547990555513D-01  5.0722458505746D-01
187  1.8600000000000D+00 -1.6766461491007D-01  4.6118553461190D-01
188  1.8700000000000D+00 -1.5974564786930D-01  4.1611875116397D-01
189  1.8800000000000D+00 -1.5176106603707D-01  3.7215370064722D-01
190  1.8900000000000D+00 -1.4374770070345D-01  3.2941283044812D-01
191  1.9000000000000D+00 -1.3574101907511D-01  2.8801107665277D-01
192  1.9100000000000D+00 -1.2777499877732D-01  2.4805540898293D-01
193  1.9200000000000D+00 -1.1988201199079D-01  2.0964441908106D-01
194  1.9300000000000D+00 -1.1209271938934D-01  1.7286795266111D-01
195  1.9400000000000D+00 -1.0443597397528D-01  1.3780678574000D-01
196  1.9500000000000D+00 -9.6938736303177D-02  1.0453235112784D-01
197  1.9600000000000D+00 -8.9625999462534D-02  7.3106508042842D-02
198  1.9700000000000D+00 -8.2520726630981D-02  4.3581366625597D-02
199  1.9800000000000D+00 -7.5643798764363D-02  1.5999156832370D-02
200  1.9900000000000D+00 -6.9013974628659D-02 -9.6078491281563D-03
201  2.0000000000000D+00 -6.2647862145782D-02 -3.3217365346395D-02
202  2.0100000000000D+00 -5.6559900959084D-02 -5.4817072334576D-02
203  2.0200000000000D+00 -5.0762357506719D-02 -7.4404543468267D-02
204  2.0300000000000D+00 -4.5265330052861D-02 -9.1987128669020D-02
205  2.0400000000000D+00 -4.0076766484635D-02 -1.0758178370707D-01
206  2.0500000000000D+00 -3.5202491931735D-02 -1.2121485766559D-01
207  2.0600000000000D+00 -3.0646247493323D-02 -1.3292183336983D-01
208  2.0700000000000D+00 -2.6409739677924D-02 -1.4274702262231D-01
209  2.0800000000000D+00 -2.2492698617250D-02 -1.5074322453121D-01
210  2.0900000000000D+00 -1.8892947198705D-02 -1.5697133819556D-01
211  2.1000000000000D+00 -1.5606477838931D-02 -1.6149994357561D-01
212  2.1100000000000D+00 -1.2627538265707D-02 -1.6440484508542D-01
213  2.1200000000000D+00 -9.9487251585704D-03 -1.6576858287924D-01
214  2.1300000000000D+00 -7.5610841120031D-03 -1.6567991837482D-01
215  2.1400000000000D+00 -5.4542163752404D-03 -1.6423329355278D-01
216  2.1500000000000D+00 -3.6163935363656D-03 -1.6152825322020D-01
217  2.1600000000000D+00 -2.0346736781434D-03 -1.5766886836639D-01
218  2.1700000000000D+00 -6.9501190535236D-04 -1.5276319822364D-01
219  2.1800000000000D+00  4.1757603679306D-04 -1.4692246336514D-01
220  2.1900000000000D+00  1.3189216659624D-03 -1.4026061675732D-01
221  2.2000000000000D+00  2.0255954629381D-03 -1.3289384253213D-01
222  2.2100000000000D+00  2.5547706216920D-03 -1.2493989509427D-01
223  2.2200000000000D+00  2.9239903404868D-03 -1.1651688791778D-01
224  2.2300000000000D+00  3.1509956471167D-03 -1.0774240589235D-01
225  2.2400000000000D+00  3.2535284367807D-03 -9.8732548233867D-02
226  2.2500000000000D+00  3.2491435577087D-03 -8.9601010978047D-02
227  2.2600000000000D+00  3.1549581005408D-03 -8.0457811249780D-02
228  2.2700000000000D+00  2.9875887551017D-03 -7.1409087886030D-02
229  2.2800000000000D+00  2.7630171688225D-03 -6.2556498971420D-02
230  2.2900000000000D+00  2.4964728523018D-03 -5.3996708159883D-02
231  2.3000000000000D+00  2.2022956124115D-03 -4.5820732421541D-02
232  2.3100000000000D+00  1.8938334536578D-03 -3.8113499870409D-02
233  2.3200000000000D+00  1.5833374538812D-03 -3.0953374512533D-02
234  2.3300000000000D+00  1.2823021414688D-03 -2.4418854675196D-02
235  2.3400000000000D+00  9.9963046702134D-04 -1.8559594328055D-02
236  2.3500000000000D+00  7.4304874958223D-04 -1.3422023224504D-02
237  2.3600000000000D+00  5.1904169693313D-04 -9.0486005008610D-03
238  2.3700000000000D+00  3.3831396105864D-04 -5.5520845144012D-03
239  2.3800000000000D+00  2.0802210845851D-04 -3.0010800238969D-03
240  2.3900000000000D+00  1.2640020742292D-04 -1.3629834903537D-03
241  2.4000000000000D+00  7.7939532673905D-05 -4.4635645625945D-04
242  2.4100000000000D+00  4.5652202299975D-05 -3.5322956647438D-05
243  2.4200000000000D+00  2.0991154527539D-05  6.9926032681278D-05
244  2.4300000000000D+00  4.1696336915322D-06  2.6214085015644D-05
245  2.4400000000000D+00 -3.0608737061416D-06 -2.4873580848306D-05
246  2.4500000000000D+00 -3.2994077121211D-06 -3.3865512565914D-05
247  2.4600000000000D+00 -7.8789392961680D-07 -9.4803651591186D-06
248  2.4700000000000D+00  7.6378228100926D-07  3.9290381701875D-06
249  2.4800000000000D+00  8.8941187182267D-07  5.1300452875594D-06
250  2.4900000000000D+00  2.0355674831001D-07  1.2847027666859D-06
251  2.5000000000000D+00 -1.3835268390028D-07  4.5845989786970D-07
252  2.5100000000000D+00 -1.6596086094430D-07  5.4994523571174D-07
253  2.5200000000000D+00 -3.8563596782383D-08  1.2778836047071D-07
254  2.5300000000000D+00  0.0000000000000D+00  0.0000000000000D+00
255  2.5400000000000D+00  0.0000000000000D+00  0.0000000000000D+00
256  2.5500000000000D+00  0.0000000000000D+00  0.0000000000000D+00
257  2.5600000000000D+00  0.0000000000000D+00  0.0000000000000D+00
258  2.5700000000000D+00  0.0000000000000D+00  0.0000000000000D+00
259  2.5800000000000D+00  0.0000000000000D+00  0.0000000000000D+00
260  2.5900000000000D+00  0.0000000000000D+00  0.0000000000000D+00
261  2.6000000000000D+00  0.0000000000000D+00  0.0000000000000D+00
262  2.6100000000000D+00  0.0000000000000D+00  0.0000000000000D+00
263  2.6200000000000D+00  0.0000000000000D+00  0.0000000000000D+00
264  2.6300000000000D+00  0.0000000000000D+00  0.0000000000000D+00
265  2.6400000000000D+00  0.0000000000000D+00  0.0000000000000D+00
266  2.6500000000000D+00  0.0000000000000D+00  0.0000000000000D+00
267  2.6600000000000D+00  0.0000000000000D+00  0.0000000000000D+00
268  2.6700000000000D+00  0.0000000000000D+00  0.0000000000000D+00
269  2.6800000000000D+00  0.0000000000000D+00  0.0000000000000D+00
270  2.6900000000000D+00  0.0000000000000D+00  0.0000000000000D+00
271  2.7000000000000D+00  0.0000000000000D+00  0.0000000000000D+00
272  2.7100000000000D+00  0.0000000000000D+00  0.0000000000000D+00
273  2.7200000000000D+00  0.0000000000000D+00  0.0000000000000D+00
274  2.7300000000000D+00  0.0000000000000D+00  0.0000000000000D+00
275  2.7400000000000D+00  0.0000000000000D+00  0.0000000000000D+00
276  2.7500000000000D+00  0.0000000000000D+00  0.0000000000000D+00
277  2.7600000000000D+00  0.0000000000000D+00  0.0000000000000D+00
278  2.7700000000000D+00  0.0000000000000D+00  0.0000000000000D+00
279  2.7800000000000D+00  0.0000000000000D+00  0.0000000000000D+00
280  2.7900000000000D+00  0.0000000000000D+00  0.0000000000000D+00
281  2.8000000000000D+00  0.0000000000000D+00  0.0000000000000D+00
282  2.8100000000000D+00  0.0000000000000D+00  0.0000000000000D+00
283  2.8200000000000D+00  0.0000000000000D+00  0.0000000000000D+00
284  2.8300000000000D+00  0.0000000000000D+00  0.0000000000000D+00
285  2.8400000000000D+00  0.0000000000000D+00  0.0000000000000D+00
286  2.8500000000000D+00  0.0000000000000D+00  0.0000000000000D+00
287  2.8600000000000D+00  0.0000000000000D+00  0.0000000000000D+00
288  2.8700000000000D+00  0.0000000000000D+00  0.0000000000000D+00
289  2.8800000000000D+00  0.0000000000000D+00  0.0000000000000D+00
290  2.8900000000000D+00  0.0000000000000D+00  0.0000000000000D+00
291  2.9000000000000D+00  0.0000000000000D+00  0.0000000000000D+00
292  2.9100000000000D+00  0.0000000000000D+00  0.0000000000000D+00
293  2.9200000000000D+00  0.0000000000000D+00  0.0000000000000D+00
294  2.9300000000000D+00  0.0000000000000D+00  0.0000000000000D+00
295  2.9400000000000D+00  0.0000000000000D+00  0.0000000000000D+00
296  2.9500000000000D+00  0.0000000000000D+00  0.0000000000000D+00
297  2.9600000000000D+00  0.0000000000000D+00  0.0000000000000D+00
298  2.9700000000000D+00  0.0000000000000D+00  0.0000000000000D+00
299  2.9800000000000D+00  0.0000000000000D+00  0.0000000000000D+00
300  2.9900000000000D+00  0.0000000000000D+00  0.0000000000000D+00
301  3.0000000000000D+00  0.0000000000000D+00  0.0000000000000D+00
302  3.0100000000000D+00  0.0000000000000D+00  0.0000000000000D+00
303  3.0200000000000D+00  0.0000000000000D+00  0.0000000000000D+00
304  3.0300000000000D+00  0.0000000000000D+00  0.0000000000000D+00
305  3.0400000000000D+00  0.0000000000000D+00  0.0000000000000D+00
306  3.0500000000000D+00  0.0000000000000D+00  0.0000000000000D+00
307  3.0600000000000D+00  0.0000000000000D+00  0.0000000000000D+00
308  3.0700000000000D+00  0.0000000000000D+00  0.0000000000000D+00
309  3.0800000000000D+00  0.0000000000000D+00  0.0000000000000D+00
310  3.0900000000000D+00  0.0000000000000D+00  0.0000000000000D+00
311  3.1000000000000D+00  0.0000000000000D+00  0.0000000000000D+00
312  3.1100000000000D+00  0.0000000000000D+00  0.0000000000000D+00
313  3.1200000000000D+00  0.0000000000000D+00  0.0000000000000D+00
314  3.1300000000000D+00  0.0000000000000D+00  0.0000000000000D+00
315  3.1400000000000D+00  0.0000000000000D+00  0.0000000000000D+00
316  3.1500000000000D+00  0.0000000000000D+00  0.0000000000000D+00
317  3.1600000000000D+00  0.0000000000000D+00  0.0000000000000D+00
318  3.1700000000000D+00  0.0000000000000D+00  0.0000000000000D+00
319  3.1800000000000D+00  0.0000000000000D+00  0.0000000000000D+00
320  3.1900000000000D+00  0.0000000000000D+00  0.0000000000000D+00
321  3.2000000000000D+00  0.0000000000000D+00  0.0000000000000D+00
322  3.2100000000000D+00  0.0000000000000D+00  0.0000000000000D+00
323  3.2200000000000D+00  0.0000000000000D+00  0.0000000000000D+00
324  3.2300000000000D+00  0.0000000000000D+00  0.0000000000000D+00
325  3.2400000000000D+00  0.0000000000000D+00  0.0000000000000D+00
326  3.2500000000000D+00  0.0000000000000D+00  0.0000000000000D+00
327  3.2600000000000D+00  0.0000000000000D+00  0.0000000000000D+00
328  3.2700000000000D+00  0.0000000000000D+00  0.0000000000000D+00
329  3.2800000000000D+00  0.0000000000000D+00  0.0000000000000D+00
330  3.2900000000000D+00  0.0000000000000D+00  0.0000000000000D+00
331  3.3000000000000D+00  0.0000000000000D+00  0.0000000000000D+00
332  3.3100000000000D+00  0.0000000000000D+00  0.0000000000000D+00
333  3.3200000000000D+00  0.0000000000000D+00  0.0000000000000D+00
334  3.3300000000000D+00  0.0000000000000D+00  0.0000000000000D+00
335  3.3400000000000D+00  0.0000000000000D+00  0.0000000000000D+00
336  3.3500000000000D+00  0.0000000000000D+00  0.0000000000000D+00
337  3.3600000000000D+00  0.0000000000000D+00  0.0000000000000D+00
338  3.3700000000000D+00  0.0000000000000D+00  0.0000000000000D+00
339  3.3800000000000D+00  0.0000000000000D+00  0.0000000000000D+00
340  3.3900000000000D+00  0.0000000000000D+00  0.0000000000000D+00
341  3.4000000000000D+00  0.0000000000000D+00  0.0000000000000D+00
342  3.4100000000000D+00  0.0000000000000D+00  0.0000000000000D+00
343  3.4200000000000D+00  0.0000000000000D+00  0.0000000000000D+00
344  3.4300000000000D+00  0.0000000000000D+00  0.0000000000000D+00
345  3.4400000000000D+00  0.0000000000000D+00  0.0000000000000D+00
346  3.4500000000000D+00  0.0000000000000D+00  0.0000000000000D+00
347  3.4600000000000D+00  0.0000000000000D+00  0.0000000000000D+00
348  3.4700000000000D+00  0.0000000000000D+00  0.0000000000000D+00
349  3.4800000000000D+00  0.0000000000000D+00  0.0000000000000D+00
350  3.4900000000000D+00  0.0000000000000D+00  0.0000000000000D+00
351  3.5000000000000D+00  0.0000000000000D+00  0.0000000000000D+00
352  3.5100000000000D+00  0.0000000000000D+00  0.0000000000000D+00
353  3.5200000000000D+00  0.0000000000000D+00  0.0000000000000D+00
354  3.5300000000000D+00  0.0000000000000D+00  0.0000000000000D+00
355  3.5400000000000D+00  0.0000000000000D+00  0.0000000000000D+00
356  3.5500000000000D+00  0.0000000000000D+00  0.0000000000000D+00
357  3.5600000000000D+00  0.0000000000000D+00  0.0000000000000D+00
358  3.5700000000000D+00  0.0000000000000D+00  0.0000000000000D+00
359  3.5800000000000D+00  0.0000000000000D+00  0.0000000000000D+00
360  3.5900000000000D+00  0.0000000000000D+00  0.0000000000000D+00
361  3.6000000000000D+00  0.0000000000000D+00  0.0000000000000D+00
362  3.6100000000000D+00  0.0000000000000D+00  0.0000000000000D+00
363  3.6200000000000D+00  0.0000000000000D+00  0.0000000000000D+00
364  3.6300000000000D+00  0.0000000000000D+00  0.0000000000000D+00
365  3.6400000000000D+00  0.0000000000000D+00  0.0000000000000D+00
366  3.6500000000000D+00  0.0000000000000D+00  0.0000000000000D+00
367  3.6600000000000D+00  0.0000000000000D+00  0.0000000000000D+00
368  3.6700000000000D+00  0.0000000000000D+00  0.0000000000000D+00
369  3.6800000000000D+00  0.0000000000000D+00  0.0000000000000D+00
370  3.6900000000000D+00  0.0000000000000D+00  0.0000000000000D+00
371  3.7000000000000D+00  0.0000000000000D+00  0.0000000000000D+00
372  3.7100000000000D+00  0.0000000000000D+00  0.0000000000000D+00
373  3.7200000000000D+00  0.0000000000000D+00  0.0000000000000D+00
374  3.7300000000000D+00  0.0000000000000D+00  0.0000000000000D+00
375  3.7400000000000D+00  0.0000000000000D+00  0.0000000000000D+00
376  3.7500000000000D+00  0.0000000000000D+00  0.0000000000000D+00
377  3.7600000000000D+00  0.0000000000000D+00  0.0000000000000D+00
378  3.7700000000000D+00  0.0000000000000D+00  0.0000000000000D+00
379  3.7800000000000D+00  0.0000000000000D+00  0.0000000000000D+00
380  3.7900000000000D+00  0.0000000000000D+00  0.0000000000000D+00
381  3.8000000000000D+00  0.0000000000000D+00  0.0000000000000D+00
382  3.8100000000000D+00  0.0000000000000D+00  0.0000000000000D+00
383  3.8200000000000D+00  0.0000000000000D+00  0.0000000000000D+00
384  3.8300000000000D+00  0.0000000000000D+00  0.0000000000000D+00
385  3.8400000000000D+00  0.0000000000000D+00  0.0000000000000D+00
386  3.8500000000000D+00  0.0000000000000D+00  0.0000000000000D+00
387  3.8600000000000D+00  0.0000000000000D+00  0.0000000000000D+00
388  3.8700000000000D+00  0.0000000000000D+00  0.0000000000000D+00
389  3.8800000000000D+00  0.0000000000000D+00  0.0000000000000D+00
390  3.8900000000000D+00  0.0000000000000D+00  0.0000000000000D+00
391  3.9000000000000D+00  0.0000000000000D+00  0.0000000000000D+00
392  3.9100000000000D+00  0.0000000000000D+00  0.0000000000000D+00
393  3.9200000000000D+00  0.0000000000000D+00  0.0000000000000D+00
394  3.9300000000000D+00  0.0000000000000D+00  0.0000000000000D+00
395  3.9400000000000D+00  0.0000000000000D+00  0.0000000000000D+00
396  3.9500000000000D+00  0.0000000000000D+00  0.0000000000000D+00
397  3.9600000000000D+00  0.0000000000000D+00  0.0000000000000D+00
398  3.9700000000000D+00  0.0000000000000D+00  0.0000000000000D+00
399  3.9800000000000D+00  0.0000000000000D+00  0.0000000000000D+00
400  3.9900000000000D+00  0.0000000000000D+00  0.0000000000000D+00
401  4.0000000000000D+00  0.0000000000000D+00  0.0000000000000D+00
402  4.0100000000000D+00  0.0000000000000D+00  0.0000000000000D+00
403  4.0200000000000D+00  0.0000000000000D+00  0.0000000000000D+00
404  4.0300000000000D+00  0.0000000000000D+00  0.0000000000000D+00
405  4.0400000000000D+00  0.0000000000000D+00  0.0000000000000D+00
406  4.0500000000000D+00  0.0000000000000D+00  0.0000000000000D+00
407  4.0600000000000D+00  0.0000000000000D+00  0.0000000000000D+00
408  4.0700000000000D+00  0.0000000000000D+00  0.0000000000000D+00
409  4.0800000000000D+00  0.0000000000000D+00  0.0000000000000D+00
410  4.0900000000000D+00  0.0000000000000D+00  0.0000000000000D+00
411  4.1000000000000D+00  0.0000000000000D+00  0.0000000000000D+00
412  4.1100000000000D+00  0.0000000000000D+00  0.0000000000000D+00
413  4.1200000000000D+00  0.0000000000000D+00  0.0000000000000D+00
414  4.1300000000000D+00  0.0000000000000D+00  0.0000000000000D+00
415  4.1400000000000D+00  0.0000000000000D+00  0.0000000000000D+00
416  4.1500000000000D+00  0.0000000000000D+00  0.0000000000000D+00
417  4.1600000000000D+00  0.0000000000000D+00  0.0000000000000D+00
418  4.1700000000000D+00  0.0000000000000D+00  0.0000000000000D+00
419  4.1800000000000D+00  0.0000000000000D+00  0.0000000000000D+00
420  4.1900000000000D+00  0.0000000000000D+00  0.0000000000000D+00
421  4.2000000000000D+00  0.0000000000000D+00  0.0000000000000D+00
422  4.2100000000000D+00  0.0000000000000D+00  0.0000000000000D+00
423  4.2200000000000D+00  0.0000000000000D+00  0.0000000000000D+00
424  4.2300000000000D+00  0.0000000000000D+00  0.0000000000000D+00
425  4.2400000000000D+00  0.0000000000000D+00  0.0000000000000D+00
426  4.2500000000000D+00  0.0000000000000D+00  0.0000000000000D+00
427  4.2600000000000D+00  0.0000000000000D+00  0.0000000000000D+00
428  4.2700000000000D+00  0.0000000000000D+00  0.0000000000000D+00
429  4.2800000000000D+00  0.0000000000000D+00  0.0000000000000D+00
430  4.2900000000000D+00  0.0000000000000D+00  0.0000000000000D+00
431  4.3000000000000D+00  0.0000000000000D+00  0.0000000000000D+00
432  4.3100000000000D+00  0.0000000000000D+00  0.0000000000000D+00
433  4.3200000000000D+00  0.0000000000000D+00  0.0000000000000D+00
434  4.3300000000000D+00  0.0000000000000D+00  0.0000000000000D+00
435  4.3400000000000D+00  0.0000000000000D+00  0.0000000000000D+00
436  4.3500000000000D+00  0.0000000000000D+00  0.0000000000000D+00
437  4.3600000000000D+00  0.0000000000000D+00  0.0000000000000D+00
438  4.3700000000000D+00  0.0000000000000D+00  0.0000000000000D+00
439  4.3800000000000D+00  0.0000000000000D+00  0.0000000000000D+00
440  4.3900000000000D+00  0.0000000000000D+00  0.0000000000000D+00
441  4.4000000000000D+00  0.0000000000000D+00  0.0000000000000D+00
442  4.4100000000000D+00  0.0000000000000D+00  0.0000000000000D+00
443  4.4200000000000D+00  0.0000000000000D+00  0.0000000000000D+00
444  4.4300000000000D+00  0.0000000000000D+00  0.0000000000000D+00