I     ONCVPSP-3.3.0  r_core=   1.41262   1.41262   1.41262
53.0000     25.0000      180112    zatom,zion,pspd
8 -116133   2     4   600     0    pspcod,pspxc,lmax,lloc,mmax,r2well
5.99000000  5.00000000  0.00000000    rchrg fchrg qchrg
2     2     2     0     0    nproj
1     1           extension_switch
0                         1.1955205802786D+01  1.9109725175607D+00
1  0.0000000000000D+00 -3.2181601827830D-10  7.2394451544611D-10
2  1.0000000000000D-02  9.4944550155187D-02 -1.6573034595588D-02
3  2.0000000000000D-02  1.8958358938668D-01 -3.2929659533830D-02
4  3.0000000000000D-02  2.8361287097661D-01 -4.8854980100778D-02
5  4.0000000000000D-02  3.7673066873834D-01 -6.4137116998529D-02
6  5.0000000000000D-02  4.6863901766430D-01 -7.8568678063804D-02
7  6.0000000000000D-02  5.5904493126428D-01 -9.1948187321444D-02
8  7.0000000000000D-02  6.4766158820775D-01 -1.0408145801374D-01
9  8.0000000000000D-02  7.3420948120522D-01 -1.1478289697039D-01
10  9.0000000000000D-02  8.1841752145795D-01 -1.2387672856973D-01
11  1.0000000000000D-01  9.0002409246623D-01 -1.3119812757681D-01
12  1.1000000000000D-01  9.7877804750807D-01 -1.3659425131446D-01
13  1.2000000000000D-01  1.0544396456756D+00 -1.3992516291167D-01
14  1.3000000000000D-01  1.1267814219772D+00 -1.4106463876270D-01
15  1.4000000000000D-01  1.1955889876730D+00 -1.3990085479987D-01
16  1.5000000000000D-01  1.2606617576970D+00 -1.3633694771206D-01
17  1.6000000000000D-01  1.3218136027257D+00 -1.3029144880808D-01
18  1.7000000000000D-01  1.3788734241701D+00 -1.2169858980629D-01
19  1.8000000000000D-01  1.4316856510802D+00 -1.1050848140680D-01
20  1.9000000000000D-01  1.4801106586602D+00 -9.6687167047026D-02
21  2.0000000000000D-01  1.5240251087733D+00 -8.0216555732291D-02
22  2.1000000000000D-01  1.5633222134770D+00 -6.1094239250326D-02
23  2.2000000000000D-01  1.5979119232427D+00 -3.9333200397929D-02
24  2.3000000000000D-01  1.6277210420897D+00 -1.4961420053297D-02
25  2.4000000000000D-01  1.6526932723780D+00  1.1978608002307D-02
26  2.5000000000000D-01  1.6727891924642D+00  4.1430444689670D-02
27  2.6000000000000D-01  1.6879861708130D+00  7.3324345083793D-02
28  2.7000000000000D-01  1.6982782204732D+00  1.0757795855454D-01
29  2.8000000000000D-01  1.7036757980739D+00  1.4409707804317D-01
30  2.9000000000000D-01  1.7042055516550D+00  1.8277642672080D-01
31  3.0000000000000D-01  1.6999100217347D+00  2.2350047026928D-01
32  3.1000000000000D-01  1.6908473000174D+00  2.6614424321434D-01
33  3.2000000000000D-01  1.6770906500753D+00  3.1057417812551D-01
34  3.3000000000000D-01  1.6587280941850D+00  3.5664892706782D-01
35  3.4000000000000D-01  1.6358619702774D+00  4.0422016544110D-01
36  3.5000000000000D-01  1.6086084626757D+00  4.5313336925947D-01
37  3.6000000000000D-01  1.5770971099440D+00  5.0322855799290D-01
38  3.7000000000000D-01  1.5414702927701D+00  5.5434099629658D-01
39  3.8000000000000D-01  1.5018827043621D+00  6.0630184927162D-01
40  3.9000000000000D-01  1.4585008053600D+00  6.5893878731112D-01
41  4.0000000000000D-01  1.4115022647597D+00  7.1207653806305D-01
42  4.1000000000000D-01  1.3610753878363D+00  7.6553738456103D-01
43  4.2000000000000D-01  1.3074185315319D+00  8.1914161010795D-01
44  4.3000000000000D-01  1.2507395072745D+00  8.7270789201774D-01
45  4.4000000000000D-01  1.1912549707051D+00  9.2605364779917D-01
46  4.5000000000000D-01  1.1291897973489D+00  9.7899533877362D-01
47  4.6000000000000D-01  1.0647764428574D+00  1.0313487374289D+00
48  4.7000000000000D-01  9.9825428610589D-01  1.0829291659965D+00
49  4.8000000000000D-01  9.2986895315038D-01  1.1335517147758D+00
50  4.9000000000000D-01  8.5987161984335D-01  1.1830314495895D+00
51  5.0000000000000D-01  7.8851829078817D-01  1.2311836184237D+00
52  5.1000000000000D-01  7.1606905228233D-01  1.2778238677628D+00
53  5.2000000000000D-01  6.4278729696509D-01  1.3227684793558D+00
54  5.3000000000000D-01  5.6893891804970D-01  1.3658346381467D+00
55  5.4000000000000D-01  4.9479147128615D-01  1.4068407418423D+00
56  5.5000000000000D-01  4.2061330316573D-01  1.4456067620933D+00
57  5.6000000000000D-01  3.4667264434331D-01  1.4819546665132D+00
58  5.7000000000000D-01  2.7323666781243D-01  1.5157089097672D+00
59  5.8000000000000D-01  2.0057051201398D-01  1.5466970007447D+00
60  5.9000000000000D-01  1.2893626978921D-01  1.5747501513835D+00
61  6.0000000000000D-01  5.8591944882916D-02  1.5997040110830D+00
62  6.1000000000000D-01 -1.0209621437212D-02  1.6213994888221D+00
63  6.2000000000000D-01 -7.7221850178519D-02  1.6396836631413D+00
64  6.3000000000000D-01 -1.4220554643762D-01  1.6544107780674D+00
65  6.4000000000000D-01 -2.0493003787903D-01  1.6654433208851D+00
66  6.5000000000000D-01 -2.6517432358359D-01  1.6726531754605D+00
67  6.6000000000000D-01 -3.2272822604048D-01  1.6759228425804D+00
68  6.7000000000000D-01 -3.7739353816904D-01  1.6751467165820D+00
69  6.8000000000000D-01 -4.2898515642553D-01  1.6702324054231D+00
70  6.9000000000000D-01 -4.7733219028928D-01  1.6611020793202D+00
71  7.0000000000000D-01 -5.2227903775900D-01  1.6476938312182D+00
72  7.1000000000000D-01 -5.6368641593430D-01  1.6299630306798D+00
73  7.2000000000000D-01 -6.0143233532896D-01  1.6078836513340D+00
74  7.3000000000000D-01 -6.3541300627235D-01  1.5814495508352D+00
75  7.4000000000000D-01 -6.6554366562108D-01  1.5506756813898D+00
76  7.5000000000000D-01 -6.9175931203209D-01  1.5155992083372D+00
77  7.6000000000000D-01 -7.1401533825048D-01  1.4762805140427D+00
78  7.7000000000000D-01 -7.3228804924730D-01  1.4328040644945D+00
79  7.8000000000000D-01 -7.4657505560727D-01  1.3852791165060D+00
80  7.9000000000000D-01 -7.5689553231200D-01  1.3338402443160D+00
81  8.0000000000000D-01 -7.6329033399678D-01  1.2786476656544D+00
82  8.1000000000000D-01 -7.6582195886069D-01  1.2198873489924D+00
83  8.2000000000000D-01 -7.6457435468276D-01  1.1577708857113D+00
84  8.3000000000000D-01 -7.5965256182447D-01  1.0925351132884D+00
85  8.4000000000000D-01 -7.5118218966802D-01  1.0244414782835D+00
86  8.5000000000000D-01 -7.3930872463335D-01  9.5377513088334D-01
87  8.6000000000000D-01 -7.2419666971481D-01  8.8084374599544D-01
88  8.7000000000000D-01 -7.0602851735874D-01  8.0597606932238D-01
89  8.8000000000000D-01 -6.8500355944189D-01  7.2952019045968D-01
90  8.9000000000000D-01 -6.6133654008089D-01  6.5184154878383D-01
91  9.0000000000000D-01 -6.3525615897842D-01  5.7332068168401D-01
92  9.1000000000000D-01 -6.0700343496342D-01  4.9435072848265D-01
93  9.2000000000000D-01 -5.7682994128107D-01  4.1533470712772D-01
94  9.3000000000000D-01 -5.4499592600498D-01  3.3668258436410D-01
95  9.4000000000000D-01 -5.1176833265444D-01  2.5880816355497D-01
96  9.5000000000000D-01 -4.7741873766033D-01  1.8212581753471D-01
97  9.6000000000000D-01 -4.4222122272784D-01  1.0704709681922D-01
98  9.7000000000000D-01 -4.0645020136538D-01  3.3977246121846D-02
99  9.8000000000000D-01 -3.7037821983729D-01 -3.6688335682072D-02
100  9.9000000000000D-01 -3.3427375357062D-01 -1.0456765519901D-01
101  1.0000000000000D+00 -2.9839902056107D-01 -1.6929566550744D-01
102  1.0100000000000D+00 -2.6300783357922D-01 -2.3052774940507D-01
103  1.0200000000000D+00 -2.2834351293840D-01 -2.8794310555228D-01
104  1.0300000000000D+00 -1.9463688131152D-01 -3.4124799835424D-01
105  1.0400000000000D+00 -1.6210436147990D-01 -3.9017883323363D-01
106  1.0500000000000D+00 -1.3094619702763D-01 -4.3450502030142D-01
107  1.0600000000000D+00 -1.0134481486786D-01 -4.7403159128800D-01
108  1.0700000000000D+00 -7.3463347046810D-02 -5.0860153706653D-01
109  1.0800000000000D+00 -4.7444327622288D-02 -5.3809783599828D-01
110  1.0900000000000D+00 -2.3408578627425D-02 -5.6244514651388D-01
111  1.1000000000000D+00 -1.4542968299958D-03 -5.8161114151620D-01
112  1.1100000000000D+00  1.8343649089705D-02 -5.9560746601592D-01
113  1.1200000000000D+00  3.5934204051018D-02 -6.0449030446233D-01
114  1.1300000000000D+00  5.1290389888649D-02 -6.0836054795593D-01
115  1.1400000000000D+00  6.4409344888531D-02 -6.0736355771244D-01
116  1.1500000000000D+00  7.5312140234191D-02 -6.0168852543592D-01
117  1.1600000000000D+00  8.4043377204111D-02 -5.9156743721908D-01
118  1.1700000000000D+00  9.0670572654881D-02 -5.7727365577496D-01
119  1.1800000000000D+00  9.5283330388344D-02 -5.5912010819433D-01
120  1.1900000000000D+00  9.7992361112291D-02 -5.3745722963315D-01
121  1.2000000000000D+00  9.8928102471438D-02 -5.1267002898550D-01
122  1.2100000000000D+00  9.8239966856092D-02 -4.8517685728668D-01
123  1.2200000000000D+00  9.6093497179181D-02 -4.5542298468711D-01
124  1.2300000000000D+00  9.2665214994864D-02 -4.2386844613965D-01
125  1.2400000000000D+00  8.8137259169679D-02 -3.9097580402252D-01
126  1.2500000000000D+00  8.2694016452178D-02 -3.5720311812218D-01
127  1.2600000000000D+00  7.6520551297125D-02 -3.2300159267150D-01
128  1.2700000000000D+00  6.9800208659037D-02 -2.8881106521316D-01
129  1.2800000000000D+00  6.2712504115788D-02 -2.5505622316501D-01
130  1.2900000000000D+00  5.5431006565955D-02 -2.2214276109029D-01
131  1.3000000000000D+00  4.8121312519208D-02 -1.9045371932896D-01
132  1.3100000000000D+00  4.0939115803946D-02 -1.6034599819861D-01
133  1.3200000000000D+00  3.4028395755216D-02 -1.3214709321878D-01
134  1.3300000000000D+00  2.7519745346152D-02 -1.0615209185700D-01
135  1.3400000000000D+00  2.1528856180796D-02 -8.2620963639149D-02
136  1.3500000000000D+00  1.6155175904652D-02 -6.1776172928592D-02
137  1.3600000000000D+00  1.1480754545886D-02 -4.3800645434238D-02
138  1.3700000000000D+00  7.5716723662492D-03 -2.8845333922644D-02
139  1.3800000000000D+00  4.4635395714745D-03 -1.6974911989358D-02
140  1.3900000000000D+00  2.1778106148573D-03 -8.2327630818828D-03
141  1.4000000000000D+00  7.9458566839997D-04 -2.9099102827284D-03
142  1.4100000000000D+00  1.9208656983468D-04 -5.8123196864803D-04
143  1.4200000000000D+00  1.4999850154185D-05  3.2287588350856D-05
144  1.4300000000000D+00  2.6911782662884D-07 -3.0135669240865D-06
145  1.4400000000000D+00  4.5141254716002D-06 -3.1598401668920D-05
146  1.4500000000000D+00 -1.2244222600903D-07  2.8285151831194D-06
147  1.4600000000000D+00 -2.6654611690802D-07  3.2862393666387D-06
148  1.4700000000000D+00 -3.1199353822887D-07  8.0899856246605D-07
149  1.4800000000000D+00 -9.4126524145076D-08  2.4406987130430D-07
150  1.4900000000000D+00  0.0000000000000D+00  0.0000000000000D+00
151  1.5000000000000D+00  0.0000000000000D+00  0.0000000000000D+00
152  1.5100000000000D+00  0.0000000000000D+00  0.0000000000000D+00
153  1.5200000000000D+00  0.0000000000000D+00  0.0000000000000D+00
154  1.5300000000000D+00  0.0000000000000D+00  0.0000000000000D+00
155  1.5400000000000D+00  0.0000000000000D+00  0.0000000000000D+00
156  1.5500000000000D+00  0.0000000000000D+00  0.0000000000000D+00
157  1.5600000000000D+00  0.0000000000000D+00  0.0000000000000D+00
158  1.5700000000000D+00  0.0000000000000D+00  0.0000000000000D+00
159  1.5800000000000D+00  0.0000000000000D+00  0.0000000000000D+00
160  1.5900000000000D+00  0.0000000000000D+00  0.0000000000000D+00
161  1.6000000000000D+00  0.0000000000000D+00  0.0000000000000D+00
162  1.6100000000000D+00  0.0000000000000D+00  0.0000000000000D+00
163  1.6200000000000D+00  0.0000000000000D+00  0.0000000000000D+00
164  1.6300000000000D+00  0.0000000000000D+00  0.0000000000000D+00
165  1.6400000000000D+00  0.0000000000000D+00  0.0000000000000D+00
166  1.6500000000000D+00  0.0000000000000D+00  0.0000000000000D+00
167  1.6600000000000D+00  0.0000000000000D+00  0.0000000000000D+00
168  1.6700000000000D+00  0.0000000000000D+00  0.0000000000000D+00
169  1.6800000000000D+00  0.0000000000000D+00  0.0000000000000D+00
170  1.6900000000000D+00  0.0000000000000D+00  0.0000000000000D+00
171  1.7000000000000D+00  0.0000000000000D+00  0.0000000000000D+00
172  1.7100000000000D+00  0.0000000000000D+00  0.0000000000000D+00
173  1.7200000000000D+00  0.0000000000000D+00  0.0000000000000D+00
174  1.7300000000000D+00  0.0000000000000D+00  0.0000000000000D+00
175  1.7400000000000D+00  0.0000000000000D+00  0.0000000000000D+00
176  1.7500000000000D+00  0.0000000000000D+00  0.0000000000000D+00
177  1.7600000000000D+00  0.0000000000000D+00  0.0000000000000D+00
178  1.7700000000000D+00  0.0000000000000D+00  0.0000000000000D+00
179  1.7800000000000D+00  0.0000000000000D+00  0.0000000000000D+00
180  1.7900000000000D+00  0.0000000000000D+00  0.0000000000000D+00
181  1.8000000000000D+00  0.0000000000000D+00  0.0000000000000D+00
182  1.8100000000000D+00  0.0000000000000D+00  0.0000000000000D+00
183  1.8200000000000D+00  0.0000000000000D+00  0.0000000000000D+00
184  1.8300000000000D+00  0.0000000000000D+00  0.0000000000000D+00
185  1.8400000000000D+00  0.0000000000000D+00  0.0000000000000D+00
186  1.8500000000000D+00  0.0000000000000D+00  0.0000000000000D+00
187  1.8600000000000D+00  0.0000000000000D+00  0.0000000000000D+00
188  1.8700000000000D+00  0.0000000000000D+00  0.0000000000000D+00
189  1.8800000000000D+00  0.0000000000000D+00  0.0000000000000D+00
190  1.8900000000000D+00  0.0000000000000D+00  0.0000000000000D+00
191  1.9000000000000D+00  0.0000000000000D+00  0.0000000000000D+00
192  1.9100000000000D+00  0.0000000000000D+00  0.0000000000000D+00
193  1.9200000000000D+00  0.0000000000000D+00  0.0000000000000D+00
194  1.9300000000000D+00  0.0000000000000D+00  0.0000000000000D+00
195  1.9400000000000D+00  0.0000000000000D+00  0.0000000000000D+00
196  1.9500000000000D+00  0.0000000000000D+00  0.0000000000000D+00
197  1.9600000000000D+00  0.0000000000000D+00  0.0000000000000D+00
198  1.9700000000000D+00  0.0000000000000D+00  0.0000000000000D+00
199  1.9800000000000D+00  0.0000000000000D+00  0.0000000000000D+00
200  1.9900000000000D+00  0.0000000000000D+00  0.0000000000000D+00
201  2.0000000000000D+00  0.0000000000000D+00  0.0000000000000D+00
202  2.0100000000000D+00  0.0000000000000D+00  0.0000000000000D+00
203  2.0200000000000D+00  0.0000000000000D+00  0.0000000000000D+00
204  2.0300000000000D+00  0.0000000000000D+00  0.0000000000000D+00
205  2.0400000000000D+00  0.0000000000000D+00  0.0000000000000D+00
206  2.0500000000000D+00  0.0000000000000D+00  0.0000000000000D+00
207  2.0600000000000D+00  0.0000000000000D+00  0.0000000000000D+00
208  2.0700000000000D+00  0.0000000000000D+00  0.0000000000000D+00
209  2.0800000000000D+00  0.0000000000000D+00  0.0000000000000D+00
210  2.0900000000000D+00  0.0000000000000D+00  0.0000000000000D+00
211  2.1000000000000D+00  0.0000000000000D+00  0.0000000000000D+00
212  2.1100000000000D+00  0.0000000000000D+00  0.0000000000000D+00
213  2.1200000000000D+00  0.0000000000000D+00  0.0000000000000D+00
214  2.1300000000000D+00  0.0000000000000D+00  0.0000000000000D+00
215  2.1400000000000D+00  0.0000000000000D+00  0.0000000000000D+00
216  2.1500000000000D+00  0.0000000000000D+00  0.0000000000000D+00
217  2.1600000000000D+00  0.0000000000000D+00  0.0000000000000D+00
218  2.1700000000000D+00  0.0000000000000D+00  0.0000000000000D+00
219  2.1800000000000D+00  0.0000000000000D+00  0.0000000000000D+00
220  2.1900000000000D+00  0.0000000000000D+00  0.0000000000000D+00
221  2.2000000000000D+00  0.0000000000000D+00  0.0000000000000D+00
222  2.2100000000000D+00  0.0000000000000D+00  0.0000000000000D+00
223  2.2200000000000D+00  0.0000000000000D+00  0.0000000000000D+00
224  2.2300000000000D+00  0.0000000000000D+00  0.0000000000000D+00
225  2.2400000000000D+00  0.0000000000000D+00  0.0000000000000D+00
226  2.2500000000000D+00  0.0000000000000D+00  0.0000000000000D+00
227  2.2600000000000D+00  0.0000000000000D+00  0.0000000000000D+00
228  2.2700000000000D+00  0.0000000000000D+00  0.0000000000000D+00
229  2.2800000000000D+00  0.0000000000000D+00  0.0000000000000D+00
230  2.2900000000000D+00  0.0000000000000D+00  0.0000000000000D+00
231  2.3000000000000D+00  0.0000000000000D+00  0.0000000000000D+00
232  2.3100000000000D+00  0.0000000000000D+00  0.0000000000000D+00
233  2.3200000000000D+00  0.0000000000000D+00  0.0000000000000D+00
234  2.3300000000000D+00  0.0000000000000D+00  0.0000000000000D+00
235  2.3400000000000D+00  0.0000000000000D+00  0.0000000000000D+00
236  2.3500000000000D+00  0.0000000000000D+00  0.0000000000000D+00
237  2.3600000000000D+00  0.0000000000000D+00  0.0000000000000D+00
238  2.3700000000000D+00  0.0000000000000D+00  0.0000000000000D+00
239  2.3800000000000D+00  0.0000000000000D+00  0.0000000000000D+00
240  2.3900000000000D+00  0.0000000000000D+00  0.0000000000000D+00
241  2.4000000000000D+00  0.0000000000000D+00  0.0000000000000D+00
242  2.4100000000000D+00  0.0000000000000D+00  0.0000000000000D+00
243  2.4200000000000D+00  0.0000000000000D+00  0.0000000000000D+00
244  2.4300000000000D+00  0.0000000000000D+00  0.0000000000000D+00
245  2.4400000000000D+00  0.0000000000000D+00  0.0000000000000D+00
246  2.4500000000000D+00  0.0000000000000D+00  0.0000000000000D+00
247  2.4600000000000D+00  0.0000000000000D+00  0.0000000000000D+00
248  2.4700000000000D+00  0.0000000000000D+00  0.0000000000000D+00
249  2.4800000000000D+00  0.0000000000000D+00  0.0000000000000D+00
250  2.4900000000000D+00  0.0000000000000D+00  0.0000000000000D+00
251  2.5000000000000D+00  0.0000000000000D+00  0.0000000000000D+00
252  2.5100000000000D+00  0.0000000000000D+00  0.0000000000000D+00
253  2.5200000000000D+00  0.0000000000000D+00  0.0000000000000D+00
254  2.5300000000000D+00  0.0000000000000D+00  0.0000000000000D+00
255  2.5400000000000D+00  0.0000000000000D+00  0.0000000000000D+00
256  2.5500000000000D+00  0.0000000000000D+00  0.0000000000000D+00
257  2.5600000000000D+00  0.0000000000000D+00  0.0000000000000D+00
258  2.5700000000000D+00  0.0000000000000D+00  0.0000000000000D+00
259  2.5800000000000D+00  0.0000000000000D+00  0.0000000000000D+00
260  2.5900000000000D+00  0.0000000000000D+00  0.0000000000000D+00
261  2.6000000000000D+00  0.0000000000000D+00  0.0000000000000D+00
262  2.6100000000000D+00  0.0000000000000D+00  0.0000000000000D+00
263  2.6200000000000D+00  0.0000000000000D+00  0.0000000000000D+00
264  2.6300000000000D+00  0.0000000000000D+00  0.0000000000000D+00
265  2.6400000000000D+00  0.0000000000000D+00  0.0000000000000D+00
266  2.6500000000000D+00  0.0000000000000D+00  0.0000000000000D+00
267  2.6600000000000D+00  0.0000000000000D+00  0.0000000000000D+00
268  2.6700000000000D+00  0.0000000000000D+00  0.0000000000000D+00
269  2.6800000000000D+00  0.0000000000000D+00  0.0000000000000D+00
270  2.6900000000000D+00  0.0000000000000D+00  0.0000000000000D+00
271  2.7000000000000D+00  0.0000000000000D+00  0.0000000000000D+00
272  2.7100000000000D+00  0.0000000000000D+00  0.0000000000000D+00
273  2.7200000000000D+00  0.0000000000000D+00  0.0000000000000D+00
274  2.7300000000000D+00  0.0000000000000D+00  0.0000000000000D+00
275  2.7400000000000D+00  0.0000000000000D+00  0.0000000000000D+00
276  2.7500000000000D+00  0.0000000000000D+00  0.0000000000000D+00
277  2.7600000000000D+00  0.0000000000000D+00  0.0000000000000D+00
278  2.7700000000000D+00  0.0000000000000D+00  0.0000000000000D+00
279  2.7800000000000D+00  0.0000000000000D+00  0.0000000000000D+00
280  2.7900000000000D+00  0.0000000000000D+00  0.0000000000000D+00
281  2.8000000000000D+00  0.0000000000000D+00  0.0000000000000D+00
282  2.8100000000000D+00  0.0000000000000D+00  0.0000000000000D+00
283  2.8200000000000D+00  0.0000000000000D+00  0.0000000000000D+00
284  2.8300000000000D+00  0.0000000000000D+00  0.0000000000000D+00
285  2.8400000000000D+00  0.0000000000000D+00  0.0000000000000D+00
286  2.8500000000000D+00  0.0000000000000D+00  0.0000000000000D+00
287  2.8600000000000D+00  0.0000000000000D+00  0.0000000000000D+00
288  2.8700000000000D+00  0.0000000000000D+00  0.0000000000000D+00
289  2.8800000000000D+00  0.0000000000000D+00  0.0000000000000D+00
290  2.8900000000000D+00  0.0000000000000D+00  0.0000000000000D+00
291  2.9000000000000D+00  0.0000000000000D+00  0.0000000000000D+00
292  2.9100000000000D+00  0.0000000000000D+00  0.0000000000000D+00
293  2.9200000000000D+00  0.0000000000000D+00  0.0000000000000D+00
294  2.9300000000000D+00  0.0000000000000D+00  0.0000000000000D+00
295  2.9400000000000D+00  0.0000000000000D+00  0.0000000000000D+00
296  2.9500000000000D+00  0.0000000000000D+00  0.0000000000000D+00
297  2.9600000000000D+00  0.0000000000000D+00  0.0000000000000D+00
298  2.9700000000000D+00  0.0000000000000D+00  0.0000000000000D+00
299  2.9800000000000D+00  0.0000000000000D+00  0.0000000000000D+00
300  2.9900000000000D+00  0.0000000000000D+00  0.0000000000000D+00
301  3.0000000000000D+00  0.0000000000000D+00  0.0000000000000D+00
302  3.0100000000000D+00  0.0000000000000D+00  0.0000000000000D+00
303  3.0200000000000D+00  0.0000000000000D+00  0.0000000000000D+00
304  3.0300000000000D+00  0.0000000000000D+00  0.0000000000000D+00
305  3.0400000000000D+00  0.0000000000000D+00  0.0000000000000D+00
306  3.0500000000000D+00  0.0000000000000D+00  0.0000000000000D+00
307  3.0600000000000D+00  0.0000000000000D+00  0.0000000000000D+00
308  3.0700000000000D+00  0.0000000000000D+00  0.0000000000000D+00
309  3.0800000000000D+00  0.0000000000000D+00  0.0000000000000D+00
310  3.0900000000000D+00  0.0000000000000D+00  0.0000000000000D+00
311  3.1000000000000D+00  0.0000000000000D+00  0.0000000000000D+00
312  3.1100000000000D+00  0.0000000000000D+00  0.0000000000000D+00
313  3.1200000000000D+00  0.0000000000000D+00  0.0000000000000D+00
314  3.1300000000000D+00  0.0000000000000D+00  0.0000000000000D+00
315  3.1400000000000D+00  0.0000000000000D+00  0.0000000000000D+00
316  3.1500000000000D+00  0.0000000000000D+00  0.0000000000000D+00
317  3.1600000000000D+00  0.0000000000000D+00  0.0000000000000D+00
318  3.1700000000000D+00  0.0000000000000D+00  0.0000000000000D+00
319  3.1800000000000D+00  0.0000000000000D+00  0.0000000000000D+00
320  3.1900000000000D+00  0.0000000000000D+00  0.0000000000000D+00
321  3.2000000000000D+00  0.0000000000000D+00  0.0000000000000D+00
322  3.2100000000000D+00  0.0000000000000D+00  0.0000000000000D+00
323  3.2200000000000D+00  0.0000000000000D+00  0.0000000000000D+00
324  3.2300000000000D+00  0.0000000000000D+00  0.0000000000000D+00
325  3.2400000000000D+00  0.0000000000000D+00  0.0000000000000D+00
326  3.2500000000000D+00  0.0000000000000D+00  0.0000000000000D+00
327  3.2600000000000D+00  0.0000000000000D+00  0.0000000000000D+00
328  3.2700000000000D+00  0.0000000000000D+00  0.0000000000000D+00
329  3.2800000000000D+00  0.0000000000000D+00  0.0000000000000D+00
330  3.2900000000000D+00  0.0000000000000D+00  0.0000000000000D+00
331  3.3000000000000D+00  0.0000000000000D+00  0.0000000000000D+00
332  3.3100000000000D+00  0.0000000000000D+00  0.0000000000000D+00
333  3.3200000000000D+00  0.0000000000000D+00  0.0000000000000D+00
334  3.3300000000000D+00  0.0000000000000D+00  0.0000000000000D+00
335  3.3400000000000D+00  0.0000000000000D+00  0.0000000000000D+00
336  3.3500000000000D+00  0.0000000000000D+00  0.0000000000000D+00
337  3.3600000000000D+00  0.0000000000000D+00  0.0000000000000D+00
338  3.3700000000000D+00  0.0000000000000D+00  0.0000000000000D+00
339  3.3800000000000D+00  0.0000000000000D+00  0.0000000000000D+00
340  3.3900000000000D+00  0.0000000000000D+00  0.0000000000000D+00
341  3.4000000000000D+00  0.0000000000000D+00  0.0000000000000D+00
342  3.4100000000000D+00  0.0000000000000D+00  0.0000000000000D+00
343  3.4200000000000D+00  0.0000000000000D+00  0.0000000000000D+00
344  3.4300000000000D+00  0.0000000000000D+00  0.0000000000000D+00
345  3.4400000000000D+00  0.0000000000000D+00  0.0000000000000D+00
346  3.4500000000000D+00  0.0000000000000D+00  0.0000000000000D+00
347  3.4600000000000D+00  0.0000000000000D+00  0.0000000000000D+00
348  3.4700000000000D+00  0.0000000000000D+00  0.0000000000000D+00
349  3.4800000000000D+00  0.0000000000000D+00  0.0000000000000D+00
350  3.4900000000000D+00  0.0000000000000D+00  0.0000000000000D+00
351  3.5000000000000D+00  0.0000000000000D+00  0.0000000000000D+00
352  3.5100000000000D+00  0.0000000000000D+00  0.0000000000000D+00
353  3.5200000000000D+00  0.0000000000000D+00  0.0000000000000D+00
354  3.5300000000000D+00  0.0000000000000D+00  0.0000000000000D+00
355  3.5400000000000D+00  0.0000000000000D+00  0.0000000000000D+00
356  3.5500000000000D+00  0.0000000000000D+00  0.0000000000000D+00
357  3.5600000000000D+00  0.0000000000000D+00  0.0000000000000D+00
358  3.5700000000000D+00  0.0000000000000D+00  0.0000000000000D+00
359  3.5800000000000D+00  0.0000000000000D+00  0.0000000000000D+00
360  3.5900000000000D+00  0.0000000000000D+00  0.0000000000000D+00
361  3.6000000000000D+00  0.0000000000000D+00  0.0000000000000D+00
362  3.6100000000000D+00  0.0000000000000D+00  0.0000000000000D+00
363  3.6200000000000D+00  0.0000000000000D+00  0.0000000000000D+00
364  3.6300000000000D+00  0.0000000000000D+00  0.0000000000000D+00
365  3.6400000000000D+00  0.0000000000000D+00  0.0000000000000D+00
366  3.6500000000000D+00  0.0000000000000D+00  0.0000000000000D+00
367  3.6600000000000D+00  0.0000000000000D+00  0.0000000000000D+00
368  3.6700000000000D+00  0.0000000000000D+00  0.0000000000000D+00
369  3.6800000000000D+00  0.0000000000000D+00  0.0000000000000D+00
370  3.6900000000000D+00  0.0000000000000D+00  0.0000000000000D+00
371  3.7000000000000D+00  0.0000000000000D+00  0.0000000000000D+00
372  3.7100000000000D+00  0.0000000000000D+00  0.0000000000000D+00
373  3.7200000000000D+00  0.0000000000000D+00  0.0000000000000D+00
374  3.7300000000000D+00  0.0000000000000D+00  0.0000000000000D+00
375  3.7400000000000D+00  0.0000000000000D+00  0.0000000000000D+00
376  3.7500000000000D+00  0.0000000000000D+00  0.0000000000000D+00
377  3.7600000000000D+00  0.0000000000000D+00  0.0000000000000D+00
378  3.7700000000000D+00  0.0000000000000D+00  0.0000000000000D+00
379  3.7800000000000D+00  0.0000000000000D+00  0.0000000000000D+00
380  3.7900000000000D+00  0.0000000000000D+00  0.0000000000000D+00
381  3.8000000000000D+00  0.0000000000000D+00  0.0000000000000D+00
382  3.8100000000000D+00  0.0000000000000D+00  0.0000000000000D+00
383  3.8200000000000D+00  0.0000000000000D+00  0.0000000000000D+00
384  3.8300000000000D+00  0.0000000000000D+00  0.0000000000000D+00
385  3.8400000000000D+00  0.0000000000000D+00  0.0000000000000D+00
386  3.8500000000000D+00  0.0000000000000D+00  0.0000000000000D+00
387  3.8600000000000D+00  0.0000000000000D+00  0.0000000000000D+00
388  3.8700000000000D+00  0.0000000000000D+00  0.0000000000000D+00
389  3.8800000000000D+00  0.0000000000000D+00  0.0000000000000D+00
390  3.8900000000000D+00  0.0000000000000D+00  0.0000000000000D+00
391  3.9000000000000D+00  0.0000000000000D+00  0.0000000000000D+00
392  3.9100000000000D+00  0.0000000000000D+00  0.0000000000000D+00
393  3.9200000000000D+00  0.0000000000000D+00  0.0000000000000D+00
394  3.9300000000000D+00  0.0000000000000D+00  0.0000000000000D+00
395  3.9400000000000D+00  0.0000000000000D+00  0.0000000000000D+00
396  3.9500000000000D+00  0.0000000000000D+00  0.0000000000000D+00
397  3.9600000000000D+00  0.0000000000000D+00  0.0000000000000D+00
398  3.9700000000000D+00  0.0000000000000D+00  0.0000000000000D+00
399  3.9800000000000D+00  0.0000000000000D+00  0.0000000000000D+00
400  3.9900000000000D+00  0.0000000000000D+00  0.0000000000000D+00
401  4.0000000000000D+00  0.0000000000000D+00  0.0000000000000D+00
402  4.0100000000000D+00  0.0000000000000D+00  0.0000000000000D+00
403  4.0200000000000D+00  0.0000000000000D+00  0.0000000000000D+00
404  4.0300000000000D+00  0.0000000000000D+00  0.0000000000000D+00
405  4.0400000000000D+00  0.0000000000000D+00  0.0000000000000D+00
406  4.0500000000000D+00  0.0000000000000D+00  0.0000000000000D+00
407  4.0600000000000D+00  0.0000000000000D+00  0.0000000000000D+00
408  4.0700000000000D+00  0.0000000000000D+00  0.0000000000000D+00
409  4.0800000000000D+00  0.0000000000000D+00  0.0000000000000D+00
410  4.0900000000000D+00  0.0000000000000D+00  0.0000000000000D+00
411  4.1000000000000D+00  0.0000000000000D+00  0.0000000000000D+00
412  4.1100000000000D+00  0.0000000000000D+00  0.0000000000000D+00
413  4.1200000000000D+00  0.0000000000000D+00  0.0000000000000D+00
414  4.1300000000000D+00  0.0000000000000D+00  0.0000000000000D+00
415  4.1400000000000D+00  0.0000000000000D+00  0.0000000000000D+00
416  4.1500000000000D+00  0.0000000000000D+00  0.0000000000000D+00
417  4.1600000000000D+00  0.0000000000000D+00  0.0000000000000D+00
418  4.1700000000000D+00  0.0000000000000D+00  0.0000000000000D+00
419  4.1800000000000D+00  0.0000000000000D+00  0.0000000000000D+00
420  4.1900000000000D+00  0.0000000000000D+00  0.0000000000000D+00
421  4.2000000000000D+00  0.0000000000000D+00  0.0000000000000D+00
422  4.2100000000000D+00  0.0000000000000D+00  0.0000000000000D+00
423  4.2200000000000D+00  0.0000000000000D+00  0.0000000000000D+00
424  4.2300000000000D+00  0.0000000000000D+00  0.0000000000000D+00
425  4.2400000000000D+00  0.0000000000000D+00  0.0000000000000D+00
426  4.2500000000000D+00  0.0000000000000D+00  0.0000000000000D+00
427  4.2600000000000D+00  0.0000000000000D+00  0.0000000000000D+00
428  4.2700000000000D+00  0.0000000000000D+00  0.0000000000000D+00
429  4.2800000000000D+00  0.0000000000000D+00  0.0000000000000D+00
430  4.2900000000000D+00  0.0000000000000D+00  0.0000000000000D+00
431  4.3000000000000D+00  0.0000000000000D+00  0.0000000000000D+00
432  4.3100000000000D+00  0.0000000000000D+00  0.0000000000000D+00
433  4.3200000000000D+00  0.0000000000000D+00  0.0000000000000D+00
434  4.3300000000000D+00  0.0000000000000D+00  0.0000000000000D+00
435  4.3400000000000D+00  0.0000000000000D+00  0.0000000000000D+00
436  4.3500000000000D+00  0.0000000000000D+00  0.0000000000000D+00
437  4.3600000000000D+00  0.0000000000000D+00  0.0000000000000D+00
438  4.3700000000000D+00  0.0000000000000D+00  0.0000000000000D+00
439  4.3800000000000D+00  0.0000000000000D+00  0.0000000000000D+00
440  4.3900000000000D+00  0.0000000000000D+00  0.0000000000000D+00
441  4.4000000000000D+00  0.0000000000000D+00  0.0000000000000D+00
442  4.4100000000000D+00  0.0000000000000D+00  0.0000000000000D+00
443  4.4200000000000D+00  0.0000000000000D+00  0.0000000000000D+00