I     ONCVPSP-3.3.0  r_core=   2.02042   2.17032   2.27639
53.0000      7.0000      180112    zatom,zion,pspd
8 -116133   2     4   600     0    pspcod,pspxc,lmax,lloc,mmax,r2well
5.99000000  4.00000000  0.00000000    rchrg fchrg qchrg
2     2     2     0     0    nproj
1     1           extension_switch
0                         6.0158607559096D+00  9.3522767397378D-01
1  0.0000000000000D+00  7.0508321403651D-12 -4.9777126864825D-11
2  1.0000000000000D-02  1.4472750475266D-02  2.5342697295962D-02
3  2.0000000000000D-02  2.8973044654140D-02  5.0545855512684D-02
4  3.0000000000000D-02  4.3528289103705D-02  7.5470598086663D-02
5  4.0000000000000D-02  5.8165616621009D-02  9.9979370555046D-02
6  5.0000000000000D-02  7.2911750603780D-02  1.2393659429147D-01
7  6.0000000000000D-02  8.7792870923069D-02  1.4720931149969D-01
8  7.0000000000000D-02  1.0283448179015D-01  1.6966781860940D-01
9  8.0000000000000D-02  1.1806128210301D-01  1.9118628526838D-01
10  9.0000000000000D-02  1.3349703874892D-01  2.1164335618711D-01
11  1.0000000000000D-01  1.4916446332917D-01  2.3092273316553D-01
12  1.1000000000000D-01  1.6508509275992D-01  2.4891373471679D-01
13  1.2000000000000D-01  1.8127917418940D-01  2.6551183079935D-01
14  1.3000000000000D-01  1.9776555465633D-01  2.8061915027572D-01
15  1.4000000000000D-01  2.1456157589779D-01  2.9414495883349D-01
16  1.5000000000000D-01  2.3168297469647D-01  3.0600610523183D-01
17  1.6000000000000D-01  2.4914378913751D-01  3.1612743387270D-01
18  1.7000000000000D-01  2.6695627112432D-01  3.2444216184185D-01
19  1.8000000000000D-01  2.8513080548061D-01  3.3089221871762D-01
20  1.9000000000000D-01  3.0367583594239D-01  3.3542854760664D-01
21  2.0000000000000D-01  3.2259779831947D-01  3.3801136603336D-01
22  2.1000000000000D-01  3.4190106108027D-01  3.3861038548400D-01
23  2.2000000000000D-01  3.6158787358792D-01  3.3720498858478D-01
24  2.3000000000000D-01  3.8165832218784D-01  3.3378436307823D-01
25  2.4000000000000D-01  4.0211029431986D-01  3.2834759194918D-01
26  2.5000000000000D-01  4.2293945079878D-01  3.2090369924258D-01
27  2.6000000000000D-01  4.4413920637889D-01  3.1147165130872D-01
28  2.7000000000000D-01  4.6570071868816D-01  3.0008031340574D-01
29  2.8000000000000D-01  4.8761288558822D-01  2.8676836178444D-01
30  2.9000000000000D-01  5.0986235098649D-01  2.7158415157559D-01
31  3.0000000000000D-01  5.3243351909654D-01  2.5458554099351D-01
32  3.1000000000000D-01  5.5530857711303D-01  2.3583967256181D-01
33  3.2000000000000D-01  5.7846752623748D-01  2.1542271225671D-01
34  3.3000000000000D-01  6.0188822096156D-01  1.9341954764859D-01
35  3.4000000000000D-01  6.2554641648538D-01  1.6992344630434D-01
36  3.5000000000000D-01  6.4941582411903D-01  1.4503567588916D-01
37  3.6000000000000D-01  6.7346817448766D-01  1.1886508757661D-01
38  3.7000000000000D-01  6.9767328833245D-01  9.1527664539793D-02
39  3.8000000000000D-01  7.2199915467277D-01  6.3146037452567D-02
40  3.9000000000000D-01  7.4641201606893D-01  3.3848969077973D-02
41  4.0000000000000D-01  7.7087646069965D-01  3.7708101604696D-03
42  4.1000000000000D-01  7.9535552094387D-01 -2.6949071031277D-02
43  4.2000000000000D-01  8.1981077813405D-01 -5.8166883044461D-02
44  4.3000000000000D-01  8.4420247312563D-01 -8.9735026888815D-02
45  4.4000000000000D-01  8.6848962230714D-01 -1.2150273031521D-01
46  4.5000000000000D-01  8.9263013865588D-01 -1.5331669796482D-01
47  4.6000000000000D-01  9.1658095742653D-01 -1.8502177455213D-01
48  4.7000000000000D-01  9.4029816604344D-01 -2.1646161818302D-01
49  4.8000000000000D-01  9.6373713775266D-01 -2.4747938085847D-01
50  4.9000000000000D-01  9.8685266857652D-01 -2.7791839317803D-01
51  5.0000000000000D-01  1.0095991171019D+00 -3.0762285023274D-01
52  5.1000000000000D-01  1.0319305466239D+00 -3.3643849566689D-01
53  5.2000000000000D-01  1.0538008691568D+00 -3.6421330089004D-01
54  5.3000000000000D-01  1.0751639908212D+00 -3.9079813643778D-01
55  5.4000000000000D-01  1.0959739581069D+00 -4.1604743250812D-01
56  5.5000000000000D-01  1.1161851045123D+00 -4.3981982574382D-01
57  5.6000000000000D-01  1.1357521970582D+00 -4.6197878938665D-01
58  5.7000000000000D-01  1.1546305821733D+00 -4.8239324399842D-01
59  5.8000000000000D-01  1.1727763304556D+00 -5.0093814602511D-01
60  5.9000000000000D-01  1.1901463798118D+00 -5.1749505157462D-01
61  6.0000000000000D-01  1.2066986764893D+00 -5.3195265288425D-01
62  6.1000000000000D-01  1.2223923135180D+00 -5.4420728507193D-01
63  6.2000000000000D-01  1.2371876660928D+00 -5.5416340089335D-01
64  6.3000000000000D-01  1.2510465234354D+00 -5.6173401136672D-01
65  6.4000000000000D-01  1.2639322166889D+00 -5.6684109027603D-01
66  6.5000000000000D-01  1.2758097424129D+00 -5.6941594072148D-01
67  6.6000000000000D-01  1.2866458812618D+00 -5.6939952205371D-01
68  6.7000000000000D-01  1.2964093114472D+00 -5.6674273570306D-01
69  6.8000000000000D-01  1.3050707166040D+00 -5.6140666859700D-01
70  6.9000000000000D-01  1.3126028876991D+00 -5.5336279304771D-01
71  7.0000000000000D-01  1.3189808186446D+00 -5.4259312218589D-01
72  7.1000000000000D-01  1.3241817952971D+00 -5.2909032021513D-01
73  7.2000000000000D-01  1.3281854775525D+00 -5.1285776696384D-01
74  7.3000000000000D-01  1.3309739742652D+00 -4.9390957641672D-01
75  7.4000000000000D-01  1.3325319107501D+00 -4.7227056911531D-01
76  7.5000000000000D-01  1.3328464886507D+00 -4.4797619852468D-01
77  7.6000000000000D-01  1.3319075379818D+00 -4.2107243167164D-01
78  7.7000000000000D-01  1.3297075611868D+00 -3.9161558456689D-01
79  7.8000000000000D-01  1.3262417690722D+00 -3.5967211312871D-01
80  7.9000000000000D-01  1.3215081085163D+00 -3.2531836052747D-01
81  8.0000000000000D-01  1.3155072818717D+00 -2.8864026206962D-01
82  8.1000000000000D-01  1.3082427580156D+00 -2.4973300893237D-01
83  8.2000000000000D-01  1.2997207750253D+00 -2.0870067224856D-01
84  8.3000000000000D-01  1.2899503344905D+00 -1.6565578922257D-01
85  8.4000000000000D-01  1.2789431874978D+00 -1.2071891313146D-01
86  8.5000000000000D-01  1.2667138123540D+00 -7.4018129231211D-02
87  8.6000000000000D-01  1.2532793841421D+00 -2.5688538744079D-02
88  8.7000000000000D-01  1.2386597362305D+00  2.4128286750602D-02
89  8.8000000000000D-01  1.2228773138841D+00  7.5284878064045D-02
90  8.9000000000000D-01  1.2059571201501D+00  1.2762846570170D-01
91  9.0000000000000D-01  1.1879266542205D+00  1.8100159902796D-01
92  9.1000000000000D-01  1.1688158424913D+00  2.3524278449736D-01
93  9.2000000000000D-01  1.1486569625705D+00  2.9018714007003D-01
94  9.3000000000000D-01  1.1274845605003D+00  3.4566706285675D-01
95  9.4000000000000D-01  1.1053353614882D+00  4.0151290697838D-01
96  9.5000000000000D-01  1.0822481744567D+00  4.5755366857987D-01
97  9.6000000000000D-01  1.0582637907414D+00  5.1361767490787D-01
98  9.7000000000000D-01  1.0334248772870D+00  5.6953327434420D-01
99  9.8000000000000D-01  1.0077758647028D+00  6.2512952428683D-01
100  9.9000000000000D-01  9.8136283055824D-01  6.8023687378256D-01
101  1.0000000000000D+00  9.5423337830879D-01  7.3468783784410D-01
102  1.0100000000000D+00  9.2643651225619D-01  7.8831766042627D-01
103  1.0200000000000D+00  8.9802250895644D-01  8.4096496309581D-01
104  1.0300000000000D+00  8.6904278549734D-01  8.9247237649608D-01
105  1.0400000000000D+00  8.3954976507470D-01  9.4268715179783D-01
106  1.0500000000000D+00  8.0959674030141D-01  9.9146174942444D-01
107  1.0600000000000D+00  7.7923773468721D-01  1.0386544024515D+00
108  1.0700000000000D+00  7.4852736272926D-01  1.0841296522079D+00
109  1.0800000000000D+00  7.1752068905386D-01  1.1277588537410D+00
110  1.0900000000000D+00  6.8627308704890D-01  1.1694206489492D+00
111  1.1000000000000D+00  6.5484009742354D-01  1.2090014053600D+00
112  1.1100000000000D+00  6.2327728712790D-01  1.2463956186815D+00
113  1.1200000000000D+00  5.9164010905880D-01  1.2815062774597D+00
114  1.1300000000000D+00  5.5998376297224D-01  1.3142451883144D+00
115  1.1400000000000D+00  5.2836305801295D-01  1.3445332604687D+00
116  1.1500000000000D+00  4.9683227726250D-01  1.3723007484540D+00
117  1.1600000000000D+00  4.6544504469436D-01  1.3974874521107D+00
118  1.1700000000000D+00  4.3425419491610D-01  1.4200428731460D+00
119  1.1800000000000D+00  4.0331164606028D-01  1.4399263278048D+00
120  1.1900000000000D+00  3.7266827617335D-01  1.4571070153769D+00
121  1.2000000000000D+00  3.4237380343510D-01  1.4715640424961D+00
122  1.2100000000000D+00  3.1247667052827D-01  1.4832864033577D+00
123  1.2200000000000D+00  2.8302393345438D-01  1.4922729162711D+00
124  1.2300000000000D+00  2.5406115507373D-01  1.4985321171561D+00
125  1.2400000000000D+00  2.2563230363937D-01  1.5020821106993D+00
126  1.2500000000000D+00  1.9777965656036D-01  1.5029503802458D+00
127  1.2600000000000D+00  1.7054370961403D-01  1.5011735576387D+00
128  1.2700000000000D+00  1.4396309181682D-01  1.4967971543252D+00
129  1.2800000000000D+00  1.1807448612919D-01  1.4898752553646D+00
130  1.2900000000000D+00  9.2912556147821D-02  1.4804701781270D+00
131  1.3000000000000D+00  6.8509878935741D-02  1.4686520975143D+00
132  1.3100000000000D+00  4.4896884099673D-02  1.4544986398525D+00
133  1.3200000000000D+00  2.2101799201924D-02  1.4380944477143D+00
134  1.3300000000000D+00  1.5060160071415D-04  1.4195307179248D+00
135  1.3400000000000D+00 -2.0933023244732D-02  1.3989047153429D+00
136  1.3500000000000D+00 -4.1127716972863D-02  1.3763192649898D+00
137  1.3600000000000D+00 -6.0414476990441D-02  1.3518822251492D+00
138  1.3700000000000D+00 -7.8776678649197D-02  1.3257059443142D+00
139  1.3800000000000D+00 -9.6200090939095D-02  1.2979067047378D+00
140  1.3900000000000D+00 -1.1267288574171D-01  1.2686041555153D+00
141  1.4000000000000D+00 -1.2818564073048D-01  1.2379207381232D+00
142  1.4100000000000D+00 -1.4273133596554D-01  1.2059811073460D+00
143  1.4200000000000D+00 -1.5630534431207D-01  1.1729115505729D+00
144  1.4300000000000D+00 -1.6890541578301D-01  1.1388394083562D+00
145  1.4400000000000D+00 -1.8053165592671D-01  1.1038924992466D+00
146  1.4500000000000D+00 -1.9118649843153D-01  1.0681985516172D+00
147  1.4600000000000D+00 -2.0087467206479D-01  1.0318846455140D+00
148  1.4700000000000D+00 -2.0960316215316D-01  9.9507666707108D-01
149  1.4800000000000D+00 -2.1738116675933D-01  9.5789877827505D-01
150  1.4900000000000D+00 -2.2422004775474D-01  9.2047290467956D-01
151  1.5000000000000D+00 -2.3013327699555D-01  8.8291824327374D-01
152  1.5100000000000D+00 -2.3513637779076D-01  8.4535079330692D-01
153  1.5200000000000D+00 -2.3924686190608D-01  8.0788291156220D-01
154  1.5300000000000D+00 -2.4248416229567D-01  7.7062289494176D-01
155  1.5400000000000D+00 -2.4486956181665D-01  7.3367459141524D-01
156  1.5500000000000D+00 -2.4642611813756D-01  6.9713704171622D-01
157  1.5600000000000D+00 -2.4717858509042D-01  6.6110415286787D-01
158  1.5700000000000D+00 -2.4715333069528D-01  6.2566440503821D-01
159  1.5800000000000D+00 -2.4637825210332D-01  5.9090059302194D-01
160  1.5900000000000D+00 -2.4488268769299D-01  5.5688960280872D-01
161  1.6000000000000D+00 -2.4269732656739D-01  5.2370222481058D-01
162  1.6100000000000D+00 -2.3985411568036D-01  4.9140300310252D-01
163  1.6200000000000D+00 -2.3638616484759D-01  4.6005012252199D-01
164  1.6300000000000D+00 -2.3232764985195D-01  4.2969533188784D-01
165  1.6400000000000D+00 -2.2771371391168D-01  4.0038390539967D-01
166  1.6500000000000D+00 -2.2258036769434D-01  3.7215463947155D-01
167  1.6600000000000D+00 -2.1696438815817D-01  3.4503988712882D-01
168  1.6700000000000D+00 -2.1090321637606D-01  3.1906562648843D-01
169  1.6800000000000D+00 -2.0443485463033D-01  2.9425156517573D-01
170  1.6900000000000D+00 -1.9759776290935D-01  2.7061127680692D-01
171  1.7000000000000D+00 -1.9043075509642D-01  2.4815237096114D-01
172  1.7100000000000D+00 -1.8297289495625D-01  2.2687669244472D-01
173  1.7200000000000D+00 -1.7526339221278D-01  2.0678055089427D-01
174  1.7300000000000D+00 -1.6734149879411D-01  1.8785497620883D-01
175  1.7400000000000D+00 -1.5924640554364D-01  1.7008600050778D-01
176  1.7500000000000D+00 -1.5101713944283D-01  1.5345496191529D-01
177  1.7600000000000D+00 -1.4269246164548D-01  1.3793883038087D-01
178  1.7700000000000D+00 -1.3431076634961D-01  1.2351055099283D-01
179  1.7800000000000D+00 -1.2590998079045D-01  1.1013940419397D-01
180  1.7900000000000D+00 -1.1752746638143D-01  9.7791378902924D-02
181  1.8000000000000D+00 -1.0919992125275D-01  8.6429556986932D-02
182  1.8100000000000D+00 -1.0096328423122D-01  7.6014505779254D-02
183  1.8200000000000D+00 -9.2852640464188D-02  6.6504676220552D-02
184  1.8300000000000D+00 -8.4902128761257D-02  5.7856803911499D-02
185  1.8400000000000D+00 -7.7144850800624D-02  5.0026310148278D-02
186  1.8500000000000D+00 -6.9612782312357D-02  4.2967700431895D-02
187  1.8600000000000D+00 -6.2336686326655D-02  3.6634957703593D-02
188  1.8700000000000D+00 -5.5346028639428D-02  3.0981927264358D-02
189  1.8800000000000D+00 -4.8668895530514D-02  2.5962691820728D-02
190  1.8900000000000D+00 -4.2331913916203D-02  2.1531932178323D-02
191  1.9000000000000D+00 -3.6360173943236D-02  1.7645273988559D-02
192  1.9100000000000D+00 -3.0777154201037D-02  1.4259614627133D-02
193  1.9200000000000D+00 -2.5604649576209D-02  1.1333431683556D-02
194  1.9300000000000D+00 -2.0862701881336D-02  8.8270677322589D-03
195  1.9400000000000D+00 -1.6569533326347D-02  6.7029914390737D-03
196  1.9500000000000D+00 -1.2741708822671D-02  4.9260792557592D-03
197  1.9600000000000D+00 -9.3959059534346D-03  3.4641967727668D-03
198  1.9700000000000D+00 -6.5376213753110D-03  2.2860732890301D-03
199  1.9800000000000D+00 -4.1681939529574D-03  1.3636508719118D-03
200  1.9900000000000D+00 -2.3221966968572D-03  6.7691948081845D-04
201  2.0000000000000D+00 -1.0304479916315D-03  2.0711022592156D-04
202  2.0100000000000D+00 -2.6768849265301D-04 -6.6589265926186D-05
203  2.0200000000000D+00  7.4539809728409D-05 -1.6935735376495D-04
204  2.0300000000000D+00  1.2629170701012D-04 -1.3084580803053D-04
205  2.0400000000000D+00  4.5071397389596D-05 -3.9359038237165D-05
206  2.0500000000000D+00 -2.3898814656441D-05  1.9836930919541D-05
207  2.0600000000000D+00 -2.7560134608527D-05  2.1791265111313D-05
208  2.0700000000000D+00  7.6773540115059D-07 -7.0593410875668D-07
209  2.0800000000000D+00  6.1746771034720D-06 -5.5304729820606D-06
210  2.0900000000000D+00  2.8232133888174D-06 -2.4790263020901D-06
211  2.1000000000000D+00 -1.7077332889968D-07  3.5669745396119D-07
212  2.1100000000000D+00 -2.0371811078833D-07  4.2550983758517D-07
213  2.1200000000000D+00  0.0000000000000D+00  0.0000000000000D+00
214  2.1300000000000D+00  0.0000000000000D+00  0.0000000000000D+00
215  2.1400000000000D+00  0.0000000000000D+00  0.0000000000000D+00
216  2.1500000000000D+00  0.0000000000000D+00  0.0000000000000D+00
217  2.1600000000000D+00  0.0000000000000D+00  0.0000000000000D+00
218  2.1700000000000D+00  0.0000000000000D+00  0.0000000000000D+00
219  2.1800000000000D+00  0.0000000000000D+00  0.0000000000000D+00
220  2.1900000000000D+00  0.0000000000000D+00  0.0000000000000D+00
221  2.2000000000000D+00  0.0000000000000D+00  0.0000000000000D+00
222  2.2100000000000D+00  0.0000000000000D+00  0.0000000000000D+00
223  2.2200000000000D+00  0.0000000000000D+00  0.0000000000000D+00
224  2.2300000000000D+00  0.0000000000000D+00  0.0000000000000D+00
225  2.2400000000000D+00  0.0000000000000D+00  0.0000000000000D+00
226  2.2500000000000D+00  0.0000000000000D+00  0.0000000000000D+00
227  2.2600000000000D+00  0.0000000000000D+00  0.0000000000000D+00
228  2.2700000000000D+00  0.0000000000000D+00  0.0000000000000D+00
229  2.2800000000000D+00  0.0000000000000D+00  0.0000000000000D+00
230  2.2900000000000D+00  0.0000000000000D+00  0.0000000000000D+00
231  2.3000000000000D+00  0.0000000000000D+00  0.0000000000000D+00
232  2.3100000000000D+00  0.0000000000000D+00  0.0000000000000D+00
233  2.3200000000000D+00  0.0000000000000D+00  0.0000000000000D+00
234  2.3300000000000D+00  0.0000000000000D+00  0.0000000000000D+00
235  2.3400000000000D+00  0.0000000000000D+00  0.0000000000000D+00
236  2.3500000000000D+00  0.0000000000000D+00  0.0000000000000D+00
237  2.3600000000000D+00  0.0000000000000D+00  0.0000000000000D+00
238  2.3700000000000D+00  0.0000000000000D+00  0.0000000000000D+00
239  2.3800000000000D+00  0.0000000000000D+00  0.0000000000000D+00
240  2.3900000000000D+00  0.0000000000000D+00  0.0000000000000D+00
241  2.4000000000000D+00  0.0000000000000D+00  0.0000000000000D+00
242  2.4100000000000D+00  0.0000000000000D+00  0.0000000000000D+00
243  2.4200000000000D+00  0.0000000000000D+00  0.0000000000000D+00
244  2.4300000000000D+00  0.0000000000000D+00  0.0000000000000D+00
245  2.4400000000000D+00  0.0000000000000D+00  0.0000000000000D+00
246  2.4500000000000D+00  0.0000000000000D+00  0.0000000000000D+00
247  2.4600000000000D+00  0.0000000000000D+00  0.0000000000000D+00
248  2.4700000000000D+00  0.0000000000000D+00  0.0000000000000D+00
249  2.4800000000000D+00  0.0000000000000D+00  0.0000000000000D+00
250  2.4900000000000D+00  0.0000000000000D+00  0.0000000000000D+00
251  2.5000000000000D+00  0.0000000000000D+00  0.0000000000000D+00
252  2.5100000000000D+00  0.0000000000000D+00  0.0000000000000D+00
253  2.5200000000000D+00  0.0000000000000D+00  0.0000000000000D+00
254  2.5300000000000D+00  0.0000000000000D+00  0.0000000000000D+00
255  2.5400000000000D+00  0.0000000000000D+00  0.0000000000000D+00
256  2.5500000000000D+00  0.0000000000000D+00  0.0000000000000D+00
257  2.5600000000000D+00  0.0000000000000D+00  0.0000000000000D+00
258  2.5700000000000D+00  0.0000000000000D+00  0.0000000000000D+00
259  2.5800000000000D+00  0.0000000000000D+00  0.0000000000000D+00
260  2.5900000000000D+00  0.0000000000000D+00  0.0000000000000D+00
261  2.6000000000000D+00  0.0000000000000D+00  0.0000000000000D+00
262  2.6100000000000D+00  0.0000000000000D+00  0.0000000000000D+00
263  2.6200000000000D+00  0.0000000000000D+00  0.0000000000000D+00
264  2.6300000000000D+00  0.0000000000000D+00  0.0000000000000D+00
265  2.6400000000000D+00  0.0000000000000D+00  0.0000000000000D+00
266  2.6500000000000D+00  0.0000000000000D+00  0.0000000000000D+00
267  2.6600000000000D+00  0.0000000000000D+00  0.0000000000000D+00
268  2.6700000000000D+00  0.0000000000000D+00  0.0000000000000D+00
269  2.6800000000000D+00  0.0000000000000D+00  0.0000000000000D+00
270  2.6900000000000D+00  0.0000000000000D+00  0.0000000000000D+00
271  2.7000000000000D+00  0.0000000000000D+00  0.0000000000000D+00
272  2.7100000000000D+00  0.0000000000000D+00  0.0000000000000D+00
273  2.7200000000000D+00  0.0000000000000D+00  0.0000000000000D+00
274  2.7300000000000D+00  0.0000000000000D+00  0.0000000000000D+00
275  2.7400000000000D+00  0.0000000000000D+00  0.0000000000000D+00
276  2.7500000000000D+00  0.0000000000000D+00  0.0000000000000D+00
277  2.7600000000000D+00  0.0000000000000D+00  0.0000000000000D+00
278  2.7700000000000D+00  0.0000000000000D+00  0.0000000000000D+00
279  2.7800000000000D+00  0.0000000000000D+00  0.0000000000000D+00
280  2.7900000000000D+00  0.0000000000000D+00  0.0000000000000D+00
281  2.8000000000000D+00  0.0000000000000D+00  0.0000000000000D+00
282  2.8100000000000D+00  0.0000000000000D+00  0.0000000000000D+00
283  2.8200000000000D+00  0.0000000000000D+00  0.0000000000000D+00
284  2.8300000000000D+00  0.0000000000000D+00  0.0000000000000D+00
285  2.8400000000000D+00  0.0000000000000D+00  0.0000000000000D+00
286  2.8500000000000D+00  0.0000000000000D+00  0.0000000000000D+00
287  2.8600000000000D+00  0.0000000000000D+00  0.0000000000000D+00
288  2.8700000000000D+00  0.0000000000000D+00  0.0000000000000D+00
289  2.8800000000000D+00  0.0000000000000D+00  0.0000000000000D+00
290  2.8900000000000D+00  0.0000000000000D+00  0.0000000000000D+00
291  2.9000000000000D+00  0.0000000000000D+00  0.0000000000000D+00
292  2.9100000000000D+00  0.0000000000000D+00  0.0000000000000D+00
293  2.9200000000000D+00  0.0000000000000D+00  0.0000000000000D+00
294  2.9300000000000D+00  0.0000000000000D+00  0.0000000000000D+00
295  2.9400000000000D+00  0.0000000000000D+00  0.0000000000000D+00
296  2.9500000000000D+00  0.0000000000000D+00  0.0000000000000D+00
297  2.9600000000000D+00  0.0000000000000D+00  0.0000000000000D+00
298  2.9700000000000D+00  0.0000000000000D+00  0.0000000000000D+00
299  2.9800000000000D+00  0.0000000000000D+00  0.0000000000000D+00
300  2.9900000000000D+00  0.0000000000000D+00  0.0000000000000D+00
301  3.0000000000000D+00  0.0000000000000D+00  0.0000000000000D+00
302  3.0100000000000D+00  0.0000000000000D+00  0.0000000000000D+00
303  3.0200000000000D+00  0.0000000000000D+00  0.0000000000000D+00
304  3.0300000000000D+00  0.0000000000000D+00  0.0000000000000D+00
305  3.0400000000000D+00  0.0000000000000D+00  0.0000000000000D+00
306  3.0500000000000D+00  0.0000000000000D+00  0.0000000000000D+00
307  3.0600000000000D+00  0.0000000000000D+00  0.0000000000000D+00
308  3.0700000000000D+00  0.0000000000000D+00  0.0000000000000D+00
309  3.0800000000000D+00  0.0000000000000D+00  0.0000000000000D+00
310  3.0900000000000D+00  0.0000000000000D+00  0.0000000000000D+00
311  3.1000000000000D+00  0.0000000000000D+00  0.0000000000000D+00
312  3.1100000000000D+00  0.0000000000000D+00  0.0000000000000D+00
313  3.1200000000000D+00  0.0000000000000D+00  0.0000000000000D+00
314  3.1300000000000D+00  0.0000000000000D+00  0.0000000000000D+00
315  3.1400000000000D+00  0.0000000000000D+00  0.0000000000000D+00
316  3.1500000000000D+00  0.0000000000000D+00  0.0000000000000D+00
317  3.1600000000000D+00  0.0000000000000D+00  0.0000000000000D+00
318  3.1700000000000D+00  0.0000000000000D+00  0.0000000000000D+00
319  3.1800000000000D+00  0.0000000000000D+00  0.0000000000000D+00
320  3.1900000000000D+00  0.0000000000000D+00  0.0000000000000D+00
321  3.2000000000000D+00  0.0000000000000D+00  0.0000000000000D+00
322  3.2100000000000D+00  0.0000000000000D+00  0.0000000000000D+00
323  3.2200000000000D+00  0.0000000000000D+00  0.0000000000000D+00
324  3.2300000000000D+00  0.0000000000000D+00  0.0000000000000D+00
325  3.2400000000000D+00  0.0000000000000D+00  0.0000000000000D+00
326  3.2500000000000D+00  0.0000000000000D+00  0.0000000000000D+00
327  3.2600000000000D+00  0.0000000000000D+00  0.0000000000000D+00
328  3.2700000000000D+00  0.0000000000000D+00  0.0000000000000D+00
329  3.2800000000000D+00  0.0000000000000D+00  0.0000000000000D+00
330  3.2900000000000D+00  0.0000000000000D+00  0.0000000000000D+00
331  3.3000000000000D+00  0.0000000000000D+00  0.0000000000000D+00
332  3.3100000000000D+00  0.0000000000000D+00  0.0000000000000D+00
333  3.3200000000000D+00  0.0000000000000D+00  0.0000000000000D+00
334  3.3300000000000D+00  0.0000000000000D+00  0.0000000000000D+00
335  3.3400000000000D+00  0.0000000000000D+00  0.0000000000000D+00
336  3.3500000000000D+00  0.0000000000000D+00  0.0000000000000D+00
337  3.3600000000000D+00  0.0000000000000D+00  0.0000000000000D+00
338  3.3700000000000D+00  0.0000000000000D+00  0.0000000000000D+00
339  3.3800000000000D+00  0.0000000000000D+00  0.0000000000000D+00
340  3.3900000000000D+00  0.0000000000000D+00  0.0000000000000D+00
341  3.4000000000000D+00  0.0000000000000D+00  0.0000000000000D+00
342  3.4100000000000D+00  0.0000000000000D+00  0.0000000000000D+00
343  3.4200000000000D+00  0.0000000000000D+00  0.0000000000000D+00
344  3.4300000000000D+00  0.0000000000000D+00  0.0000000000000D+00
345  3.4400000000000D+00  0.0000000000000D+00  0.0000000000000D+00
346  3.4500000000000D+00  0.0000000000000D+00  0.0000000000000D+00
347  3.4600000000000D+00  0.0000000000000D+00  0.0000000000000D+00
348  3.4700000000000D+00  0.0000000000000D+00  0.0000000000000D+00
349  3.4800000000000D+00  0.0000000000000D+00  0.0000000000000D+00
350  3.4900000000000D+00  0.0000000000000D+00  0.0000000000000D+00
351  3.5000000000000D+00  0.0000000000000D+00  0.0000000000000D+00
352  3.5100000000000D+00  0.0000000000000D+00  0.0000000000000D+00
353  3.5200000000000D+00  0.0000000000000D+00  0.0000000000000D+00
354  3.5300000000000D+00  0.0000000000000D+00  0.0000000000000D+00
355  3.5400000000000D+00  0.0000000000000D+00  0.0000000000000D+00
356  3.5500000000000D+00  0.0000000000000D+00  0.0000000000000D+00
357  3.5600000000000D+00  0.0000000000000D+00  0.0000000000000D+00
358  3.5700000000000D+00  0.0000000000000D+00  0.0000000000000D+00
359  3.5800000000000D+00  0.0000000000000D+00  0.0000000000000D+00
360  3.5900000000000D+00  0.0000000000000D+00  0.0000000000000D+00
361  3.6000000000000D+00  0.0000000000000D+00  0.0000000000000D+00
362  3.6100000000000D+00  0.0000000000000D+00  0.0000000000000D+00
363  3.6200000000000D+00  0.0000000000000D+00  0.0000000000000D+00
364  3.6300000000000D+00  0.0000000000000D+00  0.0000000000000D+00
365  3.6400000000000D+00  0.0000000000000D+00  0.0000000000000D+00
366  3.6500000000000D+00  0.0000000000000D+00  0.0000000000000D+00
367  3.6600000000000D+00  0.0000000000000D+00  0.0000000000000D+00
368  3.6700000000000D+00  0.0000000000000D+00  0.0000000000000D+00
369  3.6800000000000D+00  0.0000000000000D+00  0.0000000000000D+00
370  3.6900000000000D+00  0.0000000000000D+00  0.0000000000000D+00
371  3.7000000000000D+00  0.0000000000000D+00  0.0000000000000D+00
372  3.7100000000000D+00  0.0000000000000D+00  0.0000000000000D+00
373  3.7200000000000D+00  0.0000000000000D+00  0.0000000000000D+00
374  3.7300000000000D+00  0.0000000000000D+00  0.0000000000000D+00
375  3.7400000000000D+00  0.0000000000000D+00  0.0000000000000D+00
376  3.7500000000000D+00  0.0000000000000D+00  0.0000000000000D+00
377  3.7600000000000D+00  0.0000000000000D+00  0.0000000000000D+00
378  3.7700000000000D+00  0.0000000000000D+00  0.0000000000000D+00
379  3.7800000000000D+00  0.0000000000000D+00  0.0000000000000D+00
380  3.7900000000000D+00  0.0000000000000D+00  0.0000000000000D+00
381  3.8000000000000D+00  0.0000000000000D+00  0.0000000000000D+00
382  3.8100000000000D+00  0.0000000000000D+00  0.0000000000000D+00
383  3.8200000000000D+00  0.0000000000000D+00  0.0000000000000D+00
384  3.8300000000000D+00  0.0000000000000D+00  0.0000000000000D+00
385  3.8400000000000D+00  0.0000000000000D+00  0.0000000000000D+00
386  3.8500000000000D+00  0.0000000000000D+00  0.0000000000000D+00
387  3.8600000000000D+00  0.0000000000000D+00  0.0000000000000D+00
388  3.8700000000000D+00  0.0000000000000D+00  0.0000000000000D+00
389  3.8800000000000D+00  0.0000000000000D+00  0.0000000000000D+00
390  3.8900000000000D+00  0.0000000000000D+00  0.0000000000000D+00
391  3.9000000000000D+00  0.0000000000000D+00  0.0000000000000D+00
392  3.9100000000000D+00  0.0000000000000D+00  0.0000000000000D+00
393  3.9200000000000D+00  0.0000000000000D+00  0.0000000000000D+00
394  3.9300000000000D+00  0.0000000000000D+00  0.0000000000000D+00
395  3.9400000000000D+00  0.0000000000000D+00  0.0000000000000D+00
396  3.9500000000000D+00  0.0000000000000D+00  0.0000000000000D+00
397  3.9600000000000D+00  0.0000000000000D+00  0.0000000000000D+00
398  3.9700000000000D+00  0.0000000000000D+00  0.0000000000000D+00
399  3.9800000000000D+00  0.0000000000000D+00  0.0000000000000D+00
400  3.9900000000000D+00  0.0000000000000D+00  0.0000000000000D+00
401  4.0000000000000D+00  0.0000000000000D+00  0.0000000000000D+00
402  4.0100000000000D+00  0.0000000000000D+00  0.0000000000000D+00
403  4.0200000000000D+00  0.0000000000000D+00  0.0000000000000D+00
404  4.0300000000000D+00  0.0000000000000D+00  0.0000000000000D+00
405  4.0400000000000D+00  0.0000000000000D+00  0.0000000000000D+00
406  4.0500000000000D+00  0.0000000000000D+00  0.0000000000000D+00
407  4.0600000000000D+00  0.0000000000000D+00  0.0000000000000D+00
408  4.0700000000000D+00  0.0000000000000D+00  0.0000000000000D+00
409  4.0800000000000D+00  0.0000000000000D+00  0.0000000000000D+00
410  4.0900000000000D+00  0.0000000000000D+00  0.0000000000000D+00
411  4.1000000000000D+00  0.0000000000000D+00  0.0000000000000D+00
412  4.1100000000000D+00  0.0000000000000D+00  0.0000000000000D+00
413  4.1200000000000D+00  0.0000000000000D+00  0.0000000000000D+00
414  4.1300000000000D+00  0.0000000000000D+00  0.0000000000000D+00
415  4.1400000000000D+00  0.0000000000000D+00  0.0000000000000D+00
416  4.1500000000000D+00  0.0000000000000D+00  0.0000000000000D+00
417  4.1600000000000D+00  0.0000000000000D+00  0.0000000000000D+00
418  4.1700000000000D+00  0.0000000000000D+00  0.0000000000000D+00
419  4.1800000000000D+00  0.0000000000000D+00  0.0000000000000D+00
420  4.1900000000000D+00  0.0000000000000D+00  0.0000000000000D+00
421  4.2000000000000D+00  0.0000000000000D+00  0.0000000000000D+00
422  4.2100000000000D+00  0.0000000000000D+00  0.0000000000000D+00
423  4.2200000000000D+00  0.0000000000000D+00  0.0000000000000D+00
424  4.2300000000000D+00  0.0000000000000D+00  0.0000000000000D+00
425  4.2400000000000D+00  0.0000000000000D+00  0.0000000000000D+00
426  4.2500000000000D+00  0.0000000000000D+00  0.0000000000000D+00
427  4.2600000000000D+00  0.0000000000000D+00  0.0000000000000D+00
428  4.2700000000000D+00  0.0000000000000D+00  0.0000000000000D+00
429  4.2800000000000D+00  0.0000000000000D+00  0.0000000000000D+00
430  4.2900000000000D+00  0.0000000000000D+00  0.0000000000000D+00
431  4.3000000000000D+00  0.0000000000000D+00  0.0000000000000D+00
432  4.3100000000000D+00  0.0000000000000D+00  0.0000000000000D+00
433  4.3200000000000D+00  0.0000000000000D+00  0.0000000000000D+00
434  4.3300000000000D+00  0.0000000000000D+00  0.0000000000000D+00
435  4.3400000000000D+00  0.0000000000000D+00  0.0000000000000D+00
436  4.3500000000000D+00  0.0000000000000D+00  0.0000000000000D+00
437  4.3600000000000D+00  0.0000000000000D+00  0.0000000000000D+00
438  4.3700000000000D+00  0.0000000000000D+00  0.0000000000000D+00
439  4.3800000000000D+00  0.0000000000000D+00  0.0000000000000D+00
440  4.3900000000000D+00  0.0000000000000D+00  0.0000000000000D+00
441  4.4000000000000D+00  0.0000000000000D+00  0.0000000000000D+00
442  4.4100000000000D+00  0.0000000000000D+00  0.0000000000000D+00
443  4.4200000000000D+00  0.0000000000000D+00  0.0000000000000D+00