Rb    ONCVPSP-3.2.3  r_core=   1.71227   1.75361   1.90633
37.0000      9.0000      170213    zatom,zion,pspd
8      11   2     4   600     0    pspcod,pspxc,lmax,lloc,mmax,r2well
5.99000000  7.00000000  0.00000000    rchrg fchrg qchrg
2     4     4     0    nproj
3     1           extension_switch
4     4     0    nprojso
0                        -4.9805837956503D-01  7.4402090524004D+00
1  0.0000000000000D+00  2.8057297041251D-09  8.4064727401412D-10
2  1.0000000000000D-02 -1.9400534518067D-02  5.2966857495833D-02
3  2.0000000000000D-02 -3.8570001231224D-02  1.0591619934873D-01
4  3.0000000000000D-02 -5.7280637974911D-02  1.5882963073439D-01
5  4.0000000000000D-02 -7.5311244336382D-02  2.1168701333192D-01
6  5.0000000000000D-02 -9.2450339435786D-02  2.6446563052269D-01
7  6.0000000000000D-02 -1.0849917401974D-01  3.1713939631913D-01
8  7.0000000000000D-02 -1.2327455165069D-01  3.6967812159756D-01
9  8.0000000000000D-02 -1.3661141658112D-01  4.2204685036882D-01
10  9.0000000000000D-02 -1.4836516933212D-01  4.7420527779240D-01
11  1.0000000000000D-01 -1.5841367500178D-01  5.2610726043881D-01
12  1.1000000000000D-01 -1.6665893385226D-01  5.7770042794875D-01
13  1.2000000000000D-01 -1.7302838869980D-01  6.2892590374498D-01
14  1.3000000000000D-01 -1.7747584898824D-01  6.7971814084554D-01
15  1.4000000000000D-01 -1.7998201708495D-01  7.3000487712783D-01
16  1.5000000000000D-01 -1.8055460821827D-01  7.7970721262631D-01
17  1.6000000000000D-01 -1.7922806149076D-01  8.2873980963830D-01
18  1.7000000000000D-01 -1.7606284546679D-01  8.7701121458686D-01
19  1.8000000000000D-01 -1.7114436785729D-01  9.2442429877575D-01
20  1.9000000000000D-01 -1.6458150472158D-01  9.7087681339223D-01
21  2.0000000000000D-01 -1.5650477029011D-01  1.0162620523973D+00
22  2.1000000000000D-01 -1.4706415389909D-01  1.0604696153126D+00
23  2.2000000000000D-01 -1.3642665554024D-01  1.1033862603939D+00
24  2.3000000000000D-01 -1.2477355609144D-01  1.1448968372926D+00
25  2.4000000000000D-01 -1.1229746234071D-01  1.1848852870736D+00
26  2.5000000000000D-01 -9.9199170385341D-02  1.2232356963914D+00
27  2.6000000000000D-01 -8.5684393828886D-02  1.2598333917505D+00
28  2.7000000000000D-01 -7.1960405368362D-02  1.2945660590958D+00
29  2.8000000000000D-01 -5.8232641827590D-02  1.3273248735101D+00
30  2.9000000000000D-01 -4.4701323428910D-02  1.3580056235440D+00
31  3.0000000000000D-01 -3.1558138088991D-02  1.3865098146728D+00
32  3.1000000000000D-01 -1.8983040775438D-02  1.4127457365620D+00
33  3.2000000000000D-01 -7.1412164759666D-03  1.4366294792392D+00
34  3.3000000000000D-01  3.8197468691434D-03  1.4580858838899D+00
35  3.4000000000000D-01  1.3772432008051D-02  1.4770494148294D+00
36  3.5000000000000D-01  2.2611872663290D-02  1.4934649402262D+00
37  3.6000000000000D-01  3.0257504667062D-02  1.5072884103615D+00
38  3.7000000000000D-01  3.6654756823569D-02  1.5184874235768D+00
39  3.8000000000000D-01  4.1776255523506D-02  1.5270416715780D+00
40  3.9000000000000D-01  4.5622622685611D-02  1.5329432574028D+00
41  4.0000000000000D-01  4.8222852471443D-02  1.5361968810951D+00
42  4.1000000000000D-01  4.9634258330461D-02  1.5368198899434D+00
43  4.2000000000000D-01  4.9941988193161D-02  1.5348421920058D+00
44  4.3000000000000D-01  4.9258111951956D-02  1.5303060335269D+00
45  4.4000000000000D-01  4.7720291659668D-02  1.5232656427377D+00
46  4.5000000000000D-01  4.5490051043379D-02  1.5137867443765D+00
47  4.6000000000000D-01  4.2750666886045D-02  1.5019459510669D+00
48  4.7000000000000D-01  3.9704710483121D-02  1.4878300393945D+00
49  4.8000000000000D-01  3.6571272651619D-02  1.4715351201275D+00
50  4.9000000000000D-01  3.3582910577820D-02  1.4531657134946D+00
51  5.0000000000000D-01  3.0982359063863D-02  1.4328337417499D+00
52  5.1000000000000D-01  2.9019052408613D-02  1.4106574523980D+00
53  5.2000000000000D-01  2.7945506178016D-02  1.3867602864040D+00
54  5.3000000000000D-01  2.8013610438153D-02  1.3612697064648D+00
55  5.4000000000000D-01  2.9470887602690D-02  1.3343160009509D+00
56  5.5000000000000D-01  3.2556768858508D-02  1.3060310794370D+00
57  5.6000000000000D-01  3.7498943165079D-02  1.2765472758242D+00
58  5.7000000000000D-01  4.4509832067281D-02  1.2459961749036D+00
59  5.8000000000000D-01  5.3783242030070D-02  1.2145074778359D+00
60  5.9000000000000D-01  6.5491243706846D-02  1.1822079214178D+00
61  6.0000000000000D-01  7.9781324532436D-02  1.1492202651884D+00
62  6.1000000000000D-01  9.6773857316397D-02  1.1156623594048D+00
63  6.2000000000000D-01  1.1655992315306D-01  1.0816463057037D+00
64  6.3000000000000D-01  1.3919952204704D-01  1.0472777208800D+00
65  6.4000000000000D-01  1.6472019918615D-01  1.0126551126726D+00
66  6.5000000000000D-01  1.9311610893957D-01  9.7786937477619D-01
67  6.6000000000000D-01  2.2434753242385D-01  9.4300340652616D-01
68  6.7000000000000D-01  2.5834085798544D-01  9.0813186083494D-01
69  6.8000000000000D-01  2.9498902730391D-01  8.7332102205422D-01
70  6.9000000000000D-01  3.3415244310286D-01  8.3862881349772D-01
71  7.0000000000000D-01  3.7566032773681D-01  8.0410493241846D-01
72  7.1000000000000D-01  4.1931251537259D-01  7.6979110833563D-01
73  7.2000000000000D-01  4.6488165411859D-01  7.3572147875676D-01
74  7.3000000000000D-01  5.1211578845111D-01  7.0192307459149D-01
75  7.4000000000000D-01  5.6074128662711D-01  6.6841640589890D-01
76  7.5000000000000D-01  6.1046607266813D-01  6.3521613711390D-01
77  7.6000000000000D-01  6.6098311792742D-01  6.0233183955178D-01
78  7.7000000000000D-01  7.1197414333127D-01  5.6976880782982D-01
79  7.8000000000000D-01  7.6311348016433D-01  5.3752892588463D-01
80  7.9000000000000D-01  8.1407203479807D-01  5.0561156751923D-01
81  8.0000000000000D-01  8.6452130108639D-01  4.7401451589804D-01
82  8.1000000000000D-01  9.1413736329063D-01  4.4273488612621D-01
83  8.2000000000000D-01  9.6260483238175D-01  4.1177003501316D-01
84  8.3000000000000D-01  1.0096206593882D+00  3.8111844232480D-01
85  8.4000000000000D-01  1.0548977711157D+00  3.5078054827635D-01
86  8.5000000000000D-01  1.0981684760358D+00  3.2075953270064D-01
87  8.6000000000000D-01  1.1391875913938D+00  2.9106202223733D-01
88  8.7000000000000D-01  1.1777352465752D+00  2.6169871301338D-01
89  8.8000000000000D-01  1.2136193224424D+00  2.3268489760824D-01
90  8.9000000000000D-01  1.2466774916394D+00  2.0404088660069D-01
91  9.0000000000000D-01  1.2767788306899D+00  1.7579231665531D-01
92  9.1000000000000D-01  1.3038249809991D+00  1.4797033890113D-01
93  9.2000000000000D-01  1.3277508425063D+00  1.2061168325523D-01
94  9.3000000000000D-01  1.3485247907014D+00  9.3758596338027D-02
95  9.4000000000000D-01  1.3661484146901D+00  6.7458652627027D-02
96  9.5000000000000D-01  1.3806557812661D+00  4.1764440582464D-02
97  9.6000000000000D-01  1.3921122369602D+00  1.6733127491579D-02
98  9.7000000000000D-01  1.4006127670090D+00 -7.5740912198423D-03
99  9.8000000000000D-01  1.4062799368724D+00 -3.1092650539813D-02
100  9.9000000000000D-01  1.4092614482586D+00 -5.3755372800481D-02
101  1.0000000000000D+00  1.4097273474856D+00 -7.5493311817384D-02
102  1.0100000000000D+00  1.4078669293829D+00 -9.6236671528219D-02
103  1.0200000000000D+00  1.4038853845358D+00 -1.1591578510799D-01
104  1.0300000000000D+00  1.3980002417718D+00 -1.3446213936990D-01
105  1.0400000000000D+00  1.3904376610184D+00 -1.5180942834683D-01
106  1.0500000000000D+00  1.3814286340269D+00 -1.6789461928664D-01
107  1.0600000000000D+00  1.3712051520657D+00 -1.8265901385314D-01
108  1.0700000000000D+00  1.3599964002416D+00 -1.9604928719553D-01
109  1.0800000000000D+00  1.3480250380819D+00 -2.0801848758334D-01
110  1.0900000000000D+00  1.3355036246899D+00 -2.1852697972767D-01
111  1.1000000000000D+00  1.3226312448621D+00 -2.2754331550273D-01
112  1.1100000000000D+00  1.3095903895044D+00 -2.3504501671225D-01
113  1.1200000000000D+00  1.2965441400523D+00 -2.4101925564366D-01
114  1.1300000000000D+00  1.2836337024168D+00 -2.4546342041537D-01
115  1.1400000000000D+00  1.2709763301144D+00 -2.4838555388352D-01
116  1.1500000000000D+00  1.2586636706412D+00 -2.4980465655596D-01
117  1.1600000000000D+00  1.2467605627838D+00 -2.4975084587089D-01
118  1.1700000000000D+00  1.2353043062469D+00 -2.4826536609056D-01
119  1.1800000000000D+00  1.2243044164252D+00 -2.4540044562521D-01
120  1.1900000000000D+00  1.2137428698032D+00 -2.4121900080644D-01
121  1.2000000000000D+00  1.2035748397719D+00 -2.3579418683862D-01
122  1.2100000000000D+00  1.1937299124265D+00 -2.2920879972803D-01
123  1.2200000000000D+00  1.1841137648157D+00 -2.2155453512532D-01
124  1.2300000000000D+00  1.1746102814416D+00 -2.1293111202959D-01
125  1.2400000000000D+00  1.1650840781814D+00 -2.0344527129722D-01
126  1.2500000000000D+00  1.1553833931859D+00 -1.9320966181058D-01
127  1.2600000000000D+00  1.1453433003082D+00 -1.8234162838459D-01
128  1.2700000000000D+00  1.1347891962140D+00 -1.7096191681551D-01
129  1.2800000000000D+00  1.1235405029246D+00 -1.5919331435506D-01
130  1.2900000000000D+00  1.1114145271451D+00 -1.4715924403803D-01
131  1.3000000000000D+00  1.0982304138685D+00 -1.3498233245654D-01
132  1.3100000000000D+00  1.0838131264836D+00 -1.2278297224747D-01
133  1.3200000000000D+00  1.0679973878998D+00 -1.1067789988430D-01
134  1.3300000000000D+00  1.0506315131210D+00 -9.8778810611370D-02
135  1.3400000000000D+00  1.0315810665477D+00 -8.7191031619713D-02
136  1.3500000000000D+00  1.0107322781734D+00 -7.6012274270382D-02
137  1.3600000000000D+00  9.8799515197008D-01 -6.5331486505639D-02
138  1.3700000000000D+00  9.6330621176374D-01 -5.5227823066258D-02
139  1.3800000000000D+00  9.3663082175726D-01 -4.5769753526523D-02
140  1.3900000000000D+00  9.0796503468394D-01 -3.7014323544351D-02
141  1.4000000000000D+00  8.7733692684886D-01 -2.9006582798529D-02
142  1.4100000000000D+00  8.4480737041259D-01 -2.1779195805395D-02
143  1.4200000000000D+00  8.1047023070672D-01 -1.5352240587868D-02
144  1.4300000000000D+00  7.7445195160149D-01 -9.7332075857498D-03
145  1.4400000000000D+00  7.3691052475557D-01 -4.9172013864995D-03
146  1.4500000000000D+00  6.9803384731336D-01 -8.8734509021010D-04
147  1.4600000000000D+00  6.5803745454287D-01  2.3846072458490D-03
148  1.4700000000000D+00  6.1716168043988D-01  4.9374650640352D-03
149  1.4800000000000D+00  5.7566823827061D-01  6.8195988743178D-03
150  1.4900000000000D+00  5.3383629530110D-01  8.0877624483081D-03
151  1.5000000000000D+00  4.9195807641174D-01  8.8057490794391D-03
152  1.5100000000000D+00  4.5033406039261D-01  9.0429001380691D-03
153  1.5200000000000D+00  4.0926786711764D-01  8.8724953242654D-03
154  1.5300000000000D+00  3.6906088136495D-01  8.3700370260444D-03
155  1.5400000000000D+00  3.3000677302314D-01  7.6114779473877D-03
156  1.5500000000000D+00  2.9238595361945D-01  6.6714023183501D-03
157  1.5600000000000D+00  2.5646016358937D-01  5.6212213063544D-03
158  1.5700000000000D+00  2.2246726109141D-01  4.5274028094874D-03
159  1.5800000000000D+00  1.9061640560846D-01  3.4497961155422D-03
160  1.5900000000000D+00  1.6108375849715D-01  2.4400886034385D-03
161  1.6000000000000D+00  1.3400888394322D-01  1.5404517925909D-03
162  1.6100000000000D+00  1.0949202423253D-01  7.8243176022424D-04
163  1.6200000000000D+00  8.7592422948405D-02  1.8613767342470D-04
164  1.6300000000000D+00  6.8327919604249D-02 -2.4019856767271D-04
165  1.6400000000000D+00  5.1675980622537D-02 -5.0024140351326D-04
166  1.6500000000000D+00  3.7576437717362D-02 -6.0905821424910D-04
167  1.6600000000000D+00  2.5943563674304D-02 -5.9235486843720D-04
168  1.6700000000000D+00  1.6638361956622D-02 -4.8342457679160D-04
169  1.6800000000000D+00  9.4939516807212D-03 -3.2114802391857D-04
170  1.6900000000000D+00  4.4828384611131D-03 -1.5359982405435D-04
171  1.7000000000000D+00  1.5381840341007D-03 -2.3843703066583D-05
172  1.7100000000000D+00  2.0667167324444D-04  4.3362093059290D-05
173  1.7200000000000D+00 -1.3474065546264D-04  4.2730023934935D-05
174  1.7300000000000D+00 -4.3275646789124D-05  9.2364341778298D-06
175  1.7400000000000D+00  4.5875688936027D-05 -8.1084704888414D-06
176  1.7500000000000D+00  2.2547720290796D-05 -3.7084765243812D-06
177  1.7600000000000D+00 -7.6013159047156D-06  1.4662083590284D-06
178  1.7700000000000D+00 -5.4011691155516D-06  9.8862533980452D-07
179  1.7800000000000D+00 -1.4365807440665D-07 -1.0716844536576D-07
180  1.7900000000000D+00 -1.3761948446738D-07 -1.0266367736949D-07
181  1.8000000000000D+00  0.0000000000000D+00  0.0000000000000D+00
182  1.8100000000000D+00  0.0000000000000D+00  0.0000000000000D+00
183  1.8200000000000D+00  0.0000000000000D+00  0.0000000000000D+00
184  1.8300000000000D+00  0.0000000000000D+00  0.0000000000000D+00
185  1.8400000000000D+00  0.0000000000000D+00  0.0000000000000D+00
186  1.8500000000000D+00  0.0000000000000D+00  0.0000000000000D+00
187  1.8600000000000D+00  0.0000000000000D+00  0.0000000000000D+00
188  1.8700000000000D+00  0.0000000000000D+00  0.0000000000000D+00
189  1.8800000000000D+00  0.0000000000000D+00  0.0000000000000D+00
190  1.8900000000000D+00  0.0000000000000D+00  0.0000000000000D+00
191  1.9000000000000D+00  0.0000000000000D+00  0.0000000000000D+00
192  1.9100000000000D+00  0.0000000000000D+00  0.0000000000000D+00
193  1.9200000000000D+00  0.0000000000000D+00  0.0000000000000D+00
194  1.9300000000000D+00  0.0000000000000D+00  0.0000000000000D+00
195  1.9400000000000D+00  0.0000000000000D+00  0.0000000000000D+00
196  1.9500000000000D+00  0.0000000000000D+00  0.0000000000000D+00
197  1.9600000000000D+00  0.0000000000000D+00  0.0000000000000D+00
198  1.9700000000000D+00  0.0000000000000D+00  0.0000000000000D+00
199  1.9800000000000D+00  0.0000000000000D+00  0.0000000000000D+00
200  1.9900000000000D+00  0.0000000000000D+00  0.0000000000000D+00
201  2.0000000000000D+00  0.0000000000000D+00  0.0000000000000D+00
202  2.0100000000000D+00  0.0000000000000D+00  0.0000000000000D+00
203  2.0200000000000D+00  0.0000000000000D+00  0.0000000000000D+00
204  2.0300000000000D+00  0.0000000000000D+00  0.0000000000000D+00
205  2.0400000000000D+00  0.0000000000000D+00  0.0000000000000D+00
206  2.0500000000000D+00  0.0000000000000D+00  0.0000000000000D+00
207  2.0600000000000D+00  0.0000000000000D+00  0.0000000000000D+00
208  2.0700000000000D+00  0.0000000000000D+00  0.0000000000000D+00
209  2.0800000000000D+00  0.0000000000000D+00  0.0000000000000D+00
210  2.0900000000000D+00  0.0000000000000D+00  0.0000000000000D+00
211  2.1000000000000D+00  0.0000000000000D+00  0.0000000000000D+00
212  2.1100000000000D+00  0.0000000000000D+00  0.0000000000000D+00
213  2.1200000000000D+00  0.0000000000000D+00  0.0000000000000D+00
214  2.1300000000000D+00  0.0000000000000D+00  0.0000000000000D+00
215  2.1400000000000D+00  0.0000000000000D+00  0.0000000000000D+00
216  2.1500000000000D+00  0.0000000000000D+00  0.0000000000000D+00
217  2.1600000000000D+00  0.0000000000000D+00  0.0000000000000D+00
218  2.1700000000000D+00  0.0000000000000D+00  0.0000000000000D+00
219  2.1800000000000D+00  0.0000000000000D+00  0.0000000000000D+00
220  2.1900000000000D+00  0.0000000000000D+00  0.0000000000000D+00
221  2.2000000000000D+00  0.0000000000000D+00  0.0000000000000D+00
222  2.2100000000000D+00  0.0000000000000D+00  0.0000000000000D+00
223  2.2200000000000D+00  0.0000000000000D+00  0.0000000000000D+00
224  2.2300000000000D+00  0.0000000000000D+00  0.0000000000000D+00
225  2.2400000000000D+00  0.0000000000000D+00  0.0000000000000D+00
226  2.2500000000000D+00  0.0000000000000D+00  0.0000000000000D+00
227  2.2600000000000D+00  0.0000000000000D+00  0.0000000000000D+00
228  2.2700000000000D+00  0.0000000000000D+00  0.0000000000000D+00
229  2.2800000000000D+00  0.0000000000000D+00  0.0000000000000D+00
230  2.2900000000000D+00  0.0000000000000D+00  0.0000000000000D+00
231  2.3000000000000D+00  0.0000000000000D+00  0.0000000000000D+00
232  2.3100000000000D+00  0.0000000000000D+00  0.0000000000000D+00
233  2.3200000000000D+00  0.0000000000000D+00  0.0000000000000D+00
234  2.3300000000000D+00  0.0000000000000D+00  0.0000000000000D+00
235  2.3400000000000D+00  0.0000000000000D+00  0.0000000000000D+00
236  2.3500000000000D+00  0.0000000000000D+00  0.0000000000000D+00
237  2.3600000000000D+00  0.0000000000000D+00  0.0000000000000D+00
238  2.3700000000000D+00  0.0000000000000D+00  0.0000000000000D+00
239  2.3800000000000D+00  0.0000000000000D+00  0.0000000000000D+00
240  2.3900000000000D+00  0.0000000000000D+00  0.0000000000000D+00
241  2.4000000000000D+00  0.0000000000000D+00  0.0000000000000D+00
242  2.4100000000000D+00  0.0000000000000D+00  0.0000000000000D+00
243  2.4200000000000D+00  0.0000000000000D+00  0.0000000000000D+00
244  2.4300000000000D+00  0.0000000000000D+00  0.0000000000000D+00
245  2.4400000000000D+00  0.0000000000000D+00  0.0000000000000D+00
246  2.4500000000000D+00  0.0000000000000D+00  0.0000000000000D+00
247  2.4600000000000D+00  0.0000000000000D+00  0.0000000000000D+00
248  2.4700000000000D+00  0.0000000000000D+00  0.0000000000000D+00
249  2.4800000000000D+00  0.0000000000000D+00  0.0000000000000D+00
250  2.4900000000000D+00  0.0000000000000D+00  0.0000000000000D+00
251  2.5000000000000D+00  0.0000000000000D+00  0.0000000000000D+00
252  2.5100000000000D+00  0.0000000000000D+00  0.0000000000000D+00
253  2.5200000000000D+00  0.0000000000000D+00  0.0000000000000D+00
254  2.5300000000000D+00  0.0000000000000D+00  0.0000000000000D+00
255  2.5400000000000D+00  0.0000000000000D+00  0.0000000000000D+00
256  2.5500000000000D+00  0.0000000000000D+00  0.0000000000000D+00
257  2.5600000000000D+00  0.0000000000000D+00  0.0000000000000D+00
258  2.5700000000000D+00  0.0000000000000D+00  0.0000000000000D+00
259  2.5800000000000D+00  0.0000000000000D+00  0.0000000000000D+00
260  2.5900000000000D+00  0.0000000000000D+00  0.0000000000000D+00
261  2.6000000000000D+00  0.0000000000000D+00  0.0000000000000D+00
262  2.6100000000000D+00  0.0000000000000D+00  0.0000000000000D+00
263  2.6200000000000D+00  0.0000000000000D+00  0.0000000000000D+00
264  2.6300000000000D+00  0.0000000000000D+00  0.0000000000000D+00
265  2.6400000000000D+00  0.0000000000000D+00  0.0000000000000D+00
266  2.6500000000000D+00  0.0000000000000D+00  0.0000000000000D+00
267  2.6600000000000D+00  0.0000000000000D+00  0.0000000000000D+00
268  2.6700000000000D+00  0.0000000000000D+00  0.0000000000000D+00
269  2.6800000000000D+00  0.0000000000000D+00  0.0000000000000D+00
270  2.6900000000000D+00  0.0000000000000D+00  0.0000000000000D+00
271  2.7000000000000D+00  0.0000000000000D+00  0.0000000000000D+00
272  2.7100000000000D+00  0.0000000000000D+00  0.0000000000000D+00
273  2.7200000000000D+00  0.0000000000000D+00  0.0000000000000D+00
274  2.7300000000000D+00  0.0000000000000D+00  0.0000000000000D+00
275  2.7400000000000D+00  0.0000000000000D+00  0.0000000000000D+00
276  2.7500000000000D+00  0.0000000000000D+00  0.0000000000000D+00
277  2.7600000000000D+00  0.0000000000000D+00  0.0000000000000D+00
278  2.7700000000000D+00  0.0000000000000D+00  0.0000000000000D+00
279  2.7800000000000D+00  0.0000000000000D+00  0.0000000000000D+00
280  2.7900000000000D+00  0.0000000000000D+00  0.0000000000000D+00
281  2.8000000000000D+00  0.0000000000000D+00  0.0000000000000D+00
282  2.8100000000000D+00  0.0000000000000D+00  0.0000000000000D+00
283  2.8200000000000D+00  0.0000000000000D+00  0.0000000000000D+00
284  2.8300000000000D+00  0.0000000000000D+00  0.0000000000000D+00
285  2.8400000000000D+00  0.0000000000000D+00  0.0000000000000D+00
286  2.8500000000000D+00  0.0000000000000D+00  0.0000000000000D+00
287  2.8600000000000D+00  0.0000000000000D+00  0.0000000000000D+00
288  2.8700000000000D+00  0.0000000000000D+00  0.0000000000000D+00
289  2.8800000000000D+00  0.0000000000000D+00  0.0000000000000D+00
290  2.8900000000000D+00  0.0000000000000D+00  0.0000000000000D+00
291  2.9000000000000D+00  0.0000000000000D+00  0.0000000000000D+00
292  2.9100000000000D+00  0.0000000000000D+00  0.0000000000000D+00
293  2.9200000000000D+00  0.0000000000000D+00  0.0000000000000D+00
294  2.9300000000000D+00  0.0000000000000D+00  0.0000000000000D+00
295  2.9400000000000D+00  0.0000000000000D+00  0.0000000000000D+00
296  2.9500000000000D+00  0.0000000000000D+00  0.0000000000000D+00
297  2.9600000000000D+00  0.0000000000000D+00  0.0000000000000D+00
298  2.9700000000000D+00  0.0000000000000D+00  0.0000000000000D+00
299  2.9800000000000D+00  0.0000000000000D+00  0.0000000000000D+00
300  2.9900000000000D+00  0.0000000000000D+00  0.0000000000000D+00
301  3.0000000000000D+00  0.0000000000000D+00  0.0000000000000D+00
302  3.0100000000000D+00  0.0000000000000D+00  0.0000000000000D+00
303  3.0200000000000D+00  0.0000000000000D+00  0.0000000000000D+00
304  3.0300000000000D+00  0.0000000000000D+00  0.0000000000000D+00
305  3.0400000000000D+00  0.0000000000000D+00  0.0000000000000D+00
306  3.0500000000000D+00  0.0000000000000D+00  0.0000000000000D+00
307  3.0600000000000D+00  0.0000000000000D+00  0.0000000000000D+00
308  3.0700000000000D+00  0.0000000000000D+00  0.0000000000000D+00
309  3.0800000000000D+00  0.0000000000000D+00  0.0000000000000D+00
310  3.0900000000000D+00  0.0000000000000D+00  0.0000000000000D+00
311  3.1000000000000D+00  0.0000000000000D+00  0.0000000000000D+00
312  3.1100000000000D+00  0.0000000000000D+00  0.0000000000000D+00
313  3.1200000000000D+00  0.0000000000000D+00  0.0000000000000D+00
314  3.1300000000000D+00  0.0000000000000D+00  0.0000000000000D+00
315  3.1400000000000D+00  0.0000000000000D+00  0.0000000000000D+00
316  3.1500000000000D+00  0.0000000000000D+00  0.0000000000000D+00
317  3.1600000000000D+00  0.0000000000000D+00  0.0000000000000D+00
318  3.1700000000000D+00  0.0000000000000D+00  0.0000000000000D+00
319  3.1800000000000D+00  0.0000000000000D+00  0.0000000000000D+00
320  3.1900000000000D+00  0.0000000000000D+00  0.0000000000000D+00
321  3.2000000000000D+00  0.0000000000000D+00  0.0000000000000D+00
322  3.2100000000000D+00  0.0000000000000D+00  0.0000000000000D+00
323  3.2200000000000D+00  0.0000000000000D+00  0.0000000000000D+00
324  3.2300000000000D+00  0.0000000000000D+00  0.0000000000000D+00
325  3.2400000000000D+00  0.0000000000000D+00  0.0000000000000D+00
326  3.2500000000000D+00  0.0000000000000D+00  0.0000000000000D+00
327  3.2600000000000D+00  0.0000000000000D+00  0.0000000000000D+00
328  3.2700000000000D+00  0.0000000000000D+00  0.0000000000000D+00
329  3.2800000000000D+00  0.0000000000000D+00  0.0000000000000D+00
330  3.2900000000000D+00  0.0000000000000D+00  0.0000000000000D+00
331  3.3000000000000D+00  0.0000000000000D+00  0.0000000000000D+00
332  3.3100000000000D+00  0.0000000000000D+00  0.0000000000000D+00
333  3.3200000000000D+00  0.0000000000000D+00  0.0000000000000D+00
334  3.3300000000000D+00  0.0000000000000D+00  0.0000000000000D+00
335  3.3400000000000D+00  0.0000000000000D+00  0.0000000000000D+00
336  3.3500000000000D+00  0.0000000000000D+00  0.0000000000000D+00
337  3.3600000000000D+00  0.0000000000000D+00  0.0000000000000D+00
338  3.3700000000000D+00  0.0000000000000D+00  0.0000000000000D+00
339  3.3800000000000D+00  0.0000000000000D+00  0.0000000000000D+00
340  3.3900000000000D+00  0.0000000000000D+00  0.0000000000000D+00
341  3.4000000000000D+00  0.0000000000000D+00  0.0000000000000D+00
342  3.4100000000000D+00  0.0000000000000D+00  0.0000000000000D+00
343  3.4200000000000D+00  0.0000000000000D+00  0.0000000000000D+00
344  3.4300000000000D+00  0.0000000000000D+00  0.0000000000000D+00
345  3.4400000000000D+00  0.0000000000000D+00  0.0000000000000D+00
346  3.4500000000000D+00  0.0000000000000D+00  0.0000000000000D+00
347  3.4600000000000D+00  0.0000000000000D+00  0.0000000000000D+00
348  3.4700000000000D+00  0.0000000000000D+00  0.0000000000000D+00
349  3.4800000000000D+00  0.0000000000000D+00  0.0000000000000D+00
350  3.4900000000000D+00  0.0000000000000D+00  0.0000000000000D+00
351  3.5000000000000D+00  0.0000000000000D+00  0.0000000000000D+00
352  3.5100000000000D+00  0.0000000000000D+00  0.0000000000000D+00
353  3.5200000000000D+00  0.0000000000000D+00  0.0000000000000D+00
354  3.5300000000000D+00  0.0000000000000D+00  0.0000000000000D+00
355  3.5400000000000D+00  0.0000000000000D+00  0.0000000000000D+00
356  3.5500000000000D+00  0.0000000000000D+00  0.0000000000000D+00
357  3.5600000000000D+00  0.0000000000000D+00  0.0000000000000D+00
358  3.5700000000000D+00  0.0000000000000D+00  0.0000000000000D+00
359  3.5800000000000D+00  0.0000000000000D+00  0.0000000000000D+00
360  3.5900000000000D+00  0.0000000000000D+00  0.0000000000000D+00
361  3.6000000000000D+00  0.0000000000000D+00  0.0000000000000D+00
362  3.6100000000000D+00  0.0000000000000D+00  0.0000000000000D+00
363  3.6200000000000D+00  0.0000000000000D+00  0.0000000000000D+00
364  3.6300000000000D+00  0.0000000000000D+00  0.0000000000000D+00
365  3.6400000000000D+00  0.0000000000000D+00  0.0000000000000D+00
366  3.6500000000000D+00  0.0000000000000D+00  0.0000000000000D+00
367  3.6600000000000D+00  0.0000000000000D+00  0.0000000000000D+00
368  3.6700000000000D+00  0.0000000000000D+00  0.0000000000000D+00
369  3.6800000000000D+00  0.0000000000000D+00  0.0000000000000D+00
370  3.6900000000000D+00  0.0000000000000D+00  0.0000000000000D+00
371  3.7000000000000D+00  0.0000000000000D+00  0.0000000000000D+00
372  3.7100000000000D+00  0.0000000000000D+00  0.0000000000000D+00
373  3.7200000000000D+00  0.0000000000000D+00  0.0000000000000D+00
374  3.7300000000000D+00  0.0000000000000D+00  0.0000000000000D+00
375  3.7400000000000D+00  0.0000000000000D+00  0.0000000000000D+00
376  3.7500000000000D+00  0.0000000000000D+00  0.0000000000000D+00
377  3.7600000000000D+00  0.0000000000000D+00  0.0000000000000D+00
378  3.7700000000000D+00  0.0000000000000D+00  0.0000000000000D+00
379  3.7800000000000D+00  0.0000000000000D+00  0.0000000000000D+00
380  3.7900000000000D+00  0.0000000000000D+00  0.0000000000000D+00
381  3.8000000000000D+00  0.0000000000000D+00  0.0000000000000D+00
382  3.8100000000000D+00  0.0000000000000D+00  0.0000000000000D+00
383  3.8200000000000D+00  0.0000000000000D+00  0.0000000000000D+00
384  3.8300000000000D+00  0.0000000000000D+00  0.0000000000000D+00
385  3.8400000000000D+00  0.0000000000000D+00  0.0000000000000D+00
386  3.8500000000000D+00  0.0000000000000D+00  0.0000000000000D+00
387  3.8600000000000D+00  0.0000000000000D+00  0.0000000000000D+00
388  3.8700000000000D+00  0.0000000000000D+00  0.0000000000000D+00
389  3.8800000000000D+00  0.0000000000000D+00  0.0000000000000D+00
390  3.8900000000000D+00  0.0000000000000D+00  0.0000000000000D+00
391  3.9000000000000D+00  0.0000000000000D+00  0.0000000000000D+00
392  3.9100000000000D+00  0.0000000000000D+00  0.0000000000000D+00
393  3.9200000000000D+00  0.0000000000000D+00  0.0000000000000D+00
394  3.9300000000000D+00  0.0000000000000D+00  0.0000000000000D+00
395  3.9400000000000D+00  0.0000000000000D+00  0.0000000000000D+00
396  3.9500000000000D+00  0.0000000000000D+00  0.0000000000000D+00
397  3.9600000000000D+00  0.0000000000000D+00  0.0000000000000D+00
398  3.9700000000000D+00  0.0000000000000D+00  0.0000000000000D+00
399  3.9800000000000D+00  0.0000000000000D+00  0.0000000000000D+00
400  3.9900000000000D+00  0.0000000000000D+00  0.0000000000000D+00
401  4.0000000000000D+00  0.0000000000000D+00  0.0000000000000D+00
402  4.0100000000000D+00  0.0000000000000D+00  0.0000000000000D+00
403  4.0200000000000D+00  0.0000000000000D+00  0.0000000000000D+00
404  4.0300000000000D+00  0.0000000000000D+00  0.0000000000000D+00
405  4.0400000000000D+00  0.0000000000000D+00  0.0000000000000D+00
406  4.0500000000000D+00  0.0000000000000D+00  0.0000000000000D+00
407  4.0600000000000D+00  0.0000000000000D+00  0.0000000000000D+00
408  4.0700000000000D+00  0.0000000000000D+00  0.0000000000000D+00
409  4.0800000000000D+00  0.0000000000000D+00  0.0000000000000D+00
410  4.0900000000000D+00  0.0000000000000D+00  0.0000000000000D+00
411  4.1000000000000D+00  0.0000000000000D+00  0.0000000000000D+00
412  4.1100000000000D+00  0.0000000000000D+00  0.0000000000000D+00
413  4.1200000000000D+00  0.0000000000000D+00  0.0000000000000D+00
414  4.1300000000000D+00  0.0000000000000D+00  0.0000000000000D+00
415  4.1400000000000D+00  0.0000000000000D+00  0.0000000000000D+00
416  4.1500000000000D+00  0.0000000000000D+00  0.0000000000000D+00
417  4.1600000000000D+00  0.0000000000000D+00  0.0000000000000D+00
418  4.1700000000000D+00  0.0000000000000D+00  0.0000000000000D+00
419  4.1800000000000D+00  0.0000000000000D+00  0.0000000000000D+00
420  4.1900000000000D+00  0.0000000000000D+00  0.0000000000000D+00
421  4.2000000000000D+00  0.0000000000000D+00  0.0000000000000D+00
422  4.2100000000000D+00  0.0000000000000D+00  0.0000000000000D+00
423  4.2200000000000D+00  0.0000000000000D+00  0.0000000000000D+00
424  4.2300000000000D+00  0.0000000000000D+00  0.0000000000000D+00
425  4.2400000000000D+00  0.0000000000000D+00  0.0000000000000D+00
426  4.2500000000000D+00  0.0000000000000D+00  0.0000000000000D+00
427  4.2600000000000D+00  0.0000000000000D+00  0.0000000000000D+00
428  4.2700000000000D+00  0.0000000000000D+00  0.0000000000000D+00
429  4.2800000000000D+00  0.0000000000000D+00  0.0000000000000D+00
430  4.2900000000000D+00  0.0000000000000D+00  0.0000000000000D+00
431  4.3000000000000D+00  0.0000000000000D+00  0.0000000000000D+00
432  4.3100000000000D+00  0.0000000000000D+00  0.0000000000000D+00
433  4.3200000000000D+00  0.0000000000000D+00  0.0000000000000D+00
434  4.3300000000000D+00  0.0000000000000D+00  0.0000000000000D+00
435  4.3400000000000D+00  0.0000000000000D+00  0.0000000000000D+00
436  4.3500000000000D+00  0.0000000000000D+00  0.0000000000000D+00
437  4.3600000000000D+00  0.0000000000000D+00  0.0000000000000D+00
438  4.3700000000000D+00  0.0000000000000D+00  0.0000000000000D+00
439  4.3800000000000D+00  0.0000000000000D+00  0.0000000000000D+00
440  4.3900000000000D+00  0.0000000000000D+00  0.0000000000000D+00
441  4.4000000000000D+00  0.0000000000000D+00  0.0000000000000D+00
442  4.4100000000000D+00  0.0000000000000D+00  0.0000000000000D+00
443  4.4200000000000D+00  0.0000000000000D+00  0.0000000000000D+00