Cd    ONCVPSP  r_core=  1.91  2.10  1.72
48.0000     12.0000      160325    zatom,zion,pspd
8   -1013   2     4   600     0    pspcod,pspxc,lmax,lloc,mmax,r2well
5.99000000  5.00000000  0.00000000    rchrg fchrg qchrg
2     2     2     0     0    nproj
0                 extension_switch
0                         1.4735054514802D+01  2.0733401301828D+00
1  0.0000000000000D+00 -8.9746987619321D-11  8.0894985154956D-11
2  1.0000000000000D-02  4.9500850446791D-02 -2.5963954627467D-02
3  2.0000000000000D-02  9.8799104137154D-02 -5.1752794349889D-02
4  3.0000000000000D-02  1.4769320740626D-01 -7.7192320011221D-02
5  4.0000000000000D-02  1.9598368765619D-01 -1.0211015941447D-01
6  5.0000000000000D-02  2.4347418112141D-01 -1.2633666947428D-01
7  6.0000000000000D-02  2.8997244537587D-01 -1.4970582483426D-01
8  7.0000000000000D-02  3.3529135160128D-01 -1.7205608853242D-01
9  8.0000000000000D-02  3.7924985172540D-01 -1.9323126037874D-01
10  9.0000000000000D-02  4.2167391565138D-01 -2.1308129880994D-01
11  1.0000000000000D-01  4.6239743393216D-01 -2.3146311210618D-01
12  1.1000000000000D-01  5.0126308139796D-01 -2.4824131499356D-01
13  1.2000000000000D-01  5.3812313741987D-01 -2.6328894681322D-01
14  1.3000000000000D-01  5.7284025868655D-01 -2.7648814761332D-01
15  1.4000000000000D-01  6.0528820058504D-01 -2.8773078871188D-01
16  1.5000000000000D-01  6.3535248350801D-01 -2.9691905448753D-01
17  1.6000000000000D-01  6.6293100065958D-01 -3.0396597237900D-01
18  1.7000000000000D-01  6.8793456419742D-01 -3.0879588831373D-01
19  1.8000000000000D-01  7.1028738683025D-01 -3.1134488503819D-01
20  1.9000000000000D-01  7.2992749628588D-01 -3.1156114108901D-01
21  2.0000000000000D-01  7.4680708037394D-01 -3.0940522842089D-01
22  2.1000000000000D-01  7.6089276068888D-01 -3.0485034699600D-01
23  2.2000000000000D-01  7.7216579333095D-01 -2.9788249493738D-01
24  2.3000000000000D-01  7.8062219536462D-01 -2.8850057315482D-01
25  2.4000000000000D-01  7.8627279608379D-01 -2.7671642366539D-01
26  2.5000000000000D-01  7.8914321250953D-01 -2.6255480114954D-01
27  2.6000000000000D-01  7.8927374890825D-01 -2.4605327760737D-01
28  2.7000000000000D-01  7.8671922048349D-01 -2.2726208030625D-01
29  2.8000000000000D-01  7.8154870176204D-01 -2.0624386353885D-01
30  2.9000000000000D-01  7.7384520056374D-01 -1.8307341503933D-01
31  3.0000000000000D-01  7.6370525881093D-01 -1.5783729823208D-01
32  3.1000000000000D-01  7.5123848179791D-01 -1.3063343181148D-01
33  3.2000000000000D-01  7.3656699790125D-01 -1.0157060847146D-01
34  3.3000000000000D-01  7.1982485106444D-01 -7.0767954916711D-02
35  3.4000000000000D-01  7.0115732873717D-01 -3.8354335594453D-02
36  3.5000000000000D-01  6.8072022828601D-01 -4.4677028832961D-03
37  3.6000000000000D-01  6.5867906521776D-01  3.0745603237513D-02
38  3.7000000000000D-01  6.3520822686985D-01  6.7131602739687D-02
39  3.8000000000000D-01  6.1049007551996D-01  1.0452946675758D-01
40  3.9000000000000D-01  5.8471400514853D-01  1.4277234865232D-01
41  4.0000000000000D-01  5.5807545635273D-01  1.8168825088988D-01
42  4.1000000000000D-01  5.3077489415485D-01  2.2110092348079D-01
43  4.2000000000000D-01  5.0301675367326D-01  2.6083078953539D-01
44  4.3000000000000D-01  4.7500835882617D-01  3.0069589331297D-01
45  4.4000000000000D-01  4.4695881941793D-01  3.4051286599058D-01
46  4.5000000000000D-01  4.1907791211286D-01  3.8009790424558D-01
47  4.6000000000000D-01  3.9157495093006D-01  4.1926775663808D-01
48  4.7000000000000D-01  3.6465765299648D-01  4.5784071269548D-01
49  4.8000000000000D-01  3.3853100536944D-01  4.9563758954228D-01
50  4.9000000000000D-01  3.1339613878822D-01  5.3248271088442D-01
51  5.0000000000000D-01  2.8944921423093D-01  5.6820487315012D-01
52  5.1000000000000D-01  2.6688032814258D-01  6.0263829360787D-01
53  5.2000000000000D-01  2.4587244215787D-01  6.3562353532830D-01
54  5.3000000000000D-01  2.2660034307215D-01  6.6700840392858D-01
55  5.4000000000000D-01  2.0922963871071D-01  6.9664881113864D-01
56  5.5000000000000D-01  1.9391579521671D-01  7.2440960035420D-01
57  5.6000000000000D-01  1.8080322111452D-01  7.5016532949543D-01
58  5.7000000000000D-01  1.7002440331590D-01  7.7380100666896D-01
59  5.8000000000000D-01  1.6169910001446D-01  7.9521277433698D-01
60  5.9000000000000D-01  1.5593359516706D-01  8.1430853792634D-01
61  6.0000000000000D-01  1.5282001898345D-01  8.3100853506624D-01
62  6.1000000000000D-01  1.5243573854416D-01  8.4524584191962D-01
63  6.2000000000000D-01  1.5484282233867D-01  8.5696681337435D-01
64  6.3000000000000D-01  1.6008758216462D-01  8.6613145417977D-01
65  6.4000000000000D-01  1.6820019545523D-01  8.7271371845544D-01
66  6.5000000000000D-01  1.7919441070712D-01  8.7670173535661D-01
67  6.6000000000000D-01  1.9306733826867D-01  8.7809795905461D-01
68  6.7000000000000D-01  2.0979932831766D-01  8.7691924158005D-01
69  6.8000000000000D-01  2.2935393741128D-01  8.7319682747869D-01
70  6.9000000000000D-01  2.5167798453631D-01  8.6697626963967D-01
71  7.0000000000000D-01  2.7670169711571D-01  8.5831726607908D-01
72  7.1000000000000D-01  3.0433894695376D-01  8.4729341788683D-01
73  7.2000000000000D-01  3.3448757561986D-01  8.3399190897633D-01
74  7.3000000000000D-01  3.6702980828411D-01  8.1851310871039D-01
75  7.4000000000000D-01  4.0183275453664D-01  8.0097009890611D-01
76  7.5000000000000D-01  4.3874899423578D-01  7.8148812715382D-01
77  7.6000000000000D-01  4.7761724595450D-01  7.6020398880685D-01
78  7.7000000000000D-01  5.1826311512366D-01  7.3726534041554D-01
79  7.8000000000000D-01  5.6049991851142D-01  7.1282994778377D-01
80  7.9000000000000D-01  6.0412958123096D-01  6.8706487222000D-01
81  8.0000000000000D-01  6.4894360203818D-01  6.6014559893149D-01
82  8.1000000000000D-01  6.9472408226910D-01  6.3225511187109D-01
83  8.2000000000000D-01  7.4124481337423D-01  6.0358291968654D-01
84  8.3000000000000D-01  7.8827241764184D-01  5.7432403773942D-01
85  8.4000000000000D-01  8.3556753635648D-01  5.4467793145763D-01
86  8.5000000000000D-01  8.8288605932913D-01  5.1484742655100D-01
87  8.6000000000000D-01  9.2998038944915D-01  4.8503759186183D-01
88  8.7000000000000D-01  9.7660073565862D-01  4.5545460083185D-01
89  8.8000000000000D-01  1.0224964275324D+00  4.2630457774671D-01
90  8.9000000000000D-01  1.0674172444652D+00  3.9779243506571D-01
91  9.0000000000000D-01  1.1111147523247D+00  3.7012070825688D-01
92  9.1000000000000D-01  1.1533436403234D+00  3.4348839463476D-01
93  9.2000000000000D-01  1.1938630507965D+00  3.1808980273987D-01
94  9.3000000000000D-01  1.2324378945490D+00  2.9411341880340D-01
95  9.4000000000000D-01  1.2688401444498D+00  2.7174079680739D-01
96  9.5000000000000D-01  1.3028501000110D+00  2.5114547858170D-01
97  9.6000000000000D-01  1.3342576157871D+00  2.3249195027001D-01
98  9.7000000000000D-01  1.3628632865722D+00  2.1593464135270D-01
99  9.8000000000000D-01  1.3884795825557D+00  2.0161697223215D-01
100  9.9000000000000D-01  1.4109319278182D+00  1.8967045616796D-01
101  1.0000000000000D+00  1.4300597158186D+00  1.8021386109043D-01
102  1.0100000000000D+00  1.4457172558154D+00  1.7335243654257D-01
103  1.0200000000000D+00  1.4577746445121D+00  1.6917721066847D-01
104  1.0300000000000D+00  1.4661185575926D+00  1.6776436181609D-01
105  1.0400000000000D+00  1.4706529562167D+00  1.6917466893957D-01
106  1.0500000000000D+00  1.4712997039876D+00  1.7345304457669D-01
107  1.0600000000000D+00  1.4679990903973D+00  1.8062815371758D-01
108  1.0700000000000D+00  1.4607102571960D+00  1.9071212147130D-01
109  1.0800000000000D+00  1.4494115247265D+00  2.0370033189203D-01
110  1.0900000000000D+00  1.4341006157616D+00  2.1957131986504D-01
111  1.1000000000000D+00  1.4147947749630D+00  2.3828675742268D-01
112  1.1100000000000D+00  1.3915307826822D+00  2.5979153531066D-01
113  1.1200000000000D+00  1.3643648623282D+00  2.8401394016065D-01
114  1.1300000000000D+00  1.3333724812573D+00  3.1086592696632D-01
115  1.1400000000000D+00  1.2986480456408D+00  3.4024348609876D-01
116  1.1500000000000D+00  1.2603044904735D+00  3.7202710346336D-01
117  1.1600000000000D+00  1.2184727663169D+00  4.0608231200561D-01
118  1.1700000000000D+00  1.1733012251984D+00  4.4226033203056D-01
119  1.1800000000000D+00  1.1249549085409D+00  4.8039879739207D-01
120  1.1900000000000D+00  1.0736147406047D+00  5.2032256406502D-01
121  1.2000000000000D+00  1.0194766314369D+00  5.6184459715353D-01
122  1.2100000000000D+00  9.6275049399143D-01  6.0476693179257D-01
123  1.2200000000000D+00  9.0365918057320D-01  6.4888170296966D-01
124  1.2300000000000D+00  8.4243734403736D-01  6.9397223904269D-01
125  1.2400000000000D+00  7.7933022998396D-01  7.3981421302014D-01
126  1.2500000000000D+00  7.1459240644422D-01  7.8617684544825D-01
127  1.2600000000000D+00  6.4848643783945D-01  8.3282415250019D-01
128  1.2700000000000D+00  5.8128151057260D-01  8.7951623236064D-01
129  1.2800000000000D+00  5.1325201786472D-01  9.2601058279025D-01
130  1.2900000000000D+00  4.4467611157214D-01  9.7206344264801D-01
131  1.3000000000000D+00  3.7583422916767D-01  1.0174311497725D+00
132  1.3100000000000D+00  3.0700760416114D-01  1.0618715075670D+00
133  1.3200000000000D+00  2.3847676828695D-01  1.1051451525826D+00
134  1.3300000000000D+00  1.7052005406814D-01  1.1470169151801D+00
135  1.3400000000000D+00  1.0341210618337D-01  1.1872571655476D+00
136  1.3500000000000D+00  3.7422410260609D-02  1.2256431371493D+00
137  1.3600000000000D+00 -2.7186152479069D-02  1.2619602199463D+00
138  1.3700000000000D+00 -9.0158716472898D-02  1.2960032158671D+00
139  1.3800000000000D+00 -1.5124980050265D-01  1.3275775488360D+00
140  1.3900000000000D+00 -2.1022462623088D-01  1.3565004225354D+00
141  1.4000000000000D+00 -2.6686037852765D-01  1.3826019186032D+00
142  1.4100000000000D+00 -3.2094740023694D-01  1.4057260286834D+00
143  1.4200000000000D+00 -3.7229031475620D-01  1.4257316144273D+00
144  1.4300000000000D+00 -4.2070906884540D-01  1.4424932886391D+00
145  1.4400000000000D+00 -4.6603989060556D-01  1.4559022131727D+00
146  1.4500000000000D+00 -5.0813615586835D-01  1.4658668075619D+00
147  1.4600000000000D+00 -5.4686915822361D-01  1.4723133642658D+00
148  1.4700000000000D+00 -5.8212877836331D-01  1.4751865668195D+00
149  1.4800000000000D+00 -6.1382404729241D-01  1.4744499061364D+00
150  1.4900000000000D+00 -6.4188360208271D-01  1.4700859940723D+00
151  1.5000000000000D+00 -6.6625602856855D-01  1.4620967693575D+00
152  1.5100000000000D+00 -6.8691009134831D-01  1.4505035965868D+00
153  1.5200000000000D+00 -7.0383484754079D-01  1.4353472552896D+00
154  1.5300000000000D+00 -7.1703964430467D-01  1.4166878194374D+00
155  1.5400000000000D+00 -7.2655400007356D-01  1.3946044276709D+00
156  1.5500000000000D+00 -7.3242736852084D-01  1.3691949436812D+00
157  1.5600000000000D+00 -7.3472878894881D-01  1.3405755104916D+00
158  1.5700000000000D+00 -7.3354642115729D-01  1.3088799971924D+00
159  1.5800000000000D+00 -7.2898697185701D-01  1.2742593449767D+00
160  1.5900000000000D+00 -7.2117501050441D-01  1.2368808108784D+00
161  1.6000000000000D+00 -7.1025218350228D-01  1.1969271177699D+00
162  1.6100000000000D+00 -6.9637632625846D-01  1.1545955105192D+00
163  1.6200000000000D+00 -6.7972048218349D-01  1.1100967269723D+00
164  1.6300000000000D+00 -6.6047183053953D-01  1.0636538858824D+00
165  1.6400000000000D+00 -6.3883053204105D-01  1.0155013002736D+00
166  1.6500000000000D+00 -6.1500849626509D-01  9.6588322031914D-01
167  1.6600000000000D+00 -5.8922807948192D-01  9.1505251318164D-01
168  1.6700000000000D+00 -5.6172071991496D-01  8.6326929085335D-01
169  1.6800000000000D+00 -5.3272551493696D-01  8.1079947670958D-01
170  1.6900000000000D+00 -5.0248775920885D-01  7.5791336247295D-01
171  1.7000000000000D+00 -4.7125743961774D-01  7.0488412164520D-01
172  1.7100000000000D+00 -4.3928766900591D-01  6.5198616446618D-01
173  1.7200000000000D+00 -4.0683315262454D-01  5.9949369971327D-01
174  1.7300000000000D+00 -3.7414869391861D-01  5.4767954435755D-01
175  1.7400000000000D+00 -3.4148769490209D-01  4.9681385051228D-01
176  1.7500000000000D+00 -3.0910070913713D-01  4.4716294126200D-01
177  1.7600000000000D+00 -2.7723398882510D-01  3.9898808119395D-01
178  1.7700000000000D+00 -2.4612798626540D-01  3.5254393089272D-01
179  1.7800000000000D+00 -2.1601591127901D-01  3.0807712752645D-01
180  1.7900000000000D+00 -1.8712234304593D-01  2.6582499260015D-01
181  1.8000000000000D+00 -1.5966187491248D-01  2.2601420761108D-01
182  1.8100000000000D+00 -1.3383782440158D-01  1.8885957924181D-01
183  1.8200000000000D+00 -1.0984099993889D-01  1.5456285149144D-01
184  1.8300000000000D+00 -8.7848543257498D-02  1.2331159206919D-01
185  1.8400000000000D+00 -6.8022842362309D-02  9.5278146787552D-02
186  1.8500000000000D+00 -5.0522769792936D-02  7.0635728326758D-02
187  1.8600000000000D+00 -3.5453629074969D-02  4.9489071178463D-02
188  1.8700000000000D+00 -2.2875968434189D-02  3.1887337782207D-02
189  1.8800000000000D+00 -1.2970898484976D-02  1.8053850734790D-02
190  1.8900000000000D+00 -6.0011743511553D-03  8.3318914012389D-03
191  1.9000000000000D+00 -1.9206935874903D-03  2.6434274946009D-03
192  1.9100000000000D+00 -7.2131034298327D-05  7.1278949255562D-05
193  1.9200000000000D+00  3.4554458040535D-04 -4.9819152533028D-04
194  1.9300000000000D+00  1.0974986003647D-04 -1.5638361976124D-04
195  1.9400000000000D+00 -9.5522557349060D-05  1.3573662528845D-04
196  1.9500000000000D+00 -7.7952961212277D-05  1.1052387926969D-04
197  1.9600000000000D+00  9.9576829431731D-06 -1.4241200486851D-05
198  1.9700000000000D+00  1.8873790768573D-05 -2.6950636537076D-05
199  1.9800000000000D+00  6.6286843876714D-08 -9.4548604446951D-08
200  1.9900000000000D+00  8.8451886745986D-08 -4.2356601580849D-08
201  2.0000000000000D+00  4.0613433488523D-08 -1.9448392616472D-08
202  2.0100000000000D+00  0.0000000000000D+00  0.0000000000000D+00
203  2.0200000000000D+00  0.0000000000000D+00  0.0000000000000D+00
204  2.0300000000000D+00  0.0000000000000D+00  0.0000000000000D+00
205  2.0400000000000D+00  0.0000000000000D+00  0.0000000000000D+00
206  2.0500000000000D+00  0.0000000000000D+00  0.0000000000000D+00
207  2.0600000000000D+00  0.0000000000000D+00  0.0000000000000D+00
208  2.0700000000000D+00  0.0000000000000D+00  0.0000000000000D+00
209  2.0800000000000D+00  0.0000000000000D+00  0.0000000000000D+00
210  2.0900000000000D+00  0.0000000000000D+00  0.0000000000000D+00
211  2.1000000000000D+00  0.0000000000000D+00  0.0000000000000D+00
212  2.1100000000000D+00  0.0000000000000D+00  0.0000000000000D+00
213  2.1200000000000D+00  0.0000000000000D+00  0.0000000000000D+00
214  2.1300000000000D+00  0.0000000000000D+00  0.0000000000000D+00
215  2.1400000000000D+00  0.0000000000000D+00  0.0000000000000D+00
216  2.1500000000000D+00  0.0000000000000D+00  0.0000000000000D+00
217  2.1600000000000D+00  0.0000000000000D+00  0.0000000000000D+00
218  2.1700000000000D+00  0.0000000000000D+00  0.0000000000000D+00
219  2.1800000000000D+00  0.0000000000000D+00  0.0000000000000D+00
220  2.1900000000000D+00  0.0000000000000D+00  0.0000000000000D+00
221  2.2000000000000D+00  0.0000000000000D+00  0.0000000000000D+00
222  2.2100000000000D+00  0.0000000000000D+00  0.0000000000000D+00
223  2.2200000000000D+00  0.0000000000000D+00  0.0000000000000D+00
224  2.2300000000000D+00  0.0000000000000D+00  0.0000000000000D+00
225  2.2400000000000D+00  0.0000000000000D+00  0.0000000000000D+00
226  2.2500000000000D+00  0.0000000000000D+00  0.0000000000000D+00
227  2.2600000000000D+00  0.0000000000000D+00  0.0000000000000D+00
228  2.2700000000000D+00  0.0000000000000D+00  0.0000000000000D+00
229  2.2800000000000D+00  0.0000000000000D+00  0.0000000000000D+00
230  2.2900000000000D+00  0.0000000000000D+00  0.0000000000000D+00
231  2.3000000000000D+00  0.0000000000000D+00  0.0000000000000D+00
232  2.3100000000000D+00  0.0000000000000D+00  0.0000000000000D+00
233  2.3200000000000D+00  0.0000000000000D+00  0.0000000000000D+00
234  2.3300000000000D+00  0.0000000000000D+00  0.0000000000000D+00
235  2.3400000000000D+00  0.0000000000000D+00  0.0000000000000D+00
236  2.3500000000000D+00  0.0000000000000D+00  0.0000000000000D+00
237  2.3600000000000D+00  0.0000000000000D+00  0.0000000000000D+00
238  2.3700000000000D+00  0.0000000000000D+00  0.0000000000000D+00
239  2.3800000000000D+00  0.0000000000000D+00  0.0000000000000D+00
240  2.3900000000000D+00  0.0000000000000D+00  0.0000000000000D+00
241  2.4000000000000D+00  0.0000000000000D+00  0.0000000000000D+00
242  2.4100000000000D+00  0.0000000000000D+00  0.0000000000000D+00
243  2.4200000000000D+00  0.0000000000000D+00  0.0000000000000D+00
244  2.4300000000000D+00  0.0000000000000D+00  0.0000000000000D+00
245  2.4400000000000D+00  0.0000000000000D+00  0.0000000000000D+00
246  2.4500000000000D+00  0.0000000000000D+00  0.0000000000000D+00
247  2.4600000000000D+00  0.0000000000000D+00  0.0000000000000D+00
248  2.4700000000000D+00  0.0000000000000D+00  0.0000000000000D+00
249  2.4800000000000D+00  0.0000000000000D+00  0.0000000000000D+00
250  2.4900000000000D+00  0.0000000000000D+00  0.0000000000000D+00
251  2.5000000000000D+00  0.0000000000000D+00  0.0000000000000D+00
252  2.5100000000000D+00  0.0000000000000D+00  0.0000000000000D+00
253  2.5200000000000D+00  0.0000000000000D+00  0.0000000000000D+00
254  2.5300000000000D+00  0.0000000000000D+00  0.0000000000000D+00
255  2.5400000000000D+00  0.0000000000000D+00  0.0000000000000D+00
256  2.5500000000000D+00  0.0000000000000D+00  0.0000000000000D+00
257  2.5600000000000D+00  0.0000000000000D+00  0.0000000000000D+00
258  2.5700000000000D+00  0.0000000000000D+00  0.0000000000000D+00
259  2.5800000000000D+00  0.0000000000000D+00  0.0000000000000D+00
260  2.5900000000000D+00  0.0000000000000D+00  0.0000000000000D+00
261  2.6000000000000D+00  0.0000000000000D+00  0.0000000000000D+00
262  2.6100000000000D+00  0.0000000000000D+00  0.0000000000000D+00
263  2.6200000000000D+00  0.0000000000000D+00  0.0000000000000D+00
264  2.6300000000000D+00  0.0000000000000D+00  0.0000000000000D+00
265  2.6400000000000D+00  0.0000000000000D+00  0.0000000000000D+00
266  2.6500000000000D+00  0.0000000000000D+00  0.0000000000000D+00
267  2.6600000000000D+00  0.0000000000000D+00  0.0000000000000D+00
268  2.6700000000000D+00  0.0000000000000D+00  0.0000000000000D+00
269  2.6800000000000D+00  0.0000000000000D+00  0.0000000000000D+00
270  2.6900000000000D+00  0.0000000000000D+00  0.0000000000000D+00
271  2.7000000000000D+00  0.0000000000000D+00  0.0000000000000D+00
272  2.7100000000000D+00  0.0000000000000D+00  0.0000000000000D+00
273  2.7200000000000D+00  0.0000000000000D+00  0.0000000000000D+00
274  2.7300000000000D+00  0.0000000000000D+00  0.0000000000000D+00
275  2.7400000000000D+00  0.0000000000000D+00  0.0000000000000D+00
276  2.7500000000000D+00  0.0000000000000D+00  0.0000000000000D+00
277  2.7600000000000D+00  0.0000000000000D+00  0.0000000000000D+00
278  2.7700000000000D+00  0.0000000000000D+00  0.0000000000000D+00
279  2.7800000000000D+00  0.0000000000000D+00  0.0000000000000D+00
280  2.7900000000000D+00  0.0000000000000D+00  0.0000000000000D+00
281  2.8000000000000D+00  0.0000000000000D+00  0.0000000000000D+00
282  2.8100000000000D+00  0.0000000000000D+00  0.0000000000000D+00
283  2.8200000000000D+00  0.0000000000000D+00  0.0000000000000D+00
284  2.8300000000000D+00  0.0000000000000D+00  0.0000000000000D+00
285  2.8400000000000D+00  0.0000000000000D+00  0.0000000000000D+00
286  2.8500000000000D+00  0.0000000000000D+00  0.0000000000000D+00
287  2.8600000000000D+00  0.0000000000000D+00  0.0000000000000D+00
288  2.8700000000000D+00  0.0000000000000D+00  0.0000000000000D+00
289  2.8800000000000D+00  0.0000000000000D+00  0.0000000000000D+00
290  2.8900000000000D+00  0.0000000000000D+00  0.0000000000000D+00
291  2.9000000000000D+00  0.0000000000000D+00  0.0000000000000D+00
292  2.9100000000000D+00  0.0000000000000D+00  0.0000000000000D+00
293  2.9200000000000D+00  0.0000000000000D+00  0.0000000000000D+00
294  2.9300000000000D+00  0.0000000000000D+00  0.0000000000000D+00
295  2.9400000000000D+00  0.0000000000000D+00  0.0000000000000D+00
296  2.9500000000000D+00  0.0000000000000D+00  0.0000000000000D+00
297  2.9600000000000D+00  0.0000000000000D+00  0.0000000000000D+00
298  2.9700000000000D+00  0.0000000000000D+00  0.0000000000000D+00
299  2.9800000000000D+00  0.0000000000000D+00  0.0000000000000D+00
300  2.9900000000000D+00  0.0000000000000D+00  0.0000000000000D+00
301  3.0000000000000D+00  0.0000000000000D+00  0.0000000000000D+00
302  3.0100000000000D+00  0.0000000000000D+00  0.0000000000000D+00
303  3.0200000000000D+00  0.0000000000000D+00  0.0000000000000D+00
304  3.0300000000000D+00  0.0000000000000D+00  0.0000000000000D+00
305  3.0400000000000D+00  0.0000000000000D+00  0.0000000000000D+00
306  3.0500000000000D+00  0.0000000000000D+00  0.0000000000000D+00
307  3.0600000000000D+00  0.0000000000000D+00  0.0000000000000D+00
308  3.0700000000000D+00  0.0000000000000D+00  0.0000000000000D+00
309  3.0800000000000D+00  0.0000000000000D+00  0.0000000000000D+00
310  3.0900000000000D+00  0.0000000000000D+00  0.0000000000000D+00
311  3.1000000000000D+00  0.0000000000000D+00  0.0000000000000D+00
312  3.1100000000000D+00  0.0000000000000D+00  0.0000000000000D+00
313  3.1200000000000D+00  0.0000000000000D+00  0.0000000000000D+00
314  3.1300000000000D+00  0.0000000000000D+00  0.0000000000000D+00
315  3.1400000000000D+00  0.0000000000000D+00  0.0000000000000D+00
316  3.1500000000000D+00  0.0000000000000D+00  0.0000000000000D+00
317  3.1600000000000D+00  0.0000000000000D+00  0.0000000000000D+00
318  3.1700000000000D+00  0.0000000000000D+00  0.0000000000000D+00
319  3.1800000000000D+00  0.0000000000000D+00  0.0000000000000D+00
320  3.1900000000000D+00  0.0000000000000D+00  0.0000000000000D+00
321  3.2000000000000D+00  0.0000000000000D+00  0.0000000000000D+00
322  3.2100000000000D+00  0.0000000000000D+00  0.0000000000000D+00
323  3.2200000000000D+00  0.0000000000000D+00  0.0000000000000D+00
324  3.2300000000000D+00  0.0000000000000D+00  0.0000000000000D+00
325  3.2400000000000D+00  0.0000000000000D+00  0.0000000000000D+00
326  3.2500000000000D+00  0.0000000000000D+00  0.0000000000000D+00
327  3.2600000000000D+00  0.0000000000000D+00  0.0000000000000D+00
328  3.2700000000000D+00  0.0000000000000D+00  0.0000000000000D+00
329  3.2800000000000D+00  0.0000000000000D+00  0.0000000000000D+00
330  3.2900000000000D+00  0.0000000000000D+00  0.0000000000000D+00
331  3.3000000000000D+00  0.0000000000000D+00  0.0000000000000D+00
332  3.3100000000000D+00  0.0000000000000D+00  0.0000000000000D+00
333  3.3200000000000D+00  0.0000000000000D+00  0.0000000000000D+00
334  3.3300000000000D+00  0.0000000000000D+00  0.0000000000000D+00
335  3.3400000000000D+00  0.0000000000000D+00  0.0000000000000D+00
336  3.3500000000000D+00  0.0000000000000D+00  0.0000000000000D+00
337  3.3600000000000D+00  0.0000000000000D+00  0.0000000000000D+00
338  3.3700000000000D+00  0.0000000000000D+00  0.0000000000000D+00
339  3.3800000000000D+00  0.0000000000000D+00  0.0000000000000D+00
340  3.3900000000000D+00  0.0000000000000D+00  0.0000000000000D+00
341  3.4000000000000D+00  0.0000000000000D+00  0.0000000000000D+00
342  3.4100000000000D+00  0.0000000000000D+00  0.0000000000000D+00
343  3.4200000000000D+00  0.0000000000000D+00  0.0000000000000D+00
344  3.4300000000000D+00  0.0000000000000D+00  0.0000000000000D+00
345  3.4400000000000D+00  0.0000000000000D+00  0.0000000000000D+00
346  3.4500000000000D+00  0.0000000000000D+00  0.0000000000000D+00
347  3.4600000000000D+00  0.0000000000000D+00  0.0000000000000D+00
348  3.4700000000000D+00  0.0000000000000D+00  0.0000000000000D+00
349  3.4800000000000D+00  0.0000000000000D+00  0.0000000000000D+00
350  3.4900000000000D+00  0.0000000000000D+00  0.0000000000000D+00
351  3.5000000000000D+00  0.0000000000000D+00  0.0000000000000D+00
352  3.5100000000000D+00  0.0000000000000D+00  0.0000000000000D+00
353  3.5200000000000D+00  0.0000000000000D+00  0.0000000000000D+00
354  3.5300000000000D+00  0.0000000000000D+00  0.0000000000000D+00
355  3.5400000000000D+00  0.0000000000000D+00  0.0000000000000D+00
356  3.5500000000000D+00  0.0000000000000D+00  0.0000000000000D+00
357  3.5600000000000D+00  0.0000000000000D+00  0.0000000000000D+00
358  3.5700000000000D+00  0.0000000000000D+00  0.0000000000000D+00
359  3.5800000000000D+00  0.0000000000000D+00  0.0000000000000D+00
360  3.5900000000000D+00  0.0000000000000D+00  0.0000000000000D+00
361  3.6000000000000D+00  0.0000000000000D+00  0.0000000000000D+00
362  3.6100000000000D+00  0.0000000000000D+00  0.0000000000000D+00
363  3.6200000000000D+00  0.0000000000000D+00  0.0000000000000D+00
364  3.6300000000000D+00  0.0000000000000D+00  0.0000000000000D+00
365  3.6400000000000D+00  0.0000000000000D+00  0.0000000000000D+00
366  3.6500000000000D+00  0.0000000000000D+00  0.0000000000000D+00
367  3.6600000000000D+00  0.0000000000000D+00  0.0000000000000D+00
368  3.6700000000000D+00  0.0000000000000D+00  0.0000000000000D+00
369  3.6800000000000D+00  0.0000000000000D+00  0.0000000000000D+00
370  3.6900000000000D+00  0.0000000000000D+00  0.0000000000000D+00
371  3.7000000000000D+00  0.0000000000000D+00  0.0000000000000D+00
372  3.7100000000000D+00  0.0000000000000D+00  0.0000000000000D+00
373  3.7200000000000D+00  0.0000000000000D+00  0.0000000000000D+00
374  3.7300000000000D+00  0.0000000000000D+00  0.0000000000000D+00
375  3.7400000000000D+00  0.0000000000000D+00  0.0000000000000D+00
376  3.7500000000000D+00  0.0000000000000D+00  0.0000000000000D+00
377  3.7600000000000D+00  0.0000000000000D+00  0.0000000000000D+00
378  3.7700000000000D+00  0.0000000000000D+00  0.0000000000000D+00
379  3.7800000000000D+00  0.0000000000000D+00  0.0000000000000D+00
380  3.7900000000000D+00  0.0000000000000D+00  0.0000000000000D+00
381  3.8000000000000D+00  0.0000000000000D+00  0.0000000000000D+00
382  3.8100000000000D+00  0.0000000000000D+00  0.0000000000000D+00
383  3.8200000000000D+00  0.0000000000000D+00  0.0000000000000D+00
384  3.8300000000000D+00  0.0000000000000D+00  0.0000000000000D+00
385  3.8400000000000D+00  0.0000000000000D+00  0.0000000000000D+00
386  3.8500000000000D+00  0.0000000000000D+00  0.0000000000000D+00
387  3.8600000000000D+00  0.0000000000000D+00  0.0000000000000D+00
388  3.8700000000000D+00  0.0000000000000D+00  0.0000000000000D+00
389  3.8800000000000D+00  0.0000000000000D+00  0.0000000000000D+00
390  3.8900000000000D+00  0.0000000000000D+00  0.0000000000000D+00
391  3.9000000000000D+00  0.0000000000000D+00  0.0000000000000D+00
392  3.9100000000000D+00  0.0000000000000D+00  0.0000000000000D+00
393  3.9200000000000D+00  0.0000000000000D+00  0.0000000000000D+00
394  3.9300000000000D+00  0.0000000000000D+00  0.0000000000000D+00
395  3.9400000000000D+00  0.0000000000000D+00  0.0000000000000D+00
396  3.9500000000000D+00  0.0000000000000D+00  0.0000000000000D+00
397  3.9600000000000D+00  0.0000000000000D+00  0.0000000000000D+00
398  3.9700000000000D+00  0.0000000000000D+00  0.0000000000000D+00
399  3.9800000000000D+00  0.0000000000000D+00  0.0000000000000D+00
400  3.9900000000000D+00  0.0000000000000D+00  0.0000000000000D+00
401  4.0000000000000D+00  0.0000000000000D+00  0.0000000000000D+00
402  4.0100000000000D+00  0.0000000000000D+00  0.0000000000000D+00
403  4.0200000000000D+00  0.0000000000000D+00  0.0000000000000D+00
404  4.0300000000000D+00  0.0000000000000D+00  0.0000000000000D+00
405  4.0400000000000D+00  0.0000000000000D+00  0.0000000000000D+00
406  4.0500000000000D+00  0.0000000000000D+00  0.0000000000000D+00
407  4.0600000000000D+00  0.0000000000000D+00  0.0000000000000D+00
408  4.0700000000000D+00  0.0000000000000D+00  0.0000000000000D+00
409  4.0800000000000D+00  0.0000000000000D+00  0.0000000000000D+00
410  4.0900000000000D+00  0.0000000000000D+00  0.0000000000000D+00
411  4.1000000000000D+00  0.0000000000000D+00  0.0000000000000D+00
412  4.1100000000000D+00  0.0000000000000D+00  0.0000000000000D+00
413  4.1200000000000D+00  0.0000000000000D+00  0.0000000000000D+00
414  4.1300000000000D+00  0.0000000000000D+00  0.0000000000000D+00
415  4.1400000000000D+00  0.0000000000000D+00  0.0000000000000D+00
416  4.1500000000000D+00  0.0000000000000D+00  0.0000000000000D+00
417  4.1600000000000D+00  0.0000000000000D+00  0.0000000000000D+00
418  4.1700000000000D+00  0.0000000000000D+00  0.0000000000000D+00
419  4.1800000000000D+00  0.0000000000000D+00  0.0000000000000D+00
420  4.1900000000000D+00  0.0000000000000D+00  0.0000000000000D+00
421  4.2000000000000D+00  0.0000000000000D+00  0.0000000000000D+00
422  4.2100000000000D+00  0.0000000000000D+00  0.0000000000000D+00
423  4.2200000000000D+00  0.0000000000000D+00  0.0000000000000D+00
424  4.2300000000000D+00  0.0000000000000D+00  0.0000000000000D+00
425  4.2400000000000D+00  0.0000000000000D+00  0.0000000000000D+00
426  4.2500000000000D+00  0.0000000000000D+00  0.0000000000000D+00
427  4.2600000000000D+00  0.0000000000000D+00  0.0000000000000D+00
428  4.2700000000000D+00  0.0000000000000D+00  0.0000000000000D+00
429  4.2800000000000D+00  0.0000000000000D+00  0.0000000000000D+00
430  4.2900000000000D+00  0.0000000000000D+00  0.0000000000000D+00
431  4.3000000000000D+00  0.0000000000000D+00  0.0000000000000D+00
432  4.3100000000000D+00  0.0000000000000D+00  0.0000000000000D+00
433  4.3200000000000D+00  0.0000000000000D+00  0.0000000000000D+00
434  4.3300000000000D+00  0.0000000000000D+00  0.0000000000000D+00
435  4.3400000000000D+00  0.0000000000000D+00  0.0000000000000D+00
436  4.3500000000000D+00  0.0000000000000D+00  0.0000000000000D+00
437  4.3600000000000D+00  0.0000000000000D+00  0.0000000000000D+00
438  4.3700000000000D+00  0.0000000000000D+00  0.0000000000000D+00
439  4.3800000000000D+00  0.0000000000000D+00  0.0000000000000D+00
440  4.3900000000000D+00  0.0000000000000D+00  0.0000000000000D+00
441  4.4000000000000D+00  0.0000000000000D+00  0.0000000000000D+00
442  4.4100000000000D+00  0.0000000000000D+00  0.0000000000000D+00
443  4.4200000000000D+00  0.0000000000000D+00  0.0000000000000D+00
444  4.4300000000000D+00  0.0000000000000D+00  0.0000000000000D+00