Cr    ONCVPSP  r_core=  2.43  1.20  1.56
24.0000     12.0000      141221    zatom,zion,pspd
8    11     2     4   601     0    pspcod,pspxc,lmax,lloc,mmax,r2well
6.00000000  0.30000000  0.00000000    rchrg fchrg qchrg
2     2     2     0     0    nproj
0                 extension_switch
0                         9.7901883801624D+00  6.5904702694817D-01
1  0.0000000000000D+00 -0.0000000000000D+00 -0.0000000000000D+00
2  1.0000000000000D-02 -5.1212232498968D-02 -3.0436564476126D-02
3  2.0000000000000D-02 -1.0230335096627D-01 -6.0732744845031D-02
4  3.0000000000000D-02 -1.5315209333815D-01 -9.0749049031364D-02
5  4.0000000000000D-02 -2.0363692508388D-01 -1.2034777029152D-01
6  5.0000000000000D-02 -2.5363596143646D-01 -1.4939388275536D-01
7  6.0000000000000D-02 -3.0302695830531D-01 -1.7775593960356D-01
8  7.0000000000000D-02 -3.5168739232079D-01 -2.0530697341682D-01
9  8.0000000000000D-02 -3.9949464839655D-01 -2.3192539713378D-01
10  9.0000000000000D-02 -4.4632633064619D-01 -2.5749590270046D-01
11  1.0000000000000D-01 -4.9206070950211D-01 -2.8191035300809D-01
12  1.1000000000000D-01 -5.3657731444190D-01 -3.0506866098009D-01
13  1.2000000000000D-01 -5.7975767792194D-01 -3.2687964792966D-01
14  1.3000000000000D-01 -6.2148623185893D-01 -3.4726187136987D-01
15  1.4000000000000D-01 -6.6165135381311D-01 -3.6614441090920D-01
16  1.5000000000000D-01 -7.0014655448725D-01 -3.8346759835064D-01
17  1.6000000000000D-01 -7.3687179458609D-01 -3.9918367765690D-01
18  1.7000000000000D-01 -7.7173491135407D-01 -4.1325737712426D-01
19  1.8000000000000D-01 -8.0465313394117D-01 -4.2566637746156D-01
20  1.9000000000000D-01 -8.3555465591251D-01 -4.3640165544110D-01
21  2.0000000000000D-01 -8.6438023354519D-01 -4.4546768520944D-01
22  2.1000000000000D-01 -8.9108476716562D-01 -4.5288247694957D-01
23  2.2000000000000D-01 -9.1563882370853D-01 -4.5867743514019D-01
24  2.3000000000000D-01 -9.3803004939460D-01 -4.6289701818468D-01
25  2.4000000000000D-01 -9.5826441668826D-01 -4.6559818345386D-01
26  2.5000000000000D-01 -9.7636724166905D-01 -4.6684960667961D-01
27  2.6000000000000D-01 -9.9238392526594D-01 -4.6673066061578D-01
28  2.7000000000000D-01 -1.0063803190691D+00 -4.6533015633305D-01
29  2.8000000000000D-01 -1.0184426737684D+00 -4.6274483972348D-01
30  2.9000000000000D-01 -1.0286770790561D+00 -4.5907765259141D-01
31  3.0000000000000D-01 -1.0372083195198D+00 -4.5443577217060D-01
32  3.1000000000000D-01 -1.0441780657532D+00 -4.4892845112920D-01
33  3.2000000000000D-01 -1.0497423172344D+00 -4.4266469101151D-01
34  3.3000000000000D-01 -1.0540680323246D+00 -4.3575081120819D-01
35  3.4000000000000D-01 -1.0573288037211D+00 -4.2828790091080D-01
36  3.5000000000000D-01 -1.0596995997308D+00 -4.2036935054952D-01
37  3.6000000000000D-01 -1.0613503265947D+00 -4.1207838210364D-01
38  3.7000000000000D-01 -1.0624384169904D+00 -4.0348589324964D-01
39  3.8000000000000D-01 -1.0630998606648D+00 -3.9464843669494D-01
40  3.9000000000000D-01 -1.0634392371148D+00 -3.8560682148124D-01
41  4.0000000000000D-01 -1.0635181859416D+00 -3.7638522717422D-01
42  4.1000000000000D-01 -1.0633449454354D+00 -3.6699171187855D-01
43  4.2000000000000D-01 -1.0628988269603D+00 -3.5742746272690D-01
44  4.3000000000000D-01 -1.0621752527838D+00 -3.4769820783897D-01
45  4.4000000000000D-01 -1.0612002992202D+00 -3.3781580300977D-01
46  4.5000000000000D-01 -1.0600362837308D+00 -3.2779682541493D-01
47  4.6000000000000D-01 -1.0587789829099D+00 -3.1765918731953D-01
48  4.7000000000000D-01 -1.0575439827781D+00 -3.0741734484984D-01
49  4.8000000000000D-01 -1.0564433089429D+00 -2.9707752847815D-01
50  4.9000000000000D-01 -1.0555577143370D+00 -2.8663477764766D-01
51  5.0000000000000D-01 -1.0549115809714D+00 -2.7607305989604D-01
52  5.1000000000000D-01 -1.0544612019527D+00 -2.6536924431064D-01
53  5.2000000000000D-01 -1.0541031560319D+00 -2.5449945551394D-01
54  5.3000000000000D-01 -1.0537001344555D+00 -2.4344567841441D-01
55  5.4000000000000D-01 -1.0531170906223D+00 -2.3219987067986D-01
56  5.5000000000000D-01 -1.0522485685791D+00 -2.2076393802103D-01
57  5.6000000000000D-01 -1.0510337100512D+00 -2.0914735033935D-01
58  5.7000000000000D-01 -1.0494505981572D+00 -1.9736306310500D-01
59  5.8000000000000D-01 -1.0475067424190D+00 -1.8542463644639D-01
60  5.9000000000000D-01 -1.0452243713177D+00 -1.7334446684011D-01
61  6.0000000000000D-01 -1.0426311819926D+00 -1.6113318602979D-01
62  6.1000000000000D-01 -1.0397540362578D+00 -1.4879984138595D-01
63  6.2000000000000D-01 -1.0366161882568D+00 -1.3635226581081D-01
64  6.3000000000000D-01 -1.0332364763418D+00 -1.2379751683607D-01
65  6.4000000000000D-01 -1.0296297462007D+00 -1.1114221317419D-01
66  6.5000000000000D-01 -1.0258074226916D+00 -9.8392785356364D-02
67  6.6000000000000D-01 -1.0217784191019D+00 -8.5555601509220D-02
68  6.7000000000000D-01 -1.0175499038211D+00 -7.2637005638642D-02
69  6.8000000000000D-01 -1.0131279122771D+00 -5.9643308011179D-02
70  6.9000000000000D-01 -1.0085178588506D+00 -4.6580741671440D-02
71  7.0000000000000D-01 -1.0037248899004D+00 -3.3455362252621D-02
72  7.1000000000000D-01 -9.9875411033557D-01 -2.0272966530695D-02
73  7.2000000000000D-01 -9.9361070809403D-01 -7.0390059212061D-03
74  7.3000000000000D-01 -9.8830001721530D-01  6.2414897591713D-03
75  7.4000000000000D-01 -9.8282750670428D-01  1.9563977900416D-02
76  7.5000000000000D-01 -9.7719872245031D-01  3.2924449750553D-02
77  7.6000000000000D-01 -9.7141922339810D-01  4.6319461564349D-02
78  7.7000000000000D-01 -9.6549450207346D-01  5.9746151739920D-02
79  7.8000000000000D-01 -9.5942990362903D-01  7.3202245315198D-02
80  7.9000000000000D-01 -9.5323054943116D-01  8.6686047863550D-02
81  8.0000000000000D-01 -9.4690126887874D-01  1.0019643079962D-01
82  8.1000000000000D-01 -9.4044654138021D-01  1.1373280991414D-01
83  8.2000000000000D-01 -9.3387044915813D-01  1.2729511868488D-01
84  8.3000000000000D-01 -9.2717664077842D-01  1.4088377769035D-01
85  8.4000000000000D-01 -9.2036830448433D-01  1.5449966081651D-01
86  8.5000000000000D-01 -9.1344815080656D-01  1.6814405923469D-01
87  8.6000000000000D-01 -9.0641840369942D-01  1.8181864483487D-01
88  8.7000000000000D-01 -8.9928079761692D-01  1.9552543029170D-01
89  8.8000000000000D-01 -8.9203658174513D-01  2.0926672994718D-01
90  8.9000000000000D-01 -8.8468652907614D-01  2.2304511932297D-01
91  9.0000000000000D-01 -8.7723095002821D-01  2.3686339412957D-01
92  9.1000000000000D-01 -8.6966970991926D-01  2.5072452888125D-01
93  9.2000000000000D-01 -8.6200224971465D-01  2.6463163520937D-01
94  9.3000000000000D-01 -8.5422760956121D-01  2.7858791998023D-01
95  9.4000000000000D-01 -8.4634445468360D-01  2.9259664332062D-01
96  9.5000000000000D-01 -8.3835110327456D-01  3.0666107665899D-01
97  9.6000000000000D-01 -8.3024555605173D-01  3.2078446089670D-01
98  9.7000000000000D-01 -8.2202552718617D-01  3.3496996483280D-01
99  9.8000000000000D-01 -8.1368847191272D-01  3.4922065460646D-01
100  9.9000000000000D-01 -8.0523162545395D-01  3.6353943512631D-01
101  1.0000000000000D+00 -7.9665204324286D-01  3.7792899971261D-01
102  1.0100000000000D+00 -7.8794662478856D-01  3.9239181579548D-01
103  1.0200000000000D+00 -7.7911215230782D-01  4.0693007580063D-01
104  1.0300000000000D+00 -7.7014532564540D-01  4.2154565923752D-01
105  1.0400000000000D+00 -7.6104278499002D-01  4.3624011639327D-01
106  1.0500000000000D+00 -7.5180116457407D-01  4.5101459710270D-01
107  1.0600000000000D+00 -7.4241714600858D-01  4.6586979082857D-01
108  1.0700000000000D+00 -7.3288745797509D-01  4.8080595234957D-01
109  1.0800000000000D+00 -7.2320892232791D-01  4.9582284807403D-01
110  1.0900000000000D+00 -7.1337845490180D-01  5.1091977153908D-01
111  1.1000000000000D+00 -7.0339317807033D-01  5.2609539696960D-01
112  1.1100000000000D+00 -6.9325042155334D-01  5.4134780553945D-01
113  1.1200000000000D+00 -6.8294772529461D-01  5.5667449835939D-01
114  1.1300000000000D+00 -6.7248284723867D-01  5.7207239782085D-01
115  1.1400000000000D+00 -6.6185386754429D-01  5.8753772517896D-01
116  1.1500000000000D+00 -6.5105923398409D-01  6.0306596986537D-01
117  1.1600000000000D+00 -6.4009770213125D-01  6.1865197968218D-01
118  1.1700000000000D+00 -6.2896831981708D-01  6.3428998527825D-01
119  1.1800000000000D+00 -6.1767065820654D-01  6.4997334571240D-01
120  1.1900000000000D+00 -6.0620469705355D-01  6.6569470793793D-01
121  1.2000000000000D+00 -5.9457078985706D-01  6.8144605434340D-01
122  1.2100000000000D+00 -5.8276973820199D-01  6.9721862757358D-01
123  1.2200000000000D+00 -5.7080297441313D-01  7.1300276607582D-01
124  1.2300000000000D+00 -5.5867233063087D-01  7.2878816268274D-01
125  1.2400000000000D+00 -5.4638003392668D-01  7.4456386450918D-01
126  1.2500000000000D+00 -5.3392910479210D-01  7.6031791581187D-01
127  1.2600000000000D+00 -5.2132296891352D-01  7.7603775517042D-01
128  1.2700000000000D+00 -5.0856543728242D-01  7.9171022016126D-01
129  1.2800000000000D+00 -4.9566119850591D-01  8.0732114964146D-01
130  1.2900000000000D+00 -4.8261532837792D-01  8.2285583504907D-01
131  1.3000000000000D+00 -4.6943333332372D-01  8.3829896514380D-01
132  1.3100000000000D+00 -4.5612159065676D-01  8.5363433622221D-01
133  1.3200000000000D+00 -4.4268682657304D-01  8.6884526312619D-01
134  1.3300000000000D+00 -4.2913630151488D-01  8.8391443449449D-01
135  1.3400000000000D+00 -4.1547803838224D-01  8.9882383875746D-01
136  1.3500000000000D+00 -4.0172036665001D-01  9.1355503316765D-01
137  1.3600000000000D+00 -3.8787229247922D-01  9.2808896251410D-01
138  1.3700000000000D+00 -3.7394337995934D-01  9.4240610151902D-01
139  1.3800000000000D+00 -3.5994348395993D-01  9.5648650040518D-01
140  1.3900000000000D+00 -3.4588325435161D-01  9.7030975121915D-01
141  1.4000000000000D+00 -3.3177360157097D-01  9.8385511778161D-01
142  1.4100000000000D+00 -3.1762594895910D-01  9.9710149194538D-01
143  1.4200000000000D+00 -3.0345222832732D-01  1.0100275791910D+00
144  1.4300000000000D+00 -2.8926461707156D-01  1.0226116918275D+00
145  1.4400000000000D+00 -2.7507587332894D-01  1.0348321745944D+00
146  1.4500000000000D+00 -2.6089896503206D-01  1.0466670865030D+00
147  1.4600000000000D+00 -2.4674726572133D-01  1.0580944610152D+00
148  1.4700000000000D+00 -2.3263441733238D-01  1.0690924381014D+00
149  1.4800000000000D+00 -2.1857434485435D-01  1.0796388750639D+00
150  1.4900000000000D+00 -2.0458118330403D-01  1.0897122536706D+00
151  1.5000000000000D+00 -1.9066931981580D-01  1.0992905662468D+00
152  1.5100000000000D+00 -1.7685323195011D-01  1.1083527017416D+00
153  1.5200000000000D+00 -1.6314759652279D-01  1.1168772895829D+00
154  1.5300000000000D+00 -1.4956714128321D-01  1.1248436270125D+00
155  1.5400000000000D+00 -1.3612663040883D-01  1.1322313604198D+00
156  1.5500000000000D+00 -1.2284094014143D-01  1.1390203778603D+00
157  1.5600000000000D+00 -1.0972471854635D-01  1.1451916507260D+00
158  1.5700000000000D+00 -9.6792875866705D-02  1.1507258661417D+00
159  1.5800000000000D+00 -8.4059745931819D-02  1.1556056049304D+00
160  1.5900000000000D+00 -7.1540144148926D-02  1.1598125835804D+00
161  1.6000000000000D+00 -5.9247926536009D-02  1.1633311946513D+00
162  1.6100000000000D+00 -4.7197596110778D-02  1.1661446034278D+00
163  1.6200000000000D+00 -3.5402454778861D-02  1.1682390285306D+00
164  1.6300000000000D+00 -2.3876438751763D-02  1.1695995434032D+00
165  1.6400000000000D+00 -1.2632205517716D-02  1.1702142735043D+00
166  1.6500000000000D+00 -1.6829451347295D-03  1.1700704654943D+00
167  1.6600000000000D+00  8.9594949132016D-03  1.1691584054160D+00
168  1.6700000000000D+00  1.9282809218882D-02  1.1674676880277D+00
169  1.6800000000000D+00  2.9276134521512D-02  1.1649910212707D+00
170  1.6900000000000D+00  3.8928167355608D-02  1.1617204855290D+00
171  1.7000000000000D+00  4.8229209075292D-02  1.1576514735768D+00
172  1.7100000000000D+00  5.7169053242213D-02  1.1527786522738D+00
173  1.7200000000000D+00  6.5739348860833D-02  1.1471003563684D+00
174  1.7300000000000D+00  7.3931059795143D-02  1.1406139061092D+00
175  1.7400000000000D+00  8.1737363362953D-02  1.1333208198906D+00
176  1.7500000000000D+00  8.9150447561353D-02  1.1252211101094D+00
177  1.7600000000000D+00  9.6165189196164D-02  1.1163196921259D+00
178  1.7700000000000D+00  1.0277503982558D-01  1.1066192909337D+00
179  1.7800000000000D+00  1.0897663910749D-01  1.0961282423809D+00
180  1.7900000000000D+00  1.1476500090594D-01  1.0848524344037D+00
181  1.8000000000000D+00  1.2013830766667D-01  1.0728031828178D+00
182  1.8100000000000D+00  1.2509348558385D-01  1.0599900408408D+00
183  1.8200000000000D+00  1.2963008392228D-01  1.0464269694707D+00
184  1.8300000000000D+00  1.3374714900992D-01  1.0321274251369D+00
185  1.8400000000000D+00  1.3744552265361D-01  1.0171078657618D+00
186  1.8500000000000D+00  1.4072650805162D-01  1.0013857493934D+00
187  1.8600000000000D+00  1.4359216905594D-01  9.8497990507063D-01
188  1.8700000000000D+00  1.4604614691299D-01  9.6791177928207D-01
189  1.8800000000000D+00  1.4809168518259D-01  9.5020250666089D-01
190  1.8900000000000D+00  1.4973473873151D-01  9.3187732821619D-01
191  1.9000000000000D+00  1.5097981257801D-01  9.1295980640537D-01
192  1.9100000000000D+00  1.5183474567869D-01  8.9347823981607D-01
193  1.9200000000000D+00  1.5230616889194D-01  8.7345970237230D-01
194  1.9300000000000D+00  1.5240287832806D-01  8.5293425854363D-01
195  1.9400000000000D+00  1.5213387885848D-01  8.3193261999462D-01
196  1.9500000000000D+00  1.5150885960086D-01  8.1048658265705D-01
197  1.9600000000000D+00  1.5053904282469D-01  7.8863000651862D-01
198  1.9700000000000D+00  1.4923506610802D-01  7.6639657785015D-01
199  1.9800000000000D+00  1.4760988569560D-01  7.4382248081979D-01
200  1.9900000000000D+00  1.4567575507026D-01  7.2094387332569D-01
201  2.0000000000000D+00  1.4344647795877D-01  6.9779832162949D-01
202  2.0100000000000D+00  1.4093614426761D-01  6.7442422429777D-01
203  2.0200000000000D+00  1.3815925582957D-01  6.5086061796046D-01
204  2.0300000000000D+00  1.3513134830784D-01  6.2714719166894D-01
205  2.0400000000000D+00  1.3186789488496D-01  6.0332488054819D-01
206  2.0500000000000D+00  1.2838527673967D-01  5.7943398973523D-01
207  2.0600000000000D+00  1.2470013492951D-01  5.5551646476335D-01
208  2.0700000000000D+00  1.2082942162166D-01  5.3161391765742D-01
209  2.0800000000000D+00  1.1679043264419D-01  5.0776779299804D-01
210  2.0900000000000D+00  1.1260108707050D-01  4.8402183815827D-01
211  2.1000000000000D+00  1.0827881975824D-01  4.6041643883434D-01
212  2.1100000000000D+00  1.0384205811948D-01  4.3699518293540D-01
213  2.1200000000000D+00  9.9308833894778D-02  4.1379976821421D-01
214  2.1300000000000D+00  9.4697064392612D-02  3.9087094086038D-01
215  2.1400000000000D+00  9.0026046167148D-02  3.6825320125315D-01
216  2.1500000000000D+00  8.5312897135343D-02  3.4598441186183D-01
217  2.1600000000000D+00  8.0576518474321D-02  3.2410703697173D-01
218  2.1700000000000D+00  7.5835005913936D-02  3.0266116815397D-01
219  2.1800000000000D+00  7.1105376008176D-02  2.8168381032598D-01
220  2.1900000000000D+00  6.6407004146311D-02  2.6121761869807D-01
221  2.2000000000000D+00  6.1755692370773D-02  2.4129631076422D-01
222  2.2100000000000D+00  5.7168887680115D-02  2.2195733354199D-01
223  2.2200000000000D+00  5.2664315719543D-02  2.0323861733066D-01
224  2.2300000000000D+00  4.8256381183762D-02  1.8517018369590D-01
225  2.2400000000000D+00  4.3962599748925D-02  1.6778898124257D-01
226  2.2500000000000D+00  3.9797460245564D-02  1.5112500515057D-01
227  2.2600000000000D+00  3.5774499889686D-02  1.3520595112270D-01
228  2.2700000000000D+00  3.1910724462341D-02  1.2006698233659D-01
229  2.2800000000000D+00  2.8216655718872D-02  1.0572897133431D-01
230  2.2900000000000D+00  2.4705565332917D-02  9.2218600709297D-02
231  2.3000000000000D+00  2.1391289577930D-02  7.9563621223102D-02
232  2.3100000000000D+00  1.8282123047438D-02  6.7779819867739D-02
233  2.3200000000000D+00  1.5390315717011D-02  5.6891217149577D-02
234  2.3300000000000D+00  1.2725444452590D-02  4.6916091316664D-02
235  2.3400000000000D+00  1.0293967549122D-02  3.7866044575138D-02
236  2.3500000000000D+00  8.1065636852069D-03  2.9761318550397D-02
237  2.3600000000000D+00  6.1682222408950D-03  2.2610252096571D-02
238  2.3700000000000D+00  4.4834148490315D-03  1.6419976812480D-02
239  2.3800000000000D+00  3.0608334227384D-03  1.1206151227659D-02
240  2.3900000000000D+00  1.9008094027444D-03  6.9671806176837D-03
241  2.4000000000000D+00  1.0087576250915D-03  3.7165384457414D-03
242  2.4100000000000D+00  4.3459942557780D-04  1.6262974883805D-03
243  2.4200000000000D+00  8.3681087796304D-05  3.5085329681853D-04
244  2.4300000000000D+00 -8.6415273544993D-05 -2.7036845468082D-04
245  2.4400000000000D+00 -1.1655018381701D-04 -3.9580104822044D-04
246  2.4500000000000D+00 -6.3182136876549D-05 -2.1865417886699D-04
247  2.4600000000000D+00  1.8230476011385D-06  5.4113442763280D-06
248  2.4700000000000D+00  4.6299649034995D-06  1.3743104713506D-05
249  2.4800000000000D+00  2.6822870924883D-06  7.9618211265250D-06
250  2.4900000000000D+00  0.0000000000000D+00  0.0000000000000D+00
251  2.5000000000000D+00  0.0000000000000D+00  0.0000000000000D+00
252  2.5100000000000D+00  0.0000000000000D+00  0.0000000000000D+00
253  2.5200000000000D+00  0.0000000000000D+00  0.0000000000000D+00
254  2.5300000000000D+00  0.0000000000000D+00  0.0000000000000D+00
255  2.5400000000000D+00  0.0000000000000D+00  0.0000000000000D+00
256  2.5500000000000D+00  0.0000000000000D+00  0.0000000000000D+00
257  2.5600000000000D+00  0.0000000000000D+00  0.0000000000000D+00
258  2.5700000000000D+00  0.0000000000000D+00  0.0000000000000D+00
259  2.5800000000000D+00  0.0000000000000D+00  0.0000000000000D+00
260  2.5900000000000D+00  0.0000000000000D+00  0.0000000000000D+00
261  2.6000000000000D+00  0.0000000000000D+00  0.0000000000000D+00
262  2.6100000000000D+00  0.0000000000000D+00  0.0000000000000D+00
263  2.6200000000000D+00  0.0000000000000D+00  0.0000000000000D+00
264  2.6300000000000D+00  0.0000000000000D+00  0.0000000000000D+00
265  2.6400000000000D+00  0.0000000000000D+00  0.0000000000000D+00
266  2.6500000000000D+00  0.0000000000000D+00  0.0000000000000D+00
267  2.6600000000000D+00  0.0000000000000D+00  0.0000000000000D+00
268  2.6700000000000D+00  0.0000000000000D+00  0.0000000000000D+00
269  2.6800000000000D+00  0.0000000000000D+00  0.0000000000000D+00
270  2.6900000000000D+00  0.0000000000000D+00  0.0000000000000D+00
271  2.7000000000000D+00  0.0000000000000D+00  0.0000000000000D+00
272  2.7100000000000D+00  0.0000000000000D+00  0.0000000000000D+00
273  2.7200000000000D+00  0.0000000000000D+00  0.0000000000000D+00
274  2.7300000000000D+00  0.0000000000000D+00  0.0000000000000D+00
275  2.7400000000000D+00  0.0000000000000D+00  0.0000000000000D+00
276  2.7500000000000D+00  0.0000000000000D+00  0.0000000000000D+00
277  2.7600000000000D+00  0.0000000000000D+00  0.0000000000000D+00
278  2.7700000000000D+00  0.0000000000000D+00  0.0000000000000D+00
279  2.7800000000000D+00  0.0000000000000D+00  0.0000000000000D+00
280  2.7900000000000D+00  0.0000000000000D+00  0.0000000000000D+00
281  2.8000000000000D+00  0.0000000000000D+00  0.0000000000000D+00
282  2.8100000000000D+00  0.0000000000000D+00  0.0000000000000D+00
283  2.8200000000000D+00  0.0000000000000D+00  0.0000000000000D+00
284  2.8300000000000D+00  0.0000000000000D+00  0.0000000000000D+00
285  2.8400000000000D+00  0.0000000000000D+00  0.0000000000000D+00
286  2.8500000000000D+00  0.0000000000000D+00  0.0000000000000D+00
287  2.8600000000000D+00  0.0000000000000D+00  0.0000000000000D+00
288  2.8700000000000D+00  0.0000000000000D+00  0.0000000000000D+00
289  2.8800000000000D+00  0.0000000000000D+00  0.0000000000000D+00
290  2.8900000000000D+00  0.0000000000000D+00  0.0000000000000D+00
291  2.9000000000000D+00  0.0000000000000D+00  0.0000000000000D+00
292  2.9100000000000D+00  0.0000000000000D+00  0.0000000000000D+00
293  2.9200000000000D+00  0.0000000000000D+00  0.0000000000000D+00
294  2.9300000000000D+00  0.0000000000000D+00  0.0000000000000D+00
295  2.9400000000000D+00  0.0000000000000D+00  0.0000000000000D+00
296  2.9500000000000D+00  0.0000000000000D+00  0.0000000000000D+00
297  2.9600000000000D+00  0.0000000000000D+00  0.0000000000000D+00
298  2.9700000000000D+00  0.0000000000000D+00  0.0000000000000D+00
299  2.9800000000000D+00  0.0000000000000D+00  0.0000000000000D+00
300  2.9900000000000D+00  0.0000000000000D+00  0.0000000000000D+00
301  3.0000000000000D+00  0.0000000000000D+00  0.0000000000000D+00
302  3.0100000000000D+00  0.0000000000000D+00  0.0000000000000D+00
303  3.0200000000000D+00  0.0000000000000D+00  0.0000000000000D+00
304  3.0300000000000D+00  0.0000000000000D+00  0.0000000000000D+00
305  3.0400000000000D+00  0.0000000000000D+00  0.0000000000000D+00
306  3.0500000000000D+00  0.0000000000000D+00  0.0000000000000D+00
307  3.0600000000000D+00  0.0000000000000D+00  0.0000000000000D+00
308  3.0700000000000D+00  0.0000000000000D+00  0.0000000000000D+00
309  3.0800000000000D+00  0.0000000000000D+00  0.0000000000000D+00
310  3.0900000000000D+00  0.0000000000000D+00  0.0000000000000D+00
311  3.1000000000000D+00  0.0000000000000D+00  0.0000000000000D+00
312  3.1100000000000D+00  0.0000000000000D+00  0.0000000000000D+00
313  3.1200000000000D+00  0.0000000000000D+00  0.0000000000000D+00
314  3.1300000000000D+00  0.0000000000000D+00  0.0000000000000D+00
315  3.1400000000000D+00  0.0000000000000D+00  0.0000000000000D+00
316  3.1500000000000D+00  0.0000000000000D+00  0.0000000000000D+00
317  3.1600000000000D+00  0.0000000000000D+00  0.0000000000000D+00
318  3.1700000000000D+00  0.0000000000000D+00  0.0000000000000D+00
319  3.1800000000000D+00  0.0000000000000D+00  0.0000000000000D+00
320  3.1900000000000D+00  0.0000000000000D+00  0.0000000000000D+00
321  3.2000000000000D+00  0.0000000000000D+00  0.0000000000000D+00
322  3.2100000000000D+00  0.0000000000000D+00  0.0000000000000D+00
323  3.2200000000000D+00  0.0000000000000D+00  0.0000000000000D+00
324  3.2300000000000D+00  0.0000000000000D+00  0.0000000000000D+00
325  3.2400000000000D+00  0.0000000000000D+00  0.0000000000000D+00
326  3.2500000000000D+00  0.0000000000000D+00  0.0000000000000D+00
327  3.2600000000000D+00  0.0000000000000D+00  0.0000000000000D+00
328  3.2700000000000D+00  0.0000000000000D+00  0.0000000000000D+00
329  3.2800000000000D+00  0.0000000000000D+00  0.0000000000000D+00
330  3.2900000000000D+00  0.0000000000000D+00  0.0000000000000D+00
331  3.3000000000000D+00  0.0000000000000D+00  0.0000000000000D+00
332  3.3100000000000D+00  0.0000000000000D+00  0.0000000000000D+00
333  3.3200000000000D+00  0.0000000000000D+00  0.0000000000000D+00
334  3.3300000000000D+00  0.0000000000000D+00  0.0000000000000D+00
335  3.3400000000000D+00  0.0000000000000D+00  0.0000000000000D+00
336  3.3500000000000D+00  0.0000000000000D+00  0.0000000000000D+00
337  3.3600000000000D+00  0.0000000000000D+00  0.0000000000000D+00
338  3.3700000000000D+00  0.0000000000000D+00  0.0000000000000D+00
339  3.3800000000000D+00  0.0000000000000D+00  0.0000000000000D+00
340  3.3900000000000D+00  0.0000000000000D+00  0.0000000000000D+00
341  3.4000000000000D+00  0.0000000000000D+00  0.0000000000000D+00
342  3.4100000000000D+00  0.0000000000000D+00  0.0000000000000D+00
343  3.4200000000000D+00  0.0000000000000D+00  0.0000000000000D+00
344  3.4300000000000D+00  0.0000000000000D+00  0.0000000000000D+00
345  3.4400000000000D+00  0.0000000000000D+00  0.0000000000000D+00
346  3.4500000000000D+00  0.0000000000000D+00  0.0000000000000D+00
347  3.4600000000000D+00  0.0000000000000D+00  0.0000000000000D+00
348  3.4700000000000D+00  0.0000000000000D+00  0.0000000000000D+00
349  3.4800000000000D+00  0.0000000000000D+00  0.0000000000000D+00
350  3.4900000000000D+00  0.0000000000000D+00  0.0000000000000D+00
351  3.5000000000000D+00  0.0000000000000D+00  0.0000000000000D+00
352  3.5100000000000D+00  0.0000000000000D+00  0.0000000000000D+00
353  3.5200000000000D+00  0.0000000000000D+00  0.0000000000000D+00
354  3.5300000000000D+00  0.0000000000000D+00  0.0000000000000D+00
355  3.5400000000000D+00  0.0000000000000D+00  0.0000000000000D+00
356  3.5500000000000D+00  0.0000000000000D+00  0.0000000000000D+00
357  3.5600000000000D+00  0.0000000000000D+00  0.0000000000000D+00
358  3.5700000000000D+00  0.0000000000000D+00  0.0000000000000D+00
359  3.5800000000000D+00  0.0000000000000D+00  0.0000000000000D+00
360  3.5900000000000D+00  0.0000000000000D+00  0.0000000000000D+00
361  3.6000000000000D+00  0.0000000000000D+00  0.0000000000000D+00
362  3.6100000000000D+00  0.0000000000000D+00  0.0000000000000D+00
363  3.6200000000000D+00  0.0000000000000D+00  0.0000000000000D+00
364  3.6300000000000D+00  0.0000000000000D+00  0.0000000000000D+00
365  3.6400000000000D+00  0.0000000000000D+00  0.0000000000000D+00
366  3.6500000000000D+00  0.0000000000000D+00  0.0000000000000D+00
367  3.6600000000000D+00  0.0000000000000D+00  0.0000000000000D+00
368  3.6700000000000D+00  0.0000000000000D+00  0.0000000000000D+00
369  3.6800000000000D+00  0.0000000000000D+00  0.0000000000000D+00
370  3.6900000000000D+00  0.0000000000000D+00  0.0000000000000D+00
371  3.7000000000000D+00  0.0000000000000D+00  0.0000000000000D+00
372  3.7100000000000D+00  0.0000000000000D+00  0.0000000000000D+00
373  3.7200000000000D+00  0.0000000000000D+00  0.0000000000000D+00
374  3.7300000000000D+00  0.0000000000000D+00  0.0000000000000D+00
375  3.7400000000000D+00  0.0000000000000D+00  0.0000000000000D+00
376  3.7500000000000D+00  0.0000000000000D+00  0.0000000000000D+00
377  3.7600000000000D+00  0.0000000000000D+00  0.0000000000000D+00
378  3.7700000000000D+00  0.0000000000000D+00  0.0000000000000D+00
379  3.7800000000000D+00  0.0000000000000D+00  0.0000000000000D+00
380  3.7900000000000D+00  0.0000000000000D+00  0.0000000000000D+00
381  3.8000000000000D+00  0.0000000000000D+00  0.0000000000000D+00
382  3.8100000000000D+00  0.0000000000000D+00  0.0000000000000D+00
383  3.8200000000000D+00  0.0000000000000D+00  0.0000000000000D+00
384  3.8300000000000D+00  0.0000000000000D+00  0.0000000000000D+00
385  3.8400000000000D+00  0.0000000000000D+00  0.0000000000000D+00
386  3.8500000000000D+00  0.0000000000000D+00  0.0000000000000D+00
387  3.8600000000000D+00  0.0000000000000D+00  0.0000000000000D+00
388  3.8700000000000D+00  0.0000000000000D+00  0.0000000000000D+00
389  3.8800000000000D+00  0.0000000000000D+00  0.0000000000000D+00
390  3.8900000000000D+00  0.0000000000000D+00  0.0000000000000D+00
391  3.9000000000000D+00  0.0000000000000D+00  0.0000000000000D+00
392  3.9100000000000D+00  0.0000000000000D+00  0.0000000000000D+00
393  3.9200000000000D+00  0.0000000000000D+00  0.0000000000000D+00
394  3.9300000000000D+00  0.0000000000000D+00  0.0000000000000D+00
395  3.9400000000000D+00  0.0000000000000D+00  0.0000000000000D+00
396  3.9500000000000D+00  0.0000000000000D+00  0.0000000000000D+00
397  3.9600000000000D+00  0.0000000000000D+00  0.0000000000000D+00
398  3.9700000000000D+00  0.0000000000000D+00  0.0000000000000D+00
399  3.9800000000000D+00  0.0000000000000D+00  0.0000000000000D+00
400  3.9900000000000D+00  0.0000000000000D+00  0.0000000000000D+00
401  4.0000000000000D+00  0.0000000000000D+00  0.0000000000000D+00
402  4.0100000000000D+00  0.0000000000000D+00  0.0000000000000D+00
403  4.0200000000000D+00  0.0000000000000D+00  0.0000000000000D+00
404  4.0300000000000D+00  0.0000000000000D+00  0.0000000000000D+00
405  4.0400000000000D+00  0.0000000000000D+00  0.0000000000000D+00
406  4.0500000000000D+00  0.0000000000000D+00  0.0000000000000D+00
407  4.0600000000000D+00  0.0000000000000D+00  0.0000000000000D+00
408  4.0700000000000D+00  0.0000000000000D+00  0.0000000000000D+00
409  4.0800000000000D+00  0.0000000000000D+00  0.0000000000000D+00
410  4.0900000000000D+00  0.0000000000000D+00  0.0000000000000D+00
411  4.1000000000000D+00  0.0000000000000D+00  0.0000000000000D+00
412  4.1100000000000D+00  0.0000000000000D+00  0.0000000000000D+00
413  4.1200000000000D+00  0.0000000000000D+00  0.0000000000000D+00
414  4.1300000000000D+00  0.0000000000000D+00  0.0000000000000D+00
415  4.1400000000000D+00  0.0000000000000D+00  0.0000000000000D+00
416  4.1500000000000D+00  0.0000000000000D+00  0.0000000000000D+00
417  4.1600000000000D+00  0.0000000000000D+00  0.0000000000000D+00
418  4.1700000000000D+00  0.0000000000000D+00  0.0000000000000D+00
419  4.1800000000000D+00  0.0000000000000D+00  0.0000000000000D+00
420  4.1900000000000D+00  0.0000000000000D+00  0.0000000000000D+00
421  4.2000000000000D+00  0.0000000000000D+00  0.0000000000000D+00
422  4.2100000000000D+00  0.0000000000000D+00  0.0000000000000D+00
423  4.2200000000000D+00  0.0000000000000D+00  0.0000000000000D+00
424  4.2300000000000D+00  0.0000000000000D+00  0.0000000000000D+00
425  4.2400000000000D+00  0.0000000000000D+00  0.0000000000000D+00
426  4.2500000000000D+00  0.0000000000000D+00  0.0000000000000D+00
427  4.2600000000000D+00  0.0000000000000D+00  0.0000000000000D+00
428  4.2700000000000D+00  0.0000000000000D+00  0.0000000000000D+00
429  4.2800000000000D+00  0.0000000000000D+00  0.0000000000000D+00
430  4.2900000000000D+00  0.0000000000000D+00  0.0000000000000D+00
431  4.3000000000000D+00  0.0000000000000D+00  0.0000000000000D+00
432  4.3100000000000D+00  0.0000000000000D+00  0.0000000000000D+00
433  4.3200000000000D+00  0.0000000000000D+00  0.0000000000000D+00
434  4.3300000000000D+00  0.0000000000000D+00  0.0000000000000D+00
435  4.3400000000000D+00  0.0000000000000D+00  0.0000000000000D+00
436  4.3500000000000D+00  0.0000000000000D+00  0.0000000000000D+00
437  4.3600000000000D+00  0.0000000000000D+00  0.0000000000000D+00
438  4.3700000000000D+00  0.0000000000000D+00  0.0000000000000D+00
439  4.3800000000000D+00  0.0000000000000D+00  0.0000000000000D+00
440  4.3900000000000D+00  0.0000000000000D+00  0.0000000000000D+00
441  4.4000000000000D+00  0.0000000000000D+00  0.0000000000000D+00
442  4.4100000000000D+00  0.0000000000000D+00  0.0000000000000D+00
443  4.4200000000000D+00  0.0000000000000D+00  0.0000000000000D+00
444  4.4300000000000D+00  0.0000000000000D+00  0.0000000000000D+00