Cr    ONCVPSP  r_core=  1.31  1.26  1.76
24.0000     14.0000      140827    zatom,zion,pspd
8    11     2     4   601     0    pspcod,pspxc,lmax,lloc,mmax,r2well
6.00000000  0.07000000  0.00000000    rchrg fchrg qchrg
2     2     2     0     0    nproj
0                 extension_switch
0                         3.4699483597933D+01  2.8425385082633D+00
1  0.0000000000000D+00 -0.0000000000000D+00 -0.0000000000000D+00
2  1.0000000000000D-02 -8.8168495928829D-02 -1.8478955292301D-02
3  2.0000000000000D-02 -1.7615396880693D-01 -3.6874280835831D-02
4  3.0000000000000D-02 -2.6377243290548D-01 -5.5104494421758D-02
5  4.0000000000000D-02 -3.5083800201416D-01 -7.3092375037692D-02
6  5.0000000000000D-02 -4.3716200103832D-01 -9.0767009196184D-02
7  6.0000000000000D-02 -5.2255215082784D-01 -1.0806573736609D-01
8  7.0000000000000D-02 -6.0681184904089D-01 -1.2493596922898D-01
9  8.0000000000000D-02 -6.8973956848495D-01 -1.4133683820447D-01
10  9.0000000000000D-02 -7.7112839272673D-01 -1.5724066774911D-01
11  1.0000000000000D-01 -8.5076570678791D-01 -1.7263422446247D-01
12  1.1000000000000D-01 -9.2843305855952D-01 -1.8751973573575D-01
13  1.2000000000000D-01 -1.0039062040857D+00 -2.0191565286146D-01
14  1.3000000000000D-01 -1.0769553471995D+00 -2.1585714380702D-01
15  1.4000000000000D-01 -1.1473455812217D+00 -2.2939630365368D-01
16  1.5000000000000D-01 -1.2148375372587D+00 -2.4260207403105D-01
17  1.6000000000000D-01 -1.2791882410214D+00 -2.5555986739202D-01
18  1.7000000000000D-01 -1.3401521757833D+00 -2.6837089559283D-01
19  1.8000000000000D-01 -1.3974825481500D+00 -2.8115120615727D-01
20  1.9000000000000D-01 -1.4509327469484D+00 -2.9403043437072D-01
21  2.0000000000000D-01 -1.5002579861608D+00 -3.0715028189933D-01
22  2.1000000000000D-01 -1.5452171152255D+00 -3.2066273928915D-01
23  2.2000000000000D-01 -1.5855745822846D+00 -3.3472806976207D-01
24  2.3000000000000D-01 -1.6211025301729D+00 -3.4951257720682D-01
25  2.4000000000000D-01 -1.6515830023284D+00 -3.6518618498285D-01
26  2.5000000000000D-01 -1.6768102263860D+00 -3.8191986304794D-01
27  2.6000000000000D-01 -1.6965929778234D+00 -3.9988290484970D-01
28  2.7000000000000D-01 -1.7107569461630D+00 -4.1924013951212D-01
29  2.8000000000000D-01 -1.7191471207227D+00 -4.4014906689370D-01
30  2.9000000000000D-01 -1.7216301424816D+00 -4.6275697638534D-01
31  3.0000000000000D-01 -1.7180965943465D+00 -4.8719808442056D-01
32  3.1000000000000D-01 -1.7084631993264D+00 -5.1359072852061D-01
33  3.2000000000000D-01 -1.6926748939821D+00 -5.4203465832569D-01
34  3.3000000000000D-01 -1.6707067265092D+00 -5.7260848709704D-01
35  3.4000000000000D-01 -1.6425656302438D+00 -6.0536724160965D-01
36  3.5000000000000D-01 -1.6082918920098D+00 -6.4034023408626D-01
37  3.6000000000000D-01 -1.5679604780982D+00 -6.7752905472971D-01
38  3.7000000000000D-01 -1.5216819743578D+00 -7.1690599544701D-01
39  3.8000000000000D-01 -1.4696033914053D+00 -7.5841257668753D-01
40  3.9000000000000D-01 -1.4119085105072D+00 -8.0195860666798D-01
41  4.0000000000000D-01 -1.3488179842565D+00 -8.4742149015767D-01
42  4.1000000000000D-01 -1.2805890831226D+00 -8.9464593085685D-01
43  4.2000000000000D-01 -1.2075150891620D+00 -9.4344402786396D-01
44  4.3000000000000D-01 -1.1299243330742D+00 -9.9359577340514D-01
45  4.4000000000000D-01 -1.0481788727160D+00 -1.0448499568430D+00
46  4.5000000000000D-01 -9.6267281461380D-01 -1.0969254758693D+00
47  4.6000000000000D-01 -8.7383028377037D-01 -1.1495130513838D+00
48  4.7000000000000D-01 -7.8210305159133D-01 -1.2022773373762D+00
49  4.8000000000000D-01 -6.8796783761798D-01 -1.2548594105294D+00
50  4.9000000000000D-01 -5.9192335129745D-01 -1.3068795841825D+00
51  5.0000000000000D-01 -4.9448693367976D-01 -1.3579406299855D+00
52  5.1000000000000D-01 -3.9619098083375D-01 -1.4076313072281D+00
53  5.2000000000000D-01 -2.9757933361948D-01 -1.4555299870949D+00
54  5.3000000000000D-01 -1.9920313497139D-01 -1.5012087827169D+00
55  5.4000000000000D-01 -1.0161657963551D-01 -1.5442378667282D+00
56  5.5000000000000D-01 -5.3732519230468D-03 -1.5841892737981D+00
57  5.6000000000000D-01  8.8979371300701D-02 -1.6206424251560D+00
58  5.7000000000000D-01  1.8090270694049D-01 -1.6531871596637D+00
59  5.8000000000000D-01  2.6987339695600D-01 -1.6814301050525D+00
60  5.9000000000000D-01  3.5538544138823D-01 -1.7049970608858D+00
61  6.0000000000000D-01  4.3695674222780D-01 -1.7235396121122D+00
62  6.1000000000000D-01  5.1413123395853D-01 -1.7367374571074D+00
63  6.2000000000000D-01  5.8648390088437D-01 -1.7443035208815D+00
64  6.3000000000000D-01  6.5362468298234D-01 -1.7459879623551D+00
65  6.4000000000000D-01  7.1520049224248D-01 -1.7415802750339D+00
66  6.5000000000000D-01  7.7090010674992D-01 -1.7309141951060D+00
67  6.6000000000000D-01  8.2045621254777D-01 -1.7138697389552D+00
68  6.7000000000000D-01  8.6364729379585D-01 -1.6903750378475D+00
69  6.8000000000000D-01  9.0029987140932D-01 -1.6604084649729D+00
70  6.9000000000000D-01  9.3029136611187D-01 -1.6240013032864D+00
71  7.0000000000000D-01  9.5354961711314D-01 -1.5812370534994D+00
72  7.1000000000000D-01  9.7005408167129D-01 -1.5322523306589D+00
73  7.2000000000000D-01  9.7983580725454D-01 -1.4772364899781D+00
74  7.3000000000000D-01  9.8297769926216D-01 -1.4164314395222D+00
75  7.4000000000000D-01  9.7961360111708D-01 -1.3501302132832D+00
76  7.5000000000000D-01  9.6992654250657D-01 -1.2786746943094D+00
77  7.6000000000000D-01  9.5414722493207D-01 -1.2024534662297D+00
78  7.7000000000000D-01  9.3255180276837D-01 -1.1218989140390D+00
79  7.8000000000000D-01  9.0545921746313D-01 -1.0374838235045D+00
80  7.9000000000000D-01  8.7322811012702D-01 -9.4971750985327D-01
81  8.0000000000000D-01  8.3625334269357D-01 -8.5914151226527D-01
82  8.1000000000000D-01  7.9496216237025D-01 -7.6632489609889D-01
83  8.2000000000000D-01  7.4981004821400D-01 -6.7185920966987D-01
84  8.3000000000000D-01  7.0127629180154D-01 -5.7635316223336D-01
85  8.4000000000000D-01  6.4985931585431D-01 -4.8042700667066D-01
86  8.5000000000000D-01  5.9607180889134D-01 -3.8470675514278D-01
87  8.6000000000000D-01  5.4043589130033D-01 -2.8981849519880D-01
88  8.7000000000000D-01  4.8347789589908D-01 -1.9638220131686D-01
89  8.8000000000000D-01  4.2572337794671D-01 -1.0500593278723D-01
90  8.9000000000000D-01  3.6769205933920D-01 -1.6279957834819D-02
91  9.0000000000000D-01  3.0989286364579D-01  6.9228973711110D-02
92  9.1000000000000D-01  2.5281909188801D-01  1.5098315257151D-01
93  9.2000000000000D-01  1.9694378961929D-01  2.2847916747780D-01
94  9.3000000000000D-01  1.4271535728442D-01  3.0125283622456D-01
95  9.4000000000000D-01  9.0553453609849D-02  3.6888375147618D-01
96  9.5000000000000D-01  4.0845238671591D-02  4.3099938645089D-01
97  9.6000000000000D-01 -6.0580008175450D-03  4.8727871080600D-01
98  9.7000000000000D-01 -4.9843806681367D-02  5.3745527362623D-01
99  9.8000000000000D-01 -9.0240037012605D-02  5.8131852256296D-01
100  9.9000000000000D-01 -1.2701883209611D-01  6.1871804326381D-01
101  1.0000000000000D+00 -1.5999881655654D-01  6.4956557621230D-01
102  1.0100000000000D+00 -1.8904365276068D-01  6.7383277161609D-01
103  1.0200000000000D+00 -2.1406355595413D-01  6.9155240682156D-01
104  1.0300000000000D+00 -2.3501525938770D-01  7.0281774025120D-01
105  1.0400000000000D+00 -2.5190025423460D-01  7.0777992812264D-01
106  1.0500000000000D+00 -2.6476647890560D-01  7.0664923027611D-01
107  1.0600000000000D+00 -2.7370739708134D-01  6.9969298131207D-01
108  1.0700000000000D+00 -2.7885634711835D-01  6.8722857191528D-01
109  1.0800000000000D+00 -2.8038560655423D-01  6.6962153899728D-01
110  1.0900000000000D+00 -2.7850247042947D-01  6.4728068489508D-01
111  1.1000000000000D+00 -2.7345018168942D-01  6.2065741678000D-01
112  1.1100000000000D+00 -2.6550093312608D-01  5.9023706358707D-01
113  1.1200000000000D+00 -2.5495148292705D-01  5.5653340272665D-01
114  1.1300000000000D+00 -2.4212017434881D-01  5.2008484675365D-01
115  1.1400000000000D+00 -2.2734394378586D-01  4.8144907181536D-01
116  1.1500000000000D+00 -2.1097146278926D-01  4.4119381596828D-01
117  1.1600000000000D+00 -1.9335927710484D-01  3.9989305686254D-01
118  1.1700000000000D+00 -1.7487057008880D-01  3.5812573049188D-01
119  1.1800000000000D+00 -1.5586533884845D-01  3.1645989615947D-01
120  1.1900000000000D+00 -1.3669754174113D-01  2.7545103942143D-01
121  1.2000000000000D+00 -1.1771483939480D-01  2.3564230774483D-01
122  1.2100000000000D+00 -9.9253905238853D-02  1.9755752167951D-01
123  1.2200000000000D+00 -8.1626566055829D-02  1.6168110645249D-01
124  1.2300000000000D+00 -6.5129160922302D-02  1.2847334358057D-01
125  1.2400000000000D+00 -5.0043210343768D-02  9.8371281011323D-02
126  1.2500000000000D+00 -3.6608228929338D-02  7.1748704981720D-02
127  1.2600000000000D+00 -2.5043212724743D-02  4.8948790132192D-02
128  1.2700000000000D+00 -1.5551342849690D-02  3.0290634596501D-02
129  1.2800000000000D+00 -8.2695598403452D-03  1.5996579515969D-02
130  1.2900000000000D+00 -3.3012396570076D-03  6.2407834301758D-03
131  1.3000000000000D+00 -9.0695607029338D-04  1.5140215243916D-03
132  1.3100000000000D+00 -5.8348894180554D-05 -8.0920502115016D-05
133  1.3200000000000D+00  2.3201919967914D-05 -6.9008596979500D-05
134  1.3300000000000D+00  1.8843269311571D-05 -2.0623877081703D-05
135  1.3400000000000D+00  0.0000000000000D+00  0.0000000000000D+00
136  1.3500000000000D+00  0.0000000000000D+00  0.0000000000000D+00
137  1.3600000000000D+00  0.0000000000000D+00  0.0000000000000D+00
138  1.3700000000000D+00  0.0000000000000D+00  0.0000000000000D+00
139  1.3800000000000D+00  0.0000000000000D+00  0.0000000000000D+00
140  1.3900000000000D+00  0.0000000000000D+00  0.0000000000000D+00
141  1.4000000000000D+00  0.0000000000000D+00  0.0000000000000D+00
142  1.4100000000000D+00  0.0000000000000D+00  0.0000000000000D+00
143  1.4200000000000D+00  0.0000000000000D+00  0.0000000000000D+00
144  1.4300000000000D+00  0.0000000000000D+00  0.0000000000000D+00
145  1.4400000000000D+00  0.0000000000000D+00  0.0000000000000D+00
146  1.4500000000000D+00  0.0000000000000D+00  0.0000000000000D+00
147  1.4600000000000D+00  0.0000000000000D+00  0.0000000000000D+00
148  1.4700000000000D+00  0.0000000000000D+00  0.0000000000000D+00
149  1.4800000000000D+00  0.0000000000000D+00  0.0000000000000D+00
150  1.4900000000000D+00  0.0000000000000D+00  0.0000000000000D+00
151  1.5000000000000D+00  0.0000000000000D+00  0.0000000000000D+00
152  1.5100000000000D+00  0.0000000000000D+00  0.0000000000000D+00
153  1.5200000000000D+00  0.0000000000000D+00  0.0000000000000D+00
154  1.5300000000000D+00  0.0000000000000D+00  0.0000000000000D+00
155  1.5400000000000D+00  0.0000000000000D+00  0.0000000000000D+00
156  1.5500000000000D+00  0.0000000000000D+00  0.0000000000000D+00
157  1.5600000000000D+00  0.0000000000000D+00  0.0000000000000D+00
158  1.5700000000000D+00  0.0000000000000D+00  0.0000000000000D+00
159  1.5800000000000D+00  0.0000000000000D+00  0.0000000000000D+00
160  1.5900000000000D+00  0.0000000000000D+00  0.0000000000000D+00
161  1.6000000000000D+00  0.0000000000000D+00  0.0000000000000D+00
162  1.6100000000000D+00  0.0000000000000D+00  0.0000000000000D+00
163  1.6200000000000D+00  0.0000000000000D+00  0.0000000000000D+00
164  1.6300000000000D+00  0.0000000000000D+00  0.0000000000000D+00
165  1.6400000000000D+00  0.0000000000000D+00  0.0000000000000D+00
166  1.6500000000000D+00  0.0000000000000D+00  0.0000000000000D+00
167  1.6600000000000D+00  0.0000000000000D+00  0.0000000000000D+00
168  1.6700000000000D+00  0.0000000000000D+00  0.0000000000000D+00
169  1.6800000000000D+00  0.0000000000000D+00  0.0000000000000D+00
170  1.6900000000000D+00  0.0000000000000D+00  0.0000000000000D+00
171  1.7000000000000D+00  0.0000000000000D+00  0.0000000000000D+00
172  1.7100000000000D+00  0.0000000000000D+00  0.0000000000000D+00
173  1.7200000000000D+00  0.0000000000000D+00  0.0000000000000D+00
174  1.7300000000000D+00  0.0000000000000D+00  0.0000000000000D+00
175  1.7400000000000D+00  0.0000000000000D+00  0.0000000000000D+00
176  1.7500000000000D+00  0.0000000000000D+00  0.0000000000000D+00
177  1.7600000000000D+00  0.0000000000000D+00  0.0000000000000D+00
178  1.7700000000000D+00  0.0000000000000D+00  0.0000000000000D+00
179  1.7800000000000D+00  0.0000000000000D+00  0.0000000000000D+00
180  1.7900000000000D+00  0.0000000000000D+00  0.0000000000000D+00
181  1.8000000000000D+00  0.0000000000000D+00  0.0000000000000D+00
182  1.8100000000000D+00  0.0000000000000D+00  0.0000000000000D+00
183  1.8200000000000D+00  0.0000000000000D+00  0.0000000000000D+00
184  1.8300000000000D+00  0.0000000000000D+00  0.0000000000000D+00
185  1.8400000000000D+00  0.0000000000000D+00  0.0000000000000D+00
186  1.8500000000000D+00  0.0000000000000D+00  0.0000000000000D+00
187  1.8600000000000D+00  0.0000000000000D+00  0.0000000000000D+00
188  1.8700000000000D+00  0.0000000000000D+00  0.0000000000000D+00
189  1.8800000000000D+00  0.0000000000000D+00  0.0000000000000D+00
190  1.8900000000000D+00  0.0000000000000D+00  0.0000000000000D+00
191  1.9000000000000D+00  0.0000000000000D+00  0.0000000000000D+00
192  1.9100000000000D+00  0.0000000000000D+00  0.0000000000000D+00
193  1.9200000000000D+00  0.0000000000000D+00  0.0000000000000D+00
194  1.9300000000000D+00  0.0000000000000D+00  0.0000000000000D+00
195  1.9400000000000D+00  0.0000000000000D+00  0.0000000000000D+00
196  1.9500000000000D+00  0.0000000000000D+00  0.0000000000000D+00
197  1.9600000000000D+00  0.0000000000000D+00  0.0000000000000D+00
198  1.9700000000000D+00  0.0000000000000D+00  0.0000000000000D+00
199  1.9800000000000D+00  0.0000000000000D+00  0.0000000000000D+00
200  1.9900000000000D+00  0.0000000000000D+00  0.0000000000000D+00
201  2.0000000000000D+00  0.0000000000000D+00  0.0000000000000D+00
202  2.0100000000000D+00  0.0000000000000D+00  0.0000000000000D+00
203  2.0200000000000D+00  0.0000000000000D+00  0.0000000000000D+00
204  2.0300000000000D+00  0.0000000000000D+00  0.0000000000000D+00
205  2.0400000000000D+00  0.0000000000000D+00  0.0000000000000D+00
206  2.0500000000000D+00  0.0000000000000D+00  0.0000000000000D+00
207  2.0600000000000D+00  0.0000000000000D+00  0.0000000000000D+00
208  2.0700000000000D+00  0.0000000000000D+00  0.0000000000000D+00
209  2.0800000000000D+00  0.0000000000000D+00  0.0000000000000D+00
210  2.0900000000000D+00  0.0000000000000D+00  0.0000000000000D+00
211  2.1000000000000D+00  0.0000000000000D+00  0.0000000000000D+00
212  2.1100000000000D+00  0.0000000000000D+00  0.0000000000000D+00
213  2.1200000000000D+00  0.0000000000000D+00  0.0000000000000D+00
214  2.1300000000000D+00  0.0000000000000D+00  0.0000000000000D+00
215  2.1400000000000D+00  0.0000000000000D+00  0.0000000000000D+00
216  2.1500000000000D+00  0.0000000000000D+00  0.0000000000000D+00
217  2.1600000000000D+00  0.0000000000000D+00  0.0000000000000D+00
218  2.1700000000000D+00  0.0000000000000D+00  0.0000000000000D+00
219  2.1800000000000D+00  0.0000000000000D+00  0.0000000000000D+00
220  2.1900000000000D+00  0.0000000000000D+00  0.0000000000000D+00
221  2.2000000000000D+00  0.0000000000000D+00  0.0000000000000D+00
222  2.2100000000000D+00  0.0000000000000D+00  0.0000000000000D+00
223  2.2200000000000D+00  0.0000000000000D+00  0.0000000000000D+00
224  2.2300000000000D+00  0.0000000000000D+00  0.0000000000000D+00
225  2.2400000000000D+00  0.0000000000000D+00  0.0000000000000D+00
226  2.2500000000000D+00  0.0000000000000D+00  0.0000000000000D+00
227  2.2600000000000D+00  0.0000000000000D+00  0.0000000000000D+00
228  2.2700000000000D+00  0.0000000000000D+00  0.0000000000000D+00
229  2.2800000000000D+00  0.0000000000000D+00  0.0000000000000D+00
230  2.2900000000000D+00  0.0000000000000D+00  0.0000000000000D+00
231  2.3000000000000D+00  0.0000000000000D+00  0.0000000000000D+00
232  2.3100000000000D+00  0.0000000000000D+00  0.0000000000000D+00
233  2.3200000000000D+00  0.0000000000000D+00  0.0000000000000D+00
234  2.3300000000000D+00  0.0000000000000D+00  0.0000000000000D+00
235  2.3400000000000D+00  0.0000000000000D+00  0.0000000000000D+00
236  2.3500000000000D+00  0.0000000000000D+00  0.0000000000000D+00
237  2.3600000000000D+00  0.0000000000000D+00  0.0000000000000D+00
238  2.3700000000000D+00  0.0000000000000D+00  0.0000000000000D+00
239  2.3800000000000D+00  0.0000000000000D+00  0.0000000000000D+00
240  2.3900000000000D+00  0.0000000000000D+00  0.0000000000000D+00
241  2.4000000000000D+00  0.0000000000000D+00  0.0000000000000D+00
242  2.4100000000000D+00  0.0000000000000D+00  0.0000000000000D+00
243  2.4200000000000D+00  0.0000000000000D+00  0.0000000000000D+00
244  2.4300000000000D+00  0.0000000000000D+00  0.0000000000000D+00
245  2.4400000000000D+00  0.0000000000000D+00  0.0000000000000D+00
246  2.4500000000000D+00  0.0000000000000D+00  0.0000000000000D+00
247  2.4600000000000D+00  0.0000000000000D+00  0.0000000000000D+00
248  2.4700000000000D+00  0.0000000000000D+00  0.0000000000000D+00
249  2.4800000000000D+00  0.0000000000000D+00  0.0000000000000D+00
250  2.4900000000000D+00  0.0000000000000D+00  0.0000000000000D+00
251  2.5000000000000D+00  0.0000000000000D+00  0.0000000000000D+00
252  2.5100000000000D+00  0.0000000000000D+00  0.0000000000000D+00
253  2.5200000000000D+00  0.0000000000000D+00  0.0000000000000D+00
254  2.5300000000000D+00  0.0000000000000D+00  0.0000000000000D+00
255  2.5400000000000D+00  0.0000000000000D+00  0.0000000000000D+00
256  2.5500000000000D+00  0.0000000000000D+00  0.0000000000000D+00
257  2.5600000000000D+00  0.0000000000000D+00  0.0000000000000D+00
258  2.5700000000000D+00  0.0000000000000D+00  0.0000000000000D+00
259  2.5800000000000D+00  0.0000000000000D+00  0.0000000000000D+00
260  2.5900000000000D+00  0.0000000000000D+00  0.0000000000000D+00
261  2.6000000000000D+00  0.0000000000000D+00  0.0000000000000D+00
262  2.6100000000000D+00  0.0000000000000D+00  0.0000000000000D+00
263  2.6200000000000D+00  0.0000000000000D+00  0.0000000000000D+00
264  2.6300000000000D+00  0.0000000000000D+00  0.0000000000000D+00
265  2.6400000000000D+00  0.0000000000000D+00  0.0000000000000D+00
266  2.6500000000000D+00  0.0000000000000D+00  0.0000000000000D+00
267  2.6600000000000D+00  0.0000000000000D+00  0.0000000000000D+00
268  2.6700000000000D+00  0.0000000000000D+00  0.0000000000000D+00
269  2.6800000000000D+00  0.0000000000000D+00  0.0000000000000D+00
270  2.6900000000000D+00  0.0000000000000D+00  0.0000000000000D+00
271  2.7000000000000D+00  0.0000000000000D+00  0.0000000000000D+00
272  2.7100000000000D+00  0.0000000000000D+00  0.0000000000000D+00
273  2.7200000000000D+00  0.0000000000000D+00  0.0000000000000D+00
274  2.7300000000000D+00  0.0000000000000D+00  0.0000000000000D+00
275  2.7400000000000D+00  0.0000000000000D+00  0.0000000000000D+00
276  2.7500000000000D+00  0.0000000000000D+00  0.0000000000000D+00
277  2.7600000000000D+00  0.0000000000000D+00  0.0000000000000D+00
278  2.7700000000000D+00  0.0000000000000D+00  0.0000000000000D+00
279  2.7800000000000D+00  0.0000000000000D+00  0.0000000000000D+00
280  2.7900000000000D+00  0.0000000000000D+00  0.0000000000000D+00
281  2.8000000000000D+00  0.0000000000000D+00  0.0000000000000D+00
282  2.8100000000000D+00  0.0000000000000D+00  0.0000000000000D+00
283  2.8200000000000D+00  0.0000000000000D+00  0.0000000000000D+00
284  2.8300000000000D+00  0.0000000000000D+00  0.0000000000000D+00
285  2.8400000000000D+00  0.0000000000000D+00  0.0000000000000D+00
286  2.8500000000000D+00  0.0000000000000D+00  0.0000000000000D+00
287  2.8600000000000D+00  0.0000000000000D+00  0.0000000000000D+00
288  2.8700000000000D+00  0.0000000000000D+00  0.0000000000000D+00
289  2.8800000000000D+00  0.0000000000000D+00  0.0000000000000D+00
290  2.8900000000000D+00  0.0000000000000D+00  0.0000000000000D+00
291  2.9000000000000D+00  0.0000000000000D+00  0.0000000000000D+00
292  2.9100000000000D+00  0.0000000000000D+00  0.0000000000000D+00
293  2.9200000000000D+00  0.0000000000000D+00  0.0000000000000D+00
294  2.9300000000000D+00  0.0000000000000D+00  0.0000000000000D+00
295  2.9400000000000D+00  0.0000000000000D+00  0.0000000000000D+00
296  2.9500000000000D+00  0.0000000000000D+00  0.0000000000000D+00
297  2.9600000000000D+00  0.0000000000000D+00  0.0000000000000D+00
298  2.9700000000000D+00  0.0000000000000D+00  0.0000000000000D+00
299  2.9800000000000D+00  0.0000000000000D+00  0.0000000000000D+00
300  2.9900000000000D+00  0.0000000000000D+00  0.0000000000000D+00
301  3.0000000000000D+00  0.0000000000000D+00  0.0000000000000D+00
302  3.0100000000000D+00  0.0000000000000D+00  0.0000000000000D+00
303  3.0200000000000D+00  0.0000000000000D+00  0.0000000000000D+00
304  3.0300000000000D+00  0.0000000000000D+00  0.0000000000000D+00
305  3.0400000000000D+00  0.0000000000000D+00  0.0000000000000D+00
306  3.0500000000000D+00  0.0000000000000D+00  0.0000000000000D+00
307  3.0600000000000D+00  0.0000000000000D+00  0.0000000000000D+00
308  3.0700000000000D+00  0.0000000000000D+00  0.0000000000000D+00
309  3.0800000000000D+00  0.0000000000000D+00  0.0000000000000D+00
310  3.0900000000000D+00  0.0000000000000D+00  0.0000000000000D+00
311  3.1000000000000D+00  0.0000000000000D+00  0.0000000000000D+00
312  3.1100000000000D+00  0.0000000000000D+00  0.0000000000000D+00
313  3.1200000000000D+00  0.0000000000000D+00  0.0000000000000D+00
314  3.1300000000000D+00  0.0000000000000D+00  0.0000000000000D+00
315  3.1400000000000D+00  0.0000000000000D+00  0.0000000000000D+00
316  3.1500000000000D+00  0.0000000000000D+00  0.0000000000000D+00
317  3.1600000000000D+00  0.0000000000000D+00  0.0000000000000D+00
318  3.1700000000000D+00  0.0000000000000D+00  0.0000000000000D+00
319  3.1800000000000D+00  0.0000000000000D+00  0.0000000000000D+00
320  3.1900000000000D+00  0.0000000000000D+00  0.0000000000000D+00
321  3.2000000000000D+00  0.0000000000000D+00  0.0000000000000D+00
322  3.2100000000000D+00  0.0000000000000D+00  0.0000000000000D+00
323  3.2200000000000D+00  0.0000000000000D+00  0.0000000000000D+00
324  3.2300000000000D+00  0.0000000000000D+00  0.0000000000000D+00
325  3.2400000000000D+00  0.0000000000000D+00  0.0000000000000D+00
326  3.2500000000000D+00  0.0000000000000D+00  0.0000000000000D+00
327  3.2600000000000D+00  0.0000000000000D+00  0.0000000000000D+00
328  3.2700000000000D+00  0.0000000000000D+00  0.0000000000000D+00
329  3.2800000000000D+00  0.0000000000000D+00  0.0000000000000D+00
330  3.2900000000000D+00  0.0000000000000D+00  0.0000000000000D+00
331  3.3000000000000D+00  0.0000000000000D+00  0.0000000000000D+00
332  3.3100000000000D+00  0.0000000000000D+00  0.0000000000000D+00
333  3.3200000000000D+00  0.0000000000000D+00  0.0000000000000D+00
334  3.3300000000000D+00  0.0000000000000D+00  0.0000000000000D+00
335  3.3400000000000D+00  0.0000000000000D+00  0.0000000000000D+00
336  3.3500000000000D+00  0.0000000000000D+00  0.0000000000000D+00
337  3.3600000000000D+00  0.0000000000000D+00  0.0000000000000D+00
338  3.3700000000000D+00  0.0000000000000D+00  0.0000000000000D+00
339  3.3800000000000D+00  0.0000000000000D+00  0.0000000000000D+00
340  3.3900000000000D+00  0.0000000000000D+00  0.0000000000000D+00
341  3.4000000000000D+00  0.0000000000000D+00  0.0000000000000D+00
342  3.4100000000000D+00  0.0000000000000D+00  0.0000000000000D+00
343  3.4200000000000D+00  0.0000000000000D+00  0.0000000000000D+00
344  3.4300000000000D+00  0.0000000000000D+00  0.0000000000000D+00
345  3.4400000000000D+00  0.0000000000000D+00  0.0000000000000D+00
346  3.4500000000000D+00  0.0000000000000D+00  0.0000000000000D+00
347  3.4600000000000D+00  0.0000000000000D+00  0.0000000000000D+00
348  3.4700000000000D+00  0.0000000000000D+00  0.0000000000000D+00
349  3.4800000000000D+00  0.0000000000000D+00  0.0000000000000D+00
350  3.4900000000000D+00  0.0000000000000D+00  0.0000000000000D+00
351  3.5000000000000D+00  0.0000000000000D+00  0.0000000000000D+00
352  3.5100000000000D+00  0.0000000000000D+00  0.0000000000000D+00
353  3.5200000000000D+00  0.0000000000000D+00  0.0000000000000D+00
354  3.5300000000000D+00  0.0000000000000D+00  0.0000000000000D+00
355  3.5400000000000D+00  0.0000000000000D+00  0.0000000000000D+00
356  3.5500000000000D+00  0.0000000000000D+00  0.0000000000000D+00
357  3.5600000000000D+00  0.0000000000000D+00  0.0000000000000D+00
358  3.5700000000000D+00  0.0000000000000D+00  0.0000000000000D+00
359  3.5800000000000D+00  0.0000000000000D+00  0.0000000000000D+00
360  3.5900000000000D+00  0.0000000000000D+00  0.0000000000000D+00
361  3.6000000000000D+00  0.0000000000000D+00  0.0000000000000D+00
362  3.6100000000000D+00  0.0000000000000D+00  0.0000000000000D+00
363  3.6200000000000D+00  0.0000000000000D+00  0.0000000000000D+00
364  3.6300000000000D+00  0.0000000000000D+00  0.0000000000000D+00
365  3.6400000000000D+00  0.0000000000000D+00  0.0000000000000D+00
366  3.6500000000000D+00  0.0000000000000D+00  0.0000000000000D+00
367  3.6600000000000D+00  0.0000000000000D+00  0.0000000000000D+00
368  3.6700000000000D+00  0.0000000000000D+00  0.0000000000000D+00
369  3.6800000000000D+00  0.0000000000000D+00  0.0000000000000D+00
370  3.6900000000000D+00  0.0000000000000D+00  0.0000000000000D+00
371  3.7000000000000D+00  0.0000000000000D+00  0.0000000000000D+00
372  3.7100000000000D+00  0.0000000000000D+00  0.0000000000000D+00
373  3.7200000000000D+00  0.0000000000000D+00  0.0000000000000D+00
374  3.7300000000000D+00  0.0000000000000D+00  0.0000000000000D+00
375  3.7400000000000D+00  0.0000000000000D+00  0.0000000000000D+00
376  3.7500000000000D+00  0.0000000000000D+00  0.0000000000000D+00
377  3.7600000000000D+00  0.0000000000000D+00  0.0000000000000D+00
378  3.7700000000000D+00  0.0000000000000D+00  0.0000000000000D+00
379  3.7800000000000D+00  0.0000000000000D+00  0.0000000000000D+00
380  3.7900000000000D+00  0.0000000000000D+00  0.0000000000000D+00
381  3.8000000000000D+00  0.0000000000000D+00  0.0000000000000D+00
382  3.8100000000000D+00  0.0000000000000D+00  0.0000000000000D+00
383  3.8200000000000D+00  0.0000000000000D+00  0.0000000000000D+00
384  3.8300000000000D+00  0.0000000000000D+00  0.0000000000000D+00
385  3.8400000000000D+00  0.0000000000000D+00  0.0000000000000D+00
386  3.8500000000000D+00  0.0000000000000D+00  0.0000000000000D+00
387  3.8600000000000D+00  0.0000000000000D+00  0.0000000000000D+00
388  3.8700000000000D+00  0.0000000000000D+00  0.0000000000000D+00
389  3.8800000000000D+00  0.0000000000000D+00  0.0000000000000D+00
390  3.8900000000000D+00  0.0000000000000D+00  0.0000000000000D+00
391  3.9000000000000D+00  0.0000000000000D+00  0.0000000000000D+00
392  3.9100000000000D+00  0.0000000000000D+00  0.0000000000000D+00
393  3.9200000000000D+00  0.0000000000000D+00  0.0000000000000D+00
394  3.9300000000000D+00  0.0000000000000D+00  0.0000000000000D+00
395  3.9400000000000D+00  0.0000000000000D+00  0.0000000000000D+00
396  3.9500000000000D+00  0.0000000000000D+00  0.0000000000000D+00
397  3.9600000000000D+00  0.0000000000000D+00  0.0000000000000D+00
398  3.9700000000000D+00  0.0000000000000D+00  0.0000000000000D+00
399  3.9800000000000D+00  0.0000000000000D+00  0.0000000000000D+00
400  3.9900000000000D+00  0.0000000000000D+00  0.0000000000000D+00
401  4.0000000000000D+00  0.0000000000000D+00  0.0000000000000D+00
402  4.0100000000000D+00  0.0000000000000D+00  0.0000000000000D+00
403  4.0200000000000D+00  0.0000000000000D+00  0.0000000000000D+00
404  4.0300000000000D+00  0.0000000000000D+00  0.0000000000000D+00
405  4.0400000000000D+00  0.0000000000000D+00  0.0000000000000D+00
406  4.0500000000000D+00  0.0000000000000D+00  0.0000000000000D+00
407  4.0600000000000D+00  0.0000000000000D+00  0.0000000000000D+00
408  4.0700000000000D+00  0.0000000000000D+00  0.0000000000000D+00
409  4.0800000000000D+00  0.0000000000000D+00  0.0000000000000D+00
410  4.0900000000000D+00  0.0000000000000D+00  0.0000000000000D+00
411  4.1000000000000D+00  0.0000000000000D+00  0.0000000000000D+00
412  4.1100000000000D+00  0.0000000000000D+00  0.0000000000000D+00
413  4.1200000000000D+00  0.0000000000000D+00  0.0000000000000D+00
414  4.1300000000000D+00  0.0000000000000D+00  0.0000000000000D+00
415  4.1400000000000D+00  0.0000000000000D+00  0.0000000000000D+00
416  4.1500000000000D+00  0.0000000000000D+00  0.0000000000000D+00
417  4.1600000000000D+00  0.0000000000000D+00  0.0000000000000D+00
418  4.1700000000000D+00  0.0000000000000D+00  0.0000000000000D+00
419  4.1800000000000D+00  0.0000000000000D+00  0.0000000000000D+00
420  4.1900000000000D+00  0.0000000000000D+00  0.0000000000000D+00
421  4.2000000000000D+00  0.0000000000000D+00  0.0000000000000D+00
422  4.2100000000000D+00  0.0000000000000D+00  0.0000000000000D+00
423  4.2200000000000D+00  0.0000000000000D+00  0.0000000000000D+00
424  4.2300000000000D+00  0.0000000000000D+00  0.0000000000000D+00
425  4.2400000000000D+00  0.0000000000000D+00  0.0000000000000D+00
426  4.2500000000000D+00  0.0000000000000D+00  0.0000000000000D+00
427  4.2600000000000D+00  0.0000000000000D+00  0.0000000000000D+00
428  4.2700000000000D+00  0.0000000000000D+00  0.0000000000000D+00
429  4.2800000000000D+00  0.0000000000000D+00  0.0000000000000D+00
430  4.2900000000000D+00  0.0000000000000D+00  0.0000000000000D+00
431  4.3000000000000D+00  0.0000000000000D+00  0.0000000000000D+00
432  4.3100000000000D+00  0.0000000000000D+00  0.0000000000000D+00
433  4.3200000000000D+00  0.0000000000000D+00  0.0000000000000D+00
434  4.3300000000000D+00  0.0000000000000D+00  0.0000000000000D+00
435  4.3400000000000D+00  0.0000000000000D+00  0.0000000000000D+00
436  4.3500000000000D+00  0.0000000000000D+00  0.0000000000000D+00
437  4.3600000000000D+00  0.0000000000000D+00  0.0000000000000D+00
438  4.3700000000000D+00  0.0000000000000D+00  0.0000000000000D+00
439  4.3800000000000D+00  0.0000000000000D+00  0.0000000000000D+00
440  4.3900000000000D+00  0.0000000000000D+00  0.0000000000000D+00
441  4.4000000000000D+00  0.0000000000000D+00  0.0000000000000D+00
442  4.4100000000000D+00  0.0000000000000D+00  0.0000000000000D+00
443  4.4200000000000D+00  0.0000000000000D+00  0.0000000000000D+00
444  4.4300000000000D+00  0.0000000000000D+00  0.0000000000000D+00