Y     ONCVPSP-3.3.0  r_core=   1.60520   1.51226   1.56736
39.0000     11.0000      171103    zatom,zion,pspd
8   -1012   2     4   600     0    pspcod,pspxc,lmax,lloc,mmax,r2well
5.99000000  4.00000000  0.00000000    rchrg fchrg qchrg
2     2     2     0     0    nproj
1     1           extension_switch
0                         1.0120423943170D+01  8.6970976082921D-01
1  0.0000000000000D+00  7.1124162115410D-11 -2.5847719797856D-10
2  1.0000000000000D-02  4.9017273813947D-02 -9.0600676677635D-03
3  2.0000000000000D-02  9.8001257385543D-02 -1.8179459335294D-02
4  3.0000000000000D-02  1.4691845068902D-01 -2.7416525051644D-02
5  4.0000000000000D-02  1.9573493646894D-01 -3.6827675622364D-02
6  5.0000000000000D-02  2.4441617745032D-01 -4.6466434566772D-02
7  6.0000000000000D-02  2.9292682048797D-01 -5.6382515786404D-02
8  7.0000000000000D-02  3.4123050988448D-01 -6.6620935210205D-02
9  8.0000000000000D-02  3.8928971203487D-01 -7.7221164423513D-02
10  9.0000000000000D-02  4.3706555346796D-01 -8.8216333968010D-02
11  1.0000000000000D-01  4.8451767425031D-01 -9.9632493620868D-02
12  1.1000000000000D-01  5.3160409859867D-01 -1.1148793652579D-01
13  1.2000000000000D-01  5.7828112441244D-01 -1.2379259355974D-01
14  1.3000000000000D-01  6.2450323328915D-01 -1.3654750378023D-01
15  1.4000000000000D-01  6.7022302242505D-01 -1.4974436621218D-01
16  1.5000000000000D-01  7.1539115963004D-01 -1.6336517760621D-01
17  1.6000000000000D-01  7.5995636250302D-01 -1.7738196013409D-01
18  1.7000000000000D-01  8.0386540262143D-01 -1.9175658228831D-01
19  1.8000000000000D-01  8.4706313539859D-01 -2.0644067552579D-01
20  1.9000000000000D-01  8.8949255605594D-01 -2.2137564844479D-01
21  2.0000000000000D-01  9.3109488194574D-01 -2.3649279951628D-01
22  2.1000000000000D-01  9.7180966124499D-01 -2.5171352861029D-01
23  2.2000000000000D-01  1.0115749078245D+00 -2.6694964677021D-01
24  2.3000000000000D-01  1.0503272618802D+00 -2.8210378290001D-01
25  2.4000000000000D-01  1.0880021756971D+00 -2.9706988524536D-01
26  2.5000000000000D-01  1.1245341237051D+00 -3.1173381477660D-01
27  2.6000000000000D-01  1.1598568357744D+00 -3.2597402682480D-01
28  2.7000000000000D-01  1.1939035524996D+00 -3.3966233658656D-01
29  2.8000000000000D-01  1.2266073010223D+00 -3.5266476340630D-01
30  2.9000000000000D-01  1.2579011897582D+00 -3.6484244806971D-01
31  3.0000000000000D-01  1.2877187202196D+00 -3.7605263670556D-01
32  3.1000000000000D-01  1.3159941139572D+00 -3.8614972429945D-01
33  3.2000000000000D-01  1.3426626524984D+00 -3.9498635027836D-01
34  3.3000000000000D-01  1.3676610280174D+00 -4.0241453813037D-01
35  3.4000000000000D-01  1.3909277023576D+00 -4.0828687058845D-01
36  3.5000000000000D-01  1.4124032719148D+00 -4.1245769153008D-01
37  3.6000000000000D-01  1.4320308358096D+00 -4.1478432543181D-01
38  3.7000000000000D-01  1.4497563647024D+00 -4.1512830497170D-01
39  3.8000000000000D-01  1.4655290675565D+00 -4.1335659719520D-01
40  3.9000000000000D-01  1.4793017536256D+00 -4.0934281855392D-01
41  4.0000000000000D-01  1.4910311869262D+00 -4.0296842909334D-01
42  4.1000000000000D-01  1.5006784304706D+00 -3.9412389610548D-01
43  4.2000000000000D-01  1.5082091775593D+00 -3.8270981767638D-01
44  4.3000000000000D-01  1.5135940674868D+00 -3.6863799674745D-01
45  4.4000000000000D-01  1.5168089830804D+00 -3.5183245656966D-01
46  4.5000000000000D-01  1.5178353275839D+00 -3.3223038876529D-01
47  4.6000000000000D-01  1.5166602785053D+00 -3.0978302561498D-01
48  4.7000000000000D-01  1.5132770161769D+00 -2.8445642866083D-01
49  4.8000000000000D-01  1.5076849249205D+00 -2.5623218625509D-01
50  4.9000000000000D-01  1.4998897648740D+00 -2.2510801328358D-01
51  5.0000000000000D-01  1.4899038127161D+00 -1.9109824695188D-01
52  5.1000000000000D-01  1.4777459697171D+00 -1.5423423323522D-01
53  5.2000000000000D-01  1.4634418357539D+00 -1.1456459935473D-01
54  5.3000000000000D-01  1.4470237481476D+00 -7.2155408448539D-02
55  5.4000000000000D-01  1.4285307844109D+00 -2.7090193450662D-02
56  5.5000000000000D-01  1.4080087282352D+00  2.0530131932688D-02
57  5.6000000000000D-01  1.3855099982943D+00  7.0587486357447D-02
58  5.7000000000000D-01  1.3610935396937D+00  1.2294695837184D-01
59  5.8000000000000D-01  1.3348246781559D+00  1.7745726769321D-01
60  5.9000000000000D-01  1.3067749372873D+00  2.3395134864173D-01
61  6.0000000000000D-01  1.2770218195353D+00  2.9224705320250D-01
62  6.1000000000000D-01  1.2456485517021D+00  3.5214797025642D-01
63  6.2000000000000D-01  1.2127437961347D+00  4.1344435660845D-01
64  6.3000000000000D-01  1.1784013289615D+00  4.7591417454747D-01
65  6.4000000000000D-01  1.1427196869855D+00  5.3932422981537D-01
66  6.5000000000000D-01  1.1058017850778D+00  6.0343140303788D-01
67  6.6000000000000D-01  1.0677545061346D+00  6.6798396688996D-01
68  6.7000000000000D-01  1.0286882658694D+00  7.3272298054463D-01
69  6.8000000000000D-01  9.8871655490435D-01  7.9738375227855D-01
70  6.9000000000000D-01  9.4795546080333D-01  8.6169736050310D-01
71  7.0000000000000D-01  9.0652317284618D-01  9.2539222294759D-01
72  7.1000000000000D-01  8.6453947248505D-01  9.8819570325794D-01
73  7.2000000000000D-01  8.2212521254308D-01  1.0498357438822D+00
74  7.3000000000000D-01  7.7940178831375D-01  1.1100425138093D+00
75  7.4000000000000D-01  7.3649060379533D-01  1.1685500595061D+00
76  7.5000000000000D-01  6.9351253634762D-01  1.2250979472611D+00
77  7.6000000000000D-01  6.5058740308750D-01  1.2794328851012D+00
78  7.7000000000000D-01  6.0783343234464D-01  1.3313103124923D+00
79  7.8000000000000D-01  5.6536674347984D-01  1.3804959461723D+00
80  7.9000000000000D-01  5.2330083832459D-01  1.4267672706954D+00
81  8.0000000000000D-01  4.8174610743293D-01  1.4699149625857D+00
82  8.1000000000000D-01  4.4080935424502D-01  1.5097442374041D+00
83  8.2000000000000D-01  4.0059334014709D-01  1.5460761095326D+00
84  8.3000000000000D-01  3.6119635327477D-01  1.5787485550534D+00
85  8.4000000000000D-01  3.2271180374804D-01  1.6076175687600D+00
86  8.5000000000000D-01  2.8522784784634D-01  1.6325581070731D+00
87  8.6000000000000D-01  2.4882704343327D-01  1.6534649094332D+00
88  8.7000000000000D-01  2.1358603872405D-01  1.6702531916120D+00
89  8.8000000000000D-01  1.7957529625541D-01  1.6828592053097D+00
90  8.9000000000000D-01  1.4685885367060D-01  1.6912406593802D+00
91  9.0000000000000D-01  1.1549412267158D-01  1.6953769990482D+00
92  9.1000000000000D-01  8.5531727220077D-02  1.6952695405360D+00
93  9.2000000000000D-01  5.7015381789470D-02  1.6909414596018D+00
94  9.3000000000000D-01  2.9981810183798D-02  1.6824376335931D+00
95  9.4000000000000D-01  4.4607051501503D-03  1.6698243377315D+00
96  9.5000000000000D-01 -1.9525271281323D-02  1.6531887974586D+00
97  9.6000000000000D-01 -4.1960447086329D-02  1.6326385997758D+00
98  9.7000000000000D-01 -6.2836059812780D-02  1.6083009676123D+00
99  9.8000000000000D-01 -8.2150137349792D-02  1.5803219022925D+00
100  9.9000000000000D-01 -9.9907341108607D-02  1.5488652002291D+00
101  1.0000000000000D+00 -1.1611877308725D-01  1.5141113509425D+00
102  1.0100000000000D+00 -1.3080174854613D-01  1.4762563244338D+00
103  1.0200000000000D+00 -1.4397953626313D-01  1.4355102568217D+00
104  1.0300000000000D+00 -1.5568106856135D-01  1.3920960439499D+00
105  1.0400000000000D+00 -1.6594062351393D-01  1.3462478534187D+00
106  1.0500000000000D+00 -1.7479748190561D-01  1.2982095661011D+00
107  1.0600000000000D+00 -1.8229556171559D-01  1.2482331588271D+00
108  1.0700000000000D+00 -1.8848303301630D-01  1.1965770403385D+00
109  1.0800000000000D+00 -1.9341191630809D-01  1.1435043530123D+00
110  1.0900000000000D+00 -1.9713766740598D-01  1.0892812531105D+00
111  1.1000000000000D+00 -1.9971875205851D-01  1.0341751824820D+00
112  1.1100000000000D+00 -2.0121621353260D-01  9.7845314471696D-01
113  1.1200000000000D+00 -2.0169323640688D-01  9.2237999869573D-01
114  1.1300000000000D+00 -2.0121470980347D-01  8.6621678229455D-01
115  1.1400000000000D+00 -1.9984679325991D-01  8.1021907880658D-01
116  1.1500000000000D+00 -1.9765648837545D-01  7.5463543823433D-01
117  1.1600000000000D+00 -1.9471121927541D-01  6.9970586514758D-01
118  1.1700000000000D+00 -1.9107842480237D-01  6.4566038414156D-01
119  1.1800000000000D+00 -1.8682516525585D-01  5.9271769350619D-01
120  1.1900000000000D+00 -1.8201774628467D-01  5.4108391670525D-01
121  1.2000000000000D+00 -1.7672136236738D-01  4.9095146050949D-01
122  1.2100000000000D+00 -1.7099976210625D-01  4.4249798768797D-01
123  1.2200000000000D+00 -1.6491493739152D-01  3.9588551140868D-01
124  1.2300000000000D+00 -1.5852683815971D-01  3.5125961704786D-01
125  1.2400000000000D+00 -1.5189311421226D-01  3.0874881600488D-01
126  1.2500000000000D+00 -1.4506888547689D-01  2.6846403574574D-01
127  1.2600000000000D+00 -1.3810654155689D-01  2.3049824800586D-01
128  1.2700000000000D+00 -1.3105557121346D-01  1.9492623625232D-01
129  1.2800000000000D+00 -1.2396242232874D-01  1.6180450307904D-01
130  1.2900000000000D+00 -1.1687039230684D-01  1.3117131573301D-01
131  1.3000000000000D+00 -1.0981954864582D-01  1.0304688705164D-01
132  1.3100000000000D+00 -1.0284667940928D-01  7.7433689057873D-02
133  1.3200000000000D+00 -9.5985272597562D-02  5.4316893448956D-02
134  1.3300000000000D+00 -8.9265523342828D-02  3.3664932926136D-02
135  1.3400000000000D+00 -8.2714367812365D-02  1.5430177125411D-02
136  1.3500000000000D+00 -7.6355541926489D-02 -4.5028624561587D-04
137  1.3600000000000D+00 -7.0209663194317D-02 -1.4053773643227D-02
138  1.3700000000000D+00 -6.4294333647893D-02 -2.5471041204958D-02
139  1.3800000000000D+00 -5.8624261358540D-02 -3.4805245399947D-02
140  1.3900000000000D+00 -5.3211398321957D-02 -4.2170839477875D-02
141  1.4000000000000D+00 -4.8065091876732D-02 -4.7692418834961D-02
142  1.4100000000000D+00 -4.3192246891457D-02 -5.1503528065301D-02
143  1.4200000000000D+00 -3.8597495914868D-02 -5.3745442715379D-02
144  1.4300000000000D+00 -3.4283374106738D-02 -5.4565940043249D-02
145  1.4400000000000D+00 -3.0250496037405D-02 -5.4118072146632D-02
146  1.4500000000000D+00 -2.6497731101726D-02 -5.2558956020456D-02
147  1.4600000000000D+00 -2.3022374251464D-02 -5.0048595499647D-02
148  1.4700000000000D+00 -1.9820308884398D-02 -4.6748749209410D-02
149  1.4800000000000D+00 -1.6886158901043D-02 -4.2821856611019D-02
150  1.4900000000000D+00 -1.4213439282308D-02 -3.8429979610706D-02
151  1.5000000000000D+00 -1.1794718211400D-02 -3.3733678754063D-02
152  1.5100000000000D+00 -9.6214751923862D-03 -2.8892425224062D-02
153  1.5200000000000D+00 -7.6845648807285D-03 -2.4061963732458D-02
154  1.5300000000000D+00 -5.9750320406799D-03 -1.9389862284285D-02
155  1.5400000000000D+00 -4.4848691345883D-03 -1.5011615872717D-02
156  1.5500000000000D+00 -3.2081494091039D-03 -1.1046278593817D-02
157  1.5600000000000D+00 -2.1411103651788D-03 -7.5963396227093D-03
158  1.5700000000000D+00 -1.2784329550917D-03 -4.7292959960890D-03
159  1.5800000000000D+00 -6.2313487587272D-04 -2.5229826240229D-03
160  1.5900000000000D+00 -1.8922983145923D-04 -1.0954457504034D-03
161  1.6000000000000D+00  3.1057894256466D-05 -3.8458356704330D-04
162  1.6100000000000D+00  7.6080793017908D-05 -1.0132223368347D-04
163  1.6200000000000D+00  2.5979200046961D-05 -1.0771757773335D-05
164  1.6300000000000D+00 -1.2591427082581D-05  1.8406563390091D-06
165  1.6400000000000D+00 -7.2440338834421D-06 -2.6345713786276D-07
166  1.6500000000000D+00  2.5641820903683D-06 -1.1138339508353D-06
167  1.6600000000000D+00  1.4882091966765D-06 -5.1047647386942D-07
168  1.6700000000000D+00 -1.8552943037207D-07  5.1879874639194D-07
169  1.6800000000000D+00 -1.0778030364848D-07  3.0138768984758D-07
170  1.6900000000000D+00  0.0000000000000D+00  0.0000000000000D+00
171  1.7000000000000D+00  0.0000000000000D+00  0.0000000000000D+00
172  1.7100000000000D+00  0.0000000000000D+00  0.0000000000000D+00
173  1.7200000000000D+00  0.0000000000000D+00  0.0000000000000D+00
174  1.7300000000000D+00  0.0000000000000D+00  0.0000000000000D+00
175  1.7400000000000D+00  0.0000000000000D+00  0.0000000000000D+00
176  1.7500000000000D+00  0.0000000000000D+00  0.0000000000000D+00
177  1.7600000000000D+00  0.0000000000000D+00  0.0000000000000D+00
178  1.7700000000000D+00  0.0000000000000D+00  0.0000000000000D+00
179  1.7800000000000D+00  0.0000000000000D+00  0.0000000000000D+00
180  1.7900000000000D+00  0.0000000000000D+00  0.0000000000000D+00
181  1.8000000000000D+00  0.0000000000000D+00  0.0000000000000D+00
182  1.8100000000000D+00  0.0000000000000D+00  0.0000000000000D+00
183  1.8200000000000D+00  0.0000000000000D+00  0.0000000000000D+00
184  1.8300000000000D+00  0.0000000000000D+00  0.0000000000000D+00
185  1.8400000000000D+00  0.0000000000000D+00  0.0000000000000D+00
186  1.8500000000000D+00  0.0000000000000D+00  0.0000000000000D+00
187  1.8600000000000D+00  0.0000000000000D+00  0.0000000000000D+00
188  1.8700000000000D+00  0.0000000000000D+00  0.0000000000000D+00
189  1.8800000000000D+00  0.0000000000000D+00  0.0000000000000D+00
190  1.8900000000000D+00  0.0000000000000D+00  0.0000000000000D+00
191  1.9000000000000D+00  0.0000000000000D+00  0.0000000000000D+00
192  1.9100000000000D+00  0.0000000000000D+00  0.0000000000000D+00
193  1.9200000000000D+00  0.0000000000000D+00  0.0000000000000D+00
194  1.9300000000000D+00  0.0000000000000D+00  0.0000000000000D+00
195  1.9400000000000D+00  0.0000000000000D+00  0.0000000000000D+00
196  1.9500000000000D+00  0.0000000000000D+00  0.0000000000000D+00
197  1.9600000000000D+00  0.0000000000000D+00  0.0000000000000D+00
198  1.9700000000000D+00  0.0000000000000D+00  0.0000000000000D+00
199  1.9800000000000D+00  0.0000000000000D+00  0.0000000000000D+00
200  1.9900000000000D+00  0.0000000000000D+00  0.0000000000000D+00
201  2.0000000000000D+00  0.0000000000000D+00  0.0000000000000D+00
202  2.0100000000000D+00  0.0000000000000D+00  0.0000000000000D+00
203  2.0200000000000D+00  0.0000000000000D+00  0.0000000000000D+00
204  2.0300000000000D+00  0.0000000000000D+00  0.0000000000000D+00
205  2.0400000000000D+00  0.0000000000000D+00  0.0000000000000D+00
206  2.0500000000000D+00  0.0000000000000D+00  0.0000000000000D+00
207  2.0600000000000D+00  0.0000000000000D+00  0.0000000000000D+00
208  2.0700000000000D+00  0.0000000000000D+00  0.0000000000000D+00
209  2.0800000000000D+00  0.0000000000000D+00  0.0000000000000D+00
210  2.0900000000000D+00  0.0000000000000D+00  0.0000000000000D+00
211  2.1000000000000D+00  0.0000000000000D+00  0.0000000000000D+00
212  2.1100000000000D+00  0.0000000000000D+00  0.0000000000000D+00
213  2.1200000000000D+00  0.0000000000000D+00  0.0000000000000D+00
214  2.1300000000000D+00  0.0000000000000D+00  0.0000000000000D+00
215  2.1400000000000D+00  0.0000000000000D+00  0.0000000000000D+00
216  2.1500000000000D+00  0.0000000000000D+00  0.0000000000000D+00
217  2.1600000000000D+00  0.0000000000000D+00  0.0000000000000D+00
218  2.1700000000000D+00  0.0000000000000D+00  0.0000000000000D+00
219  2.1800000000000D+00  0.0000000000000D+00  0.0000000000000D+00
220  2.1900000000000D+00  0.0000000000000D+00  0.0000000000000D+00
221  2.2000000000000D+00  0.0000000000000D+00  0.0000000000000D+00
222  2.2100000000000D+00  0.0000000000000D+00  0.0000000000000D+00
223  2.2200000000000D+00  0.0000000000000D+00  0.0000000000000D+00
224  2.2300000000000D+00  0.0000000000000D+00  0.0000000000000D+00
225  2.2400000000000D+00  0.0000000000000D+00  0.0000000000000D+00
226  2.2500000000000D+00  0.0000000000000D+00  0.0000000000000D+00
227  2.2600000000000D+00  0.0000000000000D+00  0.0000000000000D+00
228  2.2700000000000D+00  0.0000000000000D+00  0.0000000000000D+00
229  2.2800000000000D+00  0.0000000000000D+00  0.0000000000000D+00
230  2.2900000000000D+00  0.0000000000000D+00  0.0000000000000D+00
231  2.3000000000000D+00  0.0000000000000D+00  0.0000000000000D+00
232  2.3100000000000D+00  0.0000000000000D+00  0.0000000000000D+00
233  2.3200000000000D+00  0.0000000000000D+00  0.0000000000000D+00
234  2.3300000000000D+00  0.0000000000000D+00  0.0000000000000D+00
235  2.3400000000000D+00  0.0000000000000D+00  0.0000000000000D+00
236  2.3500000000000D+00  0.0000000000000D+00  0.0000000000000D+00
237  2.3600000000000D+00  0.0000000000000D+00  0.0000000000000D+00
238  2.3700000000000D+00  0.0000000000000D+00  0.0000000000000D+00
239  2.3800000000000D+00  0.0000000000000D+00  0.0000000000000D+00
240  2.3900000000000D+00  0.0000000000000D+00  0.0000000000000D+00
241  2.4000000000000D+00  0.0000000000000D+00  0.0000000000000D+00
242  2.4100000000000D+00  0.0000000000000D+00  0.0000000000000D+00
243  2.4200000000000D+00  0.0000000000000D+00  0.0000000000000D+00
244  2.4300000000000D+00  0.0000000000000D+00  0.0000000000000D+00
245  2.4400000000000D+00  0.0000000000000D+00  0.0000000000000D+00
246  2.4500000000000D+00  0.0000000000000D+00  0.0000000000000D+00
247  2.4600000000000D+00  0.0000000000000D+00  0.0000000000000D+00
248  2.4700000000000D+00  0.0000000000000D+00  0.0000000000000D+00
249  2.4800000000000D+00  0.0000000000000D+00  0.0000000000000D+00
250  2.4900000000000D+00  0.0000000000000D+00  0.0000000000000D+00
251  2.5000000000000D+00  0.0000000000000D+00  0.0000000000000D+00
252  2.5100000000000D+00  0.0000000000000D+00  0.0000000000000D+00
253  2.5200000000000D+00  0.0000000000000D+00  0.0000000000000D+00
254  2.5300000000000D+00  0.0000000000000D+00  0.0000000000000D+00
255  2.5400000000000D+00  0.0000000000000D+00  0.0000000000000D+00
256  2.5500000000000D+00  0.0000000000000D+00  0.0000000000000D+00
257  2.5600000000000D+00  0.0000000000000D+00  0.0000000000000D+00
258  2.5700000000000D+00  0.0000000000000D+00  0.0000000000000D+00
259  2.5800000000000D+00  0.0000000000000D+00  0.0000000000000D+00
260  2.5900000000000D+00  0.0000000000000D+00  0.0000000000000D+00
261  2.6000000000000D+00  0.0000000000000D+00  0.0000000000000D+00
262  2.6100000000000D+00  0.0000000000000D+00  0.0000000000000D+00
263  2.6200000000000D+00  0.0000000000000D+00  0.0000000000000D+00
264  2.6300000000000D+00  0.0000000000000D+00  0.0000000000000D+00
265  2.6400000000000D+00  0.0000000000000D+00  0.0000000000000D+00
266  2.6500000000000D+00  0.0000000000000D+00  0.0000000000000D+00
267  2.6600000000000D+00  0.0000000000000D+00  0.0000000000000D+00
268  2.6700000000000D+00  0.0000000000000D+00  0.0000000000000D+00
269  2.6800000000000D+00  0.0000000000000D+00  0.0000000000000D+00
270  2.6900000000000D+00  0.0000000000000D+00  0.0000000000000D+00
271  2.7000000000000D+00  0.0000000000000D+00  0.0000000000000D+00
272  2.7100000000000D+00  0.0000000000000D+00  0.0000000000000D+00
273  2.7200000000000D+00  0.0000000000000D+00  0.0000000000000D+00
274  2.7300000000000D+00  0.0000000000000D+00  0.0000000000000D+00
275  2.7400000000000D+00  0.0000000000000D+00  0.0000000000000D+00
276  2.7500000000000D+00  0.0000000000000D+00  0.0000000000000D+00
277  2.7600000000000D+00  0.0000000000000D+00  0.0000000000000D+00
278  2.7700000000000D+00  0.0000000000000D+00  0.0000000000000D+00
279  2.7800000000000D+00  0.0000000000000D+00  0.0000000000000D+00
280  2.7900000000000D+00  0.0000000000000D+00  0.0000000000000D+00
281  2.8000000000000D+00  0.0000000000000D+00  0.0000000000000D+00
282  2.8100000000000D+00  0.0000000000000D+00  0.0000000000000D+00
283  2.8200000000000D+00  0.0000000000000D+00  0.0000000000000D+00
284  2.8300000000000D+00  0.0000000000000D+00  0.0000000000000D+00
285  2.8400000000000D+00  0.0000000000000D+00  0.0000000000000D+00
286  2.8500000000000D+00  0.0000000000000D+00  0.0000000000000D+00
287  2.8600000000000D+00  0.0000000000000D+00  0.0000000000000D+00
288  2.8700000000000D+00  0.0000000000000D+00  0.0000000000000D+00
289  2.8800000000000D+00  0.0000000000000D+00  0.0000000000000D+00
290  2.8900000000000D+00  0.0000000000000D+00  0.0000000000000D+00
291  2.9000000000000D+00  0.0000000000000D+00  0.0000000000000D+00
292  2.9100000000000D+00  0.0000000000000D+00  0.0000000000000D+00
293  2.9200000000000D+00  0.0000000000000D+00  0.0000000000000D+00
294  2.9300000000000D+00  0.0000000000000D+00  0.0000000000000D+00
295  2.9400000000000D+00  0.0000000000000D+00  0.0000000000000D+00
296  2.9500000000000D+00  0.0000000000000D+00  0.0000000000000D+00
297  2.9600000000000D+00  0.0000000000000D+00  0.0000000000000D+00
298  2.9700000000000D+00  0.0000000000000D+00  0.0000000000000D+00
299  2.9800000000000D+00  0.0000000000000D+00  0.0000000000000D+00
300  2.9900000000000D+00  0.0000000000000D+00  0.0000000000000D+00
301  3.0000000000000D+00  0.0000000000000D+00  0.0000000000000D+00
302  3.0100000000000D+00  0.0000000000000D+00  0.0000000000000D+00
303  3.0200000000000D+00  0.0000000000000D+00  0.0000000000000D+00
304  3.0300000000000D+00  0.0000000000000D+00  0.0000000000000D+00
305  3.0400000000000D+00  0.0000000000000D+00  0.0000000000000D+00
306  3.0500000000000D+00  0.0000000000000D+00  0.0000000000000D+00
307  3.0600000000000D+00  0.0000000000000D+00  0.0000000000000D+00
308  3.0700000000000D+00  0.0000000000000D+00  0.0000000000000D+00
309  3.0800000000000D+00  0.0000000000000D+00  0.0000000000000D+00
310  3.0900000000000D+00  0.0000000000000D+00  0.0000000000000D+00
311  3.1000000000000D+00  0.0000000000000D+00  0.0000000000000D+00
312  3.1100000000000D+00  0.0000000000000D+00  0.0000000000000D+00
313  3.1200000000000D+00  0.0000000000000D+00  0.0000000000000D+00
314  3.1300000000000D+00  0.0000000000000D+00  0.0000000000000D+00
315  3.1400000000000D+00  0.0000000000000D+00  0.0000000000000D+00
316  3.1500000000000D+00  0.0000000000000D+00  0.0000000000000D+00
317  3.1600000000000D+00  0.0000000000000D+00  0.0000000000000D+00
318  3.1700000000000D+00  0.0000000000000D+00  0.0000000000000D+00
319  3.1800000000000D+00  0.0000000000000D+00  0.0000000000000D+00
320  3.1900000000000D+00  0.0000000000000D+00  0.0000000000000D+00
321  3.2000000000000D+00  0.0000000000000D+00  0.0000000000000D+00
322  3.2100000000000D+00  0.0000000000000D+00  0.0000000000000D+00
323  3.2200000000000D+00  0.0000000000000D+00  0.0000000000000D+00
324  3.2300000000000D+00  0.0000000000000D+00  0.0000000000000D+00
325  3.2400000000000D+00  0.0000000000000D+00  0.0000000000000D+00
326  3.2500000000000D+00  0.0000000000000D+00  0.0000000000000D+00
327  3.2600000000000D+00  0.0000000000000D+00  0.0000000000000D+00
328  3.2700000000000D+00  0.0000000000000D+00  0.0000000000000D+00
329  3.2800000000000D+00  0.0000000000000D+00  0.0000000000000D+00
330  3.2900000000000D+00  0.0000000000000D+00  0.0000000000000D+00
331  3.3000000000000D+00  0.0000000000000D+00  0.0000000000000D+00
332  3.3100000000000D+00  0.0000000000000D+00  0.0000000000000D+00
333  3.3200000000000D+00  0.0000000000000D+00  0.0000000000000D+00
334  3.3300000000000D+00  0.0000000000000D+00  0.0000000000000D+00
335  3.3400000000000D+00  0.0000000000000D+00  0.0000000000000D+00
336  3.3500000000000D+00  0.0000000000000D+00  0.0000000000000D+00
337  3.3600000000000D+00  0.0000000000000D+00  0.0000000000000D+00
338  3.3700000000000D+00  0.0000000000000D+00  0.0000000000000D+00
339  3.3800000000000D+00  0.0000000000000D+00  0.0000000000000D+00
340  3.3900000000000D+00  0.0000000000000D+00  0.0000000000000D+00
341  3.4000000000000D+00  0.0000000000000D+00  0.0000000000000D+00
342  3.4100000000000D+00  0.0000000000000D+00  0.0000000000000D+00
343  3.4200000000000D+00  0.0000000000000D+00  0.0000000000000D+00
344  3.4300000000000D+00  0.0000000000000D+00  0.0000000000000D+00
345  3.4400000000000D+00  0.0000000000000D+00  0.0000000000000D+00
346  3.4500000000000D+00  0.0000000000000D+00  0.0000000000000D+00
347  3.4600000000000D+00  0.0000000000000D+00  0.0000000000000D+00
348  3.4700000000000D+00  0.0000000000000D+00  0.0000000000000D+00
349  3.4800000000000D+00  0.0000000000000D+00  0.0000000000000D+00
350  3.4900000000000D+00  0.0000000000000D+00  0.0000000000000D+00
351  3.5000000000000D+00  0.0000000000000D+00  0.0000000000000D+00
352  3.5100000000000D+00  0.0000000000000D+00  0.0000000000000D+00
353  3.5200000000000D+00  0.0000000000000D+00  0.0000000000000D+00
354  3.5300000000000D+00  0.0000000000000D+00  0.0000000000000D+00
355  3.5400000000000D+00  0.0000000000000D+00  0.0000000000000D+00
356  3.5500000000000D+00  0.0000000000000D+00  0.0000000000000D+00
357  3.5600000000000D+00  0.0000000000000D+00  0.0000000000000D+00
358  3.5700000000000D+00  0.0000000000000D+00  0.0000000000000D+00
359  3.5800000000000D+00  0.0000000000000D+00  0.0000000000000D+00
360  3.5900000000000D+00  0.0000000000000D+00  0.0000000000000D+00
361  3.6000000000000D+00  0.0000000000000D+00  0.0000000000000D+00
362  3.6100000000000D+00  0.0000000000000D+00  0.0000000000000D+00
363  3.6200000000000D+00  0.0000000000000D+00  0.0000000000000D+00
364  3.6300000000000D+00  0.0000000000000D+00  0.0000000000000D+00
365  3.6400000000000D+00  0.0000000000000D+00  0.0000000000000D+00
366  3.6500000000000D+00  0.0000000000000D+00  0.0000000000000D+00
367  3.6600000000000D+00  0.0000000000000D+00  0.0000000000000D+00
368  3.6700000000000D+00  0.0000000000000D+00  0.0000000000000D+00
369  3.6800000000000D+00  0.0000000000000D+00  0.0000000000000D+00
370  3.6900000000000D+00  0.0000000000000D+00  0.0000000000000D+00
371  3.7000000000000D+00  0.0000000000000D+00  0.0000000000000D+00
372  3.7100000000000D+00  0.0000000000000D+00  0.0000000000000D+00
373  3.7200000000000D+00  0.0000000000000D+00  0.0000000000000D+00
374  3.7300000000000D+00  0.0000000000000D+00  0.0000000000000D+00
375  3.7400000000000D+00  0.0000000000000D+00  0.0000000000000D+00
376  3.7500000000000D+00  0.0000000000000D+00  0.0000000000000D+00
377  3.7600000000000D+00  0.0000000000000D+00  0.0000000000000D+00
378  3.7700000000000D+00  0.0000000000000D+00  0.0000000000000D+00
379  3.7800000000000D+00  0.0000000000000D+00  0.0000000000000D+00
380  3.7900000000000D+00  0.0000000000000D+00  0.0000000000000D+00
381  3.8000000000000D+00  0.0000000000000D+00  0.0000000000000D+00
382  3.8100000000000D+00  0.0000000000000D+00  0.0000000000000D+00
383  3.8200000000000D+00  0.0000000000000D+00  0.0000000000000D+00
384  3.8300000000000D+00  0.0000000000000D+00  0.0000000000000D+00
385  3.8400000000000D+00  0.0000000000000D+00  0.0000000000000D+00
386  3.8500000000000D+00  0.0000000000000D+00  0.0000000000000D+00
387  3.8600000000000D+00  0.0000000000000D+00  0.0000000000000D+00
388  3.8700000000000D+00  0.0000000000000D+00  0.0000000000000D+00
389  3.8800000000000D+00  0.0000000000000D+00  0.0000000000000D+00
390  3.8900000000000D+00  0.0000000000000D+00  0.0000000000000D+00
391  3.9000000000000D+00  0.0000000000000D+00  0.0000000000000D+00
392  3.9100000000000D+00  0.0000000000000D+00  0.0000000000000D+00
393  3.9200000000000D+00  0.0000000000000D+00  0.0000000000000D+00
394  3.9300000000000D+00  0.0000000000000D+00  0.0000000000000D+00
395  3.9400000000000D+00  0.0000000000000D+00  0.0000000000000D+00
396  3.9500000000000D+00  0.0000000000000D+00  0.0000000000000D+00
397  3.9600000000000D+00  0.0000000000000D+00  0.0000000000000D+00
398  3.9700000000000D+00  0.0000000000000D+00  0.0000000000000D+00
399  3.9800000000000D+00  0.0000000000000D+00  0.0000000000000D+00
400  3.9900000000000D+00  0.0000000000000D+00  0.0000000000000D+00
401  4.0000000000000D+00  0.0000000000000D+00  0.0000000000000D+00
402  4.0100000000000D+00  0.0000000000000D+00  0.0000000000000D+00
403  4.0200000000000D+00  0.0000000000000D+00  0.0000000000000D+00
404  4.0300000000000D+00  0.0000000000000D+00  0.0000000000000D+00
405  4.0400000000000D+00  0.0000000000000D+00  0.0000000000000D+00
406  4.0500000000000D+00  0.0000000000000D+00  0.0000000000000D+00
407  4.0600000000000D+00  0.0000000000000D+00  0.0000000000000D+00
408  4.0700000000000D+00  0.0000000000000D+00  0.0000000000000D+00
409  4.0800000000000D+00  0.0000000000000D+00  0.0000000000000D+00
410  4.0900000000000D+00  0.0000000000000D+00  0.0000000000000D+00
411  4.1000000000000D+00  0.0000000000000D+00  0.0000000000000D+00
412  4.1100000000000D+00  0.0000000000000D+00  0.0000000000000D+00
413  4.1200000000000D+00  0.0000000000000D+00  0.0000000000000D+00
414  4.1300000000000D+00  0.0000000000000D+00  0.0000000000000D+00
415  4.1400000000000D+00  0.0000000000000D+00  0.0000000000000D+00
416  4.1500000000000D+00  0.0000000000000D+00  0.0000000000000D+00
417  4.1600000000000D+00  0.0000000000000D+00  0.0000000000000D+00
418  4.1700000000000D+00  0.0000000000000D+00  0.0000000000000D+00
419  4.1800000000000D+00  0.0000000000000D+00  0.0000000000000D+00
420  4.1900000000000D+00  0.0000000000000D+00  0.0000000000000D+00
421  4.2000000000000D+00  0.0000000000000D+00  0.0000000000000D+00
422  4.2100000000000D+00  0.0000000000000D+00  0.0000000000000D+00
423  4.2200000000000D+00  0.0000000000000D+00  0.0000000000000D+00
424  4.2300000000000D+00  0.0000000000000D+00  0.0000000000000D+00
425  4.2400000000000D+00  0.0000000000000D+00  0.0000000000000D+00
426  4.2500000000000D+00  0.0000000000000D+00  0.0000000000000D+00
427  4.2600000000000D+00  0.0000000000000D+00  0.0000000000000D+00
428  4.2700000000000D+00  0.0000000000000D+00  0.0000000000000D+00
429  4.2800000000000D+00  0.0000000000000D+00  0.0000000000000D+00
430  4.2900000000000D+00  0.0000000000000D+00  0.0000000000000D+00
431  4.3000000000000D+00  0.0000000000000D+00  0.0000000000000D+00
432  4.3100000000000D+00  0.0000000000000D+00  0.0000000000000D+00
433  4.3200000000000D+00  0.0000000000000D+00  0.0000000000000D+00
434  4.3300000000000D+00  0.0000000000000D+00  0.0000000000000D+00
435  4.3400000000000D+00  0.0000000000000D+00  0.0000000000000D+00
436  4.3500000000000D+00  0.0000000000000D+00  0.0000000000000D+00
437  4.3600000000000D+00  0.0000000000000D+00  0.0000000000000D+00
438  4.3700000000000D+00  0.0000000000000D+00  0.0000000000000D+00
439  4.3800000000000D+00  0.0000000000000D+00  0.0000000000000D+00
440  4.3900000000000D+00  0.0000000000000D+00  0.0000000000000D+00
441  4.4000000000000D+00  0.0000000000000D+00  0.0000000000000D+00
442  4.4100000000000D+00  0.0000000000000D+00  0.0000000000000D+00
443  4.4200000000000D+00  0.0000000000000D+00  0.0000000000000D+00