Pb    ONCVPSP-3.3.0  r_core=   2.42823   2.42823   2.10438
82.0000     14.0000      180423    zatom,zion,pspd
8      11   2     4   600     0    pspcod,pspxc,lmax,lloc,mmax,r2well
5.99000000  6.00000000  0.00000000    rchrg fchrg qchrg
2     4     3     0    nproj
3     1           extension_switch
4     3     0    nprojso
0                         9.7197788742328D-01  5.3818282517070D+00
1  0.0000000000000D+00 -5.9768023863427D-12  1.7367773885724D-12
2  1.0000000000000D-02  1.8136572631307D-02  9.2056825010422D-03
3  2.0000000000000D-02  3.6205880455747D-02  1.8434820026307D-02
4  3.0000000000000D-02  5.4140876300123D-02  2.7710787989007D-02
5  4.0000000000000D-02  7.1874947641672D-02  3.7056802783718D-02
6  5.0000000000000D-02  8.9342132392513D-02  4.6495842785047D-02
7  6.0000000000000D-02  1.0647733283938D-01  5.6050569954698D-02
8  7.0000000000000D-02  1.2321652713070D-01  6.5743252257675D-02
9  8.0000000000000D-02  1.3949697770908D-01  7.5595687086665D-02
10  9.0000000000000D-02  1.5525743609473D-01  8.5629125891473D-02
11  1.0000000000000D-01  1.7043834343419D-01  9.5864200207772D-02
12  1.1000000000000D-01  1.8498202623918D-01  1.0632084927644D-01
13  1.2000000000000D-01  1.9883288675218D-01  1.1701824944130D-01
14  1.3000000000000D-01  2.1193758738848D-01  1.2797474550922D-01
15  1.4000000000000D-01  2.2424522871922D-01  1.3920778425232D-01
16  1.5000000000000D-01  2.3570752047567D-01  1.5073385022727D-01
17  1.6000000000000D-01  2.4627894507258D-01  1.6256840408161D-01
18  1.7000000000000D-01  2.5591691316694D-01  1.7472582351177D-01
19  1.8000000000000D-01  2.6458191078839D-01  1.8721934703112D-01
20  1.9000000000000D-01  2.7223763759877D-01  2.0006102070077D-01
21  2.0000000000000D-01  2.7885113586056D-01  2.1326164796871D-01
22  2.1000000000000D-01  2.8439290971778D-01  2.2683074275631D-01
23  2.2000000000000D-01  2.8883703441718D-01  2.4077648592352D-01
24  2.3000000000000D-01  2.9216125512373D-01  2.5510568523687D-01
25  2.4000000000000D-01  2.9434707501094D-01  2.6982373895598D-01
26  2.5000000000000D-01  2.9537983233451D-01  2.8493460314632D-01
27  2.6000000000000D-01  2.9524876622632D-01  3.0044076281723D-01
28  2.7000000000000D-01  2.9394707097556D-01  3.1634320697519D-01
29  2.8000000000000D-01  2.9147193859407D-01  3.3264140767356D-01
30  2.9000000000000D-01  2.8782458949407D-01  3.4933330313008D-01
31  3.0000000000000D-01  2.8301029113839D-01  3.6641528497431D-01
32  3.1000000000000D-01  2.7703836455570D-01  3.8388218967683D-01
33  3.2000000000000D-01  2.6992217864615D-01  4.0172729420232D-01
34  3.3000000000000D-01  2.6167913223631D-01  4.1994231591810D-01
35  3.4000000000000D-01  2.5233062387620D-01  4.3851741677957D-01
36  3.5000000000000D-01  2.4190200940524D-01  4.5744121180314D-01
37  3.6000000000000D-01  2.3042254734830D-01  4.7670078182669D-01
38  3.7000000000000D-01  2.1792533223767D-01  4.9628169054697D-01
39  3.8000000000000D-01  2.0444721599115D-01  5.1616800581215D-01
40  3.9000000000000D-01  1.9002871751113D-01  5.3634232513720D-01
41  4.0000000000000D-01  1.7471392070389D-01  5.5678580539854D-01
42  4.1000000000000D-01  1.5855036115246D-01  5.7747819665379D-01
43  4.2000000000000D-01  1.4158890171033D-01  5.9839788002120D-01
44  4.3000000000000D-01  1.2388359731683D-01  6.1952190954292D-01
45  4.4000000000000D-01  1.0549154936779D-01  6.4082605794513D-01
46  4.5000000000000D-01  8.6472750007539D-02  6.6228486619767D-01
47  4.6000000000000D-01  6.6889916740067D-02  6.8387169676530D-01
48  4.7000000000000D-01  4.6808317787825D-02  7.0555879043216D-01
49  4.8000000000000D-01  2.6295588656888D-02  7.2731732657125D-01
50  4.9000000000000D-01  5.4215403958983D-03  7.4911748672050D-01
51  5.0000000000000D-01 -1.5742039935722D-02  7.7092852131766D-01
52  5.1000000000000D-01 -3.7121596047980D-02  7.9271881943657D-01
53  5.2000000000000D-01 -5.8642015881571D-02  8.1445598135874D-01
54  5.3000000000000D-01 -8.0226851158313D-02  8.3610689380504D-01
55  5.4000000000000D-01 -1.0179854240658D-01  8.5763780764436D-01
56  5.5000000000000D-01 -1.2327864882638D-01  8.7901441788797D-01
57  5.6000000000000D-01 -1.4458808233931D-01  9.0020194577097D-01
58  5.7000000000000D-01 -1.6564734515098D-01  9.2116522271495D-01
59  5.8000000000000D-01 -1.8637677013745D-01  9.4186877595987D-01
60  5.9000000000000D-01 -2.0669676335340D-01  9.6227691564665D-01
61  6.0000000000000D-01 -2.2652804794738D-01  9.8235382312687D-01
62  6.1000000000000D-01 -2.4579190875968D-01  1.0020636402708D+00
63  6.2000000000000D-01 -2.6441043687012D-01  1.0213705595406D+00
64  6.3000000000000D-01 -2.8230677335725D-01  1.0402389145924D+00
65  6.4000000000000D-01 -2.9940535152670D-01  1.0586332711658D+00
66  6.5000000000000D-01 -3.1563213686494D-01  1.0765185180210D+00
67  6.6000000000000D-01 -3.3091486397532D-01  1.0938599576761D+00
68  6.7000000000000D-01 -3.4518326975646D-01  1.1106233967015D+00
69  6.8000000000000D-01 -3.5836932208826D-01  1.1267752353240D+00
70  6.9000000000000D-01 -3.7040744329849D-01  1.1422825560958D+00
71  7.0000000000000D-01 -3.8123472769288D-01  1.1571132113827D+00
72  7.1000000000000D-01 -3.9079115244399D-01  1.1712359094283D+00
73  7.2000000000000D-01 -3.9901978114875D-01  1.1846202987535D+00
74  7.3000000000000D-01 -4.0586695938155D-01  1.1972370506535D+00
75  7.4000000000000D-01 -4.1128250158902D-01  1.2090579395575D+00
76  7.5000000000000D-01 -4.1521986869403D-01  1.2200559210212D+00
77  7.6000000000000D-01 -4.1763633580046D-01  1.2302052071288D+00
78  7.7000000000000D-01 -4.1849314941585D-01  1.2394813390837D+00
79  7.8000000000000D-01 -4.1775567363738D-01  1.2478612567778D+00
80  7.9000000000000D-01 -4.1539352477661D-01  1.2553233651325D+00
81  8.0000000000000D-01 -4.1138069393032D-01  1.2618475970159D+00
82  8.1000000000000D-01 -4.0569565703926D-01  1.2674154725468D+00
83  8.2000000000000D-01 -3.9832147201167D-01  1.2720101546061D+00
84  8.3000000000000D-01 -3.8924586252684D-01  1.2756165003864D+00
85  8.4000000000000D-01 -3.7846128817249D-01  1.2782211088208D+00
86  8.5000000000000D-01 -3.6596500061043D-01  1.2798123637411D+00
87  8.6000000000000D-01 -3.5175908550760D-01  1.2803804726312D+00
88  8.7000000000000D-01 -3.3585049001211D-01  1.2799175008479D+00
89  8.8000000000000D-01 -3.1825103559897D-01  1.2784174011990D+00
90  8.9000000000000D-01 -2.9897741615530D-01  1.2758760387771D+00
91  9.0000000000000D-01 -2.7805118122136D-01  1.2722912109647D+00
92  9.1000000000000D-01 -2.5549870435044D-01  1.2676626625357D+00
93  9.2000000000000D-01 -2.3135113659870D-01  1.2619920957959D+00
94  9.3000000000000D-01 -2.0564434520343D-01  1.2552831757174D+00
95  9.4000000000000D-01 -1.7841883755702D-01  1.2475415300359D+00
96  9.5000000000000D-01 -1.4971967063172D-01  1.2387747442963D+00
97  9.6000000000000D-01 -1.1959634605869D-01  1.2289923518443D+00
98  9.7000000000000D-01 -8.8102691112927D-02  1.2182058187792D+00
99  9.8000000000000D-01 -5.5296725902673D-02  1.2064285238954D+00
100  9.9000000000000D-01 -2.1240517109564D-02  1.1936757336564D+00
101  1.0000000000000D+00  1.3999981328809D-02  1.1799645722604D+00
102  1.0100000000000D+00  5.0355100156975D-02  1.1653139868695D+00
103  1.0200000000000D+00  8.7751638878498D-02  1.1497447080902D+00
104  1.0300000000000D+00  1.2611306144802D-01  1.1332792058082D+00
105  1.0400000000000D+00  1.6535970301303D-01  1.1159416404915D+00
106  1.0500000000000D+00  2.0540898709957D-01  1.0977578100943D+00
107  1.0600000000000D+00  2.4617565259925D-01  1.0787550927019D+00
108  1.0700000000000D+00  2.8757198987839D-01  1.0589623850753D+00
109  1.0800000000000D+00  3.2950808529507D-01  1.0384100372628D+00
110  1.0900000000000D+00  3.7189207337943D-01  1.0171297834606D+00
111  1.1000000000000D+00  4.1463039590143D-01  9.9515466931451D-01
112  1.1100000000000D+00  4.5762806702577D-01  9.7251897586618D-01
113  1.1200000000000D+00  5.0078894372648D-01  9.4925814035797D-01
114  1.1300000000000D+00  5.4401600061296D-01  9.2540867412018D-01
115  1.1400000000000D+00  5.8721160830002D-01  9.0100807777357D-01
116  1.1500000000000D+00  6.3027781443931D-01  8.7609475398784D-01
117  1.1600000000000D+00  6.7311662651525D-01  8.5070791804462D-01
118  1.1700000000000D+00  7.1563029549798D-01  8.2488750646081D-01
119  1.1800000000000D+00  7.5772159944026D-01  7.9867408393372D-01
120  1.1900000000000D+00  7.9929412610076D-01  7.7210874887368D-01
121  1.2000000000000D+00  8.4025255367436D-01  7.4523303779565D-01
122  1.2100000000000D+00  8.8050292871404D-01  7.1808882884393D-01
123  1.2200000000000D+00  9.1995294033571D-01  6.9071824472636D-01
124  1.2300000000000D+00  9.5851218980081D-01  6.6316355533638D-01
125  1.2400000000000D+00  9.9609245458980D-01  6.3546708034236D-01
126  1.2500000000000D+00  1.0326079460977D+00  6.0767109202197D-01
127  1.2600000000000D+00  1.0679755600848D+00  5.7981771862050D-01
128  1.2700000000000D+00  1.1021151190568D+00  5.5194884850837D-01
129  1.2800000000000D+00  1.1349496057735D+00  5.2410603540854D-01
130  1.2900000000000D+00  1.1664053870823D+00  4.9633040496640D-01
131  1.3000000000000D+00  1.1964124273440D+00  4.6866256292354D-01
132  1.3100000000000D+00  1.2249044907403D+00  4.4114250515192D-01
133  1.3200000000000D+00  1.2518193317505D+00  4.1380952980667D-01
134  1.3300000000000D+00  1.2770988731869D+00  3.8670215183617D-01
135  1.3400000000000D+00  1.3006893711835D+00  3.5985802008598D-01
136  1.3500000000000D+00  1.3225415665472D+00  3.3331383723189D-01
137  1.3600000000000D+00  1.3426108220115D+00  3.0710528274854D-01
138  1.3700000000000D+00  1.3608572448885D+00  2.8126693912976D-01
139  1.3800000000000D+00  1.3772457946995D+00  2.5583222155884D-01
140  1.3900000000000D+00  1.3917463754828D+00  2.3083331119843D-01
141  1.4000000000000D+00  1.4043339123629D+00  2.0630109229797D-01
142  1.4100000000000D+00  1.4149884122206D+00  1.8226509325490D-01
143  1.4200000000000D+00  1.4236950082206D+00  1.5875343178614D-01
144  1.4300000000000D+00  1.4304439880083D+00  1.3579276435325D-01
145  1.4400000000000D+00  1.4352308056040D+00  1.1340823992942D-01
146  1.4500000000000D+00  1.4380560767944D+00  9.1623458255537D-02
147  1.4600000000000D+00  1.4389255582054D+00  7.0460432633372D-02
148  1.4700000000000D+00  1.4378501100353D+00  4.9939557355746D-02
149  1.4800000000000D+00  1.4348456425970D+00  3.0079579831682D-02
150  1.4900000000000D+00  1.4299330469514D+00  1.0897577424789D-02
151  1.5000000000000D+00  1.4231381097055D+00 -7.5910609167983D-03
152  1.5100000000000D+00  1.4144914125161D+00 -2.5372648292600D-02
153  1.5200000000000D+00  1.4040282164068D+00 -4.2435208674731D-02
154  1.5300000000000D+00  1.3917883315329D+00 -5.8768481007262D-02
155  1.5400000000000D+00  1.3778159726980D+00 -7.4363918566937D-02
156  1.5500000000000D+00  1.3621596012174D+00 -8.9214683655498D-02
157  1.5600000000000D+00  1.3448717536863D+00 -1.0331563768806D-01
158  1.5700000000000D+00  1.3260088581859D+00 -1.1666332672780D-01
159  1.5800000000000D+00  1.3056310387218D+00 -1.2925596260725D-01
160  1.5900000000000D+00  1.2838019083788D+00 -1.4109339966898D-01
161  1.6000000000000D+00  1.2605883521792D+00 -1.5217710733321D-01
162  1.6100000000000D+00  1.2360603001185D+00 -1.6251013851695D-01
163  1.6200000000000D+00  1.2102904914790D+00 -1.7209709415923D-01
164  1.6300000000000D+00  1.1833542309585D+00 -1.8094408389179D-01
165  1.6400000000000D+00  1.1553291377313D+00 -1.8905868312687D-01
166  1.6500000000000D+00  1.1262948880921D+00 -1.9644988663654D-01
167  1.6600000000000D+00  1.0963329527722D+00 -2.0312805889557D-01
168  1.6700000000000D+00  1.0655263296863D+00 -2.0910488129918D-01
169  1.6800000000000D+00  1.0339592731611D+00 -2.1439329652641D-01
170  1.6900000000000D+00  1.0017170204914D+00 -2.1900745019067D-01
171  1.7000000000000D+00  9.6888551682909D-01 -2.2296263004708D-01
172  1.7100000000000D+00  9.3555113932106D-01 -2.2627520292244D-01
173  1.7200000000000D+00  9.0180042143500D-01 -2.2896254963463D-01
174  1.7300000000000D+00  8.6771977846254D-01 -2.3104299808786D-01
175  1.7400000000000D+00  8.3339523502896D-01 -2.3253575480237D-01
176  1.7500000000000D+00  7.9891215569782D-01 -2.3346083508658D-01
177  1.7600000000000D+00  7.6435497932425D-01 -2.3383899209105D-01
178  1.7700000000000D+00  7.2980695839462D-01 -2.3369164498112D-01
179  1.7800000000000D+00  6.9534990374194D-01 -2.3304080643099D-01
180  1.7900000000000D+00  6.6106393607855D-01 -2.3190900971621D-01
181  1.8000000000000D+00  6.2702724443247D-01 -2.3031923555622D-01
182  1.8100000000000D+00  5.9331585307205D-01 -2.2829483902291D-01
183  1.8200000000000D+00  5.6000339681657D-01 -2.2585947662236D-01
184  1.8300000000000D+00  5.2716090626303D-01 -2.2303703387904D-01
185  1.8400000000000D+00  4.9485660284414D-01 -2.1985155351468D-01
186  1.8500000000000D+00  4.6315570495261D-01 -2.1632716452099D-01
187  1.8600000000000D+00  4.3212024529810D-01 -2.1248801224827D-01
188  1.8700000000000D+00  4.0180890016236D-01 -2.0835818972109D-01
189  1.8800000000000D+00  3.7227683124840D-01 -2.0396167039227D-01
190  1.8900000000000D+00  3.4357553991611D-01 -1.9932224238936D-01
191  1.9000000000000D+00  3.1575273530349D-01 -1.9446344461839D-01
192  1.9100000000000D+00  2.8885221504820D-01 -1.8940850456682D-01
193  1.9200000000000D+00  2.6291376084007D-01 -1.8418027832374D-01
194  1.9300000000000D+00  2.3797304702934D-01 -1.7880119255004D-01
195  1.9400000000000D+00  2.1406156411085D-01 -1.7329318884900D-01
196  1.9500000000000D+00  1.9120655610940D-01 -1.6767767041912D-01
197  1.9600000000000D+00  1.6943097225933D-01 -1.6197545115536D-01
198  1.9700000000000D+00  1.4875343345850D-01 -1.5620670738185D-01
199  1.9800000000000D+00  1.2918821207735D-01 -1.5039093199385D-01
200  1.9900000000000D+00  1.1074522705214D-01 -1.4454689151324D-01
201  2.0000000000000D+00  9.3430051772371D-02 -1.3869258558913D-01
202  2.0100000000000D+00  7.7243936575165D-02 -1.3284520943592D-01
203  2.0200000000000D+00  6.2183844255899D-02 -1.2702111892982D-01
204  2.0300000000000D+00  4.8242498558514D-02 -1.2123579844221D-01
205  2.0400000000000D+00  3.5408442176377D-02 -1.1550383052642D-01
206  2.0500000000000D+00  2.3666126581860D-02 -1.0983887376162D-01
207  2.0600000000000D+00  1.2995956158631D-02 -1.0425362719755D-01
208  2.0700000000000D+00  3.3744539020747D-03 -9.8759829002831D-02
209  2.0800000000000D+00 -5.2256508491026D-03 -9.3368232001311D-02
210  2.0900000000000D+00 -1.2835332788500D-02 -8.8088578117314D-02
211  2.1000000000000D+00 -1.9489399078101D-02 -8.2929518286434D-02
212  2.1100000000000D+00 -2.5225807823505D-02 -7.7898749264955D-02
213  2.1200000000000D+00 -3.0085331855152D-02 -7.3003054834335D-02
214  2.1300000000000D+00 -3.4111111104890D-02 -6.8248388403363D-02
215  2.1400000000000D+00 -3.7348267233248D-02 -6.3639946013063D-02
216  2.1500000000000D+00 -3.9843144566309D-02 -5.9182339610436D-02
217  2.1600000000000D+00 -4.1643392177138D-02 -5.4879542460636D-02
218  2.1700000000000D+00 -4.2797738975045D-02 -5.0734922790860D-02
219  2.1800000000000D+00 -4.3355794991427D-02 -4.6751269170595D-02
220  2.1900000000000D+00 -4.3367749730758D-02 -4.2930841929075D-02
221  2.2000000000000D+00 -4.2884190550845D-02 -3.9275395249445D-02
222  2.2100000000000D+00 -4.1955861606284D-02 -3.5786215243352D-02
223  2.2200000000000D+00 -4.0633441601274D-02 -3.2464153849922D-02
224  2.2300000000000D+00 -3.8967322891120D-02 -2.9309663177494D-02
225  2.2400000000000D+00 -3.7007394019743D-02 -2.6322829831197D-02
226  2.2500000000000D+00 -3.4802825889190D-02 -2.3503409110158D-02
227  2.2600000000000D+00 -3.2401863702054D-02 -2.0850858640233D-02
228  2.2700000000000D+00 -2.9851625106370D-02 -1.8364371334294D-02
229  2.2800000000000D+00 -2.7197903952659D-02 -1.6042907790792D-02
230  2.2900000000000D+00 -2.4484983261226D-02 -1.3885227368098D-02
231  2.3000000000000D+00 -2.1755455428882D-02 -1.1889918338836D-02
232  2.3100000000000D+00 -1.9050050991624D-02 -1.0055426839830D-02
233  2.3200000000000D+00 -1.6407478611178D-02 -8.3800840329553D-03
234  2.3300000000000D+00 -1.3864273517666D-02 -6.8621320743902D-03
235  2.3400000000000D+00 -1.1454657476603D-02 -5.4997482167929D-03
236  2.3500000000000D+00 -9.2125859451937D-03 -4.2917848731089D-03
237  2.3600000000000D+00 -7.1639145307574D-03 -3.2352431717938D-03
238  2.3700000000000D+00 -5.3326868329874D-03 -2.3274011685096D-03
239  2.3800000000000D+00 -3.7325243159736D-03 -1.5635918675674D-03
240  2.3900000000000D+00 -2.4112826894090D-03 -9.4977410240609D-04
241  2.4000000000000D+00 -1.4005922549394D-03 -4.8807302228979D-04
242  2.4100000000000D+00 -7.2326667811134D-04 -1.7689391547333D-04
243  2.4200000000000D+00 -3.1406733377156D-04  3.3790415607955D-06
244  2.4300000000000D+00 -1.0351566196661D-04  7.6703280630721D-05
245  2.4400000000000D+00 -1.2666306277582D-05  7.2195050337344D-05
246  2.4500000000000D+00  6.0931540501942D-06  3.2063170432841D-05
247  2.4600000000000D+00 -1.8413613256076D-06 -6.1074258750486D-06
248  2.4700000000000D+00 -6.9503614678606D-06 -1.6486720285407D-05
249  2.4800000000000D+00 -4.7865765603579D-06 -9.5771826100669D-06
250  2.4900000000000D+00  1.5735011934826D-07  1.2868229347050D-06
251  2.5000000000000D+00  5.8006509409152D-07  3.3289229441089D-06
252  2.5100000000000D+00  4.3439347394253D-07  2.0170349403044D-06
253  2.5200000000000D+00  1.4407000575752D-07 -7.7847280502853D-08
254  2.5300000000000D+00  3.6983794244897D-07 -1.9983950090820D-07
255  2.5400000000000D+00  2.3206287558402D-07 -1.2539364925336D-07
256  2.5500000000000D+00  0.0000000000000D+00  0.0000000000000D+00
257  2.5600000000000D+00  0.0000000000000D+00  0.0000000000000D+00
258  2.5700000000000D+00  0.0000000000000D+00  0.0000000000000D+00
259  2.5800000000000D+00  0.0000000000000D+00  0.0000000000000D+00
260  2.5900000000000D+00  0.0000000000000D+00  0.0000000000000D+00
261  2.6000000000000D+00  0.0000000000000D+00  0.0000000000000D+00
262  2.6100000000000D+00  0.0000000000000D+00  0.0000000000000D+00
263  2.6200000000000D+00  0.0000000000000D+00  0.0000000000000D+00
264  2.6300000000000D+00  0.0000000000000D+00  0.0000000000000D+00
265  2.6400000000000D+00  0.0000000000000D+00  0.0000000000000D+00
266  2.6500000000000D+00  0.0000000000000D+00  0.0000000000000D+00
267  2.6600000000000D+00  0.0000000000000D+00  0.0000000000000D+00
268  2.6700000000000D+00  0.0000000000000D+00  0.0000000000000D+00
269  2.6800000000000D+00  0.0000000000000D+00  0.0000000000000D+00
270  2.6900000000000D+00  0.0000000000000D+00  0.0000000000000D+00
271  2.7000000000000D+00  0.0000000000000D+00  0.0000000000000D+00
272  2.7100000000000D+00  0.0000000000000D+00  0.0000000000000D+00
273  2.7200000000000D+00  0.0000000000000D+00  0.0000000000000D+00
274  2.7300000000000D+00  0.0000000000000D+00  0.0000000000000D+00
275  2.7400000000000D+00  0.0000000000000D+00  0.0000000000000D+00
276  2.7500000000000D+00  0.0000000000000D+00  0.0000000000000D+00
277  2.7600000000000D+00  0.0000000000000D+00  0.0000000000000D+00
278  2.7700000000000D+00  0.0000000000000D+00  0.0000000000000D+00
279  2.7800000000000D+00  0.0000000000000D+00  0.0000000000000D+00
280  2.7900000000000D+00  0.0000000000000D+00  0.0000000000000D+00
281  2.8000000000000D+00  0.0000000000000D+00  0.0000000000000D+00
282  2.8100000000000D+00  0.0000000000000D+00  0.0000000000000D+00
283  2.8200000000000D+00  0.0000000000000D+00  0.0000000000000D+00
284  2.8300000000000D+00  0.0000000000000D+00  0.0000000000000D+00
285  2.8400000000000D+00  0.0000000000000D+00  0.0000000000000D+00
286  2.8500000000000D+00  0.0000000000000D+00  0.0000000000000D+00
287  2.8600000000000D+00  0.0000000000000D+00  0.0000000000000D+00
288  2.8700000000000D+00  0.0000000000000D+00  0.0000000000000D+00
289  2.8800000000000D+00  0.0000000000000D+00  0.0000000000000D+00
290  2.8900000000000D+00  0.0000000000000D+00  0.0000000000000D+00
291  2.9000000000000D+00  0.0000000000000D+00  0.0000000000000D+00
292  2.9100000000000D+00  0.0000000000000D+00  0.0000000000000D+00
293  2.9200000000000D+00  0.0000000000000D+00  0.0000000000000D+00
294  2.9300000000000D+00  0.0000000000000D+00  0.0000000000000D+00
295  2.9400000000000D+00  0.0000000000000D+00  0.0000000000000D+00
296  2.9500000000000D+00  0.0000000000000D+00  0.0000000000000D+00
297  2.9600000000000D+00  0.0000000000000D+00  0.0000000000000D+00
298  2.9700000000000D+00  0.0000000000000D+00  0.0000000000000D+00
299  2.9800000000000D+00  0.0000000000000D+00  0.0000000000000D+00
300  2.9900000000000D+00  0.0000000000000D+00  0.0000000000000D+00
301  3.0000000000000D+00  0.0000000000000D+00  0.0000000000000D+00
302  3.0100000000000D+00  0.0000000000000D+00  0.0000000000000D+00
303  3.0200000000000D+00  0.0000000000000D+00  0.0000000000000D+00
304  3.0300000000000D+00  0.0000000000000D+00  0.0000000000000D+00
305  3.0400000000000D+00  0.0000000000000D+00  0.0000000000000D+00
306  3.0500000000000D+00  0.0000000000000D+00  0.0000000000000D+00
307  3.0600000000000D+00  0.0000000000000D+00  0.0000000000000D+00
308  3.0700000000000D+00  0.0000000000000D+00  0.0000000000000D+00
309  3.0800000000000D+00  0.0000000000000D+00  0.0000000000000D+00
310  3.0900000000000D+00  0.0000000000000D+00  0.0000000000000D+00
311  3.1000000000000D+00  0.0000000000000D+00  0.0000000000000D+00
312  3.1100000000000D+00  0.0000000000000D+00  0.0000000000000D+00
313  3.1200000000000D+00  0.0000000000000D+00  0.0000000000000D+00
314  3.1300000000000D+00  0.0000000000000D+00  0.0000000000000D+00
315  3.1400000000000D+00  0.0000000000000D+00  0.0000000000000D+00
316  3.1500000000000D+00  0.0000000000000D+00  0.0000000000000D+00
317  3.1600000000000D+00  0.0000000000000D+00  0.0000000000000D+00
318  3.1700000000000D+00  0.0000000000000D+00  0.0000000000000D+00
319  3.1800000000000D+00  0.0000000000000D+00  0.0000000000000D+00
320  3.1900000000000D+00  0.0000000000000D+00  0.0000000000000D+00
321  3.2000000000000D+00  0.0000000000000D+00  0.0000000000000D+00
322  3.2100000000000D+00  0.0000000000000D+00  0.0000000000000D+00
323  3.2200000000000D+00  0.0000000000000D+00  0.0000000000000D+00
324  3.2300000000000D+00  0.0000000000000D+00  0.0000000000000D+00
325  3.2400000000000D+00  0.0000000000000D+00  0.0000000000000D+00
326  3.2500000000000D+00  0.0000000000000D+00  0.0000000000000D+00
327  3.2600000000000D+00  0.0000000000000D+00  0.0000000000000D+00
328  3.2700000000000D+00  0.0000000000000D+00  0.0000000000000D+00
329  3.2800000000000D+00  0.0000000000000D+00  0.0000000000000D+00
330  3.2900000000000D+00  0.0000000000000D+00  0.0000000000000D+00
331  3.3000000000000D+00  0.0000000000000D+00  0.0000000000000D+00
332  3.3100000000000D+00  0.0000000000000D+00  0.0000000000000D+00
333  3.3200000000000D+00  0.0000000000000D+00  0.0000000000000D+00
334  3.3300000000000D+00  0.0000000000000D+00  0.0000000000000D+00
335  3.3400000000000D+00  0.0000000000000D+00  0.0000000000000D+00
336  3.3500000000000D+00  0.0000000000000D+00  0.0000000000000D+00
337  3.3600000000000D+00  0.0000000000000D+00  0.0000000000000D+00
338  3.3700000000000D+00  0.0000000000000D+00  0.0000000000000D+00
339  3.3800000000000D+00  0.0000000000000D+00  0.0000000000000D+00
340  3.3900000000000D+00  0.0000000000000D+00  0.0000000000000D+00
341  3.4000000000000D+00  0.0000000000000D+00  0.0000000000000D+00
342  3.4100000000000D+00  0.0000000000000D+00  0.0000000000000D+00
343  3.4200000000000D+00  0.0000000000000D+00  0.0000000000000D+00
344  3.4300000000000D+00  0.0000000000000D+00  0.0000000000000D+00
345  3.4400000000000D+00  0.0000000000000D+00  0.0000000000000D+00
346  3.4500000000000D+00  0.0000000000000D+00  0.0000000000000D+00
347  3.4600000000000D+00  0.0000000000000D+00  0.0000000000000D+00
348  3.4700000000000D+00  0.0000000000000D+00  0.0000000000000D+00
349  3.4800000000000D+00  0.0000000000000D+00  0.0000000000000D+00
350  3.4900000000000D+00  0.0000000000000D+00  0.0000000000000D+00
351  3.5000000000000D+00  0.0000000000000D+00  0.0000000000000D+00
352  3.5100000000000D+00  0.0000000000000D+00  0.0000000000000D+00
353  3.5200000000000D+00  0.0000000000000D+00  0.0000000000000D+00
354  3.5300000000000D+00  0.0000000000000D+00  0.0000000000000D+00
355  3.5400000000000D+00  0.0000000000000D+00  0.0000000000000D+00
356  3.5500000000000D+00  0.0000000000000D+00  0.0000000000000D+00
357  3.5600000000000D+00  0.0000000000000D+00  0.0000000000000D+00
358  3.5700000000000D+00  0.0000000000000D+00  0.0000000000000D+00
359  3.5800000000000D+00  0.0000000000000D+00  0.0000000000000D+00
360  3.5900000000000D+00  0.0000000000000D+00  0.0000000000000D+00
361  3.6000000000000D+00  0.0000000000000D+00  0.0000000000000D+00
362  3.6100000000000D+00  0.0000000000000D+00  0.0000000000000D+00
363  3.6200000000000D+00  0.0000000000000D+00  0.0000000000000D+00
364  3.6300000000000D+00  0.0000000000000D+00  0.0000000000000D+00
365  3.6400000000000D+00  0.0000000000000D+00  0.0000000000000D+00
366  3.6500000000000D+00  0.0000000000000D+00  0.0000000000000D+00
367  3.6600000000000D+00  0.0000000000000D+00  0.0000000000000D+00
368  3.6700000000000D+00  0.0000000000000D+00  0.0000000000000D+00
369  3.6800000000000D+00  0.0000000000000D+00  0.0000000000000D+00
370  3.6900000000000D+00  0.0000000000000D+00  0.0000000000000D+00
371  3.7000000000000D+00  0.0000000000000D+00  0.0000000000000D+00
372  3.7100000000000D+00  0.0000000000000D+00  0.0000000000000D+00
373  3.7200000000000D+00  0.0000000000000D+00  0.0000000000000D+00
374  3.7300000000000D+00  0.0000000000000D+00  0.0000000000000D+00
375  3.7400000000000D+00  0.0000000000000D+00  0.0000000000000D+00
376  3.7500000000000D+00  0.0000000000000D+00  0.0000000000000D+00
377  3.7600000000000D+00  0.0000000000000D+00  0.0000000000000D+00
378  3.7700000000000D+00  0.0000000000000D+00  0.0000000000000D+00
379  3.7800000000000D+00  0.0000000000000D+00  0.0000000000000D+00
380  3.7900000000000D+00  0.0000000000000D+00  0.0000000000000D+00
381  3.8000000000000D+00  0.0000000000000D+00  0.0000000000000D+00
382  3.8100000000000D+00  0.0000000000000D+00  0.0000000000000D+00
383  3.8200000000000D+00  0.0000000000000D+00  0.0000000000000D+00
384  3.8300000000000D+00  0.0000000000000D+00  0.0000000000000D+00
385  3.8400000000000D+00  0.0000000000000D+00  0.0000000000000D+00
386  3.8500000000000D+00  0.0000000000000D+00  0.0000000000000D+00
387  3.8600000000000D+00  0.0000000000000D+00  0.0000000000000D+00
388  3.8700000000000D+00  0.0000000000000D+00  0.0000000000000D+00
389  3.8800000000000D+00  0.0000000000000D+00  0.0000000000000D+00
390  3.8900000000000D+00  0.0000000000000D+00  0.0000000000000D+00
391  3.9000000000000D+00  0.0000000000000D+00  0.0000000000000D+00
392  3.9100000000000D+00  0.0000000000000D+00  0.0000000000000D+00
393  3.9200000000000D+00  0.0000000000000D+00  0.0000000000000D+00
394  3.9300000000000D+00  0.0000000000000D+00  0.0000000000000D+00
395  3.9400000000000D+00  0.0000000000000D+00  0.0000000000000D+00
396  3.9500000000000D+00  0.0000000000000D+00  0.0000000000000D+00
397  3.9600000000000D+00  0.0000000000000D+00  0.0000000000000D+00
398  3.9700000000000D+00  0.0000000000000D+00  0.0000000000000D+00
399  3.9800000000000D+00  0.0000000000000D+00  0.0000000000000D+00
400  3.9900000000000D+00  0.0000000000000D+00  0.0000000000000D+00
401  4.0000000000000D+00  0.0000000000000D+00  0.0000000000000D+00
402  4.0100000000000D+00  0.0000000000000D+00  0.0000000000000D+00
403  4.0200000000000D+00  0.0000000000000D+00  0.0000000000000D+00
404  4.0300000000000D+00  0.0000000000000D+00  0.0000000000000D+00
405  4.0400000000000D+00  0.0000000000000D+00  0.0000000000000D+00
406  4.0500000000000D+00  0.0000000000000D+00  0.0000000000000D+00
407  4.0600000000000D+00  0.0000000000000D+00  0.0000000000000D+00
408  4.0700000000000D+00  0.0000000000000D+00  0.0000000000000D+00
409  4.0800000000000D+00  0.0000000000000D+00  0.0000000000000D+00
410  4.0900000000000D+00  0.0000000000000D+00  0.0000000000000D+00
411  4.1000000000000D+00  0.0000000000000D+00  0.0000000000000D+00
412  4.1100000000000D+00  0.0000000000000D+00  0.0000000000000D+00
413  4.1200000000000D+00  0.0000000000000D+00  0.0000000000000D+00
414  4.1300000000000D+00  0.0000000000000D+00  0.0000000000000D+00
415  4.1400000000000D+00  0.0000000000000D+00  0.0000000000000D+00
416  4.1500000000000D+00  0.0000000000000D+00  0.0000000000000D+00
417  4.1600000000000D+00  0.0000000000000D+00  0.0000000000000D+00
418  4.1700000000000D+00  0.0000000000000D+00  0.0000000000000D+00
419  4.1800000000000D+00  0.0000000000000D+00  0.0000000000000D+00
420  4.1900000000000D+00  0.0000000000000D+00  0.0000000000000D+00
421  4.2000000000000D+00  0.0000000000000D+00  0.0000000000000D+00
422  4.2100000000000D+00  0.0000000000000D+00  0.0000000000000D+00
423  4.2200000000000D+00  0.0000000000000D+00  0.0000000000000D+00
424  4.2300000000000D+00  0.0000000000000D+00  0.0000000000000D+00
425  4.2400000000000D+00  0.0000000000000D+00  0.0000000000000D+00
426  4.2500000000000D+00  0.0000000000000D+00  0.0000000000000D+00
427  4.2600000000000D+00  0.0000000000000D+00  0.0000000000000D+00
428  4.2700000000000D+00  0.0000000000000D+00  0.0000000000000D+00
429  4.2800000000000D+00  0.0000000000000D+00  0.0000000000000D+00
430  4.2900000000000D+00  0.0000000000000D+00  0.0000000000000D+00
431  4.3000000000000D+00  0.0000000000000D+00  0.0000000000000D+00
432  4.3100000000000D+00  0.0000000000000D+00  0.0000000000000D+00
433  4.3200000000000D+00  0.0000000000000D+00  0.0000000000000D+00
434  4.3300000000000D+00  0.0000000000000D+00  0.0000000000000D+00
435  4.3400000000000D+00  0.0000000000000D+00  0.0000000000000D+00
436  4.3500000000000D+00  0.0000000000000D+00  0.0000000000000D+00
437  4.3600000000000D+00  0.0000000000000D+00  0.0000000000000D+00
438  4.3700000000000D+00  0.0000000000000D+00  0.0000000000000D+00
439  4.3800000000000D+00  0.0000000000000D+00  0.0000000000000D+00
440  4.3900000000000D+00  0.0000000000000D+00  0.0000000000000D+00
441  4.4000000000000D+00  0.0000000000000D+00  0.0000000000000D+00
442  4.4100000000000D+00  0.0000000000000D+00  0.0000000000000D+00
443  4.4200000000000D+00  0.0000000000000D+00  0.0000000000000D+00