Eu    ONCVPSP-3.2.3.1  r_core=   1.80418   1.50859   1.65965   1.72011
63.0000     17.0000      170524    zatom,zion,pspd
8      11   3     4   600     0    pspcod,pspxc,lmax,lloc,mmax,r2well
5.99000000  0.25000000  0.00000000    rchrg fchrg qchrg
2     2     2     2     0    nproj
1     1           extension_switch
0                         8.7199193740716D+00  5.6167889646621D-01
1  0.0000000000000D+00 -4.9322601558544D-11  3.7482533743471D-10
2  1.0000000000000D-02  4.2272827582624D-02 -2.0200691320152D-02
3  2.0000000000000D-02  8.4502635008307D-02 -4.0278290602486D-02
4  3.0000000000000D-02  1.2664651284184D-01 -6.0110758261040D-02
5  4.0000000000000D-02  1.6866177198223D-01 -7.9578149362386D-02
6  5.0000000000000D-02  2.1050605106926D-01 -9.8563635419651D-02
7  6.0000000000000D-02  2.5213742061270D-01 -1.1695449581505D-01
8  7.0000000000000D-02  2.9351448280998D-01 -1.3464306916998D-01
9  8.0000000000000D-02  3.3459646606760D-01 -1.5152765535649D-01
10  9.0000000000000D-02  3.7534331330209D-01 -1.6751335930641D-01
11  1.0000000000000D-01  4.1571576316819D-01 -1.8251286832059D-01
12  1.1000000000000D-01  4.5567542344318D-01 -1.9644715520572D-01
13  1.2000000000000D-01  4.9518483588792D-01 -2.0924610026533D-01
14  1.3000000000000D-01  5.3420753200403D-01 -2.2084902593776D-01
15  1.4000000000000D-01  5.7270807921416D-01 -2.3120513870157D-01
16  1.5000000000000D-01  6.1065211710524D-01 -2.4027387374988D-01
17  1.6000000000000D-01  6.4800638349358D-01 -2.4802513886276D-01
18  1.7000000000000D-01  6.8473873019294D-01 -2.5443945487147D-01
19  1.8000000000000D-01  7.2081812849274D-01 -2.5950799110368D-01
20  1.9000000000000D-01  7.5621466447993D-01 -2.6323249521307D-01
21  2.0000000000000D-01  7.9089952446578D-01 -2.6562511782370D-01
22  2.1000000000000D-01  8.2484497090444D-01 -2.6670813344758D-01
23  2.2000000000000D-01  8.5802430931375D-01 -2.6651356015527D-01
24  2.3000000000000D-01  8.9041184682823D-01 -2.6508268148332D-01
25  2.4000000000000D-01  9.2198284312858D-01 -2.6246547504052D-01
26  2.5000000000000D-01  9.5271345459967D-01 -2.5871995321740D-01
27  2.6000000000000D-01  9.8258067266901D-01 -2.5391142230152D-01
28  2.7000000000000D-01  1.0115622573684D+00 -2.4811166714542D-01
29  2.8000000000000D-01  1.0396366672422D+00 -2.4139806931762D-01
30  2.9000000000000D-01  1.0667829867956D+00 -2.3385266737947D-01
31  3.0000000000000D-01  1.0929808527317D+00 -2.2556116856766D-01
32  3.1000000000000D-01  1.1182103802728D+00 -2.1661192171355D-01
33  3.2000000000000D-01  1.1424520908883D+00 -2.0709486169311D-01
34  3.3000000000000D-01  1.1656868427701D+00 -1.9710043606757D-01
35  3.4000000000000D-01  1.1878957653943D+00 -1.8671852484079D-01
36  3.5000000000000D-01  1.2090601994940D+00 -1.7603736442247D-01
37  3.6000000000000D-01  1.2291616437377D+00 -1.6514248694119D-01
38  3.7000000000000D-01  1.2481817093599D+00 -1.5411568599813D-01
39  3.8000000000000D-01  1.2661020839292D+00 -1.4303401978982D-01
40  3.9000000000000D-01  1.2829045053613D+00 -1.3196886225523D-01
41  4.0000000000000D-01  1.2985707471916D+00 -1.2098501252212D-01
42  4.1000000000000D-01  1.3130826160145D+00 -1.1013987243982D-01
43  4.2000000000000D-01  1.3264219618768D+00 -9.9482701396179D-02
44  4.3000000000000D-01  1.3385707022766D+00 -8.9053956926933D-02
45  4.4000000000000D-01  1.3495108602777D+00 -7.8884728843855D-02
46  4.5000000000000D-01  1.3592246170891D+00 -6.8996273739035D-02
47  4.6000000000000D-01  1.3676943792978D+00 -5.9399655773546D-02
48  4.7000000000000D-01  1.3749028607698D+00 -5.0095498638779D-02
49  4.8000000000000D-01  1.3808331790542D+00 -4.1073852496118D-02
50  4.9000000000000D-01  1.3854689659449D+00 -3.2314178566109D-02
51  5.0000000000000D-01  1.3887944916696D+00 -2.3785452861398D-02
52  5.1000000000000D-01  1.3907948019873D+00 -1.5446389351828D-02
53  5.2000000000000D-01  1.3914558672972D+00 -7.2457816235960D-03
54  5.3000000000000D-01  1.3907647426774D+00  8.7703913617966D-04
55  5.4000000000000D-01  1.3887097376013D+00  8.9916332234035D-03
56  5.5000000000000D-01  1.3852805939110D+00  1.7175773169960D-02
57  5.6000000000000D-01  1.3804686704729D+00  2.5514661939203D-02
58  5.7000000000000D-01  1.3742671327961D+00  3.4100055467053D-02
59  5.8000000000000D-01  1.3666711457639D+00  4.3029297523655D-02
60  5.9000000000000D-01  1.3576780675165D+00  5.2404275870343D-02
61  6.0000000000000D-01  1.3472876424247D+00  6.2330309610013D-02
62  6.1000000000000D-01  1.3355021910202D+00  7.2914978452415D-02
63  6.2000000000000D-01  1.3223267946908D+00  8.4266905342401D-02
64  6.3000000000000D-01  1.3077694729163D+00  9.6494504509409D-02
65  6.4000000000000D-01  1.2918413508120D+00  1.0970470748490D-01
66  6.5000000000000D-01  1.2745568147588D+00  1.2400167999680D-01
67  6.6000000000000D-01  1.2559336539414D+00  1.3948554287395D-01
68  6.7000000000000D-01  1.2359931856805D+00  1.5625111018065D-01
69  6.8000000000000D-01  1.2147603625332D+00  1.7438665774306D-01
70  6.9000000000000D-01  1.1922638592566D+00  1.9397273502664D-01
71  7.0000000000000D-01  1.1685361378663D+00  2.1508103297820D-01
72  7.1000000000000D-01  1.1436134891910D+00  2.3777331995295D-01
73  7.2000000000000D-01  1.1175360495102D+00  2.6210045721654D-01
74  7.3000000000000D-01  1.0903477910748D+00  2.8810150474581D-01
75  7.4000000000000D-01  1.0620964855422D+00  3.1580292715327D-01
76  7.5000000000000D-01  1.0328336396026D+00  3.4521790855047D-01
77  7.6000000000000D-01  1.0026144023455D+00  3.7634578403100D-01
78  7.7000000000000D-01  9.7149744418799D-01  4.0917159423352D-01
79  7.8000000000000D-01  9.3954480748059D-01  4.4366576813143D-01
80  7.9000000000000D-01  9.0682172920226D-01  4.7978393781391D-01
81  8.0000000000000D-01  8.7339643645828D-01  5.1746688758288D-01
82  8.1000000000000D-01  8.3933991579894D-01  5.5664063821464D-01
83  8.2000000000000D-01  8.0472565767708D-01  5.9721666573474D-01
84  8.3000000000000D-01  7.6962937765790D-01  6.3909225255411D-01
85  8.4000000000000D-01  7.3412871627930D-01  6.8215096732942D-01
86  8.5000000000000D-01  6.9830291973258D-01  7.2626326846198D-01
87  8.6000000000000D-01  6.6223250378730D-01  7.7128722475549D-01
88  8.7000000000000D-01  6.2599890361748D-01  8.1706934543543D-01
89  8.8000000000000D-01  5.8968411239437D-01  8.6344551050600D-01
90  8.9000000000000D-01  5.5337031169169D-01  9.1024199130990D-01
91  9.0000000000000D-01  5.1713949689779D-01  9.5727655017102D-01
92  9.1000000000000D-01  4.8107310094406D-01  1.0043596071635D+00
93  9.2000000000000D-01  4.4525161973609D-01  1.0512954613726D+00
94  9.3000000000000D-01  4.0975424271231D-01  1.0978835535091D+00
95  9.4000000000000D-01  3.7465849195103D-01  1.1439197564214D+00
96  9.5000000000000D-01  3.4003987320070D-01  1.1891976799207D+00
97  9.6000000000000D-01  3.0597154211731D-01  1.2335099764141D+00
98  9.7000000000000D-01  2.7252398885777D-01  1.2766496341161D+00
99  9.8000000000000D-01  2.3976474399837D-01  1.3184112450946D+00
100  9.9000000000000D-01  2.0775810851921D-01  1.3585922361121D+00
101  1.0000000000000D+00  1.7656491033917D-01  1.3969940510713D+00
102  1.0100000000000D+00  1.4624228956247D-01  1.4334232750084D+00
103  1.0200000000000D+00  1.1684351426056D-01  1.4676926908044D+00
104  1.0300000000000D+00  8.8417828224847D-02  1.4996222612265D+00
105  1.0400000000000D+00  6.1010331713159D-02  1.5290400304820D+00
106  1.0500000000000D+00  3.4661895746350D-02  1.5557829412569D+00
107  1.0600000000000D+00  9.4091100941330D-03  1.5796975648302D+00
108  1.0700000000000D+00 -1.4715735462053D-02  1.6006407440049D+00
109  1.0800000000000D+00 -3.7684637457664D-02  1.6184801503771D+00
110  1.0900000000000D+00 -5.9473834051983D-02  1.6330947594865D+00
111  1.1000000000000D+00 -8.0063731228921D-02  1.6443752494365D+00
112  1.1100000000000D+00 -9.9438802226394D-02  1.6522243301870D+00
113  1.1200000000000D+00 -1.1758746311764D-01  1.6565570129531D+00
114  1.1300000000000D+00 -1.3450192784000D-01  1.6573008305146D+00
115  1.1400000000000D+00 -1.5017804644790D-01  1.6543960209491D+00
116  1.1500000000000D+00 -1.6461513066240D-01  1.6477956883349D+00
117  1.1600000000000D+00 -1.7781577123127D-01  1.6374659553787D+00
118  1.1700000000000D+00 -1.8978565181189D-01  1.6233861234200D+00
119  1.1800000000000D+00 -2.0053336429360D-01  1.6055488555600D+00
120  1.1900000000000D+00 -2.1007023061309D-01  1.5839603989473D+00
121  1.2000000000000D+00 -2.1841013617669D-01  1.5586408616321D+00
122  1.2100000000000D+00 -2.2556937985100D-01  1.5296245581559D+00
123  1.2200000000000D+00 -2.3156654539046D-01  1.4969604370494D+00
124  1.2300000000000D+00 -2.3642239890953D-01  1.4607126013545D+00
125  1.2400000000000D+00 -2.4015981643241D-01  1.4209609297460D+00
126  1.2500000000000D+00 -2.4280374505326D-01  1.3778018028406D+00
127  1.2600000000000D+00 -2.4438120084765D-01  1.3313489367801D+00
128  1.2700000000000D+00 -2.4492130523015D-01  1.2817343180154D+00
129  1.2800000000000D+00 -2.4445536064254D-01  1.2291092288449D+00
130  1.2900000000000D+00 -2.4301696599936D-01  1.1736453505143D+00
131  1.3000000000000D+00 -2.4064216946261D-01  1.1155359153171D+00
132  1.3100000000000D+00 -2.3736965544229D-01  1.0549968756433D+00
133  1.3200000000000D+00 -2.3324096181207D-01  9.9226805287253D-01
134  1.3300000000000D+00 -2.2830071860791D-01  9.2761420423089D-01
135  1.3400000000000D+00 -2.2259690005405D-01  8.6132594880740D-01
136  1.3500000000000D+00 -2.1618107883299D-01  7.9372047843641D-01
137  1.3600000000000D+00 -2.0910866508221D-01  7.2514194589302D-01
138  1.3700000000000D+00 -2.0143911666716D-01  6.5596144384648D-01
139  1.3800000000000D+00 -1.9323609732127D-01  5.8657643642013D-01
140  1.3900000000000D+00 -1.8456755671412D-01  5.1740949231553D-01
141  1.4000000000000D+00 -1.7550571014544D-01  4.4890618705761D-01
142  1.4100000000000D+00 -1.6612687690607D-01  3.8153194587416D-01
143  1.4200000000000D+00 -1.5651114727469D-01  3.1576765498291D-01
144  1.4300000000000D+00 -1.4674183413845D-01  2.5210379709981D-01
145  1.4400000000000D+00 -1.3690465585829D-01  1.9103281871771D-01
146  1.4500000000000D+00 -1.2708661138141D-01  1.3303951084396D-01
147  1.4600000000000D+00 -1.1737445413621D-01  7.8588864127900D-02
148  1.4700000000000D+00 -1.0785281035414D-01  2.8111861743751D-02
149  1.4800000000000D+00 -9.8601460109896D-02 -1.8014274375334D-02
150  1.4900000000000D+00 -8.9693126373449D-02 -5.9481139209117D-02
151  1.5000000000000D+00 -8.1188839467507D-02 -9.6080844839171D-02
152  1.5100000000000D+00 -7.3131545093056D-02 -1.2775143338771D-01
153  1.5200000000000D+00 -6.5548179660863D-02 -1.5455234106939D-01
154  1.5300000000000D+00 -5.8451401585628D-02 -1.7664308172514D-01
155  1.5400000000000D+00 -5.1846213866358D-02 -1.9422976765175D-01
156  1.5500000000000D+00 -4.5734498067088D-02 -2.0752791694736D-01
157  1.5600000000000D+00 -4.0113095070452D-02 -2.1677843415877D-01
158  1.5700000000000D+00 -3.4974256752686D-02 -2.2224462189870D-01
159  1.5800000000000D+00 -3.0306268289403D-02 -2.2420738767475D-01
160  1.5900000000000D+00 -2.6093724130243D-02 -2.2296362763711D-01
161  1.6000000000000D+00 -2.2317977471077D-02 -2.1882321056339D-01
162  1.6100000000000D+00 -1.8957555816180D-02 -2.1210630385433D-01
163  1.6200000000000D+00 -1.5988604706682D-02 -2.0314052166947D-01
164  1.6300000000000D+00 -1.3385344057935D-02 -1.9225801478772D-01
165  1.6400000000000D+00 -1.1120532297303D-02 -1.7979252999595D-01
166  1.6500000000000D+00 -9.1659343442867D-03 -1.6607646222951D-01
167  1.6600000000000D+00 -7.4927893449684D-03 -1.5143792288469D-01
168  1.6700000000000D+00 -6.0722728075957D-03 -1.3619785606557D-01
169  1.6800000000000D+00 -4.8759500043154D-03 -1.2066722068895D-01
170  1.6900000000000D+00 -3.8762164339387D-03 -1.0514426175063D-01
171  1.7000000000000D+00 -3.0467226592384D-03 -8.9911886838846D-02
172  1.7100000000000D+00 -2.3627739025834D-03 -7.5235206297817D-02
173  1.7200000000000D+00 -1.8017066143946D-03 -6.1359221996552D-02
174  1.7300000000000D+00 -1.3432375303375D-03 -4.8506688069465D-02
175  1.7400000000000D+00 -9.6978396260720D-04 -3.6876153387624D-02
176  1.7500000000000D+00 -6.6692928865396D-04 -2.6649317878829D-02
177  1.7600000000000D+00 -4.2280049049120D-04 -1.7946966357637D-02
178  1.7700000000000D+00 -2.2942419090249D-04 -1.0849613553868D-02
179  1.7800000000000D+00 -8.3434186381932D-05 -5.5773845925483D-03
180  1.7900000000000D+00  1.7091228297881D-05 -2.2754223578497D-03
181  1.8000000000000D+00  6.6796990758130D-05 -6.2041521472234D-04
182  1.8100000000000D+00  6.0672931112382D-05 -2.1323003818249D-05
183  1.8200000000000D+00  2.1946149628096D-05  4.8568226237956D-05
184  1.8300000000000D+00 -6.7960032087269D-06 -2.1680296240263D-05
185  1.8400000000000D+00 -7.7495928653973D-06 -3.0449121725610D-05
186  1.8500000000000D+00  7.8870611302722D-07  1.7047921593368D-06
187  1.8600000000000D+00  1.9885825345981D-06  4.9785812853712D-06
188  1.8700000000000D+00 -3.0929686544291D-09  1.2144130244786D-08
189  1.8800000000000D+00 -2.0335559860312D-07  7.9844872398118D-07
190  1.8900000000000D+00 -6.2030368253582D-08  2.4355399467913D-07
191  1.9000000000000D+00  0.0000000000000D+00  0.0000000000000D+00
192  1.9100000000000D+00  0.0000000000000D+00  0.0000000000000D+00
193  1.9200000000000D+00  0.0000000000000D+00  0.0000000000000D+00
194  1.9300000000000D+00  0.0000000000000D+00  0.0000000000000D+00
195  1.9400000000000D+00  0.0000000000000D+00  0.0000000000000D+00
196  1.9500000000000D+00  0.0000000000000D+00  0.0000000000000D+00
197  1.9600000000000D+00  0.0000000000000D+00  0.0000000000000D+00
198  1.9700000000000D+00  0.0000000000000D+00  0.0000000000000D+00
199  1.9800000000000D+00  0.0000000000000D+00  0.0000000000000D+00
200  1.9900000000000D+00  0.0000000000000D+00  0.0000000000000D+00
201  2.0000000000000D+00  0.0000000000000D+00  0.0000000000000D+00
202  2.0100000000000D+00  0.0000000000000D+00  0.0000000000000D+00
203  2.0200000000000D+00  0.0000000000000D+00  0.0000000000000D+00
204  2.0300000000000D+00  0.0000000000000D+00  0.0000000000000D+00
205  2.0400000000000D+00  0.0000000000000D+00  0.0000000000000D+00
206  2.0500000000000D+00  0.0000000000000D+00  0.0000000000000D+00
207  2.0600000000000D+00  0.0000000000000D+00  0.0000000000000D+00
208  2.0700000000000D+00  0.0000000000000D+00  0.0000000000000D+00
209  2.0800000000000D+00  0.0000000000000D+00  0.0000000000000D+00
210  2.0900000000000D+00  0.0000000000000D+00  0.0000000000000D+00
211  2.1000000000000D+00  0.0000000000000D+00  0.0000000000000D+00
212  2.1100000000000D+00  0.0000000000000D+00  0.0000000000000D+00
213  2.1200000000000D+00  0.0000000000000D+00  0.0000000000000D+00
214  2.1300000000000D+00  0.0000000000000D+00  0.0000000000000D+00
215  2.1400000000000D+00  0.0000000000000D+00  0.0000000000000D+00
216  2.1500000000000D+00  0.0000000000000D+00  0.0000000000000D+00
217  2.1600000000000D+00  0.0000000000000D+00  0.0000000000000D+00
218  2.1700000000000D+00  0.0000000000000D+00  0.0000000000000D+00
219  2.1800000000000D+00  0.0000000000000D+00  0.0000000000000D+00
220  2.1900000000000D+00  0.0000000000000D+00  0.0000000000000D+00
221  2.2000000000000D+00  0.0000000000000D+00  0.0000000000000D+00
222  2.2100000000000D+00  0.0000000000000D+00  0.0000000000000D+00
223  2.2200000000000D+00  0.0000000000000D+00  0.0000000000000D+00
224  2.2300000000000D+00  0.0000000000000D+00  0.0000000000000D+00
225  2.2400000000000D+00  0.0000000000000D+00  0.0000000000000D+00
226  2.2500000000000D+00  0.0000000000000D+00  0.0000000000000D+00
227  2.2600000000000D+00  0.0000000000000D+00  0.0000000000000D+00
228  2.2700000000000D+00  0.0000000000000D+00  0.0000000000000D+00
229  2.2800000000000D+00  0.0000000000000D+00  0.0000000000000D+00
230  2.2900000000000D+00  0.0000000000000D+00  0.0000000000000D+00
231  2.3000000000000D+00  0.0000000000000D+00  0.0000000000000D+00
232  2.3100000000000D+00  0.0000000000000D+00  0.0000000000000D+00
233  2.3200000000000D+00  0.0000000000000D+00  0.0000000000000D+00
234  2.3300000000000D+00  0.0000000000000D+00  0.0000000000000D+00
235  2.3400000000000D+00  0.0000000000000D+00  0.0000000000000D+00
236  2.3500000000000D+00  0.0000000000000D+00  0.0000000000000D+00
237  2.3600000000000D+00  0.0000000000000D+00  0.0000000000000D+00
238  2.3700000000000D+00  0.0000000000000D+00  0.0000000000000D+00
239  2.3800000000000D+00  0.0000000000000D+00  0.0000000000000D+00
240  2.3900000000000D+00  0.0000000000000D+00  0.0000000000000D+00
241  2.4000000000000D+00  0.0000000000000D+00  0.0000000000000D+00
242  2.4100000000000D+00  0.0000000000000D+00  0.0000000000000D+00
243  2.4200000000000D+00  0.0000000000000D+00  0.0000000000000D+00
244  2.4300000000000D+00  0.0000000000000D+00  0.0000000000000D+00
245  2.4400000000000D+00  0.0000000000000D+00  0.0000000000000D+00
246  2.4500000000000D+00  0.0000000000000D+00  0.0000000000000D+00
247  2.4600000000000D+00  0.0000000000000D+00  0.0000000000000D+00
248  2.4700000000000D+00  0.0000000000000D+00  0.0000000000000D+00
249  2.4800000000000D+00  0.0000000000000D+00  0.0000000000000D+00
250  2.4900000000000D+00  0.0000000000000D+00  0.0000000000000D+00
251  2.5000000000000D+00  0.0000000000000D+00  0.0000000000000D+00
252  2.5100000000000D+00  0.0000000000000D+00  0.0000000000000D+00
253  2.5200000000000D+00  0.0000000000000D+00  0.0000000000000D+00
254  2.5300000000000D+00  0.0000000000000D+00  0.0000000000000D+00
255  2.5400000000000D+00  0.0000000000000D+00  0.0000000000000D+00
256  2.5500000000000D+00  0.0000000000000D+00  0.0000000000000D+00
257  2.5600000000000D+00  0.0000000000000D+00  0.0000000000000D+00
258  2.5700000000000D+00  0.0000000000000D+00  0.0000000000000D+00
259  2.5800000000000D+00  0.0000000000000D+00  0.0000000000000D+00
260  2.5900000000000D+00  0.0000000000000D+00  0.0000000000000D+00
261  2.6000000000000D+00  0.0000000000000D+00  0.0000000000000D+00
262  2.6100000000000D+00  0.0000000000000D+00  0.0000000000000D+00
263  2.6200000000000D+00  0.0000000000000D+00  0.0000000000000D+00
264  2.6300000000000D+00  0.0000000000000D+00  0.0000000000000D+00
265  2.6400000000000D+00  0.0000000000000D+00  0.0000000000000D+00
266  2.6500000000000D+00  0.0000000000000D+00  0.0000000000000D+00
267  2.6600000000000D+00  0.0000000000000D+00  0.0000000000000D+00
268  2.6700000000000D+00  0.0000000000000D+00  0.0000000000000D+00
269  2.6800000000000D+00  0.0000000000000D+00  0.0000000000000D+00
270  2.6900000000000D+00  0.0000000000000D+00  0.0000000000000D+00
271  2.7000000000000D+00  0.0000000000000D+00  0.0000000000000D+00
272  2.7100000000000D+00  0.0000000000000D+00  0.0000000000000D+00
273  2.7200000000000D+00  0.0000000000000D+00  0.0000000000000D+00
274  2.7300000000000D+00  0.0000000000000D+00  0.0000000000000D+00
275  2.7400000000000D+00  0.0000000000000D+00  0.0000000000000D+00
276  2.7500000000000D+00  0.0000000000000D+00  0.0000000000000D+00
277  2.7600000000000D+00  0.0000000000000D+00  0.0000000000000D+00
278  2.7700000000000D+00  0.0000000000000D+00  0.0000000000000D+00
279  2.7800000000000D+00  0.0000000000000D+00  0.0000000000000D+00
280  2.7900000000000D+00  0.0000000000000D+00  0.0000000000000D+00
281  2.8000000000000D+00  0.0000000000000D+00  0.0000000000000D+00
282  2.8100000000000D+00  0.0000000000000D+00  0.0000000000000D+00
283  2.8200000000000D+00  0.0000000000000D+00  0.0000000000000D+00
284  2.8300000000000D+00  0.0000000000000D+00  0.0000000000000D+00
285  2.8400000000000D+00  0.0000000000000D+00  0.0000000000000D+00
286  2.8500000000000D+00  0.0000000000000D+00  0.0000000000000D+00
287  2.8600000000000D+00  0.0000000000000D+00  0.0000000000000D+00
288  2.8700000000000D+00  0.0000000000000D+00  0.0000000000000D+00
289  2.8800000000000D+00  0.0000000000000D+00  0.0000000000000D+00
290  2.8900000000000D+00  0.0000000000000D+00  0.0000000000000D+00
291  2.9000000000000D+00  0.0000000000000D+00  0.0000000000000D+00
292  2.9100000000000D+00  0.0000000000000D+00  0.0000000000000D+00
293  2.9200000000000D+00  0.0000000000000D+00  0.0000000000000D+00
294  2.9300000000000D+00  0.0000000000000D+00  0.0000000000000D+00
295  2.9400000000000D+00  0.0000000000000D+00  0.0000000000000D+00
296  2.9500000000000D+00  0.0000000000000D+00  0.0000000000000D+00
297  2.9600000000000D+00  0.0000000000000D+00  0.0000000000000D+00
298  2.9700000000000D+00  0.0000000000000D+00  0.0000000000000D+00
299  2.9800000000000D+00  0.0000000000000D+00  0.0000000000000D+00
300  2.9900000000000D+00  0.0000000000000D+00  0.0000000000000D+00
301  3.0000000000000D+00  0.0000000000000D+00  0.0000000000000D+00
302  3.0100000000000D+00  0.0000000000000D+00  0.0000000000000D+00
303  3.0200000000000D+00  0.0000000000000D+00  0.0000000000000D+00
304  3.0300000000000D+00  0.0000000000000D+00  0.0000000000000D+00
305  3.0400000000000D+00  0.0000000000000D+00  0.0000000000000D+00
306  3.0500000000000D+00  0.0000000000000D+00  0.0000000000000D+00
307  3.0600000000000D+00  0.0000000000000D+00  0.0000000000000D+00
308  3.0700000000000D+00  0.0000000000000D+00  0.0000000000000D+00
309  3.0800000000000D+00  0.0000000000000D+00  0.0000000000000D+00
310  3.0900000000000D+00  0.0000000000000D+00  0.0000000000000D+00
311  3.1000000000000D+00  0.0000000000000D+00  0.0000000000000D+00
312  3.1100000000000D+00  0.0000000000000D+00  0.0000000000000D+00
313  3.1200000000000D+00  0.0000000000000D+00  0.0000000000000D+00
314  3.1300000000000D+00  0.0000000000000D+00  0.0000000000000D+00
315  3.1400000000000D+00  0.0000000000000D+00  0.0000000000000D+00
316  3.1500000000000D+00  0.0000000000000D+00  0.0000000000000D+00
317  3.1600000000000D+00  0.0000000000000D+00  0.0000000000000D+00
318  3.1700000000000D+00  0.0000000000000D+00  0.0000000000000D+00
319  3.1800000000000D+00  0.0000000000000D+00  0.0000000000000D+00
320  3.1900000000000D+00  0.0000000000000D+00  0.0000000000000D+00
321  3.2000000000000D+00  0.0000000000000D+00  0.0000000000000D+00
322  3.2100000000000D+00  0.0000000000000D+00  0.0000000000000D+00
323  3.2200000000000D+00  0.0000000000000D+00  0.0000000000000D+00
324  3.2300000000000D+00  0.0000000000000D+00  0.0000000000000D+00
325  3.2400000000000D+00  0.0000000000000D+00  0.0000000000000D+00
326  3.2500000000000D+00  0.0000000000000D+00  0.0000000000000D+00
327  3.2600000000000D+00  0.0000000000000D+00  0.0000000000000D+00
328  3.2700000000000D+00  0.0000000000000D+00  0.0000000000000D+00
329  3.2800000000000D+00  0.0000000000000D+00  0.0000000000000D+00
330  3.2900000000000D+00  0.0000000000000D+00  0.0000000000000D+00
331  3.3000000000000D+00  0.0000000000000D+00  0.0000000000000D+00
332  3.3100000000000D+00  0.0000000000000D+00  0.0000000000000D+00
333  3.3200000000000D+00  0.0000000000000D+00  0.0000000000000D+00
334  3.3300000000000D+00  0.0000000000000D+00  0.0000000000000D+00
335  3.3400000000000D+00  0.0000000000000D+00  0.0000000000000D+00
336  3.3500000000000D+00  0.0000000000000D+00  0.0000000000000D+00
337  3.3600000000000D+00  0.0000000000000D+00  0.0000000000000D+00
338  3.3700000000000D+00  0.0000000000000D+00  0.0000000000000D+00
339  3.3800000000000D+00  0.0000000000000D+00  0.0000000000000D+00
340  3.3900000000000D+00  0.0000000000000D+00  0.0000000000000D+00
341  3.4000000000000D+00  0.0000000000000D+00  0.0000000000000D+00
342  3.4100000000000D+00  0.0000000000000D+00  0.0000000000000D+00
343  3.4200000000000D+00  0.0000000000000D+00  0.0000000000000D+00
344  3.4300000000000D+00  0.0000000000000D+00  0.0000000000000D+00
345  3.4400000000000D+00  0.0000000000000D+00  0.0000000000000D+00
346  3.4500000000000D+00  0.0000000000000D+00  0.0000000000000D+00
347  3.4600000000000D+00  0.0000000000000D+00  0.0000000000000D+00
348  3.4700000000000D+00  0.0000000000000D+00  0.0000000000000D+00
349  3.4800000000000D+00  0.0000000000000D+00  0.0000000000000D+00
350  3.4900000000000D+00  0.0000000000000D+00  0.0000000000000D+00
351  3.5000000000000D+00  0.0000000000000D+00  0.0000000000000D+00
352  3.5100000000000D+00  0.0000000000000D+00  0.0000000000000D+00
353  3.5200000000000D+00  0.0000000000000D+00  0.0000000000000D+00
354  3.5300000000000D+00  0.0000000000000D+00  0.0000000000000D+00
355  3.5400000000000D+00  0.0000000000000D+00  0.0000000000000D+00
356  3.5500000000000D+00  0.0000000000000D+00  0.0000000000000D+00
357  3.5600000000000D+00  0.0000000000000D+00  0.0000000000000D+00
358  3.5700000000000D+00  0.0000000000000D+00  0.0000000000000D+00
359  3.5800000000000D+00  0.0000000000000D+00  0.0000000000000D+00
360  3.5900000000000D+00  0.0000000000000D+00  0.0000000000000D+00
361  3.6000000000000D+00  0.0000000000000D+00  0.0000000000000D+00
362  3.6100000000000D+00  0.0000000000000D+00  0.0000000000000D+00
363  3.6200000000000D+00  0.0000000000000D+00  0.0000000000000D+00
364  3.6300000000000D+00  0.0000000000000D+00  0.0000000000000D+00
365  3.6400000000000D+00  0.0000000000000D+00  0.0000000000000D+00
366  3.6500000000000D+00  0.0000000000000D+00  0.0000000000000D+00
367  3.6600000000000D+00  0.0000000000000D+00  0.0000000000000D+00
368  3.6700000000000D+00  0.0000000000000D+00  0.0000000000000D+00
369  3.6800000000000D+00  0.0000000000000D+00  0.0000000000000D+00
370  3.6900000000000D+00  0.0000000000000D+00  0.0000000000000D+00
371  3.7000000000000D+00  0.0000000000000D+00  0.0000000000000D+00
372  3.7100000000000D+00  0.0000000000000D+00  0.0000000000000D+00
373  3.7200000000000D+00  0.0000000000000D+00  0.0000000000000D+00
374  3.7300000000000D+00  0.0000000000000D+00  0.0000000000000D+00
375  3.7400000000000D+00  0.0000000000000D+00  0.0000000000000D+00
376  3.7500000000000D+00  0.0000000000000D+00  0.0000000000000D+00
377  3.7600000000000D+00  0.0000000000000D+00  0.0000000000000D+00
378  3.7700000000000D+00  0.0000000000000D+00  0.0000000000000D+00
379  3.7800000000000D+00  0.0000000000000D+00  0.0000000000000D+00
380  3.7900000000000D+00  0.0000000000000D+00  0.0000000000000D+00
381  3.8000000000000D+00  0.0000000000000D+00  0.0000000000000D+00
382  3.8100000000000D+00  0.0000000000000D+00  0.0000000000000D+00
383  3.8200000000000D+00  0.0000000000000D+00  0.0000000000000D+00
384  3.8300000000000D+00  0.0000000000000D+00  0.0000000000000D+00
385  3.8400000000000D+00  0.0000000000000D+00  0.0000000000000D+00
386  3.8500000000000D+00  0.0000000000000D+00  0.0000000000000D+00
387  3.8600000000000D+00  0.0000000000000D+00  0.0000000000000D+00
388  3.8700000000000D+00  0.0000000000000D+00  0.0000000000000D+00
389  3.8800000000000D+00  0.0000000000000D+00  0.0000000000000D+00
390  3.8900000000000D+00  0.0000000000000D+00  0.0000000000000D+00
391  3.9000000000000D+00  0.0000000000000D+00  0.0000000000000D+00
392  3.9100000000000D+00  0.0000000000000D+00  0.0000000000000D+00
393  3.9200000000000D+00  0.0000000000000D+00  0.0000000000000D+00
394  3.9300000000000D+00  0.0000000000000D+00  0.0000000000000D+00
395  3.9400000000000D+00  0.0000000000000D+00  0.0000000000000D+00
396  3.9500000000000D+00  0.0000000000000D+00  0.0000000000000D+00
397  3.9600000000000D+00  0.0000000000000D+00  0.0000000000000D+00
398  3.9700000000000D+00  0.0000000000000D+00  0.0000000000000D+00
399  3.9800000000000D+00  0.0000000000000D+00  0.0000000000000D+00
400  3.9900000000000D+00  0.0000000000000D+00  0.0000000000000D+00
401  4.0000000000000D+00  0.0000000000000D+00  0.0000000000000D+00
402  4.0100000000000D+00  0.0000000000000D+00  0.0000000000000D+00
403  4.0200000000000D+00  0.0000000000000D+00  0.0000000000000D+00
404  4.0300000000000D+00  0.0000000000000D+00  0.0000000000000D+00
405  4.0400000000000D+00  0.0000000000000D+00  0.0000000000000D+00
406  4.0500000000000D+00  0.0000000000000D+00  0.0000000000000D+00
407  4.0600000000000D+00  0.0000000000000D+00  0.0000000000000D+00
408  4.0700000000000D+00  0.0000000000000D+00  0.0000000000000D+00
409  4.0800000000000D+00  0.0000000000000D+00  0.0000000000000D+00
410  4.0900000000000D+00  0.0000000000000D+00  0.0000000000000D+00
411  4.1000000000000D+00  0.0000000000000D+00  0.0000000000000D+00
412  4.1100000000000D+00  0.0000000000000D+00  0.0000000000000D+00
413  4.1200000000000D+00  0.0000000000000D+00  0.0000000000000D+00
414  4.1300000000000D+00  0.0000000000000D+00  0.0000000000000D+00
415  4.1400000000000D+00  0.0000000000000D+00  0.0000000000000D+00
416  4.1500000000000D+00  0.0000000000000D+00  0.0000000000000D+00
417  4.1600000000000D+00  0.0000000000000D+00  0.0000000000000D+00
418  4.1700000000000D+00  0.0000000000000D+00  0.0000000000000D+00
419  4.1800000000000D+00  0.0000000000000D+00  0.0000000000000D+00
420  4.1900000000000D+00  0.0000000000000D+00  0.0000000000000D+00
421  4.2000000000000D+00  0.0000000000000D+00  0.0000000000000D+00
422  4.2100000000000D+00  0.0000000000000D+00  0.0000000000000D+00
423  4.2200000000000D+00  0.0000000000000D+00  0.0000000000000D+00
424  4.2300000000000D+00  0.0000000000000D+00  0.0000000000000D+00
425  4.2400000000000D+00  0.0000000000000D+00  0.0000000000000D+00
426  4.2500000000000D+00  0.0000000000000D+00  0.0000000000000D+00
427  4.2600000000000D+00  0.0000000000000D+00  0.0000000000000D+00
428  4.2700000000000D+00  0.0000000000000D+00  0.0000000000000D+00
429  4.2800000000000D+00  0.0000000000000D+00  0.0000000000000D+00
430  4.2900000000000D+00  0.0000000000000D+00  0.0000000000000D+00
431  4.3000000000000D+00  0.0000000000000D+00  0.0000000000000D+00
432  4.3100000000000D+00  0.0000000000000D+00  0.0000000000000D+00
433  4.3200000000000D+00  0.0000000000000D+00  0.0000000000000D+00
434  4.3300000000000D+00  0.0000000000000D+00  0.0000000000000D+00
435  4.3400000000000D+00  0.0000000000000D+00  0.0000000000000D+00
436  4.3500000000000D+00  0.0000000000000D+00  0.0000000000000D+00
437  4.3600000000000D+00  0.0000000000000D+00  0.0000000000000D+00
438  4.3700000000000D+00  0.0000000000000D+00  0.0000000000000D+00
439  4.3800000000000D+00  0.0000000000000D+00  0.0000000000000D+00
440  4.3900000000000D+00  0.0000000000000D+00  0.0000000000000D+00
441  4.4000000000000D+00  0.0000000000000D+00  0.0000000000000D+00
442  4.4100000000000D+00  0.0000000000000D+00  0.0000000000000D+00
443  4.4200000000000D+00  0.0000000000000D+00  0.0000000000000D+00