Eu    ONCVPSP-3.2.3  r_core=   1.80418   1.50859   1.65965   1.72011
63.0000     17.0000      170518    zatom,zion,pspd
8      11   3     4   600     0    pspcod,pspxc,lmax,lloc,mmax,r2well
5.99000000  0.25000000  0.00000000    rchrg fchrg qchrg
2     2     2     2     0    nproj
1     1           extension_switch
0                         8.7946583475472D+00  5.6203362121414D-01
1  0.0000000000000D+00 -4.3384407177882D-11  3.4029964957050D-10
2  1.0000000000000D-02  4.2338122165637D-02 -2.0120187619812D-02
3  2.0000000000000D-02  8.4634679446041D-02 -4.0126378825701D-02
4  3.0000000000000D-02  1.2684819865154D-01 -5.9905520469308D-02
5  4.0000000000000D-02  1.6893738905443D-01 -7.9346436716426D-02
6  5.0000000000000D-02  2.1086123130810D-01 -9.8340744748523D-02
7  6.0000000000000D-02  2.5257906362299D-01 -1.1678374316024D-01
8  7.0000000000000D-02  2.9405066433637D-01 -1.3457526435353D-01
9  8.0000000000000D-02  3.3523633005615D-01 -1.5162048256954D-01
10  9.0000000000000D-02  3.7609694861251D-01 -1.6783066961869D-01
11  1.0000000000000D-01  4.1659406611392D-01 -1.8312389086560D-01
12  1.1000000000000D-01  4.5668994747591D-01 -1.9742563459209D-01
13  1.2000000000000D-01  4.9634762987071D-01 -2.1066936849604D-01
14  1.3000000000000D-01  5.3553096863334D-01 -2.2279701777858D-01
15  1.4000000000000D-01  5.7420467525312D-01 -2.3375936002247D-01
16  1.5000000000000D-01  6.1233434717889D-01 -2.4351633286298D-01
17  1.6000000000000D-01  6.4988648926971D-01 -2.5203725129297D-01
18  1.7000000000000D-01  6.8682852682984D-01 -2.5930093231739D-01
19  1.8000000000000D-01  7.2312881027595D-01 -2.6529572557312D-01
20  1.9000000000000D-01  7.5875661159471D-01 -2.7001944944753D-01
21  2.0000000000000D-01  7.9368211285903D-01 -2.7347923315763D-01
22  2.1000000000000D-01  8.2787638718018D-01 -2.7569126617992D-01
23  2.2000000000000D-01  8.6131137257872D-01 -2.7668045734296D-01
24  2.3000000000000D-01  8.9395983936024D-01 -2.7648000679986D-01
25  2.4000000000000D-01  9.2579535167862D-01 -2.7513089497867D-01
26  2.5000000000000D-01  9.5679222406116D-01 -2.7268129345612D-01
27  2.6000000000000D-01  9.8692547375392D-01 -2.6918590350696D-01
28  2.7000000000000D-01  1.0161707698207D+00 -2.6470522883720D-01
29  2.8000000000000D-01  1.0445043799959D+00 -2.5930478971055D-01
30  2.9000000000000D-01  1.0719031163461D+00 -2.5305428631250D-01
31  3.0000000000000D-01  1.0983442808419D+00 -2.4602671976166D-01
32  3.1000000000000D-01  1.1238056119714D+00 -2.3829747966602D-01
33  3.2000000000000D-01  1.1482652335485D+00 -2.2994340752661D-01
34  3.3000000000000D-01  1.1717016068757D+00 -2.2104184560941D-01
35  3.4000000000000D-01  1.1940934874132D+00 -2.1166968113210D-01
36  3.5000000000000D-01  1.2154198870863D+00 -2.0190239574372D-01
37  3.6000000000000D-01  1.2356600433276D+00 -1.9181313030897D-01
38  3.7000000000000D-01  1.2547933959012D+00 -1.8147177494390D-01
39  3.8000000000000D-01  1.2727995724934D+00 -1.7094409408453D-01
40  3.9000000000000D-01  1.2896583839779D+00 -1.6029089610552D-01
41  4.0000000000000D-01  1.3053498301725D+00 -1.4956725664343D-01
42  4.1000000000000D-01  1.3198541168029D+00 -1.3882180431956D-01
43  4.2000000000000D-01  1.3331516842720D+00 -1.2809607700648D-01
44  4.3000000000000D-01  1.3452232487110D+00 -1.1742395614023D-01
45  4.4000000000000D-01  1.3560498556497D+00 -1.0683118585658D-01
46  4.5000000000000D-01  1.3656129464992D+00 -9.6334982926409D-02
47  4.6000000000000D-01  1.3738944378891D+00 -8.5943742592593D-02
48  4.7000000000000D-01  1.3808768137422D+00 -7.5656844472788D-02
49  4.8000000000000D-01  1.3865432298062D+00 -6.5464561702382D-02
50  4.9000000000000D-01  1.3908776301966D+00 -5.5348075453619D-02
51  5.0000000000000D-01  1.3938648753375D+00 -4.5279595894713D-02
52  5.1000000000000D-01  1.3954908805207D+00 -3.5222589554997D-02
53  5.2000000000000D-01  1.3957427641385D+00 -2.5132111949751D-02
54  5.3000000000000D-01  1.3946090044882D+00 -1.4955243203334D-02
55  5.4000000000000D-01  1.3920796038889D+00 -4.6316233028838D-03
56  5.5000000000000D-01  1.3881462587103D+00  5.9059174704318D-03
57  5.6000000000000D-01  1.3828025337749D+00  1.6730638441060D-02
58  5.7000000000000D-01  1.3760440394738D+00  2.7921085284958D-02
59  5.8000000000000D-01  1.3678686098267D+00  3.9560211094440D-02
60  5.9000000000000D-01  1.3582764796212D+00  5.1734430119204D-02
61  6.0000000000000D-01  1.3472704586939D+00  6.4532613353289D-02
62  6.1000000000000D-01  1.3348561013532D+00  7.8045035858247D-02
63  6.2000000000000D-01  1.3210418689103D+00  9.2362286339476D-02
64  6.3000000000000D-01  1.3058392832636D+00  1.0757415001265D-01
65  6.4000000000000D-01  1.2892630694912D+00  1.2376847620264D-01
66  6.5000000000000D-01  1.2713312854317D+00  1.4103004240641D-01
67  6.6000000000000D-01  1.2520654362864D+00  1.5943942671162D-01
68  6.7000000000000D-01  1.2314905723502D+00  1.7907190049718D-01
69  6.8000000000000D-01  1.2096353680787D+00  1.9999635324228D-01
70  6.9000000000000D-01  1.1865321808209D+00  2.2227426103847D-01
71  7.0000000000000D-01  1.1622170876917D+00  2.4595871003709D-01
72  7.1000000000000D-01  1.1367298992284D+00  2.7109348556623D-01
73  7.2000000000000D-01  1.1101141486599D+00  2.9771223703064D-01
74  7.3000000000000D-01  1.0824170558301D+00  3.2583772796255D-01
75  7.4000000000000D-01  1.0536894650407D+00  3.5548117972790D-01
76  7.5000000000000D-01  1.0239857563221D+00  3.8664171642997D-01
77  7.6000000000000D-01  9.9336372989673D-01  4.1930591747748D-01
78  7.7000000000000D-01  9.6188446386768D-01  4.5344748313676D-01
79  7.8000000000000D-01  9.2961214544250D-01  4.8902701715656D-01
80  7.9000000000000D-01  8.9661387628296D-01  5.2599192926658D-01
81  8.0000000000000D-01  8.6295945285814D-01  5.6427645901560D-01
82  8.1000000000000D-01  8.2872112296215D-01  6.0380182105155D-01
83  8.2000000000000D-01  7.9397331983874D-01  6.4447647056825D-01
84  8.3000000000000D-01  7.5879237562847D-01  6.8619648627038D-01
85  8.4000000000000D-01  7.2325621611630D-01  7.2884606685813D-01
86  8.5000000000000D-01  6.8744403900569D-01  7.7229813572232D-01
87  8.6000000000000D-01  6.5143597817493D-01  8.1641504728864D-01
88  8.7000000000000D-01  6.1531275657990D-01  8.6104938727494D-01
89  8.8000000000000D-01  5.7915533065097D-01  9.0604485804374D-01
90  8.9000000000000D-01  5.4304452918695D-01  9.5123723926184D-01
91  9.0000000000000D-01  5.0706068987341D-01  9.9645541323563D-01
92  9.1000000000000D-01  4.7128329664303D-01  1.0415224435884D+00
93  9.2000000000000D-01  4.3579062114956D-01  1.0862566953995D+00
94  9.3000000000000D-01  4.0065937164259D-01  1.1304729845446D+00
95  9.4000000000000D-01  3.6596435250552D-01  1.1739837437742D+00
96  9.5000000000000D-01  3.3177813765292D-01  1.2166001930462D+00
97  9.6000000000000D-01  2.9817076087430D-01  1.2581335018020D+00
98  9.7000000000000D-01  2.6520942606026D-01  1.2983959312385D+00
99  9.8000000000000D-01  2.3295824005208D-01  1.3372019451832D+00
100  9.9000000000000D-01  2.0147797061587D-01  1.3743692789470D+00
101  1.0000000000000D+00  1.7082583177553D-01  1.4097199564205D+00
102  1.0100000000000D+00  1.4105529840773D-01  1.4430812468475D+00
103  1.0200000000000D+00  1.1221595165916D-01  1.4742865539524D+00
104  1.0300000000000D+00  8.4353356355306D-02  1.5031762315448D+00
105  1.0400000000000D+00  5.7508971156973D-02  1.5295983212796D+00
106  1.0500000000000D+00  3.1720091756333D-02  1.5534092100157D+00
107  1.0600000000000D+00  7.0198269911143D-03  1.5744742058004D+00
108  1.0700000000000D+00 -1.6562892788327D-02  1.5926680335915D+00
109  1.0800000000000D+00 -3.9003276211764D-02  1.6078752535548D+00
110  1.0900000000000D+00 -6.0280601861242D-02  1.6199906067087D+00
111  1.1000000000000D+00 -8.0378121856120D-02  1.6289192946410D+00
112  1.1100000000000D+00 -9.9282940591256D-02  1.6345772015531D+00
113  1.1200000000000D+00 -1.1698587173585D-01  1.6368910689841D+00
114  1.1300000000000D+00 -1.3348127695667D-01  1.6357986348376D+00
115  1.1400000000000D+00 -1.4876689028650D-01  1.6312487498991D+00
116  1.1500000000000D+00 -1.6284363233869D-01  1.6232014859680D+00
117  1.1600000000000D+00 -1.7571541898016D-01  1.6116282509617D+00
118  1.1700000000000D+00 -1.8738896925421D-01  1.5965119267349D+00
119  1.1800000000000D+00 -1.9787361751979D-01  1.5778470454876D+00
120  1.1900000000000D+00 -2.0718113489509D-01  1.5556400208330D+00
121  1.2000000000000D+00 -2.1532556511581D-01  1.5299094487655D+00
122  1.2100000000000D+00 -2.2232307974553D-01  1.5006864924212D+00
123  1.2200000000000D+00 -2.2819185756153D-01  1.4680153634132D+00
124  1.2300000000000D+00 -2.3295199264667D-01  1.4319539103048D+00
125  1.2400000000000D+00 -2.3662543511582D-01  1.3925743211109D+00
126  1.2500000000000D+00 -2.3923596788500D-01  1.3499639436330D+00
127  1.2600000000000D+00 -2.4080922247677D-01  1.3042262248219D+00
128  1.2700000000000D+00 -2.4137273537142D-01  1.2554817620399D+00
129  1.2800000000000D+00 -2.4095604558936D-01  1.2038694546610D+00
130  1.2900000000000D+00 -2.3959083371391D-01  1.1495477416249D+00
131  1.3000000000000D+00 -2.3731109966340D-01  1.0926958950139D+00
132  1.3100000000000D+00 -2.3415337584092D-01  1.0335153362271D+00
133  1.3200000000000D+00 -2.3015697136217D-01  9.7223093618353D-01
134  1.3300000000000D+00 -2.2536423828952D-01  9.0909223606227D-01
135  1.3400000000000D+00 -2.1982085138516D-01  8.4437452819053D-01
136  1.3500000000000D+00 -2.1357608993264D-01  7.7837972108607D-01
137  1.3600000000000D+00 -2.0668310369045D-01  7.1143687928819D-01
138  1.3700000000000D+00 -1.9919914914019D-01  6.4390234967686D-01
139  1.3800000000000D+00 -1.9118577214895D-01  5.7615933418670D-01
140  1.3900000000000D+00 -1.8270891062161D-01  5.0861675591617D-01
141  1.4000000000000D+00 -1.7383889437806D-01  4.4170728426497D-01
142  1.4100000000000D+00 -1.6465030069626D-01  3.7588428841856D-01
143  1.4200000000000D+00 -1.5522163497026D-01  3.1161754491821D-01
144  1.4300000000000D+00 -1.4563479184889D-01  2.4938745289248D-01
145  1.4400000000000D+00 -1.3597424278378D-01  1.8967746212747D-01
146  1.4500000000000D+00 -1.2632591040465D-01  1.3296449350337D-01
147  1.4600000000000D+00 -1.1677563517719D-01  7.9706809433403D-02
148  1.4700000000000D+00 -1.0740728059036D-01  3.0329798830134D-02
149  1.4800000000000D+00 -9.8299988992734D-02 -1.4793825120533D-02
150  1.4900000000000D+00 -8.9525951050220D-02 -5.5359121042998D-02
151  1.5000000000000D+00 -8.1145718751611D-02 -9.1160756100222D-02
152  1.5100000000000D+00 -7.3201736077204D-02 -1.2213863412639D-01
153  1.5200000000000D+00 -6.5720453710137D-02 -1.4835326245996D-01
154  1.5300000000000D+00 -5.8714092112708D-02 -1.6996436611992D-01
155  1.5400000000000D+00 -5.2187351249471D-02 -1.8717719198211D-01
156  1.5500000000000D+00 -4.6142001464258D-02 -2.0020518951383D-01
157  1.5600000000000D+00 -4.0574928358273D-02 -2.0928612599134D-01
158  1.5700000000000D+00 -3.5478579127105D-02 -2.1467915474017D-01
159  1.5800000000000D+00 -3.0841580592625D-02 -2.1666008140223D-01
160  1.5900000000000D+00 -2.6649003874842D-02 -2.1551983146129D-01
161  1.6000000000000D+00 -2.2882803434407D-02 -2.1156152008032D-01
162  1.6100000000000D+00 -1.9522220252501D-02 -2.0509787332322D-01
163  1.6200000000000D+00 -1.6544212366137D-02 -1.9644847694680D-01
164  1.6300000000000D+00 -1.3923897138172D-02 -1.8593697203551D-01
165  1.6400000000000D+00 -1.1635000675471D-02 -1.7388822383084D-01
166  1.6500000000000D+00 -9.6503105705718D-03 -1.6062548602410D-01
167  1.6600000000000D+00 -7.9421280867108D-03 -1.4646758259727D-01
168  1.6700000000000D+00 -6.4827146009420D-03 -1.3172613777205D-01
169  1.6800000000000D+00 -5.2447293350265D-03 -1.1670287094404D-01
170  1.6900000000000D+00 -4.2016544100076D-03 -1.0168697832567D-01
171  1.7000000000000D+00 -3.3282046305373D-03 -8.6952616771364D-02
172  1.7100000000000D+00 -2.6007126219100D-03 -7.2756546432919D-02
173  1.7200000000000D+00 -1.9974915857162D-03 -5.9335917000314D-02
174  1.7300000000000D+00 -1.4991715593883D-03 -4.6906218573631D-02
175  1.7400000000000D+00 -1.0890078128849D-03 -3.5659407547408D-02
176  1.7500000000000D+00 -7.5336372727621D-04 -2.5771051253862D-02
177  1.7600000000000D+00 -4.8094723908367D-04 -1.7357670216696D-02
178  1.7700000000000D+00 -2.6423594218880D-04 -1.0496677058917D-02
179  1.7800000000000D+00 -1.0069524272835D-04 -5.4009155880197D-03
180  1.7900000000000D+00  1.1042939300462D-05 -2.2107804709748D-03
181  1.8000000000000D+00  6.6354025246593D-05 -6.1159399877824D-04
182  1.8100000000000D+00  6.1788726224549D-05 -2.9246834464767D-05
183  1.8200000000000D+00  2.2507453661766D-05  4.4051254766091D-05
184  1.8300000000000D+00 -6.9890051586089D-06 -2.0080356846116D-05
185  1.8400000000000D+00 -7.9858707084284D-06 -2.8455702458871D-05
186  1.8500000000000D+00  8.0876653583084D-07  1.5430428223163D-06
187  1.8600000000000D+00  2.0410694418550D-06  4.5506832659548D-06
188  1.8700000000000D+00 -3.1188198244271D-09  1.2222737039878D-08
189  1.8800000000000D+00 -2.0505525376839D-07  8.0361694055759D-07
190  1.8900000000000D+00 -6.2548820838760D-08  2.4513047636762D-07
191  1.9000000000000D+00  0.0000000000000D+00  0.0000000000000D+00
192  1.9100000000000D+00  0.0000000000000D+00  0.0000000000000D+00
193  1.9200000000000D+00  0.0000000000000D+00  0.0000000000000D+00
194  1.9300000000000D+00  0.0000000000000D+00  0.0000000000000D+00
195  1.9400000000000D+00  0.0000000000000D+00  0.0000000000000D+00
196  1.9500000000000D+00  0.0000000000000D+00  0.0000000000000D+00
197  1.9600000000000D+00  0.0000000000000D+00  0.0000000000000D+00
198  1.9700000000000D+00  0.0000000000000D+00  0.0000000000000D+00
199  1.9800000000000D+00  0.0000000000000D+00  0.0000000000000D+00
200  1.9900000000000D+00  0.0000000000000D+00  0.0000000000000D+00
201  2.0000000000000D+00  0.0000000000000D+00  0.0000000000000D+00
202  2.0100000000000D+00  0.0000000000000D+00  0.0000000000000D+00
203  2.0200000000000D+00  0.0000000000000D+00  0.0000000000000D+00
204  2.0300000000000D+00  0.0000000000000D+00  0.0000000000000D+00
205  2.0400000000000D+00  0.0000000000000D+00  0.0000000000000D+00
206  2.0500000000000D+00  0.0000000000000D+00  0.0000000000000D+00
207  2.0600000000000D+00  0.0000000000000D+00  0.0000000000000D+00
208  2.0700000000000D+00  0.0000000000000D+00  0.0000000000000D+00
209  2.0800000000000D+00  0.0000000000000D+00  0.0000000000000D+00
210  2.0900000000000D+00  0.0000000000000D+00  0.0000000000000D+00
211  2.1000000000000D+00  0.0000000000000D+00  0.0000000000000D+00
212  2.1100000000000D+00  0.0000000000000D+00  0.0000000000000D+00
213  2.1200000000000D+00  0.0000000000000D+00  0.0000000000000D+00
214  2.1300000000000D+00  0.0000000000000D+00  0.0000000000000D+00
215  2.1400000000000D+00  0.0000000000000D+00  0.0000000000000D+00
216  2.1500000000000D+00  0.0000000000000D+00  0.0000000000000D+00
217  2.1600000000000D+00  0.0000000000000D+00  0.0000000000000D+00
218  2.1700000000000D+00  0.0000000000000D+00  0.0000000000000D+00
219  2.1800000000000D+00  0.0000000000000D+00  0.0000000000000D+00
220  2.1900000000000D+00  0.0000000000000D+00  0.0000000000000D+00
221  2.2000000000000D+00  0.0000000000000D+00  0.0000000000000D+00
222  2.2100000000000D+00  0.0000000000000D+00  0.0000000000000D+00
223  2.2200000000000D+00  0.0000000000000D+00  0.0000000000000D+00
224  2.2300000000000D+00  0.0000000000000D+00  0.0000000000000D+00
225  2.2400000000000D+00  0.0000000000000D+00  0.0000000000000D+00
226  2.2500000000000D+00  0.0000000000000D+00  0.0000000000000D+00
227  2.2600000000000D+00  0.0000000000000D+00  0.0000000000000D+00
228  2.2700000000000D+00  0.0000000000000D+00  0.0000000000000D+00
229  2.2800000000000D+00  0.0000000000000D+00  0.0000000000000D+00
230  2.2900000000000D+00  0.0000000000000D+00  0.0000000000000D+00
231  2.3000000000000D+00  0.0000000000000D+00  0.0000000000000D+00
232  2.3100000000000D+00  0.0000000000000D+00  0.0000000000000D+00
233  2.3200000000000D+00  0.0000000000000D+00  0.0000000000000D+00
234  2.3300000000000D+00  0.0000000000000D+00  0.0000000000000D+00
235  2.3400000000000D+00  0.0000000000000D+00  0.0000000000000D+00
236  2.3500000000000D+00  0.0000000000000D+00  0.0000000000000D+00
237  2.3600000000000D+00  0.0000000000000D+00  0.0000000000000D+00
238  2.3700000000000D+00  0.0000000000000D+00  0.0000000000000D+00
239  2.3800000000000D+00  0.0000000000000D+00  0.0000000000000D+00
240  2.3900000000000D+00  0.0000000000000D+00  0.0000000000000D+00
241  2.4000000000000D+00  0.0000000000000D+00  0.0000000000000D+00
242  2.4100000000000D+00  0.0000000000000D+00  0.0000000000000D+00
243  2.4200000000000D+00  0.0000000000000D+00  0.0000000000000D+00
244  2.4300000000000D+00  0.0000000000000D+00  0.0000000000000D+00
245  2.4400000000000D+00  0.0000000000000D+00  0.0000000000000D+00
246  2.4500000000000D+00  0.0000000000000D+00  0.0000000000000D+00
247  2.4600000000000D+00  0.0000000000000D+00  0.0000000000000D+00
248  2.4700000000000D+00  0.0000000000000D+00  0.0000000000000D+00
249  2.4800000000000D+00  0.0000000000000D+00  0.0000000000000D+00
250  2.4900000000000D+00  0.0000000000000D+00  0.0000000000000D+00
251  2.5000000000000D+00  0.0000000000000D+00  0.0000000000000D+00
252  2.5100000000000D+00  0.0000000000000D+00  0.0000000000000D+00
253  2.5200000000000D+00  0.0000000000000D+00  0.0000000000000D+00
254  2.5300000000000D+00  0.0000000000000D+00  0.0000000000000D+00
255  2.5400000000000D+00  0.0000000000000D+00  0.0000000000000D+00
256  2.5500000000000D+00  0.0000000000000D+00  0.0000000000000D+00
257  2.5600000000000D+00  0.0000000000000D+00  0.0000000000000D+00
258  2.5700000000000D+00  0.0000000000000D+00  0.0000000000000D+00
259  2.5800000000000D+00  0.0000000000000D+00  0.0000000000000D+00
260  2.5900000000000D+00  0.0000000000000D+00  0.0000000000000D+00
261  2.6000000000000D+00  0.0000000000000D+00  0.0000000000000D+00
262  2.6100000000000D+00  0.0000000000000D+00  0.0000000000000D+00
263  2.6200000000000D+00  0.0000000000000D+00  0.0000000000000D+00
264  2.6300000000000D+00  0.0000000000000D+00  0.0000000000000D+00
265  2.6400000000000D+00  0.0000000000000D+00  0.0000000000000D+00
266  2.6500000000000D+00  0.0000000000000D+00  0.0000000000000D+00
267  2.6600000000000D+00  0.0000000000000D+00  0.0000000000000D+00
268  2.6700000000000D+00  0.0000000000000D+00  0.0000000000000D+00
269  2.6800000000000D+00  0.0000000000000D+00  0.0000000000000D+00
270  2.6900000000000D+00  0.0000000000000D+00  0.0000000000000D+00
271  2.7000000000000D+00  0.0000000000000D+00  0.0000000000000D+00
272  2.7100000000000D+00  0.0000000000000D+00  0.0000000000000D+00
273  2.7200000000000D+00  0.0000000000000D+00  0.0000000000000D+00
274  2.7300000000000D+00  0.0000000000000D+00  0.0000000000000D+00
275  2.7400000000000D+00  0.0000000000000D+00  0.0000000000000D+00
276  2.7500000000000D+00  0.0000000000000D+00  0.0000000000000D+00
277  2.7600000000000D+00  0.0000000000000D+00  0.0000000000000D+00
278  2.7700000000000D+00  0.0000000000000D+00  0.0000000000000D+00
279  2.7800000000000D+00  0.0000000000000D+00  0.0000000000000D+00
280  2.7900000000000D+00  0.0000000000000D+00  0.0000000000000D+00
281  2.8000000000000D+00  0.0000000000000D+00  0.0000000000000D+00
282  2.8100000000000D+00  0.0000000000000D+00  0.0000000000000D+00
283  2.8200000000000D+00  0.0000000000000D+00  0.0000000000000D+00
284  2.8300000000000D+00  0.0000000000000D+00  0.0000000000000D+00
285  2.8400000000000D+00  0.0000000000000D+00  0.0000000000000D+00
286  2.8500000000000D+00  0.0000000000000D+00  0.0000000000000D+00
287  2.8600000000000D+00  0.0000000000000D+00  0.0000000000000D+00
288  2.8700000000000D+00  0.0000000000000D+00  0.0000000000000D+00
289  2.8800000000000D+00  0.0000000000000D+00  0.0000000000000D+00
290  2.8900000000000D+00  0.0000000000000D+00  0.0000000000000D+00
291  2.9000000000000D+00  0.0000000000000D+00  0.0000000000000D+00
292  2.9100000000000D+00  0.0000000000000D+00  0.0000000000000D+00
293  2.9200000000000D+00  0.0000000000000D+00  0.0000000000000D+00
294  2.9300000000000D+00  0.0000000000000D+00  0.0000000000000D+00
295  2.9400000000000D+00  0.0000000000000D+00  0.0000000000000D+00
296  2.9500000000000D+00  0.0000000000000D+00  0.0000000000000D+00
297  2.9600000000000D+00  0.0000000000000D+00  0.0000000000000D+00
298  2.9700000000000D+00  0.0000000000000D+00  0.0000000000000D+00
299  2.9800000000000D+00  0.0000000000000D+00  0.0000000000000D+00
300  2.9900000000000D+00  0.0000000000000D+00  0.0000000000000D+00
301  3.0000000000000D+00  0.0000000000000D+00  0.0000000000000D+00
302  3.0100000000000D+00  0.0000000000000D+00  0.0000000000000D+00
303  3.0200000000000D+00  0.0000000000000D+00  0.0000000000000D+00
304  3.0300000000000D+00  0.0000000000000D+00  0.0000000000000D+00
305  3.0400000000000D+00  0.0000000000000D+00  0.0000000000000D+00
306  3.0500000000000D+00  0.0000000000000D+00  0.0000000000000D+00
307  3.0600000000000D+00  0.0000000000000D+00  0.0000000000000D+00
308  3.0700000000000D+00  0.0000000000000D+00  0.0000000000000D+00
309  3.0800000000000D+00  0.0000000000000D+00  0.0000000000000D+00
310  3.0900000000000D+00  0.0000000000000D+00  0.0000000000000D+00
311  3.1000000000000D+00  0.0000000000000D+00  0.0000000000000D+00
312  3.1100000000000D+00  0.0000000000000D+00  0.0000000000000D+00
313  3.1200000000000D+00  0.0000000000000D+00  0.0000000000000D+00
314  3.1300000000000D+00  0.0000000000000D+00  0.0000000000000D+00
315  3.1400000000000D+00  0.0000000000000D+00  0.0000000000000D+00
316  3.1500000000000D+00  0.0000000000000D+00  0.0000000000000D+00
317  3.1600000000000D+00  0.0000000000000D+00  0.0000000000000D+00
318  3.1700000000000D+00  0.0000000000000D+00  0.0000000000000D+00
319  3.1800000000000D+00  0.0000000000000D+00  0.0000000000000D+00
320  3.1900000000000D+00  0.0000000000000D+00  0.0000000000000D+00
321  3.2000000000000D+00  0.0000000000000D+00  0.0000000000000D+00
322  3.2100000000000D+00  0.0000000000000D+00  0.0000000000000D+00
323  3.2200000000000D+00  0.0000000000000D+00  0.0000000000000D+00
324  3.2300000000000D+00  0.0000000000000D+00  0.0000000000000D+00
325  3.2400000000000D+00  0.0000000000000D+00  0.0000000000000D+00
326  3.2500000000000D+00  0.0000000000000D+00  0.0000000000000D+00
327  3.2600000000000D+00  0.0000000000000D+00  0.0000000000000D+00
328  3.2700000000000D+00  0.0000000000000D+00  0.0000000000000D+00
329  3.2800000000000D+00  0.0000000000000D+00  0.0000000000000D+00
330  3.2900000000000D+00  0.0000000000000D+00  0.0000000000000D+00
331  3.3000000000000D+00  0.0000000000000D+00  0.0000000000000D+00
332  3.3100000000000D+00  0.0000000000000D+00  0.0000000000000D+00
333  3.3200000000000D+00  0.0000000000000D+00  0.0000000000000D+00
334  3.3300000000000D+00  0.0000000000000D+00  0.0000000000000D+00
335  3.3400000000000D+00  0.0000000000000D+00  0.0000000000000D+00
336  3.3500000000000D+00  0.0000000000000D+00  0.0000000000000D+00
337  3.3600000000000D+00  0.0000000000000D+00  0.0000000000000D+00
338  3.3700000000000D+00  0.0000000000000D+00  0.0000000000000D+00
339  3.3800000000000D+00  0.0000000000000D+00  0.0000000000000D+00
340  3.3900000000000D+00  0.0000000000000D+00  0.0000000000000D+00
341  3.4000000000000D+00  0.0000000000000D+00  0.0000000000000D+00
342  3.4100000000000D+00  0.0000000000000D+00  0.0000000000000D+00
343  3.4200000000000D+00  0.0000000000000D+00  0.0000000000000D+00
344  3.4300000000000D+00  0.0000000000000D+00  0.0000000000000D+00
345  3.4400000000000D+00  0.0000000000000D+00  0.0000000000000D+00
346  3.4500000000000D+00  0.0000000000000D+00  0.0000000000000D+00
347  3.4600000000000D+00  0.0000000000000D+00  0.0000000000000D+00
348  3.4700000000000D+00  0.0000000000000D+00  0.0000000000000D+00
349  3.4800000000000D+00  0.0000000000000D+00  0.0000000000000D+00
350  3.4900000000000D+00  0.0000000000000D+00  0.0000000000000D+00
351  3.5000000000000D+00  0.0000000000000D+00  0.0000000000000D+00
352  3.5100000000000D+00  0.0000000000000D+00  0.0000000000000D+00
353  3.5200000000000D+00  0.0000000000000D+00  0.0000000000000D+00
354  3.5300000000000D+00  0.0000000000000D+00  0.0000000000000D+00
355  3.5400000000000D+00  0.0000000000000D+00  0.0000000000000D+00
356  3.5500000000000D+00  0.0000000000000D+00  0.0000000000000D+00
357  3.5600000000000D+00  0.0000000000000D+00  0.0000000000000D+00
358  3.5700000000000D+00  0.0000000000000D+00  0.0000000000000D+00
359  3.5800000000000D+00  0.0000000000000D+00  0.0000000000000D+00
360  3.5900000000000D+00  0.0000000000000D+00  0.0000000000000D+00
361  3.6000000000000D+00  0.0000000000000D+00  0.0000000000000D+00
362  3.6100000000000D+00  0.0000000000000D+00  0.0000000000000D+00
363  3.6200000000000D+00  0.0000000000000D+00  0.0000000000000D+00
364  3.6300000000000D+00  0.0000000000000D+00  0.0000000000000D+00
365  3.6400000000000D+00  0.0000000000000D+00  0.0000000000000D+00
366  3.6500000000000D+00  0.0000000000000D+00  0.0000000000000D+00
367  3.6600000000000D+00  0.0000000000000D+00  0.0000000000000D+00
368  3.6700000000000D+00  0.0000000000000D+00  0.0000000000000D+00
369  3.6800000000000D+00  0.0000000000000D+00  0.0000000000000D+00
370  3.6900000000000D+00  0.0000000000000D+00  0.0000000000000D+00
371  3.7000000000000D+00  0.0000000000000D+00  0.0000000000000D+00
372  3.7100000000000D+00  0.0000000000000D+00  0.0000000000000D+00
373  3.7200000000000D+00  0.0000000000000D+00  0.0000000000000D+00
374  3.7300000000000D+00  0.0000000000000D+00  0.0000000000000D+00
375  3.7400000000000D+00  0.0000000000000D+00  0.0000000000000D+00
376  3.7500000000000D+00  0.0000000000000D+00  0.0000000000000D+00
377  3.7600000000000D+00  0.0000000000000D+00  0.0000000000000D+00
378  3.7700000000000D+00  0.0000000000000D+00  0.0000000000000D+00
379  3.7800000000000D+00  0.0000000000000D+00  0.0000000000000D+00
380  3.7900000000000D+00  0.0000000000000D+00  0.0000000000000D+00
381  3.8000000000000D+00  0.0000000000000D+00  0.0000000000000D+00
382  3.8100000000000D+00  0.0000000000000D+00  0.0000000000000D+00
383  3.8200000000000D+00  0.0000000000000D+00  0.0000000000000D+00
384  3.8300000000000D+00  0.0000000000000D+00  0.0000000000000D+00
385  3.8400000000000D+00  0.0000000000000D+00  0.0000000000000D+00
386  3.8500000000000D+00  0.0000000000000D+00  0.0000000000000D+00
387  3.8600000000000D+00  0.0000000000000D+00  0.0000000000000D+00
388  3.8700000000000D+00  0.0000000000000D+00  0.0000000000000D+00
389  3.8800000000000D+00  0.0000000000000D+00  0.0000000000000D+00
390  3.8900000000000D+00  0.0000000000000D+00  0.0000000000000D+00
391  3.9000000000000D+00  0.0000000000000D+00  0.0000000000000D+00
392  3.9100000000000D+00  0.0000000000000D+00  0.0000000000000D+00
393  3.9200000000000D+00  0.0000000000000D+00  0.0000000000000D+00
394  3.9300000000000D+00  0.0000000000000D+00  0.0000000000000D+00
395  3.9400000000000D+00  0.0000000000000D+00  0.0000000000000D+00
396  3.9500000000000D+00  0.0000000000000D+00  0.0000000000000D+00
397  3.9600000000000D+00  0.0000000000000D+00  0.0000000000000D+00
398  3.9700000000000D+00  0.0000000000000D+00  0.0000000000000D+00
399  3.9800000000000D+00  0.0000000000000D+00  0.0000000000000D+00
400  3.9900000000000D+00  0.0000000000000D+00  0.0000000000000D+00
401  4.0000000000000D+00  0.0000000000000D+00  0.0000000000000D+00
402  4.0100000000000D+00  0.0000000000000D+00  0.0000000000000D+00
403  4.0200000000000D+00  0.0000000000000D+00  0.0000000000000D+00
404  4.0300000000000D+00  0.0000000000000D+00  0.0000000000000D+00
405  4.0400000000000D+00  0.0000000000000D+00  0.0000000000000D+00
406  4.0500000000000D+00  0.0000000000000D+00  0.0000000000000D+00
407  4.0600000000000D+00  0.0000000000000D+00  0.0000000000000D+00
408  4.0700000000000D+00  0.0000000000000D+00  0.0000000000000D+00
409  4.0800000000000D+00  0.0000000000000D+00  0.0000000000000D+00
410  4.0900000000000D+00  0.0000000000000D+00  0.0000000000000D+00
411  4.1000000000000D+00  0.0000000000000D+00  0.0000000000000D+00
412  4.1100000000000D+00  0.0000000000000D+00  0.0000000000000D+00
413  4.1200000000000D+00  0.0000000000000D+00  0.0000000000000D+00
414  4.1300000000000D+00  0.0000000000000D+00  0.0000000000000D+00
415  4.1400000000000D+00  0.0000000000000D+00  0.0000000000000D+00
416  4.1500000000000D+00  0.0000000000000D+00  0.0000000000000D+00
417  4.1600000000000D+00  0.0000000000000D+00  0.0000000000000D+00
418  4.1700000000000D+00  0.0000000000000D+00  0.0000000000000D+00
419  4.1800000000000D+00  0.0000000000000D+00  0.0000000000000D+00
420  4.1900000000000D+00  0.0000000000000D+00  0.0000000000000D+00
421  4.2000000000000D+00  0.0000000000000D+00  0.0000000000000D+00
422  4.2100000000000D+00  0.0000000000000D+00  0.0000000000000D+00
423  4.2200000000000D+00  0.0000000000000D+00  0.0000000000000D+00
424  4.2300000000000D+00  0.0000000000000D+00  0.0000000000000D+00
425  4.2400000000000D+00  0.0000000000000D+00  0.0000000000000D+00
426  4.2500000000000D+00  0.0000000000000D+00  0.0000000000000D+00
427  4.2600000000000D+00  0.0000000000000D+00  0.0000000000000D+00
428  4.2700000000000D+00  0.0000000000000D+00  0.0000000000000D+00
429  4.2800000000000D+00  0.0000000000000D+00  0.0000000000000D+00
430  4.2900000000000D+00  0.0000000000000D+00  0.0000000000000D+00
431  4.3000000000000D+00  0.0000000000000D+00  0.0000000000000D+00
432  4.3100000000000D+00  0.0000000000000D+00  0.0000000000000D+00
433  4.3200000000000D+00  0.0000000000000D+00  0.0000000000000D+00
434  4.3300000000000D+00  0.0000000000000D+00  0.0000000000000D+00
435  4.3400000000000D+00  0.0000000000000D+00  0.0000000000000D+00
436  4.3500000000000D+00  0.0000000000000D+00  0.0000000000000D+00
437  4.3600000000000D+00  0.0000000000000D+00  0.0000000000000D+00
438  4.3700000000000D+00  0.0000000000000D+00  0.0000000000000D+00
439  4.3800000000000D+00  0.0000000000000D+00  0.0000000000000D+00
440  4.3900000000000D+00  0.0000000000000D+00  0.0000000000000D+00
441  4.4000000000000D+00  0.0000000000000D+00  0.0000000000000D+00
442  4.4100000000000D+00  0.0000000000000D+00  0.0000000000000D+00
443  4.4200000000000D+00  0.0000000000000D+00  0.0000000000000D+00