Eu    ONCVPSP-3.2.3.1  r_core=   2.05715   1.86991   1.80418   2.51961
63.0000     11.0000      170524    zatom,zion,pspd
8      11   3     4   600     0    pspcod,pspxc,lmax,lloc,mmax,r2well
5.99000000  0.25000000  0.00000000    rchrg fchrg qchrg
2     2     2     1     0    nproj
1     1           extension_switch
0                         5.8669963064397D+00  8.2176225661639D-01
1  0.0000000000000D+00 -9.0886187464889D-11  1.9859777711240D-10
2  1.0000000000000D-02  4.7656875314901D-02 -1.6352009550042D-02
3  2.0000000000000D-02  9.5220829797966D-02 -3.2577747773523D-02
4  3.0000000000000D-02  1.4259938747352D-01 -4.8551821326527D-02
5  4.0000000000000D-02  1.8970095897598D-01 -6.4150586192561D-02
6  5.0000000000000D-02  2.3643527712242D-01 -7.9253005802217D-02
7  6.0000000000000D-02  2.8271382327088D-01 -9.3741489441304D-02
8  7.0000000000000D-02  3.2845024150023D-01 -1.0750270461138D-01
9  8.0000000000000D-02  3.7356073773832D-01 -1.2042835720516D-01
10  9.0000000000000D-02  4.1796446107742D-01 -1.3241593360481D-01
11  1.0000000000000D-01  4.6158386464900D-01 -1.4336939910122D-01
12  1.1000000000000D-01  5.0434504358207D-01 -1.5319984736573D-01
13  1.2000000000000D-01  5.4617804774048D-01 -1.6182609607847D-01
14  1.3000000000000D-01  5.8701716712245D-01 -1.6917522422837D-01
15  1.4000000000000D-01  6.2680118800918D-01 -1.7518304704425D-01
16  1.5000000000000D-01  6.6547361816747D-01 -1.7979452499191D-01
17  1.6000000000000D-01  7.0298287964147D-01 -1.8296410377450D-01
18  1.7000000000000D-01  7.3928246791005D-01 -1.8465598279964D-01
19  1.8000000000000D-01  7.7433107643609D-01 -1.8484431012155D-01
20  1.9000000000000D-01  8.0809268589159D-01 -1.8351330242694D-01
21  2.0000000000000D-01  8.4053661760441D-01 -1.8065728920481D-01
22  2.1000000000000D-01  8.7163755103846D-01 -1.7628068081760D-01
23  2.2000000000000D-01  9.0137550538541D-01 -1.7039786077178D-01
24  2.3000000000000D-01  9.2973578561224D-01 -1.6303300306300D-01
25  2.4000000000000D-01  9.5670889357172D-01 -1.5421981604281D-01
26  2.5000000000000D-01  9.8229040504166D-01 -1.4400121481335D-01
27  2.6000000000000D-01  1.0064808138098D+00 -1.3242892470254D-01
28  2.7000000000000D-01  1.0292853441650D+00 -1.1956301889706D-01
29  2.8000000000000D-01  1.0507137333869D+00 -1.0547139381395D-01
30  2.9000000000000D-01  1.0707799860489D+00 -9.0229186266690D-02
31  3.0000000000000D-01  1.0895021021530D+00 -7.3918136926933D-02
32  3.1000000000000D-01  1.1069017813097D+00 -5.6625904994212D-02
33  3.2000000000000D-01  1.1230041053493D+00 -3.8445339360010D-02
34  3.3000000000000D-01  1.1378372019082D+00 -1.9473711887018D-02
35  3.4000000000000D-01  1.1514318916719D+00  1.8808128345294D-04
36  3.5000000000000D-01  1.1638213220735D+00  2.0436344235334D-02
37  3.6000000000000D-01  1.1750405903440D+00  4.1165425230844D-02
38  3.7000000000000D-01  1.1851263588862D+00  6.2268573597225D-02
39  3.8000000000000D-01  1.1941164659943D+00  8.3638802926637D-02
40  3.9000000000000D-01  1.2020495349754D+00  1.0516975391390D-01
41  4.0000000000000D-01  1.2089645847336D+00  1.2675655015148D-01
42  4.1000000000000D-01  1.2149006448643D+00  1.4829664024647D-01
43  4.2000000000000D-01  1.2198963782666D+00  1.6969061971868D-01
44  4.3000000000000D-01  1.2239897142227D+00  1.9084302628313D-01
45  4.4000000000000D-01  1.2272174948115D+00  2.1166310231170D-01
46  4.5000000000000D-01  1.2296151374181D+00  2.3206551850687D-01
47  4.6000000000000D-01  1.2312163159792D+00  2.5197105310377D-01
48  4.7000000000000D-01  1.2320526634601D+00  2.7130722124169D-01
49  4.8000000000000D-01  1.2321534978960D+00  2.9000884951286D-01
50  4.9000000000000D-01  1.2315455741536D+00  3.0801859109885D-01
51  5.0000000000000D-01  1.2302528633700D+00  3.2528737734378D-01
52  5.1000000000000D-01  1.2282963618197D+00  3.4177480208202D-01
53  5.2000000000000D-01  1.2256939307350D+00  3.5744943553610D-01
54  5.3000000000000D-01  1.2224601683719D+00  3.7228906512211D-01
55  5.4000000000000D-01  1.2186063153696D+00  3.8628086104156D-01
56  5.5000000000000D-01  1.2141401941991D+00  3.9942146509834D-01
57  5.6000000000000D-01  1.2090661832394D+00  4.1171700175043D-01
58  5.7000000000000D-01  1.2033852257552D+00  4.2318301098539D-01
59  5.8000000000000D-01  1.1970948737893D+00  4.3384430319421D-01
60  5.9000000000000D-01  1.1901893667127D+00  4.4373473680017D-01
61  6.0000000000000D-01  1.1826597439160D+00  4.5289691998158D-01
62  6.1000000000000D-01  1.1744939908622D+00  4.6138183839704D-01
63  6.2000000000000D-01  1.1656772174684D+00  4.6924841138229D-01
64  6.3000000000000D-01  1.1561918675323D+00  4.7656297963039D-01
65  6.4000000000000D-01  1.1460179576841D+00  4.8339872788819D-01
66  6.5000000000000D-01  1.1351333441105D+00  4.8983504670269D-01
67  6.6000000000000D-01  1.1235140150860D+00  4.9595683771946D-01
68  6.7000000000000D-01  1.1111344071377D+00  5.0185376747602D-01
69  6.8000000000000D-01  1.0979677424873D+00  5.0761947503873D-01
70  6.9000000000000D-01  1.0839863852367D+00  5.1335073920010D-01
71  7.0000000000000D-01  1.0691622136143D+00  5.1914661128135D-01
72  7.1000000000000D-01  1.0534670054605D+00  5.2510751987311D-01
73  7.2000000000000D-01  1.0368728340169D+00  5.3133435408813D-01
74  7.3000000000000D-01  1.0193524709874D+00  5.3792753209740D-01
75  7.4000000000000D-01  1.0008797937675D+00  5.4498606186929D-01
76  7.5000000000000D-01  9.8143019368339D-01  5.5260660113167D-01
77  7.6000000000000D-01  9.6098098205558D-01  5.6088252362874D-01
78  7.7000000000000D-01  9.3951179089159D-01  5.6990299874438D-01
79  7.8000000000000D-01  9.1700496503007D-01  5.7975209151544D-01
80  7.9000000000000D-01  8.9344594259442D-01  5.9050788995959D-01
81  8.0000000000000D-01  8.6882362067518D-01  6.0224166649425D-01
82  8.1000000000000D-01  8.4313070324186D-01  6.1501708002671D-01
83  8.2000000000000D-01  8.1636402838863D-01  6.2888942505218D-01
84  8.3000000000000D-01  7.8852487214227D-01  6.4390493380689D-01
85  8.4000000000000D-01  7.5961922620508D-01  6.6010013719068D-01
86  8.5000000000000D-01  7.2965804716881D-01  6.7750128979831D-01
87  8.6000000000000D-01  6.9865747491705D-01  6.9612386398486D-01
88  8.7000000000000D-01  6.6663901813153D-01  7.1597211743976D-01
89  8.8000000000000D-01  6.3362970503195D-01  7.3703873825938D-01
90  8.9000000000000D-01  5.9966219770688D-01  7.5930457099310D-01
91  9.0000000000000D-01  5.6477486863381D-01  7.8273842659552D-01
92  9.1000000000000D-01  5.2901183823867D-01  8.0729697865164D-01
93  9.2000000000000D-01  4.9242297260643D-01  8.3292474765556D-01
94  9.3000000000000D-01  4.5506384072357D-01  8.5955417452177D-01
95  9.4000000000000D-01  4.1699563090840D-01  8.8710578389372D-01
96  9.5000000000000D-01  3.7828502636469D-01  9.1548843719235D-01
97  9.6000000000000D-01  3.3900404007588D-01  9.4459967472132D-01
98  9.7000000000000D-01  2.9922980953911D-01  9.7432614552013D-01
99  9.8000000000000D-01  2.5904435211925D-01  1.0045441230352D+00
100  9.9000000000000D-01  2.1853428208309D-01  1.0351201040610D+00
101  1.0000000000000D+00  1.7779049063796D-01  1.0659114878222D+00
102  1.0100000000000D+00  1.3690779057646D-01  1.0967673314576D+00
103  1.0200000000000D+00  9.5984527376245D-02  1.1275291776268D+00
104  1.0300000000000D+00  5.5122158853449D-02  1.1580319494136D+00
105  1.0400000000000D+00  1.4424805700383D-02  1.1881049071983D+00
106  1.0500000000000D+00 -2.6001224534902D-02  1.2175726616751D+00
107  1.0600000000000D+00 -6.6047937284169D-02  1.2462562367969D+00
108  1.0700000000000D+00 -1.0560617165404D-01  1.2739741759673D+00
109  1.0800000000000D+00 -1.4456613887380D-01  1.3005436844834D+00
110  1.0900000000000D+00 -1.8281797523322D-01  1.3257818009019D+00
111  1.1000000000000D+00 -2.2025230611669D-01  1.3495065897277D+00
112  1.1100000000000D+00 -2.5676081764361D-01  1.3715383476275D+00
113  1.1200000000000D+00 -2.9223683232189D-01  1.3917008151658D+00
114  1.1300000000000D+00 -3.2657588507408D-01  1.4098223859711D+00
115  1.1400000000000D+00 -3.5967629595558D-01  1.4257373051767D+00
116  1.1500000000000D+00 -3.9143973586696D-01  1.4392868489580D+00
117  1.1600000000000D+00 -4.2177178157311D-01  1.4503204770404D+00
118  1.1700000000000D+00 -4.5058245637947D-01  1.4586969501522D+00
119  1.1800000000000D+00 -4.7778675289145D-01  1.4642854045960D+00
120  1.1900000000000D+00 -5.0330513432196D-01  1.4669663762077D+00
121  1.2000000000000D+00 -5.2706401097028D-01  1.4666327663629D+00
122  1.2100000000000D+00 -5.4899618862019D-01  1.4631907429818D+00
123  1.2200000000000D+00 -5.6904128572181D-01  1.4565605697640D+00
124  1.2300000000000D+00 -5.8714611642088D-01  1.4466773573528D+00
125  1.2400000000000D+00 -6.0326503673325D-01  1.4334917306744D+00
126  1.2500000000000D+00 -6.1736025133674D-01  1.4169704070985D+00
127  1.2600000000000D+00 -6.2940207863524D-01  1.3970966804953D+00
128  1.2700000000000D+00 -6.3936917215357D-01  1.3738708071886D+00
129  1.2800000000000D+00 -6.4724869648642D-01  1.3473102901807D+00
130  1.2900000000000D+00 -6.5303645620315D-01  1.3174500584388D+00
131  1.3000000000000D+00 -6.5673697668493D-01  1.2843425393372D+00
132  1.3100000000000D+00 -6.5836353594291D-01  1.2480576225147D+00
133  1.3200000000000D+00 -6.5793814672099D-01  1.2086825139885D+00
134  1.3300000000000D+00 -6.5549148886692D-01  1.1663214808983D+00
135  1.3400000000000D+00 -6.5106279183754D-01  1.1210954869933D+00
136  1.3500000000000D+00 -6.4469966770645D-01  1.0731417201040D+00
137  1.3600000000000D+00 -6.3645789565000D-01  1.0226130142066D+00
138  1.3700000000000D+00 -6.2640115852221D-01  9.6967716786601D-01
139  1.3800000000000D+00 -6.1460073315931D-01  9.1451616315357D-01
140  1.3900000000000D+00 -6.0113513605608D-01  8.5732528912823D-01
141  1.4000000000000D+00 -5.8608972600895D-01  7.9831217387530D-01
142  1.4100000000000D+00 -5.6955626645276D-01  7.3769573159983D-01
143  1.4200000000000D+00 -5.5163244951587D-01  6.7570502971760D-01
144  1.4300000000000D+00 -5.3242138476087D-01  6.1257808297381D-01
145  1.4400000000000D+00 -5.1203105566467D-01  5.4856058178545D-01
146  1.4500000000000D+00 -4.9057374666292D-01  4.8390456153110D-01
147  1.4600000000000D+00 -4.6816544463857D-01  4.1886702177279D-01
148  1.4700000000000D+00 -4.4492521791065D-01  3.5370850263103D-01
149  1.4800000000000D+00 -4.2097457677996D-01  2.8869162767438D-01
150  1.4900000000000D+00 -3.9643681923100D-01  2.2407962167755D-01
151  1.5000000000000D+00 -3.7143636576437D-01  1.6013481245110D-01
152  1.5100000000000D+00 -3.4609808730021D-01  9.7117125735551D-02
153  1.5200000000000D+00 -3.2054663017450D-01  3.5282582502283D-02
154  1.5300000000000D+00 -2.9490574213020D-01 -2.5118192540796D-02
155  1.5400000000000D+00 -2.6929760342827D-01 -8.3841441695268D-02
156  1.5500000000000D+00 -2.4384216680800D-01 -1.4065171589267D-01
157  1.5600000000000D+00 -2.1865651024511D-01 -1.9532327815043D-01
158  1.5700000000000D+00 -1.9385420623006D-01 -2.4764146048200D-01
159  1.5800000000000D+00 -1.6954471087955D-01 -2.9740396679388D-01
160  1.5900000000000D+00 -1.4583277683030D-01 -3.4442211284336D-01
161  1.6000000000000D+00 -1.2281789214232D-01 -3.8852199838135D-01
162  1.6100000000000D+00 -1.0059374959013D-01 -4.2954560155336D-01
163  1.6200000000000D+00 -7.9247747104170D-02 -4.6735179412264D-01
164  1.6300000000000D+00 -5.8860524302683D-02 -5.0181726629796D-01
165  1.6400000000000D+00 -3.9505534140724D-02 -5.3283736376475D-01
166  1.6500000000000D+00 -2.1248655212981D-02 -5.6032682434736D-01
167  1.6600000000000D+00 -4.1478418861516D-03 -5.8422042117352D-01
168  1.6700000000000D+00  1.1747181762152D-02 -6.0447349878820D-01
169  1.6800000000000D+00  2.6395188656263D-02 -6.2106241283423D-01
170  1.6900000000000D+00  3.9763670135879D-02 -6.3398485985116D-01
171  1.7000000000000D+00  5.1829017825476D-02 -6.4326011075944D-01
172  1.7100000000000D+00  6.2576660224809D-02 -6.4892913512845D-01
173  1.7200000000000D+00  7.2001161116388D-02 -6.5105463283057D-01
174  1.7300000000000D+00  8.0106274189646D-02 -6.4972096054119D-01
175  1.7400000000000D+00  8.6904962317901D-02 -6.4503397270604D-01
176  1.7500000000000D+00  9.2419385289023D-02 -6.3712078796502D-01
177  1.7600000000000D+00  9.6680804369771D-02 -6.2612935005363D-01
178  1.7700000000000D+00  9.9729630976562D-02 -6.1222834973982D-01
179  1.7800000000000D+00  1.0161497644453D-01 -5.9560592059615D-01
180  1.7900000000000D+00  1.0239475879514D-01 -5.7646968577311D-01
181  1.8000000000000D+00  1.0213618717298D-01 -5.5504780898971D-01
182  1.8100000000000D+00  1.0091437536596D-01 -5.3158532945032D-01
183  1.8200000000000D+00  9.8810743999262D-02 -5.0633993179530D-01
184  1.8300000000000D+00  9.5911481908192D-02 -4.7957805202672D-01
185  1.8400000000000D+00  9.2305441828678D-02 -4.5156967834553D-01
186  1.8500000000000D+00  8.8082650273465D-02 -4.2258469195801D-01
187  1.8600000000000D+00  8.3334206144047D-02 -3.9289274783504D-01
188  1.8700000000000D+00  7.8151776464373D-02 -3.6276217941644D-01
189  1.8800000000000D+00  7.2626598821147D-02 -3.3245759708595D-01
190  1.8900000000000D+00  6.6848938387946D-02 -3.0223867439923D-01
191  1.9000000000000D+00  6.0907363753005D-02 -2.7235846645936D-01
192  1.9100000000000D+00  5.4888095943644D-02 -2.4306191518101D-01
193  1.9200000000000D+00  4.8874368459523D-02 -2.1458437959347D-01
194  1.9300000000000D+00  4.2945810306402D-02 -1.8715022147833D-01
195  1.9400000000000D+00  3.7177855994542D-02 -1.6097145493736D-01
196  1.9500000000000D+00  3.1641185894172D-02 -1.3624646742186D-01
197  1.9600000000000D+00  2.6401199009971D-02 -1.1315881701004D-01
198  1.9700000000000D+00  2.1517535715694D-02 -9.1876146180156D-02
199  1.9800000000000D+00  1.7043638274986D-02 -7.2549184078959D-02
200  1.9900000000000D+00  1.3028541354921D-02 -5.5320176253557D-02
201  2.0000000000000D+00  9.5091169086240D-03 -4.0290520922783D-02
202  2.0100000000000D+00  6.5103528617134D-03 -2.7522966214055D-02
203  2.0200000000000D+00  4.0530542805668D-03 -1.7075401669905D-02
204  2.0300000000000D+00  2.2004088694604D-03 -9.1924703263604D-03
205  2.0400000000000D+00  9.8441481576289D-04 -3.9960175593062D-03
206  2.0500000000000D+00  3.1229499632445D-04 -1.1181351706199D-03
207  2.0600000000000D+00  2.5491249415383D-05  7.5955466185586D-05
208  2.0700000000000D+00 -4.0101540657773D-05  2.7132901358282D-04
209  2.0800000000000D+00 -8.2744980654059D-06  4.8246739132847D-05
210  2.0900000000000D+00  1.6629533696750D-05 -9.1882016523295D-05
211  2.1000000000000D+00  1.2871102595763D-05 -6.9069789419364D-05
212  2.1100000000000D+00 -1.2636239089669D-06  7.6485369970262D-06
213  2.1200000000000D+00 -2.9447222329942D-06  1.7344399608424D-05
214  2.1300000000000D+00 -7.4139536168808D-07  4.2847546317042D-06
215  2.1400000000000D+00 -1.9731698669508D-07  3.4064958061551D-07
216  2.1500000000000D+00 -1.7513597966734D-07  3.0235611755292D-07
217  2.1600000000000D+00  0.0000000000000D+00  0.0000000000000D+00
218  2.1700000000000D+00  0.0000000000000D+00  0.0000000000000D+00
219  2.1800000000000D+00  0.0000000000000D+00  0.0000000000000D+00
220  2.1900000000000D+00  0.0000000000000D+00  0.0000000000000D+00
221  2.2000000000000D+00  0.0000000000000D+00  0.0000000000000D+00
222  2.2100000000000D+00  0.0000000000000D+00  0.0000000000000D+00
223  2.2200000000000D+00  0.0000000000000D+00  0.0000000000000D+00
224  2.2300000000000D+00  0.0000000000000D+00  0.0000000000000D+00
225  2.2400000000000D+00  0.0000000000000D+00  0.0000000000000D+00
226  2.2500000000000D+00  0.0000000000000D+00  0.0000000000000D+00
227  2.2600000000000D+00  0.0000000000000D+00  0.0000000000000D+00
228  2.2700000000000D+00  0.0000000000000D+00  0.0000000000000D+00
229  2.2800000000000D+00  0.0000000000000D+00  0.0000000000000D+00
230  2.2900000000000D+00  0.0000000000000D+00  0.0000000000000D+00
231  2.3000000000000D+00  0.0000000000000D+00  0.0000000000000D+00
232  2.3100000000000D+00  0.0000000000000D+00  0.0000000000000D+00
233  2.3200000000000D+00  0.0000000000000D+00  0.0000000000000D+00
234  2.3300000000000D+00  0.0000000000000D+00  0.0000000000000D+00
235  2.3400000000000D+00  0.0000000000000D+00  0.0000000000000D+00
236  2.3500000000000D+00  0.0000000000000D+00  0.0000000000000D+00
237  2.3600000000000D+00  0.0000000000000D+00  0.0000000000000D+00
238  2.3700000000000D+00  0.0000000000000D+00  0.0000000000000D+00
239  2.3800000000000D+00  0.0000000000000D+00  0.0000000000000D+00
240  2.3900000000000D+00  0.0000000000000D+00  0.0000000000000D+00
241  2.4000000000000D+00  0.0000000000000D+00  0.0000000000000D+00
242  2.4100000000000D+00  0.0000000000000D+00  0.0000000000000D+00
243  2.4200000000000D+00  0.0000000000000D+00  0.0000000000000D+00
244  2.4300000000000D+00  0.0000000000000D+00  0.0000000000000D+00
245  2.4400000000000D+00  0.0000000000000D+00  0.0000000000000D+00
246  2.4500000000000D+00  0.0000000000000D+00  0.0000000000000D+00
247  2.4600000000000D+00  0.0000000000000D+00  0.0000000000000D+00
248  2.4700000000000D+00  0.0000000000000D+00  0.0000000000000D+00
249  2.4800000000000D+00  0.0000000000000D+00  0.0000000000000D+00
250  2.4900000000000D+00  0.0000000000000D+00  0.0000000000000D+00
251  2.5000000000000D+00  0.0000000000000D+00  0.0000000000000D+00
252  2.5100000000000D+00  0.0000000000000D+00  0.0000000000000D+00
253  2.5200000000000D+00  0.0000000000000D+00  0.0000000000000D+00
254  2.5300000000000D+00  0.0000000000000D+00  0.0000000000000D+00
255  2.5400000000000D+00  0.0000000000000D+00  0.0000000000000D+00
256  2.5500000000000D+00  0.0000000000000D+00  0.0000000000000D+00
257  2.5600000000000D+00  0.0000000000000D+00  0.0000000000000D+00
258  2.5700000000000D+00  0.0000000000000D+00  0.0000000000000D+00
259  2.5800000000000D+00  0.0000000000000D+00  0.0000000000000D+00
260  2.5900000000000D+00  0.0000000000000D+00  0.0000000000000D+00
261  2.6000000000000D+00  0.0000000000000D+00  0.0000000000000D+00
262  2.6100000000000D+00  0.0000000000000D+00  0.0000000000000D+00
263  2.6200000000000D+00  0.0000000000000D+00  0.0000000000000D+00
264  2.6300000000000D+00  0.0000000000000D+00  0.0000000000000D+00
265  2.6400000000000D+00  0.0000000000000D+00  0.0000000000000D+00
266  2.6500000000000D+00  0.0000000000000D+00  0.0000000000000D+00
267  2.6600000000000D+00  0.0000000000000D+00  0.0000000000000D+00
268  2.6700000000000D+00  0.0000000000000D+00  0.0000000000000D+00
269  2.6800000000000D+00  0.0000000000000D+00  0.0000000000000D+00
270  2.6900000000000D+00  0.0000000000000D+00  0.0000000000000D+00
271  2.7000000000000D+00  0.0000000000000D+00  0.0000000000000D+00
272  2.7100000000000D+00  0.0000000000000D+00  0.0000000000000D+00
273  2.7200000000000D+00  0.0000000000000D+00  0.0000000000000D+00
274  2.7300000000000D+00  0.0000000000000D+00  0.0000000000000D+00
275  2.7400000000000D+00  0.0000000000000D+00  0.0000000000000D+00
276  2.7500000000000D+00  0.0000000000000D+00  0.0000000000000D+00
277  2.7600000000000D+00  0.0000000000000D+00  0.0000000000000D+00
278  2.7700000000000D+00  0.0000000000000D+00  0.0000000000000D+00
279  2.7800000000000D+00  0.0000000000000D+00  0.0000000000000D+00
280  2.7900000000000D+00  0.0000000000000D+00  0.0000000000000D+00
281  2.8000000000000D+00  0.0000000000000D+00  0.0000000000000D+00
282  2.8100000000000D+00  0.0000000000000D+00  0.0000000000000D+00
283  2.8200000000000D+00  0.0000000000000D+00  0.0000000000000D+00
284  2.8300000000000D+00  0.0000000000000D+00  0.0000000000000D+00
285  2.8400000000000D+00  0.0000000000000D+00  0.0000000000000D+00
286  2.8500000000000D+00  0.0000000000000D+00  0.0000000000000D+00
287  2.8600000000000D+00  0.0000000000000D+00  0.0000000000000D+00
288  2.8700000000000D+00  0.0000000000000D+00  0.0000000000000D+00
289  2.8800000000000D+00  0.0000000000000D+00  0.0000000000000D+00
290  2.8900000000000D+00  0.0000000000000D+00  0.0000000000000D+00
291  2.9000000000000D+00  0.0000000000000D+00  0.0000000000000D+00
292  2.9100000000000D+00  0.0000000000000D+00  0.0000000000000D+00
293  2.9200000000000D+00  0.0000000000000D+00  0.0000000000000D+00
294  2.9300000000000D+00  0.0000000000000D+00  0.0000000000000D+00
295  2.9400000000000D+00  0.0000000000000D+00  0.0000000000000D+00
296  2.9500000000000D+00  0.0000000000000D+00  0.0000000000000D+00
297  2.9600000000000D+00  0.0000000000000D+00  0.0000000000000D+00
298  2.9700000000000D+00  0.0000000000000D+00  0.0000000000000D+00
299  2.9800000000000D+00  0.0000000000000D+00  0.0000000000000D+00
300  2.9900000000000D+00  0.0000000000000D+00  0.0000000000000D+00
301  3.0000000000000D+00  0.0000000000000D+00  0.0000000000000D+00
302  3.0100000000000D+00  0.0000000000000D+00  0.0000000000000D+00
303  3.0200000000000D+00  0.0000000000000D+00  0.0000000000000D+00
304  3.0300000000000D+00  0.0000000000000D+00  0.0000000000000D+00
305  3.0400000000000D+00  0.0000000000000D+00  0.0000000000000D+00
306  3.0500000000000D+00  0.0000000000000D+00  0.0000000000000D+00
307  3.0600000000000D+00  0.0000000000000D+00  0.0000000000000D+00
308  3.0700000000000D+00  0.0000000000000D+00  0.0000000000000D+00
309  3.0800000000000D+00  0.0000000000000D+00  0.0000000000000D+00
310  3.0900000000000D+00  0.0000000000000D+00  0.0000000000000D+00
311  3.1000000000000D+00  0.0000000000000D+00  0.0000000000000D+00
312  3.1100000000000D+00  0.0000000000000D+00  0.0000000000000D+00
313  3.1200000000000D+00  0.0000000000000D+00  0.0000000000000D+00
314  3.1300000000000D+00  0.0000000000000D+00  0.0000000000000D+00
315  3.1400000000000D+00  0.0000000000000D+00  0.0000000000000D+00
316  3.1500000000000D+00  0.0000000000000D+00  0.0000000000000D+00
317  3.1600000000000D+00  0.0000000000000D+00  0.0000000000000D+00
318  3.1700000000000D+00  0.0000000000000D+00  0.0000000000000D+00
319  3.1800000000000D+00  0.0000000000000D+00  0.0000000000000D+00
320  3.1900000000000D+00  0.0000000000000D+00  0.0000000000000D+00
321  3.2000000000000D+00  0.0000000000000D+00  0.0000000000000D+00
322  3.2100000000000D+00  0.0000000000000D+00  0.0000000000000D+00
323  3.2200000000000D+00  0.0000000000000D+00  0.0000000000000D+00
324  3.2300000000000D+00  0.0000000000000D+00  0.0000000000000D+00
325  3.2400000000000D+00  0.0000000000000D+00  0.0000000000000D+00
326  3.2500000000000D+00  0.0000000000000D+00  0.0000000000000D+00
327  3.2600000000000D+00  0.0000000000000D+00  0.0000000000000D+00
328  3.2700000000000D+00  0.0000000000000D+00  0.0000000000000D+00
329  3.2800000000000D+00  0.0000000000000D+00  0.0000000000000D+00
330  3.2900000000000D+00  0.0000000000000D+00  0.0000000000000D+00
331  3.3000000000000D+00  0.0000000000000D+00  0.0000000000000D+00
332  3.3100000000000D+00  0.0000000000000D+00  0.0000000000000D+00
333  3.3200000000000D+00  0.0000000000000D+00  0.0000000000000D+00
334  3.3300000000000D+00  0.0000000000000D+00  0.0000000000000D+00
335  3.3400000000000D+00  0.0000000000000D+00  0.0000000000000D+00
336  3.3500000000000D+00  0.0000000000000D+00  0.0000000000000D+00
337  3.3600000000000D+00  0.0000000000000D+00  0.0000000000000D+00
338  3.3700000000000D+00  0.0000000000000D+00  0.0000000000000D+00
339  3.3800000000000D+00  0.0000000000000D+00  0.0000000000000D+00
340  3.3900000000000D+00  0.0000000000000D+00  0.0000000000000D+00
341  3.4000000000000D+00  0.0000000000000D+00  0.0000000000000D+00
342  3.4100000000000D+00  0.0000000000000D+00  0.0000000000000D+00
343  3.4200000000000D+00  0.0000000000000D+00  0.0000000000000D+00
344  3.4300000000000D+00  0.0000000000000D+00  0.0000000000000D+00
345  3.4400000000000D+00  0.0000000000000D+00  0.0000000000000D+00
346  3.4500000000000D+00  0.0000000000000D+00  0.0000000000000D+00
347  3.4600000000000D+00  0.0000000000000D+00  0.0000000000000D+00
348  3.4700000000000D+00  0.0000000000000D+00  0.0000000000000D+00
349  3.4800000000000D+00  0.0000000000000D+00  0.0000000000000D+00
350  3.4900000000000D+00  0.0000000000000D+00  0.0000000000000D+00
351  3.5000000000000D+00  0.0000000000000D+00  0.0000000000000D+00
352  3.5100000000000D+00  0.0000000000000D+00  0.0000000000000D+00
353  3.5200000000000D+00  0.0000000000000D+00  0.0000000000000D+00
354  3.5300000000000D+00  0.0000000000000D+00  0.0000000000000D+00
355  3.5400000000000D+00  0.0000000000000D+00  0.0000000000000D+00
356  3.5500000000000D+00  0.0000000000000D+00  0.0000000000000D+00
357  3.5600000000000D+00  0.0000000000000D+00  0.0000000000000D+00
358  3.5700000000000D+00  0.0000000000000D+00  0.0000000000000D+00
359  3.5800000000000D+00  0.0000000000000D+00  0.0000000000000D+00
360  3.5900000000000D+00  0.0000000000000D+00  0.0000000000000D+00
361  3.6000000000000D+00  0.0000000000000D+00  0.0000000000000D+00
362  3.6100000000000D+00  0.0000000000000D+00  0.0000000000000D+00
363  3.6200000000000D+00  0.0000000000000D+00  0.0000000000000D+00
364  3.6300000000000D+00  0.0000000000000D+00  0.0000000000000D+00
365  3.6400000000000D+00  0.0000000000000D+00  0.0000000000000D+00
366  3.6500000000000D+00  0.0000000000000D+00  0.0000000000000D+00
367  3.6600000000000D+00  0.0000000000000D+00  0.0000000000000D+00
368  3.6700000000000D+00  0.0000000000000D+00  0.0000000000000D+00
369  3.6800000000000D+00  0.0000000000000D+00  0.0000000000000D+00
370  3.6900000000000D+00  0.0000000000000D+00  0.0000000000000D+00
371  3.7000000000000D+00  0.0000000000000D+00  0.0000000000000D+00
372  3.7100000000000D+00  0.0000000000000D+00  0.0000000000000D+00
373  3.7200000000000D+00  0.0000000000000D+00  0.0000000000000D+00
374  3.7300000000000D+00  0.0000000000000D+00  0.0000000000000D+00
375  3.7400000000000D+00  0.0000000000000D+00  0.0000000000000D+00
376  3.7500000000000D+00  0.0000000000000D+00  0.0000000000000D+00
377  3.7600000000000D+00  0.0000000000000D+00  0.0000000000000D+00
378  3.7700000000000D+00  0.0000000000000D+00  0.0000000000000D+00
379  3.7800000000000D+00  0.0000000000000D+00  0.0000000000000D+00
380  3.7900000000000D+00  0.0000000000000D+00  0.0000000000000D+00
381  3.8000000000000D+00  0.0000000000000D+00  0.0000000000000D+00
382  3.8100000000000D+00  0.0000000000000D+00  0.0000000000000D+00
383  3.8200000000000D+00  0.0000000000000D+00  0.0000000000000D+00
384  3.8300000000000D+00  0.0000000000000D+00  0.0000000000000D+00
385  3.8400000000000D+00  0.0000000000000D+00  0.0000000000000D+00
386  3.8500000000000D+00  0.0000000000000D+00  0.0000000000000D+00
387  3.8600000000000D+00  0.0000000000000D+00  0.0000000000000D+00
388  3.8700000000000D+00  0.0000000000000D+00  0.0000000000000D+00
389  3.8800000000000D+00  0.0000000000000D+00  0.0000000000000D+00
390  3.8900000000000D+00  0.0000000000000D+00  0.0000000000000D+00
391  3.9000000000000D+00  0.0000000000000D+00  0.0000000000000D+00
392  3.9100000000000D+00  0.0000000000000D+00  0.0000000000000D+00
393  3.9200000000000D+00  0.0000000000000D+00  0.0000000000000D+00
394  3.9300000000000D+00  0.0000000000000D+00  0.0000000000000D+00
395  3.9400000000000D+00  0.0000000000000D+00  0.0000000000000D+00
396  3.9500000000000D+00  0.0000000000000D+00  0.0000000000000D+00
397  3.9600000000000D+00  0.0000000000000D+00  0.0000000000000D+00
398  3.9700000000000D+00  0.0000000000000D+00  0.0000000000000D+00
399  3.9800000000000D+00  0.0000000000000D+00  0.0000000000000D+00
400  3.9900000000000D+00  0.0000000000000D+00  0.0000000000000D+00
401  4.0000000000000D+00  0.0000000000000D+00  0.0000000000000D+00
402  4.0100000000000D+00  0.0000000000000D+00  0.0000000000000D+00
403  4.0200000000000D+00  0.0000000000000D+00  0.0000000000000D+00
404  4.0300000000000D+00  0.0000000000000D+00  0.0000000000000D+00
405  4.0400000000000D+00  0.0000000000000D+00  0.0000000000000D+00
406  4.0500000000000D+00  0.0000000000000D+00  0.0000000000000D+00
407  4.0600000000000D+00  0.0000000000000D+00  0.0000000000000D+00
408  4.0700000000000D+00  0.0000000000000D+00  0.0000000000000D+00
409  4.0800000000000D+00  0.0000000000000D+00  0.0000000000000D+00
410  4.0900000000000D+00  0.0000000000000D+00  0.0000000000000D+00
411  4.1000000000000D+00  0.0000000000000D+00  0.0000000000000D+00
412  4.1100000000000D+00  0.0000000000000D+00  0.0000000000000D+00
413  4.1200000000000D+00  0.0000000000000D+00  0.0000000000000D+00
414  4.1300000000000D+00  0.0000000000000D+00  0.0000000000000D+00
415  4.1400000000000D+00  0.0000000000000D+00  0.0000000000000D+00
416  4.1500000000000D+00  0.0000000000000D+00  0.0000000000000D+00
417  4.1600000000000D+00  0.0000000000000D+00  0.0000000000000D+00
418  4.1700000000000D+00  0.0000000000000D+00  0.0000000000000D+00
419  4.1800000000000D+00  0.0000000000000D+00  0.0000000000000D+00
420  4.1900000000000D+00  0.0000000000000D+00  0.0000000000000D+00
421  4.2000000000000D+00  0.0000000000000D+00  0.0000000000000D+00
422  4.2100000000000D+00  0.0000000000000D+00  0.0000000000000D+00
423  4.2200000000000D+00  0.0000000000000D+00  0.0000000000000D+00
424  4.2300000000000D+00  0.0000000000000D+00  0.0000000000000D+00
425  4.2400000000000D+00  0.0000000000000D+00  0.0000000000000D+00
426  4.2500000000000D+00  0.0000000000000D+00  0.0000000000000D+00
427  4.2600000000000D+00  0.0000000000000D+00  0.0000000000000D+00
428  4.2700000000000D+00  0.0000000000000D+00  0.0000000000000D+00
429  4.2800000000000D+00  0.0000000000000D+00  0.0000000000000D+00
430  4.2900000000000D+00  0.0000000000000D+00  0.0000000000000D+00
431  4.3000000000000D+00  0.0000000000000D+00  0.0000000000000D+00
432  4.3100000000000D+00  0.0000000000000D+00  0.0000000000000D+00
433  4.3200000000000D+00  0.0000000000000D+00  0.0000000000000D+00
434  4.3300000000000D+00  0.0000000000000D+00  0.0000000000000D+00
435  4.3400000000000D+00  0.0000000000000D+00  0.0000000000000D+00
436  4.3500000000000D+00  0.0000000000000D+00  0.0000000000000D+00
437  4.3600000000000D+00  0.0000000000000D+00  0.0000000000000D+00
438  4.3700000000000D+00  0.0000000000000D+00  0.0000000000000D+00
439  4.3800000000000D+00  0.0000000000000D+00  0.0000000000000D+00
440  4.3900000000000D+00  0.0000000000000D+00  0.0000000000000D+00
441  4.4000000000000D+00  0.0000000000000D+00  0.0000000000000D+00
442  4.4100000000000D+00  0.0000000000000D+00  0.0000000000000D+00
443  4.4200000000000D+00  0.0000000000000D+00  0.0000000000000D+00