Eu    ONCVPSP-3.2.3.1  r_core=   2.05715   1.86991   1.80418   2.40221
63.0000     11.0000      170524    zatom,zion,pspd
8      11   3     4   600     0    pspcod,pspxc,lmax,lloc,mmax,r2well
5.99000000  5.40000000  0.00000000    rchrg fchrg qchrg
2     2     2     1     0    nproj
1     1           extension_switch
0                         6.4790730972109D+00  7.5945732600632D-01
1  0.0000000000000D+00 -6.8937633379562D-11  1.6200789321186D-10
2  1.0000000000000D-02  4.9055212540952D-02 -1.5582779404664D-02
3  2.0000000000000D-02  9.8022658105857D-02 -3.1056220418537D-02
4  3.0000000000000D-02  1.4681493373231D-01 -4.6311706432629D-02
5  4.0000000000000D-02  1.9534536209558D-01 -6.1242058995746D-02
6  5.0000000000000D-02  2.4352834837083D-01 -7.5742243420147D-02
7  6.0000000000000D-02  2.9127972999668D-01 -8.9710058334618D-02
8  7.0000000000000D-02  3.3851711705497D-01 -1.0304680402533D-01
9  8.0000000000000D-02  3.8516022105091D-01 -1.1565792456691D-01
10  9.0000000000000D-02  4.3113116996284D-01 -1.2745361894620D-01
11  1.0000000000000D-01  4.7635480753163D-01 -1.3834941661825D-01
12  1.1000000000000D-01  5.2075897487558D-01 -1.4826671320545D-01
13  1.2000000000000D-01  5.6427477264604D-01 -1.5713326235524D-01
14  1.3000000000000D-01  6.0683680208200D-01 -1.6488362010659D-01
15  1.4000000000000D-01  6.4838338347618D-01 -1.7145953847798D-01
16  1.5000000000000D-01  6.8885675073071D-01 -1.7681030537736D-01
17  1.6000000000000D-01  7.2820322085533D-01 -1.8089302834431D-01
18  1.7000000000000D-01  7.6637333744405D-01 -1.8367286006349D-01
19  1.8000000000000D-01  8.0332198735640D-01 -1.8512316403271D-01
20  1.9000000000000D-01  8.3900849002441D-01 -1.8522561922599D-01
21  2.0000000000000D-01  8.7339665900620D-01 -1.8397026305729D-01
22  2.1000000000000D-01  9.0645483560849D-01 -1.8135547242184D-01
23  2.2000000000000D-01  9.3815589460321D-01 -1.7738788306411D-01
24  2.3000000000000D-01  9.6847722226577D-01 -1.7208224799260D-01
25  2.4000000000000D-01  9.9740066716228D-01 -1.6546123612658D-01
26  2.5000000000000D-01  1.0249124643100D+00 -1.5755517281607D-01
27  2.6000000000000D-01  1.0510031335268D+00 -1.4840172432046D-01
28  2.7000000000000D-01  1.0756673529701D+00 -1.3804552875858D-01
29  2.8000000000000D-01  1.0989038090437D+00 -1.2653777645258D-01
30  2.9000000000000D-01  1.1207150240199D+00 -1.1393574297394D-01
31  3.0000000000000D-01  1.1411071628794D+00 -1.0030227856250D-01
32  3.1000000000000D-01  1.1600898210217D+00 -8.5705257922462D-02
33  3.2000000000000D-01  1.1776757946300D+00 -7.0216994703711D-02
34  3.3000000000000D-01  1.1938808355960D+00 -5.3913625247234D-02
35  3.4000000000000D-01  1.2087233930150D+00 -3.6874466410281D-02
36  3.5000000000000D-01  1.2222243433541D+00 -1.9181352486857D-02
37  3.6000000000000D-01  1.2344067114697D+00 -9.1795640128042D-04
38  3.7000000000000D-01  1.2452953847099D+00  1.7830899524156D-02
39  3.8000000000000D-01  1.2549168223791D+00  3.6979937843284D-02
40  3.9000000000000D-01  1.2632987628663D+00  5.6444119875318D-02
41  4.0000000000000D-01  1.2704699307481D+00  7.6139333780833D-02
42  4.1000000000000D-01  1.2764597461641D+00  9.5983071435463D-02
43  4.2000000000000D-01  1.2812980387410D+00  1.1589508879218D-01
44  4.3000000000000D-01  1.2850147682921D+00  1.3579804454284D-01
45  4.4000000000000D-01  1.2876397544636D+00  1.5561811204894D-01
46  4.5000000000000D-01  1.2892024174193D+00  1.7528555970836D-01
47  4.6000000000000D-01  1.2897315315656D+00  1.9473529515860D-01
48  4.7000000000000D-01  1.2892549942117D+00  2.1390736898497D-01
49  4.8000000000000D-01  1.2877996109371D+00  2.3274743390389D-01
50  4.9000000000000D-01  1.2853908993081D+00  2.5120715572235D-01
51  5.0000000000000D-01  1.2820529124358D+00  2.6924457273524D-01
52  5.1000000000000D-01  1.2778080837137D+00  2.8682440060701D-01
53  5.2000000000000D-01  1.2726770939038D+00  3.0391828019252D-01
54  5.3000000000000D-01  1.2666787615663D+00  3.2050496617950D-01
55  5.4000000000000D-01  1.2598299576438D+00  3.3657045487991D-01
56  5.5000000000000D-01  1.2521455448227D+00  3.5210804995433D-01
57  5.6000000000000D-01  1.2436383421004D+00  3.6711836532267D-01
58  5.7000000000000D-01  1.2343191147896D+00  3.8160926498747D-01
59  5.8000000000000D-01  1.2241965899930D+00  3.9559573997523D-01
60  5.9000000000000D-01  1.2132774973821D+00  4.0909972307726D-01
61  6.0000000000000D-01  1.2015666349145D+00  4.2214984254666D-01
62  6.1000000000000D-01  1.1890669589313D+00  4.3478111637357D-01
63  6.2000000000000D-01  1.1757796978805D+00  4.4703458921767D-01
64  6.3000000000000D-01  1.1617044887290D+00  4.5895691451936D-01
65  6.4000000000000D-01  1.1468395349440D+00  4.7059988473565D-01
66  6.5000000000000D-01  1.1311817847532D+00  4.8201991305369D-01
67  6.6000000000000D-01  1.1147271282291D+00  4.9327747031591D-01
68  6.7000000000000D-01  1.0974706115922D+00  5.0443648124804D-01
69  6.8000000000000D-01  1.0794066669845D+00  5.1556368440999D-01
70  6.9000000000000D-01  1.0605293558361D+00  5.2672796058703D-01
71  7.0000000000000D-01  1.0408326238330D+00  5.3799963460326D-01
72  7.1000000000000D-01  1.0203105653931D+00  5.4944975576978D-01
73  7.2000000000000D-01  9.9895769546790D-01  5.6114936237377D-01
74  7.3000000000000D-01  9.7676922642096D-01  5.7316873576950D-01
75  7.4000000000000D-01  9.5374134767565D-01  5.8557664974927D-01
76  7.5000000000000D-01  9.2987150578794D-01  5.9843962094837D-01
77  7.6000000000000D-01  9.0515868257823D-01  6.1182116607375D-01
78  7.7000000000000D-01  8.7960366895124D-01  6.2578107174065D-01
79  7.8000000000000D-01  8.5320933204594D-01  6.4037468265441D-01
80  7.9000000000000D-01  8.2598087338649D-01  6.5565221378737D-01
81  8.0000000000000D-01  7.9792607575198D-01  6.7165809207206D-01
82  8.1000000000000D-01  7.6905553654532D-01  6.8843033296394D-01
83  8.2000000000000D-01  7.3938288552116D-01  7.0599995702008D-01
84  8.3000000000000D-01  7.0892498482736D-01  7.2439045139559D-01
85  8.4000000000000D-01  6.7770210942478D-01  7.4361728087928D-01
86  8.5000000000000D-01  6.4573810607447D-01  7.6368745277527D-01
87  8.6000000000000D-01  6.1306052921960D-01  7.8459913959034D-01
88  8.7000000000000D-01  5.7970075224010D-01  8.0634136311014D-01
89  8.8000000000000D-01  5.4569405272096D-01  8.2889374304238D-01
90  8.9000000000000D-01  5.1107967054799D-01  8.5222631297634D-01
91  9.0000000000000D-01  4.7590083782814D-01  8.7629940595578D-01
92  9.1000000000000D-01  4.4020477982247D-01  9.0106361149220D-01
93  9.2000000000000D-01  4.0404268627842D-01  9.2645980535786D-01
94  9.3000000000000D-01  3.6746965275205D-01  9.5241925299850D-01
95  9.4000000000000D-01  3.3054459171979D-01  9.7886378689621D-01
96  9.5000000000000D-01  2.9333011349055D-01  1.0057060576972D+00
97  9.6000000000000D-01  2.5589237714285D-01  1.0328498584004D+00
98  9.7000000000000D-01  2.1830091192476D-01  1.0601905203867D+00
99  9.8000000000000D-01  1.8062840976703D-01  1.0876153795523D+00
100  9.9000000000000D-01  1.4295048977102D-01  1.1150043103018D+00
101  1.0000000000000D+00  1.0534543573285D-01  1.1422303246764D+00
102  1.0100000000000D+00  6.7893907974132D-02  1.1691602333887D+00
103  1.0200000000000D+00  3.0678630935734D-02  1.1956553650905D+00
104  1.0300000000000D+00 -6.2159418207473D-03  1.2215723397545D+00
105  1.0400000000000D+00 -4.2703983385378D-02  1.2467638916310D+00
106  1.0500000000000D+00 -7.8698668057222D-02  1.2710797368439D+00
107  1.0600000000000D+00 -1.1411256255931D-01  1.2943674803570D+00
108  1.0700000000000D+00 -1.4885803162523D-01  1.3164735566758D+00
109  1.0800000000000D+00 -1.8284765555917D-01  1.3372441983826D+00
110  1.0900000000000D+00 -2.1599465725595D-01  1.3565264263411D+00
111  1.1000000000000D+00 -2.4821333607145D-01  1.3741690551848D+00
112  1.1100000000000D+00 -2.7941950586362D-01  1.3900237075445D+00
113  1.1200000000000D+00 -3.0953093445033D-01  1.4039458303118D+00
114  1.1300000000000D+00 -3.3846778169763D-01  1.4157957061644D+00
115  1.1400000000000D+00 -3.6615303342634D-01  1.4254394535370D+00
116  1.1500000000000D+00 -3.9251292831472D-01  1.4327500082093D+00
117  1.1600000000000D+00 -4.1747737498862D-01  1.4376080797325D+00
118  1.1700000000000D+00 -4.4098035652326D-01  1.4399030760125D+00
119  1.1800000000000D+00 -4.6296031964311D-01  1.4395339895342D+00
120  1.1900000000000D+00 -4.8336054593978D-01  1.4364102388042D+00
121  1.2000000000000D+00 -5.0212950255444D-01  1.4304524589192D+00
122  1.2100000000000D+00 -5.1922116987068D-01  1.4215932354200D+00
123  1.2200000000000D+00 -5.3459534385597D-01  1.4097777758272D+00
124  1.2300000000000D+00 -5.4821791084731D-01  1.3949645136554D+00
125  1.2400000000000D+00 -5.6006109276047D-01  1.3771256401627D+00
126  1.2500000000000D+00 -5.7010366083785D-01  1.3562475594315D+00
127  1.2600000000000D+00 -5.7833111619376D-01  1.3323312627386D+00
128  1.2700000000000D+00 -5.8473583572966D-01  1.3053926189504D+00
129  1.2800000000000D+00 -5.8931718211957D-01  1.2754625779960D+00
130  1.2900000000000D+00 -5.9208157670518D-01  1.2425872848153D+00
131  1.3000000000000D+00 -5.9304253458463D-01  1.2068281022791D+00
132  1.3100000000000D+00 -5.9222066123412D-01  1.1682615417077D+00
133  1.3200000000000D+00 -5.8964361019952D-01  1.1269791001076D+00
134  1.3300000000000D+00 -5.8534600191803D-01  1.0830870045251D+00
135  1.3400000000000D+00 -5.7936930363886D-01  1.0367058636894D+00
136  1.3500000000000D+00 -5.7176167079951D-01  9.8797022807275D-01
137  1.3600000000000D+00 -5.6257775067738D-01  9.3702806061579D-01
138  1.3700000000000D+00 -5.5187844885816D-01  8.8404011969238D-01
139  1.3800000000000D+00 -5.3973065985007D-01  8.2917925780451D-01
140  1.3900000000000D+00 -5.2620696317005D-01  7.7262963948162D-01
141  1.4000000000000D+00 -5.1138528619683D-01  7.1458588179256D-01
142  1.4100000000000D+00 -4.9534853593999D-01  6.5525212293245D-01
143  1.4200000000000D+00 -4.7818420134339D-01  5.9484102306923D-01
144  1.4300000000000D+00 -4.5998392845468D-01  5.3357270335318D-01
145  1.4400000000000D+00 -4.4084307084913D-01  4.7167362911136D-01
146  1.4500000000000D+00 -4.2086021753468D-01  4.0937544288396D-01
147  1.4600000000000D+00 -4.0013670133769D-01  3.4691375477059D-01
148  1.4700000000000D+00 -3.7877609016614D-01  2.8452689614277D-01
149  1.4800000000000D+00 -3.5688366427843D-01  2.2245464449139D-01
150  1.4900000000000D+00 -3.3456588234079D-01  1.6093692635057D-01
151  1.5000000000000D+00 -3.1192983934795D-01  1.0021250595299D-01
152  1.5100000000000D+00 -2.8908271940607D-01  4.0517667003882D-02
153  1.5200000000000D+00 -2.6613124650125D-01 -1.7915104632573D-02
154  1.5300000000000D+00 -2.4318113618341D-01 -7.4858430183984D-02
155  1.5400000000000D+00 -2.2033655135703D-01 -1.3009133121692D-01
156  1.5500000000000D+00 -1.9769956496374D-01 -1.8340050010346D-01
157  1.5600000000000D+00 -1.7536963257254D-01 -2.3458154026198D-01
158  1.5700000000000D+00 -1.5344307766461D-01 -2.8344016937792D-01
159  1.5800000000000D+00 -1.3201259208601D-01 -3.2979337956961D-01
160  1.5900000000000D+00 -1.1116675464297D-01 -3.7347054722613D-01
161  1.6000000000000D+00 -9.0989569420599D-02 -4.1431448874951D-01
162  1.6100000000000D+00 -7.1560027143649D-02 -4.5218245406841D-01
163  1.6200000000000D+00 -5.2951689977019D-02 -4.8694705712788D-01
164  1.6300000000000D+00 -3.5232303527739D-02 -5.1849713412632D-01
165  1.6400000000000D+00 -1.8463435059458D-02 -5.4673853216281D-01
166  1.6500000000000D+00 -2.7001421455121D-03 -5.7159481792748D-01
167  1.6600000000000D+00  1.2009330695267D-02 -5.9300791273760D-01
168  1.6700000000000D+00  2.5623822819099D-02 -6.1093864274368D-01
169  1.6800000000000D+00  3.8109499474523D-02 -6.2536721377959D-01
170  1.6900000000000D+00  4.9440060494214D-02 -6.3629359980507D-01
171  1.7000000000000D+00  5.9596920410954D-02 -6.4373785689114D-01
172  1.7100000000000D+00  6.8569355667224D-02 -6.4774035220224D-01
173  1.7200000000000D+00  7.6354624704543D-02 -6.4836192246042D-01
174  1.7300000000000D+00  8.2958056731313D-02 -6.4568395169843D-01
175  1.7400000000000D+00  8.8393115983492D-02 -6.3980838529094D-01
176  1.7500000000000D+00  9.2681447830038D-02 -6.3085769931730D-01
177  1.7600000000000D+00  9.5852845295310D-02 -6.1897465259505D-01
178  1.7700000000000D+00  9.7945394693320D-02 -6.0432253657120D-01
179  1.7800000000000D+00  9.9005070665449D-02 -5.8708392190613D-01
180  1.7900000000000D+00  9.9085974254159D-02 -5.6746114281225D-01
181  1.8000000000000D+00  9.8251011505805D-02 -5.4567806729545D-01
182  1.8100000000000D+00  9.6570466311797D-02 -5.2197598747628D-01
183  1.8200000000000D+00  9.4120342763675D-02 -4.9660883060194D-01
184  1.8300000000000D+00  9.0980788927410D-02 -4.6983879811971D-01
185  1.8400000000000D+00  8.7233891403018D-02 -4.4193037732107D-01
186  1.8500000000000D+00  8.2962170665422D-02 -4.1314629900170D-01
187  1.8600000000000D+00  7.8248654137402D-02 -3.8374794068047D-01
188  1.8700000000000D+00  7.3176497474933D-02 -3.5399450932845D-01
189  1.8800000000000D+00  6.7828047452611D-02 -3.2414059484755D-01
190  1.8900000000000D+00  6.2284420948697D-02 -2.9443520770990D-01
191  1.9000000000000D+00  5.6624877079714D-02 -2.6512022452807D-01
192  1.9100000000000D+00  5.0926270045916D-02 -2.3642905922839D-01
193  1.9200000000000D+00  4.5262509828093D-02 -2.0858535053263D-01
194  1.9300000000000D+00  3.9704043856660D-02 -1.8180170256083D-01
195  1.9400000000000D+00  3.4317362112246D-02 -1.5627848373613D-01
196  1.9500000000000D+00  2.9164528200945D-02 -1.3220268990840D-01
197  1.9600000000000D+00  2.4302738462522D-02 -1.0974687706162D-01
198  1.9700000000000D+00  1.9783925568076D-02 -8.9068204982713D-02
199  1.9800000000000D+00  1.5654395054946D-02 -7.0307562793321D-02
200  1.9900000000000D+00  1.1956503964947D-02 -5.3597838178813D-02
201  2.0000000000000D+00  8.7215710484870D-03 -3.9032548802467D-02
202  2.0100000000000D+00  5.9701435323246D-03 -2.6667995843700D-02
203  2.0200000000000D+00  3.7190741835783D-03 -1.6556098141644D-02
204  2.0300000000000D+00  2.0246213920723D-03 -8.9314500507518D-03
205  2.0400000000000D+00  9.1482849851204D-04 -3.9104563562045D-03
206  2.0500000000000D+00  3.0185018580842D-04 -1.1300311167793D-03
207  2.0600000000000D+00  3.7565779317547D-05  3.1942789863093D-05
208  2.0700000000000D+00 -2.8869681964045D-05  2.3999508588613D-04
209  2.0800000000000D+00 -6.5565957377111D-06  4.3783051766626D-05
210  2.0900000000000D+00  1.3553101928306D-05 -8.4125366709631D-05
211  2.1000000000000D+00  1.0647744361118D-05 -6.3594597975920D-05
212  2.1100000000000D+00 -9.7946930065712D-07  6.8870250872808D-06
213  2.1200000000000D+00 -2.3196143246886D-06  1.5693647949803D-05
214  2.1300000000000D+00 -5.9035598526716D-07  3.8903365142398D-06
215  2.1400000000000D+00 -2.1894925851428D-07  4.4221209573388D-07
216  2.1500000000000D+00 -1.9433650153290D-07  3.9250167917262D-07
217  2.1600000000000D+00  0.0000000000000D+00  0.0000000000000D+00
218  2.1700000000000D+00  0.0000000000000D+00  0.0000000000000D+00
219  2.1800000000000D+00  0.0000000000000D+00  0.0000000000000D+00
220  2.1900000000000D+00  0.0000000000000D+00  0.0000000000000D+00
221  2.2000000000000D+00  0.0000000000000D+00  0.0000000000000D+00
222  2.2100000000000D+00  0.0000000000000D+00  0.0000000000000D+00
223  2.2200000000000D+00  0.0000000000000D+00  0.0000000000000D+00
224  2.2300000000000D+00  0.0000000000000D+00  0.0000000000000D+00
225  2.2400000000000D+00  0.0000000000000D+00  0.0000000000000D+00
226  2.2500000000000D+00  0.0000000000000D+00  0.0000000000000D+00
227  2.2600000000000D+00  0.0000000000000D+00  0.0000000000000D+00
228  2.2700000000000D+00  0.0000000000000D+00  0.0000000000000D+00
229  2.2800000000000D+00  0.0000000000000D+00  0.0000000000000D+00
230  2.2900000000000D+00  0.0000000000000D+00  0.0000000000000D+00
231  2.3000000000000D+00  0.0000000000000D+00  0.0000000000000D+00
232  2.3100000000000D+00  0.0000000000000D+00  0.0000000000000D+00
233  2.3200000000000D+00  0.0000000000000D+00  0.0000000000000D+00
234  2.3300000000000D+00  0.0000000000000D+00  0.0000000000000D+00
235  2.3400000000000D+00  0.0000000000000D+00  0.0000000000000D+00
236  2.3500000000000D+00  0.0000000000000D+00  0.0000000000000D+00
237  2.3600000000000D+00  0.0000000000000D+00  0.0000000000000D+00
238  2.3700000000000D+00  0.0000000000000D+00  0.0000000000000D+00
239  2.3800000000000D+00  0.0000000000000D+00  0.0000000000000D+00
240  2.3900000000000D+00  0.0000000000000D+00  0.0000000000000D+00
241  2.4000000000000D+00  0.0000000000000D+00  0.0000000000000D+00
242  2.4100000000000D+00  0.0000000000000D+00  0.0000000000000D+00
243  2.4200000000000D+00  0.0000000000000D+00  0.0000000000000D+00
244  2.4300000000000D+00  0.0000000000000D+00  0.0000000000000D+00
245  2.4400000000000D+00  0.0000000000000D+00  0.0000000000000D+00
246  2.4500000000000D+00  0.0000000000000D+00  0.0000000000000D+00
247  2.4600000000000D+00  0.0000000000000D+00  0.0000000000000D+00
248  2.4700000000000D+00  0.0000000000000D+00  0.0000000000000D+00
249  2.4800000000000D+00  0.0000000000000D+00  0.0000000000000D+00
250  2.4900000000000D+00  0.0000000000000D+00  0.0000000000000D+00
251  2.5000000000000D+00  0.0000000000000D+00  0.0000000000000D+00
252  2.5100000000000D+00  0.0000000000000D+00  0.0000000000000D+00
253  2.5200000000000D+00  0.0000000000000D+00  0.0000000000000D+00
254  2.5300000000000D+00  0.0000000000000D+00  0.0000000000000D+00
255  2.5400000000000D+00  0.0000000000000D+00  0.0000000000000D+00
256  2.5500000000000D+00  0.0000000000000D+00  0.0000000000000D+00
257  2.5600000000000D+00  0.0000000000000D+00  0.0000000000000D+00
258  2.5700000000000D+00  0.0000000000000D+00  0.0000000000000D+00
259  2.5800000000000D+00  0.0000000000000D+00  0.0000000000000D+00
260  2.5900000000000D+00  0.0000000000000D+00  0.0000000000000D+00
261  2.6000000000000D+00  0.0000000000000D+00  0.0000000000000D+00
262  2.6100000000000D+00  0.0000000000000D+00  0.0000000000000D+00
263  2.6200000000000D+00  0.0000000000000D+00  0.0000000000000D+00
264  2.6300000000000D+00  0.0000000000000D+00  0.0000000000000D+00
265  2.6400000000000D+00  0.0000000000000D+00  0.0000000000000D+00
266  2.6500000000000D+00  0.0000000000000D+00  0.0000000000000D+00
267  2.6600000000000D+00  0.0000000000000D+00  0.0000000000000D+00
268  2.6700000000000D+00  0.0000000000000D+00  0.0000000000000D+00
269  2.6800000000000D+00  0.0000000000000D+00  0.0000000000000D+00
270  2.6900000000000D+00  0.0000000000000D+00  0.0000000000000D+00
271  2.7000000000000D+00  0.0000000000000D+00  0.0000000000000D+00
272  2.7100000000000D+00  0.0000000000000D+00  0.0000000000000D+00
273  2.7200000000000D+00  0.0000000000000D+00  0.0000000000000D+00
274  2.7300000000000D+00  0.0000000000000D+00  0.0000000000000D+00
275  2.7400000000000D+00  0.0000000000000D+00  0.0000000000000D+00
276  2.7500000000000D+00  0.0000000000000D+00  0.0000000000000D+00
277  2.7600000000000D+00  0.0000000000000D+00  0.0000000000000D+00
278  2.7700000000000D+00  0.0000000000000D+00  0.0000000000000D+00
279  2.7800000000000D+00  0.0000000000000D+00  0.0000000000000D+00
280  2.7900000000000D+00  0.0000000000000D+00  0.0000000000000D+00
281  2.8000000000000D+00  0.0000000000000D+00  0.0000000000000D+00
282  2.8100000000000D+00  0.0000000000000D+00  0.0000000000000D+00
283  2.8200000000000D+00  0.0000000000000D+00  0.0000000000000D+00
284  2.8300000000000D+00  0.0000000000000D+00  0.0000000000000D+00
285  2.8400000000000D+00  0.0000000000000D+00  0.0000000000000D+00
286  2.8500000000000D+00  0.0000000000000D+00  0.0000000000000D+00
287  2.8600000000000D+00  0.0000000000000D+00  0.0000000000000D+00
288  2.8700000000000D+00  0.0000000000000D+00  0.0000000000000D+00
289  2.8800000000000D+00  0.0000000000000D+00  0.0000000000000D+00
290  2.8900000000000D+00  0.0000000000000D+00  0.0000000000000D+00
291  2.9000000000000D+00  0.0000000000000D+00  0.0000000000000D+00
292  2.9100000000000D+00  0.0000000000000D+00  0.0000000000000D+00
293  2.9200000000000D+00  0.0000000000000D+00  0.0000000000000D+00
294  2.9300000000000D+00  0.0000000000000D+00  0.0000000000000D+00
295  2.9400000000000D+00  0.0000000000000D+00  0.0000000000000D+00
296  2.9500000000000D+00  0.0000000000000D+00  0.0000000000000D+00
297  2.9600000000000D+00  0.0000000000000D+00  0.0000000000000D+00
298  2.9700000000000D+00  0.0000000000000D+00  0.0000000000000D+00
299  2.9800000000000D+00  0.0000000000000D+00  0.0000000000000D+00
300  2.9900000000000D+00  0.0000000000000D+00  0.0000000000000D+00
301  3.0000000000000D+00  0.0000000000000D+00  0.0000000000000D+00
302  3.0100000000000D+00  0.0000000000000D+00  0.0000000000000D+00
303  3.0200000000000D+00  0.0000000000000D+00  0.0000000000000D+00
304  3.0300000000000D+00  0.0000000000000D+00  0.0000000000000D+00
305  3.0400000000000D+00  0.0000000000000D+00  0.0000000000000D+00
306  3.0500000000000D+00  0.0000000000000D+00  0.0000000000000D+00
307  3.0600000000000D+00  0.0000000000000D+00  0.0000000000000D+00
308  3.0700000000000D+00  0.0000000000000D+00  0.0000000000000D+00
309  3.0800000000000D+00  0.0000000000000D+00  0.0000000000000D+00
310  3.0900000000000D+00  0.0000000000000D+00  0.0000000000000D+00
311  3.1000000000000D+00  0.0000000000000D+00  0.0000000000000D+00
312  3.1100000000000D+00  0.0000000000000D+00  0.0000000000000D+00
313  3.1200000000000D+00  0.0000000000000D+00  0.0000000000000D+00
314  3.1300000000000D+00  0.0000000000000D+00  0.0000000000000D+00
315  3.1400000000000D+00  0.0000000000000D+00  0.0000000000000D+00
316  3.1500000000000D+00  0.0000000000000D+00  0.0000000000000D+00
317  3.1600000000000D+00  0.0000000000000D+00  0.0000000000000D+00
318  3.1700000000000D+00  0.0000000000000D+00  0.0000000000000D+00
319  3.1800000000000D+00  0.0000000000000D+00  0.0000000000000D+00
320  3.1900000000000D+00  0.0000000000000D+00  0.0000000000000D+00
321  3.2000000000000D+00  0.0000000000000D+00  0.0000000000000D+00
322  3.2100000000000D+00  0.0000000000000D+00  0.0000000000000D+00
323  3.2200000000000D+00  0.0000000000000D+00  0.0000000000000D+00
324  3.2300000000000D+00  0.0000000000000D+00  0.0000000000000D+00
325  3.2400000000000D+00  0.0000000000000D+00  0.0000000000000D+00
326  3.2500000000000D+00  0.0000000000000D+00  0.0000000000000D+00
327  3.2600000000000D+00  0.0000000000000D+00  0.0000000000000D+00
328  3.2700000000000D+00  0.0000000000000D+00  0.0000000000000D+00
329  3.2800000000000D+00  0.0000000000000D+00  0.0000000000000D+00
330  3.2900000000000D+00  0.0000000000000D+00  0.0000000000000D+00
331  3.3000000000000D+00  0.0000000000000D+00  0.0000000000000D+00
332  3.3100000000000D+00  0.0000000000000D+00  0.0000000000000D+00
333  3.3200000000000D+00  0.0000000000000D+00  0.0000000000000D+00
334  3.3300000000000D+00  0.0000000000000D+00  0.0000000000000D+00
335  3.3400000000000D+00  0.0000000000000D+00  0.0000000000000D+00
336  3.3500000000000D+00  0.0000000000000D+00  0.0000000000000D+00
337  3.3600000000000D+00  0.0000000000000D+00  0.0000000000000D+00
338  3.3700000000000D+00  0.0000000000000D+00  0.0000000000000D+00
339  3.3800000000000D+00  0.0000000000000D+00  0.0000000000000D+00
340  3.3900000000000D+00  0.0000000000000D+00  0.0000000000000D+00
341  3.4000000000000D+00  0.0000000000000D+00  0.0000000000000D+00
342  3.4100000000000D+00  0.0000000000000D+00  0.0000000000000D+00
343  3.4200000000000D+00  0.0000000000000D+00  0.0000000000000D+00
344  3.4300000000000D+00  0.0000000000000D+00  0.0000000000000D+00
345  3.4400000000000D+00  0.0000000000000D+00  0.0000000000000D+00
346  3.4500000000000D+00  0.0000000000000D+00  0.0000000000000D+00
347  3.4600000000000D+00  0.0000000000000D+00  0.0000000000000D+00
348  3.4700000000000D+00  0.0000000000000D+00  0.0000000000000D+00
349  3.4800000000000D+00  0.0000000000000D+00  0.0000000000000D+00
350  3.4900000000000D+00  0.0000000000000D+00  0.0000000000000D+00
351  3.5000000000000D+00  0.0000000000000D+00  0.0000000000000D+00
352  3.5100000000000D+00  0.0000000000000D+00  0.0000000000000D+00
353  3.5200000000000D+00  0.0000000000000D+00  0.0000000000000D+00
354  3.5300000000000D+00  0.0000000000000D+00  0.0000000000000D+00
355  3.5400000000000D+00  0.0000000000000D+00  0.0000000000000D+00
356  3.5500000000000D+00  0.0000000000000D+00  0.0000000000000D+00
357  3.5600000000000D+00  0.0000000000000D+00  0.0000000000000D+00
358  3.5700000000000D+00  0.0000000000000D+00  0.0000000000000D+00
359  3.5800000000000D+00  0.0000000000000D+00  0.0000000000000D+00
360  3.5900000000000D+00  0.0000000000000D+00  0.0000000000000D+00
361  3.6000000000000D+00  0.0000000000000D+00  0.0000000000000D+00
362  3.6100000000000D+00  0.0000000000000D+00  0.0000000000000D+00
363  3.6200000000000D+00  0.0000000000000D+00  0.0000000000000D+00
364  3.6300000000000D+00  0.0000000000000D+00  0.0000000000000D+00
365  3.6400000000000D+00  0.0000000000000D+00  0.0000000000000D+00
366  3.6500000000000D+00  0.0000000000000D+00  0.0000000000000D+00
367  3.6600000000000D+00  0.0000000000000D+00  0.0000000000000D+00
368  3.6700000000000D+00  0.0000000000000D+00  0.0000000000000D+00
369  3.6800000000000D+00  0.0000000000000D+00  0.0000000000000D+00
370  3.6900000000000D+00  0.0000000000000D+00  0.0000000000000D+00
371  3.7000000000000D+00  0.0000000000000D+00  0.0000000000000D+00
372  3.7100000000000D+00  0.0000000000000D+00  0.0000000000000D+00
373  3.7200000000000D+00  0.0000000000000D+00  0.0000000000000D+00
374  3.7300000000000D+00  0.0000000000000D+00  0.0000000000000D+00
375  3.7400000000000D+00  0.0000000000000D+00  0.0000000000000D+00
376  3.7500000000000D+00  0.0000000000000D+00  0.0000000000000D+00
377  3.7600000000000D+00  0.0000000000000D+00  0.0000000000000D+00
378  3.7700000000000D+00  0.0000000000000D+00  0.0000000000000D+00
379  3.7800000000000D+00  0.0000000000000D+00  0.0000000000000D+00
380  3.7900000000000D+00  0.0000000000000D+00  0.0000000000000D+00
381  3.8000000000000D+00  0.0000000000000D+00  0.0000000000000D+00
382  3.8100000000000D+00  0.0000000000000D+00  0.0000000000000D+00
383  3.8200000000000D+00  0.0000000000000D+00  0.0000000000000D+00
384  3.8300000000000D+00  0.0000000000000D+00  0.0000000000000D+00
385  3.8400000000000D+00  0.0000000000000D+00  0.0000000000000D+00
386  3.8500000000000D+00  0.0000000000000D+00  0.0000000000000D+00
387  3.8600000000000D+00  0.0000000000000D+00  0.0000000000000D+00
388  3.8700000000000D+00  0.0000000000000D+00  0.0000000000000D+00
389  3.8800000000000D+00  0.0000000000000D+00  0.0000000000000D+00
390  3.8900000000000D+00  0.0000000000000D+00  0.0000000000000D+00
391  3.9000000000000D+00  0.0000000000000D+00  0.0000000000000D+00
392  3.9100000000000D+00  0.0000000000000D+00  0.0000000000000D+00
393  3.9200000000000D+00  0.0000000000000D+00  0.0000000000000D+00
394  3.9300000000000D+00  0.0000000000000D+00  0.0000000000000D+00
395  3.9400000000000D+00  0.0000000000000D+00  0.0000000000000D+00
396  3.9500000000000D+00  0.0000000000000D+00  0.0000000000000D+00
397  3.9600000000000D+00  0.0000000000000D+00  0.0000000000000D+00
398  3.9700000000000D+00  0.0000000000000D+00  0.0000000000000D+00
399  3.9800000000000D+00  0.0000000000000D+00  0.0000000000000D+00
400  3.9900000000000D+00  0.0000000000000D+00  0.0000000000000D+00
401  4.0000000000000D+00  0.0000000000000D+00  0.0000000000000D+00
402  4.0100000000000D+00  0.0000000000000D+00  0.0000000000000D+00
403  4.0200000000000D+00  0.0000000000000D+00  0.0000000000000D+00
404  4.0300000000000D+00  0.0000000000000D+00  0.0000000000000D+00
405  4.0400000000000D+00  0.0000000000000D+00  0.0000000000000D+00
406  4.0500000000000D+00  0.0000000000000D+00  0.0000000000000D+00
407  4.0600000000000D+00  0.0000000000000D+00  0.0000000000000D+00
408  4.0700000000000D+00  0.0000000000000D+00  0.0000000000000D+00
409  4.0800000000000D+00  0.0000000000000D+00  0.0000000000000D+00
410  4.0900000000000D+00  0.0000000000000D+00  0.0000000000000D+00
411  4.1000000000000D+00  0.0000000000000D+00  0.0000000000000D+00
412  4.1100000000000D+00  0.0000000000000D+00  0.0000000000000D+00
413  4.1200000000000D+00  0.0000000000000D+00  0.0000000000000D+00
414  4.1300000000000D+00  0.0000000000000D+00  0.0000000000000D+00
415  4.1400000000000D+00  0.0000000000000D+00  0.0000000000000D+00
416  4.1500000000000D+00  0.0000000000000D+00  0.0000000000000D+00
417  4.1600000000000D+00  0.0000000000000D+00  0.0000000000000D+00
418  4.1700000000000D+00  0.0000000000000D+00  0.0000000000000D+00
419  4.1800000000000D+00  0.0000000000000D+00  0.0000000000000D+00
420  4.1900000000000D+00  0.0000000000000D+00  0.0000000000000D+00
421  4.2000000000000D+00  0.0000000000000D+00  0.0000000000000D+00
422  4.2100000000000D+00  0.0000000000000D+00  0.0000000000000D+00
423  4.2200000000000D+00  0.0000000000000D+00  0.0000000000000D+00
424  4.2300000000000D+00  0.0000000000000D+00  0.0000000000000D+00
425  4.2400000000000D+00  0.0000000000000D+00  0.0000000000000D+00
426  4.2500000000000D+00  0.0000000000000D+00  0.0000000000000D+00
427  4.2600000000000D+00  0.0000000000000D+00  0.0000000000000D+00
428  4.2700000000000D+00  0.0000000000000D+00  0.0000000000000D+00
429  4.2800000000000D+00  0.0000000000000D+00  0.0000000000000D+00
430  4.2900000000000D+00  0.0000000000000D+00  0.0000000000000D+00
431  4.3000000000000D+00  0.0000000000000D+00  0.0000000000000D+00
432  4.3100000000000D+00  0.0000000000000D+00  0.0000000000000D+00
433  4.3200000000000D+00  0.0000000000000D+00  0.0000000000000D+00
434  4.3300000000000D+00  0.0000000000000D+00  0.0000000000000D+00
435  4.3400000000000D+00  0.0000000000000D+00  0.0000000000000D+00
436  4.3500000000000D+00  0.0000000000000D+00  0.0000000000000D+00
437  4.3600000000000D+00  0.0000000000000D+00  0.0000000000000D+00
438  4.3700000000000D+00  0.0000000000000D+00  0.0000000000000D+00
439  4.3800000000000D+00  0.0000000000000D+00  0.0000000000000D+00
440  4.3900000000000D+00  0.0000000000000D+00  0.0000000000000D+00
441  4.4000000000000D+00  0.0000000000000D+00  0.0000000000000D+00
442  4.4100000000000D+00  0.0000000000000D+00  0.0000000000000D+00
443  4.4200000000000D+00  0.0000000000000D+00  0.0000000000000D+00