Ca    ONCVPSP-3.3.0  r_core=   1.45885   1.45885   1.85192
20.0000     10.0000      171102    zatom,zion,pspd
8   -1012   2     4   400     0    pspcod,pspxc,lmax,lloc,mmax,r2well
3.99000000  6.00000000  0.00000000    rchrg fchrg qchrg
2     2     2     0     0    nproj
1     1           extension_switch
0                         1.0026170250629D+01  9.7545769022625D-01
1  0.0000000000000D+00 -3.3176927871637D-10  1.3681888400008D-09
2  1.0000000000000D-02  7.1362363955371D-02 -3.9738928383312D-02
3  2.0000000000000D-02  1.4256454994704D-01 -7.9225721681576D-02
4  3.0000000000000D-02  2.1344706041482D-01 -1.1821029759999D-01
5  4.0000000000000D-02  2.8385175227122D-01 -1.5644665422620D-01
6  5.0000000000000D-02  3.5362249838801D-01 -1.9369484758110D-01
7  6.0000000000000D-02  4.2260583042257D-01 -2.2972289498855D-01
8  7.0000000000000D-02  4.9065155715975D-01 -2.6430858116844D-01
9  8.0000000000000D-02  5.5761335287649D-01 -2.9724114532546D-01
10  9.0000000000000D-02  6.2334931064266D-01 -3.2832282918023D-01
11  1.0000000000000D-01  6.8772245594515D-01 -3.5737026784504D-01
12  1.1000000000000D-01  7.5060121655774D-01 -3.8421570765619D-01
13  1.2000000000000D-01  8.1185984516827D-01 -4.0870803750791D-01
14  1.3000000000000D-01  8.7137879190865D-01 -4.3071362285333D-01
15  1.4000000000000D-01  9.2904502460356D-01 -4.5011693431020D-01
16  1.5000000000000D-01  9.8475229525043D-01 -4.6682096569259D-01
17  1.6000000000000D-01  1.0384013519560D+00 -4.8074743924336D-01
18  1.7000000000000D-01  1.0899000962742D+00 -4.9183679882473D-01
19  1.8000000000000D-01  1.1391636866037D+00 -5.0004799479133D-01
20  1.9000000000000D-01  1.1861145890051D+00 -5.0535806718070D-01
21  2.0000000000000D-01  1.2306825774697D+00 -5.0776153666688D-01
22  2.1000000000000D-01  1.2728046863147D+00 -5.0726961539416D-01
23  2.2000000000000D-01  1.3124251179727D+00 -5.0390925230002D-01
24  2.3000000000000D-01  1.3494951099862D+00 -4.9772202981318D-01
25  2.4000000000000D-01  1.3839727655008D+00 -4.8876293084113D-01
26  2.5000000000000D-01  1.4158228519606D+00 -4.7709899671058D-01
27  2.6000000000000D-01  1.4450165730499D+00 -4.6280789816788D-01
28  2.7000000000000D-01  1.4715313191814D+00 -4.4597644266414D-01
29  2.8000000000000D-01  1.4953504020086D+00 -4.2669904192089D-01
30  2.9000000000000D-01  1.5164627785238D+00 -4.0507616418801D-01
31  3.0000000000000D-01  1.5348627703061D+00 -3.8121279565533D-01
32  3.1000000000000D-01  1.5505497833935D+00 -3.5521693516272D-01
33  3.2000000000000D-01  1.5635280340763D+00 -3.2719814567303D-01
34  3.3000000000000D-01  1.5738062856486D+00 -2.9726618493531D-01
35  3.4000000000000D-01  1.5813976008105D+00 -2.6552973638754D-01
36  3.5000000000000D-01  1.5863191139946D+00 -2.3209525964525D-01
37  3.6000000000000D-01  1.5885918274007D+00 -1.9706597791986D-01
38  3.7000000000000D-01  1.5882404339669D+00 -1.6054101743467D-01
39  3.8000000000000D-01  1.5852931698980D+00 -1.2261471139103D-01
40  3.9000000000000D-01  1.5797816987164D+00 -8.3376078316247D-02
41  4.0000000000000D-01  1.5717410281080D+00 -4.2908481738397D-02
42  4.1000000000000D-01  1.5612094601191D+00 -1.2894751231431D-03
43  4.2000000000000D-01  1.5482285745261D+00  4.1409167082411D-02
44  4.3000000000000D-01  1.5328432444654D+00  8.5121234578120D-02
45  4.4000000000000D-01  1.5151016826798D+00  1.2978568790328D-01
46  4.5000000000000D-01  1.4950555160317D+00  1.7534609513772D-01
47  4.6000000000000D-01  1.4727598852516D+00  2.2174991000477D-01
48  4.7000000000000D-01  1.4482735662571D+00  2.6894760556663D-01
49  4.8000000000000D-01  1.4216591087918D+00  3.1689168030556D-01
50  4.9000000000000D-01  1.3929829876118D+00  3.6553555575402D-01
51  5.0000000000000D-01  1.3623157609981D+00  4.1483238692968D-01
52  5.1000000000000D-01  1.3297322310028D+00  4.6473380861988D-01
53  5.2000000000000D-01  1.2953115995533D+00  5.1518864200721D-01
54  5.3000000000000D-01  1.2591376143466D+00  5.6614158721228D-01
55  5.4000000000000D-01  1.2212986983766D+00  6.1753192802894D-01
56  5.5000000000000D-01  1.1818880569390D+00  6.6929227542448D-01
57  5.6000000000000D-01  1.1410037560747D+00  7.2134737626650D-01
58  5.7000000000000D-01  1.0987487666200D+00  7.7361301321068D-01
59  5.8000000000000D-01  1.0552309683498D+00  8.2599502074629D-01
60  5.9000000000000D-01  1.0105631091126D+00  8.7838844105380D-01
61  6.0000000000000D-01  9.6486271436394D-01  9.3067684159835D-01
62  6.1000000000000D-01  9.1825194310102D-01  9.8273181427918D-01
63  6.2000000000000D-01  8.7085738688144D-01  1.0344126735179D+00
64  6.3000000000000D-01  8.2280980936074D-01  1.0855663679001D+00
65  6.4000000000000D-01  7.7424382459697D-01  1.1360276169675D+00
66  6.5000000000000D-01  7.2529751324080D-01  1.1856192814778D+00
67  6.6000000000000D-01  6.7611197663937D-01  1.2341529719942D+00
68  6.7000000000000D-01  6.2683082981590D-01  1.2814298970732D+00
69  6.8000000000000D-01  5.7759963524400D-01  1.3272419486188D+00
70  6.9000000000000D-01  5.2856528028711D-01  1.3713730182448D+00
71  7.0000000000000D-01  4.7987530211680D-01  1.4136005347675D+00
72  7.1000000000000D-01  4.3167716483488D-01  1.4536972093237D+00
73  7.2000000000000D-01  3.8411749440378D-01  1.4914329710672D+00
74  7.3000000000000D-01  3.3734127780640D-01  1.5265770730740D+00
75  7.4000000000000D-01  2.9149103361117D-01  1.5589003449730D+00
76  7.5000000000000D-01  2.4670596179227D-01  1.5881775659847D+00
77  7.6000000000000D-01  2.0312108123719D-01  1.6141899295574D+00
78  7.7000000000000D-01  1.6086636385738D-01  1.6367275686405D+00
79  7.8000000000000D-01  1.2006587458975D-01  1.6555921089076D+00
80  7.9000000000000D-01  8.0836926831039D-02  1.6705992159455D+00
81  8.0000000000000D-01  4.3289262979250D-02  1.6815811015847D+00
82  8.1000000000000D-01  7.5242697592593D-03  1.6883889541940D+00
83  8.2000000000000D-01 -2.6365762116910D-02  1.6908952578987D+00
84  8.3000000000000D-01 -5.8298324662967D-02  1.6889959663165D+00
85  8.4000000000000D-01 -8.8201316800733D-02  1.6826124975451D+00
86  8.5000000000000D-01 -1.1601359762375D-01  1.6716935187545D+00
87  8.6000000000000D-01 -1.4168546099213D-01  1.6562164908382D+00
88  8.7000000000000D-01 -1.6517902446243D-01  1.6361889461275D+00
89  8.8000000000000D-01 -1.8646852641778D-01  1.6116494751397D+00
90  8.9000000000000D-01 -2.0554052622246D-01  1.5826684016940D+00
91  9.0000000000000D-01 -2.2239400326982D-01  1.5493481294230D+00
92  9.1000000000000D-01 -2.3704035191041D-01  1.5118231467071D+00
93  9.2000000000000D-01 -2.4950327042405D-01  1.4702596812990D+00
94  9.3000000000000D-01 -2.5981854341991D-01  1.4248550003306D+00
95  9.4000000000000D-01 -2.6803371829711D-01  1.3758363559528D+00
96  9.5000000000000D-01 -2.7420767765734D-01  1.3234595814728D+00
97  9.6000000000000D-01 -2.7841011081292D-01  1.2680073474711D+00
98  9.7000000000000D-01 -2.8072088877345D-01  1.2097870919685D+00
99  9.8000000000000D-01 -2.8122934826316D-01  1.1491286430621D+00
100  9.9000000000000D-01 -2.8003349147461D-01  1.0863815567550D+00
101  1.0000000000000D+00 -2.7723910931783D-01  1.0219121966582D+00
102  1.0100000000000D+00 -2.7295883689139D-01  9.5610058588998D-01
103  1.0200000000000D+00 -2.6731115077372D-01  8.8933706480065D-01
104  1.0300000000000D+00 -2.6041931848423D-01  8.2201879101675D-01
105  1.0400000000000D+00 -2.5241031109652D-01  7.5454612073685D-01
106  1.0500000000000D+00 -2.4341369044596D-01  6.8731891199835D-01
107  1.0600000000000D+00 -2.3356048276075D-01  6.2073279217704D-01
108  1.0700000000000D+00 -2.2298205069804D-01  5.5517543263423D-01
109  1.0800000000000D+00 -2.1180897582296D-01  4.9102287373130D-01
110  1.0900000000000D+00 -2.0016996340247D-01  4.2863594291344D-01
111  1.1000000000000D+00 -1.8819078118522D-01  3.6835680789346D-01
112  1.1100000000000D+00 -1.7599324331726D-01  3.1050570513385D-01
113  1.1200000000000D+00 -1.6369425000997D-01  2.5537788190772D-01
114  1.1300000000000D+00 -1.5140489276104D-01  2.0324078727008D-01
115  1.1400000000000D+00 -1.3922963419282D-01  1.5433154459030D-01
116  1.1500000000000D+00 -1.2726557048691D-01  1.0885473432930D-01
117  1.1600000000000D+00 -1.1560178329039D-01  6.6980511690015D-02
118  1.1700000000000D+00 -1.0431878665074D-01  2.8843078911388D-02
119  1.1800000000000D+00 -9.3488073617476D-02 -5.4604714109593D-03
120  1.1900000000000D+00 -8.3171765373836D-02 -3.5870932155530D-02
121  1.2000000000000D+00 -7.3422364509644D-02 -6.2367371478395D-02
122  1.2100000000000D+00 -6.4282612582359D-02 -8.4967136839815D-02
123  1.2200000000000D+00 -5.5785451006737D-02 -1.0372547760941D-01
124  1.2300000000000D+00 -4.7954082260100D-02 -1.1873479823739D-01
125  1.2400000000000D+00 -4.0802127184787D-02 -1.3012355846532D-01
126  1.2500000000000D+00 -3.4333873530627D-02 -1.3805483942236D-01
127  1.2600000000000D+00 -2.8544608397669D-02 -1.4272460369446D-01
128  1.2700000000000D+00 -2.3421025104389D-02 -1.4435968724833D-01
129  1.2800000000000D+00 -1.8941705333842D-02 -1.4321550919310D-01
130  1.2900000000000D+00 -1.5077632730800D-02 -1.3957370316140D-01
131  1.3000000000000D+00 -1.1792865181446D-02 -1.3373903789354D-01
132  1.3100000000000D+00 -9.0448519246959D-03 -1.2603812326135D-01
133  1.3200000000000D+00 -6.7856217834254D-03 -1.1681388094991D-01
134  1.3300000000000D+00 -4.9636700535616D-03 -1.0641659825354D-01
135  1.3400000000000D+00 -3.5260550146490D-03 -9.5194450348913D-02
136  1.3500000000000D+00 -2.4200867199896D-03 -8.3486149857215D-02
137  1.3600000000000D+00 -1.5940806179045D-03 -7.1618345373793D-02
138  1.3700000000000D+00 -9.9841526235914D-04 -5.9901437767509D-02
139  1.3800000000000D+00 -5.8647217671096D-04 -4.8625943669448D-02
140  1.3900000000000D+00 -3.1552668009761D-04 -3.8059044952221D-02
141  1.4000000000000D+00 -1.4755846852656D-04 -2.8441462835112D-02
142  1.4100000000000D+00 -4.9953487994230D-05 -1.9987012840900D-02
143  1.4200000000000D+00  3.7717419846804D-06 -1.2873026624560D-02
144  1.4300000000000D+00  3.2571820439028D-05 -7.2085346240472D-03
145  1.4400000000000D+00  5.1656855001594D-05 -3.1914104991167D-03
146  1.4500000000000D+00  7.0786365217528D-05 -9.7608440172454D-04
147  1.4600000000000D+00  6.7068411646099D-05 -1.2294105095096D-04
148  1.4700000000000D+00  2.5655866180963D-05  3.4603903881805D-05
149  1.4800000000000D+00 -5.8277688906283D-06 -1.3959096438487D-05
150  1.4900000000000D+00 -4.2983098862288D-06 -1.3394859894893D-05
151  1.5000000000000D+00  1.5895415148656D-06  2.6686293942871D-06
152  1.5100000000000D+00  5.3383016093743D-07  1.0459608160362D-06
153  1.5200000000000D+00 -1.9829273991210D-07  4.9514867911479D-07
154  1.5300000000000D+00 -4.8228865668754D-09  1.2043032509246D-08
155  1.5400000000000D+00  0.0000000000000D+00  0.0000000000000D+00
156  1.5500000000000D+00  0.0000000000000D+00  0.0000000000000D+00
157  1.5600000000000D+00  0.0000000000000D+00  0.0000000000000D+00
158  1.5700000000000D+00  0.0000000000000D+00  0.0000000000000D+00
159  1.5800000000000D+00  0.0000000000000D+00  0.0000000000000D+00
160  1.5900000000000D+00  0.0000000000000D+00  0.0000000000000D+00
161  1.6000000000000D+00  0.0000000000000D+00  0.0000000000000D+00
162  1.6100000000000D+00  0.0000000000000D+00  0.0000000000000D+00
163  1.6200000000000D+00  0.0000000000000D+00  0.0000000000000D+00
164  1.6300000000000D+00  0.0000000000000D+00  0.0000000000000D+00
165  1.6400000000000D+00  0.0000000000000D+00  0.0000000000000D+00
166  1.6500000000000D+00  0.0000000000000D+00  0.0000000000000D+00
167  1.6600000000000D+00  0.0000000000000D+00  0.0000000000000D+00
168  1.6700000000000D+00  0.0000000000000D+00  0.0000000000000D+00
169  1.6800000000000D+00  0.0000000000000D+00  0.0000000000000D+00
170  1.6900000000000D+00  0.0000000000000D+00  0.0000000000000D+00
171  1.7000000000000D+00  0.0000000000000D+00  0.0000000000000D+00
172  1.7100000000000D+00  0.0000000000000D+00  0.0000000000000D+00
173  1.7200000000000D+00  0.0000000000000D+00  0.0000000000000D+00
174  1.7300000000000D+00  0.0000000000000D+00  0.0000000000000D+00
175  1.7400000000000D+00  0.0000000000000D+00  0.0000000000000D+00
176  1.7500000000000D+00  0.0000000000000D+00  0.0000000000000D+00
177  1.7600000000000D+00  0.0000000000000D+00  0.0000000000000D+00
178  1.7700000000000D+00  0.0000000000000D+00  0.0000000000000D+00
179  1.7800000000000D+00  0.0000000000000D+00  0.0000000000000D+00
180  1.7900000000000D+00  0.0000000000000D+00  0.0000000000000D+00
181  1.8000000000000D+00  0.0000000000000D+00  0.0000000000000D+00
182  1.8100000000000D+00  0.0000000000000D+00  0.0000000000000D+00
183  1.8200000000000D+00  0.0000000000000D+00  0.0000000000000D+00
184  1.8300000000000D+00  0.0000000000000D+00  0.0000000000000D+00
185  1.8400000000000D+00  0.0000000000000D+00  0.0000000000000D+00
186  1.8500000000000D+00  0.0000000000000D+00  0.0000000000000D+00
187  1.8600000000000D+00  0.0000000000000D+00  0.0000000000000D+00
188  1.8700000000000D+00  0.0000000000000D+00  0.0000000000000D+00
189  1.8800000000000D+00  0.0000000000000D+00  0.0000000000000D+00
190  1.8900000000000D+00  0.0000000000000D+00  0.0000000000000D+00
191  1.9000000000000D+00  0.0000000000000D+00  0.0000000000000D+00
192  1.9100000000000D+00  0.0000000000000D+00  0.0000000000000D+00
193  1.9200000000000D+00  0.0000000000000D+00  0.0000000000000D+00
194  1.9300000000000D+00  0.0000000000000D+00  0.0000000000000D+00
195  1.9400000000000D+00  0.0000000000000D+00  0.0000000000000D+00
196  1.9500000000000D+00  0.0000000000000D+00  0.0000000000000D+00
197  1.9600000000000D+00  0.0000000000000D+00  0.0000000000000D+00
198  1.9700000000000D+00  0.0000000000000D+00  0.0000000000000D+00
199  1.9800000000000D+00  0.0000000000000D+00  0.0000000000000D+00
200  1.9900000000000D+00  0.0000000000000D+00  0.0000000000000D+00
201  2.0000000000000D+00  0.0000000000000D+00  0.0000000000000D+00
202  2.0100000000000D+00  0.0000000000000D+00  0.0000000000000D+00
203  2.0200000000000D+00  0.0000000000000D+00  0.0000000000000D+00
204  2.0300000000000D+00  0.0000000000000D+00  0.0000000000000D+00
205  2.0400000000000D+00  0.0000000000000D+00  0.0000000000000D+00
206  2.0500000000000D+00  0.0000000000000D+00  0.0000000000000D+00
207  2.0600000000000D+00  0.0000000000000D+00  0.0000000000000D+00
208  2.0700000000000D+00  0.0000000000000D+00  0.0000000000000D+00
209  2.0800000000000D+00  0.0000000000000D+00  0.0000000000000D+00
210  2.0900000000000D+00  0.0000000000000D+00  0.0000000000000D+00
211  2.1000000000000D+00  0.0000000000000D+00  0.0000000000000D+00
212  2.1100000000000D+00  0.0000000000000D+00  0.0000000000000D+00
213  2.1200000000000D+00  0.0000000000000D+00  0.0000000000000D+00
214  2.1300000000000D+00  0.0000000000000D+00  0.0000000000000D+00
215  2.1400000000000D+00  0.0000000000000D+00  0.0000000000000D+00
216  2.1500000000000D+00  0.0000000000000D+00  0.0000000000000D+00
217  2.1600000000000D+00  0.0000000000000D+00  0.0000000000000D+00
218  2.1700000000000D+00  0.0000000000000D+00  0.0000000000000D+00
219  2.1800000000000D+00  0.0000000000000D+00  0.0000000000000D+00
220  2.1900000000000D+00  0.0000000000000D+00  0.0000000000000D+00
221  2.2000000000000D+00  0.0000000000000D+00  0.0000000000000D+00
222  2.2100000000000D+00  0.0000000000000D+00  0.0000000000000D+00
223  2.2200000000000D+00  0.0000000000000D+00  0.0000000000000D+00
224  2.2300000000000D+00  0.0000000000000D+00  0.0000000000000D+00
225  2.2400000000000D+00  0.0000000000000D+00  0.0000000000000D+00
226  2.2500000000000D+00  0.0000000000000D+00  0.0000000000000D+00
227  2.2600000000000D+00  0.0000000000000D+00  0.0000000000000D+00
228  2.2700000000000D+00  0.0000000000000D+00  0.0000000000000D+00
229  2.2800000000000D+00  0.0000000000000D+00  0.0000000000000D+00
230  2.2900000000000D+00  0.0000000000000D+00  0.0000000000000D+00
231  2.3000000000000D+00  0.0000000000000D+00  0.0000000000000D+00
232  2.3100000000000D+00  0.0000000000000D+00  0.0000000000000D+00
233  2.3200000000000D+00  0.0000000000000D+00  0.0000000000000D+00
234  2.3300000000000D+00  0.0000000000000D+00  0.0000000000000D+00
235  2.3400000000000D+00  0.0000000000000D+00  0.0000000000000D+00
236  2.3500000000000D+00  0.0000000000000D+00  0.0000000000000D+00
237  2.3600000000000D+00  0.0000000000000D+00  0.0000000000000D+00
238  2.3700000000000D+00  0.0000000000000D+00  0.0000000000000D+00
239  2.3800000000000D+00  0.0000000000000D+00  0.0000000000000D+00
240  2.3900000000000D+00  0.0000000000000D+00  0.0000000000000D+00
241  2.4000000000000D+00  0.0000000000000D+00  0.0000000000000D+00
242  2.4100000000000D+00  0.0000000000000D+00  0.0000000000000D+00
243  2.4200000000000D+00  0.0000000000000D+00  0.0000000000000D+00
244  2.4300000000000D+00  0.0000000000000D+00  0.0000000000000D+00
245  2.4400000000000D+00  0.0000000000000D+00  0.0000000000000D+00
246  2.4500000000000D+00  0.0000000000000D+00  0.0000000000000D+00
247  2.4600000000000D+00  0.0000000000000D+00  0.0000000000000D+00
248  2.4700000000000D+00  0.0000000000000D+00  0.0000000000000D+00
249  2.4800000000000D+00  0.0000000000000D+00  0.0000000000000D+00
250  2.4900000000000D+00  0.0000000000000D+00  0.0000000000000D+00
251  2.5000000000000D+00  0.0000000000000D+00  0.0000000000000D+00
252  2.5100000000000D+00  0.0000000000000D+00  0.0000000000000D+00
253  2.5200000000000D+00  0.0000000000000D+00  0.0000000000000D+00
254  2.5300000000000D+00  0.0000000000000D+00  0.0000000000000D+00
255  2.5400000000000D+00  0.0000000000000D+00  0.0000000000000D+00
256  2.5500000000000D+00  0.0000000000000D+00  0.0000000000000D+00
257  2.5600000000000D+00  0.0000000000000D+00  0.0000000000000D+00
258  2.5700000000000D+00  0.0000000000000D+00  0.0000000000000D+00
259  2.5800000000000D+00  0.0000000000000D+00  0.0000000000000D+00
260  2.5900000000000D+00  0.0000000000000D+00  0.0000000000000D+00
261  2.6000000000000D+00  0.0000000000000D+00  0.0000000000000D+00
262  2.6100000000000D+00  0.0000000000000D+00  0.0000000000000D+00
263  2.6200000000000D+00  0.0000000000000D+00  0.0000000000000D+00
264  2.6300000000000D+00  0.0000000000000D+00  0.0000000000000D+00
265  2.6400000000000D+00  0.0000000000000D+00  0.0000000000000D+00
266  2.6500000000000D+00  0.0000000000000D+00  0.0000000000000D+00
267  2.6600000000000D+00  0.0000000000000D+00  0.0000000000000D+00
268  2.6700000000000D+00  0.0000000000000D+00  0.0000000000000D+00
269  2.6800000000000D+00  0.0000000000000D+00  0.0000000000000D+00
270  2.6900000000000D+00  0.0000000000000D+00  0.0000000000000D+00
271  2.7000000000000D+00  0.0000000000000D+00  0.0000000000000D+00
272  2.7100000000000D+00  0.0000000000000D+00  0.0000000000000D+00
273  2.7200000000000D+00  0.0000000000000D+00  0.0000000000000D+00
274  2.7300000000000D+00  0.0000000000000D+00  0.0000000000000D+00
275  2.7400000000000D+00  0.0000000000000D+00  0.0000000000000D+00
276  2.7500000000000D+00  0.0000000000000D+00  0.0000000000000D+00
277  2.7600000000000D+00  0.0000000000000D+00  0.0000000000000D+00
278  2.7700000000000D+00  0.0000000000000D+00  0.0000000000000D+00
279  2.7800000000000D+00  0.0000000000000D+00  0.0000000000000D+00
280  2.7900000000000D+00  0.0000000000000D+00  0.0000000000000D+00
281  2.8000000000000D+00  0.0000000000000D+00  0.0000000000000D+00
282  2.8100000000000D+00  0.0000000000000D+00  0.0000000000000D+00
283  2.8200000000000D+00  0.0000000000000D+00  0.0000000000000D+00
284  2.8300000000000D+00  0.0000000000000D+00  0.0000000000000D+00
285  2.8400000000000D+00  0.0000000000000D+00  0.0000000000000D+00
286  2.8500000000000D+00  0.0000000000000D+00  0.0000000000000D+00
287  2.8600000000000D+00  0.0000000000000D+00  0.0000000000000D+00
288  2.8700000000000D+00  0.0000000000000D+00  0.0000000000000D+00
289  2.8800000000000D+00  0.0000000000000D+00  0.0000000000000D+00
290  2.8900000000000D+00  0.0000000000000D+00  0.0000000000000D+00
291  2.9000000000000D+00  0.0000000000000D+00  0.0000000000000D+00
292  2.9100000000000D+00  0.0000000000000D+00  0.0000000000000D+00
293  2.9200000000000D+00  0.0000000000000D+00  0.0000000000000D+00
294  2.9300000000000D+00  0.0000000000000D+00  0.0000000000000D+00
295  2.9400000000000D+00  0.0000000000000D+00  0.0000000000000D+00
296  2.9500000000000D+00  0.0000000000000D+00  0.0000000000000D+00
297  2.9600000000000D+00  0.0000000000000D+00  0.0000000000000D+00
298  2.9700000000000D+00  0.0000000000000D+00  0.0000000000000D+00
299  2.9800000000000D+00  0.0000000000000D+00  0.0000000000000D+00
300  2.9900000000000D+00  0.0000000000000D+00  0.0000000000000D+00
301  3.0000000000000D+00  0.0000000000000D+00  0.0000000000000D+00
302  3.0100000000000D+00  0.0000000000000D+00  0.0000000000000D+00
303  3.0200000000000D+00  0.0000000000000D+00  0.0000000000000D+00
304  3.0300000000000D+00  0.0000000000000D+00  0.0000000000000D+00
305  3.0400000000000D+00  0.0000000000000D+00  0.0000000000000D+00
306  3.0500000000000D+00  0.0000000000000D+00  0.0000000000000D+00
307  3.0600000000000D+00  0.0000000000000D+00  0.0000000000000D+00
308  3.0700000000000D+00  0.0000000000000D+00  0.0000000000000D+00
309  3.0800000000000D+00  0.0000000000000D+00  0.0000000000000D+00
310  3.0900000000000D+00  0.0000000000000D+00  0.0000000000000D+00
311  3.1000000000000D+00  0.0000000000000D+00  0.0000000000000D+00
312  3.1100000000000D+00  0.0000000000000D+00  0.0000000000000D+00
313  3.1200000000000D+00  0.0000000000000D+00  0.0000000000000D+00
314  3.1300000000000D+00  0.0000000000000D+00  0.0000000000000D+00
315  3.1400000000000D+00  0.0000000000000D+00  0.0000000000000D+00
316  3.1500000000000D+00  0.0000000000000D+00  0.0000000000000D+00
317  3.1600000000000D+00  0.0000000000000D+00  0.0000000000000D+00
318  3.1700000000000D+00  0.0000000000000D+00  0.0000000000000D+00
319  3.1800000000000D+00  0.0000000000000D+00  0.0000000000000D+00
320  3.1900000000000D+00  0.0000000000000D+00  0.0000000000000D+00
321  3.2000000000000D+00  0.0000000000000D+00  0.0000000000000D+00
322  3.2100000000000D+00  0.0000000000000D+00  0.0000000000000D+00
323  3.2200000000000D+00  0.0000000000000D+00  0.0000000000000D+00
324  3.2300000000000D+00  0.0000000000000D+00  0.0000000000000D+00
325  3.2400000000000D+00  0.0000000000000D+00  0.0000000000000D+00
326  3.2500000000000D+00  0.0000000000000D+00  0.0000000000000D+00
327  3.2600000000000D+00  0.0000000000000D+00  0.0000000000000D+00
328  3.2700000000000D+00  0.0000000000000D+00  0.0000000000000D+00
329  3.2800000000000D+00  0.0000000000000D+00  0.0000000000000D+00
330  3.2900000000000D+00  0.0000000000000D+00  0.0000000000000D+00
331  3.3000000000000D+00  0.0000000000000D+00  0.0000000000000D+00
332  3.3100000000000D+00  0.0000000000000D+00  0.0000000000000D+00
333  3.3200000000000D+00  0.0000000000000D+00  0.0000000000000D+00
334  3.3300000000000D+00  0.0000000000000D+00  0.0000000000000D+00
335  3.3400000000000D+00  0.0000000000000D+00  0.0000000000000D+00
336  3.3500000000000D+00  0.0000000000000D+00  0.0000000000000D+00
337  3.3600000000000D+00  0.0000000000000D+00  0.0000000000000D+00
338  3.3700000000000D+00  0.0000000000000D+00  0.0000000000000D+00
339  3.3800000000000D+00  0.0000000000000D+00  0.0000000000000D+00
340  3.3900000000000D+00  0.0000000000000D+00  0.0000000000000D+00
341  3.4000000000000D+00  0.0000000000000D+00  0.0000000000000D+00
342  3.4100000000000D+00  0.0000000000000D+00  0.0000000000000D+00
343  3.4200000000000D+00  0.0000000000000D+00  0.0000000000000D+00
344  3.4300000000000D+00  0.0000000000000D+00  0.0000000000000D+00
345  3.4400000000000D+00  0.0000000000000D+00  0.0000000000000D+00
346  3.4500000000000D+00  0.0000000000000D+00  0.0000000000000D+00
347  3.4600000000000D+00  0.0000000000000D+00  0.0000000000000D+00
348  3.4700000000000D+00  0.0000000000000D+00  0.0000000000000D+00
349  3.4800000000000D+00  0.0000000000000D+00  0.0000000000000D+00
350  3.4900000000000D+00  0.0000000000000D+00  0.0000000000000D+00
351  3.5000000000000D+00  0.0000000000000D+00  0.0000000000000D+00
352  3.5100000000000D+00  0.0000000000000D+00  0.0000000000000D+00
353  3.5200000000000D+00  0.0000000000000D+00  0.0000000000000D+00
354  3.5300000000000D+00  0.0000000000000D+00  0.0000000000000D+00
355  3.5400000000000D+00  0.0000000000000D+00  0.0000000000000D+00
356  3.5500000000000D+00  0.0000000000000D+00  0.0000000000000D+00
357  3.5600000000000D+00  0.0000000000000D+00  0.0000000000000D+00
358  3.5700000000000D+00  0.0000000000000D+00  0.0000000000000D+00
359  3.5800000000000D+00  0.0000000000000D+00  0.0000000000000D+00
360  3.5900000000000D+00  0.0000000000000D+00  0.0000000000000D+00
361  3.6000000000000D+00  0.0000000000000D+00  0.0000000000000D+00
362  3.6100000000000D+00  0.0000000000000D+00  0.0000000000000D+00
363  3.6200000000000D+00  0.0000000000000D+00  0.0000000000000D+00
364  3.6300000000000D+00  0.0000000000000D+00  0.0000000000000D+00
365  3.6400000000000D+00  0.0000000000000D+00  0.0000000000000D+00
366  3.6500000000000D+00  0.0000000000000D+00  0.0000000000000D+00
367  3.6600000000000D+00  0.0000000000000D+00  0.0000000000000D+00
368  3.6700000000000D+00  0.0000000000000D+00  0.0000000000000D+00
369  3.6800000000000D+00  0.0000000000000D+00  0.0000000000000D+00
370  3.6900000000000D+00  0.0000000000000D+00  0.0000000000000D+00
371  3.7000000000000D+00  0.0000000000000D+00  0.0000000000000D+00
372  3.7100000000000D+00  0.0000000000000D+00  0.0000000000000D+00
373  3.7200000000000D+00  0.0000000000000D+00  0.0000000000000D+00
374  3.7300000000000D+00  0.0000000000000D+00  0.0000000000000D+00
375  3.7400000000000D+00  0.0000000000000D+00  0.0000000000000D+00
376  3.7500000000000D+00  0.0000000000000D+00  0.0000000000000D+00
377  3.7600000000000D+00  0.0000000000000D+00  0.0000000000000D+00
378  3.7700000000000D+00  0.0000000000000D+00  0.0000000000000D+00
379  3.7800000000000D+00  0.0000000000000D+00  0.0000000000000D+00
380  3.7900000000000D+00  0.0000000000000D+00  0.0000000000000D+00
381  3.8000000000000D+00  0.0000000000000D+00  0.0000000000000D+00
382  3.8100000000000D+00  0.0000000000000D+00  0.0000000000000D+00
383  3.8200000000000D+00  0.0000000000000D+00  0.0000000000000D+00
384  3.8300000000000D+00  0.0000000000000D+00  0.0000000000000D+00
385  3.8400000000000D+00  0.0000000000000D+00  0.0000000000000D+00
386  3.8500000000000D+00  0.0000000000000D+00  0.0000000000000D+00
387  3.8600000000000D+00  0.0000000000000D+00  0.0000000000000D+00
388  3.8700000000000D+00  0.0000000000000D+00  0.0000000000000D+00
389  3.8800000000000D+00  0.0000000000000D+00  0.0000000000000D+00
390  3.8900000000000D+00  0.0000000000000D+00  0.0000000000000D+00
391  3.9000000000000D+00  0.0000000000000D+00  0.0000000000000D+00
392  3.9100000000000D+00  0.0000000000000D+00  0.0000000000000D+00
393  3.9200000000000D+00  0.0000000000000D+00  0.0000000000000D+00
394  3.9300000000000D+00  0.0000000000000D+00  0.0000000000000D+00
395  3.9400000000000D+00  0.0000000000000D+00  0.0000000000000D+00
396  3.9500000000000D+00  0.0000000000000D+00  0.0000000000000D+00
397  3.9600000000000D+00  0.0000000000000D+00  0.0000000000000D+00
398  3.9700000000000D+00  0.0000000000000D+00  0.0000000000000D+00
399  3.9800000000000D+00  0.0000000000000D+00  0.0000000000000D+00
400  3.9900000000000D+00  0.0000000000000D+00  0.0000000000000D+00
1                         2.9429903284631D+00  4.4539641611131D-01
1  0.0000000000000D+00  3.0590354693771D-09 -7.7353118771439D-09
2  1.0000000000000D-02  2.0139585904131D-03 -1.3136784437837D-03
3  2.0000000000000D-02  8.0433448782758D-03 -5.2363347490539D-03
4  3.0000000000000D-02  1.8050813173956D-02 -1.1713102315629D-02
5  4.0000000000000D-02  3.1974528109944D-02 -2.0653433944906D-02
6  5.0000000000000D-02  4.9728769706538D-02 -3.1932432013571D-02
7  6.0000000000000D-02  7.1204768351650D-02 -4.5392679929146D-02
8  7.0000000000000D-02  9.6271757819664D-02 -6.0846544706161D-02
9  8.0000000000000D-02  1.2477823139524D-01 -7.8078912766446D-02
10  9.0000000000000D-02  1.5655338335212D-01 -9.6850313974188D-02
11  1.0000000000000D-01  1.9140871550945D-01 -1.1690038258515D-01
12  1.1000000000000D-01  2.2913978639038D-01 -1.3795159832775D-01
13  1.2000000000000D-01  2.6952807867407D-01 -1.5971324633516D-01
14  1.3000000000000D-01  3.1234295919376D-01 -1.8188553118849D-01
15  1.4000000000000D-01  3.5734370471091D-01 -2.0416377797027D-01
16  1.5000000000000D-01  4.0428156610646D-01 -2.2624265200830D-01
17  1.6000000000000D-01  4.5290184348221D-01 -2.4782032893056D-01
18  1.7000000000000D-01  5.0294594496023D-01 -2.6860254775769D-01
19  1.8000000000000D-01  5.5415340269949D-01 -2.8830648201065D-01
20  1.9000000000000D-01  6.0626382080362D-01 -3.0666436717202D-01
21  2.0000000000000D-01  6.5901873135090D-01 -3.2342682725320D-01
22  2.1000000000000D-01  7.1216333670999D-01 -3.3836584861207D-01
23  2.2000000000000D-01  7.6544811857952D-01 -3.5127735544767D-01
24  2.3000000000000D-01  8.1863029676612D-01 -3.6198334846123D-01
25  2.4000000000000D-01  8.7147512354989D-01 -3.7033357589863D-01
26  2.5000000000000D-01  9.2375700253000D-01 -3.7620671444618D-01
27  2.6000000000000D-01  9.7526042404270D-01 -3.7951104609784D-01
28  2.7000000000000D-01  1.0257807125448D+00 -3.8018462599966D-01
29  2.8000000000000D-01  1.0751245847012D+00 -3.7819494525491D-01
30  2.9000000000000D-01  1.1231105202461D+00 -3.7353810158315D-01
31  3.0000000000000D-01  1.1695689509475D+00 -3.6623749941697D-01
32  3.1000000000000D-01  1.2143422761368D+00 -3.5634210933764D-01
33  3.2000000000000D-01  1.2572847162140D+00 -3.4392432455058D-01
34  3.3000000000000D-01  1.2982620182548D+00 -3.2907745924521D-01
35  3.4000000000000D-01  1.3371510302792D+00 -3.1191294004552D-01
36  3.5000000000000D-01  1.3738391628506D+00 -2.9255724722055D-01
37  3.6000000000000D-01  1.4082237584199D+00 -2.7114866679223D-01
38  3.7000000000000D-01  1.4402113901839D+00 -2.4783391806399D-01
39  3.8000000000000D-01  1.4697171131641D+00 -2.2276472333716D-01
40  3.9000000000000D-01  1.4966636907098D+00 -1.9609438763307D-01
41  4.0000000000000D-01  1.5209808196883D+00 -1.6797445607556D-01
42  4.1000000000000D-01  1.5426043772319D+00 -1.3855151520365D-01
43  4.2000000000000D-01  1.5614757110794D+00 -1.0796420189622D-01