O     ONCVPSP  r_core=  1.26  1.36  1.26
8.0000      6.0000      160518    zatom,zion,pspd
8      11   2     4   600     0    pspcod,pspxc,lmax,lloc,mmax,r2well
5.99000000  4.00000000  0.00000000    rchrg fchrg qchrg
2     2     2     0    nproj
2                 extension_switch
3     2     0    nprojso
0                         1.1176693161938D+00  6.2094529389242D+00
1  0.0000000000000D+00  4.5199764986403D-08 -1.9024282815749D-08
2  1.0000000000000D-02 -4.9220749627069D-02  1.0686255689831D-01
3  2.0000000000000D-02 -9.6913628083547D-02  2.1287294679946D-01
4  3.0000000000000D-02 -1.4158238997385D-01  3.1719298346273D-01
5  4.0000000000000D-02 -1.8179342091848D-01  4.1901217872204D-01
6  5.0000000000000D-02 -2.1620551357686D-01  5.1756093791475D-01
7  6.0000000000000D-02 -2.4359782924517D-01  6.1212298484992D-01
8  7.0000000000000D-02 -2.6289549448589D-01  7.0204678233392D-01
9  8.0000000000000D-02 -2.7319232744561D-01  7.8675573329551D-01
10  9.0000000000000D-02 -2.7377024340424D-01  8.6575697065587D-01
11  1.0000000000000D-01 -2.6411495264091D-01  9.3864857083885D-01
12  1.1000000000000D-01 -2.4392763470469D-01  1.0051250557113D+00
13  1.2000000000000D-01 -2.1313235030744D-01  1.0649810802220D+00
14  1.3000000000000D-01 -1.7187903385756D-01  1.1181132374627D+00
15  1.4000000000000D-01 -1.2054199458813D-01  1.1645199486539D+00
16  1.5000000000000D-01 -5.9713940697333D-02  1.2042994419981D+00
17  1.6000000000000D-01  9.8043727191065D-03  1.2376458607473D+00
18  1.7000000000000D-01  8.7018686537624D-02  1.2648435765204D+00
19  1.8000000000000D-01  1.7075970458657D-01  1.2862598182103D+00
20  1.9000000000000D-01  2.5970514163953D-01  1.3023357590762D+00
21  2.0000000000000D-01  3.5240493926006D-01  1.3135762342327D+00
22  2.1000000000000D-01  4.4730917394427D-01  1.3205382871428D+00
23  2.2000000000000D-01  5.4279812849034D-01  1.3238187664063D+00
24  2.3000000000000D-01  6.3721395391237D-01  1.3240412126662D+00
25  2.4000000000000D-01  7.2889331635982D-01  1.3218422894747D+00
26  2.5000000000000D-01  8.1620040205272D-01  1.3178580212042D+00
27  2.6000000000000D-01  8.9755964363575D-01  1.3127101053511D+00
28  2.7000000000000D-01  9.7148753380354D-01  1.3069925657940D+00
29  2.8000000000000D-01  1.0366229065508D+00  1.3012590077109D+00
30  2.9000000000000D-01  1.0917550927131D+00  1.2960107240488D+00
31  3.0000000000000D-01  1.1358493941344D+00  1.2916858878489D+00
32  3.1000000000000D-01  1.1680693691475D+00  1.2886500446521D+00
33  3.2000000000000D-01  1.1877954802164D+00  1.2871880950007D+00
34  3.3000000000000D-01  1.1946397214935D+00  1.2874979291598D+00
35  3.4000000000000D-01  1.1884559184709D+00  1.2896858451207D+00
36  3.5000000000000D-01  1.1693454724723D+00  1.2937638472883D+00
37  3.6000000000000D-01  1.1376584079482D+00  1.2996488876271D+00
38  3.7000000000000D-01  1.0939896688191D+00  1.3071640741053D+00
39  3.8000000000000D-01  1.0391706998043D+00  1.3160418337237D+00
40  3.9000000000000D-01  9.7425643810425D-01  1.3259289799570D+00
41  4.0000000000000D-01  9.0050792827555D-01  1.3363935977651D+00
42  4.1000000000000D-01  8.1937085702173D-01  1.3469336241515D+00
43  4.2000000000000D-01  7.3245038329788D-01  1.3569869692195D+00
44  4.3000000000000D-01  6.4148271112235D-01  1.3659429924355D+00
45  4.4000000000000D-01  5.4830391640691D-01  1.3731551219248D+00
46  4.5000000000000D-01  4.5481659373082D-01  1.3779543816321D+00
47  4.6000000000000D-01  3.6295493323150D-01  1.3796635725050D+00
48  4.7000000000000D-01  2.7464887078650D-01  1.3776118398893D+00
49  4.8000000000000D-01  1.9178797575838D-01  1.3711493503318D+00
50  4.9000000000000D-01  1.1618574931476D-01  1.3596617971590D+00
51  5.0000000000000D-01  4.9545002502193D-02  1.3425844556400D+00
52  5.1000000000000D-01 -6.5750331171915D-03  1.3194155152286D+00
53  5.2000000000000D-01 -5.0789238142030D-02  1.2897284282270D+00
54  5.3000000000000D-01 -8.1914197699054D-02  1.2531830310146D+00
55  5.4000000000000D-01 -9.8992321431881D-02  1.2095352154239D+00
56  5.5000000000000D-01 -1.0131202085680D-01  1.1586449535885D+00
57  5.6000000000000D-01 -8.8423544673907D-02  1.1004825091304D+00
58  5.7000000000000D-01 -6.0150151164626D-02  1.0351327003285D+00
59  5.8000000000000D-01 -1.6594381939637D-02  9.6279711647048D-01
60  5.9000000000000D-01  4.1860709217340D-02  8.8379422598172D-01
61  6.0000000000000D-01  1.1455542550640D-01  7.9855735388454D-01
62  6.1000000000000D-01  2.0056235342506D-01  7.0763054544419D-01
63  6.2000000000000D-01  2.9870021130639D-01  6.1166237224882D-01
64  6.3000000000000D-01  4.0755239343618D-01  5.1139777538878D-01
65  6.4000000000000D-01  5.2548989538864D-01  4.0766807716726D-01
66  6.5000000000000D-01  6.5069822350944D-01  3.0137932746879D-01
67  6.6000000000000D-01  7.8120781642420D-01  1.9349918242039D-01
68  6.7000000000000D-01  9.1492743957334D-01  8.5042541086498D-02
69  6.8000000000000D-01  1.0496799566347D+00 -2.2943810012232D-02
70  6.9000000000000D-01  1.1832398356737D+00 -1.2939727535647D-01
71  7.0000000000000D-01  1.3133717135196D+00 -2.3325596812737D-01
72  7.1000000000000D-01  1.4378693198887D+00 -3.3347537404352D-01
73  7.2000000000000D-01  1.5545940539074D+00 -4.2904486434033D-01
74  7.3000000000000D-01  1.6615125098265D+00 -5.1900376244661D-01
75  7.4000000000000D-01  1.7567322660869D+00 -6.0245667599862D-01
76  7.5000000000000D-01  1.8385352817711D+00 -6.7858781815486D-01
77  7.6000000000000D-01  1.9054082871095D+00 -7.4667405984235D-01
78  7.7000000000000D-01  1.9560696084656D+00 -8.0609647689995D-01
79  7.8000000000000D-01  1.9894919327355D+00 -8.5635018293044D-01
80  7.9000000000000D-01  2.0049205899326D+00 -8.9705226944110D-01
81  8.0000000000000D-01  2.0018870145879D+00 -9.2794770899587D-01
82  8.1000000000000D-01  1.9802171349508D+00 -9.4891311398898D-01
83  8.2000000000000D-01  1.9400345321975D+00 -9.5995828259697D-01
84  8.3000000000000D-01  1.8817583081902D+00 -9.6122550374718D-01
85  8.4000000000000D-01  1.8060956979934D+00 -9.5298663380513D-01
86  8.5000000000000D-01  1.7140295605003D+00 -9.3563799836489D-01
87  8.6000000000000D-01  1.6068009753336D+00 -9.0969321226280D-01
88  8.7000000000000D-01  1.4858872648626D+00 -8.7577404897846D-01
89  8.8000000000000D-01  1.3529758450231D+00 -8.3459952621974D-01
90  8.9000000000000D-01  1.2099343860117D+00 -7.8697340703846D-01
91  9.0000000000000D-01  1.0587778323941D+00 -7.3377034467294D-01
92  9.1000000000000D-01  9.0163289040114D-01 -6.7592092391516D-01
93  9.2000000000000D-01  7.4070063707738D-01 -6.1439587168512D-01
94  9.3000000000000D-01  5.7821794058510D-01 -5.5018972428303D-01
95  9.4000000000000D-01  4.1641840268076D-01 -4.8430424819508D-01
96  9.5000000000000D-01  2.5749354273857D-01 -4.1773191516982D-01
97  9.6000000000000D-01  1.0355493751823D-01 -3.5143973047859D-01
98  9.7000000000000D-01 -4.3401987720078D-02 -2.8635370587308D-01
99  9.8000000000000D-01 -1.8153185293717D-01 -2.2334425584488D-01
100  9.9000000000000D-01 -3.0917028304702D-01 -1.6321277736960D-01
101  1.0000000000000D+00 -4.2486136868229D-01 -1.0667965117852D-01
102  1.0100000000000D+00 -5.2738113266934D-01 -5.4373873875180D-02
103  1.0200000000000D+00 -6.1575658091790D-01 -6.8244996214080D-03
104  1.0300000000000D+00 -6.8928000134082D-01  3.5545965020968D-02
105  1.0400000000000D+00 -7.4751826414578D-01  7.2426106683432D-02
106  1.0500000000000D+00 -7.9031697641311D-01  1.0361802611284D-01
107  1.0600000000000D+00 -8.1779943121591D-01  1.2903760556864D-01
108  1.0700000000000D+00 -8.3036040448692D-01  1.4871264076621D-01
109  1.0800000000000D+00 -8.2865494155346D-01  1.6277889232738D-01
110  1.0900000000000D+00 -8.1358237421275D-01  1.7147415286733D-01
111  1.1000000000000D+00 -7.8626590307066D-01  1.7513046493371D-01
112  1.1100000000000D+00 -7.4802815363848D-01  1.7416465575127D-01
113  1.1200000000000D+00 -7.0036320839334D-01  1.6906739382176D-01
114  1.1300000000000D+00 -6.4490567148763D-01  1.6039099519464D-01
115  1.1400000000000D+00 -5.8339738680713D-01  1.4873623402031D-01
116  1.1500000000000D+00 -5.1765246720047D-01  1.3473842755361D-01
117  1.1600000000000D+00 -4.4952133762218D-01  1.1905308469978D-01
118  1.1700000000000D+00 -3.8085451305243D-01  1.0234141439791D-01
119  1.1800000000000D+00 -3.1346682759212D-01  8.5255989473154D-02
120  1.1900000000000D+00 -2.4910254858898D-01  6.8426759807157D-02
121  1.2000000000000D+00 -1.8940329187525D-01  5.2448137148339D-02
122  1.2100000000000D+00 -1.3587727272000D-01  3.7866665285432D-02
123  1.2200000000000D+00 -8.9877095136818D-02  2.5170896709304D-02
124  1.2300000000000D+00 -5.2508186077747D-02  1.4761981819012D-02
125  1.2400000000000D+00 -2.4520774677023D-02  6.9197441408914D-03
126  1.2500000000000D+00 -7.3757576489031D-03  2.1049178572289D-03
127  1.2600000000000D+00 -3.9403499617304D-04  1.4280469814326D-04
128  1.2700000000000D+00  5.3268238014693D-04 -1.3617926655041D-04
129  1.2800000000000D+00 -1.3950893458987D-04  3.6652662330700D-05
130  1.2900000000000D+00 -6.4766056133664D-05  1.7189225626444D-05
131  1.3000000000000D+00  3.3971109544470D-05 -8.8194538755726D-06
132  1.3100000000000D+00 -2.0171284015103D-08 -4.2313078136994D-08
133  1.3200000000000D+00 -2.0537520001857D-08 -4.3081327293196D-08
134  1.3300000000000D+00  0.0000000000000D+00  0.0000000000000D+00
135  1.3400000000000D+00  0.0000000000000D+00  0.0000000000000D+00
136  1.3500000000000D+00  0.0000000000000D+00  0.0000000000000D+00
137  1.3600000000000D+00  0.0000000000000D+00  0.0000000000000D+00
138  1.3700000000000D+00  0.0000000000000D+00  0.0000000000000D+00
139  1.3800000000000D+00  0.0000000000000D+00  0.0000000000000D+00
140  1.3900000000000D+00  0.0000000000000D+00  0.0000000000000D+00
141  1.4000000000000D+00  0.0000000000000D+00  0.0000000000000D+00
142  1.4100000000000D+00  0.0000000000000D+00  0.0000000000000D+00
143  1.4200000000000D+00  0.0000000000000D+00  0.0000000000000D+00
144  1.4300000000000D+00  0.0000000000000D+00  0.0000000000000D+00
145  1.4400000000000D+00  0.0000000000000D+00  0.0000000000000D+00
146  1.4500000000000D+00  0.0000000000000D+00  0.0000000000000D+00
147  1.4600000000000D+00  0.0000000000000D+00  0.0000000000000D+00
148  1.4700000000000D+00  0.0000000000000D+00  0.0000000000000D+00
149  1.4800000000000D+00  0.0000000000000D+00  0.0000000000000D+00
150  1.4900000000000D+00  0.0000000000000D+00  0.0000000000000D+00
151  1.5000000000000D+00  0.0000000000000D+00  0.0000000000000D+00
152  1.5100000000000D+00  0.0000000000000D+00  0.0000000000000D+00
153  1.5200000000000D+00  0.0000000000000D+00  0.0000000000000D+00
154  1.5300000000000D+00  0.0000000000000D+00  0.0000000000000D+00
155  1.5400000000000D+00  0.0000000000000D+00  0.0000000000000D+00
156  1.5500000000000D+00  0.0000000000000D+00  0.0000000000000D+00
157  1.5600000000000D+00  0.0000000000000D+00  0.0000000000000D+00
158  1.5700000000000D+00  0.0000000000000D+00  0.0000000000000D+00
159  1.5800000000000D+00  0.0000000000000D+00  0.0000000000000D+00
160  1.5900000000000D+00  0.0000000000000D+00  0.0000000000000D+00
161  1.6000000000000D+00  0.0000000000000D+00  0.0000000000000D+00
162  1.6100000000000D+00  0.0000000000000D+00  0.0000000000000D+00
163  1.6200000000000D+00  0.0000000000000D+00  0.0000000000000D+00
164  1.6300000000000D+00  0.0000000000000D+00  0.0000000000000D+00
165  1.6400000000000D+00  0.0000000000000D+00  0.0000000000000D+00
166  1.6500000000000D+00  0.0000000000000D+00  0.0000000000000D+00
167  1.6600000000000D+00  0.0000000000000D+00  0.0000000000000D+00
168  1.6700000000000D+00  0.0000000000000D+00  0.0000000000000D+00
169  1.6800000000000D+00  0.0000000000000D+00  0.0000000000000D+00
170  1.6900000000000D+00  0.0000000000000D+00  0.0000000000000D+00
171  1.7000000000000D+00  0.0000000000000D+00  0.0000000000000D+00
172  1.7100000000000D+00  0.0000000000000D+00  0.0000000000000D+00
173  1.7200000000000D+00  0.0000000000000D+00  0.0000000000000D+00
174  1.7300000000000D+00  0.0000000000000D+00  0.0000000000000D+00
175  1.7400000000000D+00  0.0000000000000D+00  0.0000000000000D+00
176  1.7500000000000D+00  0.0000000000000D+00  0.0000000000000D+00
177  1.7600000000000D+00  0.0000000000000D+00  0.0000000000000D+00
178  1.7700000000000D+00  0.0000000000000D+00  0.0000000000000D+00
179  1.7800000000000D+00  0.0000000000000D+00  0.0000000000000D+00
180  1.7900000000000D+00  0.0000000000000D+00  0.0000000000000D+00
181  1.8000000000000D+00  0.0000000000000D+00  0.0000000000000D+00
182  1.8100000000000D+00  0.0000000000000D+00  0.0000000000000D+00
183  1.8200000000000D+00  0.0000000000000D+00  0.0000000000000D+00
184  1.8300000000000D+00  0.0000000000000D+00  0.0000000000000D+00
185  1.8400000000000D+00  0.0000000000000D+00  0.0000000000000D+00
186  1.8500000000000D+00  0.0000000000000D+00  0.0000000000000D+00
187  1.8600000000000D+00  0.0000000000000D+00  0.0000000000000D+00
188  1.8700000000000D+00  0.0000000000000D+00  0.0000000000000D+00
189  1.8800000000000D+00  0.0000000000000D+00  0.0000000000000D+00
190  1.8900000000000D+00  0.0000000000000D+00  0.0000000000000D+00
191  1.9000000000000D+00  0.0000000000000D+00  0.0000000000000D+00
192  1.9100000000000D+00  0.0000000000000D+00  0.0000000000000D+00
193  1.9200000000000D+00  0.0000000000000D+00  0.0000000000000D+00
194  1.9300000000000D+00  0.0000000000000D+00  0.0000000000000D+00
195  1.9400000000000D+00  0.0000000000000D+00  0.0000000000000D+00
196  1.9500000000000D+00  0.0000000000000D+00  0.0000000000000D+00
197  1.9600000000000D+00  0.0000000000000D+00  0.0000000000000D+00
198  1.9700000000000D+00  0.0000000000000D+00  0.0000000000000D+00
199  1.9800000000000D+00  0.0000000000000D+00  0.0000000000000D+00
200  1.9900000000000D+00  0.0000000000000D+00  0.0000000000000D+00
201  2.0000000000000D+00  0.0000000000000D+00  0.0000000000000D+00
202  2.0100000000000D+00  0.0000000000000D+00  0.0000000000000D+00
203  2.0200000000000D+00  0.0000000000000D+00  0.0000000000000D+00
204  2.0300000000000D+00  0.0000000000000D+00  0.0000000000000D+00
205  2.0400000000000D+00  0.0000000000000D+00  0.0000000000000D+00
206  2.0500000000000D+00  0.0000000000000D+00  0.0000000000000D+00
207  2.0600000000000D+00  0.0000000000000D+00  0.0000000000000D+00
208  2.0700000000000D+00  0.0000000000000D+00  0.0000000000000D+00
209  2.0800000000000D+00  0.0000000000000D+00  0.0000000000000D+00
210  2.0900000000000D+00  0.0000000000000D+00  0.0000000000000D+00
211  2.1000000000000D+00  0.0000000000000D+00  0.0000000000000D+00
212  2.1100000000000D+00  0.0000000000000D+00  0.0000000000000D+00
213  2.1200000000000D+00  0.0000000000000D+00  0.0000000000000D+00
214  2.1300000000000D+00  0.0000000000000D+00  0.0000000000000D+00
215  2.1400000000000D+00  0.0000000000000D+00  0.0000000000000D+00
216  2.1500000000000D+00  0.0000000000000D+00  0.0000000000000D+00
217  2.1600000000000D+00  0.0000000000000D+00  0.0000000000000D+00
218  2.1700000000000D+00  0.0000000000000D+00  0.0000000000000D+00
219  2.1800000000000D+00  0.0000000000000D+00  0.0000000000000D+00
220  2.1900000000000D+00  0.0000000000000D+00  0.0000000000000D+00
221  2.2000000000000D+00  0.0000000000000D+00  0.0000000000000D+00
222  2.2100000000000D+00  0.0000000000000D+00  0.0000000000000D+00
223  2.2200000000000D+00  0.0000000000000D+00  0.0000000000000D+00
224  2.2300000000000D+00  0.0000000000000D+00  0.0000000000000D+00
225  2.2400000000000D+00  0.0000000000000D+00  0.0000000000000D+00
226  2.2500000000000D+00  0.0000000000000D+00  0.0000000000000D+00
227  2.2600000000000D+00  0.0000000000000D+00  0.0000000000000D+00
228  2.2700000000000D+00  0.0000000000000D+00  0.0000000000000D+00
229  2.2800000000000D+00  0.0000000000000D+00  0.0000000000000D+00
230  2.2900000000000D+00  0.0000000000000D+00  0.0000000000000D+00
231  2.3000000000000D+00  0.0000000000000D+00  0.0000000000000D+00
232  2.3100000000000D+00  0.0000000000000D+00  0.0000000000000D+00
233  2.3200000000000D+00  0.0000000000000D+00  0.0000000000000D+00
234  2.3300000000000D+00  0.0000000000000D+00  0.0000000000000D+00
235  2.3400000000000D+00  0.0000000000000D+00  0.0000000000000D+00
236  2.3500000000000D+00  0.0000000000000D+00  0.0000000000000D+00
237  2.3600000000000D+00  0.0000000000000D+00  0.0000000000000D+00
238  2.3700000000000D+00  0.0000000000000D+00  0.0000000000000D+00
239  2.3800000000000D+00  0.0000000000000D+00  0.0000000000000D+00
240  2.3900000000000D+00  0.0000000000000D+00  0.0000000000000D+00
241  2.4000000000000D+00  0.0000000000000D+00  0.0000000000000D+00
242  2.4100000000000D+00  0.0000000000000D+00  0.0000000000000D+00
243  2.4200000000000D+00  0.0000000000000D+00  0.0000000000000D+00
244  2.4300000000000D+00  0.0000000000000D+00  0.0000000000000D+00
245  2.4400000000000D+00  0.0000000000000D+00  0.0000000000000D+00
246  2.4500000000000D+00  0.0000000000000D+00  0.0000000000000D+00
247  2.4600000000000D+00  0.0000000000000D+00  0.0000000000000D+00
248  2.4700000000000D+00  0.0000000000000D+00  0.0000000000000D+00
249  2.4800000000000D+00  0.0000000000000D+00  0.0000000000000D+00
250  2.4900000000000D+00  0.0000000000000D+00  0.0000000000000D+00
251  2.5000000000000D+00  0.0000000000000D+00  0.0000000000000D+00
252  2.5100000000000D+00  0.0000000000000D+00  0.0000000000000D+00
253  2.5200000000000D+00  0.0000000000000D+00  0.0000000000000D+00
254  2.5300000000000D+00  0.0000000000000D+00  0.0000000000000D+00
255  2.5400000000000D+00  0.0000000000000D+00  0.0000000000000D+00
256  2.5500000000000D+00  0.0000000000000D+00  0.0000000000000D+00
257  2.5600000000000D+00  0.0000000000000D+00  0.0000000000000D+00
258  2.5700000000000D+00  0.0000000000000D+00  0.0000000000000D+00
259  2.5800000000000D+00  0.0000000000000D+00  0.0000000000000D+00
260  2.5900000000000D+00  0.0000000000000D+00  0.0000000000000D+00
261  2.6000000000000D+00  0.0000000000000D+00  0.0000000000000D+00
262  2.6100000000000D+00  0.0000000000000D+00  0.0000000000000D+00
263  2.6200000000000D+00  0.0000000000000D+00  0.0000000000000D+00
264  2.6300000000000D+00  0.0000000000000D+00  0.0000000000000D+00
265  2.6400000000000D+00  0.0000000000000D+00  0.0000000000000D+00
266  2.6500000000000D+00  0.0000000000000D+00  0.0000000000000D+00
267  2.6600000000000D+00  0.0000000000000D+00  0.0000000000000D+00
268  2.6700000000000D+00  0.0000000000000D+00  0.0000000000000D+00
269  2.6800000000000D+00  0.0000000000000D+00  0.0000000000000D+00
270  2.6900000000000D+00  0.0000000000000D+00  0.0000000000000D+00
271  2.7000000000000D+00  0.0000000000000D+00  0.0000000000000D+00
272  2.7100000000000D+00  0.0000000000000D+00  0.0000000000000D+00
273  2.7200000000000D+00  0.0000000000000D+00  0.0000000000000D+00
274  2.7300000000000D+00  0.0000000000000D+00  0.0000000000000D+00
275  2.7400000000000D+00  0.0000000000000D+00  0.0000000000000D+00
276  2.7500000000000D+00  0.0000000000000D+00  0.0000000000000D+00
277  2.7600000000000D+00  0.0000000000000D+00  0.0000000000000D+00
278  2.7700000000000D+00  0.0000000000000D+00  0.0000000000000D+00
279  2.7800000000000D+00  0.0000000000000D+00  0.0000000000000D+00
280  2.7900000000000D+00  0.0000000000000D+00  0.0000000000000D+00
281  2.8000000000000D+00  0.0000000000000D+00  0.0000000000000D+00
282  2.8100000000000D+00  0.0000000000000D+00  0.0000000000000D+00
283  2.8200000000000D+00  0.0000000000000D+00  0.0000000000000D+00
284  2.8300000000000D+00  0.0000000000000D+00  0.0000000000000D+00
285  2.8400000000000D+00  0.0000000000000D+00  0.0000000000000D+00
286  2.8500000000000D+00  0.0000000000000D+00  0.0000000000000D+00
287  2.8600000000000D+00  0.0000000000000D+00  0.0000000000000D+00
288  2.8700000000000D+00  0.0000000000000D+00  0.0000000000000D+00
289  2.8800000000000D+00  0.0000000000000D+00  0.0000000000000D+00
290  2.8900000000000D+00  0.0000000000000D+00  0.0000000000000D+00
291  2.9000000000000D+00  0.0000000000000D+00  0.0000000000000D+00
292  2.9100000000000D+00  0.0000000000000D+00  0.0000000000000D+00
293  2.9200000000000D+00  0.0000000000000D+00  0.0000000000000D+00
294  2.9300000000000D+00  0.0000000000000D+00  0.0000000000000D+00
295  2.9400000000000D+00  0.0000000000000D+00  0.0000000000000D+00
296  2.9500000000000D+00  0.0000000000000D+00  0.0000000000000D+00
297  2.9600000000000D+00  0.0000000000000D+00  0.0000000000000D+00
298  2.9700000000000D+00  0.0000000000000D+00  0.0000000000000D+00
299  2.9800000000000D+00  0.0000000000000D+00  0.0000000000000D+00
300  2.9900000000000D+00  0.0000000000000D+00  0.0000000000000D+00
301  3.0000000000000D+00  0.0000000000000D+00  0.0000000000000D+00
302  3.0100000000000D+00  0.0000000000000D+00  0.0000000000000D+00
303  3.0200000000000D+00  0.0000000000000D+00  0.0000000000000D+00
304  3.0300000000000D+00  0.0000000000000D+00  0.0000000000000D+00
305  3.0400000000000D+00  0.0000000000000D+00  0.0000000000000D+00
306  3.0500000000000D+00  0.0000000000000D+00  0.0000000000000D+00
307  3.0600000000000D+00  0.0000000000000D+00  0.0000000000000D+00
308  3.0700000000000D+00  0.0000000000000D+00  0.0000000000000D+00
309  3.0800000000000D+00  0.0000000000000D+00  0.0000000000000D+00
310  3.0900000000000D+00  0.0000000000000D+00  0.0000000000000D+00
311  3.1000000000000D+00  0.0000000000000D+00  0.0000000000000D+00
312  3.1100000000000D+00  0.0000000000000D+00  0.0000000000000D+00
313  3.1200000000000D+00  0.0000000000000D+00  0.0000000000000D+00
314  3.1300000000000D+00  0.0000000000000D+00  0.0000000000000D+00
315  3.1400000000000D+00  0.0000000000000D+00  0.0000000000000D+00
316  3.1500000000000D+00  0.0000000000000D+00  0.0000000000000D+00
317  3.1600000000000D+00  0.0000000000000D+00  0.0000000000000D+00
318  3.1700000000000D+00  0.0000000000000D+00  0.0000000000000D+00
319  3.1800000000000D+00  0.0000000000000D+00  0.0000000000000D+00
320  3.1900000000000D+00  0.0000000000000D+00  0.0000000000000D+00
321  3.2000000000000D+00  0.0000000000000D+00  0.0000000000000D+00
322  3.2100000000000D+00  0.0000000000000D+00  0.0000000000000D+00
323  3.2200000000000D+00  0.0000000000000D+00  0.0000000000000D+00
324  3.2300000000000D+00  0.0000000000000D+00  0.0000000000000D+00
325  3.2400000000000D+00  0.0000000000000D+00  0.0000000000000D+00
326  3.2500000000000D+00  0.0000000000000D+00  0.0000000000000D+00
327  3.2600000000000D+00  0.0000000000000D+00  0.0000000000000D+00
328  3.2700000000000D+00  0.0000000000000D+00  0.0000000000000D+00
329  3.2800000000000D+00  0.0000000000000D+00  0.0000000000000D+00
330  3.2900000000000D+00  0.0000000000000D+00  0.0000000000000D+00
331  3.3000000000000D+00  0.0000000000000D+00  0.0000000000000D+00
332  3.3100000000000D+00  0.0000000000000D+00  0.0000000000000D+00
333  3.3200000000000D+00  0.0000000000000D+00  0.0000000000000D+00
334  3.3300000000000D+00  0.0000000000000D+00  0.0000000000000D+00
335  3.3400000000000D+00  0.0000000000000D+00  0.0000000000000D+00
336  3.3500000000000D+00  0.0000000000000D+00  0.0000000000000D+00
337  3.3600000000000D+00  0.0000000000000D+00  0.0000000000000D+00
338  3.3700000000000D+00  0.0000000000000D+00  0.0000000000000D+00
339  3.3800000000000D+00  0.0000000000000D+00  0.0000000000000D+00
340  3.3900000000000D+00  0.0000000000000D+00  0.0000000000000D+00
341  3.4000000000000D+00  0.0000000000000D+00  0.0000000000000D+00
342  3.4100000000000D+00  0.0000000000000D+00  0.0000000000000D+00
343  3.4200000000000D+00  0.0000000000000D+00  0.0000000000000D+00
344  3.4300000000000D+00  0.0000000000000D+00  0.0000000000000D+00
345  3.4400000000000D+00  0.0000000000000D+00  0.0000000000000D+00
346  3.4500000000000D+00  0.0000000000000D+00  0.0000000000000D+00
347  3.4600000000000D+00  0.0000000000000D+00  0.0000000000000D+00
348  3.4700000000000D+00  0.0000000000000D+00  0.0000000000000D+00
349  3.4800000000000D+00  0.0000000000000D+00  0.0000000000000D+00
350  3.4900000000000D+00  0.0000000000000D+00  0.0000000000000D+00
351  3.5000000000000D+00  0.0000000000000D+00  0.0000000000000D+00
352  3.5100000000000D+00  0.0000000000000D+00  0.0000000000000D+00
353  3.5200000000000D+00  0.0000000000000D+00  0.0000000000000D+00
354  3.5300000000000D+00  0.0000000000000D+00  0.0000000000000D+00
355  3.5400000000000D+00  0.0000000000000D+00  0.0000000000000D+00
356  3.5500000000000D+00  0.0000000000000D+00  0.0000000000000D+00
357  3.5600000000000D+00  0.0000000000000D+00  0.0000000000000D+00
358  3.5700000000000D+00  0.0000000000000D+00  0.0000000000000D+00
359  3.5800000000000D+00  0.0000000000000D+00  0.0000000000000D+00
360  3.5900000000000D+00  0.0000000000000D+00  0.0000000000000D+00
361  3.6000000000000D+00  0.0000000000000D+00  0.0000000000000D+00
362  3.6100000000000D+00  0.0000000000000D+00  0.0000000000000D+00
363  3.6200000000000D+00  0.0000000000000D+00  0.0000000000000D+00
364  3.6300000000000D+00  0.0000000000000D+00  0.0000000000000D+00
365  3.6400000000000D+00  0.0000000000000D+00  0.0000000000000D+00
366  3.6500000000000D+00  0.0000000000000D+00  0.0000000000000D+00
367  3.6600000000000D+00  0.0000000000000D+00  0.0000000000000D+00
368  3.6700000000000D+00  0.0000000000000D+00  0.0000000000000D+00
369  3.6800000000000D+00  0.0000000000000D+00  0.0000000000000D+00
370  3.6900000000000D+00  0.0000000000000D+00  0.0000000000000D+00
371  3.7000000000000D+00  0.0000000000000D+00  0.0000000000000D+00
372  3.7100000000000D+00  0.0000000000000D+00  0.0000000000000D+00
373  3.7200000000000D+00  0.0000000000000D+00  0.0000000000000D+00
374  3.7300000000000D+00  0.0000000000000D+00  0.0000000000000D+00
375  3.7400000000000D+00  0.0000000000000D+00  0.0000000000000D+00
376  3.7500000000000D+00  0.0000000000000D+00  0.0000000000000D+00
377  3.7600000000000D+00  0.0000000000000D+00  0.0000000000000D+00
378  3.7700000000000D+00  0.0000000000000D+00  0.0000000000000D+00
379  3.7800000000000D+00  0.0000000000000D+00  0.0000000000000D+00
380  3.7900000000000D+00  0.0000000000000D+00  0.0000000000000D+00
381  3.8000000000000D+00  0.0000000000000D+00  0.0000000000000D+00
382  3.8100000000000D+00  0.0000000000000D+00  0.0000000000000D+00
383  3.8200000000000D+00  0.0000000000000D+00  0.0000000000000D+00
384  3.8300000000000D+00  0.0000000000000D+00  0.0000000000000D+00
385  3.8400000000000D+00  0.0000000000000D+00  0.0000000000000D+00
386  3.8500000000000D+00  0.0000000000000D+00  0.0000000000000D+00
387  3.8600000000000D+00  0.0000000000000D+00  0.0000000000000D+00
388  3.8700000000000D+00  0.0000000000000D+00  0.0000000000000D+00
389  3.8800000000000D+00  0.0000000000000D+00  0.0000000000000D+00
390  3.8900000000000D+00  0.0000000000000D+00  0.0000000000000D+00
391  3.9000000000000D+00  0.0000000000000D+00  0.0000000000000D+00
392  3.9100000000000D+00  0.0000000000000D+00  0.0000000000000D+00
393  3.9200000000000D+00  0.0000000000000D+00  0.0000000000000D+00
394  3.9300000000000D+00  0.0000000000000D+00  0.0000000000000D+00
395  3.9400000000000D+00  0.0000000000000D+00  0.0000000000000D+00
396  3.9500000000000D+00  0.0000000000000D+00  0.0000000000000D+00
397  3.9600000000000D+00  0.0000000000000D+00  0.0000000000000D+00
398  3.9700000000000D+00  0.0000000000000D+00  0.0000000000000D+00
399  3.9800000000000D+00  0.0000000000000D+00  0.0000000000000D+00
400  3.9900000000000D+00  0.0000000000000D+00  0.0000000000000D+00
401  4.0000000000000D+00  0.0000000000000D+00  0.0000000000000D+00
402  4.0100000000000D+00  0.0000000000000D+00  0.0000000000000D+00
403  4.0200000000000D+00  0.0000000000000D+00  0.0000000000000D+00
404  4.0300000000000D+00  0.0000000000000D+00  0.0000000000000D+00
405  4.0400000000000D+00  0.0000000000000D+00  0.0000000000000D+00
406  4.0500000000000D+00  0.0000000000000D+00  0.0000000000000D+00
407  4.0600000000000D+00  0.0000000000000D+00  0.0000000000000D+00
408  4.0700000000000D+00  0.0000000000000D+00  0.0000000000000D+00
409  4.0800000000000D+00  0.0000000000000D+00  0.0000000000000D+00
410  4.0900000000000D+00  0.0000000000000D+00  0.0000000000000D+00
411  4.1000000000000D+00  0.0000000000000D+00  0.0000000000000D+00
412  4.1100000000000D+00  0.0000000000000D+00  0.0000000000000D+00
413  4.1200000000000D+00  0.0000000000000D+00  0.0000000000000D+00
414  4.1300000000000D+00  0.0000000000000D+00  0.0000000000000D+00
415  4.1400000000000D+00  0.0000000000000D+00  0.0000000000000D+00
416  4.1500000000000D+00  0.0000000000000D+00  0.0000000000000D+00
417  4.1600000000000D+00  0.0000000000000D+00  0.0000000000000D+00
418  4.1700000000000D+00  0.0000000000000D+00  0.0000000000000D+00
419  4.1800000000000D+00  0.0000000000000D+00  0.0000000000000D+00
420  4.1900000000000D+00  0.0000000000000D+00  0.0000000000000D+00
421  4.2000000000000D+00  0.0000000000000D+00  0.0000000000000D+00
422  4.2100000000000D+00  0.0000000000000D+00  0.0000000000000D+00
423  4.2200000000000D+00  0.0000000000000D+00  0.0000000000000D+00
424  4.2300000000000D+00  0.0000000000000D+00  0.0000000000000D+00
425  4.2400000000000D+00  0.0000000000000D+00  0.0000000000000D+00
426  4.2500000000000D+00  0.0000000000000D+00  0.0000000000000D+00
427  4.2600000000000D+00  0.0000000000000D+00  0.0000000000000D+00
428  4.2700000000000D+00  0.0000000000000D+00  0.0000000000000D+00
429  4.2800000000000D+00  0.0000000000000D+00  0.0000000000000D+00
430  4.2900000000000D+00  0.0000000000000D+00  0.0000000000000D+00
431  4.3000000000000D+00  0.0000000000000D+00  0.0000000000000D+00
432  4.3100000000000D+00  0.0000000000000D+00  0.0000000000000D+00
433  4.3200000000000D+00  0.0000000000000D+00  0.0000000000000D+00
434  4.3300000000000D+00  0.0000000000000D+00  0.0000000000000D+00
435  4.3400000000000D+00  0.0000000000000D+00  0.0000000000000D+00
436  4.3500000000000D+00  0.0000000000000D+00  0.0000000000000D+00
437  4.3600000000000D+00  0.0000000000000D+00  0.0000000000000D+00
438  4.3700000000000D+00  0.0000000000000D+00  0.0000000000000D+00
439  4.3800000000000D+00  0.0000000000000D+00  0.0000000000000D+00
440  4.3900000000000D+00  0.0000000000000D+00  0.0000000000000D+00
441  4.4000000000000D+00  0.0000000000000D+00  0.0000000000000D+00
442  4.4100000000000D+00  0.0000000000000D+00  0.0000000000000D+00
443  4.4200000000000D+00  0.0000000000000D+00  0.0000000000000D+00