O     ONCVPSP  r_core=  1.26  1.36  1.26
8.0000      6.0000      160626    zatom,zion,pspd
8      11   2     4   600     0    pspcod,pspxc,lmax,lloc,mmax,r2well
5.99000000  0.07000000  0.00000000    rchrg fchrg qchrg
2     2     1     0     0    nproj
1                 extension_switch
0                         6.2095474127308D+00  1.1177659891528D+00
1  0.0000000000000D+00 -1.9026365150054D-08  4.5200198195428D-08
2  1.0000000000000D-02  1.0686474817721D-01 -4.9216666430279D-02
3  2.0000000000000D-02  2.1287725717758D-01 -9.6905456253076D-02
4  3.0000000000000D-02  3.1719927009574D-01 -1.4157011905285D-01
5  4.0000000000000D-02  4.1902023110137D-01 -1.8177703625465D-01
6  5.0000000000000D-02  5.1757048229409D-01 -2.1618499753623D-01
7  6.0000000000000D-02  6.1213369001067D-01 -2.4357316278776D-01
8  7.0000000000000D-02  7.0205826657594D-01 -2.6286665906800D-01
9  8.0000000000000D-02  7.8676757251512D-01 -2.7315930720574D-01
10  9.0000000000000D-02  8.6576870735160D-01 -2.7373302758290D-01
11  1.0000000000000D-01  9.3865972386656D-01 -2.6407353817907D-01
12  1.1000000000000D-01  1.0051351305954D+00 -2.4388202896087D-01
13  1.2000000000000D-01  1.0649895798180D+00 -2.1308257382995D-01
14  1.3000000000000D-01  1.1181196727581D+00 -1.7182512314641D-01
15  1.4000000000000D-01  1.1645238494927D+00 -1.2048400478013D-01
16  1.5000000000000D-01  1.2043003675130D+00 -5.9651948108306D-02
17  1.6000000000000D-01  1.2376434092888D+00  9.8702682590476D-03
18  1.7000000000000D-01  1.2648373948830D+00  8.7088359617124D-02
19  1.8000000000000D-01  1.2862496099661D+00  1.7083300247074D-01
20  1.9000000000000D-01  1.3023212918444D+00  2.5978188290406D-01
21  2.0000000000000D-01  1.3135573457328D+00  3.5248491284629D-01
22  2.1000000000000D-01  1.3205148899026D+00  4.4739213867216D-01
23  2.2000000000000D-01  1.3237908510210D+00  5.4288381305859D-01
24  2.3000000000000D-01  1.3240088495318D+00  6.3730205740520D-01
25  2.4000000000000D-01  1.3218056289504D+00  7.2898350927090D-01
26  2.5000000000000D-01  1.3178172921850D+00  8.1629232782692D-01
27  2.6000000000000D-01  1.3126656122665D+00  8.9765292071907D-01
28  2.7000000000000D-01  1.3069446840754D+00  9.7158175818227D-01
29  2.8000000000000D-01  1.3012081778039D+00  1.0367176547508D+00
30  2.9000000000000D-01  1.2959574440719D+00  1.0918499252215D+00
31  3.0000000000000D-01  1.2916307050282D+00  1.1359438591967D+00
32  3.1000000000000D-01  1.2885935456875D+00  1.1681630068863D+00
33  3.2000000000000D-01  1.2871308955373D+00  1.1878878270100D+00
34  3.3000000000000D-01  1.2874406625603D+00  1.1947303145471D+00
35  3.4000000000000D-01  1.2896291507468D+00  1.1885443005103D+00
36  3.5000000000000D-01  1.2937083585109D+00  1.1694311964829D+00
37  3.6000000000000D-01  1.2995952197923D+00  1.1377410418848D+00
38  3.7000000000000D-01  1.3071128126855D+00  1.0940688002073D+00
39  3.8000000000000D-01  1.3159935228808D+00  1.0392459401580D+00
40  3.9000000000000D-01  1.3258841117398D+00  9.7432742708433D-01
41  4.0000000000000D-01  1.3363526021509D+00  9.0057433752006D-01
42  4.1000000000000D-01  1.3468968601296D+00  8.1943239358127D-01
43  4.2000000000000D-01  1.3569547170955D+00  7.3250679261712D-01
44  4.3000000000000D-01  1.3659154475119D+00  6.4153377951619D-01
45  4.4000000000000D-01  1.3731323896922D+00  5.4834947298716D-01
46  4.5000000000000D-01  1.3779364745744D+00  4.5485651174999D-01
47  4.6000000000000D-01  1.3796504085949D+00  3.6298913081851D-01
48  4.7000000000000D-01  1.3776032428186D+00  2.7467731106153D-01
49  4.8000000000000D-01  1.3711450514889D+00  1.9181066632287D-01
50  4.9000000000000D-01  1.3596614393330D+00  1.1620274112517D-01
51  5.0000000000000D-01  1.3425875983999D+00  4.9556388145867D-02
52  5.1000000000000D-01  1.3194216418931D+00 -6.5691217149700D-03
53  5.2000000000000D-01  1.2897369543105D+00 -5.0788632539982D-02
54  5.3000000000000D-01  1.2531933140087D+00 -8.1918696243002D-02
55  5.4000000000000D-01  1.2095465657444D+00 -9.9001692981181D-02
56  5.5000000000000D-01  1.1586566464991D+00 -1.0132600886955D-01
57  5.6000000000000D-01  1.1004937974320D+00 -8.8441871580558D-02
58  5.7000000000000D-01  1.0351428275899D+00 -6.0172522952903D-02
59  5.8000000000000D-01  9.6280533056238D-01 -1.6620492871940D-02
60  5.9000000000000D-01  8.8379979267143D-01  4.1831171836684D-02
61  6.0000000000000D-01  7.9855957024447D-01  1.1452277659635D-01
62  6.1000000000000D-01  7.0762875283002D-01  2.0052690550751D-01
63  6.2000000000000D-01  6.1165596860953D-01  2.9866227008000D-01
64  6.3000000000000D-01  5.1138622668173D-01  4.0751225361987D-01
65  6.4000000000000D-01  4.0765092766676D-01  5.2544783690553D-01
66  6.5000000000000D-01  3.0135620877578D-01  6.5065450807518D-01
67  6.6000000000000D-01  1.9346982100370D-01  7.8116268459588D-01
68  6.7000000000000D-01  8.5006764212234D-02  9.1488110830658D-01
69  6.8000000000000D-01 -2.2986070078023D-02  1.0496326173868D+00
70  6.9000000000000D-01 -1.2944597895523D-01  1.1831916530804D+00
71  7.0000000000000D-01 -2.3331096767673D-01  1.3133228246610D+00
72  7.1000000000000D-01 -3.3353641538423D-01  1.4378198341513D+00
73  7.2000000000000D-01 -4.2911158994489D-01  1.5545440534351D+00
74  7.3000000000000D-01 -5.1907571643818D-01  1.6614620505428D+00
75  7.4000000000000D-01 -6.0253331089662D-01  1.7566813792618D+00
76  7.5000000000000D-01 -6.7866850323136D-01  1.8384839760926D+00
77  7.6000000000000D-01 -7.4675809094414D-01  1.9053565512128D+00
78  7.7000000000000D-01 -8.0618308756411D-01  1.9560174138622D+00
79  7.8000000000000D-01 -8.5643855659730D-01  1.9894392370786D+00
80  7.9000000000000D-01 -8.9714155254834D-01  2.0048673405476D+00
81  8.0000000000000D-01 -9.2803702472117D-01  2.0018331521922D+00
82  8.1000000000000D-01 -9.4900157639668D-01  1.9801625974843D+00
83  8.2000000000000D-01 -9.6004501093644D-01  1.9399792586816D+00
84  8.3000000000000D-01 -9.6130963664812D-01  1.8817022425337D+00
85  8.4000000000000D-01 -9.5306734311659D-01  1.8060387926652D+00
86  8.5000000000000D-01 -9.3571450239147D-01  1.7139717799910D+00
87  8.6000000000000D-01 -9.0976478816271D-01  1.6067422993314D+00
88  8.7000000000000D-01 -8.7584004410335D-01  1.4858276910766D+00
89  8.8000000000000D-01 -8.3465936819616D-01  1.3529153915924D+00
90  8.9000000000000D-01 -7.8702661241379D-01  1.2098730934477D+00
91  9.0000000000000D-01 -7.3381652597555D-01  1.0587157650120D+00
92  9.1000000000000D-01 -6.7595979500751D-01  9.0157013720753D-01
93  9.2000000000000D-01 -6.1442725132074D-01  7.4063731209088D-01
94  9.3000000000000D-01 -5.5021353781088D-01  5.7815418257836D-01
95  9.4000000000000D-01 -4.8432052738975D-01  4.1635437434367D-01
96  9.5000000000000D-01 -4.1774079620015D-01  2.5742942927393D-01
97  9.6000000000000D-01 -3.5144145006194D-01  1.0349094469226D-01
98  9.7000000000000D-01 -2.8634859569591D-01 -4.3465636039024D-02
99  9.8000000000000D-01 -2.2333273536196D-01 -1.8159491770848D-01
100  9.9000000000000D-01 -1.6319534512404D-01 -3.0923251340343D-01
101  1.0000000000000D+00 -1.0665687481173D-01 -4.2492250563024D-01
102  1.0100000000000D+00 -5.4346379019422D-02 -5.2744091307617D-01
103  1.0200000000000D+00 -6.7929578877661D-03 -6.1581474171189D-01
104  1.0300000000000D+00  3.5580848730467D-02 -6.8933628384580D-01
105  1.0400000000000D+00  7.2463607299457D-02 -7.4757241846960D-01
106  1.0500000000000D+00  1.0365741171114D-01 -7.9036876580791D-01
107  1.0600000000000D+00  1.2907815062162D-01 -8.1784863632805D-01
108  1.0700000000000D+00  1.4875363908713D-01 -8.3040682741725D-01
109  1.0800000000000D+00  1.6281966946793D-01 -8.2869840965176D-01
110  1.0900000000000D+00  1.7151407774087D-01 -8.1362274353510D-01
111  1.1000000000000D+00  1.7516896045343D-01 -7.8630306143564D-01
112  1.1100000000000D+00  1.7420120829194D-01 -7.4806202322507D-01
113  1.1200000000000D+00  1.6910156133855D-01 -7.0039374783277D-01
114  1.1300000000000D+00  1.6042241385942D-01 -6.4493287741130D-01
115  1.1400000000000D+00  1.4876462326556D-01 -5.8342129482307D-01
116  1.1500000000000D+00  1.3476359344622D-01 -5.1767315228183D-01
117  1.1600000000000D+00  1.1907492160053D-01 -4.4953891390322D-01
118  1.1700000000000D+00  1.0235990489728D-01 -3.8086913303885D-01
119  1.1800000000000D+00  8.5271202628175D-02 -3.1347868080375D-01
120  1.1900000000000D+00  6.8438847724736D-02 -2.4911185965733D-01
121  1.2000000000000D+00  5.2457330053149D-02 -1.8941031815974D-01
122  1.2100000000000D+00  3.7873265137912D-02 -1.3588230146261D-01
123  1.2200000000000D+00  2.5175269806625D-02 -8.9880440608258D-02
124  1.2300000000000D+00  1.4764546894419D-02 -5.2510183554845D-02
125  1.2400000000000D+00  6.9209549819061D-03 -2.4521769683310D-02
126  1.2500000000000D+00  2.1053008914464D-03 -7.3761502116645D-03
127  1.2600000000000D+00  1.4284919297057D-04 -3.9417558265531D-04
128  1.2700000000000D+00 -1.3619450432936D-04  5.3264884639769D-04
129  1.2800000000000D+00  3.6657391976653D-05 -1.3950383083461D-04
130  1.2900000000000D+00  1.7191556586666D-05 -6.4764359346745D-05
131  1.3000000000000D+00 -8.8205275034019D-06  3.3969480778946D-05
132  1.3100000000000D+00 -4.2349872200033D-08 -1.9983991666431D-08
133  1.3200000000000D+00 -4.3118789400472D-08 -2.0346827116163D-08
134  1.3300000000000D+00  0.0000000000000D+00  0.0000000000000D+00
135  1.3400000000000D+00  0.0000000000000D+00  0.0000000000000D+00
136  1.3500000000000D+00  0.0000000000000D+00  0.0000000000000D+00
137  1.3600000000000D+00  0.0000000000000D+00  0.0000000000000D+00
138  1.3700000000000D+00  0.0000000000000D+00  0.0000000000000D+00
139  1.3800000000000D+00  0.0000000000000D+00  0.0000000000000D+00
140  1.3900000000000D+00  0.0000000000000D+00  0.0000000000000D+00
141  1.4000000000000D+00  0.0000000000000D+00  0.0000000000000D+00
142  1.4100000000000D+00  0.0000000000000D+00  0.0000000000000D+00
143  1.4200000000000D+00  0.0000000000000D+00  0.0000000000000D+00
144  1.4300000000000D+00  0.0000000000000D+00  0.0000000000000D+00
145  1.4400000000000D+00  0.0000000000000D+00  0.0000000000000D+00
146  1.4500000000000D+00  0.0000000000000D+00  0.0000000000000D+00
147  1.4600000000000D+00  0.0000000000000D+00  0.0000000000000D+00
148  1.4700000000000D+00  0.0000000000000D+00  0.0000000000000D+00
149  1.4800000000000D+00  0.0000000000000D+00  0.0000000000000D+00
150  1.4900000000000D+00  0.0000000000000D+00  0.0000000000000D+00
151  1.5000000000000D+00  0.0000000000000D+00  0.0000000000000D+00
152  1.5100000000000D+00  0.0000000000000D+00  0.0000000000000D+00
153  1.5200000000000D+00  0.0000000000000D+00  0.0000000000000D+00
154  1.5300000000000D+00  0.0000000000000D+00  0.0000000000000D+00
155  1.5400000000000D+00  0.0000000000000D+00  0.0000000000000D+00
156  1.5500000000000D+00  0.0000000000000D+00  0.0000000000000D+00
157  1.5600000000000D+00  0.0000000000000D+00  0.0000000000000D+00
158  1.5700000000000D+00  0.0000000000000D+00  0.0000000000000D+00
159  1.5800000000000D+00  0.0000000000000D+00  0.0000000000000D+00
160  1.5900000000000D+00  0.0000000000000D+00  0.0000000000000D+00
161  1.6000000000000D+00  0.0000000000000D+00  0.0000000000000D+00
162  1.6100000000000D+00  0.0000000000000D+00  0.0000000000000D+00
163  1.6200000000000D+00  0.0000000000000D+00  0.0000000000000D+00
164  1.6300000000000D+00  0.0000000000000D+00  0.0000000000000D+00
165  1.6400000000000D+00  0.0000000000000D+00  0.0000000000000D+00
166  1.6500000000000D+00  0.0000000000000D+00  0.0000000000000D+00
167  1.6600000000000D+00  0.0000000000000D+00  0.0000000000000D+00
168  1.6700000000000D+00  0.0000000000000D+00  0.0000000000000D+00
169  1.6800000000000D+00  0.0000000000000D+00  0.0000000000000D+00
170  1.6900000000000D+00  0.0000000000000D+00  0.0000000000000D+00
171  1.7000000000000D+00  0.0000000000000D+00  0.0000000000000D+00
172  1.7100000000000D+00  0.0000000000000D+00  0.0000000000000D+00
173  1.7200000000000D+00  0.0000000000000D+00  0.0000000000000D+00
174  1.7300000000000D+00  0.0000000000000D+00  0.0000000000000D+00
175  1.7400000000000D+00  0.0000000000000D+00  0.0000000000000D+00
176  1.7500000000000D+00  0.0000000000000D+00  0.0000000000000D+00
177  1.7600000000000D+00  0.0000000000000D+00  0.0000000000000D+00
178  1.7700000000000D+00  0.0000000000000D+00  0.0000000000000D+00
179  1.7800000000000D+00  0.0000000000000D+00  0.0000000000000D+00
180  1.7900000000000D+00  0.0000000000000D+00  0.0000000000000D+00
181  1.8000000000000D+00  0.0000000000000D+00  0.0000000000000D+00
182  1.8100000000000D+00  0.0000000000000D+00  0.0000000000000D+00
183  1.8200000000000D+00  0.0000000000000D+00  0.0000000000000D+00
184  1.8300000000000D+00  0.0000000000000D+00  0.0000000000000D+00
185  1.8400000000000D+00  0.0000000000000D+00  0.0000000000000D+00
186  1.8500000000000D+00  0.0000000000000D+00  0.0000000000000D+00
187  1.8600000000000D+00  0.0000000000000D+00  0.0000000000000D+00
188  1.8700000000000D+00  0.0000000000000D+00  0.0000000000000D+00
189  1.8800000000000D+00  0.0000000000000D+00  0.0000000000000D+00
190  1.8900000000000D+00  0.0000000000000D+00  0.0000000000000D+00
191  1.9000000000000D+00  0.0000000000000D+00  0.0000000000000D+00
192  1.9100000000000D+00  0.0000000000000D+00  0.0000000000000D+00
193  1.9200000000000D+00  0.0000000000000D+00  0.0000000000000D+00
194  1.9300000000000D+00  0.0000000000000D+00  0.0000000000000D+00
195  1.9400000000000D+00  0.0000000000000D+00  0.0000000000000D+00
196  1.9500000000000D+00  0.0000000000000D+00  0.0000000000000D+00
197  1.9600000000000D+00  0.0000000000000D+00  0.0000000000000D+00
198  1.9700000000000D+00  0.0000000000000D+00  0.0000000000000D+00
199  1.9800000000000D+00  0.0000000000000D+00  0.0000000000000D+00
200  1.9900000000000D+00  0.0000000000000D+00  0.0000000000000D+00
201  2.0000000000000D+00  0.0000000000000D+00  0.0000000000000D+00
202  2.0100000000000D+00  0.0000000000000D+00  0.0000000000000D+00
203  2.0200000000000D+00  0.0000000000000D+00  0.0000000000000D+00
204  2.0300000000000D+00  0.0000000000000D+00  0.0000000000000D+00
205  2.0400000000000D+00  0.0000000000000D+00  0.0000000000000D+00
206  2.0500000000000D+00  0.0000000000000D+00  0.0000000000000D+00
207  2.0600000000000D+00  0.0000000000000D+00  0.0000000000000D+00
208  2.0700000000000D+00  0.0000000000000D+00  0.0000000000000D+00
209  2.0800000000000D+00  0.0000000000000D+00  0.0000000000000D+00
210  2.0900000000000D+00  0.0000000000000D+00  0.0000000000000D+00
211  2.1000000000000D+00  0.0000000000000D+00  0.0000000000000D+00
212  2.1100000000000D+00  0.0000000000000D+00  0.0000000000000D+00
213  2.1200000000000D+00  0.0000000000000D+00  0.0000000000000D+00
214  2.1300000000000D+00  0.0000000000000D+00  0.0000000000000D+00
215  2.1400000000000D+00  0.0000000000000D+00  0.0000000000000D+00
216  2.1500000000000D+00  0.0000000000000D+00  0.0000000000000D+00
217  2.1600000000000D+00  0.0000000000000D+00  0.0000000000000D+00
218  2.1700000000000D+00  0.0000000000000D+00  0.0000000000000D+00
219  2.1800000000000D+00  0.0000000000000D+00  0.0000000000000D+00
220  2.1900000000000D+00  0.0000000000000D+00  0.0000000000000D+00
221  2.2000000000000D+00  0.0000000000000D+00  0.0000000000000D+00
222  2.2100000000000D+00  0.0000000000000D+00  0.0000000000000D+00
223  2.2200000000000D+00  0.0000000000000D+00  0.0000000000000D+00
224  2.2300000000000D+00  0.0000000000000D+00  0.0000000000000D+00
225  2.2400000000000D+00  0.0000000000000D+00  0.0000000000000D+00
226  2.2500000000000D+00  0.0000000000000D+00  0.0000000000000D+00
227  2.2600000000000D+00  0.0000000000000D+00  0.0000000000000D+00
228  2.2700000000000D+00  0.0000000000000D+00  0.0000000000000D+00
229  2.2800000000000D+00  0.0000000000000D+00  0.0000000000000D+00
230  2.2900000000000D+00  0.0000000000000D+00  0.0000000000000D+00
231  2.3000000000000D+00  0.0000000000000D+00  0.0000000000000D+00
232  2.3100000000000D+00  0.0000000000000D+00  0.0000000000000D+00
233  2.3200000000000D+00  0.0000000000000D+00  0.0000000000000D+00
234  2.3300000000000D+00  0.0000000000000D+00  0.0000000000000D+00
235  2.3400000000000D+00  0.0000000000000D+00  0.0000000000000D+00
236  2.3500000000000D+00  0.0000000000000D+00  0.0000000000000D+00
237  2.3600000000000D+00  0.0000000000000D+00  0.0000000000000D+00
238  2.3700000000000D+00  0.0000000000000D+00  0.0000000000000D+00
239  2.3800000000000D+00  0.0000000000000D+00  0.0000000000000D+00
240  2.3900000000000D+00  0.0000000000000D+00  0.0000000000000D+00
241  2.4000000000000D+00  0.0000000000000D+00  0.0000000000000D+00
242  2.4100000000000D+00  0.0000000000000D+00  0.0000000000000D+00
243  2.4200000000000D+00  0.0000000000000D+00  0.0000000000000D+00
244  2.4300000000000D+00  0.0000000000000D+00  0.0000000000000D+00
245  2.4400000000000D+00  0.0000000000000D+00  0.0000000000000D+00
246  2.4500000000000D+00  0.0000000000000D+00  0.0000000000000D+00
247  2.4600000000000D+00  0.0000000000000D+00  0.0000000000000D+00
248  2.4700000000000D+00  0.0000000000000D+00  0.0000000000000D+00
249  2.4800000000000D+00  0.0000000000000D+00  0.0000000000000D+00
250  2.4900000000000D+00  0.0000000000000D+00  0.0000000000000D+00
251  2.5000000000000D+00  0.0000000000000D+00  0.0000000000000D+00
252  2.5100000000000D+00  0.0000000000000D+00  0.0000000000000D+00
253  2.5200000000000D+00  0.0000000000000D+00  0.0000000000000D+00
254  2.5300000000000D+00  0.0000000000000D+00  0.0000000000000D+00
255  2.5400000000000D+00  0.0000000000000D+00  0.0000000000000D+00
256  2.5500000000000D+00  0.0000000000000D+00  0.0000000000000D+00
257  2.5600000000000D+00  0.0000000000000D+00  0.0000000000000D+00
258  2.5700000000000D+00  0.0000000000000D+00  0.0000000000000D+00
259  2.5800000000000D+00  0.0000000000000D+00  0.0000000000000D+00
260  2.5900000000000D+00  0.0000000000000D+00  0.0000000000000D+00
261  2.6000000000000D+00  0.0000000000000D+00  0.0000000000000D+00
262  2.6100000000000D+00  0.0000000000000D+00  0.0000000000000D+00
263  2.6200000000000D+00  0.0000000000000D+00  0.0000000000000D+00
264  2.6300000000000D+00  0.0000000000000D+00  0.0000000000000D+00
265  2.6400000000000D+00  0.0000000000000D+00  0.0000000000000D+00
266  2.6500000000000D+00  0.0000000000000D+00  0.0000000000000D+00
267  2.6600000000000D+00  0.0000000000000D+00  0.0000000000000D+00
268  2.6700000000000D+00  0.0000000000000D+00  0.0000000000000D+00
269  2.6800000000000D+00  0.0000000000000D+00  0.0000000000000D+00
270  2.6900000000000D+00  0.0000000000000D+00  0.0000000000000D+00
271  2.7000000000000D+00  0.0000000000000D+00  0.0000000000000D+00
272  2.7100000000000D+00  0.0000000000000D+00  0.0000000000000D+00
273  2.7200000000000D+00  0.0000000000000D+00  0.0000000000000D+00
274  2.7300000000000D+00  0.0000000000000D+00  0.0000000000000D+00
275  2.7400000000000D+00  0.0000000000000D+00  0.0000000000000D+00
276  2.7500000000000D+00  0.0000000000000D+00  0.0000000000000D+00
277  2.7600000000000D+00  0.0000000000000D+00  0.0000000000000D+00
278  2.7700000000000D+00  0.0000000000000D+00  0.0000000000000D+00
279  2.7800000000000D+00  0.0000000000000D+00  0.0000000000000D+00
280  2.7900000000000D+00  0.0000000000000D+00  0.0000000000000D+00
281  2.8000000000000D+00  0.0000000000000D+00  0.0000000000000D+00
282  2.8100000000000D+00  0.0000000000000D+00  0.0000000000000D+00
283  2.8200000000000D+00  0.0000000000000D+00  0.0000000000000D+00
284  2.8300000000000D+00  0.0000000000000D+00  0.0000000000000D+00
285  2.8400000000000D+00  0.0000000000000D+00  0.0000000000000D+00
286  2.8500000000000D+00  0.0000000000000D+00  0.0000000000000D+00
287  2.8600000000000D+00  0.0000000000000D+00  0.0000000000000D+00
288  2.8700000000000D+00  0.0000000000000D+00  0.0000000000000D+00
289  2.8800000000000D+00  0.0000000000000D+00  0.0000000000000D+00
290  2.8900000000000D+00  0.0000000000000D+00  0.0000000000000D+00
291  2.9000000000000D+00  0.0000000000000D+00  0.0000000000000D+00
292  2.9100000000000D+00  0.0000000000000D+00  0.0000000000000D+00
293  2.9200000000000D+00  0.0000000000000D+00  0.0000000000000D+00
294  2.9300000000000D+00  0.0000000000000D+00  0.0000000000000D+00
295  2.9400000000000D+00  0.0000000000000D+00  0.0000000000000D+00
296  2.9500000000000D+00  0.0000000000000D+00  0.0000000000000D+00
297  2.9600000000000D+00  0.0000000000000D+00  0.0000000000000D+00
298  2.9700000000000D+00  0.0000000000000D+00  0.0000000000000D+00
299  2.9800000000000D+00  0.0000000000000D+00  0.0000000000000D+00
300  2.9900000000000D+00  0.0000000000000D+00  0.0000000000000D+00
301  3.0000000000000D+00  0.0000000000000D+00  0.0000000000000D+00
302  3.0100000000000D+00  0.0000000000000D+00  0.0000000000000D+00
303  3.0200000000000D+00  0.0000000000000D+00  0.0000000000000D+00
304  3.0300000000000D+00  0.0000000000000D+00  0.0000000000000D+00
305  3.0400000000000D+00  0.0000000000000D+00  0.0000000000000D+00
306  3.0500000000000D+00  0.0000000000000D+00  0.0000000000000D+00
307  3.0600000000000D+00  0.0000000000000D+00  0.0000000000000D+00
308  3.0700000000000D+00  0.0000000000000D+00  0.0000000000000D+00
309  3.0800000000000D+00  0.0000000000000D+00  0.0000000000000D+00
310  3.0900000000000D+00  0.0000000000000D+00  0.0000000000000D+00
311  3.1000000000000D+00  0.0000000000000D+00  0.0000000000000D+00
312  3.1100000000000D+00  0.0000000000000D+00  0.0000000000000D+00
313  3.1200000000000D+00  0.0000000000000D+00  0.0000000000000D+00
314  3.1300000000000D+00  0.0000000000000D+00  0.0000000000000D+00
315  3.1400000000000D+00  0.0000000000000D+00  0.0000000000000D+00
316  3.1500000000000D+00  0.0000000000000D+00  0.0000000000000D+00
317  3.1600000000000D+00  0.0000000000000D+00  0.0000000000000D+00
318  3.1700000000000D+00  0.0000000000000D+00  0.0000000000000D+00
319  3.1800000000000D+00  0.0000000000000D+00  0.0000000000000D+00
320  3.1900000000000D+00  0.0000000000000D+00  0.0000000000000D+00
321  3.2000000000000D+00  0.0000000000000D+00  0.0000000000000D+00
322  3.2100000000000D+00  0.0000000000000D+00  0.0000000000000D+00
323  3.2200000000000D+00  0.0000000000000D+00  0.0000000000000D+00
324  3.2300000000000D+00  0.0000000000000D+00  0.0000000000000D+00
325  3.2400000000000D+00  0.0000000000000D+00  0.0000000000000D+00
326  3.2500000000000D+00  0.0000000000000D+00  0.0000000000000D+00
327  3.2600000000000D+00  0.0000000000000D+00  0.0000000000000D+00
328  3.2700000000000D+00  0.0000000000000D+00  0.0000000000000D+00
329  3.2800000000000D+00  0.0000000000000D+00  0.0000000000000D+00
330  3.2900000000000D+00  0.0000000000000D+00  0.0000000000000D+00
331  3.3000000000000D+00  0.0000000000000D+00  0.0000000000000D+00
332  3.3100000000000D+00  0.0000000000000D+00  0.0000000000000D+00
333  3.3200000000000D+00  0.0000000000000D+00  0.0000000000000D+00
334  3.3300000000000D+00  0.0000000000000D+00  0.0000000000000D+00
335  3.3400000000000D+00  0.0000000000000D+00  0.0000000000000D+00
336  3.3500000000000D+00  0.0000000000000D+00  0.0000000000000D+00
337  3.3600000000000D+00  0.0000000000000D+00  0.0000000000000D+00
338  3.3700000000000D+00  0.0000000000000D+00  0.0000000000000D+00
339  3.3800000000000D+00  0.0000000000000D+00  0.0000000000000D+00
340  3.3900000000000D+00  0.0000000000000D+00  0.0000000000000D+00
341  3.4000000000000D+00  0.0000000000000D+00  0.0000000000000D+00
342  3.4100000000000D+00  0.0000000000000D+00  0.0000000000000D+00
343  3.4200000000000D+00  0.0000000000000D+00  0.0000000000000D+00
344  3.4300000000000D+00  0.0000000000000D+00  0.0000000000000D+00
345  3.4400000000000D+00  0.0000000000000D+00  0.0000000000000D+00
346  3.4500000000000D+00  0.0000000000000D+00  0.0000000000000D+00
347  3.4600000000000D+00  0.0000000000000D+00  0.0000000000000D+00
348  3.4700000000000D+00  0.0000000000000D+00  0.0000000000000D+00
349  3.4800000000000D+00  0.0000000000000D+00  0.0000000000000D+00
350  3.4900000000000D+00  0.0000000000000D+00  0.0000000000000D+00
351  3.5000000000000D+00  0.0000000000000D+00  0.0000000000000D+00
352  3.5100000000000D+00  0.0000000000000D+00  0.0000000000000D+00
353  3.5200000000000D+00  0.0000000000000D+00  0.0000000000000D+00
354  3.5300000000000D+00  0.0000000000000D+00  0.0000000000000D+00
355  3.5400000000000D+00  0.0000000000000D+00  0.0000000000000D+00
356  3.5500000000000D+00  0.0000000000000D+00  0.0000000000000D+00
357  3.5600000000000D+00  0.0000000000000D+00  0.0000000000000D+00
358  3.5700000000000D+00  0.0000000000000D+00  0.0000000000000D+00
359  3.5800000000000D+00  0.0000000000000D+00  0.0000000000000D+00
360  3.5900000000000D+00  0.0000000000000D+00  0.0000000000000D+00
361  3.6000000000000D+00  0.0000000000000D+00  0.0000000000000D+00
362  3.6100000000000D+00  0.0000000000000D+00  0.0000000000000D+00
363  3.6200000000000D+00  0.0000000000000D+00  0.0000000000000D+00
364  3.6300000000000D+00  0.0000000000000D+00  0.0000000000000D+00
365  3.6400000000000D+00  0.0000000000000D+00  0.0000000000000D+00
366  3.6500000000000D+00  0.0000000000000D+00  0.0000000000000D+00
367  3.6600000000000D+00  0.0000000000000D+00  0.0000000000000D+00
368  3.6700000000000D+00  0.0000000000000D+00  0.0000000000000D+00
369  3.6800000000000D+00  0.0000000000000D+00  0.0000000000000D+00
370  3.6900000000000D+00  0.0000000000000D+00  0.0000000000000D+00
371  3.7000000000000D+00  0.0000000000000D+00  0.0000000000000D+00
372  3.7100000000000D+00  0.0000000000000D+00  0.0000000000000D+00
373  3.7200000000000D+00  0.0000000000000D+00  0.0000000000000D+00
374  3.7300000000000D+00  0.0000000000000D+00  0.0000000000000D+00
375  3.7400000000000D+00  0.0000000000000D+00  0.0000000000000D+00
376  3.7500000000000D+00  0.0000000000000D+00  0.0000000000000D+00
377  3.7600000000000D+00  0.0000000000000D+00  0.0000000000000D+00
378  3.7700000000000D+00  0.0000000000000D+00  0.0000000000000D+00
379  3.7800000000000D+00  0.0000000000000D+00  0.0000000000000D+00
380  3.7900000000000D+00  0.0000000000000D+00  0.0000000000000D+00
381  3.8000000000000D+00  0.0000000000000D+00  0.0000000000000D+00
382  3.8100000000000D+00  0.0000000000000D+00  0.0000000000000D+00
383  3.8200000000000D+00  0.0000000000000D+00  0.0000000000000D+00
384  3.8300000000000D+00  0.0000000000000D+00  0.0000000000000D+00
385  3.8400000000000D+00  0.0000000000000D+00  0.0000000000000D+00
386  3.8500000000000D+00  0.0000000000000D+00  0.0000000000000D+00
387  3.8600000000000D+00  0.0000000000000D+00  0.0000000000000D+00
388  3.8700000000000D+00  0.0000000000000D+00  0.0000000000000D+00
389  3.8800000000000D+00  0.0000000000000D+00  0.0000000000000D+00
390  3.8900000000000D+00  0.0000000000000D+00  0.0000000000000D+00
391  3.9000000000000D+00  0.0000000000000D+00  0.0000000000000D+00
392  3.9100000000000D+00  0.0000000000000D+00  0.0000000000000D+00
393  3.9200000000000D+00  0.0000000000000D+00  0.0000000000000D+00
394  3.9300000000000D+00  0.0000000000000D+00  0.0000000000000D+00
395  3.9400000000000D+00  0.0000000000000D+00  0.0000000000000D+00
396  3.9500000000000D+00  0.0000000000000D+00  0.0000000000000D+00
397  3.9600000000000D+00  0.0000000000000D+00  0.0000000000000D+00
398  3.9700000000000D+00  0.0000000000000D+00  0.0000000000000D+00
399  3.9800000000000D+00  0.0000000000000D+00  0.0000000000000D+00
400  3.9900000000000D+00  0.0000000000000D+00  0.0000000000000D+00
401  4.0000000000000D+00  0.0000000000000D+00  0.0000000000000D+00
402  4.0100000000000D+00  0.0000000000000D+00  0.0000000000000D+00
403  4.0200000000000D+00  0.0000000000000D+00  0.0000000000000D+00
404  4.0300000000000D+00  0.0000000000000D+00  0.0000000000000D+00
405  4.0400000000000D+00  0.0000000000000D+00  0.0000000000000D+00
406  4.0500000000000D+00  0.0000000000000D+00  0.0000000000000D+00
407  4.0600000000000D+00  0.0000000000000D+00  0.0000000000000D+00
408  4.0700000000000D+00  0.0000000000000D+00  0.0000000000000D+00
409  4.0800000000000D+00  0.0000000000000D+00  0.0000000000000D+00
410  4.0900000000000D+00  0.0000000000000D+00  0.0000000000000D+00
411  4.1000000000000D+00  0.0000000000000D+00  0.0000000000000D+00
412  4.1100000000000D+00  0.0000000000000D+00  0.0000000000000D+00
413  4.1200000000000D+00  0.0000000000000D+00  0.0000000000000D+00
414  4.1300000000000D+00  0.0000000000000D+00  0.0000000000000D+00
415  4.1400000000000D+00  0.0000000000000D+00  0.0000000000000D+00
416  4.1500000000000D+00  0.0000000000000D+00  0.0000000000000D+00
417  4.1600000000000D+00  0.0000000000000D+00  0.0000000000000D+00
418  4.1700000000000D+00  0.0000000000000D+00  0.0000000000000D+00
419  4.1800000000000D+00  0.0000000000000D+00  0.0000000000000D+00
420  4.1900000000000D+00  0.0000000000000D+00  0.0000000000000D+00
421  4.2000000000000D+00  0.0000000000000D+00  0.0000000000000D+00
422  4.2100000000000D+00  0.0000000000000D+00  0.0000000000000D+00
423  4.2200000000000D+00  0.0000000000000D+00  0.0000000000000D+00
424  4.2300000000000D+00  0.0000000000000D+00  0.0000000000000D+00
425  4.2400000000000D+00  0.0000000000000D+00  0.0000000000000D+00
426  4.2500000000000D+00  0.0000000000000D+00  0.0000000000000D+00
427  4.2600000000000D+00  0.0000000000000D+00  0.0000000000000D+00
428  4.2700000000000D+00  0.0000000000000D+00  0.0000000000000D+00
429  4.2800000000000D+00  0.0000000000000D+00  0.0000000000000D+00
430  4.2900000000000D+00  0.0000000000000D+00  0.0000000000000D+00
431  4.3000000000000D+00  0.0000000000000D+00  0.0000000000000D+00
432  4.3100000000000D+00  0.0000000000000D+00  0.0000000000000D+00
433  4.3200000000000D+00  0.0000000000000D+00  0.0000000000000D+00
434  4.3300000000000D+00  0.0000000000000D+00  0.0000000000000D+00
435  4.3400000000000D+00  0.0000000000000D+00  0.0000000000000D+00
436  4.3500000000000D+00  0.0000000000000D+00  0.0000000000000D+00
437  4.3600000000000D+00  0.0000000000000D+00  0.0000000000000D+00
438  4.3700000000000D+00  0.0000000000000D+00  0.0000000000000D+00
439  4.3800000000000D+00  0.0000000000000D+00  0.0000000000000D+00
440  4.3900000000000D+00  0.0000000000000D+00  0.0000000000000D+00
441  4.4000000000000D+00  0.0000000000000D+00  0.0000000000000D+00
442  4.4100000000000D+00  0.0000000000000D+00  0.0000000000000D+00
443  4.4200000000000D+00  0.0000000000000D+00  0.0000000000000D+00
444  4.4300000000000D+00  0.0000000000000D+00  0.0000000000000D+00