Sm    ONCVPSP-3.3.0  r_core=   2.11541   1.90007   1.90007   2.41202
62.0000     11.0000      180112    zatom,zion,pspd
8 -116133   3     4   600     0    pspcod,pspxc,lmax,lloc,mmax,r2well
5.99000000  5.40000000  0.00000000    rchrg fchrg qchrg
2     2     2     1     0    nproj
1     1           extension_switch
0                         5.0467627276657D+00 -7.1695509927932D-02
1  0.0000000000000D+00 -7.1163630543936D-12 -1.1285061773947D-10
2  1.0000000000000D-02  4.9368441033105D-02  4.4075793139232D-02
3  2.0000000000000D-02  9.8669195277560D-02  8.7979497065280D-02
4  3.0000000000000D-02  1.4783471873314D-01  1.3153983125733D-01
5  4.0000000000000D-02  1.9679775254167D-01  1.7458712801238D-01
6  5.0000000000000D-02  2.4549146447278D-01  2.1695412746555D-01
7  6.0000000000000D-02  2.9384958911249D-01  2.5847675902406D-01
8  7.0000000000000D-02  3.4180656633042D-01  2.9899490481916D-01
9  8.0000000000000D-02  3.8929767760879D-01  3.3835314089294D-01
10  9.0000000000000D-02  4.3625917982505D-01  3.7640145197652D-01
11  1.0000000000000D-01  4.8262843609046D-01  4.1299591588166D-01
12  1.1000000000000D-01  5.2834404325922D-01  4.4799935371806D-01
13  1.2000000000000D-01  5.7334595573601D-01  4.8128194236211D-01
14  1.3000000000000D-01  6.1757560522535D-01  5.1272178583902D-01
15  1.4000000000000D-01  6.6097601608250D-01  5.4220544253613D-01
16  1.5000000000000D-01  7.0349191594332D-01  5.6962840544105D-01
17  1.6000000000000D-01  7.4506984132995D-01  5.9489553288950D-01
18  1.7000000000000D-01  7.8565823794898D-01  6.1792142761602D-01
19  1.8000000000000D-01  8.2520755542033D-01  6.3863076222024D-01
20  1.9000000000000D-01  8.6367033619687D-01  6.5695854949329D-01
21  2.0000000000000D-01  9.0100129845817D-01  6.7285035638849D-01
22  2.1000000000000D-01  9.3715741278509D-01  6.8626246076780D-01
23  2.2000000000000D-01  9.7209797244635D-01  6.9716195040548D-01
24  2.3000000000000D-01  1.0057846571528D+00  7.0552676408459D-01
25  2.4000000000000D-01  1.0381815901605D+00  7.1134567497304D-01
26  2.5000000000000D-01  1.0692553886282D+00  7.1461821681795D-01
27  2.6000000000000D-01  1.0989752071613D+00  7.1535455384020D-01
28  2.7000000000000D-01  1.1273127744987D+00  7.1357529555090D-01
29  2.8000000000000D-01  1.1542424233249D+00  7.0931125803941D-01
30  2.9000000000000D-01  1.1797411132137D+00  7.0260317360041D-01
31  3.0000000000000D-01  1.2037884467361D+00  6.9350135087214D-01
32  3.1000000000000D-01  1.2263666787871D+00  6.8206528794586D-01
33  3.2000000000000D-01  1.2474607192111D+00  6.6836324117928D-01
34  3.3000000000000D-01  1.2670581288269D+00  6.5247175269953D-01
35  3.4000000000000D-01  1.2851491089783D+00  6.3447513981319D-01
36  3.5000000000000D-01  1.3017264847525D+00  6.1446494975263D-01
37  3.6000000000000D-01  1.3167856820340D+00  5.9253938337522D-01
38  3.7000000000000D-01  1.3303246985764D+00  5.6880269159513D-01
39  3.8000000000000D-01  1.3423440692953D+00  5.4336454846658D-01
40  3.9000000000000D-01  1.3528468260007D+00  5.1633940494967D-01
41  4.0000000000000D-01  1.3618384518036D+00  4.8784582747478D-01
42  4.1000000000000D-01  1.3693268304442D+00  4.5800582548275D-01
43  4.2000000000000D-01  1.3753221908043D+00  4.2694417214716D-01
44  4.3000000000000D-01  1.3798370468759D+00  3.9478772249140D-01
45  4.4000000000000D-01  1.3828861334680D+00  3.6166473308986D-01
46  4.5000000000000D-01  1.3844863379434D+00  3.2770418749266D-01
47  4.6000000000000D-01  1.3846566282835D+00  2.9303513143750D-01
48  4.7000000000000D-01  1.3834179777838D+00  2.5778602181102D-01
49  4.8000000000000D-01  1.3807932866891D+00  2.2208409319415D-01
50  4.9000000000000D-01  1.3768073010779D+00  1.8605474567591D-01
51  5.0000000000000D-01  1.3714865293080D+00  1.4982095744635D-01
52  5.1000000000000D-01  1.3648591563336D+00  1.1350272548341D-01
53  5.2000000000000D-01  1.3569549562062D+00  7.7216537434085D-02
54  5.3000000000000D-01  1.3478052030625D+00  4.1074877554357D-02
55  5.4000000000000D-01  1.3374425809061D+00  5.1857693230224D-03
56  5.5000000000000D-01  1.3259010924761D+00 -3.0347642924056D-02
57  5.6000000000000D-01  1.3132159674973D+00 -6.5427471271551D-02
58  5.7000000000000D-01  1.2994235705919D+00 -9.9961418638258D-02
59  5.8000000000000D-01  1.2845613091282D+00 -1.3386306885280D-01
60  5.9000000000000D-01  1.2686675412712D+00 -1.6705213122586D-01
61  6.0000000000000D-01  1.2517814844880D+00 -1.9945463876715D-01
62  6.1000000000000D-01  1.2339431247518D+00 -2.3100309951451D-01
63  6.2000000000000D-01  1.2151931266738D+00 -2.6163660075990D-01
64  6.3000000000000D-01  1.1955727447814D+00 -2.9130086627579D-01
65  6.4000000000000D-01  1.1751237361468D+00 -3.1994826696188D-01
66  6.5000000000000D-01  1.1538882745575D+00 -3.4753778563950D-01
67  6.6000000000000D-01  1.1319088664037D+00 -3.7403493702740D-01
68  6.7000000000000D-01  1.1092282684466D+00 -3.9941164422499D-01
69  6.8000000000000D-01  1.0858894076144D+00 -4.2364607331268D-01
70  6.9000000000000D-01  1.0619353029585D+00 -4.4672242795103D-01
71  7.0000000000000D-01  1.0374089898899D+00 -4.6863070611499D-01
72  7.1000000000000D-01  1.0123534467975D+00 -4.8936642134200D-01
73  7.2000000000000D-01  9.8681152413985D-01 -5.0893029109305D-01
74  7.3000000000000D-01  9.6082587608380D-01 -5.2732789503296D-01
75  7.4000000000000D-01  9.3443889475230D-01 -5.4456930621717D-01
76  7.5000000000000D-01  9.0769264712909D-01 -5.6066869833686D-01
77  7.6000000000000D-01  8.8062881465495D-01 -5.7564393231420D-01
78  7.7000000000000D-01  8.5328863553810D-01 -5.8951612565617D-01
79  7.8000000000000D-01  8.2571284978902D-01 -6.0230920807015D-01
80  7.9000000000000D-01  7.9794164697896D-01 -6.1404946691366D-01
81  8.0000000000000D-01  7.7001461671059D-01 -6.2476508609471D-01
82  8.1000000000000D-01  7.4197070177951D-01 -6.3448568206071D-01
83  8.2000000000000D-01  7.1384815399610D-01 -6.4324184050760D-01
84  8.3000000000000D-01  6.8568449262890D-01 -6.5106465741340D-01
85  8.4000000000000D-01  6.5751646542304D-01 -6.5798528794444D-01
86  8.5000000000000D-01  6.2938001214075D-01 -6.6403450670698D-01
87  8.6000000000000D-01  6.0131023056485D-01 -6.6924228271419D-01
88  8.7000000000000D-01  5.7334134490125D-01 -6.7363737231617D-01
89  8.8000000000000D-01  5.4550667651212D-01 -6.7724693319470D-01
90  8.9000000000000D-01  5.1783861690832D-01 -6.8009616235865D-01
91  9.0000000000000D-01  4.9036860292674D-01 -6.8220796089082D-01
92  9.1000000000000D-01  4.6312709401675D-01 -6.8360262799281D-01
93  9.2000000000000D-01  4.3614355155888D-01 -6.8429758665515D-01
94  9.3000000000000D-01  4.0944642013859D-01 -6.8430714304308D-01
95  9.4000000000000D-01  3.8306311069865D-01 -6.8364228143966D-01
96  9.5000000000000D-01  3.5701998549449D-01 -6.8231049632696D-01
97  9.6000000000000D-01  3.3134234477911D-01 -6.8031566291119D-01
98  9.7000000000000D-01  3.0605441514612D-01 -6.7765794712528D-01
99  9.8000000000000D-01  2.8117933946262D-01 -6.7433375584630D-01
100  9.9000000000000D-01  2.5673916832702D-01 -6.7033572777999D-01
101  1.0000000000000D+00  2.3275485299054D-01 -6.6565276516942D-01
102  1.0100000000000D+00  2.0924623968555D-01 -6.6027010618950D-01
103  1.0200000000000D+00  1.8623206530813D-01 -6.5416943759737D-01
104  1.0300000000000D+00  1.6372995440736D-01 -6.4732904691038D-01
105  1.0400000000000D+00  1.4175641743808D-01 -6.3972401311714D-01
106  1.0500000000000D+00  1.2032685023958D-01 -6.3132643462624D-01
107  1.0600000000000D+00  9.9455534707323D-02 -6.2210569290188D-01
108  1.0700000000000D+00  7.9155640629929D-02 -6.1202874997392D-01
109  1.0800000000000D+00  5.9439228668853D-02 -6.0106047775636D-01
110  1.0900000000000D+00  4.0317254462564D-02 -5.8916401689318D-01
111  1.1000000000000D+00  2.1799573842113D-02 -5.7630116261503D-01
112  1.1100000000000D+00  3.8949491492644D-03 -5.6243277489659D-01
113  1.1200000000000D+00 -1.3388943347583D-02 -5.4751921002382D-01
114  1.1300000000000D+00 -3.0045504940641D-02 -5.3152077051600D-01
115  1.1400000000000D+00 -4.6069204871026D-02 -5.1439817021557D-01
116  1.1500000000000D+00 -6.1455569612485D-02 -4.9611301121542D-01
117  1.1600000000000D+00 -7.6201171042968D-02 -4.7662826921421D-01
118  1.1700000000000D+00 -9.0303613494480D-02 -4.5590878381279D-01
119  1.1800000000000D+00 -1.0376151967012D-01 -4.3392175020646D-01
120  1.1900000000000D+00 -1.1657451541629D-01 -4.1063720869608D-01
121  1.2000000000000D+00 -1.2874321333818D-01 -3.8602852845443D-01
122  1.2100000000000D+00 -1.4026919524667D-01 -3.6007288198197D-01
123  1.2200000000000D+00 -1.5115499342549D-01 -3.3275170673476D-01
124  1.2300000000000D+00 -1.6140407070986D-01 -3.0405115049226D-01
125  1.2400000000000D+00 -1.7102079936932D-01 -2.7396249710328D-01
126  1.2500000000000D+00 -1.8001043878954D-01 -2.4248256933625D-01
127  1.2600000000000D+00 -1.8837911195295D-01 -2.0961410576087D-01
128  1.2700000000000D+00 -1.9613378072103D-01 -1.7536610870097D-01
129  1.2800000000000D+00 -2.0328221992329D-01 -1.3975416040088D-01
130  1.2900000000000D+00 -2.0983299026727D-01 -1.0280070490394D-01
131  1.3000000000000D+00 -2.1579541008626D-01 -6.4535293229410D-02
132  1.3100000000000D+00 -2.2117952594480D-01 -2.4994789583457D-02
133  1.3200000000000D+00 -2.2599608213548D-01  1.5776463156942D-02
134  1.3300000000000D+00 -2.3025648909923D-01  5.7726520480314D-02
135  1.3400000000000D+00 -2.3397279080973D-01  1.0079575727654D-01
136  1.3500000000000D+00 -2.3715763117653D-01  1.4491683379798D-01
137  1.3600000000000D+00 -2.3982421951509D-01  1.9001470772167D-01
138  1.3700000000000D+00 -2.4198629515030D-01  2.3600669277316D-01
139  1.3800000000000D+00 -2.4365809122665D-01  2.8280256409648D-01
140  1.3900000000000D+00 -2.4485429779126D-01  3.3030471084916D-01
141  1.4000000000000D+00 -2.4559002424540D-01  3.7840833530373D-01
142  1.4100000000000D+00 -2.4588076124622D-01  4.2700169829566D-01
143  1.4200000000000D+00 -2.4574234215550D-01  4.7596641026027D-01
144  1.4300000000000D+00 -2.4519090414543D-01  5.2517776649315D-01
145  1.4400000000000D+00 -2.4424284905533D-01  5.7450512600642D-01
146  1.4500000000000D+00 -2.4291480412680D-01  6.2381233183996D-01
147  1.4600000000000D+00 -2.4122358272347D-01  6.7295817161518D-01
148  1.4700000000000D+00 -2.3918614516185D-01  7.2179687624763D-01
149  1.4800000000000D+00 -2.3681955977683D-01  7.7017865466155D-01
150  1.4900000000000D+00 -2.3414096434619D-01  8.1795026259010D-01
151  1.5000000000000D+00 -2.3116752800540D-01  8.6495560267422D-01
152  1.5100000000000D+00 -2.2791641377968D-01  9.1103635382820D-01
153  1.5200000000000D+00 -2.2440474186331D-01  9.5603262694541D-01
154  1.5300000000000D+00 -2.2064955377311D-01  9.9978364459958D-01
155  1.5400000000000D+00 -2.1666777750584D-01  1.0421284418858D+00
156  1.5500000000000D+00 -2.1247619381358D-01  1.0829065859574D+00
157  1.5600000000000D+00 -2.0809140373440D-01  1.1219589113237D+00
158  1.5700000000000D+00 -2.0352979746305D-01  1.1591282688132D+00
159  1.5800000000000D+00 -1.9880752471479D-01  1.1942602849498D+00
160  1.5900000000000D+00 -1.9394046662346D-01  1.2272041304382D+00
161  1.6000000000000D+00 -1.8894420934361D-01  1.2578132940900D+00
162  1.6100000000000D+00 -1.8383401935679D-01  1.2859463617618D+00
163  1.6200000000000D+00 -1.7862482064608D-01  1.3114677966327D+00
164  1.6300000000000D+00 -1.7333117371664D-01  1.3342487209676D+00
165  1.6400000000000D+00 -1.6796725660088D-01  1.3541676961223D+00
166  1.6500000000000D+00 -1.6254684780853D-01  1.3711115014148D+00
167  1.6600000000000D+00 -1.5708331132834D-01  1.3849759092551D+00
168  1.6700000000000D+00 -1.5158958362207D-01  1.3956664576678D+00
169  1.6800000000000D+00 -1.4607816268430D-01  1.4030992183175D+00
170  1.6900000000000D+00 -1.4056109908330D-01  1.4072015618209D+00
171  1.7000000000000D+00 -1.3504998902722D-01  1.4079129191062D+00
172  1.7100000000000D+00 -1.2955596933534D-01  1.4051855415055D+00
173  1.7200000000000D+00 -1.2408971433877D-01  1.3989852587832D+00
174  1.7300000000000D+00 -1.1866143454116D-01  1.3892922390358D+00
175  1.7400000000000D+00 -1.1328087705801D-01  1.3761017497725D+00
176  1.7500000000000D+00 -1.0795732760000D-01  1.3594249257740D+00
177  1.7600000000000D+00 -1.0269961402940D-01  1.3392895427364D+00
178  1.7700000000000D+00 -9.7516111175539D-02  1.3157408043505D+00
179  1.7800000000000D+00 -9.2414746963170D-02  1.2888421411435D+00
180  1.7900000000000D+00 -8.7403009451824D-02  1.2586760310281D+00
181  1.8000000000000D+00 -8.2487954871397D-02  1.2253448390290D+00
182  1.8100000000000D+00 -7.7676216171891D-02  1.1889716882398D+00
183  1.8200000000000D+00 -7.2974012180156D-02  1.1497013592486D+00
184  1.8300000000000D+00 -6.8387156867558D-02  1.1077012304684D+00
185  1.8400000000000D+00 -6.3921068900362D-02  1.0631623447536D+00
186  1.8500000000000D+00 -5.9580780076341D-02  1.0163000943384D+00
187  1.8600000000000D+00 -5.5370944883123D-02  9.6735619247751D-01
188  1.8700000000000D+00 -5.1295848138571D-02  9.1659823198327D-01
189  1.8800000000000D+00 -4.7359409606775D-02  8.6432065060594D-01
190  1.8900000000000D+00 -4.3565194071579D-02  8.1085021919274D-01
191  1.9000000000000D+00 -3.9916426272833D-02  7.5654913335100D-01
192  1.9100000000000D+00 -3.6415957523457D-02  7.0179860530045D-01
193  1.9200000000000D+00 -3.3066229416166D-02  6.4699034649956D-01
194  1.9300000000000D+00 -2.9869327549205D-02  5.9251627945546D-01
195  1.9400000000000D+00 -2.6826993038470D-02  5.3875025482168D-01
196  1.9500000000000D+00 -2.3940683514342D-02  4.8604742413025D-01
197  1.9600000000000D+00 -2.1211651566402D-02  4.3474683611949D-01
198  1.9700000000000D+00 -1.8641014049814D-02  3.8517115580846D-01
199  1.9800000000000D+00 -1.6229797838942D-02  3.3762294675391D-01
200  1.9900000000000D+00 -1.3979002130859D-02  2.9238497090261D-01
201  2.0000000000000D+00 -1.1889649525917D-02  2.4971864193143D-01
202  2.0100000000000D+00 -9.9628364836413D-03  2.0986320402051D-01
203  2.0200000000000D+00 -8.1997794951004D-03  1.7303488109449D-01
204  2.0300000000000D+00 -6.6018576244268D-03  1.3942611090686D-01
205  2.0400000000000D+00 -5.1706512050146D-03  1.0920486471718D-01
206  2.0500000000000D+00 -3.9091151781045D-03  8.2537410559052D-02
207  2.0600000000000D+00 -2.8168552844028D-03  5.9490333915428D-02
208  2.0700000000000D+00 -1.8931766349214D-03  4.0086168912280D-02
209  2.0800000000000D+00 -1.1455853288530D-03  2.4494891345383D-02
210  2.0900000000000D+00 -5.8826973820689D-04  1.3001368458879D-02
211  2.1000000000000D+00 -2.2763538588636D-04  5.7217999325979D-03
212  2.1100000000000D+00 -3.2341615046477D-05  1.7831366675146D-03
213  2.1200000000000D+00  3.8281559335713D-05  1.3869953676932D-04
214  2.1300000000000D+00  3.3528071736448D-05 -2.1450384617382D-04
215  2.1400000000000D+00  2.4086168256343D-06 -2.0761812491324D-05
216  2.1500000000000D+00 -1.0856434238507D-05  1.0618589064724D-04
217  2.1600000000000D+00 -7.1747538900050D-06  7.5327767550035D-05
218  2.1700000000000D+00  1.0054131079148D-06 -7.7795085738065D-06
219  2.1800000000000D+00  2.0955534010146D-06 -1.7343138407308D-05
220  2.1900000000000D+00  5.8389285640834D-07 -5.0673280506606D-06
221  2.2000000000000D+00 -4.3908438792132D-08 -1.6405487845232D-06
222  2.2100000000000D+00 -4.3918415002911D-08 -1.6409215251835D-06
223  2.2200000000000D+00  0.0000000000000D+00  0.0000000000000D+00
224  2.2300000000000D+00  0.0000000000000D+00  0.0000000000000D+00
225  2.2400000000000D+00  0.0000000000000D+00  0.0000000000000D+00
226  2.2500000000000D+00  0.0000000000000D+00  0.0000000000000D+00
227  2.2600000000000D+00  0.0000000000000D+00  0.0000000000000D+00
228  2.2700000000000D+00  0.0000000000000D+00  0.0000000000000D+00
229  2.2800000000000D+00  0.0000000000000D+00  0.0000000000000D+00
230  2.2900000000000D+00  0.0000000000000D+00  0.0000000000000D+00
231  2.3000000000000D+00  0.0000000000000D+00  0.0000000000000D+00
232  2.3100000000000D+00  0.0000000000000D+00  0.0000000000000D+00
233  2.3200000000000D+00  0.0000000000000D+00  0.0000000000000D+00
234  2.3300000000000D+00  0.0000000000000D+00  0.0000000000000D+00
235  2.3400000000000D+00  0.0000000000000D+00  0.0000000000000D+00
236  2.3500000000000D+00  0.0000000000000D+00  0.0000000000000D+00
237  2.3600000000000D+00  0.0000000000000D+00  0.0000000000000D+00
238  2.3700000000000D+00  0.0000000000000D+00  0.0000000000000D+00
239  2.3800000000000D+00  0.0000000000000D+00  0.0000000000000D+00
240  2.3900000000000D+00  0.0000000000000D+00  0.0000000000000D+00
241  2.4000000000000D+00  0.0000000000000D+00  0.0000000000000D+00
242  2.4100000000000D+00  0.0000000000000D+00  0.0000000000000D+00
243  2.4200000000000D+00  0.0000000000000D+00  0.0000000000000D+00
244  2.4300000000000D+00  0.0000000000000D+00  0.0000000000000D+00
245  2.4400000000000D+00  0.0000000000000D+00  0.0000000000000D+00
246  2.4500000000000D+00  0.0000000000000D+00  0.0000000000000D+00
247  2.4600000000000D+00  0.0000000000000D+00  0.0000000000000D+00
248  2.4700000000000D+00  0.0000000000000D+00  0.0000000000000D+00
249  2.4800000000000D+00  0.0000000000000D+00  0.0000000000000D+00
250  2.4900000000000D+00  0.0000000000000D+00  0.0000000000000D+00
251  2.5000000000000D+00  0.0000000000000D+00  0.0000000000000D+00
252  2.5100000000000D+00  0.0000000000000D+00  0.0000000000000D+00
253  2.5200000000000D+00  0.0000000000000D+00  0.0000000000000D+00
254  2.5300000000000D+00  0.0000000000000D+00  0.0000000000000D+00
255  2.5400000000000D+00  0.0000000000000D+00  0.0000000000000D+00
256  2.5500000000000D+00  0.0000000000000D+00  0.0000000000000D+00
257  2.5600000000000D+00  0.0000000000000D+00  0.0000000000000D+00
258  2.5700000000000D+00  0.0000000000000D+00  0.0000000000000D+00
259  2.5800000000000D+00  0.0000000000000D+00  0.0000000000000D+00
260  2.5900000000000D+00  0.0000000000000D+00  0.0000000000000D+00
261  2.6000000000000D+00  0.0000000000000D+00  0.0000000000000D+00
262  2.6100000000000D+00  0.0000000000000D+00  0.0000000000000D+00
263  2.6200000000000D+00  0.0000000000000D+00  0.0000000000000D+00
264  2.6300000000000D+00  0.0000000000000D+00  0.0000000000000D+00
265  2.6400000000000D+00  0.0000000000000D+00  0.0000000000000D+00
266  2.6500000000000D+00  0.0000000000000D+00  0.0000000000000D+00
267  2.6600000000000D+00  0.0000000000000D+00  0.0000000000000D+00
268  2.6700000000000D+00  0.0000000000000D+00  0.0000000000000D+00
269  2.6800000000000D+00  0.0000000000000D+00  0.0000000000000D+00
270  2.6900000000000D+00  0.0000000000000D+00  0.0000000000000D+00
271  2.7000000000000D+00  0.0000000000000D+00  0.0000000000000D+00
272  2.7100000000000D+00  0.0000000000000D+00  0.0000000000000D+00
273  2.7200000000000D+00  0.0000000000000D+00  0.0000000000000D+00
274  2.7300000000000D+00  0.0000000000000D+00  0.0000000000000D+00
275  2.7400000000000D+00  0.0000000000000D+00  0.0000000000000D+00
276  2.7500000000000D+00  0.0000000000000D+00  0.0000000000000D+00
277  2.7600000000000D+00  0.0000000000000D+00  0.0000000000000D+00
278  2.7700000000000D+00  0.0000000000000D+00  0.0000000000000D+00
279  2.7800000000000D+00  0.0000000000000D+00  0.0000000000000D+00
280  2.7900000000000D+00  0.0000000000000D+00  0.0000000000000D+00
281  2.8000000000000D+00  0.0000000000000D+00  0.0000000000000D+00
282  2.8100000000000D+00  0.0000000000000D+00  0.0000000000000D+00
283  2.8200000000000D+00  0.0000000000000D+00  0.0000000000000D+00
284  2.8300000000000D+00  0.0000000000000D+00  0.0000000000000D+00
285  2.8400000000000D+00  0.0000000000000D+00  0.0000000000000D+00
286  2.8500000000000D+00  0.0000000000000D+00  0.0000000000000D+00
287  2.8600000000000D+00  0.0000000000000D+00  0.0000000000000D+00
288  2.8700000000000D+00  0.0000000000000D+00  0.0000000000000D+00
289  2.8800000000000D+00  0.0000000000000D+00  0.0000000000000D+00
290  2.8900000000000D+00  0.0000000000000D+00  0.0000000000000D+00
291  2.9000000000000D+00  0.0000000000000D+00  0.0000000000000D+00
292  2.9100000000000D+00  0.0000000000000D+00  0.0000000000000D+00
293  2.9200000000000D+00  0.0000000000000D+00  0.0000000000000D+00
294  2.9300000000000D+00  0.0000000000000D+00  0.0000000000000D+00
295  2.9400000000000D+00  0.0000000000000D+00  0.0000000000000D+00
296  2.9500000000000D+00  0.0000000000000D+00  0.0000000000000D+00
297  2.9600000000000D+00  0.0000000000000D+00  0.0000000000000D+00
298  2.9700000000000D+00  0.0000000000000D+00  0.0000000000000D+00
299  2.9800000000000D+00  0.0000000000000D+00  0.0000000000000D+00
300  2.9900000000000D+00  0.0000000000000D+00  0.0000000000000D+00
301  3.0000000000000D+00  0.0000000000000D+00  0.0000000000000D+00
302  3.0100000000000D+00  0.0000000000000D+00  0.0000000000000D+00
303  3.0200000000000D+00  0.0000000000000D+00  0.0000000000000D+00
304  3.0300000000000D+00  0.0000000000000D+00  0.0000000000000D+00
305  3.0400000000000D+00  0.0000000000000D+00  0.0000000000000D+00
306  3.0500000000000D+00  0.0000000000000D+00  0.0000000000000D+00
307  3.0600000000000D+00  0.0000000000000D+00  0.0000000000000D+00
308  3.0700000000000D+00  0.0000000000000D+00  0.0000000000000D+00
309  3.0800000000000D+00  0.0000000000000D+00  0.0000000000000D+00
310  3.0900000000000D+00  0.0000000000000D+00  0.0000000000000D+00
311  3.1000000000000D+00  0.0000000000000D+00  0.0000000000000D+00
312  3.1100000000000D+00  0.0000000000000D+00  0.0000000000000D+00
313  3.1200000000000D+00  0.0000000000000D+00  0.0000000000000D+00
314  3.1300000000000D+00  0.0000000000000D+00  0.0000000000000D+00
315  3.1400000000000D+00  0.0000000000000D+00  0.0000000000000D+00
316  3.1500000000000D+00  0.0000000000000D+00  0.0000000000000D+00
317  3.1600000000000D+00  0.0000000000000D+00  0.0000000000000D+00
318  3.1700000000000D+00  0.0000000000000D+00  0.0000000000000D+00
319  3.1800000000000D+00  0.0000000000000D+00  0.0000000000000D+00
320  3.1900000000000D+00  0.0000000000000D+00  0.0000000000000D+00
321  3.2000000000000D+00  0.0000000000000D+00  0.0000000000000D+00
322  3.2100000000000D+00  0.0000000000000D+00  0.0000000000000D+00
323  3.2200000000000D+00  0.0000000000000D+00  0.0000000000000D+00
324  3.2300000000000D+00  0.0000000000000D+00  0.0000000000000D+00
325  3.2400000000000D+00  0.0000000000000D+00  0.0000000000000D+00
326  3.2500000000000D+00  0.0000000000000D+00  0.0000000000000D+00
327  3.2600000000000D+00  0.0000000000000D+00  0.0000000000000D+00
328  3.2700000000000D+00  0.0000000000000D+00  0.0000000000000D+00
329  3.2800000000000D+00  0.0000000000000D+00  0.0000000000000D+00
330  3.2900000000000D+00  0.0000000000000D+00  0.0000000000000D+00
331  3.3000000000000D+00  0.0000000000000D+00  0.0000000000000D+00
332  3.3100000000000D+00  0.0000000000000D+00  0.0000000000000D+00
333  3.3200000000000D+00  0.0000000000000D+00  0.0000000000000D+00
334  3.3300000000000D+00  0.0000000000000D+00  0.0000000000000D+00
335  3.3400000000000D+00  0.0000000000000D+00  0.0000000000000D+00
336  3.3500000000000D+00  0.0000000000000D+00  0.0000000000000D+00
337  3.3600000000000D+00  0.0000000000000D+00  0.0000000000000D+00
338  3.3700000000000D+00  0.0000000000000D+00  0.0000000000000D+00
339  3.3800000000000D+00  0.0000000000000D+00  0.0000000000000D+00
340  3.3900000000000D+00  0.0000000000000D+00  0.0000000000000D+00
341  3.4000000000000D+00  0.0000000000000D+00  0.0000000000000D+00
342  3.4100000000000D+00  0.0000000000000D+00  0.0000000000000D+00
343  3.4200000000000D+00  0.0000000000000D+00  0.0000000000000D+00
344  3.4300000000000D+00  0.0000000000000D+00  0.0000000000000D+00
345  3.4400000000000D+00  0.0000000000000D+00  0.0000000000000D+00
346  3.4500000000000D+00  0.0000000000000D+00  0.0000000000000D+00
347  3.4600000000000D+00  0.0000000000000D+00  0.0000000000000D+00
348  3.4700000000000D+00  0.0000000000000D+00  0.0000000000000D+00
349  3.4800000000000D+00  0.0000000000000D+00  0.0000000000000D+00
350  3.4900000000000D+00  0.0000000000000D+00  0.0000000000000D+00
351  3.5000000000000D+00  0.0000000000000D+00  0.0000000000000D+00
352  3.5100000000000D+00  0.0000000000000D+00  0.0000000000000D+00
353  3.5200000000000D+00  0.0000000000000D+00  0.0000000000000D+00
354  3.5300000000000D+00  0.0000000000000D+00  0.0000000000000D+00
355  3.5400000000000D+00  0.0000000000000D+00  0.0000000000000D+00
356  3.5500000000000D+00  0.0000000000000D+00  0.0000000000000D+00
357  3.5600000000000D+00  0.0000000000000D+00  0.0000000000000D+00
358  3.5700000000000D+00  0.0000000000000D+00  0.0000000000000D+00
359  3.5800000000000D+00  0.0000000000000D+00  0.0000000000000D+00
360  3.5900000000000D+00  0.0000000000000D+00  0.0000000000000D+00
361  3.6000000000000D+00  0.0000000000000D+00  0.0000000000000D+00
362  3.6100000000000D+00  0.0000000000000D+00  0.0000000000000D+00
363  3.6200000000000D+00  0.0000000000000D+00  0.0000000000000D+00
364  3.6300000000000D+00  0.0000000000000D+00  0.0000000000000D+00
365  3.6400000000000D+00  0.0000000000000D+00  0.0000000000000D+00
366  3.6500000000000D+00  0.0000000000000D+00  0.0000000000000D+00
367  3.6600000000000D+00  0.0000000000000D+00  0.0000000000000D+00
368  3.6700000000000D+00  0.0000000000000D+00  0.0000000000000D+00
369  3.6800000000000D+00  0.0000000000000D+00  0.0000000000000D+00
370  3.6900000000000D+00  0.0000000000000D+00  0.0000000000000D+00
371  3.7000000000000D+00  0.0000000000000D+00  0.0000000000000D+00
372  3.7100000000000D+00  0.0000000000000D+00  0.0000000000000D+00
373  3.7200000000000D+00  0.0000000000000D+00  0.0000000000000D+00
374  3.7300000000000D+00  0.0000000000000D+00  0.0000000000000D+00
375  3.7400000000000D+00  0.0000000000000D+00  0.0000000000000D+00
376  3.7500000000000D+00  0.0000000000000D+00  0.0000000000000D+00
377  3.7600000000000D+00  0.0000000000000D+00  0.0000000000000D+00
378  3.7700000000000D+00  0.0000000000000D+00  0.0000000000000D+00
379  3.7800000000000D+00  0.0000000000000D+00  0.0000000000000D+00
380  3.7900000000000D+00  0.0000000000000D+00  0.0000000000000D+00
381  3.8000000000000D+00  0.0000000000000D+00  0.0000000000000D+00
382  3.8100000000000D+00  0.0000000000000D+00  0.0000000000000D+00
383  3.8200000000000D+00  0.0000000000000D+00  0.0000000000000D+00
384  3.8300000000000D+00  0.0000000000000D+00  0.0000000000000D+00
385  3.8400000000000D+00  0.0000000000000D+00  0.0000000000000D+00
386  3.8500000000000D+00  0.0000000000000D+00  0.0000000000000D+00
387  3.8600000000000D+00  0.0000000000000D+00  0.0000000000000D+00
388  3.8700000000000D+00  0.0000000000000D+00  0.0000000000000D+00
389  3.8800000000000D+00  0.0000000000000D+00  0.0000000000000D+00
390  3.8900000000000D+00  0.0000000000000D+00  0.0000000000000D+00
391  3.9000000000000D+00  0.0000000000000D+00  0.0000000000000D+00
392  3.9100000000000D+00  0.0000000000000D+00  0.0000000000000D+00
393  3.9200000000000D+00  0.0000000000000D+00  0.0000000000000D+00
394  3.9300000000000D+00  0.0000000000000D+00  0.0000000000000D+00
395  3.9400000000000D+00  0.0000000000000D+00  0.0000000000000D+00
396  3.9500000000000D+00  0.0000000000000D+00  0.0000000000000D+00
397  3.9600000000000D+00  0.0000000000000D+00  0.0000000000000D+00
398  3.9700000000000D+00  0.0000000000000D+00  0.0000000000000D+00
399  3.9800000000000D+00  0.0000000000000D+00  0.0000000000000D+00
400  3.9900000000000D+00  0.0000000000000D+00  0.0000000000000D+00
401  4.0000000000000D+00  0.0000000000000D+00  0.0000000000000D+00
402  4.0100000000000D+00  0.0000000000000D+00  0.0000000000000D+00
403  4.0200000000000D+00  0.0000000000000D+00  0.0000000000000D+00
404  4.0300000000000D+00  0.0000000000000D+00  0.0000000000000D+00
405  4.0400000000000D+00  0.0000000000000D+00  0.0000000000000D+00
406  4.0500000000000D+00  0.0000000000000D+00  0.0000000000000D+00
407  4.0600000000000D+00  0.0000000000000D+00  0.0000000000000D+00
408  4.0700000000000D+00  0.0000000000000D+00  0.0000000000000D+00
409  4.0800000000000D+00  0.0000000000000D+00  0.0000000000000D+00
410  4.0900000000000D+00  0.0000000000000D+00  0.0000000000000D+00
411  4.1000000000000D+00  0.0000000000000D+00  0.0000000000000D+00
412  4.1100000000000D+00  0.0000000000000D+00  0.0000000000000D+00
413  4.1200000000000D+00  0.0000000000000D+00  0.0000000000000D+00
414  4.1300000000000D+00  0.0000000000000D+00  0.0000000000000D+00
415  4.1400000000000D+00  0.0000000000000D+00  0.0000000000000D+00
416  4.1500000000000D+00  0.0000000000000D+00  0.0000000000000D+00
417  4.1600000000000D+00  0.0000000000000D+00  0.0000000000000D+00
418  4.1700000000000D+00  0.0000000000000D+00  0.0000000000000D+00
419  4.1800000000000D+00  0.0000000000000D+00  0.0000000000000D+00
420  4.1900000000000D+00  0.0000000000000D+00  0.0000000000000D+00
421  4.2000000000000D+00  0.0000000000000D+00  0.0000000000000D+00
422  4.2100000000000D+00  0.0000000000000D+00  0.0000000000000D+00
423  4.2200000000000D+00  0.0000000000000D+00  0.0000000000000D+00
424  4.2300000000000D+00  0.0000000000000D+00  0.0000000000000D+00
425  4.2400000000000D+00  0.0000000000000D+00  0.0000000000000D+00
426  4.2500000000000D+00  0.0000000000000D+00  0.0000000000000D+00
427  4.2600000000000D+00  0.0000000000000D+00  0.0000000000000D+00
428  4.2700000000000D+00  0.0000000000000D+00  0.0000000000000D+00
429  4.2800000000000D+00  0.0000000000000D+00  0.0000000000000D+00
430  4.2900000000000D+00  0.0000000000000D+00  0.0000000000000D+00
431  4.3000000000000D+00  0.0000000000000D+00  0.0000000000000D+00
432  4.3100000000000D+00  0.0000000000000D+00  0.0000000000000D+00
433  4.3200000000000D+00  0.0000000000000D+00  0.0000000000000D+00
434  4.3300000000000D+00  0.0000000000000D+00  0.0000000000000D+00
435  4.3400000000000D+00  0.0000000000000D+00  0.0000000000000D+00
436  4.3500000000000D+00  0.0000000000000D+00  0.0000000000000D+00
437  4.3600000000000D+00  0.0000000000000D+00  0.0000000000000D+00
438  4.3700000000000D+00  0.0000000000000D+00  0.0000000000000D+00
439  4.3800000000000D+00  0.0000000000000D+00  0.0000000000000D+00
440  4.3900000000000D+00  0.0000000000000D+00  0.0000000000000D+00
441  4.4000000000000D+00  0.0000000000000D+00  0.0000000000000D+00
442  4.4100000000000D+00  0.0000000000000D+00  0.0000000000000D+00
443  4.4200000000000D+00  0.0000000000000D+00  0.0000000000000D+00