Br    ONCVPSP-3.3.0  r_core=   1.81012   1.51356   1.92136
35.0000     17.0000      171103    zatom,zion,pspd
8   -1012   2     4   600     0    pspcod,pspxc,lmax,lloc,mmax,r2well
5.99000000  6.50000000  0.00000000    rchrg fchrg qchrg
2     2     2     0     0    nproj
1     1           extension_switch
0                         8.5891757951575D+00  9.2328574127174D-01
1  0.0000000000000D+00  2.6808943953682D-11 -1.2816206429456D-11
2  1.0000000000000D-02  3.5613532450362D-02 -1.2623010896371D-02
3  2.0000000000000D-02  7.1222382774007D-02 -2.5252808076928D-02
4  3.0000000000000D-02  1.0682170403347D-01 -3.7895947639413D-02
5  4.0000000000000D-02  1.4240632083287D-01 -5.0558526582746D-02
6  5.0000000000000D-02  1.7797056798968D-01 -6.3245956439598D-02
7  6.0000000000000D-02  2.1350813266856D-01 -7.5962740718547D-02
8  7.0000000000000D-02  2.4901190109990D-01 -8.8712257410815D-02
9  8.0000000000000D-02  2.8447381097861D-01 -1.0149654780382D-01
10  9.0000000000000D-02  3.1988471060571D-01 -1.1431611282750D-01
11  1.0000000000000D-01  3.5523422579547D-01 -1.2716971813954D-01
12  1.1000000000000D-01  3.9051063552577D-01 -1.4005420913237D-01
13  1.2000000000000D-01  4.2570075725745D-01 -1.5296433701739D-01
14  1.3000000000000D-01  4.6078984279230D-01 -1.6589259711076D-01
15  1.4000000000000D-01  4.9576148547661D-01 -1.7882908040974D-01
16  1.5000000000000D-01  5.3059753949112D-01 -1.9176133950886D-01
17  1.6000000000000D-01  5.6527805189623D-01 -2.0467426986102D-01
18  1.7000000000000D-01  5.9978120802636D-01 -2.1755000733972D-01
19  1.8000000000000D-01  6.3408329074830D-01 -2.3036784300505D-01
20  1.9000000000000D-01  6.6815865401572D-01 -2.4310415591713D-01
21  2.0000000000000D-01  7.0197971106763D-01 -2.5573236477726D-01
22  2.1000000000000D-01  7.3551693753055D-01 -2.6822289910767D-01
23  2.2000000000000D-01  7.6873888959567D-01 -2.8054319060678D-01
24  2.3000000000000D-01  8.0161223735155D-01 -2.9265768523695D-01
25  2.4000000000000D-01  8.3410181326174D-01 -3.0452787651706D-01
26  2.5000000000000D-01  8.6617067568534D-01 -3.1611236040174D-01
27  2.6000000000000D-01  8.9778018724746D-01 -3.2736691203404D-01
28  2.7000000000000D-01  9.2889010777579D-01 -3.3824458455720D-01
29  2.8000000000000D-01  9.5945870143090D-01 -3.4869583006660D-01
30  2.9000000000000D-01  9.8944285757001D-01 -3.5866864267244D-01
31  3.0000000000000D-01  1.0187982247996D+00 -3.6810872352971D-01
32  3.1000000000000D-01  1.0474793575898D+00 -3.7695966757371D-01
33  3.2000000000000D-01  1.0754398747443D+00 -3.8516317157790D-01
34  3.3000000000000D-01  1.1026326289456D+00 -3.9265926302561D-01
35  3.4000000000000D-01  1.1290098865229D+00 -3.9938654916081D-01
36  3.5000000000000D-01  1.1545235165254D+00 -4.0528248545327D-01
37  3.6000000000000D-01  1.1791251881210D+00 -4.1028366258371D-01
38  3.7000000000000D-01  1.2027665752863D+00 -4.1432611092384D-01
39  3.8000000000000D-01  1.2253995677019D+00 -4.1734562135556D-01
40  3.9000000000000D-01  1.2469764867242D+00 -4.1927808114480D-01
41  4.0000000000000D-01  1.2674503052683D+00 -4.2005982345774D-01
42  4.1000000000000D-01  1.2867748704016D+00 -4.1962798898333D-01
43  4.2000000000000D-01  1.3049051274284D+00 -4.1792089800535D-01
44  4.3000000000000D-01  1.3217973442256D+00 -4.1487843115140D-01
45  4.4000000000000D-01  1.3374093345787D+00 -4.1044241693675D-01
46  4.5000000000000D-01  1.3517006792662D+00 -4.0455702411769D-01
47  4.6000000000000D-01  1.3646329436444D+00 -3.9716915677324D-01
48  4.7000000000000D-01  1.3761698904929D+00 -3.8822884994851D-01
49  4.8000000000000D-01  1.3862776869044D+00 -3.7768966361495D-01
50  4.9000000000000D-01  1.3949251040230D+00 -3.6550907263728D-01
51  5.0000000000000D-01  1.4020837084714D+00 -3.5164885038197D-01
52  5.1000000000000D-01  1.4077280443439D+00 -3.3607544355984D-01
53  5.2000000000000D-01  1.4118358046904D+00 -3.1876033586638D-01
54  5.3000000000000D-01  1.4143879914648D+00 -2.9968039796840D-01
55  5.4000000000000D-01  1.4153690629753D+00 -2.7881822138537D-01
56  5.5000000000000D-01  1.4147670679300D+00 -2.5616243382821D-01
57  5.6000000000000D-01  1.4125737652482D+00 -2.3170799358977D-01
58  5.7000000000000D-01  1.4087847288758D+00 -2.0545646062723D-01
59  5.8000000000000D-01  1.4033994369253D+00 -1.7741624204041D-01
60  5.9000000000000D-01  1.3964213445406D+00 -1.4760280973006D-01
61  6.0000000000000D-01  1.3878579399765D+00 -1.1603888811635D-01
62  6.1000000000000D-01  1.3777207834684D+00 -8.2754609911933D-02
63  6.2000000000000D-01  1.3660255285611D+00 -4.7787638073171D-02
64  6.3000000000000D-01  1.3527919256597D+00 -1.1183252199880D-02
65  6.4000000000000D-01  1.3380438076598D+00  2.7005602184597D-02
66  6.5000000000000D-01  1.3218090576104D+00  6.6718302863897D-02
67  6.6000000000000D-01  1.3041195584604D+00  1.0788657986876D-01
68  6.7000000000000D-01  1.2850111250328D+00  1.5043458512101D-01
69  6.8000000000000D-01  1.2645234184709D+00  1.9427900355739D-01
70  6.9000000000000D-01  1.2426998434883D+00  2.3932920627978D-01
71  7.0000000000000D-01  1.2195874288530D+00  2.8548744603818D-01
72  7.1000000000000D-01  1.1952366916202D+00  3.3264909510460D-01
73  7.2000000000000D-01  1.1697014857179D+00  3.8070292533917D-01
74  7.3000000000000D-01  1.1430388355711D+00  4.2953142998698D-01
75  7.4000000000000D-01  1.1153087555294D+00  4.7901118647806D-01
76  7.5000000000000D-01  1.0865740559390D+00  5.2901325923310D-01
77  7.6000000000000D-01  1.0569001367661D+00  5.7940364120700D-01
78  7.7000000000000D-01  1.0263547697470D+00  6.3004373263447D-01
79  7.8000000000000D-01  9.9500787009688D-01  6.8079085517364D-01
80  7.9000000000000D-01  9.6293125886188D-01  7.3149879938403D-01
81  8.0000000000000D-01  9.3019841704649D-01  7.8201840321997D-01
82  8.1000000000000D-01  8.9688423268764D-01  8.3219815897514D-01
83  8.2000000000000D-01  8.6306474208049D-01  8.8188484587883D-01
84  8.3000000000000D-01  8.2881686638712D-01  9.3092418532256D-01
85  8.4000000000000D-01  7.9421814487907D-01  9.7916151548779D-01
86  8.5000000000000D-01  7.5934646607673D-01  1.0264424819542D+00
87  8.6000000000000D-01  7.2427979805413D-01  1.0726137406950D+00
88  8.7000000000000D-01  6.8909591917601D-01  1.1175236697120D+00
89  8.8000000000000D-01  6.5387215052493D-01  1.1610230854310D+00
90  8.9000000000000D-01  6.1868509126101D-01  1.2029659598683D+00
91  9.0000000000000D-01  5.8361035813410D-01  1.2432101344941D+00
92  9.1000000000000D-01  5.4872233033948D-01  1.2816180266575D+00
93  9.2000000000000D-01  5.1409390087290D-01  1.3180573244025D+00
94  9.3000000000000D-01  4.7979623549921D-01  1.3524016654985D+00
95  9.4000000000000D-01  4.4589854040226D-01  1.3845312965259D+00
96  9.5000000000000D-01  4.1246783953070D-01  1.4143337079068D+00
97  9.6000000000000D-01  3.7956876259711D-01  1.4417042408445D+00
98  9.7000000000000D-01  3.4726334462563D-01  1.4665466622409D+00
99  9.8000000000000D-01  3.1561083787746D-01  1.4887737037871D+00
100  9.9000000000000D-01  2.8466753691225D-01  1.5083075615869D+00
101  1.0000000000000D+00  2.5448661747117D-01  1.5250803528531D+00
102  1.0100000000000D+00  2.2511798979050D-01  1.5390345264288D+00
103  1.0200000000000D+00  1.9660816687653D-01  1.5501232241205D+00
104  1.0300000000000D+00  1.6900014819088D-01  1.5583105900923D+00
105  1.0400000000000D+00  1.4233331911544D-01  1.5635720258442D+00
106  1.0500000000000D+00  1.1664336648337D-01  1.5658943886010D+00
107  1.0600000000000D+00  9.1962210377483D-02  1.5652761312625D+00
108  1.0700000000000D+00  6.8317952317438D-02  1.5617273823952D+00
109  1.0800000000000D+00  4.5734839873124D-02  1.5552699651011D+00
110  1.0900000000000D+00  2.4233247661502D-02  1.5459373539605D+00
111  1.1000000000000D+00  3.8296746085854D-03  1.5337745695968D+00
112  1.1100000000000D+00 -1.5463242726880D-02  1.5188380108305D+00
113  1.1200000000000D+00 -3.3636701038030D-02  1.5011952247304D+00
114  1.1300000000000D+00 -5.0685685713876D-02  1.4809246153091D+00
115  1.1400000000000D+00 -6.6608911244904D-02  1.4581150918880D+00
116  1.1500000000000D+00 -8.1408747079746D-02  1.4328656586686D+00
117  1.1600000000000D+00 -9.5091129467152D-02  1.4052849473236D+00
118  1.1700000000000D+00 -1.0766545988384D-01  1.3754906948505D+00
119  1.1800000000000D+00 -1.1914449068674D-01  1.3436091691726D+00
120  1.1900000000000D+00 -1.2954419869600D-01  1.3097745454542D+00
121  1.2000000000000D+00 -1.3888364744481D-01  1.2741282363297D+00
122  1.2100000000000D+00 -1.4718483886851D-01  1.2368181795264D+00
123  1.2200000000000D+00 -1.5447255524427D-01  1.1979980866802D+00
124  1.2300000000000D+00 -1.6077419222068D-01  1.1578266574107D+00
125  1.2400000000000D+00 -1.6611958379253D-01  1.1164667629052D+00
126  1.2500000000000D+00 -1.7054082009583D-01  1.0740846034395D+00
127  1.2600000000000D+00 -1.7407205891550D-01  1.0308488445284D+00
128  1.2700000000000D+00 -1.7674933179419D-01  9.8692973644108D-01
129  1.2800000000000D+00 -1.7861034564291D-01  9.4249822193335D-01
130  1.2900000000000D+00 -1.7969428074628D-01  8.9772503719165D-01
131  1.3000000000000D+00 -1.8004158604012D-01  8.5277981091208D-01
132  1.3100000000000D+00 -1.7969377254874D-01  8.0783016654715D-01
133  1.3200000000000D+00 -1.7869320582520D-01  7.6304083265115D-01
134  1.3300000000000D+00 -1.7708289822904D-01  7.1857276616951D-01
135  1.3400000000000D+00 -1.7490630187239D-01  6.7458229357975D-01
136  1.3500000000000D+00 -1.7220710298670D-01  6.3122027437943D-01
137  1.3600000000000D+00 -1.6902901848386D-01  5.8863129151232D-01
138  1.3700000000000D+00 -1.6541559543538D-01  5.4695287310206D-01
139  1.3800000000000D+00 -1.6141001410512D-01  5.0631474924839D-01
140  1.3900000000000D+00 -1.5705489524774D-01  4.6683814818008D-01
141  1.4000000000000D+00 -1.5239211221072D-01  4.2863513489582D-01
142  1.4100000000000D+00 -1.4746260841529D-01  3.9180799561506D-01
143  1.4200000000000D+00 -1.4230622077159D-01  3.5644867130747D-01
144  1.4300000000000D+00 -1.3696150940406D-01  3.2263824213116D-01
145  1.4400000000000D+00 -1.3146559422456D-01  2.9044646590529D-01
146  1.4500000000000D+00 -1.2585399863453D-01  2.5993137170100D-01
147  1.4600000000000D+00 -1.2016050072799D-01  2.3113891030480D-01
148  1.4700000000000D+00 -1.1441699137527D-01  2.0410265790441D-01
149  1.4800000000000D+00 -1.0865334355073D-01  1.7884359615964D-01
150  1.4900000000000D+00 -1.0289728428631D-01  1.5536991906226D-01
151  1.5000000000000D+00 -9.7174310355703D-02  1.3367708886663D-01
152  1.5100000000000D+00 -9.1507471031687D-02  1.1374719776378D-01
153  1.5200000000000D+00 -8.5917386105394D-02  9.5549587826701D-02
154  1.5300000000000D+00 -8.0422508992686D-02  7.9042846544139D-02
155  1.5400000000000D+00 -7.5039379810061D-02  6.4176545273767D-02
156  1.5500000000000D+00 -6.9783018268682D-02  5.0893624997942D-02
157  1.5600000000000D+00 -6.4666974624960D-02  3.9130915532028D-02
158  1.5700000000000D+00 -5.9703319818276D-02  2.8819262373123D-02
159  1.5800000000000D+00 -5.4902760640806D-02  1.9884404638799D-02
160  1.5900000000000D+00 -5.0274696718173D-02  1.2247512223244D-02
161  1.6000000000000D+00 -4.5827302010047D-02  5.8258689446724D-03
162  1.6100000000000D+00 -4.1567602512734D-02  5.3353697721948D-04
163  1.6200000000000D+00 -3.7501556934262D-02 -3.7179591922161D-03
164  1.6300000000000D+00 -3.3634138589952D-02 -7.0189407839405D-03
165  1.6400000000000D+00 -2.9969417856457D-02 -9.4608790922115D-03
166  1.6500000000000D+00 -2.6510644532664D-02 -1.1135701388669D-02
167  1.6600000000000D+00 -2.3260329463172D-02 -1.2135102953012D-02
168  1.6700000000000D+00 -2.0220324793901D-02 -1.2549870276409D-02
169  1.6800000000000D+00 -1.7391902261345D-02 -1.2469219934707D-02
170  1.6900000000000D+00 -1.4775828910932D-02 -1.1980158030777D-02
171  1.7000000000000D+00 -1.2372439705369D-02 -1.1166864402791D-02
172  1.7100000000000D+00 -1.0181706463704D-02 -1.0110106222035D-02
173  1.7200000000000D+00 -8.2033026460886D-03 -8.8866848352427D-03
174  1.7300000000000D+00 -6.4366635076624D-03 -7.5689198956840D-03
175  1.7400000000000D+00 -4.8810411632472D-03 -6.2241744681887D-03
176  1.7500000000000D+00 -3.5358424895353D-03 -4.9156224898631D-03
177  1.7600000000000D+00 -2.3998149801332D-03 -3.6982991116982D-03
178  1.7700000000000D+00 -1.4702286833025D-03 -2.6124486776971D-03
179  1.7800000000000D+00 -7.4728477513233D-04 -1.7072557931985D-03
180  1.7900000000000D+00 -2.3522247434992D-04 -1.0677478763726D-03
181  1.8000000000000D+00  7.0545011880990D-05 -7.1857592256567D-04
182  1.8100000000000D+00  1.8076158057366D-04 -4.9916883208285D-04
183  1.8200000000000D+00  1.2388516980996D-04 -2.4365192577023D-04
184  1.8300000000000D+00  1.6978320640109D-05 -2.9085440175468D-05
185  1.8400000000000D+00 -2.6143570836119D-05  4.2213247901896D-05
186  1.8500000000000D+00 -1.1535493553785D-05  1.7649677187269D-05
187  1.8600000000000D+00  4.7423480184725D-06 -8.5207159770103D-06
188  1.8700000000000D+00  3.9898912322850D-06 -6.9986902187743D-06
189  1.8800000000000D+00 -2.9900159488192D-07  8.2055359683874D-07
190  1.8900000000000D+00 -4.6328860184690D-07  1.2714083641259D-06
191  1.9000000000000D+00  0.0000000000000D+00  0.0000000000000D+00
192  1.9100000000000D+00  0.0000000000000D+00  0.0000000000000D+00
193  1.9200000000000D+00  0.0000000000000D+00  0.0000000000000D+00
194  1.9300000000000D+00  0.0000000000000D+00  0.0000000000000D+00
195  1.9400000000000D+00  0.0000000000000D+00  0.0000000000000D+00
196  1.9500000000000D+00  0.0000000000000D+00  0.0000000000000D+00
197  1.9600000000000D+00  0.0000000000000D+00  0.0000000000000D+00
198  1.9700000000000D+00  0.0000000000000D+00  0.0000000000000D+00
199  1.9800000000000D+00  0.0000000000000D+00  0.0000000000000D+00
200  1.9900000000000D+00  0.0000000000000D+00  0.0000000000000D+00
201  2.0000000000000D+00  0.0000000000000D+00  0.0000000000000D+00
202  2.0100000000000D+00  0.0000000000000D+00  0.0000000000000D+00
203  2.0200000000000D+00  0.0000000000000D+00  0.0000000000000D+00
204  2.0300000000000D+00  0.0000000000000D+00  0.0000000000000D+00
205  2.0400000000000D+00  0.0000000000000D+00  0.0000000000000D+00
206  2.0500000000000D+00  0.0000000000000D+00  0.0000000000000D+00
207  2.0600000000000D+00  0.0000000000000D+00  0.0000000000000D+00
208  2.0700000000000D+00  0.0000000000000D+00  0.0000000000000D+00
209  2.0800000000000D+00  0.0000000000000D+00  0.0000000000000D+00
210  2.0900000000000D+00  0.0000000000000D+00  0.0000000000000D+00
211  2.1000000000000D+00  0.0000000000000D+00  0.0000000000000D+00
212  2.1100000000000D+00  0.0000000000000D+00  0.0000000000000D+00
213  2.1200000000000D+00  0.0000000000000D+00  0.0000000000000D+00
214  2.1300000000000D+00  0.0000000000000D+00  0.0000000000000D+00
215  2.1400000000000D+00  0.0000000000000D+00  0.0000000000000D+00
216  2.1500000000000D+00  0.0000000000000D+00  0.0000000000000D+00
217  2.1600000000000D+00  0.0000000000000D+00  0.0000000000000D+00
218  2.1700000000000D+00  0.0000000000000D+00  0.0000000000000D+00
219  2.1800000000000D+00  0.0000000000000D+00  0.0000000000000D+00
220  2.1900000000000D+00  0.0000000000000D+00  0.0000000000000D+00
221  2.2000000000000D+00  0.0000000000000D+00  0.0000000000000D+00
222  2.2100000000000D+00  0.0000000000000D+00  0.0000000000000D+00
223  2.2200000000000D+00  0.0000000000000D+00  0.0000000000000D+00
224  2.2300000000000D+00  0.0000000000000D+00  0.0000000000000D+00
225  2.2400000000000D+00  0.0000000000000D+00  0.0000000000000D+00
226  2.2500000000000D+00  0.0000000000000D+00  0.0000000000000D+00
227  2.2600000000000D+00  0.0000000000000D+00  0.0000000000000D+00
228  2.2700000000000D+00  0.0000000000000D+00  0.0000000000000D+00
229  2.2800000000000D+00  0.0000000000000D+00  0.0000000000000D+00
230  2.2900000000000D+00  0.0000000000000D+00  0.0000000000000D+00
231  2.3000000000000D+00  0.0000000000000D+00  0.0000000000000D+00
232  2.3100000000000D+00  0.0000000000000D+00  0.0000000000000D+00
233  2.3200000000000D+00  0.0000000000000D+00  0.0000000000000D+00
234  2.3300000000000D+00  0.0000000000000D+00  0.0000000000000D+00
235  2.3400000000000D+00  0.0000000000000D+00  0.0000000000000D+00
236  2.3500000000000D+00  0.0000000000000D+00  0.0000000000000D+00
237  2.3600000000000D+00  0.0000000000000D+00  0.0000000000000D+00
238  2.3700000000000D+00  0.0000000000000D+00  0.0000000000000D+00
239  2.3800000000000D+00  0.0000000000000D+00  0.0000000000000D+00
240  2.3900000000000D+00  0.0000000000000D+00  0.0000000000000D+00
241  2.4000000000000D+00  0.0000000000000D+00  0.0000000000000D+00
242  2.4100000000000D+00  0.0000000000000D+00  0.0000000000000D+00
243  2.4200000000000D+00  0.0000000000000D+00  0.0000000000000D+00
244  2.4300000000000D+00  0.0000000000000D+00  0.0000000000000D+00
245  2.4400000000000D+00  0.0000000000000D+00  0.0000000000000D+00
246  2.4500000000000D+00  0.0000000000000D+00  0.0000000000000D+00
247  2.4600000000000D+00  0.0000000000000D+00  0.0000000000000D+00
248  2.4700000000000D+00  0.0000000000000D+00  0.0000000000000D+00
249  2.4800000000000D+00  0.0000000000000D+00  0.0000000000000D+00
250  2.4900000000000D+00  0.0000000000000D+00  0.0000000000000D+00
251  2.5000000000000D+00  0.0000000000000D+00  0.0000000000000D+00
252  2.5100000000000D+00  0.0000000000000D+00  0.0000000000000D+00
253  2.5200000000000D+00  0.0000000000000D+00  0.0000000000000D+00
254  2.5300000000000D+00  0.0000000000000D+00  0.0000000000000D+00
255  2.5400000000000D+00  0.0000000000000D+00  0.0000000000000D+00
256  2.5500000000000D+00  0.0000000000000D+00  0.0000000000000D+00
257  2.5600000000000D+00  0.0000000000000D+00  0.0000000000000D+00
258  2.5700000000000D+00  0.0000000000000D+00  0.0000000000000D+00
259  2.5800000000000D+00  0.0000000000000D+00  0.0000000000000D+00
260  2.5900000000000D+00  0.0000000000000D+00  0.0000000000000D+00
261  2.6000000000000D+00  0.0000000000000D+00  0.0000000000000D+00
262  2.6100000000000D+00  0.0000000000000D+00  0.0000000000000D+00
263  2.6200000000000D+00  0.0000000000000D+00  0.0000000000000D+00
264  2.6300000000000D+00  0.0000000000000D+00  0.0000000000000D+00
265  2.6400000000000D+00  0.0000000000000D+00  0.0000000000000D+00
266  2.6500000000000D+00  0.0000000000000D+00  0.0000000000000D+00
267  2.6600000000000D+00  0.0000000000000D+00  0.0000000000000D+00
268  2.6700000000000D+00  0.0000000000000D+00  0.0000000000000D+00
269  2.6800000000000D+00  0.0000000000000D+00  0.0000000000000D+00
270  2.6900000000000D+00  0.0000000000000D+00  0.0000000000000D+00
271  2.7000000000000D+00  0.0000000000000D+00  0.0000000000000D+00
272  2.7100000000000D+00  0.0000000000000D+00  0.0000000000000D+00
273  2.7200000000000D+00  0.0000000000000D+00  0.0000000000000D+00
274  2.7300000000000D+00  0.0000000000000D+00  0.0000000000000D+00
275  2.7400000000000D+00  0.0000000000000D+00  0.0000000000000D+00
276  2.7500000000000D+00  0.0000000000000D+00  0.0000000000000D+00
277  2.7600000000000D+00  0.0000000000000D+00  0.0000000000000D+00
278  2.7700000000000D+00  0.0000000000000D+00  0.0000000000000D+00
279  2.7800000000000D+00  0.0000000000000D+00  0.0000000000000D+00
280  2.7900000000000D+00  0.0000000000000D+00  0.0000000000000D+00
281  2.8000000000000D+00  0.0000000000000D+00  0.0000000000000D+00
282  2.8100000000000D+00  0.0000000000000D+00  0.0000000000000D+00
283  2.8200000000000D+00  0.0000000000000D+00  0.0000000000000D+00
284  2.8300000000000D+00  0.0000000000000D+00  0.0000000000000D+00
285  2.8400000000000D+00  0.0000000000000D+00  0.0000000000000D+00
286  2.8500000000000D+00  0.0000000000000D+00  0.0000000000000D+00
287  2.8600000000000D+00  0.0000000000000D+00  0.0000000000000D+00
288  2.8700000000000D+00  0.0000000000000D+00  0.0000000000000D+00
289  2.8800000000000D+00  0.0000000000000D+00  0.0000000000000D+00
290  2.8900000000000D+00  0.0000000000000D+00  0.0000000000000D+00
291  2.9000000000000D+00  0.0000000000000D+00  0.0000000000000D+00
292  2.9100000000000D+00  0.0000000000000D+00  0.0000000000000D+00
293  2.9200000000000D+00  0.0000000000000D+00  0.0000000000000D+00
294  2.9300000000000D+00  0.0000000000000D+00  0.0000000000000D+00
295  2.9400000000000D+00  0.0000000000000D+00  0.0000000000000D+00
296  2.9500000000000D+00  0.0000000000000D+00  0.0000000000000D+00
297  2.9600000000000D+00  0.0000000000000D+00  0.0000000000000D+00
298  2.9700000000000D+00  0.0000000000000D+00  0.0000000000000D+00
299  2.9800000000000D+00  0.0000000000000D+00  0.0000000000000D+00
300  2.9900000000000D+00  0.0000000000000D+00  0.0000000000000D+00
301  3.0000000000000D+00  0.0000000000000D+00  0.0000000000000D+00
302  3.0100000000000D+00  0.0000000000000D+00  0.0000000000000D+00
303  3.0200000000000D+00  0.0000000000000D+00  0.0000000000000D+00
304  3.0300000000000D+00  0.0000000000000D+00  0.0000000000000D+00
305  3.0400000000000D+00  0.0000000000000D+00  0.0000000000000D+00
306  3.0500000000000D+00  0.0000000000000D+00  0.0000000000000D+00
307  3.0600000000000D+00  0.0000000000000D+00  0.0000000000000D+00
308  3.0700000000000D+00  0.0000000000000D+00  0.0000000000000D+00
309  3.0800000000000D+00  0.0000000000000D+00  0.0000000000000D+00
310  3.0900000000000D+00  0.0000000000000D+00  0.0000000000000D+00
311  3.1000000000000D+00  0.0000000000000D+00  0.0000000000000D+00
312  3.1100000000000D+00  0.0000000000000D+00  0.0000000000000D+00
313  3.1200000000000D+00  0.0000000000000D+00  0.0000000000000D+00
314  3.1300000000000D+00  0.0000000000000D+00  0.0000000000000D+00
315  3.1400000000000D+00  0.0000000000000D+00  0.0000000000000D+00
316  3.1500000000000D+00  0.0000000000000D+00  0.0000000000000D+00
317  3.1600000000000D+00  0.0000000000000D+00  0.0000000000000D+00
318  3.1700000000000D+00  0.0000000000000D+00  0.0000000000000D+00
319  3.1800000000000D+00  0.0000000000000D+00  0.0000000000000D+00
320  3.1900000000000D+00  0.0000000000000D+00  0.0000000000000D+00
321  3.2000000000000D+00  0.0000000000000D+00  0.0000000000000D+00
322  3.2100000000000D+00  0.0000000000000D+00  0.0000000000000D+00
323  3.2200000000000D+00  0.0000000000000D+00  0.0000000000000D+00
324  3.2300000000000D+00  0.0000000000000D+00  0.0000000000000D+00
325  3.2400000000000D+00  0.0000000000000D+00  0.0000000000000D+00
326  3.2500000000000D+00  0.0000000000000D+00  0.0000000000000D+00
327  3.2600000000000D+00  0.0000000000000D+00  0.0000000000000D+00
328  3.2700000000000D+00  0.0000000000000D+00  0.0000000000000D+00
329  3.2800000000000D+00  0.0000000000000D+00  0.0000000000000D+00
330  3.2900000000000D+00  0.0000000000000D+00  0.0000000000000D+00
331  3.3000000000000D+00  0.0000000000000D+00  0.0000000000000D+00
332  3.3100000000000D+00  0.0000000000000D+00  0.0000000000000D+00
333  3.3200000000000D+00  0.0000000000000D+00  0.0000000000000D+00
334  3.3300000000000D+00  0.0000000000000D+00  0.0000000000000D+00
335  3.3400000000000D+00  0.0000000000000D+00  0.0000000000000D+00
336  3.3500000000000D+00  0.0000000000000D+00  0.0000000000000D+00
337  3.3600000000000D+00  0.0000000000000D+00  0.0000000000000D+00
338  3.3700000000000D+00  0.0000000000000D+00  0.0000000000000D+00
339  3.3800000000000D+00  0.0000000000000D+00  0.0000000000000D+00
340  3.3900000000000D+00  0.0000000000000D+00  0.0000000000000D+00
341  3.4000000000000D+00  0.0000000000000D+00  0.0000000000000D+00
342  3.4100000000000D+00  0.0000000000000D+00  0.0000000000000D+00
343  3.4200000000000D+00  0.0000000000000D+00  0.0000000000000D+00
344  3.4300000000000D+00  0.0000000000000D+00  0.0000000000000D+00
345  3.4400000000000D+00  0.0000000000000D+00  0.0000000000000D+00
346  3.4500000000000D+00  0.0000000000000D+00  0.0000000000000D+00
347  3.4600000000000D+00  0.0000000000000D+00  0.0000000000000D+00
348  3.4700000000000D+00  0.0000000000000D+00  0.0000000000000D+00
349  3.4800000000000D+00  0.0000000000000D+00  0.0000000000000D+00
350  3.4900000000000D+00  0.0000000000000D+00  0.0000000000000D+00
351  3.5000000000000D+00  0.0000000000000D+00  0.0000000000000D+00
352  3.5100000000000D+00  0.0000000000000D+00  0.0000000000000D+00
353  3.5200000000000D+00  0.0000000000000D+00  0.0000000000000D+00
354  3.5300000000000D+00  0.0000000000000D+00  0.0000000000000D+00
355  3.5400000000000D+00  0.0000000000000D+00  0.0000000000000D+00
356  3.5500000000000D+00  0.0000000000000D+00  0.0000000000000D+00
357  3.5600000000000D+00  0.0000000000000D+00  0.0000000000000D+00
358  3.5700000000000D+00  0.0000000000000D+00  0.0000000000000D+00
359  3.5800000000000D+00  0.0000000000000D+00  0.0000000000000D+00
360  3.5900000000000D+00  0.0000000000000D+00  0.0000000000000D+00
361  3.6000000000000D+00  0.0000000000000D+00  0.0000000000000D+00
362  3.6100000000000D+00  0.0000000000000D+00  0.0000000000000D+00
363  3.6200000000000D+00  0.0000000000000D+00  0.0000000000000D+00
364  3.6300000000000D+00  0.0000000000000D+00  0.0000000000000D+00
365  3.6400000000000D+00  0.0000000000000D+00  0.0000000000000D+00
366  3.6500000000000D+00  0.0000000000000D+00  0.0000000000000D+00
367  3.6600000000000D+00  0.0000000000000D+00  0.0000000000000D+00
368  3.6700000000000D+00  0.0000000000000D+00  0.0000000000000D+00
369  3.6800000000000D+00  0.0000000000000D+00  0.0000000000000D+00
370  3.6900000000000D+00  0.0000000000000D+00  0.0000000000000D+00
371  3.7000000000000D+00  0.0000000000000D+00  0.0000000000000D+00
372  3.7100000000000D+00  0.0000000000000D+00  0.0000000000000D+00
373  3.7200000000000D+00  0.0000000000000D+00  0.0000000000000D+00
374  3.7300000000000D+00  0.0000000000000D+00  0.0000000000000D+00
375  3.7400000000000D+00  0.0000000000000D+00  0.0000000000000D+00
376  3.7500000000000D+00  0.0000000000000D+00  0.0000000000000D+00
377  3.7600000000000D+00  0.0000000000000D+00  0.0000000000000D+00
378  3.7700000000000D+00  0.0000000000000D+00  0.0000000000000D+00
379  3.7800000000000D+00  0.0000000000000D+00  0.0000000000000D+00
380  3.7900000000000D+00  0.0000000000000D+00  0.0000000000000D+00
381  3.8000000000000D+00  0.0000000000000D+00  0.0000000000000D+00
382  3.8100000000000D+00  0.0000000000000D+00  0.0000000000000D+00
383  3.8200000000000D+00  0.0000000000000D+00  0.0000000000000D+00
384  3.8300000000000D+00  0.0000000000000D+00  0.0000000000000D+00
385  3.8400000000000D+00  0.0000000000000D+00  0.0000000000000D+00
386  3.8500000000000D+00  0.0000000000000D+00  0.0000000000000D+00
387  3.8600000000000D+00  0.0000000000000D+00  0.0000000000000D+00
388  3.8700000000000D+00  0.0000000000000D+00  0.0000000000000D+00
389  3.8800000000000D+00  0.0000000000000D+00  0.0000000000000D+00
390  3.8900000000000D+00  0.0000000000000D+00  0.0000000000000D+00
391  3.9000000000000D+00  0.0000000000000D+00  0.0000000000000D+00
392  3.9100000000000D+00  0.0000000000000D+00  0.0000000000000D+00
393  3.9200000000000D+00  0.0000000000000D+00  0.0000000000000D+00
394  3.9300000000000D+00  0.0000000000000D+00  0.0000000000000D+00
395  3.9400000000000D+00  0.0000000000000D+00  0.0000000000000D+00
396  3.9500000000000D+00  0.0000000000000D+00  0.0000000000000D+00
397  3.9600000000000D+00  0.0000000000000D+00  0.0000000000000D+00
398  3.9700000000000D+00  0.0000000000000D+00  0.0000000000000D+00
399  3.9800000000000D+00  0.0000000000000D+00  0.0000000000000D+00
400  3.9900000000000D+00  0.0000000000000D+00  0.0000000000000D+00
401  4.0000000000000D+00  0.0000000000000D+00  0.0000000000000D+00
402  4.0100000000000D+00  0.0000000000000D+00  0.0000000000000D+00
403  4.0200000000000D+00  0.0000000000000D+00  0.0000000000000D+00
404  4.0300000000000D+00  0.0000000000000D+00  0.0000000000000D+00
405  4.0400000000000D+00  0.0000000000000D+00  0.0000000000000D+00
406  4.0500000000000D+00  0.0000000000000D+00  0.0000000000000D+00
407  4.0600000000000D+00  0.0000000000000D+00  0.0000000000000D+00
408  4.0700000000000D+00  0.0000000000000D+00  0.0000000000000D+00
409  4.0800000000000D+00  0.0000000000000D+00  0.0000000000000D+00
410  4.0900000000000D+00  0.0000000000000D+00  0.0000000000000D+00
411  4.1000000000000D+00  0.0000000000000D+00  0.0000000000000D+00
412  4.1100000000000D+00  0.0000000000000D+00  0.0000000000000D+00
413  4.1200000000000D+00  0.0000000000000D+00  0.0000000000000D+00
414  4.1300000000000D+00  0.0000000000000D+00  0.0000000000000D+00
415  4.1400000000000D+00  0.0000000000000D+00  0.0000000000000D+00
416  4.1500000000000D+00  0.0000000000000D+00  0.0000000000000D+00
417  4.1600000000000D+00  0.0000000000000D+00  0.0000000000000D+00
418  4.1700000000000D+00  0.0000000000000D+00  0.0000000000000D+00
419  4.1800000000000D+00  0.0000000000000D+00  0.0000000000000D+00
420  4.1900000000000D+00  0.0000000000000D+00  0.0000000000000D+00
421  4.2000000000000D+00  0.0000000000000D+00  0.0000000000000D+00
422  4.2100000000000D+00  0.0000000000000D+00  0.0000000000000D+00
423  4.2200000000000D+00  0.0000000000000D+00  0.0000000000000D+00
424  4.2300000000000D+00  0.0000000000000D+00  0.0000000000000D+00
425  4.2400000000000D+00  0.0000000000000D+00  0.0000000000000D+00
426  4.2500000000000D+00  0.0000000000000D+00  0.0000000000000D+00
427  4.2600000000000D+00  0.0000000000000D+00  0.0000000000000D+00
428  4.2700000000000D+00  0.0000000000000D+00  0.0000000000000D+00
429  4.2800000000000D+00  0.0000000000000D+00  0.0000000000000D+00
430  4.2900000000000D+00  0.0000000000000D+00  0.0000000000000D+00
431  4.3000000000000D+00  0.0000000000000D+00  0.0000000000000D+00
432  4.3100000000000D+00  0.0000000000000D+00  0.0000000000000D+00
433  4.3200000000000D+00  0.0000000000000D+00  0.0000000000000D+00
434  4.3300000000000D+00  0.0000000000000D+00  0.0000000000000D+00
435  4.3400000000000D+00  0.0000000000000D+00  0.0000000000000D+00
436  4.3500000000000D+00  0.0000000000000D+00  0.0000000000000D+00
437  4.3600000000000D+00  0.0000000000000D+00  0.0000000000000D+00
438  4.3700000000000D+00  0.0000000000000D+00  0.0000000000000D+00
439  4.3800000000000D+00  0.0000000000000D+00  0.0000000000000D+00
440  4.3900000000000D+00  0.0000000000000D+00  0.0000000000000D+00
441  4.4000000000000D+00  0.0000000000000D+00  0.0000000000000D+00
442  4.4100000000000D+00  0.0000000000000D+00  0.0000000000000D+00
443  4.4200000000000D+00  0.0000000000000D+00  0.0000000000000D+00