Br    ONCVPSP-3.3.0  r_core=   1.81012   1.51356   1.92136
35.0000      7.0000      171103    zatom,zion,pspd
8   -1012   2     4   600     0    pspcod,pspxc,lmax,lloc,mmax,r2well
5.99000000  8.00000000  0.00000000    rchrg fchrg qchrg
2     2     2     0     0    nproj
1     1           extension_switch
0                         8.5677271228061D+00  9.1635528893392D-01
1  0.0000000000000D+00 -1.9460649758329D-10  3.8264566515345D-10
2  1.0000000000000D-02  3.8185109771631D-02 -1.6874186011042D-02
3  2.0000000000000D-02  7.6331118124662D-02 -3.3691233931937D-02
4  3.0000000000000D-02  1.1439917272293D-01 -5.0394546206105D-02
5  4.0000000000000D-02  1.5235091569116D-01 -6.6928598727876D-02
6  5.0000000000000D-02  1.9014872163559D-01 -8.3239458625984D-02
7  6.0000000000000D-02  2.2775592475280D-01 -9.9275279591604D-02
8  7.0000000000000D-02  2.6513703162079D-01 -1.1498676772038D-01
9  8.0000000000000D-02  3.0225791646108D-01 -1.3032761122049D-01
10  9.0000000000000D-02  3.3908599589891D-01 -1.4525486780832D-01
11  1.0000000000000D-01  3.7559038052870D-01 -1.5972930416410D-01
12  1.1000000000000D-01  4.1174200090877D-01 -1.7371568244521D-01
13  1.2000000000000D-01  4.4751370596006D-01 -1.8718298954723D-01
14  1.3000000000000D-01  4.8288033212364D-01 -2.0010460555390D-01
15  1.4000000000000D-01  5.1781874203563D-01 -2.1245840861765D-01
16  1.5000000000000D-01  5.5230783190188D-01 -2.2422681435258D-01
17  1.6000000000000D-01  5.8632850719150D-01 -2.3539674869187D-01
18  1.7000000000000D-01  6.1986362671435D-01 -2.4595955404997D-01
19  1.8000000000000D-01  6.5289791559530D-01 -2.5591082952714D-01
20  1.9000000000000D-01  6.8541784810324D-01 -2.6525020678702D-01
21  2.0000000000000D-01  7.1741150172878D-01 -2.7398106411829D-01
22  2.1000000000000D-01  7.4886838432657D-01 -2.8211018204543D-01
23  2.2000000000000D-01  7.7977923653928D-01 -2.8964734467317D-01
24  2.3000000000000D-01  8.1013581209719D-01 -2.9660489172208D-01
25  2.4000000000000D-01  8.3993063893336D-01 -3.0299722693017D-01
26  2.5000000000000D-01  8.6915676436568D-01 -3.0884028914775D-01
27  2.6000000000000D-01  8.9780748786956D-01 -3.1415099303250D-01
28  2.7000000000000D-01  9.2587608519439D-01 -3.1894664674918D-01
29  2.8000000000000D-01  9.5335552776048D-01 -3.2324435448982D-01
30  2.9000000000000D-01  9.8023820140775D-01 -3.2706041194708D-01
31  3.0000000000000D-01  1.0065156286512D+00 -3.3040970309320D-01
32  3.1000000000000D-01  1.0321781986295D+00 -3.3330510673487D-01
33  3.2000000000000D-01  1.0572149089116D+00 -3.3575692132889D-01
34  3.3000000000000D-01  1.0816131232492D+00 -3.3777231645315D-01
35  3.4000000000000D-01  1.1053583492378D+00 -3.3935481913249D-01
36  3.5000000000000D-01  1.1284340396639D+00 -3.4050384292112D-01
37  3.6000000000000D-01  1.1508214210894D+00 -3.4121426724447D-01
38  3.7000000000000D-01  1.1724993529436D+00 -3.4147607400822D-01
39  3.8000000000000D-01  1.1934442200694D+00 -3.4127404789516D-01
40  3.9000000000000D-01  1.2136298613068D+00 -3.4058754609778D-01
41  4.0000000000000D-01  1.2330275362928D+00 -3.3939034248388D-01
42  4.1000000000000D-01  1.2516059322232D+00 -3.3765055037052D-01
43  4.2000000000000D-01  1.2693312118581D+00 -3.3533062719956D-01
44  4.3000000000000D-01  1.2861671035672D+00 -3.3238746347377D-01
45  4.4000000000000D-01  1.3020750337109D+00 -3.2877255733735D-01
46  4.5000000000000D-01  1.3170143011365D+00 -3.2443227517975D-01
47  4.6000000000000D-01  1.3309422930553D+00 -3.1930819761825D-01
48  4.7000000000000D-01  1.3438147410467D+00 -3.1333754918441D-01
49  4.8000000000000D-01  1.3555860154285D+00 -3.0645370901457D-01
50  4.9000000000000D-01  1.3662094557366D+00 -2.9858679883646D-01
51  5.0000000000000D-01  1.3756377345842D+00 -2.8966434356560D-01
52  5.1000000000000D-01  1.3838232517175D+00 -2.7961199888646D-01
53  5.2000000000000D-01  1.3907185546733D+00 -2.6835433930702D-01
54  5.3000000000000D-01  1.3962767820549D+00 -2.5581569935151D-01
55  5.4000000000000D-01  1.4004521251103D+00 -2.4192105980485D-01
56  5.5000000000000D-01  1.4032003029984D+00 -2.2659697025213D-01
57  5.6000000000000D-01  1.4044790468860D+00 -2.0977249857833D-01
58  5.7000000000000D-01  1.4042485878291D+00 -1.9138019761017D-01
59  5.8000000000000D-01  1.4024721432541D+00 -1.7135707870629D-01
60  5.9000000000000D-01  1.3991163967819D+00 -1.4964558183177D-01
61  6.0000000000000D-01  1.3941519661152D+00 -1.2619453149909D-01
62  6.1000000000000D-01  1.3875538537560D+00 -1.0096006791801D-01
63  6.2000000000000D-01  1.3793018754201D+00 -7.3906542774464D-02
64  6.3000000000000D-01  1.3693810611788D+00 -4.5007369255379D-02
65  6.4000000000000D-01  1.3577820245764D+00 -1.4245816246932D-02
66  6.5000000000000D-01  1.3445012952481D+00  1.8384262940573D-02
67  6.6000000000000D-01  1.3295416108921D+00  5.2877776431738D-02
68  6.7000000000000D-01  1.3129121648260D+00  8.9217822701278D-02
69  6.8000000000000D-01  1.2946288057820D+00  1.2737521027944D-01
70  6.9000000000000D-01  1.2747141870599D+00  1.6730807515176D-01
71  7.0000000000000D-01  1.2531978626571D+00  2.0896160184666D-01
72  7.1000000000000D-01  1.2301163285239D+00  2.5226785322266D-01
73  7.2000000000000D-01  1.2055130076486D+00  2.9714571291925D-01
74  7.3000000000000D-01  1.1794381782485D+00  3.4350094333820D-01
75  7.4000000000000D-01  1.1519488449291D+00  3.9122636088740D-01
76  7.5000000000000D-01  1.1231085532589D+00  4.4020212905470D-01
77  7.6000000000000D-01  1.0929871488013D+00  4.9029616870019D-01
78  7.7000000000000D-01  1.0616604822153D+00  5.4136468377976D-01
79  7.8000000000000D-01  1.0292100626087D+00  5.9325279953733D-01
80  7.9000000000000D-01  9.9572266186487D-01  6.4579530906323D-01
81  8.0000000000000D-01  9.6128987317786D-01  6.9881752300493D-01
82  8.1000000000000D-01  9.2600762751457D-01  7.5213621615656D-01
83  8.2000000000000D-01  8.8997567215915D-01  8.0556066365228D-01
84  8.3000000000000D-01  8.5329701589401D-01  8.5889375855945D-01
85  8.4000000000000D-01  8.1607734571791D-01  9.1193320181776D-01
86  8.5000000000000D-01  7.7842442029596D-01  9.6447275471228D-01
87  8.6000000000000D-01  7.4044744557386D-01  1.0163035434080D+00
88  8.7000000000000D-01  7.0225643816763D-01  1.0672154045174D+00
89  8.8000000000000D-01  6.6396158225705D-01  1.1169982602314D+00
90  8.9000000000000D-01  6.2567258576629D-01  1.1654435112126D+00
91  9.0000000000000D-01  5.8749804160700D-01  1.2123454352470D+00
92  9.1000000000000D-01  5.4954479968833D-01  1.2575025795580D+00
93  9.2000000000000D-01  5.1191735526602D-01  1.3007191347261D+00
94  9.3000000000000D-01  4.7471725900951D-01  1.3418062783139D+00
95  9.4000000000000D-01  4.3804255391612D-01  1.3805834765689D+00
96  9.5000000000000D-01  4.0198724389644D-01  1.4168797329738D+00
97  9.6000000000000D-01  3.6664079849753D-01  1.4505347729133D+00
98  9.7000000000000D-01  3.3208769782956D-01  1.4814001543398D+00
99  9.8000000000000D-01  2.9840702132079D-01  1.5093402950163D+00
100  9.9000000000000D-01  2.6567208343729D-01  1.5342334077270D+00
101  1.0000000000000D+00  2.3395011900043D-01  1.5559723357148D+00
102  1.0100000000000D+00  2.0330202019680D-01  1.5744652815544D+00
103  1.0200000000000D+00  1.7378212682434D-01  1.5896364236810D+00
104  1.0300000000000D+00  1.4543807074610D-01  1.6014264158647D+00
105  1.0400000000000D+00  1.1831067496715D-01  1.6097927659954D+00
106  1.0500000000000D+00  9.2433907180333D-02  1.6147100916666D+00
107  1.0600000000000D+00  6.7834887053581D-02  1.6161702512144D+00
108  1.0700000000000D+00  4.4533946008404D-02  1.6141823499631D+00
109  1.0800000000000D+00  2.2544737702194D-02  1.6087726225854D+00
110  1.0900000000000D+00  1.8743969426620D-03  1.5999841935741D+00
111  1.1000000000000D+00 -1.7476255684085D-02  1.5878767188424D+00
112  1.1100000000000D+00 -3.5512466653171D-02  1.5725259126004D+00
113  1.1200000000000D+00 -5.2245263327051D-02  1.5540229645108D+00
114  1.1300000000000D+00 -6.7691132653520D-02  1.5324738531398D+00
115  1.1400000000000D+00 -8.1871668845356D-02  1.5079985623458D+00
116  1.1500000000000D+00 -9.4813194460788D-02  1.4807302082552D+00
117  1.1600000000000D+00 -1.0654635941469D-01  1.4508140849368D+00
118  1.1700000000000D+00 -1.1710572257833D-01  1.4184066375351D+00
119  1.1800000000000D+00 -1.2652932069688D-01  1.3836743719894D+00
120  1.1900000000000D+00 -1.3485822935576D-01  1.3467927109849D+00
121  1.2000000000000D+00 -1.4213612063729D-01  1.3079448058979D+00
122  1.2100000000000D+00 -1.4840882203277D-01  1.2673203146807D+00
123  1.2200000000000D+00 -1.5372388102367D-01  1.2251141557492D+00
124  1.2300000000000D+00 -1.5813013946863D-01  1.1815252478038D+00
125  1.2400000000000D+00 -1.6167732168095D-01  1.1367552453297D+00
126  1.2500000000000D+00 -1.6441563992228D-01  1.0910072794759D+00
127  1.2600000000000D+00 -1.6639542046446D-01  1.0444847134284D+00
128  1.2700000000000D+00 -1.6766675305809D-01  9.9738992096055D-01
129  1.2800000000000D+00 -1.6827916652762D-01  9.4992309679531D-01
130  1.2900000000000D+00 -1.6828133231874D-01  9.0228110620783D-01
131  1.3000000000000D+00 -1.6772079760614D-01  8.5465638089123D-01
132  1.3100000000000D+00 -1.6664374942047D-01  8.0723586800020D-01
133  1.3200000000000D+00 -1.6509481014615D-01  7.6020003749826D-01
134  1.3300000000000D+00 -1.6311686477944D-01  7.1372195290155D-01
135  1.3400000000000D+00 -1.6075091996005D-01  6.6796641000680D-01
136  1.3500000000000D+00 -1.5803599374963D-01  6.2308914617648D-01
137  1.3600000000000D+00 -1.5500903548002D-01  5.7923612338738D-01
138  1.3700000000000D+00 -1.5170487416890D-01  5.3654288675954D-01
139  1.3800000000000D+00 -1.4815619346576D-01  4.9513399882946D-01
140  1.3900000000000D+00 -1.4439353152677D-01  4.5512255105542D-01
141  1.4000000000000D+00 -1.4044530295218D-01  4.1660975090701D-01
142  1.4100000000000D+00 -1.3633784043497D-01  3.7968458387899D-01
143  1.4200000000000D+00 -1.3209545327946D-01  3.4442354895996D-01
144  1.4300000000000D+00 -1.2774049967341D-01  3.1089046419534D-01
145  1.4400000000000D+00 -1.2329346983558D-01  2.7913634067199D-01
146  1.4500000000000D+00 -1.1877307671136D-01  2.4919932047820D-01
147  1.4600000000000D+00 -1.1419635128276D-01  2.2110467548647D-01
148  1.4700000000000D+00 -1.0957873816791D-01  1.9486485768138D-01
149  1.4800000000000D+00 -1.0493419317757D-01  1.7047961988868D-01
150  1.4900000000000D+00 -1.0027527036642D-01  1.4793615142525D-01
151  1.5000000000000D+00 -9.5613237381046D-02  1.2720944745773D-01
152  1.5100000000000D+00 -9.0958040842436D-02  1.0826196411190D-01
153  1.5200000000000D+00 -8.6318484312790D-02  9.1044507189605D-02
154  1.5300000000000D+00 -8.1702626376278D-02  7.5498468250474D-02
155  1.5400000000000D+00 -7.7118144693936D-02  6.1557772798862D-02
156  1.5500000000000D+00 -7.2572813988979D-02  4.9151443564849D-02
157  1.5600000000000D+00 -6.8074618551993D-02  3.8204262504609D-02
158  1.5700000000000D+00 -6.3631779405153D-02  2.8637006874658D-02
159  1.5800000000000D+00 -5.9252876687758D-02  2.0367396906879D-02
160  1.5900000000000D+00 -5.4946889570239D-02  1.3310668500619D-02
161  1.6000000000000D+00 -5.0723233138265D-02  7.3802533213012D-03
162  1.6100000000000D+00 -4.6591767894080D-02  2.4884066209299D-03
163  1.6200000000000D+00 -4.2562787733252D-02 -1.4531808490095D-03
164  1.6300000000000D+00 -3.8646988180850D-02 -4.5327935753343D-03
165  1.6400000000000D+00 -3.4855414794977D-02 -6.8381287721921D-03
166  1.6500000000000D+00 -3.1199394504121D-02 -8.4557611852747D-03
167  1.6600000000000D+00 -2.7690450876536D-02 -9.4706378791204D-03
168  1.6700000000000D+00 -2.4340206110202D-02 -9.9656033998393D-03
169  1.6800000000000D+00 -2.1160271448455D-02 -1.0020956831944D-02
170  1.6900000000000D+00 -1.8162128928014D-02 -9.7140408247773D-03
171  1.7000000000000D+00 -1.5357006497570D-02 -9.1188633300188D-03
172  1.7100000000000D+00 -1.2755749534879D-02 -8.3057516857449D-03
173  1.7200000000000D+00 -1.0368690875821D-02 -7.3410393623720D-03
174  1.7300000000000D+00 -8.2055223295101D-03 -6.2867845527322D-03
175  1.7400000000000D+00 -6.2751698244343D-03 -5.2005207191980D-03
176  1.7500000000000D+00 -4.5861055792036D-03 -4.1361281298066D-03
177  1.7600000000000D+00 -3.1449555768123D-03 -3.1404017835521D-03
178  1.7700000000000D+00 -1.9549068492986D-03 -2.2470621630891D-03
179  1.7800000000000D+00 -1.0226127223662D-03 -1.4986454700283D-03
180  1.7900000000000D+00 -3.6146563991109D-04 -9.7179338585754D-04
181  1.8000000000000D+00  3.1009342404744D-05 -6.8852542377459D-04
182  1.8100000000000D+00  1.7938888328265D-04 -4.9823856188055D-04
183  1.8200000000000D+00  1.3028322817410D-04 -2.4862612741890D-04
184  1.8300000000000D+00  1.8175448964049D-05 -3.0013701591949D-05
185  1.8400000000000D+00 -2.8186715367484D-05  4.3790774455982D-05
186  1.8500000000000D+00 -1.2510282180196D-05  1.8402180436919D-05
187  1.8600000000000D+00  5.0474089934945D-06 -8.7550624314100D-06
188  1.8700000000000D+00  4.2592280880168D-06 -7.2054714072145D-06
189  1.8800000000000D+00 -2.9711190243722D-07  8.1930546288230D-07
190  1.8900000000000D+00 -4.6036061421871D-07  1.2694744405433D-06
191  1.9000000000000D+00  0.0000000000000D+00  0.0000000000000D+00
192  1.9100000000000D+00  0.0000000000000D+00  0.0000000000000D+00
193  1.9200000000000D+00  0.0000000000000D+00  0.0000000000000D+00
194  1.9300000000000D+00  0.0000000000000D+00  0.0000000000000D+00
195  1.9400000000000D+00  0.0000000000000D+00  0.0000000000000D+00
196  1.9500000000000D+00  0.0000000000000D+00  0.0000000000000D+00
197  1.9600000000000D+00  0.0000000000000D+00  0.0000000000000D+00
198  1.9700000000000D+00  0.0000000000000D+00  0.0000000000000D+00
199  1.9800000000000D+00  0.0000000000000D+00  0.0000000000000D+00
200  1.9900000000000D+00  0.0000000000000D+00  0.0000000000000D+00
201  2.0000000000000D+00  0.0000000000000D+00  0.0000000000000D+00
202  2.0100000000000D+00  0.0000000000000D+00  0.0000000000000D+00
203  2.0200000000000D+00  0.0000000000000D+00  0.0000000000000D+00
204  2.0300000000000D+00  0.0000000000000D+00  0.0000000000000D+00
205  2.0400000000000D+00  0.0000000000000D+00  0.0000000000000D+00
206  2.0500000000000D+00  0.0000000000000D+00  0.0000000000000D+00
207  2.0600000000000D+00  0.0000000000000D+00  0.0000000000000D+00
208  2.0700000000000D+00  0.0000000000000D+00  0.0000000000000D+00
209  2.0800000000000D+00  0.0000000000000D+00  0.0000000000000D+00
210  2.0900000000000D+00  0.0000000000000D+00  0.0000000000000D+00
211  2.1000000000000D+00  0.0000000000000D+00  0.0000000000000D+00
212  2.1100000000000D+00  0.0000000000000D+00  0.0000000000000D+00
213  2.1200000000000D+00  0.0000000000000D+00  0.0000000000000D+00
214  2.1300000000000D+00  0.0000000000000D+00  0.0000000000000D+00
215  2.1400000000000D+00  0.0000000000000D+00  0.0000000000000D+00
216  2.1500000000000D+00  0.0000000000000D+00  0.0000000000000D+00
217  2.1600000000000D+00  0.0000000000000D+00  0.0000000000000D+00
218  2.1700000000000D+00  0.0000000000000D+00  0.0000000000000D+00
219  2.1800000000000D+00  0.0000000000000D+00  0.0000000000000D+00
220  2.1900000000000D+00  0.0000000000000D+00  0.0000000000000D+00
221  2.2000000000000D+00  0.0000000000000D+00  0.0000000000000D+00
222  2.2100000000000D+00  0.0000000000000D+00  0.0000000000000D+00
223  2.2200000000000D+00  0.0000000000000D+00  0.0000000000000D+00
224  2.2300000000000D+00  0.0000000000000D+00  0.0000000000000D+00
225  2.2400000000000D+00  0.0000000000000D+00  0.0000000000000D+00
226  2.2500000000000D+00  0.0000000000000D+00  0.0000000000000D+00
227  2.2600000000000D+00  0.0000000000000D+00  0.0000000000000D+00
228  2.2700000000000D+00  0.0000000000000D+00  0.0000000000000D+00
229  2.2800000000000D+00  0.0000000000000D+00  0.0000000000000D+00
230  2.2900000000000D+00  0.0000000000000D+00  0.0000000000000D+00
231  2.3000000000000D+00  0.0000000000000D+00  0.0000000000000D+00
232  2.3100000000000D+00  0.0000000000000D+00  0.0000000000000D+00
233  2.3200000000000D+00  0.0000000000000D+00  0.0000000000000D+00
234  2.3300000000000D+00  0.0000000000000D+00  0.0000000000000D+00
235  2.3400000000000D+00  0.0000000000000D+00  0.0000000000000D+00
236  2.3500000000000D+00  0.0000000000000D+00  0.0000000000000D+00
237  2.3600000000000D+00  0.0000000000000D+00  0.0000000000000D+00
238  2.3700000000000D+00  0.0000000000000D+00  0.0000000000000D+00
239  2.3800000000000D+00  0.0000000000000D+00  0.0000000000000D+00
240  2.3900000000000D+00  0.0000000000000D+00  0.0000000000000D+00
241  2.4000000000000D+00  0.0000000000000D+00  0.0000000000000D+00
242  2.4100000000000D+00  0.0000000000000D+00  0.0000000000000D+00
243  2.4200000000000D+00  0.0000000000000D+00  0.0000000000000D+00
244  2.4300000000000D+00  0.0000000000000D+00  0.0000000000000D+00
245  2.4400000000000D+00  0.0000000000000D+00  0.0000000000000D+00
246  2.4500000000000D+00  0.0000000000000D+00  0.0000000000000D+00
247  2.4600000000000D+00  0.0000000000000D+00  0.0000000000000D+00
248  2.4700000000000D+00  0.0000000000000D+00  0.0000000000000D+00
249  2.4800000000000D+00  0.0000000000000D+00  0.0000000000000D+00
250  2.4900000000000D+00  0.0000000000000D+00  0.0000000000000D+00
251  2.5000000000000D+00  0.0000000000000D+00  0.0000000000000D+00
252  2.5100000000000D+00  0.0000000000000D+00  0.0000000000000D+00
253  2.5200000000000D+00  0.0000000000000D+00  0.0000000000000D+00
254  2.5300000000000D+00  0.0000000000000D+00  0.0000000000000D+00
255  2.5400000000000D+00  0.0000000000000D+00  0.0000000000000D+00
256  2.5500000000000D+00  0.0000000000000D+00  0.0000000000000D+00
257  2.5600000000000D+00  0.0000000000000D+00  0.0000000000000D+00
258  2.5700000000000D+00  0.0000000000000D+00  0.0000000000000D+00
259  2.5800000000000D+00  0.0000000000000D+00  0.0000000000000D+00
260  2.5900000000000D+00  0.0000000000000D+00  0.0000000000000D+00
261  2.6000000000000D+00  0.0000000000000D+00  0.0000000000000D+00
262  2.6100000000000D+00  0.0000000000000D+00  0.0000000000000D+00
263  2.6200000000000D+00  0.0000000000000D+00  0.0000000000000D+00
264  2.6300000000000D+00  0.0000000000000D+00  0.0000000000000D+00
265  2.6400000000000D+00  0.0000000000000D+00  0.0000000000000D+00
266  2.6500000000000D+00  0.0000000000000D+00  0.0000000000000D+00
267  2.6600000000000D+00  0.0000000000000D+00  0.0000000000000D+00
268  2.6700000000000D+00  0.0000000000000D+00  0.0000000000000D+00
269  2.6800000000000D+00  0.0000000000000D+00  0.0000000000000D+00
270  2.6900000000000D+00  0.0000000000000D+00  0.0000000000000D+00
271  2.7000000000000D+00  0.0000000000000D+00  0.0000000000000D+00
272  2.7100000000000D+00  0.0000000000000D+00  0.0000000000000D+00
273  2.7200000000000D+00  0.0000000000000D+00  0.0000000000000D+00
274  2.7300000000000D+00  0.0000000000000D+00  0.0000000000000D+00
275  2.7400000000000D+00  0.0000000000000D+00  0.0000000000000D+00
276  2.7500000000000D+00  0.0000000000000D+00  0.0000000000000D+00
277  2.7600000000000D+00  0.0000000000000D+00  0.0000000000000D+00
278  2.7700000000000D+00  0.0000000000000D+00  0.0000000000000D+00
279  2.7800000000000D+00  0.0000000000000D+00  0.0000000000000D+00
280  2.7900000000000D+00  0.0000000000000D+00  0.0000000000000D+00
281  2.8000000000000D+00  0.0000000000000D+00  0.0000000000000D+00
282  2.8100000000000D+00  0.0000000000000D+00  0.0000000000000D+00
283  2.8200000000000D+00  0.0000000000000D+00  0.0000000000000D+00
284  2.8300000000000D+00  0.0000000000000D+00  0.0000000000000D+00
285  2.8400000000000D+00  0.0000000000000D+00  0.0000000000000D+00
286  2.8500000000000D+00  0.0000000000000D+00  0.0000000000000D+00
287  2.8600000000000D+00  0.0000000000000D+00  0.0000000000000D+00
288  2.8700000000000D+00  0.0000000000000D+00  0.0000000000000D+00
289  2.8800000000000D+00  0.0000000000000D+00  0.0000000000000D+00
290  2.8900000000000D+00  0.0000000000000D+00  0.0000000000000D+00
291  2.9000000000000D+00  0.0000000000000D+00  0.0000000000000D+00
292  2.9100000000000D+00  0.0000000000000D+00  0.0000000000000D+00
293  2.9200000000000D+00  0.0000000000000D+00  0.0000000000000D+00
294  2.9300000000000D+00  0.0000000000000D+00  0.0000000000000D+00
295  2.9400000000000D+00  0.0000000000000D+00  0.0000000000000D+00
296  2.9500000000000D+00  0.0000000000000D+00  0.0000000000000D+00
297  2.9600000000000D+00  0.0000000000000D+00  0.0000000000000D+00
298  2.9700000000000D+00  0.0000000000000D+00  0.0000000000000D+00
299  2.9800000000000D+00  0.0000000000000D+00  0.0000000000000D+00
300  2.9900000000000D+00  0.0000000000000D+00  0.0000000000000D+00
301  3.0000000000000D+00  0.0000000000000D+00  0.0000000000000D+00
302  3.0100000000000D+00  0.0000000000000D+00  0.0000000000000D+00
303  3.0200000000000D+00  0.0000000000000D+00  0.0000000000000D+00
304  3.0300000000000D+00  0.0000000000000D+00  0.0000000000000D+00
305  3.0400000000000D+00  0.0000000000000D+00  0.0000000000000D+00
306  3.0500000000000D+00  0.0000000000000D+00  0.0000000000000D+00
307  3.0600000000000D+00  0.0000000000000D+00  0.0000000000000D+00
308  3.0700000000000D+00  0.0000000000000D+00  0.0000000000000D+00
309  3.0800000000000D+00  0.0000000000000D+00  0.0000000000000D+00
310  3.0900000000000D+00  0.0000000000000D+00  0.0000000000000D+00
311  3.1000000000000D+00  0.0000000000000D+00  0.0000000000000D+00
312  3.1100000000000D+00  0.0000000000000D+00  0.0000000000000D+00
313  3.1200000000000D+00  0.0000000000000D+00  0.0000000000000D+00
314  3.1300000000000D+00  0.0000000000000D+00  0.0000000000000D+00
315  3.1400000000000D+00  0.0000000000000D+00  0.0000000000000D+00
316  3.1500000000000D+00  0.0000000000000D+00  0.0000000000000D+00
317  3.1600000000000D+00  0.0000000000000D+00  0.0000000000000D+00
318  3.1700000000000D+00  0.0000000000000D+00  0.0000000000000D+00
319  3.1800000000000D+00  0.0000000000000D+00  0.0000000000000D+00
320  3.1900000000000D+00  0.0000000000000D+00  0.0000000000000D+00
321  3.2000000000000D+00  0.0000000000000D+00  0.0000000000000D+00
322  3.2100000000000D+00  0.0000000000000D+00  0.0000000000000D+00
323  3.2200000000000D+00  0.0000000000000D+00  0.0000000000000D+00
324  3.2300000000000D+00  0.0000000000000D+00  0.0000000000000D+00
325  3.2400000000000D+00  0.0000000000000D+00  0.0000000000000D+00
326  3.2500000000000D+00  0.0000000000000D+00  0.0000000000000D+00
327  3.2600000000000D+00  0.0000000000000D+00  0.0000000000000D+00
328  3.2700000000000D+00  0.0000000000000D+00  0.0000000000000D+00
329  3.2800000000000D+00  0.0000000000000D+00  0.0000000000000D+00
330  3.2900000000000D+00  0.0000000000000D+00  0.0000000000000D+00
331  3.3000000000000D+00  0.0000000000000D+00  0.0000000000000D+00
332  3.3100000000000D+00  0.0000000000000D+00  0.0000000000000D+00
333  3.3200000000000D+00  0.0000000000000D+00  0.0000000000000D+00
334  3.3300000000000D+00  0.0000000000000D+00  0.0000000000000D+00
335  3.3400000000000D+00  0.0000000000000D+00  0.0000000000000D+00
336  3.3500000000000D+00  0.0000000000000D+00  0.0000000000000D+00
337  3.3600000000000D+00  0.0000000000000D+00  0.0000000000000D+00
338  3.3700000000000D+00  0.0000000000000D+00  0.0000000000000D+00
339  3.3800000000000D+00  0.0000000000000D+00  0.0000000000000D+00
340  3.3900000000000D+00  0.0000000000000D+00  0.0000000000000D+00
341  3.4000000000000D+00  0.0000000000000D+00  0.0000000000000D+00
342  3.4100000000000D+00  0.0000000000000D+00  0.0000000000000D+00
343  3.4200000000000D+00  0.0000000000000D+00  0.0000000000000D+00
344  3.4300000000000D+00  0.0000000000000D+00  0.0000000000000D+00
345  3.4400000000000D+00  0.0000000000000D+00  0.0000000000000D+00
346  3.4500000000000D+00  0.0000000000000D+00  0.0000000000000D+00
347  3.4600000000000D+00  0.0000000000000D+00  0.0000000000000D+00
348  3.4700000000000D+00  0.0000000000000D+00  0.0000000000000D+00
349  3.4800000000000D+00  0.0000000000000D+00  0.0000000000000D+00
350  3.4900000000000D+00  0.0000000000000D+00  0.0000000000000D+00
351  3.5000000000000D+00  0.0000000000000D+00  0.0000000000000D+00
352  3.5100000000000D+00  0.0000000000000D+00  0.0000000000000D+00
353  3.5200000000000D+00  0.0000000000000D+00  0.0000000000000D+00
354  3.5300000000000D+00  0.0000000000000D+00  0.0000000000000D+00
355  3.5400000000000D+00  0.0000000000000D+00  0.0000000000000D+00
356  3.5500000000000D+00  0.0000000000000D+00  0.0000000000000D+00
357  3.5600000000000D+00  0.0000000000000D+00  0.0000000000000D+00
358  3.5700000000000D+00  0.0000000000000D+00  0.0000000000000D+00
359  3.5800000000000D+00  0.0000000000000D+00  0.0000000000000D+00
360  3.5900000000000D+00  0.0000000000000D+00  0.0000000000000D+00
361  3.6000000000000D+00  0.0000000000000D+00  0.0000000000000D+00
362  3.6100000000000D+00  0.0000000000000D+00  0.0000000000000D+00
363  3.6200000000000D+00  0.0000000000000D+00  0.0000000000000D+00
364  3.6300000000000D+00  0.0000000000000D+00  0.0000000000000D+00
365  3.6400000000000D+00  0.0000000000000D+00  0.0000000000000D+00
366  3.6500000000000D+00  0.0000000000000D+00  0.0000000000000D+00
367  3.6600000000000D+00  0.0000000000000D+00  0.0000000000000D+00
368  3.6700000000000D+00  0.0000000000000D+00  0.0000000000000D+00
369  3.6800000000000D+00  0.0000000000000D+00  0.0000000000000D+00
370  3.6900000000000D+00  0.0000000000000D+00  0.0000000000000D+00
371  3.7000000000000D+00  0.0000000000000D+00  0.0000000000000D+00
372  3.7100000000000D+00  0.0000000000000D+00  0.0000000000000D+00
373  3.7200000000000D+00  0.0000000000000D+00  0.0000000000000D+00
374  3.7300000000000D+00  0.0000000000000D+00  0.0000000000000D+00
375  3.7400000000000D+00  0.0000000000000D+00  0.0000000000000D+00
376  3.7500000000000D+00  0.0000000000000D+00  0.0000000000000D+00
377  3.7600000000000D+00  0.0000000000000D+00  0.0000000000000D+00
378  3.7700000000000D+00  0.0000000000000D+00  0.0000000000000D+00
379  3.7800000000000D+00  0.0000000000000D+00  0.0000000000000D+00
380  3.7900000000000D+00  0.0000000000000D+00  0.0000000000000D+00
381  3.8000000000000D+00  0.0000000000000D+00  0.0000000000000D+00
382  3.8100000000000D+00  0.0000000000000D+00  0.0000000000000D+00
383  3.8200000000000D+00  0.0000000000000D+00  0.0000000000000D+00
384  3.8300000000000D+00  0.0000000000000D+00  0.0000000000000D+00
385  3.8400000000000D+00  0.0000000000000D+00  0.0000000000000D+00
386  3.8500000000000D+00  0.0000000000000D+00  0.0000000000000D+00
387  3.8600000000000D+00  0.0000000000000D+00  0.0000000000000D+00
388  3.8700000000000D+00  0.0000000000000D+00  0.0000000000000D+00
389  3.8800000000000D+00  0.0000000000000D+00  0.0000000000000D+00
390  3.8900000000000D+00  0.0000000000000D+00  0.0000000000000D+00
391  3.9000000000000D+00  0.0000000000000D+00  0.0000000000000D+00
392  3.9100000000000D+00  0.0000000000000D+00  0.0000000000000D+00
393  3.9200000000000D+00  0.0000000000000D+00  0.0000000000000D+00
394  3.9300000000000D+00  0.0000000000000D+00  0.0000000000000D+00
395  3.9400000000000D+00  0.0000000000000D+00  0.0000000000000D+00
396  3.9500000000000D+00  0.0000000000000D+00  0.0000000000000D+00
397  3.9600000000000D+00  0.0000000000000D+00  0.0000000000000D+00
398  3.9700000000000D+00  0.0000000000000D+00  0.0000000000000D+00
399  3.9800000000000D+00  0.0000000000000D+00  0.0000000000000D+00
400  3.9900000000000D+00  0.0000000000000D+00  0.0000000000000D+00
401  4.0000000000000D+00  0.0000000000000D+00  0.0000000000000D+00
402  4.0100000000000D+00  0.0000000000000D+00  0.0000000000000D+00
403  4.0200000000000D+00  0.0000000000000D+00  0.0000000000000D+00
404  4.0300000000000D+00  0.0000000000000D+00  0.0000000000000D+00
405  4.0400000000000D+00  0.0000000000000D+00  0.0000000000000D+00
406  4.0500000000000D+00  0.0000000000000D+00  0.0000000000000D+00
407  4.0600000000000D+00  0.0000000000000D+00  0.0000000000000D+00
408  4.0700000000000D+00  0.0000000000000D+00  0.0000000000000D+00
409  4.0800000000000D+00  0.0000000000000D+00  0.0000000000000D+00
410  4.0900000000000D+00  0.0000000000000D+00  0.0000000000000D+00
411  4.1000000000000D+00  0.0000000000000D+00  0.0000000000000D+00
412  4.1100000000000D+00  0.0000000000000D+00  0.0000000000000D+00
413  4.1200000000000D+00  0.0000000000000D+00  0.0000000000000D+00
414  4.1300000000000D+00  0.0000000000000D+00  0.0000000000000D+00
415  4.1400000000000D+00  0.0000000000000D+00  0.0000000000000D+00
416  4.1500000000000D+00  0.0000000000000D+00  0.0000000000000D+00
417  4.1600000000000D+00  0.0000000000000D+00  0.0000000000000D+00
418  4.1700000000000D+00  0.0000000000000D+00  0.0000000000000D+00
419  4.1800000000000D+00  0.0000000000000D+00  0.0000000000000D+00
420  4.1900000000000D+00  0.0000000000000D+00  0.0000000000000D+00
421  4.2000000000000D+00  0.0000000000000D+00  0.0000000000000D+00
422  4.2100000000000D+00  0.0000000000000D+00  0.0000000000000D+00
423  4.2200000000000D+00  0.0000000000000D+00  0.0000000000000D+00
424  4.2300000000000D+00  0.0000000000000D+00  0.0000000000000D+00
425  4.2400000000000D+00  0.0000000000000D+00  0.0000000000000D+00
426  4.2500000000000D+00  0.0000000000000D+00  0.0000000000000D+00
427  4.2600000000000D+00  0.0000000000000D+00  0.0000000000000D+00
428  4.2700000000000D+00  0.0000000000000D+00  0.0000000000000D+00
429  4.2800000000000D+00  0.0000000000000D+00  0.0000000000000D+00
430  4.2900000000000D+00  0.0000000000000D+00  0.0000000000000D+00
431  4.3000000000000D+00  0.0000000000000D+00  0.0000000000000D+00
432  4.3100000000000D+00  0.0000000000000D+00  0.0000000000000D+00
433  4.3200000000000D+00  0.0000000000000D+00  0.0000000000000D+00
434  4.3300000000000D+00  0.0000000000000D+00  0.0000000000000D+00
435  4.3400000000000D+00  0.0000000000000D+00  0.0000000000000D+00
436  4.3500000000000D+00  0.0000000000000D+00  0.0000000000000D+00
437  4.3600000000000D+00  0.0000000000000D+00  0.0000000000000D+00
438  4.3700000000000D+00  0.0000000000000D+00  0.0000000000000D+00
439  4.3800000000000D+00  0.0000000000000D+00  0.0000000000000D+00
440  4.3900000000000D+00  0.0000000000000D+00  0.0000000000000D+00
441  4.4000000000000D+00  0.0000000000000D+00  0.0000000000000D+00
442  4.4100000000000D+00  0.0000000000000D+00  0.0000000000000D+00
443  4.4200000000000D+00  0.0000000000000D+00  0.0000000000000D+00