F     ONCVPSP-3.2.3  r_core=   1.30942   1.60379   1.26339
9.0000      7.0000      161006    zatom,zion,pspd
8   -1012   2     4   600     0    pspcod,pspxc,lmax,lloc,mmax,r2well
5.99000000  4.00000000  0.00000000    rchrg fchrg qchrg
2     2     1     0     0    nproj
1     1           extension_switch
0                         2.8632273971047D+00 -3.5253282647739D-01
1  0.0000000000000D+00 -6.8940123609806D-09 -4.2076881312525D-08
2  1.0000000000000D-02  9.2946784788514D-02  5.5096079154362D-02
3  2.0000000000000D-02  1.8539888807612D-01  1.0855843559773D-01
4  3.0000000000000D-02  2.7686784216749D-01  1.5878667160405D-01
5  4.0000000000000D-02  3.6687750336943D-01  2.0424642271817D-01
6  5.0000000000000D-02  4.5496995677000D-01  2.4350084363898D-01
7  6.0000000000000D-02  5.4071111736225D-01  2.7524028779298D-01
8  7.0000000000000D-02  6.2369593455218D-01  2.9830962891100D-01
9  8.0000000000000D-02  7.0355311398480D-01  3.1173271499708D-01
10  9.0000000000000D-02  7.7994927901264D-01  3.1473349627703D-01
11  1.0000000000000D-01  8.5259250387275D-01  3.0675342813810D-01
12  1.1000000000000D-01  9.2123516156212D-01  2.8746481667901D-01
13  1.2000000000000D-01  9.8567604131765D-01  2.5677984711624D-01
14  1.3000000000000D-01  1.0457617033087D+00  2.1485511266165D-01
15  1.4000000000000D-01  1.1013870514170D+00  1.6209154224331D-01
16  1.5000000000000D-01  1.1524951185806D+00  9.9129708164558D-02
17  1.6000000000000D-01  1.1990760728752D+00  2.6840578033012D-02
18  1.7000000000000D-01  1.2411654660680D+00 -5.3688142425832D-02
19  1.8000000000000D-01  1.2788417595561D+00 -1.4116984917710D-01
20  1.9000000000000D-01  1.3122231751780D+00 -2.3414075975193D-01
21  2.0000000000000D-01  1.3414639301327D+00 -3.3098513973651D-01
22  2.1000000000000D-01  1.3667499259562D+00 -4.2996359794709D-01
23  2.2000000000000D-01  1.3882939709977D+00 -5.2924395546275D-01
24  2.3000000000000D-01  1.4063306239468D+00 -6.2693414538062D-01
25  2.4000000000000D-01  1.4211107525371D+00 -7.2111656131657D-01
26  2.5000000000000D-01  1.4328959064812D+00 -8.0988324400704D-01
27  2.6000000000000D-01  1.4419526068844D+00 -8.9137127740648D-01
28  2.7000000000000D-01  1.4485466557846D+00 -9.6379775876694D-01
29  2.8000000000000D-01  1.4529375690414D+00 -1.0254937114856D+00
30  2.9000000000000D-01  1.4553732335596D+00 -1.0749363249727D+00
31  3.0000000000000D-01  1.4560848858106D+00 -1.1107789321886D+00
32  3.1000000000000D-01  1.4552825028821D+00 -1.1318781723991D+00
33  3.2000000000000D-01  1.4531506899337D+00 -1.1373178334873D+00
34  3.3000000000000D-01  1.4498451390936D+00 -1.1264289240576D+00
35  3.4000000000000D-01  1.4454897246486D+00 -1.0988055896164D+00
36  3.5000000000000D-01  1.4401742880305D+00 -1.0543165582281D+00
37  3.6000000000000D-01  1.4339531537841D+00 -9.9311187800480D-01
38  3.7000000000000D-01  1.4268444046323D+00 -9.1562479025874D-01
39  3.8000000000000D-01  1.4188299301455D+00 -8.2256866673215D-01
40  3.9000000000000D-01  1.4098562496352D+00 -7.1492902554320D-01
41  4.0000000000000D-01  1.3998360959412D+00 -5.9395072684498D-01
42  4.1000000000000D-01  1.3886507330363D+00 -4.6112053419299D-01
43  4.2000000000000D-01  1.3761529670556D+00 -3.1814530974479D-01
44  4.3000000000000D-01  1.3621707977120D+00 -1.6692618924488D-01
45  4.4000000000000D-01  1.3465116453098D+00 -9.5291548921815D-03
46  4.5000000000000D-01  1.3289670779149D+00  1.5184751062973D-01
47  4.6000000000000D-01  1.3093179538814D+00  3.1490834862369D-01
48  4.7000000000000D-01  1.2873398870359D+00  4.7729783911757D-01
49  4.8000000000000D-01  1.2628089355196D+00  6.3663887976131D-01
50  4.9000000000000D-01  1.2355074107090D+00  7.9057197562855D-01
51  5.0000000000000D-01  1.2052296998595D+00  9.3679447076489D-01
52  5.1000000000000D-01  1.1717879951961D+00  1.0730991479819D+00
53  5.2000000000000D-01  1.1350178231377D+00  1.1974115307413D+00
54  5.3000000000000D-01  1.0947832701778D+00  1.3078252399348D+00
55  5.4000000000000D-01  1.0509818065969D+00  1.4026347885957D+00
56  5.5000000000000D-01  1.0035486156090D+00  1.4803652387393D+00
57  5.6000000000000D-01  9.5246034359393D-01  1.5397981957375D+00
58  5.7000000000000D-01  8.9773819665055D-01  1.5799936762471D+00
59  5.8000000000000D-01  8.3945031963221D-01  1.6003074545806D+00
60  5.9000000000000D-01  7.7771340591301D-01  1.6004035683709D+00
61  6.0000000000000D-01  7.1269349919374D-01  1.5802617462475D+00
62  6.1000000000000D-01  6.4460596244572D-01  1.5401796065059D+00
63  6.2000000000000D-01  5.7371460335811D-01  1.4807695648287D+00
64  6.3000000000000D-01  5.0032996024139D-01  1.4029504800263D+00
65  6.4000000000000D-01  4.2480676680655D-01  1.3079341567651D+00
66  6.5000000000000D-01  3.4754062859149D-01  1.1972069133721D+00
67  6.6000000000000D-01  2.6896395756687D-01  1.0725065080955D+00
68  6.7000000000000D-01  1.8954122445493D-01  9.3579479760597D-01
69  6.8000000000000D-01  1.0976360042468D-01  7.8922657636857D-01
70  6.9000000000000D-01  3.0143070664143D-02  6.3511511217127D-01
71  7.0000000000000D-01 -4.8793888156455D-02  4.7589495140217D-01
72  7.1000000000000D-01 -1.2651296657003D-01  3.1408261610674D-01
73  7.2000000000000D-01 -2.0247891090350D-01  1.5223585284578D-01
74  7.3000000000000D-01 -2.7616253109257D-01 -7.0878801816508D-03
75  7.4000000000000D-01 -3.4704771445732D-01 -1.6137298646115D-01
76  7.5000000000000D-01 -4.1463833154949D-01 -3.0818666102480D-01
77  7.6000000000000D-01 -4.7846492148331D-01 -4.4521848233153D-01
78  7.7000000000000D-01 -5.3809104743620D-01 -5.7031799331943D-01
79  7.8000000000000D-01 -5.9311921813100D-01 -6.8152963193865D-01
80  7.9000000000000D-01 -6.4319627805189D-01 -7.7712441588431D-01
81  8.0000000000000D-01 -6.8801817776523D-01 -8.5562784103391D-01
82  8.1000000000000D-01 -7.2733404587290D-01 -9.1584351735575D-01
83  8.2000000000000D-01 -7.6094949564544D-01 -9.5687213869107D-01
84  8.3000000000000D-01 -7.8872911206846D-01 -9.7812546257697D-01
85  8.4000000000000D-01 -8.1059807866945D-01 -9.7933506179169D-01
86  8.5000000000000D-01 -8.2654291783854D-01 -9.6055569908940D-01
87  8.6000000000000D-01 -8.3661133316771D-01 -9.2216326908851D-01
88  8.7000000000000D-01 -8.4091115735090D-01 -8.6484734487380D-01
89  8.8000000000000D-01 -8.3960842415234D-01 -7.8959845993665D-01
90  8.9000000000000D-01 -8.3292459760117D-01 -6.9769034697812D-01
91  9.0000000000000D-01 -8.2113300565190D-01 -5.9065744224421D-01
92  9.1000000000000D-01 -8.0455453881617D-01 -4.7026804591773D-01
93  9.2000000000000D-01 -7.8355268649094D-01 -3.3849360421558D-01
94  9.3000000000000D-01 -7.5852799466592D-01 -1.9747464590534D-01
95  9.4000000000000D-01 -7.2991203819894D-01 -4.9483963773435D-02
96  9.5000000000000D-01 -6.9816100873372D-01  1.0311232087896D-01
97  9.6000000000000D-01 -6.6374902546360D-01  2.5789513621147D-01
98  9.7000000000000D-01 -6.2716128021443D-01  4.1243358110687D-01
99  9.8000000000000D-01 -5.8888713059616D-01  5.6432607843329D-01
100  9.9000000000000D-01 -5.4941325540357D-01  7.1124084844820D-01
101  1.0000000000000D+00 -5.0921698472559D-01  8.5095500357768D-01
102  1.0100000000000D+00 -4.6875991364985D-01  9.8139159034907D-01
103  1.0200000000000D+00 -4.2848190295167D-01  1.1006539409383D+00
104  1.0300000000000D+00 -3.8879556292200D-01  1.2070567442830D+00
105  1.0400000000000D+00 -3.5008130721892D-01  1.2991533069545D+00
106  1.0500000000000D+00 -3.1268305377151D-01  1.3757585376641D+00
107  1.0600000000000D+00 -2.7690463748885D-01  1.4359672682307D+00
108  1.0700000000000D+00 -2.4300698666129D-01  1.4791676062228D+00
109  1.0800000000000D+00 -2.1120610146437D-01  1.5050491005735D+00
110  1.0900000000000D+00 -1.8167185776005D-01  1.5136055983800D+00
111  1.1000000000000D+00 -1.5452764606841D-01  1.5051327557843D+00
112  1.1100000000000D+00 -1.2985083927177D-01  1.4802202693250D+00
113  1.1200000000000D+00 -1.0767406825925D-01  1.4397389849734D+00
114  1.1300000000000D+00 -8.7987270236735D-02  1.3848231335635D+00
115  1.1400000000000D+00 -7.0740461175381D-02  1.3168480248528D+00
116  1.1500000000000D+00 -5.5847171220969D-02  1.2374036120854D+00
117  1.1600000000000D+00 -4.3188468800456D-02  1.1482644209804D+00
118  1.1700000000000D+00 -3.2617489962479D-02  1.0513563944659D+00
119  1.1800000000000D+00 -2.3964381362832D-02  9.4872125511126D-01
120  1.1900000000000D+00 -1.7041556625666D-02  8.4247904100624D-01
121  1.2000000000000D+00 -1.1649160925004D-02  7.3478950051064D-01
122  1.2100000000000D+00 -7.5806363460415D-03  6.2781304434547D-01
123  1.2200000000000D+00 -4.6282775141800D-03  5.2367197347382D-01
124  1.2300000000000D+00 -2.5886682184467D-03  4.2441268607224D-01
125  1.2400000000000D+00 -1.2678899104337D-03  3.3196959455026D-01
126  1.2500000000000D+00 -4.8643253655377D-04  2.4813097553846D-01
127  1.2600000000000D+00 -8.3591735381266D-05  1.7450895591039D-01
128  1.2700000000000D+00  7.8632715641921D-05  1.1254869493005D-01
129  1.2800000000000D+00  1.1081904099031D-04  6.3251760814406D-02
130  1.2900000000000D+00  9.4204525823765D-05  2.7620135747975D-02
131  1.3000000000000D+00  8.5757791024744D-05  7.3584679857824D-03
132  1.3100000000000D+00  7.3883683043253D-05 -5.9615258826999D-05
133  1.3200000000000D+00  2.3608024926060D-05 -5.7333807432170D-04
134  1.3300000000000D+00 -7.3532735341507D-06  2.3651377340863D-04
135  1.3400000000000D+00 -1.2564525309291D-06  4.6822306358759D-05
136  1.3500000000000D+00  1.7078460245890D-06 -4.5742324136495D-05
137  1.3600000000000D+00 -1.2657921039846D-07 -2.0434396809335D-07
138  1.3700000000000D+00 -1.2507861775191D-07 -2.0192147663586D-07
139  1.3800000000000D+00  0.0000000000000D+00  0.0000000000000D+00
140  1.3900000000000D+00  0.0000000000000D+00  0.0000000000000D+00
141  1.4000000000000D+00  0.0000000000000D+00  0.0000000000000D+00
142  1.4100000000000D+00  0.0000000000000D+00  0.0000000000000D+00
143  1.4200000000000D+00  0.0000000000000D+00  0.0000000000000D+00
144  1.4300000000000D+00  0.0000000000000D+00  0.0000000000000D+00
145  1.4400000000000D+00  0.0000000000000D+00  0.0000000000000D+00
146  1.4500000000000D+00  0.0000000000000D+00  0.0000000000000D+00
147  1.4600000000000D+00  0.0000000000000D+00  0.0000000000000D+00
148  1.4700000000000D+00  0.0000000000000D+00  0.0000000000000D+00
149  1.4800000000000D+00  0.0000000000000D+00  0.0000000000000D+00
150  1.4900000000000D+00  0.0000000000000D+00  0.0000000000000D+00
151  1.5000000000000D+00  0.0000000000000D+00  0.0000000000000D+00
152  1.5100000000000D+00  0.0000000000000D+00  0.0000000000000D+00
153  1.5200000000000D+00  0.0000000000000D+00  0.0000000000000D+00
154  1.5300000000000D+00  0.0000000000000D+00  0.0000000000000D+00
155  1.5400000000000D+00  0.0000000000000D+00  0.0000000000000D+00
156  1.5500000000000D+00  0.0000000000000D+00  0.0000000000000D+00
157  1.5600000000000D+00  0.0000000000000D+00  0.0000000000000D+00
158  1.5700000000000D+00  0.0000000000000D+00  0.0000000000000D+00
159  1.5800000000000D+00  0.0000000000000D+00  0.0000000000000D+00
160  1.5900000000000D+00  0.0000000000000D+00  0.0000000000000D+00
161  1.6000000000000D+00  0.0000000000000D+00  0.0000000000000D+00
162  1.6100000000000D+00  0.0000000000000D+00  0.0000000000000D+00
163  1.6200000000000D+00  0.0000000000000D+00  0.0000000000000D+00
164  1.6300000000000D+00  0.0000000000000D+00  0.0000000000000D+00
165  1.6400000000000D+00  0.0000000000000D+00  0.0000000000000D+00
166  1.6500000000000D+00  0.0000000000000D+00  0.0000000000000D+00
167  1.6600000000000D+00  0.0000000000000D+00  0.0000000000000D+00
168  1.6700000000000D+00  0.0000000000000D+00  0.0000000000000D+00
169  1.6800000000000D+00  0.0000000000000D+00  0.0000000000000D+00
170  1.6900000000000D+00  0.0000000000000D+00  0.0000000000000D+00
171  1.7000000000000D+00  0.0000000000000D+00  0.0000000000000D+00
172  1.7100000000000D+00  0.0000000000000D+00  0.0000000000000D+00
173  1.7200000000000D+00  0.0000000000000D+00  0.0000000000000D+00
174  1.7300000000000D+00  0.0000000000000D+00  0.0000000000000D+00
175  1.7400000000000D+00  0.0000000000000D+00  0.0000000000000D+00
176  1.7500000000000D+00  0.0000000000000D+00  0.0000000000000D+00
177  1.7600000000000D+00  0.0000000000000D+00  0.0000000000000D+00
178  1.7700000000000D+00  0.0000000000000D+00  0.0000000000000D+00
179  1.7800000000000D+00  0.0000000000000D+00  0.0000000000000D+00
180  1.7900000000000D+00  0.0000000000000D+00  0.0000000000000D+00
181  1.8000000000000D+00  0.0000000000000D+00  0.0000000000000D+00
182  1.8100000000000D+00  0.0000000000000D+00  0.0000000000000D+00
183  1.8200000000000D+00  0.0000000000000D+00  0.0000000000000D+00
184  1.8300000000000D+00  0.0000000000000D+00  0.0000000000000D+00
185  1.8400000000000D+00  0.0000000000000D+00  0.0000000000000D+00
186  1.8500000000000D+00  0.0000000000000D+00  0.0000000000000D+00
187  1.8600000000000D+00  0.0000000000000D+00  0.0000000000000D+00
188  1.8700000000000D+00  0.0000000000000D+00  0.0000000000000D+00
189  1.8800000000000D+00  0.0000000000000D+00  0.0000000000000D+00
190  1.8900000000000D+00  0.0000000000000D+00  0.0000000000000D+00
191  1.9000000000000D+00  0.0000000000000D+00  0.0000000000000D+00
192  1.9100000000000D+00  0.0000000000000D+00  0.0000000000000D+00
193  1.9200000000000D+00  0.0000000000000D+00  0.0000000000000D+00
194  1.9300000000000D+00  0.0000000000000D+00  0.0000000000000D+00
195  1.9400000000000D+00  0.0000000000000D+00  0.0000000000000D+00
196  1.9500000000000D+00  0.0000000000000D+00  0.0000000000000D+00
197  1.9600000000000D+00  0.0000000000000D+00  0.0000000000000D+00
198  1.9700000000000D+00  0.0000000000000D+00  0.0000000000000D+00
199  1.9800000000000D+00  0.0000000000000D+00  0.0000000000000D+00
200  1.9900000000000D+00  0.0000000000000D+00  0.0000000000000D+00
201  2.0000000000000D+00  0.0000000000000D+00  0.0000000000000D+00
202  2.0100000000000D+00  0.0000000000000D+00  0.0000000000000D+00
203  2.0200000000000D+00  0.0000000000000D+00  0.0000000000000D+00
204  2.0300000000000D+00  0.0000000000000D+00  0.0000000000000D+00
205  2.0400000000000D+00  0.0000000000000D+00  0.0000000000000D+00
206  2.0500000000000D+00  0.0000000000000D+00  0.0000000000000D+00
207  2.0600000000000D+00  0.0000000000000D+00  0.0000000000000D+00
208  2.0700000000000D+00  0.0000000000000D+00  0.0000000000000D+00
209  2.0800000000000D+00  0.0000000000000D+00  0.0000000000000D+00
210  2.0900000000000D+00  0.0000000000000D+00  0.0000000000000D+00
211  2.1000000000000D+00  0.0000000000000D+00  0.0000000000000D+00
212  2.1100000000000D+00  0.0000000000000D+00  0.0000000000000D+00
213  2.1200000000000D+00  0.0000000000000D+00  0.0000000000000D+00
214  2.1300000000000D+00  0.0000000000000D+00  0.0000000000000D+00
215  2.1400000000000D+00  0.0000000000000D+00  0.0000000000000D+00
216  2.1500000000000D+00  0.0000000000000D+00  0.0000000000000D+00
217  2.1600000000000D+00  0.0000000000000D+00  0.0000000000000D+00
218  2.1700000000000D+00  0.0000000000000D+00  0.0000000000000D+00
219  2.1800000000000D+00  0.0000000000000D+00  0.0000000000000D+00
220  2.1900000000000D+00  0.0000000000000D+00  0.0000000000000D+00
221  2.2000000000000D+00  0.0000000000000D+00  0.0000000000000D+00
222  2.2100000000000D+00  0.0000000000000D+00  0.0000000000000D+00
223  2.2200000000000D+00  0.0000000000000D+00  0.0000000000000D+00
224  2.2300000000000D+00  0.0000000000000D+00  0.0000000000000D+00
225  2.2400000000000D+00  0.0000000000000D+00  0.0000000000000D+00
226  2.2500000000000D+00  0.0000000000000D+00  0.0000000000000D+00
227  2.2600000000000D+00  0.0000000000000D+00  0.0000000000000D+00
228  2.2700000000000D+00  0.0000000000000D+00  0.0000000000000D+00
229  2.2800000000000D+00  0.0000000000000D+00  0.0000000000000D+00
230  2.2900000000000D+00  0.0000000000000D+00  0.0000000000000D+00
231  2.3000000000000D+00  0.0000000000000D+00  0.0000000000000D+00
232  2.3100000000000D+00  0.0000000000000D+00  0.0000000000000D+00
233  2.3200000000000D+00  0.0000000000000D+00  0.0000000000000D+00
234  2.3300000000000D+00  0.0000000000000D+00  0.0000000000000D+00
235  2.3400000000000D+00  0.0000000000000D+00  0.0000000000000D+00
236  2.3500000000000D+00  0.0000000000000D+00  0.0000000000000D+00
237  2.3600000000000D+00  0.0000000000000D+00  0.0000000000000D+00
238  2.3700000000000D+00  0.0000000000000D+00  0.0000000000000D+00
239  2.3800000000000D+00  0.0000000000000D+00  0.0000000000000D+00
240  2.3900000000000D+00  0.0000000000000D+00  0.0000000000000D+00
241  2.4000000000000D+00  0.0000000000000D+00  0.0000000000000D+00
242  2.4100000000000D+00  0.0000000000000D+00  0.0000000000000D+00
243  2.4200000000000D+00  0.0000000000000D+00  0.0000000000000D+00
244  2.4300000000000D+00  0.0000000000000D+00  0.0000000000000D+00
245  2.4400000000000D+00  0.0000000000000D+00  0.0000000000000D+00
246  2.4500000000000D+00  0.0000000000000D+00  0.0000000000000D+00
247  2.4600000000000D+00  0.0000000000000D+00  0.0000000000000D+00
248  2.4700000000000D+00  0.0000000000000D+00  0.0000000000000D+00
249  2.4800000000000D+00  0.0000000000000D+00  0.0000000000000D+00
250  2.4900000000000D+00  0.0000000000000D+00  0.0000000000000D+00
251  2.5000000000000D+00  0.0000000000000D+00  0.0000000000000D+00
252  2.5100000000000D+00  0.0000000000000D+00  0.0000000000000D+00
253  2.5200000000000D+00  0.0000000000000D+00  0.0000000000000D+00
254  2.5300000000000D+00  0.0000000000000D+00  0.0000000000000D+00
255  2.5400000000000D+00  0.0000000000000D+00  0.0000000000000D+00
256  2.5500000000000D+00  0.0000000000000D+00  0.0000000000000D+00
257  2.5600000000000D+00  0.0000000000000D+00  0.0000000000000D+00
258  2.5700000000000D+00  0.0000000000000D+00  0.0000000000000D+00
259  2.5800000000000D+00  0.0000000000000D+00  0.0000000000000D+00
260  2.5900000000000D+00  0.0000000000000D+00  0.0000000000000D+00
261  2.6000000000000D+00  0.0000000000000D+00  0.0000000000000D+00
262  2.6100000000000D+00  0.0000000000000D+00  0.0000000000000D+00
263  2.6200000000000D+00  0.0000000000000D+00  0.0000000000000D+00
264  2.6300000000000D+00  0.0000000000000D+00  0.0000000000000D+00
265  2.6400000000000D+00  0.0000000000000D+00  0.0000000000000D+00
266  2.6500000000000D+00  0.0000000000000D+00  0.0000000000000D+00
267  2.6600000000000D+00  0.0000000000000D+00  0.0000000000000D+00
268  2.6700000000000D+00  0.0000000000000D+00  0.0000000000000D+00
269  2.6800000000000D+00  0.0000000000000D+00  0.0000000000000D+00
270  2.6900000000000D+00  0.0000000000000D+00  0.0000000000000D+00
271  2.7000000000000D+00  0.0000000000000D+00  0.0000000000000D+00
272  2.7100000000000D+00  0.0000000000000D+00  0.0000000000000D+00
273  2.7200000000000D+00  0.0000000000000D+00  0.0000000000000D+00
274  2.7300000000000D+00  0.0000000000000D+00  0.0000000000000D+00
275  2.7400000000000D+00  0.0000000000000D+00  0.0000000000000D+00
276  2.7500000000000D+00  0.0000000000000D+00  0.0000000000000D+00
277  2.7600000000000D+00  0.0000000000000D+00  0.0000000000000D+00
278  2.7700000000000D+00  0.0000000000000D+00  0.0000000000000D+00
279  2.7800000000000D+00  0.0000000000000D+00  0.0000000000000D+00
280  2.7900000000000D+00  0.0000000000000D+00  0.0000000000000D+00
281  2.8000000000000D+00  0.0000000000000D+00  0.0000000000000D+00
282  2.8100000000000D+00  0.0000000000000D+00  0.0000000000000D+00
283  2.8200000000000D+00  0.0000000000000D+00  0.0000000000000D+00
284  2.8300000000000D+00  0.0000000000000D+00  0.0000000000000D+00
285  2.8400000000000D+00  0.0000000000000D+00  0.0000000000000D+00
286  2.8500000000000D+00  0.0000000000000D+00  0.0000000000000D+00
287  2.8600000000000D+00  0.0000000000000D+00  0.0000000000000D+00
288  2.8700000000000D+00  0.0000000000000D+00  0.0000000000000D+00
289  2.8800000000000D+00  0.0000000000000D+00  0.0000000000000D+00
290  2.8900000000000D+00  0.0000000000000D+00  0.0000000000000D+00
291  2.9000000000000D+00  0.0000000000000D+00  0.0000000000000D+00
292  2.9100000000000D+00  0.0000000000000D+00  0.0000000000000D+00
293  2.9200000000000D+00  0.0000000000000D+00  0.0000000000000D+00
294  2.9300000000000D+00  0.0000000000000D+00  0.0000000000000D+00
295  2.9400000000000D+00  0.0000000000000D+00  0.0000000000000D+00
296  2.9500000000000D+00  0.0000000000000D+00  0.0000000000000D+00
297  2.9600000000000D+00  0.0000000000000D+00  0.0000000000000D+00
298  2.9700000000000D+00  0.0000000000000D+00  0.0000000000000D+00
299  2.9800000000000D+00  0.0000000000000D+00  0.0000000000000D+00
300  2.9900000000000D+00  0.0000000000000D+00  0.0000000000000D+00
301  3.0000000000000D+00  0.0000000000000D+00  0.0000000000000D+00
302  3.0100000000000D+00  0.0000000000000D+00  0.0000000000000D+00
303  3.0200000000000D+00  0.0000000000000D+00  0.0000000000000D+00
304  3.0300000000000D+00  0.0000000000000D+00  0.0000000000000D+00
305  3.0400000000000D+00  0.0000000000000D+00  0.0000000000000D+00
306  3.0500000000000D+00  0.0000000000000D+00  0.0000000000000D+00
307  3.0600000000000D+00  0.0000000000000D+00  0.0000000000000D+00
308  3.0700000000000D+00  0.0000000000000D+00  0.0000000000000D+00
309  3.0800000000000D+00  0.0000000000000D+00  0.0000000000000D+00
310  3.0900000000000D+00  0.0000000000000D+00  0.0000000000000D+00
311  3.1000000000000D+00  0.0000000000000D+00  0.0000000000000D+00
312  3.1100000000000D+00  0.0000000000000D+00  0.0000000000000D+00
313  3.1200000000000D+00  0.0000000000000D+00  0.0000000000000D+00
314  3.1300000000000D+00  0.0000000000000D+00  0.0000000000000D+00
315  3.1400000000000D+00  0.0000000000000D+00  0.0000000000000D+00
316  3.1500000000000D+00  0.0000000000000D+00  0.0000000000000D+00
317  3.1600000000000D+00  0.0000000000000D+00  0.0000000000000D+00
318  3.1700000000000D+00  0.0000000000000D+00  0.0000000000000D+00
319  3.1800000000000D+00  0.0000000000000D+00  0.0000000000000D+00
320  3.1900000000000D+00  0.0000000000000D+00  0.0000000000000D+00
321  3.2000000000000D+00  0.0000000000000D+00  0.0000000000000D+00
322  3.2100000000000D+00  0.0000000000000D+00  0.0000000000000D+00
323  3.2200000000000D+00  0.0000000000000D+00  0.0000000000000D+00
324  3.2300000000000D+00  0.0000000000000D+00  0.0000000000000D+00
325  3.2400000000000D+00  0.0000000000000D+00  0.0000000000000D+00
326  3.2500000000000D+00  0.0000000000000D+00  0.0000000000000D+00
327  3.2600000000000D+00  0.0000000000000D+00  0.0000000000000D+00
328  3.2700000000000D+00  0.0000000000000D+00  0.0000000000000D+00
329  3.2800000000000D+00  0.0000000000000D+00  0.0000000000000D+00
330  3.2900000000000D+00  0.0000000000000D+00  0.0000000000000D+00
331  3.3000000000000D+00  0.0000000000000D+00  0.0000000000000D+00
332  3.3100000000000D+00  0.0000000000000D+00  0.0000000000000D+00
333  3.3200000000000D+00  0.0000000000000D+00  0.0000000000000D+00
334  3.3300000000000D+00  0.0000000000000D+00  0.0000000000000D+00
335  3.3400000000000D+00  0.0000000000000D+00  0.0000000000000D+00
336  3.3500000000000D+00  0.0000000000000D+00  0.0000000000000D+00
337  3.3600000000000D+00  0.0000000000000D+00  0.0000000000000D+00
338  3.3700000000000D+00  0.0000000000000D+00  0.0000000000000D+00
339  3.3800000000000D+00  0.0000000000000D+00  0.0000000000000D+00
340  3.3900000000000D+00  0.0000000000000D+00  0.0000000000000D+00
341  3.4000000000000D+00  0.0000000000000D+00  0.0000000000000D+00
342  3.4100000000000D+00  0.0000000000000D+00  0.0000000000000D+00
343  3.4200000000000D+00  0.0000000000000D+00  0.0000000000000D+00
344  3.4300000000000D+00  0.0000000000000D+00  0.0000000000000D+00
345  3.4400000000000D+00  0.0000000000000D+00  0.0000000000000D+00
346  3.4500000000000D+00  0.0000000000000D+00  0.0000000000000D+00
347  3.4600000000000D+00  0.0000000000000D+00  0.0000000000000D+00
348  3.4700000000000D+00  0.0000000000000D+00  0.0000000000000D+00
349  3.4800000000000D+00  0.0000000000000D+00  0.0000000000000D+00
350  3.4900000000000D+00  0.0000000000000D+00  0.0000000000000D+00
351  3.5000000000000D+00  0.0000000000000D+00  0.0000000000000D+00
352  3.5100000000000D+00  0.0000000000000D+00  0.0000000000000D+00
353  3.5200000000000D+00  0.0000000000000D+00  0.0000000000000D+00
354  3.5300000000000D+00  0.0000000000000D+00  0.0000000000000D+00
355  3.5400000000000D+00  0.0000000000000D+00  0.0000000000000D+00
356  3.5500000000000D+00  0.0000000000000D+00  0.0000000000000D+00
357  3.5600000000000D+00  0.0000000000000D+00  0.0000000000000D+00
358  3.5700000000000D+00  0.0000000000000D+00  0.0000000000000D+00
359  3.5800000000000D+00  0.0000000000000D+00  0.0000000000000D+00
360  3.5900000000000D+00  0.0000000000000D+00  0.0000000000000D+00
361  3.6000000000000D+00  0.0000000000000D+00  0.0000000000000D+00
362  3.6100000000000D+00  0.0000000000000D+00  0.0000000000000D+00
363  3.6200000000000D+00  0.0000000000000D+00  0.0000000000000D+00
364  3.6300000000000D+00  0.0000000000000D+00  0.0000000000000D+00
365  3.6400000000000D+00  0.0000000000000D+00  0.0000000000000D+00
366  3.6500000000000D+00  0.0000000000000D+00  0.0000000000000D+00
367  3.6600000000000D+00  0.0000000000000D+00  0.0000000000000D+00
368  3.6700000000000D+00  0.0000000000000D+00  0.0000000000000D+00
369  3.6800000000000D+00  0.0000000000000D+00  0.0000000000000D+00
370  3.6900000000000D+00  0.0000000000000D+00  0.0000000000000D+00
371  3.7000000000000D+00  0.0000000000000D+00  0.0000000000000D+00
372  3.7100000000000D+00  0.0000000000000D+00  0.0000000000000D+00
373  3.7200000000000D+00  0.0000000000000D+00  0.0000000000000D+00
374  3.7300000000000D+00  0.0000000000000D+00  0.0000000000000D+00
375  3.7400000000000D+00  0.0000000000000D+00  0.0000000000000D+00
376  3.7500000000000D+00  0.0000000000000D+00  0.0000000000000D+00
377  3.7600000000000D+00  0.0000000000000D+00  0.0000000000000D+00
378  3.7700000000000D+00  0.0000000000000D+00  0.0000000000000D+00
379  3.7800000000000D+00  0.0000000000000D+00  0.0000000000000D+00
380  3.7900000000000D+00  0.0000000000000D+00  0.0000000000000D+00
381  3.8000000000000D+00  0.0000000000000D+00  0.0000000000000D+00
382  3.8100000000000D+00  0.0000000000000D+00  0.0000000000000D+00
383  3.8200000000000D+00  0.0000000000000D+00  0.0000000000000D+00
384  3.8300000000000D+00  0.0000000000000D+00  0.0000000000000D+00
385  3.8400000000000D+00  0.0000000000000D+00  0.0000000000000D+00
386  3.8500000000000D+00  0.0000000000000D+00  0.0000000000000D+00
387  3.8600000000000D+00  0.0000000000000D+00  0.0000000000000D+00
388  3.8700000000000D+00  0.0000000000000D+00  0.0000000000000D+00
389  3.8800000000000D+00  0.0000000000000D+00  0.0000000000000D+00
390  3.8900000000000D+00  0.0000000000000D+00  0.0000000000000D+00
391  3.9000000000000D+00  0.0000000000000D+00  0.0000000000000D+00
392  3.9100000000000D+00  0.0000000000000D+00  0.0000000000000D+00
393  3.9200000000000D+00  0.0000000000000D+00  0.0000000000000D+00
394  3.9300000000000D+00  0.0000000000000D+00  0.0000000000000D+00
395  3.9400000000000D+00  0.0000000000000D+00  0.0000000000000D+00
396  3.9500000000000D+00  0.0000000000000D+00  0.0000000000000D+00
397  3.9600000000000D+00  0.0000000000000D+00  0.0000000000000D+00
398  3.9700000000000D+00  0.0000000000000D+00  0.0000000000000D+00
399  3.9800000000000D+00  0.0000000000000D+00  0.0000000000000D+00
400  3.9900000000000D+00  0.0000000000000D+00  0.0000000000000D+00
401  4.0000000000000D+00  0.0000000000000D+00  0.0000000000000D+00
402  4.0100000000000D+00  0.0000000000000D+00  0.0000000000000D+00
403  4.0200000000000D+00  0.0000000000000D+00  0.0000000000000D+00
404  4.0300000000000D+00  0.0000000000000D+00  0.0000000000000D+00
405  4.0400000000000D+00  0.0000000000000D+00  0.0000000000000D+00
406  4.0500000000000D+00  0.0000000000000D+00  0.0000000000000D+00
407  4.0600000000000D+00  0.0000000000000D+00  0.0000000000000D+00
408  4.0700000000000D+00  0.0000000000000D+00  0.0000000000000D+00
409  4.0800000000000D+00  0.0000000000000D+00  0.0000000000000D+00
410  4.0900000000000D+00  0.0000000000000D+00  0.0000000000000D+00
411  4.1000000000000D+00  0.0000000000000D+00  0.0000000000000D+00
412  4.1100000000000D+00  0.0000000000000D+00  0.0000000000000D+00
413  4.1200000000000D+00  0.0000000000000D+00  0.0000000000000D+00
414  4.1300000000000D+00  0.0000000000000D+00  0.0000000000000D+00
415  4.1400000000000D+00  0.0000000000000D+00  0.0000000000000D+00
416  4.1500000000000D+00  0.0000000000000D+00  0.0000000000000D+00
417  4.1600000000000D+00  0.0000000000000D+00  0.0000000000000D+00
418  4.1700000000000D+00  0.0000000000000D+00  0.0000000000000D+00
419  4.1800000000000D+00  0.0000000000000D+00  0.0000000000000D+00
420  4.1900000000000D+00  0.0000000000000D+00  0.0000000000000D+00
421  4.2000000000000D+00  0.0000000000000D+00  0.0000000000000D+00
422  4.2100000000000D+00  0.0000000000000D+00  0.0000000000000D+00
423  4.2200000000000D+00  0.0000000000000D+00  0.0000000000000D+00
424  4.2300000000000D+00  0.0000000000000D+00  0.0000000000000D+00
425  4.2400000000000D+00  0.0000000000000D+00  0.0000000000000D+00
426  4.2500000000000D+00  0.0000000000000D+00  0.0000000000000D+00
427  4.2600000000000D+00  0.0000000000000D+00  0.0000000000000D+00
428  4.2700000000000D+00  0.0000000000000D+00  0.0000000000000D+00
429  4.2800000000000D+00  0.0000000000000D+00  0.0000000000000D+00
430  4.2900000000000D+00  0.0000000000000D+00  0.0000000000000D+00
431  4.3000000000000D+00  0.0000000000000D+00  0.0000000000000D+00
432  4.3100000000000D+00  0.0000000000000D+00  0.0000000000000D+00
433  4.3200000000000D+00  0.0000000000000D+00  0.0000000000000D+00
434  4.3300000000000D+00  0.0000000000000D+00  0.0000000000000D+00
435  4.3400000000000D+00  0.0000000000000D+00  0.0000000000000D+00
436  4.3500000000000D+00  0.0000000000000D+00  0.0000000000000D+00
437  4.3600000000000D+00  0.0000000000000D+00  0.0000000000000D+00
438  4.3700000000000D+00  0.0000000000000D+00  0.0000000000000D+00
439  4.3800000000000D+00  0.0000000000000D+00  0.0000000000000D+00
440  4.3900000000000D+00  0.0000000000000D+00  0.0000000000000D+00
441  4.4000000000000D+00  0.0000000000000D+00  0.0000000000000D+00
442  4.4100000000000D+00  0.0000000000000D+00  0.0000000000000D+00
443  4.4200000000000D+00  0.0000000000000D+00  0.0000000000000D+00