Cu    ONCVPSP  r_core=  1.26  1.46  1.76
29.0000     19.0000      161004    zatom,zion,pspd
8 -116133   2     4   600     0    pspcod,pspxc,lmax,lloc,mmax,r2well
5.99000000  5.00000000  0.00000000    rchrg fchrg qchrg
2     2     2     0     0    nproj
1                 extension_switch
0                         4.6849086807948D+00 -4.3153153478211D-01
1  0.0000000000000D+00 -8.3368698611253D-09 -2.1496875640681D-08
2  1.0000000000000D-02  1.0566840826203D-01  3.6639535064258D-02
3  2.0000000000000D-02  2.1075407398140D-01  7.2644305457629D-02
4  3.0000000000000D-02  3.1468112488941D-01  1.0739390314025D-01
5  4.0000000000000D-02  4.1688731169160D-01  1.4029634201361D-01
6  5.0000000000000D-02  5.1683052780506D-01  1.7080154622541D-01
7  6.0000000000000D-02  6.1399498507230D-01  1.9841398695005D-01
8  7.0000000000000D-02  7.0789694078337D-01  2.2270420961225D-01
9  8.0000000000000D-02  7.9808987967456D-01  2.4331901501815D-01
10  9.0000000000000D-02  8.8416906469853D-01  2.5999008396111D-01
11  1.0000000000000D-01  9.6577538208823D-01  2.7254086508855D-01
12  1.1000000000000D-01  1.0425984193469D+00  2.8089157957950D-01
13  1.2000000000000D-01  1.1143787290446D+00  2.8506223285728D-01
14  1.3000000000000D-01  1.1809092464230D+00  2.8517356245080D-01
15  1.4000000000000D-01  1.2420358445183D+00  2.8144589148969D-01
16  1.5000000000000D-01  1.2976570265218D+00  2.7419589840464D-01
17  1.6000000000000D-01  1.3477227710943D+00  2.6383135442533D-01
18  1.7000000000000D-01  1.3922325620529D+00  2.5084392064235D-01
19  1.8000000000000D-01  1.4312326489410D+00  2.3580013495840D-01
20  1.9000000000000D-01  1.4648125992067D+00  2.1933075545669D-01
21  2.0000000000000D-01  1.4931012157728D+00  2.0211865986337D-01
22  2.1000000000000D-01  1.5162619054353D+00  1.8488553023181D-01
23  2.2000000000000D-01  1.5344875935612D+00  1.6837757715212D-01
24  2.3000000000000D-01  1.5479952887689D+00  1.5335057819324D-01
25  2.4000000000000D-01  1.5570204075134D+00  1.4055452050343D-01
26  2.5000000000000D-01  1.5618109726361D+00  1.3071814721602D-01
27  2.6000000000000D-01  1.5626218018966D+00  1.2453371131610D-01
28  2.7000000000000D-01  1.5597088022342D+00  1.2264223881481D-01
29  2.8000000000000D-01  1.5533234830120D+00  1.2561959545454D-01
30  2.9000000000000D-01  1.5437077968141D+00  1.3396363784251D-01
31  3.0000000000000D-01  1.5310894095851D+00  1.4808271110311D-01
32  3.1000000000000D-01  1.5156774931327D+00  1.6828573117685D-01
33  3.2000000000000D-01  1.4976591224312D+00  1.9477406120013D-01
34  3.3000000000000D-01  1.4771963479522D+00  2.2763535849209D-01
35  3.4000000000000D-01  1.4544239996406D+00  2.6683953215213D-01
36  3.5000000000000D-01  1.4294482644024D+00  3.1223691180588D-01
37  3.6000000000000D-01  1.4023460633562D+00  3.6355868635866D-01
38  3.7000000000000D-01  1.3731652389130D+00  4.2041962850488D-01
39  3.8000000000000D-01  1.3419255453064D+00  4.8232307700476D-01
40  3.9000000000000D-01  1.3086204198012D+00  5.4866810520975D-01
41  4.0000000000000D-01  1.2732194957888D+00  6.1875876181985D-01
42  4.1000000000000D-01  1.2356718036398D+00  6.9181522920755D-01
43  4.2000000000000D-01  1.1959095908224D+00  7.6698670663098D-01
44  4.3000000000000D-01  1.1538526797065D+00  8.4336579102516D-01
45  4.4000000000000D-01  1.1094132698983D+00  9.2000409748819D-01
46  4.5000000000000D-01  1.0625010821463D+00  9.9592883568110D-01
47  4.6000000000000D-01  1.0130287330046D+00  1.0701600376645D+00
48  4.7000000000000D-01  9.6091722371831D-01  1.1417281176326D+00
49  4.8000000000000D-01  9.0610142332302D-01  1.2096914349092D+00
50  4.9000000000000D-01  8.4853542481154D-01  1.2731535286534D+00
51  5.0000000000000D-01  7.8819765446354D-01  1.3312796960996D+00
52  5.1000000000000D-01  7.2509561803840D-01  1.3833125957903D+00
53  5.2000000000000D-01  6.5927017346197D-01  1.4285865730430D+00
54  5.3000000000000D-01  5.9079922779216D-01  1.4665404265596D+00
55  5.4000000000000D-01  5.1980076647449D-01  1.4967283622402D+00
56  5.5000000000000D-01  4.4643513505043D-01  1.5188289125128D+00
57  5.6000000000000D-01  3.7090650730069D-01  1.5326516361605D+00
58  5.7000000000000D-01  2.9346348905703D-01  1.5381414541027D+00
59  5.8000000000000D-01  2.1439882334923D-01  1.5353805202000D+00
60  5.9000000000000D-01  1.3404817977093D-01  1.5245875718688D+00
61  6.0000000000000D-01  5.2788028766562D-02  1.5061147526218D+00
62  6.1000000000000D-01 -2.8967380545039D-02  1.4804419462716D+00
63  6.2000000000000D-01 -1.1076990258122D-01  1.4481687099280D+00
64  6.3000000000000D-01 -1.9214218381424D-01  1.4100039389965D+00
65  6.4000000000000D-01 -2.7258308748630D-01  1.3667534411004D+00
66  6.5000000000000D-01 -3.5157376906890D-01  1.3193056368560D+00
67  6.6000000000000D-01 -4.2858430326790D-01  1.2686156422861D+00
68  6.7000000000000D-01 -5.0308075133054D-01  1.2156880200672D+00
69  6.8000000000000D-01 -5.7453254733503D-01  1.1615585140859D+00
70  6.9000000000000D-01 -6.4242007434054D-01  1.1072751031037D+00
71  7.0000000000000D-01 -7.0624229581783D-01  1.0538787245247D+00
72  7.1000000000000D-01 -7.6552430482555D-01  1.0023840279015D+00
73  7.2000000000000D-01 -8.1982465304866D-01  9.5376051962515D-01
74  7.3000000000000D-01 -8.6874232406717D-01  9.0891445523728D-01
75  7.4000000000000D-01 -9.1192322009084D-01  8.6867182393181D-01
76  7.5000000000000D-01 -9.4906603874182D-01  8.3376275143093D-01
77  7.6000000000000D-01 -9.7992742627754D-01  8.0480762256578D-01
78  7.7000000000000D-01 -1.0043263056617D+00  7.8230519423156D-01
79  7.8000000000000D-01 -1.0221472919328D+00  7.6662293338905D-01
80  7.9000000000000D-01 -1.0333431231479D+00  7.5798977406785D-01
81  8.0000000000000D-01 -1.0379360524925D+00  7.5649144268798D-01
82  8.1000000000000D-01 -1.0360181656247D+00  7.6206845326829D-01
83  8.2000000000000D-01 -1.0277506066293D+00  7.7451682413091D-01
84  8.3000000000000D-01 -1.0133617157265D+00  7.9349151648458D-01
85  8.4000000000000D-01 -9.9314410173492D-01  8.1851254375190D-01
86  8.5000000000000D-01 -9.6745069186163D-01  8.4897364968221D-01
87  8.6000000000000D-01 -9.3668982029297D-01  8.8415340414306D-01
88  8.7000000000000D-01 -9.0131943493996D-01  9.2322851896218D-01
89  8.8000000000000D-01 -8.6184051819037D-01  9.6528914320656D-01
90  8.9000000000000D-01 -8.1878983232124D-01  1.0093558586808D+00
91  9.0000000000000D-01 -7.7273211303422D-01  1.0543980629695D+00
92  9.1000000000000D-01 -7.2425184513723D-01  1.0993533997079D+00
93  9.2000000000000D-01 -6.7394476249425D-01  1.1431478745020D+00
94  9.3000000000000D-01 -6.2240921983377D-01  1.1847162804756D+00
95  9.4000000000000D-01 -5.7023758672634D-01  1.2230225501127D+00
96  9.5000000000000D-01 -5.1800781394744D-01  1.2570796500505D+00
97  9.6000000000000D-01 -4.6627531952161D-01  1.2859686428195D+00
98  9.7000000000000D-01 -4.1556533606210D-01  1.3088565540251D+00
99  9.8000000000000D-01 -3.6636585253285D-01  1.3250127052700D+00
100  9.9000000000000D-01 -3.1912127273957D-01  1.3338232009776D+00
101  1.0000000000000D+00 -2.7422689966521D-01  1.3348032913033D+00
102  1.0100000000000D+00 -2.3202433911937D-01  1.3276073737311D+00
103  1.0200000000000D+00 -1.9279789926393D-01  1.3120364396456D+00
104  1.0300000000000D+00 -1.5677204383113D-01  1.2880428206416D+00
105  1.0400000000000D+00 -1.2410993704636D-01  1.2557321405624D+00
106  1.0500000000000D+00 -9.4913097329531D-02  1.2153624334232D+00
107  1.0600000000000D+00 -6.9222157390991D-02  1.1673404377251D+00
108  1.0700000000000D+00 -4.7018705278619D-02  1.1122151373230D+00
109  1.0800000000000D+00 -2.8228162188367D-02  1.0506686674962D+00
110  1.0900000000000D+00 -1.2723632389260D-02  9.8350475778929D-01
111  1.1000000000000D+00 -3.3064237553203D-04  9.1163493032025D-01
112  1.1100000000000D+00  9.1673295168214D-03  8.3606271327109D-01
113  1.1200000000000D+00  1.6022648880585D-02  7.5786617336255D-01
114  1.1300000000000D+00  2.0516773146666D-02  6.7817909918509D-01
115  1.1400000000000D+00  2.2953089643071D-02  5.9817119615942D-01
116  1.1500000000000D+00  2.3649488523754D-02  5.1902767111006D-01
117  1.1600000000000D+00  2.2930822179047D-02  4.4192860187964D-01
118  1.1700000000000D+00  2.1121404942720D-02  3.6802849497090D-01
119  1.1800000000000D+00  1.8537702686979D-02  2.9843641674217D-01
120  1.1900000000000D+00  1.5481303815531D-02  2.3419689106553D-01
121  1.2000000000000D+00  1.2232547561524D-02  1.7627274422816D-01
122  1.2100000000000D+00  9.0446314374996D-03  1.2552918607317D-01
123  1.2200000000000D+00  6.1371230744027D-03  8.2722240039625D-02
124  1.2300000000000D+00  3.6862578328977D-03  4.8440458013537D-02
125  1.2400000000000D+00  1.8101165113096D-03  2.2982439201419D-02
126  1.2500000000000D+00  6.5123594633433D-04  7.3332710337242D-03
127  1.2600000000000D+00  1.6867574390433D-04  8.2567309804654D-04
128  1.2700000000000D+00  2.3641475068426D-05 -3.3946885742965D-04
129  1.2800000000000D+00 -1.3431967918374D-06  8.3716255342732D-05
130  1.2900000000000D+00  2.3469892322880D-08  5.8550197341100D-05
131  1.3000000000000D+00  7.4558249860913D-07 -2.2708323239665D-05
132  1.3100000000000D+00 -1.5516990797148D-07 -3.7163548391645D-07
133  1.3200000000000D+00 -2.2642265365440D-07 -5.4228744194374D-07
134  1.3300000000000D+00  0.0000000000000D+00  0.0000000000000D+00
135  1.3400000000000D+00  0.0000000000000D+00  0.0000000000000D+00
136  1.3500000000000D+00  0.0000000000000D+00  0.0000000000000D+00
137  1.3600000000000D+00  0.0000000000000D+00  0.0000000000000D+00
138  1.3700000000000D+00  0.0000000000000D+00  0.0000000000000D+00
139  1.3800000000000D+00  0.0000000000000D+00  0.0000000000000D+00
140  1.3900000000000D+00  0.0000000000000D+00  0.0000000000000D+00
141  1.4000000000000D+00  0.0000000000000D+00  0.0000000000000D+00
142  1.4100000000000D+00  0.0000000000000D+00  0.0000000000000D+00
143  1.4200000000000D+00  0.0000000000000D+00  0.0000000000000D+00
144  1.4300000000000D+00  0.0000000000000D+00  0.0000000000000D+00
145  1.4400000000000D+00  0.0000000000000D+00  0.0000000000000D+00
146  1.4500000000000D+00  0.0000000000000D+00  0.0000000000000D+00
147  1.4600000000000D+00  0.0000000000000D+00  0.0000000000000D+00
148  1.4700000000000D+00  0.0000000000000D+00  0.0000000000000D+00
149  1.4800000000000D+00  0.0000000000000D+00  0.0000000000000D+00
150  1.4900000000000D+00  0.0000000000000D+00  0.0000000000000D+00
151  1.5000000000000D+00  0.0000000000000D+00  0.0000000000000D+00
152  1.5100000000000D+00  0.0000000000000D+00  0.0000000000000D+00
153  1.5200000000000D+00  0.0000000000000D+00  0.0000000000000D+00
154  1.5300000000000D+00  0.0000000000000D+00  0.0000000000000D+00
155  1.5400000000000D+00  0.0000000000000D+00  0.0000000000000D+00
156  1.5500000000000D+00  0.0000000000000D+00  0.0000000000000D+00
157  1.5600000000000D+00  0.0000000000000D+00  0.0000000000000D+00
158  1.5700000000000D+00  0.0000000000000D+00  0.0000000000000D+00
159  1.5800000000000D+00  0.0000000000000D+00  0.0000000000000D+00
160  1.5900000000000D+00  0.0000000000000D+00  0.0000000000000D+00
161  1.6000000000000D+00  0.0000000000000D+00  0.0000000000000D+00
162  1.6100000000000D+00  0.0000000000000D+00  0.0000000000000D+00
163  1.6200000000000D+00  0.0000000000000D+00  0.0000000000000D+00
164  1.6300000000000D+00  0.0000000000000D+00  0.0000000000000D+00
165  1.6400000000000D+00  0.0000000000000D+00  0.0000000000000D+00
166  1.6500000000000D+00  0.0000000000000D+00  0.0000000000000D+00
167  1.6600000000000D+00  0.0000000000000D+00  0.0000000000000D+00
168  1.6700000000000D+00  0.0000000000000D+00  0.0000000000000D+00
169  1.6800000000000D+00  0.0000000000000D+00  0.0000000000000D+00
170  1.6900000000000D+00  0.0000000000000D+00  0.0000000000000D+00
171  1.7000000000000D+00  0.0000000000000D+00  0.0000000000000D+00
172  1.7100000000000D+00  0.0000000000000D+00  0.0000000000000D+00
173  1.7200000000000D+00  0.0000000000000D+00  0.0000000000000D+00
174  1.7300000000000D+00  0.0000000000000D+00  0.0000000000000D+00
175  1.7400000000000D+00  0.0000000000000D+00  0.0000000000000D+00
176  1.7500000000000D+00  0.0000000000000D+00  0.0000000000000D+00
177  1.7600000000000D+00  0.0000000000000D+00  0.0000000000000D+00
178  1.7700000000000D+00  0.0000000000000D+00  0.0000000000000D+00
179  1.7800000000000D+00  0.0000000000000D+00  0.0000000000000D+00
180  1.7900000000000D+00  0.0000000000000D+00  0.0000000000000D+00
181  1.8000000000000D+00  0.0000000000000D+00  0.0000000000000D+00
182  1.8100000000000D+00  0.0000000000000D+00  0.0000000000000D+00
183  1.8200000000000D+00  0.0000000000000D+00  0.0000000000000D+00
184  1.8300000000000D+00  0.0000000000000D+00  0.0000000000000D+00
185  1.8400000000000D+00  0.0000000000000D+00  0.0000000000000D+00
186  1.8500000000000D+00  0.0000000000000D+00  0.0000000000000D+00
187  1.8600000000000D+00  0.0000000000000D+00  0.0000000000000D+00
188  1.8700000000000D+00  0.0000000000000D+00  0.0000000000000D+00
189  1.8800000000000D+00  0.0000000000000D+00  0.0000000000000D+00
190  1.8900000000000D+00  0.0000000000000D+00  0.0000000000000D+00
191  1.9000000000000D+00  0.0000000000000D+00  0.0000000000000D+00
192  1.9100000000000D+00  0.0000000000000D+00  0.0000000000000D+00
193  1.9200000000000D+00  0.0000000000000D+00  0.0000000000000D+00
194  1.9300000000000D+00  0.0000000000000D+00  0.0000000000000D+00
195  1.9400000000000D+00  0.0000000000000D+00  0.0000000000000D+00
196  1.9500000000000D+00  0.0000000000000D+00  0.0000000000000D+00
197  1.9600000000000D+00  0.0000000000000D+00  0.0000000000000D+00
198  1.9700000000000D+00  0.0000000000000D+00  0.0000000000000D+00
199  1.9800000000000D+00  0.0000000000000D+00  0.0000000000000D+00
200  1.9900000000000D+00  0.0000000000000D+00  0.0000000000000D+00
201  2.0000000000000D+00  0.0000000000000D+00  0.0000000000000D+00
202  2.0100000000000D+00  0.0000000000000D+00  0.0000000000000D+00
203  2.0200000000000D+00  0.0000000000000D+00  0.0000000000000D+00
204  2.0300000000000D+00  0.0000000000000D+00  0.0000000000000D+00
205  2.0400000000000D+00  0.0000000000000D+00  0.0000000000000D+00
206  2.0500000000000D+00  0.0000000000000D+00  0.0000000000000D+00
207  2.0600000000000D+00  0.0000000000000D+00  0.0000000000000D+00
208  2.0700000000000D+00  0.0000000000000D+00  0.0000000000000D+00
209  2.0800000000000D+00  0.0000000000000D+00  0.0000000000000D+00
210  2.0900000000000D+00  0.0000000000000D+00  0.0000000000000D+00
211  2.1000000000000D+00  0.0000000000000D+00  0.0000000000000D+00
212  2.1100000000000D+00  0.0000000000000D+00  0.0000000000000D+00
213  2.1200000000000D+00  0.0000000000000D+00  0.0000000000000D+00
214  2.1300000000000D+00  0.0000000000000D+00  0.0000000000000D+00
215  2.1400000000000D+00  0.0000000000000D+00  0.0000000000000D+00
216  2.1500000000000D+00  0.0000000000000D+00  0.0000000000000D+00
217  2.1600000000000D+00  0.0000000000000D+00  0.0000000000000D+00
218  2.1700000000000D+00  0.0000000000000D+00  0.0000000000000D+00
219  2.1800000000000D+00  0.0000000000000D+00  0.0000000000000D+00
220  2.1900000000000D+00  0.0000000000000D+00  0.0000000000000D+00
221  2.2000000000000D+00  0.0000000000000D+00  0.0000000000000D+00
222  2.2100000000000D+00  0.0000000000000D+00  0.0000000000000D+00
223  2.2200000000000D+00  0.0000000000000D+00  0.0000000000000D+00
224  2.2300000000000D+00  0.0000000000000D+00  0.0000000000000D+00
225  2.2400000000000D+00  0.0000000000000D+00  0.0000000000000D+00
226  2.2500000000000D+00  0.0000000000000D+00  0.0000000000000D+00
227  2.2600000000000D+00  0.0000000000000D+00  0.0000000000000D+00
228  2.2700000000000D+00  0.0000000000000D+00  0.0000000000000D+00
229  2.2800000000000D+00  0.0000000000000D+00  0.0000000000000D+00
230  2.2900000000000D+00  0.0000000000000D+00  0.0000000000000D+00
231  2.3000000000000D+00  0.0000000000000D+00  0.0000000000000D+00
232  2.3100000000000D+00  0.0000000000000D+00  0.0000000000000D+00
233  2.3200000000000D+00  0.0000000000000D+00  0.0000000000000D+00
234  2.3300000000000D+00  0.0000000000000D+00  0.0000000000000D+00
235  2.3400000000000D+00  0.0000000000000D+00  0.0000000000000D+00
236  2.3500000000000D+00  0.0000000000000D+00  0.0000000000000D+00
237  2.3600000000000D+00  0.0000000000000D+00  0.0000000000000D+00
238  2.3700000000000D+00  0.0000000000000D+00  0.0000000000000D+00
239  2.3800000000000D+00  0.0000000000000D+00  0.0000000000000D+00
240  2.3900000000000D+00  0.0000000000000D+00  0.0000000000000D+00
241  2.4000000000000D+00  0.0000000000000D+00  0.0000000000000D+00
242  2.4100000000000D+00  0.0000000000000D+00  0.0000000000000D+00
243  2.4200000000000D+00  0.0000000000000D+00  0.0000000000000D+00
244  2.4300000000000D+00  0.0000000000000D+00  0.0000000000000D+00
245  2.4400000000000D+00  0.0000000000000D+00  0.0000000000000D+00
246  2.4500000000000D+00  0.0000000000000D+00  0.0000000000000D+00
247  2.4600000000000D+00  0.0000000000000D+00  0.0000000000000D+00
248  2.4700000000000D+00  0.0000000000000D+00  0.0000000000000D+00
249  2.4800000000000D+00  0.0000000000000D+00  0.0000000000000D+00
250  2.4900000000000D+00  0.0000000000000D+00  0.0000000000000D+00
251  2.5000000000000D+00  0.0000000000000D+00  0.0000000000000D+00
252  2.5100000000000D+00  0.0000000000000D+00  0.0000000000000D+00
253  2.5200000000000D+00  0.0000000000000D+00  0.0000000000000D+00
254  2.5300000000000D+00  0.0000000000000D+00  0.0000000000000D+00
255  2.5400000000000D+00  0.0000000000000D+00  0.0000000000000D+00
256  2.5500000000000D+00  0.0000000000000D+00  0.0000000000000D+00
257  2.5600000000000D+00  0.0000000000000D+00  0.0000000000000D+00
258  2.5700000000000D+00  0.0000000000000D+00  0.0000000000000D+00
259  2.5800000000000D+00  0.0000000000000D+00  0.0000000000000D+00
260  2.5900000000000D+00  0.0000000000000D+00  0.0000000000000D+00
261  2.6000000000000D+00  0.0000000000000D+00  0.0000000000000D+00
262  2.6100000000000D+00  0.0000000000000D+00  0.0000000000000D+00
263  2.6200000000000D+00  0.0000000000000D+00  0.0000000000000D+00
264  2.6300000000000D+00  0.0000000000000D+00  0.0000000000000D+00
265  2.6400000000000D+00  0.0000000000000D+00  0.0000000000000D+00
266  2.6500000000000D+00  0.0000000000000D+00  0.0000000000000D+00
267  2.6600000000000D+00  0.0000000000000D+00  0.0000000000000D+00
268  2.6700000000000D+00  0.0000000000000D+00  0.0000000000000D+00
269  2.6800000000000D+00  0.0000000000000D+00  0.0000000000000D+00
270  2.6900000000000D+00  0.0000000000000D+00  0.0000000000000D+00
271  2.7000000000000D+00  0.0000000000000D+00  0.0000000000000D+00
272  2.7100000000000D+00  0.0000000000000D+00  0.0000000000000D+00
273  2.7200000000000D+00  0.0000000000000D+00  0.0000000000000D+00
274  2.7300000000000D+00  0.0000000000000D+00  0.0000000000000D+00
275  2.7400000000000D+00  0.0000000000000D+00  0.0000000000000D+00
276  2.7500000000000D+00  0.0000000000000D+00  0.0000000000000D+00
277  2.7600000000000D+00  0.0000000000000D+00  0.0000000000000D+00
278  2.7700000000000D+00  0.0000000000000D+00  0.0000000000000D+00
279  2.7800000000000D+00  0.0000000000000D+00  0.0000000000000D+00
280  2.7900000000000D+00  0.0000000000000D+00  0.0000000000000D+00
281  2.8000000000000D+00  0.0000000000000D+00  0.0000000000000D+00
282  2.8100000000000D+00  0.0000000000000D+00  0.0000000000000D+00
283  2.8200000000000D+00  0.0000000000000D+00  0.0000000000000D+00
284  2.8300000000000D+00  0.0000000000000D+00  0.0000000000000D+00
285  2.8400000000000D+00  0.0000000000000D+00  0.0000000000000D+00
286  2.8500000000000D+00  0.0000000000000D+00  0.0000000000000D+00
287  2.8600000000000D+00  0.0000000000000D+00  0.0000000000000D+00
288  2.8700000000000D+00  0.0000000000000D+00  0.0000000000000D+00
289  2.8800000000000D+00  0.0000000000000D+00  0.0000000000000D+00
290  2.8900000000000D+00  0.0000000000000D+00  0.0000000000000D+00
291  2.9000000000000D+00  0.0000000000000D+00  0.0000000000000D+00
292  2.9100000000000D+00  0.0000000000000D+00  0.0000000000000D+00
293  2.9200000000000D+00  0.0000000000000D+00  0.0000000000000D+00
294  2.9300000000000D+00  0.0000000000000D+00  0.0000000000000D+00
295  2.9400000000000D+00  0.0000000000000D+00  0.0000000000000D+00
296  2.9500000000000D+00  0.0000000000000D+00  0.0000000000000D+00
297  2.9600000000000D+00  0.0000000000000D+00  0.0000000000000D+00
298  2.9700000000000D+00  0.0000000000000D+00  0.0000000000000D+00
299  2.9800000000000D+00  0.0000000000000D+00  0.0000000000000D+00
300  2.9900000000000D+00  0.0000000000000D+00  0.0000000000000D+00
301  3.0000000000000D+00  0.0000000000000D+00  0.0000000000000D+00
302  3.0100000000000D+00  0.0000000000000D+00  0.0000000000000D+00
303  3.0200000000000D+00  0.0000000000000D+00  0.0000000000000D+00
304  3.0300000000000D+00  0.0000000000000D+00  0.0000000000000D+00
305  3.0400000000000D+00  0.0000000000000D+00  0.0000000000000D+00
306  3.0500000000000D+00  0.0000000000000D+00  0.0000000000000D+00
307  3.0600000000000D+00  0.0000000000000D+00  0.0000000000000D+00
308  3.0700000000000D+00  0.0000000000000D+00  0.0000000000000D+00
309  3.0800000000000D+00  0.0000000000000D+00  0.0000000000000D+00
310  3.0900000000000D+00  0.0000000000000D+00  0.0000000000000D+00
311  3.1000000000000D+00  0.0000000000000D+00  0.0000000000000D+00
312  3.1100000000000D+00  0.0000000000000D+00  0.0000000000000D+00
313  3.1200000000000D+00  0.0000000000000D+00  0.0000000000000D+00
314  3.1300000000000D+00  0.0000000000000D+00  0.0000000000000D+00
315  3.1400000000000D+00  0.0000000000000D+00  0.0000000000000D+00
316  3.1500000000000D+00  0.0000000000000D+00  0.0000000000000D+00
317  3.1600000000000D+00  0.0000000000000D+00  0.0000000000000D+00
318  3.1700000000000D+00  0.0000000000000D+00  0.0000000000000D+00
319  3.1800000000000D+00  0.0000000000000D+00  0.0000000000000D+00
320  3.1900000000000D+00  0.0000000000000D+00  0.0000000000000D+00
321  3.2000000000000D+00  0.0000000000000D+00  0.0000000000000D+00
322  3.2100000000000D+00  0.0000000000000D+00  0.0000000000000D+00
323  3.2200000000000D+00  0.0000000000000D+00  0.0000000000000D+00
324  3.2300000000000D+00  0.0000000000000D+00  0.0000000000000D+00
325  3.2400000000000D+00  0.0000000000000D+00  0.0000000000000D+00
326  3.2500000000000D+00  0.0000000000000D+00  0.0000000000000D+00
327  3.2600000000000D+00  0.0000000000000D+00  0.0000000000000D+00
328  3.2700000000000D+00  0.0000000000000D+00  0.0000000000000D+00
329  3.2800000000000D+00  0.0000000000000D+00  0.0000000000000D+00
330  3.2900000000000D+00  0.0000000000000D+00  0.0000000000000D+00
331  3.3000000000000D+00  0.0000000000000D+00  0.0000000000000D+00
332  3.3100000000000D+00  0.0000000000000D+00  0.0000000000000D+00
333  3.3200000000000D+00  0.0000000000000D+00  0.0000000000000D+00
334  3.3300000000000D+00  0.0000000000000D+00  0.0000000000000D+00
335  3.3400000000000D+00  0.0000000000000D+00  0.0000000000000D+00
336  3.3500000000000D+00  0.0000000000000D+00  0.0000000000000D+00
337  3.3600000000000D+00  0.0000000000000D+00  0.0000000000000D+00
338  3.3700000000000D+00  0.0000000000000D+00  0.0000000000000D+00
339  3.3800000000000D+00  0.0000000000000D+00  0.0000000000000D+00
340  3.3900000000000D+00  0.0000000000000D+00  0.0000000000000D+00
341  3.4000000000000D+00  0.0000000000000D+00  0.0000000000000D+00
342  3.4100000000000D+00  0.0000000000000D+00  0.0000000000000D+00
343  3.4200000000000D+00  0.0000000000000D+00  0.0000000000000D+00
344  3.4300000000000D+00  0.0000000000000D+00  0.0000000000000D+00
345  3.4400000000000D+00  0.0000000000000D+00  0.0000000000000D+00
346  3.4500000000000D+00  0.0000000000000D+00  0.0000000000000D+00
347  3.4600000000000D+00  0.0000000000000D+00  0.0000000000000D+00
348  3.4700000000000D+00  0.0000000000000D+00  0.0000000000000D+00
349  3.4800000000000D+00  0.0000000000000D+00  0.0000000000000D+00
350  3.4900000000000D+00  0.0000000000000D+00  0.0000000000000D+00
351  3.5000000000000D+00  0.0000000000000D+00  0.0000000000000D+00
352  3.5100000000000D+00  0.0000000000000D+00  0.0000000000000D+00
353  3.5200000000000D+00  0.0000000000000D+00  0.0000000000000D+00
354  3.5300000000000D+00  0.0000000000000D+00  0.0000000000000D+00
355  3.5400000000000D+00  0.0000000000000D+00  0.0000000000000D+00
356  3.5500000000000D+00  0.0000000000000D+00  0.0000000000000D+00
357  3.5600000000000D+00  0.0000000000000D+00  0.0000000000000D+00
358  3.5700000000000D+00  0.0000000000000D+00  0.0000000000000D+00
359  3.5800000000000D+00  0.0000000000000D+00  0.0000000000000D+00
360  3.5900000000000D+00  0.0000000000000D+00  0.0000000000000D+00
361  3.6000000000000D+00  0.0000000000000D+00  0.0000000000000D+00
362  3.6100000000000D+00  0.0000000000000D+00  0.0000000000000D+00
363  3.6200000000000D+00  0.0000000000000D+00  0.0000000000000D+00
364  3.6300000000000D+00  0.0000000000000D+00  0.0000000000000D+00
365  3.6400000000000D+00  0.0000000000000D+00  0.0000000000000D+00
366  3.6500000000000D+00  0.0000000000000D+00  0.0000000000000D+00
367  3.6600000000000D+00  0.0000000000000D+00  0.0000000000000D+00
368  3.6700000000000D+00  0.0000000000000D+00  0.0000000000000D+00
369  3.6800000000000D+00  0.0000000000000D+00  0.0000000000000D+00
370  3.6900000000000D+00  0.0000000000000D+00  0.0000000000000D+00
371  3.7000000000000D+00  0.0000000000000D+00  0.0000000000000D+00
372  3.7100000000000D+00  0.0000000000000D+00  0.0000000000000D+00
373  3.7200000000000D+00  0.0000000000000D+00  0.0000000000000D+00
374  3.7300000000000D+00  0.0000000000000D+00  0.0000000000000D+00
375  3.7400000000000D+00  0.0000000000000D+00  0.0000000000000D+00
376  3.7500000000000D+00  0.0000000000000D+00  0.0000000000000D+00
377  3.7600000000000D+00  0.0000000000000D+00  0.0000000000000D+00
378  3.7700000000000D+00  0.0000000000000D+00  0.0000000000000D+00
379  3.7800000000000D+00  0.0000000000000D+00  0.0000000000000D+00
380  3.7900000000000D+00  0.0000000000000D+00  0.0000000000000D+00
381  3.8000000000000D+00  0.0000000000000D+00  0.0000000000000D+00
382  3.8100000000000D+00  0.0000000000000D+00  0.0000000000000D+00
383  3.8200000000000D+00  0.0000000000000D+00  0.0000000000000D+00
384  3.8300000000000D+00  0.0000000000000D+00  0.0000000000000D+00
385  3.8400000000000D+00  0.0000000000000D+00  0.0000000000000D+00
386  3.8500000000000D+00  0.0000000000000D+00  0.0000000000000D+00
387  3.8600000000000D+00  0.0000000000000D+00  0.0000000000000D+00
388  3.8700000000000D+00  0.0000000000000D+00  0.0000000000000D+00
389  3.8800000000000D+00  0.0000000000000D+00  0.0000000000000D+00
390  3.8900000000000D+00  0.0000000000000D+00  0.0000000000000D+00
391  3.9000000000000D+00  0.0000000000000D+00  0.0000000000000D+00
392  3.9100000000000D+00  0.0000000000000D+00  0.0000000000000D+00
393  3.9200000000000D+00  0.0000000000000D+00  0.0000000000000D+00
394  3.9300000000000D+00  0.0000000000000D+00  0.0000000000000D+00
395  3.9400000000000D+00  0.0000000000000D+00  0.0000000000000D+00
396  3.9500000000000D+00  0.0000000000000D+00  0.0000000000000D+00
397  3.9600000000000D+00  0.0000000000000D+00  0.0000000000000D+00
398  3.9700000000000D+00  0.0000000000000D+00  0.0000000000000D+00
399  3.9800000000000D+00  0.0000000000000D+00  0.0000000000000D+00
400  3.9900000000000D+00  0.0000000000000D+00  0.0000000000000D+00
401  4.0000000000000D+00  0.0000000000000D+00  0.0000000000000D+00
402  4.0100000000000D+00  0.0000000000000D+00  0.0000000000000D+00
403  4.0200000000000D+00  0.0000000000000D+00  0.0000000000000D+00
404  4.0300000000000D+00  0.0000000000000D+00  0.0000000000000D+00
405  4.0400000000000D+00  0.0000000000000D+00  0.0000000000000D+00
406  4.0500000000000D+00  0.0000000000000D+00  0.0000000000000D+00
407  4.0600000000000D+00  0.0000000000000D+00  0.0000000000000D+00
408  4.0700000000000D+00  0.0000000000000D+00  0.0000000000000D+00
409  4.0800000000000D+00  0.0000000000000D+00  0.0000000000000D+00
410  4.0900000000000D+00  0.0000000000000D+00  0.0000000000000D+00
411  4.1000000000000D+00  0.0000000000000D+00  0.0000000000000D+00
412  4.1100000000000D+00  0.0000000000000D+00  0.0000000000000D+00
413  4.1200000000000D+00  0.0000000000000D+00  0.0000000000000D+00
414  4.1300000000000D+00  0.0000000000000D+00  0.0000000000000D+00
415  4.1400000000000D+00  0.0000000000000D+00  0.0000000000000D+00
416  4.1500000000000D+00  0.0000000000000D+00  0.0000000000000D+00
417  4.1600000000000D+00  0.0000000000000D+00  0.0000000000000D+00
418  4.1700000000000D+00  0.0000000000000D+00  0.0000000000000D+00
419  4.1800000000000D+00  0.0000000000000D+00  0.0000000000000D+00
420  4.1900000000000D+00  0.0000000000000D+00  0.0000000000000D+00
421  4.2000000000000D+00  0.0000000000000D+00  0.0000000000000D+00
422  4.2100000000000D+00  0.0000000000000D+00  0.0000000000000D+00
423  4.2200000000000D+00  0.0000000000000D+00  0.0000000000000D+00
424  4.2300000000000D+00  0.0000000000000D+00  0.0000000000000D+00
425  4.2400000000000D+00  0.0000000000000D+00  0.0000000000000D+00
426  4.2500000000000D+00  0.0000000000000D+00  0.0000000000000D+00
427  4.2600000000000D+00  0.0000000000000D+00  0.0000000000000D+00
428  4.2700000000000D+00  0.0000000000000D+00  0.0000000000000D+00
429  4.2800000000000D+00  0.0000000000000D+00  0.0000000000000D+00
430  4.2900000000000D+00  0.0000000000000D+00  0.0000000000000D+00
431  4.3000000000000D+00  0.0000000000000D+00  0.0000000000000D+00
432  4.3100000000000D+00  0.0000000000000D+00  0.0000000000000D+00
433  4.3200000000000D+00  0.0000000000000D+00  0.0000000000000D+00
434  4.3300000000000D+00  0.0000000000000D+00  0.0000000000000D+00
435  4.3400000000000D+00  0.0000000000000D+00  0.0000000000000D+00
436  4.3500000000000D+00  0.0000000000000D+00  0.0000000000000D+00
437  4.3600000000000D+00  0.0000000000000D+00  0.0000000000000D+00
438  4.3700000000000D+00  0.0000000000000D+00  0.0000000000000D+00
439  4.3800000000000D+00  0.0000000000000D+00  0.0000000000000D+00
440  4.3900000000000D+00  0.0000000000000D+00  0.0000000000000D+00
441  4.4000000000000D+00  0.0000000000000D+00  0.0000000000000D+00
442  4.4100000000000D+00  0.0000000000000D+00  0.0000000000000D+00
443  4.4200000000000D+00  0.0000000000000D+00  0.0000000000000D+00
444  4.4300000000000D+00  0.0000000000000D+00  0.0000000000000D+00