<UPF version="2.0.1">
<PP_INFO>

This pseudopotential file has been produced using the code
ONCVPSP  (Optimized Norm-Conservinng Vanderbilt PSeudopotential)
fully-relativistic version 3.2.3 08/16/2016 by D. R. Hamann
The code is available through a link at URL www.mat-simresearch.com.
Documentation with the package provides a full discription of the
input data below.


While it is not required under the terms of the GNU GPL, it is
suggested that you cite D. R. Hamann, Phys. Rev. B 88, 085117 (2013)
in any publication using these pseudopotentials.

<PP_INPUTFILE>
# ATOM AND REFERENCE CONFIGURATION
# atsym  z   nc   nv     iexc    psfile
O  8.00    1    2       4      both
#
#   n    l    f        energy (Ha)
1    0    2.00
2    0    2.00
2    1    4.00
#
# PSEUDOPOTENTIAL AND OPTIMIZATION
# lmax
2
#
#   l,   rc,     ep,   ncon, nbas, qcut
0   1.35000  -0.88055    4    8   8.40000
1   1.45000  -0.33140    4    8   9.30000
2   1.25000   0.10000    4    8   6.00000
#
# LOCAL POTENTIAL
# lloc, lpopt,  rc(5),   dvloc0
4    5   1.20000      0.00000
#
# VANDERBILT-KLEINMAN-BYLANDER PROJECTORs
# l, nproj, debl
0    2   1.00000
1    2   0.99955
2    1   1.00000
#
# MODEL CORE CHARGE
# icmod, fcfact, rcfact
3   4.00000   1.50000
#
# LOG DERIVATIVE ANALYSIS
# epsh1, epsh2, depsh
-12.00   12.00    0.02
#
# OUTPUT GRID
# rlmax, drl
6.00    0.01
#
# TEST CONFIGURATIONS
# ncnf
0
# nvcnf
#   n    l    f
</PP_INPUTFILE>
</PP_INFO>
<!--                               -->
<!-- END OF HUMAN READABLE SECTION -->
<!--                               -->
<PP_HEADER
generated="Generated using ONCVPSP code by D. R. Hamann"
author="anonymous"
date="170211"
comment=""
element="O "
pseudo_type="NC"
relativistic="full"
is_ultrasoft="F"
is_paw="F"
is_coulomb="F"
has_so="T"
has_wfc="F"
has_gipaw="F"
core_correction="T"
functional="PBE"
z_valence="    6.00"
total_psenergy="  -3.15142953221E+01"
rho_cutoff="   9.35000000000E+00"
l_max="2"
l_local="-1"
mesh_size="   936"
number_of_wfc="3"
number_of_proj="8"/>
<PP_MESH>
<PP_R type="real"  size=" 936" columns="8">
0.0000    0.0100    0.0200    0.0300    0.0400    0.0500    0.0600    0.0700
0.0800    0.0900    0.1000    0.1100    0.1200    0.1300    0.1400    0.1500
0.1600    0.1700    0.1800    0.1900    0.2000    0.2100    0.2200    0.2300
0.2400    0.2500    0.2600    0.2700    0.2800    0.2900    0.3000    0.3100
0.3200    0.3300    0.3400    0.3500    0.3600    0.3700    0.3800    0.3900
0.4000    0.4100    0.4200    0.4300    0.4400    0.4500    0.4600    0.4700
0.4800    0.4900    0.5000    0.5100    0.5200    0.5300    0.5400    0.5500
0.5600    0.5700    0.5800    0.5900    0.6000    0.6100    0.6200    0.6300
0.6400    0.6500    0.6600    0.6700    0.6800    0.6900    0.7000    0.7100
0.7200    0.7300    0.7400    0.7500    0.7600    0.7700    0.7800    0.7900
0.8000    0.8100    0.8200    0.8300    0.8400    0.8500    0.8600    0.8700
0.8800    0.8900    0.9000    0.9100    0.9200    0.9300    0.9400    0.9500
0.9600    0.9700    0.9800    0.9900    1.0000    1.0100    1.0200    1.0300
1.0400    1.0500    1.0600    1.0700    1.0800    1.0900    1.1000    1.1100
1.1200    1.1300    1.1400    1.1500    1.1600    1.1700    1.1800    1.1900
1.2000    1.2100    1.2200    1.2300    1.2400    1.2500    1.2600    1.2700
1.2800    1.2900    1.3000    1.3100    1.3200    1.3300    1.3400    1.3500
1.3600    1.3700    1.3800    1.3900    1.4000    1.4100    1.4200    1.4300
1.4400    1.4500    1.4600    1.4700    1.4800    1.4900    1.5000    1.5100
1.5200    1.5300    1.5400    1.5500    1.5600    1.5700    1.5800    1.5900
1.6000    1.6100    1.6200    1.6300    1.6400    1.6500    1.6600    1.6700
1.6800    1.6900    1.7000    1.7100    1.7200    1.7300    1.7400    1.7500
1.7600    1.7700    1.7800    1.7900    1.8000    1.8100    1.8200    1.8300
1.8400    1.8500    1.8600    1.8700    1.8800    1.8900    1.9000    1.9100
1.9200    1.9300    1.9400    1.9500    1.9600    1.9700    1.9800    1.9900
2.0000    2.0100    2.0200    2.0300    2.0400    2.0500    2.0600    2.0700
2.0800    2.0900    2.1000    2.1100    2.1200    2.1300    2.1400    2.1500
2.1600    2.1700    2.1800    2.1900    2.2000    2.2100    2.2200    2.2300
2.2400    2.2500    2.2600    2.2700    2.2800    2.2900    2.3000    2.3100
2.3200    2.3300    2.3400    2.3500    2.3600    2.3700    2.3800    2.3900
2.4000    2.4100    2.4200    2.4300    2.4400    2.4500    2.4600    2.4700
2.4800    2.4900    2.5000    2.5100    2.5200    2.5300    2.5400    2.5500
2.5600    2.5700    2.5800    2.5900    2.6000    2.6100    2.6200    2.6300
2.6400    2.6500    2.6600    2.6700    2.6800    2.6900    2.7000    2.7100
2.7200    2.7300    2.7400    2.7500    2.7600    2.7700    2.7800    2.7900
2.8000    2.8100    2.8200    2.8300    2.8400    2.8500    2.8600    2.8700
2.8800    2.8900    2.9000    2.9100    2.9200    2.9300    2.9400    2.9500
2.9600    2.9700    2.9800    2.9900    3.0000    3.0100    3.0200    3.0300
3.0400    3.0500    3.0600    3.0700    3.0800    3.0900    3.1000    3.1100
3.1200    3.1300    3.1400    3.1500    3.1600    3.1700    3.1800    3.1900
3.2000    3.2100    3.2200    3.2300    3.2400    3.2500    3.2600    3.2700
3.2800    3.2900    3.3000    3.3100    3.3200    3.3300    3.3400    3.3500
3.3600    3.3700    3.3800    3.3900    3.4000    3.4100    3.4200    3.4300
3.4400    3.4500    3.4600    3.4700    3.4800    3.4900    3.5000    3.5100
3.5200    3.5300    3.5400    3.5500    3.5600    3.5700    3.5800    3.5900
3.6000    3.6100    3.6200    3.6300    3.6400    3.6500    3.6600    3.6700
3.6800    3.6900    3.7000    3.7100    3.7200    3.7300    3.7400    3.7500
3.7600    3.7700    3.7800    3.7900    3.8000    3.8100    3.8200    3.8300
3.8400    3.8500    3.8600    3.8700    3.8800    3.8900    3.9000    3.9100
3.9200    3.9300    3.9400    3.9500    3.9600    3.9700    3.9800    3.9900
4.0000    4.0100    4.0200    4.0300    4.0400    4.0500    4.0600    4.0700
4.0800    4.0900    4.1000    4.1100    4.1200    4.1300    4.1400    4.1500
4.1600    4.1700    4.1800    4.1900    4.2000    4.2100    4.2200    4.2300
4.2400    4.2500    4.2600    4.2700    4.2800    4.2900    4.3000    4.3100
4.3200    4.3300    4.3400    4.3500    4.3600    4.3700    4.3800    4.3900
4.4000    4.4100    4.4200    4.4300    4.4400    4.4500    4.4600    4.4700
4.4800    4.4900    4.5000    4.5100    4.5200    4.5300    4.5400    4.5500
4.5600    4.5700    4.5800    4.5900    4.6000    4.6100    4.6200    4.6300
4.6400    4.6500    4.6600    4.6700    4.6800    4.6900    4.7000    4.7100
4.7200    4.7300    4.7400    4.7500    4.7600    4.7700    4.7800    4.7900
4.8000    4.8100    4.8200    4.8300    4.8400    4.8500    4.8600    4.8700
4.8800    4.8900    4.9000    4.9100    4.9200    4.9300    4.9400    4.9500
4.9600    4.9700    4.9800    4.9900    5.0000    5.0100    5.0200    5.0300
5.0400    5.0500    5.0600    5.0700    5.0800    5.0900    5.1000    5.1100
5.1200    5.1300    5.1400    5.1500    5.1600    5.1700    5.1800    5.1900
5.2000    5.2100    5.2200    5.2300    5.2400    5.2500    5.2600    5.2700
5.2800    5.2900    5.3000    5.3100    5.3200    5.3300    5.3400    5.3500
5.3600    5.3700    5.3800    5.3900    5.4000    5.4100    5.4200    5.4300
5.4400    5.4500    5.4600    5.4700    5.4800    5.4900    5.5000    5.5100
5.5200    5.5300    5.5400    5.5500    5.5600    5.5700    5.5800    5.5900
5.6000    5.6100    5.6200    5.6300    5.6400    5.6500    5.6600    5.6700
5.6800    5.6900    5.7000    5.7100    5.7200    5.7300    5.7400    5.7500
5.7600    5.7700    5.7800    5.7900    5.8000    5.8100    5.8200    5.8300
5.8400    5.8500    5.8600    5.8700    5.8800    5.8900    5.9000    5.9100
5.9200    5.9300    5.9400    5.9500    5.9600    5.9700    5.9800    5.9900
6.0000    6.0100    6.0200    6.0300    6.0400    6.0500    6.0600    6.0700
6.0800    6.0900    6.1000    6.1100    6.1200    6.1300    6.1400    6.1500
6.1600    6.1700    6.1800    6.1900    6.2000    6.2100    6.2200    6.2300
6.2400    6.2500    6.2600    6.2700    6.2800    6.2900    6.3000    6.3100
6.3200    6.3300    6.3400    6.3500    6.3600    6.3700    6.3800    6.3900
6.4000    6.4100    6.4200    6.4300    6.4400    6.4500    6.4600    6.4700
6.4800    6.4900    6.5000    6.5100    6.5200    6.5300    6.5400    6.5500
6.5600    6.5700    6.5800    6.5900    6.6000    6.6100    6.6200    6.6300
6.6400    6.6500    6.6600    6.6700    6.6800    6.6900    6.7000    6.7100
6.7200    6.7300    6.7400    6.7500    6.7600    6.7700    6.7800    6.7900
6.8000    6.8100    6.8200    6.8300    6.8400    6.8500    6.8600    6.8700
6.8800    6.8900    6.9000    6.9100    6.9200    6.9300    6.9400    6.9500
6.9600    6.9700    6.9800    6.9900    7.0000    7.0100    7.0200    7.0300
7.0400    7.0500    7.0600    7.0700    7.0800    7.0900    7.1000    7.1100
7.1200    7.1300    7.1400    7.1500    7.1600    7.1700    7.1800    7.1900
7.2000    7.2100    7.2200    7.2300    7.2400    7.2500    7.2600    7.2700
7.2800    7.2900    7.3000    7.3100    7.3200    7.3300    7.3400    7.3500
7.3600    7.3700    7.3800    7.3900    7.4000    7.4100    7.4200    7.4300
7.4400    7.4500    7.4600    7.4700    7.4800    7.4900    7.5000    7.5100
7.5200    7.5300    7.5400    7.5500    7.5600    7.5700    7.5800    7.5900
7.6000    7.6100    7.6200    7.6300    7.6400    7.6500    7.6600    7.6700
7.6800    7.6900    7.7000    7.7100    7.7200    7.7300    7.7400    7.7500
7.7600    7.7700    7.7800    7.7900    7.8000    7.8100    7.8200    7.8300
7.8400    7.8500    7.8600    7.8700    7.8800    7.8900    7.9000    7.9100
7.9200    7.9300    7.9400    7.9500    7.9600    7.9700    7.9800    7.9900
8.0000    8.0100    8.0200    8.0300    8.0400    8.0500    8.0600    8.0700
8.0800    8.0900    8.1000    8.1100    8.1200    8.1300    8.1400    8.1500
8.1600    8.1700    8.1800    8.1900    8.2000    8.2100    8.2200    8.2300
8.2400    8.2500    8.2600    8.2700    8.2800    8.2900    8.3000    8.3100
8.3200    8.3300    8.3400    8.3500    8.3600    8.3700    8.3800    8.3900
8.4000    8.4100    8.4200    8.4300    8.4400    8.4500    8.4600    8.4700
8.4800    8.4900    8.5000    8.5100    8.5200    8.5300    8.5400    8.5500
8.5600    8.5700    8.5800    8.5900    8.6000    8.6100    8.6200    8.6300
8.6400    8.6500    8.6600    8.6700    8.6800    8.6900    8.7000    8.7100
8.7200    8.7300    8.7400    8.7500    8.7600    8.7700    8.7800    8.7900
8.8000    8.8100    8.8200    8.8300    8.8400    8.8500    8.8600    8.8700
8.8800    8.8900    8.9000    8.9100    8.9200    8.9300    8.9400    8.9500
8.9600    8.9700    8.9800    8.9900    9.0000    9.0100    9.0200    9.0300
9.0400    9.0500    9.0600    9.0700    9.0800    9.0900    9.1000    9.1100
9.1200    9.1300    9.1400    9.1500    9.1600    9.1700    9.1800    9.1900
9.2000    9.2100    9.2200    9.2300    9.2400    9.2500    9.2600    9.2700
9.2800    9.2900    9.3000    9.3100    9.3200    9.3300    9.3400    9.3500
</PP_R>
<PP_RAB type="real"  size=" 936" columns="8">
0.0100    0.0100    0.0100    0.0100    0.0100    0.0100    0.0100    0.0100
0.0100    0.0100    0.0100    0.0100    0.0100    0.0100    0.0100    0.0100
0.0100    0.0100    0.0100    0.0100    0.0100    0.0100    0.0100    0.0100
0.0100    0.0100    0.0100    0.0100    0.0100    0.0100    0.0100    0.0100
0.0100    0.0100    0.0100    0.0100    0.0100    0.0100    0.0100    0.0100
0.0100    0.0100    0.0100    0.0100    0.0100    0.0100    0.0100    0.0100
0.0100    0.0100    0.0100    0.0100    0.0100    0.0100    0.0100    0.0100
0.0100    0.0100    0.0100    0.0100    0.0100    0.0100    0.0100    0.0100
0.0100    0.0100    0.0100    0.0100    0.0100    0.0100    0.0100    0.0100
0.0100    0.0100    0.0100    0.0100    0.0100    0.0100    0.0100    0.0100
0.0100    0.0100    0.0100    0.0100    0.0100    0.0100    0.0100    0.0100
0.0100    0.0100    0.0100    0.0100    0.0100    0.0100    0.0100    0.0100
0.0100    0.0100    0.0100    0.0100    0.0100    0.0100    0.0100    0.0100
0.0100    0.0100    0.0100    0.0100    0.0100    0.0100    0.0100    0.0100
0.0100    0.0100    0.0100    0.0100    0.0100    0.0100    0.0100    0.0100
0.0100    0.0100    0.0100    0.0100    0.0100    0.0100    0.0100    0.0100
0.0100    0.0100    0.0100    0.0100    0.0100    0.0100    0.0100    0.0100
0.0100    0.0100    0.0100    0.0100    0.0100    0.0100    0.0100    0.0100
0.0100    0.0100    0.0100    0.0100    0.0100    0.0100    0.0100    0.0100
0.0100    0.0100    0.0100    0.0100    0.0100    0.0100    0.0100    0.0100
0.0100    0.0100    0.0100    0.0100    0.0100    0.0100    0.0100    0.0100
0.0100    0.0100    0.0100    0.0100    0.0100    0.0100    0.0100    0.0100
0.0100    0.0100    0.0100    0.0100    0.0100    0.0100    0.0100    0.0100
0.0100    0.0100    0.0100    0.0100    0.0100    0.0100    0.0100    0.0100
0.0100    0.0100    0.0100    0.0100    0.0100    0.0100    0.0100    0.0100
0.0100    0.0100    0.0100    0.0100    0.0100    0.0100    0.0100    0.0100
0.0100    0.0100    0.0100    0.0100    0.0100    0.0100    0.0100    0.0100
0.0100    0.0100    0.0100    0.0100    0.0100    0.0100    0.0100    0.0100
0.0100    0.0100    0.0100    0.0100    0.0100    0.0100    0.0100    0.0100
0.0100    0.0100    0.0100    0.0100    0.0100    0.0100    0.0100    0.0100
0.0100    0.0100    0.0100    0.0100    0.0100    0.0100    0.0100    0.0100
0.0100    0.0100    0.0100    0.0100    0.0100    0.0100    0.0100    0.0100
0.0100    0.0100    0.0100    0.0100    0.0100    0.0100    0.0100    0.0100
0.0100    0.0100    0.0100    0.0100    0.0100    0.0100    0.0100    0.0100
0.0100    0.0100    0.0100    0.0100    0.0100    0.0100    0.0100    0.0100
0.0100    0.0100    0.0100    0.0100    0.0100    0.0100    0.0100    0.0100
0.0100    0.0100    0.0100    0.0100    0.0100    0.0100    0.0100    0.0100
0.0100    0.0100    0.0100    0.0100    0.0100    0.0100    0.0100    0.0100
0.0100    0.0100    0.0100    0.0100    0.0100    0.0100    0.0100    0.0100
0.0100    0.0100    0.0100    0.0100    0.0100    0.0100    0.0100    0.0100
0.0100    0.0100    0.0100    0.0100    0.0100    0.0100    0.0100    0.0100
0.0100    0.0100    0.0100    0.0100    0.0100    0.0100    0.0100    0.0100
0.0100    0.0100    0.0100    0.0100    0.0100    0.0100    0.0100    0.0100
0.0100    0.0100    0.0100    0.0100    0.0100    0.0100    0.0100    0.0100
0.0100    0.0100    0.0100    0.0100    0.0100    0.0100    0.0100    0.0100
0.0100    0.0100    0.0100    0.0100    0.0100    0.0100    0.0100    0.0100
0.0100    0.0100    0.0100    0.0100    0.0100    0.0100    0.0100    0.0100
0.0100    0.0100    0.0100    0.0100    0.0100    0.0100    0.0100    0.0100
0.0100    0.0100    0.0100    0.0100    0.0100    0.0100    0.0100    0.0100
0.0100    0.0100    0.0100    0.0100    0.0100    0.0100    0.0100    0.0100
0.0100    0.0100    0.0100    0.0100    0.0100    0.0100    0.0100    0.0100
0.0100    0.0100    0.0100    0.0100    0.0100    0.0100    0.0100    0.0100
0.0100    0.0100    0.0100    0.0100    0.0100    0.0100    0.0100    0.0100
0.0100    0.0100    0.0100    0.0100    0.0100    0.0100    0.0100    0.0100
0.0100    0.0100    0.0100    0.0100    0.0100    0.0100    0.0100    0.0100
0.0100    0.0100    0.0100    0.0100    0.0100    0.0100    0.0100    0.0100
0.0100    0.0100    0.0100    0.0100    0.0100    0.0100    0.0100    0.0100
0.0100    0.0100    0.0100    0.0100    0.0100    0.0100    0.0100    0.0100
0.0100    0.0100    0.0100    0.0100    0.0100    0.0100    0.0100    0.0100
0.0100    0.0100    0.0100    0.0100    0.0100    0.0100    0.0100    0.0100
0.0100    0.0100    0.0100    0.0100    0.0100    0.0100    0.0100    0.0100
0.0100    0.0100    0.0100    0.0100    0.0100    0.0100    0.0100    0.0100
0.0100    0.0100    0.0100    0.0100    0.0100    0.0100    0.0100    0.0100
0.0100    0.0100    0.0100    0.0100    0.0100    0.0100    0.0100    0.0100
0.0100    0.0100    0.0100    0.0100    0.0100    0.0100    0.0100    0.0100
0.0100    0.0100    0.0100    0.0100    0.0100    0.0100    0.0100    0.0100
0.0100    0.0100    0.0100    0.0100    0.0100    0.0100    0.0100    0.0100
0.0100    0.0100    0.0100    0.0100    0.0100    0.0100    0.0100    0.0100
0.0100    0.0100    0.0100    0.0100    0.0100    0.0100    0.0100    0.0100
0.0100    0.0100    0.0100    0.0100    0.0100    0.0100    0.0100    0.0100
0.0100    0.0100    0.0100    0.0100    0.0100    0.0100    0.0100    0.0100
0.0100    0.0100    0.0100    0.0100    0.0100    0.0100    0.0100    0.0100
0.0100    0.0100    0.0100    0.0100    0.0100    0.0100    0.0100    0.0100
0.0100    0.0100    0.0100    0.0100    0.0100    0.0100    0.0100    0.0100
0.0100    0.0100    0.0100    0.0100    0.0100    0.0100    0.0100    0.0100
0.0100    0.0100    0.0100    0.0100    0.0100    0.0100    0.0100    0.0100
0.0100    0.0100    0.0100    0.0100    0.0100    0.0100    0.0100    0.0100
0.0100    0.0100    0.0100    0.0100    0.0100    0.0100    0.0100    0.0100
0.0100    0.0100    0.0100    0.0100    0.0100    0.0100    0.0100    0.0100
0.0100    0.0100    0.0100    0.0100    0.0100    0.0100    0.0100    0.0100
0.0100    0.0100    0.0100    0.0100    0.0100    0.0100    0.0100    0.0100
0.0100    0.0100    0.0100    0.0100    0.0100    0.0100    0.0100    0.0100
0.0100    0.0100    0.0100    0.0100    0.0100    0.0100    0.0100    0.0100
0.0100    0.0100    0.0100    0.0100    0.0100    0.0100    0.0100    0.0100
0.0100    0.0100    0.0100    0.0100    0.0100    0.0100    0.0100    0.0100
0.0100    0.0100    0.0100    0.0100    0.0100    0.0100    0.0100    0.0100
0.0100    0.0100    0.0100    0.0100    0.0100    0.0100    0.0100    0.0100
0.0100    0.0100    0.0100    0.0100    0.0100    0.0100    0.0100    0.0100
0.0100    0.0100    0.0100    0.0100    0.0100    0.0100    0.0100    0.0100
0.0100    0.0100    0.0100    0.0100    0.0100    0.0100    0.0100    0.0100
0.0100    0.0100    0.0100    0.0100    0.0100    0.0100    0.0100    0.0100
0.0100    0.0100    0.0100    0.0100    0.0100    0.0100    0.0100    0.0100
0.0100    0.0100    0.0100    0.0100    0.0100    0.0100    0.0100    0.0100
0.0100    0.0100    0.0100    0.0100    0.0100    0.0100    0.0100    0.0100
0.0100    0.0100    0.0100    0.0100    0.0100    0.0100    0.0100    0.0100
0.0100    0.0100    0.0100    0.0100    0.0100    0.0100    0.0100    0.0100
0.0100    0.0100    0.0100    0.0100    0.0100    0.0100    0.0100    0.0100
0.0100    0.0100    0.0100    0.0100    0.0100    0.0100    0.0100    0.0100
0.0100    0.0100    0.0100    0.0100    0.0100    0.0100    0.0100    0.0100
0.0100    0.0100    0.0100    0.0100    0.0100    0.0100    0.0100    0.0100
0.0100    0.0100    0.0100    0.0100    0.0100    0.0100    0.0100    0.0100
0.0100    0.0100    0.0100    0.0100    0.0100    0.0100    0.0100    0.0100
0.0100    0.0100    0.0100    0.0100    0.0100    0.0100    0.0100    0.0100
0.0100    0.0100    0.0100    0.0100    0.0100    0.0100    0.0100    0.0100
0.0100    0.0100    0.0100    0.0100    0.0100    0.0100    0.0100    0.0100
0.0100    0.0100    0.0100    0.0100    0.0100    0.0100    0.0100    0.0100
0.0100    0.0100    0.0100    0.0100    0.0100    0.0100    0.0100    0.0100
0.0100    0.0100    0.0100    0.0100    0.0100    0.0100    0.0100    0.0100
0.0100    0.0100    0.0100    0.0100    0.0100    0.0100    0.0100    0.0100
0.0100    0.0100    0.0100    0.0100    0.0100    0.0100    0.0100    0.0100
0.0100    0.0100    0.0100    0.0100    0.0100    0.0100    0.0100    0.0100
0.0100    0.0100    0.0100    0.0100    0.0100    0.0100    0.0100    0.0100
0.0100    0.0100    0.0100    0.0100    0.0100    0.0100    0.0100    0.0100
0.0100    0.0100    0.0100    0.0100    0.0100    0.0100    0.0100    0.0100
0.0100    0.0100    0.0100    0.0100    0.0100    0.0100    0.0100    0.0100
0.0100    0.0100    0.0100    0.0100    0.0100    0.0100    0.0100    0.0100
0.0100    0.0100    0.0100    0.0100    0.0100    0.0100    0.0100    0.0100
</PP_RAB>
</PP_MESH>
<PP_LOCAL type="real"  size=" 936" columns="4">
-2.0585216996E+01   -2.0583425561E+01   -2.0578093509E+01   -2.0569344630E+01
-2.0557375760E+01   -2.0542443650E+01   -2.0524848724E+01   -2.0504917352E+01
-2.0482984288E+01   -2.0459376639E+01   -2.0434400377E+01   -2.0408329972E+01
-2.0381401275E+01   -2.0353807493E+01   -2.0325697836E+01   -2.0297178295E+01
-2.0268313994E+01   -2.0239132567E+01   -2.0209628101E+01   -2.0179765293E+01
-2.0149483540E+01   -2.0118700791E+01   -2.0087317060E+01   -2.0055217565E+01
-2.0022275480E+01   -1.9988354325E+01   -1.9953310049E+01   -1.9916992827E+01
-1.9879248619E+01   -1.9839920535E+01   -1.9798849999E+01   -1.9755877752E+01
-1.9710844688E+01   -1.9663592529E+01   -1.9613964353E+01   -1.9561805004E+01
-1.9506961419E+01   -1.9449282964E+01   -1.9388621874E+01   -1.9324833935E+01
-1.9257779576E+01   -1.9187325501E+01   -1.9113347031E+01   -1.9035731194E+01
-1.8954380572E+01   -1.8869217750E+01   -1.8780190100E+01   -1.8687274485E+01
-1.8590481370E+01   -1.8489857809E+01   -1.8385488792E+01   -1.8277496608E+01
-1.8166038071E+01   -1.8051299755E+01   -1.7933491623E+01   -1.7812839666E+01
-1.7689578287E+01   -1.7563943147E+01   -1.7436165093E+01   -1.7306465579E+01
-1.7175053754E+01   -1.7042125151E+01   -1.6907861776E+01   -1.6772433203E+01
-1.6635998331E+01   -1.6498707387E+01   -1.6360703893E+01   -1.6222126338E+01
-1.6083109418E+01   -1.5943784789E+01   -1.5804281316E+01   -1.5664724901E+01
-1.5525237955E+01   -1.5385938657E+01   -1.5246940083E+01   -1.5108349335E+01
-1.4970266746E+01   -1.4832785247E+01   -1.4695989917E+01   -1.4559957764E+01
-1.4424757726E+01   -1.4290450876E+01   -1.4157090809E+01   -1.4024724179E+01
-1.3893391336E+01   -1.3763127044E+01   -1.3633961222E+01   -1.3505919693E+01
-1.3379024910E+01   -1.3253296632E+01   -1.3128752544E+01   -1.3005408801E+01
-1.2883280499E+01   -1.2762382058E+01   -1.2642727536E+01   -1.2524330852E+01
-1.2407205949E+01   -1.2291366880E+01   -1.2176827836E+01   -1.2063603119E+01
-1.1951707071E+01   -1.1841153953E+01   -1.1731957803E+01   -1.1624132256E+01
-1.1517690344E+01   -1.1412644287E+01   -1.1309005270E+01   -1.1206783207E+01
-1.1105986518E+01   -1.1006621898E+01   -1.0908694097E+01   -1.0812205705E+01
-1.0717156955E+01   -1.0623545532E+01   -1.0531366402E+01   -1.0440611653E+01
-1.0351270354E+01   -1.0263328425E+01   -1.0176768526E+01   -1.0091570009E+01
-1.0007708696E+01   -9.9251569015E+00   -9.8438852758E+00   -9.7638646370E+00
-9.6850672475E+00   -9.6074664344E+00   -9.5310366441E+00   -9.4557534237E+00
-9.3815934112E+00   -9.3085343106E+00   -9.2365548524E+00   -9.1656348571E+00
-9.0957549976E+00   -9.0268968606E+00   -8.9590425278E+00   -8.8921770172E+00
-8.8262910627E+00   -8.7613811221E+00   -8.6974455057E+00   -8.6344730067E+00
-8.5724466145E+00   -8.5113476809E+00   -8.4511603396E+00   -8.3918713323E+00
-8.3334652059E+00   -8.2759212475E+00   -8.2192120533E+00   -8.1632999769E+00
-8.1081416902E+00   -8.0537165839E+00   -8.0000195584E+00   -7.9470359134E+00
-7.8947497041E+00   -7.8431477952E+00   -7.7922169975E+00   -7.7419442445E+00
-7.6923168033E+00   -7.6433222465E+00   -7.5949484346E+00   -7.5471835174E+00
-7.5000159335E+00   -7.4534344082E+00   -7.4074279519E+00   -7.3619858566E+00
-7.3170976941E+00   -7.2727533157E+00   -7.2289428046E+00   -7.1856565041E+00
-7.1428852183E+00   -7.1006198860E+00   -7.0588510290E+00   -7.0175695053E+00
-6.9767672117E+00   -6.9364364616E+00   -6.8965699795E+00   -6.8571604791E+00
-6.8181995575E+00   -6.7796786611E+00   -6.7415903097E+00   -6.7039275418E+00
-6.6666833172E+00   -6.6298506377E+00   -6.5934227049E+00   -6.5573928937E+00
-6.5217547140E+00   -6.4865018145E+00   -6.4516279809E+00   -6.4171271319E+00
-6.3829933157E+00   -6.3492207063E+00   -6.3158036003E+00   -6.2827364139E+00
-6.2500136796E+00   -6.2176300432E+00   -6.1855802607E+00   -6.1538591960E+00
-6.1224618177E+00   -6.0913831963E+00   -6.0606185023E+00   -6.0301630031E+00
-6.0000120605E+00   -5.9701611291E+00   -5.9406057530E+00   -5.9113415645E+00
-5.8823642814E+00   -5.8536697050E+00   -5.8252537181E+00   -5.7971122833E+00
-5.7692414405E+00   -5.7416373056E+00   -5.7142960686E+00   -5.6872139914E+00
-5.6603874067E+00   -5.6338127159E+00   -5.6074863879E+00   -5.5814049570E+00
-5.5555650219E+00   -5.5299632440E+00   -5.5045963456E+00   -5.4794611095E+00
-5.4545543764E+00   -5.4298730445E+00   -5.4054140678E+00   -5.3811744551E+00
-5.3571512683E+00   -5.3333416217E+00   -5.3097426808E+00   -5.2863516608E+00
-5.2631658260E+00   -5.2401824884E+00   -5.2173990065E+00   -5.1948127850E+00
-5.1724212730E+00   -5.1502219635E+00   -5.1282123924E+00   -5.1063901375E+00
-5.0847528176E+00   -5.0632980918E+00   -5.0420236585E+00   -5.0209272545E+00
-5.0000066546E+00   -4.9792596702E+00   -4.9586841491E+00   -4.9382779746E+00
-4.9180390643E+00   -4.8979653703E+00   -4.8780548777E+00   -4.8583056042E+00
-4.8387155997E+00   -4.8192829452E+00   -4.8000057526E+00   -4.7808821637E+00
-4.7619103499E+00   -4.7430885116E+00   -4.7244148772E+00   -4.7058877034E+00
-4.6875052735E+00   -4.6692658982E+00   -4.6511679142E+00   -4.6332096837E+00
-4.6153895941E+00   -4.5977060575E+00   -4.5801575101E+00   -4.5627424121E+00
-4.5454592473E+00   -4.5283065222E+00   -4.5112827657E+00   -4.4943865285E+00
-4.4776163833E+00   -4.4609709237E+00   -4.4444487644E+00   -4.4280485405E+00
-4.4117689071E+00   -4.3956085390E+00   -4.3795661304E+00   -4.3636403944E+00
-4.3478300629E+00   -4.3321338861E+00   -4.3165506319E+00   -4.3010790863E+00
-4.2857180523E+00   -4.2704663502E+00   -4.2553228167E+00   -4.2402863052E+00
-4.2253556853E+00   -4.2105298422E+00   -4.1958076769E+00   -4.1811881057E+00
-4.1666700599E+00   -4.1522524856E+00   -4.1379343434E+00   -4.1237146082E+00
-4.1095922691E+00   -4.0955663288E+00   -4.0816358035E+00   -4.0677997231E+00
-4.0540571303E+00   -4.0404070807E+00   -4.0268486428E+00   -4.0133808973E+00
-4.0000029373E+00   -3.9867138679E+00   -3.9735128062E+00   -3.9603988807E+00
-3.9473712316E+00   -3.9344290102E+00   -3.9215713790E+00   -3.9087975114E+00
-3.8961065915E+00   -3.8834978139E+00   -3.8709703838E+00   -3.8585235165E+00
-3.8461564372E+00   -3.8338683813E+00   -3.8216585938E+00   -3.8095263291E+00
-3.7974708515E+00   -3.7854914340E+00   -3.7735873593E+00   -3.7617579187E+00
-3.7500024126E+00   -3.7383201499E+00   -3.7267104483E+00   -3.7151726339E+00
-3.7037060409E+00   -3.6923100119E+00   -3.6809838977E+00   -3.6697270567E+00
-3.6585388554E+00   -3.6474186678E+00   -3.6363658757E+00   -3.6253798683E+00
-3.6144600419E+00   -3.6036058005E+00   -3.5928165548E+00   -3.5820917229E+00
-3.5714307297E+00   -3.5608330067E+00   -3.5502979925E+00   -3.5398251321E+00
-3.5294138771E+00   -3.5190636854E+00   -3.5087740215E+00   -3.4985443560E+00
-3.4883741655E+00   -3.4782629329E+00   -3.4682101470E+00   -3.4582153025E+00
-3.4482778999E+00   -3.4383974454E+00   -3.4285734510E+00   -3.4188054339E+00
-3.4090929172E+00   -3.3994354291E+00   -3.3898325033E+00   -3.3802836787E+00
-3.3707884994E+00   -3.3613465147E+00   -3.3519572786E+00   -3.3426203504E+00
-3.3333352943E+00   -3.3241016791E+00   -3.3149190785E+00   -3.3057870709E+00
-3.2967052394E+00   -3.2876731714E+00   -3.2786904592E+00   -3.2697566993E+00
-3.2608714925E+00   -3.2520344442E+00   -3.2432451638E+00   -3.2345032652E+00
-3.2258083661E+00   -3.2171600886E+00   -3.2085580586E+00   -3.2000019063E+00
-3.1914912655E+00   -3.1830257741E+00   -3.1746050738E+00   -3.1662288099E+00
-3.1578966318E+00   -3.1496081922E+00   -3.1413631476E+00   -3.1331611582E+00
-3.1250018876E+00   -3.1168850028E+00   -3.1088101745E+00   -3.1007770766E+00
-3.0927853866E+00   -3.0848347849E+00   -3.0769249556E+00   -3.0690555858E+00
-3.0612263659E+00   -3.0534369895E+00   -3.0456871530E+00   -3.0379765562E+00
-3.0303049019E+00   -3.0226718957E+00   -3.0150772464E+00   -3.0075206655E+00
-3.0000018675E+00   -2.9925205698E+00   -2.9850764925E+00   -2.9776693585E+00
-2.9702988934E+00   -2.9629648258E+00   -2.9556668865E+00   -2.9484048094E+00
-2.9411783306E+00   -2.9339871892E+00   -2.9268311265E+00   -2.9197098865E+00
-2.9126232155E+00   -2.9055708626E+00   -2.8985525790E+00   -2.8915681185E+00
-2.8846172370E+00   -2.8776996931E+00   -2.8708152475E+00   -2.8639636632E+00
-2.8571447054E+00   -2.8503581417E+00   -2.8436037418E+00   -2.8368812775E+00
-2.8301905230E+00   -2.8235312543E+00   -2.8169032497E+00   -2.8103062897E+00
-2.8037401565E+00   -2.7972046346E+00   -2.7906995104E+00   -2.7842245724E+00
-2.7777796110E+00   -2.7713644183E+00   -2.7649787887E+00   -2.7586225183E+00
-2.7522954051E+00   -2.7459972488E+00   -2.7397278512E+00   -2.7334870158E+00
-2.7272745477E+00   -2.7210902540E+00   -2.7149339435E+00   -2.7088054267E+00
-2.7027045158E+00   -2.6966310246E+00   -2.6905847688E+00   -2.6845655655E+00
-2.6785732336E+00   -2.6726075936E+00   -2.6666684675E+00   -2.6607556789E+00
-2.6548690530E+00   -2.6490084166E+00   -2.6431735979E+00   -2.6373644268E+00
-2.6315807344E+00   -2.6258223535E+00   -2.6200891183E+00   -2.6143808645E+00
-2.6086974292E+00   -2.6030386507E+00   -2.5974043691E+00   -2.5917944256E+00
-2.5862086628E+00   -2.5806469248E+00   -2.5751090568E+00   -2.5695949056E+00
-2.5641043190E+00   -2.5586371465E+00   -2.5531932384E+00   -2.5477724466E+00
-2.5423746243E+00   -2.5369996257E+00   -2.5316473063E+00   -2.5263175230E+00
-2.5210101337E+00   -2.5157249975E+00   -2.5104619749E+00   -2.5052209272E+00
-2.5000017172E+00   -2.4948042086E+00   -2.4896282664E+00   -2.4844737566E+00
-2.4793405464E+00   -2.4742285040E+00   -2.4691374988E+00   -2.4640674011E+00
-2.4590180825E+00   -2.4539894155E+00   -2.4489812736E+00   -2.4439935314E+00
-2.4390260645E+00   -2.4340787496E+00   -2.4291514643E+00   -2.4242440871E+00
-2.4193564977E+00   -2.4144885766E+00   -2.4096402054E+00   -2.4048112665E+00