Hf    ONCVPSP-3.3.0  r_core=   1.55994   1.61677   1.45219   1.61677
72.0000     26.0000      171114    zatom,zion,pspd
8   -1012   3     4   600     0    pspcod,pspxc,lmax,lloc,mmax,r2well
5.99000000  3.00000000  0.00000000    rchrg fchrg qchrg
2     2     2     2     0    nproj
1     1           extension_switch
0                         1.3038672767754D+01  1.4662118650029D+00
1  0.0000000000000D+00 -1.4725032304597D-10  6.9905256583347D-10
2  1.0000000000000D-02  4.9656551133408D-02 -2.1747814156059D-02
3  2.0000000000000D-02  9.9260468301699D-02 -4.3388850328977D-02
4  3.0000000000000D-02  1.4875923168394D-01 -6.4817281130133D-02
5  4.0000000000000D-02  1.9810054754923D-01 -8.5929166973712D-02
6  5.0000000000000D-02  2.4723245584393D-01 -1.0662336669254D-01
7  6.0000000000000D-02  2.9610343133560D-01 -1.2680240871320D-01
8  7.0000000000000D-02  3.4466247634107D-01 -1.4637331047383D-01
9  8.0000000000000D-02  3.9285920321325D-01 -1.6524833446673D-01
10  9.0000000000000D-02  4.4064390494192D-01 -1.8334567014641D-01
11  1.0000000000000D-01  4.8796761243437D-01 -2.0059003195003D-01
12  1.1000000000000D-01  5.3478213728141D-01 -2.1691316482140D-01
13  1.2000000000000D-01  5.8104009907738D-01 -2.3225424989595D-01
14  1.3000000000000D-01  6.2669493664859D-01 -2.4656020437920D-01
15  1.4000000000000D-01  6.7170090284595D-01 -2.5978587111615D-01
16  1.5000000000000D-01  7.1601304287374D-01 -2.7189409488840D-01
17  1.6000000000000D-01  7.5958715645008D-01 -2.8285568406846D-01
18  1.7000000000000D-01  8.0237974442315D-01 -2.9264925788793D-01
19  1.8000000000000D-01  8.4434794079487D-01 -3.0126098121788D-01
20  1.9000000000000D-01  8.8544943142617D-01 -3.0868419039384D-01
21  2.0000000000000D-01  9.2564236101000D-01 -3.1491891522461D-01
22  2.1000000000000D-01  9.6488523019597D-01 -3.1997130388161D-01
23  2.2000000000000D-01  1.0031367850274D+00 -3.2385295885393D-01
24  2.3000000000000D-01  1.0403559011060D+00 -3.2658019355270D-01
25  2.4000000000000D-01  1.0765014651239D+00 -3.2817322043829D-01
26  2.5000000000000D-01  1.1115322565944D+00 -3.2865528270629D-01
27  2.6000000000000D-01  1.1454068327726D+00 -3.2805174258681D-01
28  2.7000000000000D-01  1.1780834198673D+00 -3.2638914016969D-01
29  2.8000000000000D-01  1.2095198137284D+00 -3.2369423735345D-01
30  2.9000000000000D-01  1.2396732932137D+00 -3.1999306201482D-01
31  3.0000000000000D-01  1.2685005494310D+00 -3.1530996779905D-01
32  3.1000000000000D-01  1.2959576339760D+00 -3.0966672503176D-01
33  3.2000000000000D-01  1.3219999291814D+00 -3.0308165814428D-01
34  3.3000000000000D-01  1.3465821432185D+00 -2.9556884468497D-01
35  3.4000000000000D-01  1.3696583326893D+00 -2.8713739045712D-01
36  3.5000000000000D-01  1.3911819550789D+00 -2.7779079458300D-01
37  3.6000000000000D-01  1.4111059531384D+00 -2.6752641734886D-01
38  3.7000000000000D-01  1.4293828729137D+00 -2.5633506254315D-01
39  3.8000000000000D-01  1.4459650167492D+00 -2.4420068467300D-01
40  3.9000000000000D-01  1.4608046321697D+00 -2.3110022994193D-01
41  4.0000000000000D-01  1.4738541370813D+00 -2.1700361821390D-01
42  4.1000000000000D-01  1.4850663812516D+00 -2.0187387138868D-01
43  4.2000000000000D-01  1.4943949435176D+00 -1.8566739169569D-01
44  4.3000000000000D-01  1.5017944636472D+00 -1.6833439139630D-01
45  4.4000000000000D-01  1.5072210072476D+00 -1.4981947329371D-01
46  4.5000000000000D-01  1.5106324615743D+00 -1.3006235931020D-01
47  4.6000000000000D-01  1.5119889595624D+00 -1.0899876222977D-01
48  4.7000000000000D-01  1.5112533288789D+00 -8.6561393547422D-02
49  4.8000000000000D-01  1.5083915622896D+00 -6.2681098244336D-02
50  4.9000000000000D-01  1.5033733051524D+00 -3.7288105246089D-02
51  5.0000000000000D-01  1.4961723554032D+00 -1.0313380351753D-02
52  5.1000000000000D-01  1.4867671709886D+00  1.8309933431811D-02
53  5.2000000000000D-01  1.4751413793385D+00  4.8645004921762D-02
54  5.3000000000000D-01  1.4612842831577D+00  8.0749751465665D-02
55  5.4000000000000D-01  1.4451913565631D+00  1.1467524296959D-01
56  5.5000000000000D-01  1.4268647254010D+00  1.5046409401647D-01
57  5.6000000000000D-01  1.4063136254570D+00  1.8814886572806D-01
58  5.7000000000000D-01  1.3835548322185D+00  2.2775049964791D-01
59  5.8000000000000D-01  1.3586130558725D+00  2.6927680628034D-01
60  5.9000000000000D-01  1.3315212953245D+00  3.1272103099219D-01
61  6.0000000000000D-01  1.3023211452009D+00  3.5806051976417D-01
62  6.1000000000000D-01  1.2710630500563D+00  4.0525550676604D-01
63  6.2000000000000D-01  1.2378065003466D+00  4.5424804491308D-01
64  6.3000000000000D-01  1.2026201651382D+00  5.0496109945813D-01
65  6.4000000000000D-01  1.1655819570185D+00  5.5729782327508D-01
66  6.5000000000000D-01  1.1267790252291D+00  6.1114103081268D-01
67  6.6000000000000D-01  1.0863076736693D+00  6.6635288576934D-01
68  6.7000000000000D-01  1.0442732011089D+00  7.2277481534479D-01
69  6.8000000000000D-01  1.0007896616897D+00  7.8022766152181D-01
70  6.9000000000000D-01  9.5597954458305D-01  8.3851207722690D-01
71  7.0000000000000D-01  9.0997337250427D-01  8.9740917243741D-01
72  7.1000000000000D-01  8.6290921964005D-01  9.5668141238326D-01
73  7.2000000000000D-01  8.1493215042876D-01  1.0160737669716D+00
74  7.3000000000000D-01  7.6619358152417D-01  1.0753151074600D+00
75  7.4000000000000D-01  7.1685057016231D-01  1.1341198432912D+00
76  7.5000000000000D-01  6.6706503303906D-01  1.1921897888591D+00
77  7.6000000000000D-01  6.1700290066268D-01  1.2492162469144D+00
78  7.7000000000000D-01  5.6683321297736D-01  1.3048822923186D+00
79  7.8000000000000D-01  5.1672716284064D-01  1.3588652369907D+00
80  7.9000000000000D-01  4.6685709467208D-01  1.4108392541841D+00
81  8.0000000000000D-01  4.1739546626263D-01  1.4604781377313D+00
82  8.1000000000000D-01  3.6851378233332D-01  1.5074581696250D+00
83  8.2000000000000D-01  3.2038150895017D-01  1.5514610673127D+00
84  8.3000000000000D-01  2.7316497833152D-01  1.5921769803836D+00
85  8.4000000000000D-01  2.2702629391735D-01  1.6293075049652D+00
86  8.5000000000000D-01  1.8212224580054D-01  1.6625686831286D+00
87  8.6000000000000D-01  1.3860324674408D-01  1.6916939539666D+00
88  8.7000000000000D-01  9.6612299021209D-02  1.7164370227496D+00
89  8.8000000000000D-01  5.6284002215740D-02  1.7365746147100D+00
90  8.9000000000000D-01  1.7743611905814D-02  1.7519090805520D+00
91  9.0000000000000D-01 -1.8893841174748D-02  1.7622708217391D+00
92  9.1000000000000D-01 -5.3524362339492D-02  1.7675205049507D+00
93  9.2000000000000D-01 -8.6055725910080D-02  1.7675510368501D+00
94  9.3000000000000D-01 -1.1640812197817D-01  1.7622892724110D+00
95  9.4000000000000D-01 -1.4451470976172D-01  1.7516974325207D+00
96  9.5000000000000D-01 -1.7032207118913D-01  1.7357742093696D+00
97  9.6000000000000D-01 -1.9379055926638D-01  1.7145555412337D+00
98  9.7000000000000D-01 -2.1489453677652D-01  1.6881150416127D+00
99  9.8000000000000D-01 -2.3362250191557D-01  1.6565640712750D+00
100  9.9000000000000D-01 -2.4997709857034D-01  1.6200514455142D+00
101  1.0000000000000D+00 -2.6397501010587D-01  1.5787627729102D+00
102  1.0100000000000D+00 -2.7564673664825D-01  1.5329194257245D+00
103  1.0200000000000D+00 -2.8503625707674D-01  1.4827771462947D+00
104  1.0300000000000D+00 -2.9220057808281D-01  1.4286242977380D+00
105  1.0400000000000D+00 -2.9720917381086D-01  1.3707797712750D+00
106  1.0500000000000D+00 -3.0014332071373D-01  1.3095905663560D+00
107  1.0600000000000D+00 -3.0109533337209D-01  1.2454290636333D+00
108  1.0700000000000D+00 -3.0016770793830D-01  1.1786900139806D+00
109  1.0800000000000D+00 -2.9747218094885D-01  1.1097872705082D+00
110  1.0900000000000D+00 -2.9312871201337D-01  1.0391502931623D+00
111  1.1000000000000D+00 -2.8726439969360D-01  9.6722045826856D-01
112  1.1100000000000D+00 -2.8001234053940D-01  8.9444720762429D-01
113  1.1200000000000D+00 -2.7151044176845D-01  8.2128407351360D-01
114  1.1300000000000D+00 -2.6190019857589D-01  7.4818461770201D-01
115  1.1400000000000D+00 -2.5132544729578D-01  6.7559832323244D-01
116  1.1500000000000D+00 -2.3993110580538D-01  6.0396647835026D-01
117  1.1600000000000D+00 -2.2786191265101D-01  5.3371809213393D-01
118  1.1700000000000D+00 -2.1526117624236D-01  4.6526588082097D-01
119  1.1800000000000D+00 -2.0226954520330D-01  3.9900236282618D-01
120  1.1900000000000D+00 -1.8902381061712D-01  3.3529609910997D-01
121  1.2000000000000D+00 -1.7565575051632D-01  2.7448811409007D-01
122  1.2100000000000D+00 -1.6229102620115D-01  2.1688852945157D-01
123  1.2200000000000D+00 -1.4904813913126D-01  1.6277344012713D-01
124  1.2300000000000D+00 -1.3603745686487D-01  1.1238206071306D-01
125  1.2400000000000D+00 -1.2336031490562D-01  6.5914164679302D-02
126  1.2500000000000D+00 -1.1110820047674D-01  2.3527835681067D-02
127  1.2600000000000D+00 -9.9362023131124D-02 -1.4662454438163D-02
128  1.2700000000000D+00 -8.8191478264026D-02 -4.8587418617147D-02
129  1.2800000000000D+00 -7.7654491787707D-02 -7.8224238175018D-02
130  1.2900000000000D+00 -6.7796838471621D-02 -1.0359713258283D-01
131  1.3000000000000D+00 -5.8651661418021D-02 -1.2477848416504D-01
132  1.3100000000000D+00 -5.0239176477881D-02 -1.4188923885166D-01
133  1.3200000000000D+00 -4.2567911552974D-02 -1.5509189628018D-01
134  1.3300000000000D+00 -3.5636117868915D-02 -1.6458329792813D-01
135  1.3400000000000D+00 -2.9433592015615D-02 -1.7058596658042D-01
136  1.3500000000000D+00 -2.3942116126242D-02 -1.7334643272404D-01
137  1.3600000000000D+00 -1.9136122090169D-02 -1.7313263013768D-01
138  1.3700000000000D+00 -1.4983515452942D-02 -1.7023054403987D-01
139  1.3800000000000D+00 -1.1446499459866D-02 -1.6494097431997D-01
140  1.3900000000000D+00 -8.4824577086902D-03 -1.5757608085462D-01
141  1.4000000000000D+00 -6.0448708230916D-03 -1.4845582482131D-01
142  1.4100000000000D+00 -4.0842595164386D-03 -1.3790432854517D-01
143  1.4200000000000D+00 -2.5491426831875D-03 -1.2624619622988D-01
144  1.4300000000000D+00 -1.3869992110782D-03 -1.1380283662792D-01
145  1.4400000000000D+00 -5.4522256166906D-04 -1.0088882744922D-01
146  1.4500000000000D+00  2.7943022033174D-05 -8.7808361960539D-02
147  1.4600000000000D+00  3.8249562507016D-04 -7.4851817569246D-02
148  1.4700000000000D+00  5.6580785492297D-04 -6.2292481869053D-02
149  1.4800000000000D+00  6.2180966342373D-04 -5.0383478105988D-02
150  1.4900000000000D+00  5.9022867588448D-04 -3.9354915028906D-02
151  1.5000000000000D+00  5.0590004947794D-04 -2.9411304840962D-02
152  1.5100000000000D+00  3.9828967186433D-04 -2.0733899753130D-02
153  1.5200000000000D+00  2.9038276615210D-04 -1.3459434310161D-02
154  1.5300000000000D+00  1.9727543216076D-04 -7.6681900083801D-03
155  1.5400000000000D+00  1.3383707469747D-04 -3.5475175694905D-03
156  1.5500000000000D+00  1.0872162425192D-04 -1.2191638150457D-03
157  1.5600000000000D+00  8.9241974729410D-05 -2.4807539602093D-04
158  1.5700000000000D+00  4.0144152337861D-05  1.1740579036844D-05
159  1.5800000000000D+00 -2.9032908840455D-06 -4.0219890273392D-06
160  1.5900000000000D+00 -7.7880931370060D-06 -1.6876273172426D-05
161  1.6000000000000D+00  9.3881539753852D-07  7.6543110154978D-07
162  1.6100000000000D+00  1.7153747212557D-06  1.8936975405247D-06
163  1.6200000000000D+00 -1.4202418208842D-07  3.9912686174725D-07
164  1.6300000000000D+00 -2.0472329986102D-07  5.7532856023911D-07
165  1.6400000000000D+00  0.0000000000000D+00  0.0000000000000D+00
166  1.6500000000000D+00  0.0000000000000D+00  0.0000000000000D+00
167  1.6600000000000D+00  0.0000000000000D+00  0.0000000000000D+00
168  1.6700000000000D+00  0.0000000000000D+00  0.0000000000000D+00
169  1.6800000000000D+00  0.0000000000000D+00  0.0000000000000D+00
170  1.6900000000000D+00  0.0000000000000D+00  0.0000000000000D+00
171  1.7000000000000D+00  0.0000000000000D+00  0.0000000000000D+00
172  1.7100000000000D+00  0.0000000000000D+00  0.0000000000000D+00
173  1.7200000000000D+00  0.0000000000000D+00  0.0000000000000D+00
174  1.7300000000000D+00  0.0000000000000D+00  0.0000000000000D+00
175  1.7400000000000D+00  0.0000000000000D+00  0.0000000000000D+00
176  1.7500000000000D+00  0.0000000000000D+00  0.0000000000000D+00
177  1.7600000000000D+00  0.0000000000000D+00  0.0000000000000D+00
178  1.7700000000000D+00  0.0000000000000D+00  0.0000000000000D+00
179  1.7800000000000D+00  0.0000000000000D+00  0.0000000000000D+00
180  1.7900000000000D+00  0.0000000000000D+00  0.0000000000000D+00
181  1.8000000000000D+00  0.0000000000000D+00  0.0000000000000D+00
182  1.8100000000000D+00  0.0000000000000D+00  0.0000000000000D+00
183  1.8200000000000D+00  0.0000000000000D+00  0.0000000000000D+00
184  1.8300000000000D+00  0.0000000000000D+00  0.0000000000000D+00
185  1.8400000000000D+00  0.0000000000000D+00  0.0000000000000D+00
186  1.8500000000000D+00  0.0000000000000D+00  0.0000000000000D+00
187  1.8600000000000D+00  0.0000000000000D+00  0.0000000000000D+00
188  1.8700000000000D+00  0.0000000000000D+00  0.0000000000000D+00
189  1.8800000000000D+00  0.0000000000000D+00  0.0000000000000D+00
190  1.8900000000000D+00  0.0000000000000D+00  0.0000000000000D+00
191  1.9000000000000D+00  0.0000000000000D+00  0.0000000000000D+00
192  1.9100000000000D+00  0.0000000000000D+00  0.0000000000000D+00
193  1.9200000000000D+00  0.0000000000000D+00  0.0000000000000D+00
194  1.9300000000000D+00  0.0000000000000D+00  0.0000000000000D+00
195  1.9400000000000D+00  0.0000000000000D+00  0.0000000000000D+00
196  1.9500000000000D+00  0.0000000000000D+00  0.0000000000000D+00
197  1.9600000000000D+00  0.0000000000000D+00  0.0000000000000D+00
198  1.9700000000000D+00  0.0000000000000D+00  0.0000000000000D+00
199  1.9800000000000D+00  0.0000000000000D+00  0.0000000000000D+00
200  1.9900000000000D+00  0.0000000000000D+00  0.0000000000000D+00
201  2.0000000000000D+00  0.0000000000000D+00  0.0000000000000D+00
202  2.0100000000000D+00  0.0000000000000D+00  0.0000000000000D+00
203  2.0200000000000D+00  0.0000000000000D+00  0.0000000000000D+00
204  2.0300000000000D+00  0.0000000000000D+00  0.0000000000000D+00
205  2.0400000000000D+00  0.0000000000000D+00  0.0000000000000D+00
206  2.0500000000000D+00  0.0000000000000D+00  0.0000000000000D+00
207  2.0600000000000D+00  0.0000000000000D+00  0.0000000000000D+00
208  2.0700000000000D+00  0.0000000000000D+00  0.0000000000000D+00
209  2.0800000000000D+00  0.0000000000000D+00  0.0000000000000D+00
210  2.0900000000000D+00  0.0000000000000D+00  0.0000000000000D+00
211  2.1000000000000D+00  0.0000000000000D+00  0.0000000000000D+00
212  2.1100000000000D+00  0.0000000000000D+00  0.0000000000000D+00
213  2.1200000000000D+00  0.0000000000000D+00  0.0000000000000D+00
214  2.1300000000000D+00  0.0000000000000D+00  0.0000000000000D+00
215  2.1400000000000D+00  0.0000000000000D+00  0.0000000000000D+00
216  2.1500000000000D+00  0.0000000000000D+00  0.0000000000000D+00
217  2.1600000000000D+00  0.0000000000000D+00  0.0000000000000D+00
218  2.1700000000000D+00  0.0000000000000D+00  0.0000000000000D+00
219  2.1800000000000D+00  0.0000000000000D+00  0.0000000000000D+00
220  2.1900000000000D+00  0.0000000000000D+00  0.0000000000000D+00
221  2.2000000000000D+00  0.0000000000000D+00  0.0000000000000D+00
222  2.2100000000000D+00  0.0000000000000D+00  0.0000000000000D+00
223  2.2200000000000D+00  0.0000000000000D+00  0.0000000000000D+00
224  2.2300000000000D+00  0.0000000000000D+00  0.0000000000000D+00
225  2.2400000000000D+00  0.0000000000000D+00  0.0000000000000D+00
226  2.2500000000000D+00  0.0000000000000D+00  0.0000000000000D+00
227  2.2600000000000D+00  0.0000000000000D+00  0.0000000000000D+00
228  2.2700000000000D+00  0.0000000000000D+00  0.0000000000000D+00
229  2.2800000000000D+00  0.0000000000000D+00  0.0000000000000D+00
230  2.2900000000000D+00  0.0000000000000D+00  0.0000000000000D+00
231  2.3000000000000D+00  0.0000000000000D+00  0.0000000000000D+00
232  2.3100000000000D+00  0.0000000000000D+00  0.0000000000000D+00
233  2.3200000000000D+00  0.0000000000000D+00  0.0000000000000D+00
234  2.3300000000000D+00  0.0000000000000D+00  0.0000000000000D+00
235  2.3400000000000D+00  0.0000000000000D+00  0.0000000000000D+00
236  2.3500000000000D+00  0.0000000000000D+00  0.0000000000000D+00
237  2.3600000000000D+00  0.0000000000000D+00  0.0000000000000D+00
238  2.3700000000000D+00  0.0000000000000D+00  0.0000000000000D+00
239  2.3800000000000D+00  0.0000000000000D+00  0.0000000000000D+00
240  2.3900000000000D+00  0.0000000000000D+00  0.0000000000000D+00
241  2.4000000000000D+00  0.0000000000000D+00  0.0000000000000D+00
242  2.4100000000000D+00  0.0000000000000D+00  0.0000000000000D+00
243  2.4200000000000D+00  0.0000000000000D+00  0.0000000000000D+00
244  2.4300000000000D+00  0.0000000000000D+00  0.0000000000000D+00
245  2.4400000000000D+00  0.0000000000000D+00  0.0000000000000D+00
246  2.4500000000000D+00  0.0000000000000D+00  0.0000000000000D+00
247  2.4600000000000D+00  0.0000000000000D+00  0.0000000000000D+00
248  2.4700000000000D+00  0.0000000000000D+00  0.0000000000000D+00
249  2.4800000000000D+00  0.0000000000000D+00  0.0000000000000D+00
250  2.4900000000000D+00  0.0000000000000D+00  0.0000000000000D+00
251  2.5000000000000D+00  0.0000000000000D+00  0.0000000000000D+00
252  2.5100000000000D+00  0.0000000000000D+00  0.0000000000000D+00
253  2.5200000000000D+00  0.0000000000000D+00  0.0000000000000D+00
254  2.5300000000000D+00  0.0000000000000D+00  0.0000000000000D+00
255  2.5400000000000D+00  0.0000000000000D+00  0.0000000000000D+00
256  2.5500000000000D+00  0.0000000000000D+00  0.0000000000000D+00
257  2.5600000000000D+00  0.0000000000000D+00  0.0000000000000D+00
258  2.5700000000000D+00  0.0000000000000D+00  0.0000000000000D+00
259  2.5800000000000D+00  0.0000000000000D+00  0.0000000000000D+00
260  2.5900000000000D+00  0.0000000000000D+00  0.0000000000000D+00
261  2.6000000000000D+00  0.0000000000000D+00  0.0000000000000D+00
262  2.6100000000000D+00  0.0000000000000D+00  0.0000000000000D+00
263  2.6200000000000D+00  0.0000000000000D+00  0.0000000000000D+00
264  2.6300000000000D+00  0.0000000000000D+00  0.0000000000000D+00
265  2.6400000000000D+00  0.0000000000000D+00  0.0000000000000D+00
266  2.6500000000000D+00  0.0000000000000D+00  0.0000000000000D+00
267  2.6600000000000D+00  0.0000000000000D+00  0.0000000000000D+00
268  2.6700000000000D+00  0.0000000000000D+00  0.0000000000000D+00
269  2.6800000000000D+00  0.0000000000000D+00  0.0000000000000D+00
270  2.6900000000000D+00  0.0000000000000D+00  0.0000000000000D+00
271  2.7000000000000D+00  0.0000000000000D+00  0.0000000000000D+00
272  2.7100000000000D+00  0.0000000000000D+00  0.0000000000000D+00
273  2.7200000000000D+00  0.0000000000000D+00  0.0000000000000D+00
274  2.7300000000000D+00  0.0000000000000D+00  0.0000000000000D+00
275  2.7400000000000D+00  0.0000000000000D+00  0.0000000000000D+00
276  2.7500000000000D+00  0.0000000000000D+00  0.0000000000000D+00
277  2.7600000000000D+00  0.0000000000000D+00  0.0000000000000D+00
278  2.7700000000000D+00  0.0000000000000D+00  0.0000000000000D+00
279  2.7800000000000D+00  0.0000000000000D+00  0.0000000000000D+00
280  2.7900000000000D+00  0.0000000000000D+00  0.0000000000000D+00
281  2.8000000000000D+00  0.0000000000000D+00  0.0000000000000D+00
282  2.8100000000000D+00  0.0000000000000D+00  0.0000000000000D+00
283  2.8200000000000D+00  0.0000000000000D+00  0.0000000000000D+00
284  2.8300000000000D+00  0.0000000000000D+00  0.0000000000000D+00
285  2.8400000000000D+00  0.0000000000000D+00  0.0000000000000D+00
286  2.8500000000000D+00  0.0000000000000D+00  0.0000000000000D+00
287  2.8600000000000D+00  0.0000000000000D+00  0.0000000000000D+00
288  2.8700000000000D+00  0.0000000000000D+00  0.0000000000000D+00
289  2.8800000000000D+00  0.0000000000000D+00  0.0000000000000D+00
290  2.8900000000000D+00  0.0000000000000D+00  0.0000000000000D+00
291  2.9000000000000D+00  0.0000000000000D+00  0.0000000000000D+00
292  2.9100000000000D+00  0.0000000000000D+00  0.0000000000000D+00
293  2.9200000000000D+00  0.0000000000000D+00  0.0000000000000D+00
294  2.9300000000000D+00  0.0000000000000D+00  0.0000000000000D+00
295  2.9400000000000D+00  0.0000000000000D+00  0.0000000000000D+00
296  2.9500000000000D+00  0.0000000000000D+00  0.0000000000000D+00
297  2.9600000000000D+00  0.0000000000000D+00  0.0000000000000D+00
298  2.9700000000000D+00  0.0000000000000D+00  0.0000000000000D+00
299  2.9800000000000D+00  0.0000000000000D+00  0.0000000000000D+00
300  2.9900000000000D+00  0.0000000000000D+00  0.0000000000000D+00
301  3.0000000000000D+00  0.0000000000000D+00  0.0000000000000D+00
302  3.0100000000000D+00  0.0000000000000D+00  0.0000000000000D+00
303  3.0200000000000D+00  0.0000000000000D+00  0.0000000000000D+00
304  3.0300000000000D+00  0.0000000000000D+00  0.0000000000000D+00
305  3.0400000000000D+00  0.0000000000000D+00  0.0000000000000D+00
306  3.0500000000000D+00  0.0000000000000D+00  0.0000000000000D+00
307  3.0600000000000D+00  0.0000000000000D+00  0.0000000000000D+00
308  3.0700000000000D+00  0.0000000000000D+00  0.0000000000000D+00
309  3.0800000000000D+00  0.0000000000000D+00  0.0000000000000D+00
310  3.0900000000000D+00  0.0000000000000D+00  0.0000000000000D+00
311  3.1000000000000D+00  0.0000000000000D+00  0.0000000000000D+00
312  3.1100000000000D+00  0.0000000000000D+00  0.0000000000000D+00
313  3.1200000000000D+00  0.0000000000000D+00  0.0000000000000D+00
314  3.1300000000000D+00  0.0000000000000D+00  0.0000000000000D+00
315  3.1400000000000D+00  0.0000000000000D+00  0.0000000000000D+00
316  3.1500000000000D+00  0.0000000000000D+00  0.0000000000000D+00
317  3.1600000000000D+00  0.0000000000000D+00  0.0000000000000D+00
318  3.1700000000000D+00  0.0000000000000D+00  0.0000000000000D+00
319  3.1800000000000D+00  0.0000000000000D+00  0.0000000000000D+00
320  3.1900000000000D+00  0.0000000000000D+00  0.0000000000000D+00
321  3.2000000000000D+00  0.0000000000000D+00  0.0000000000000D+00
322  3.2100000000000D+00  0.0000000000000D+00  0.0000000000000D+00
323  3.2200000000000D+00  0.0000000000000D+00  0.0000000000000D+00
324  3.2300000000000D+00  0.0000000000000D+00  0.0000000000000D+00
325  3.2400000000000D+00  0.0000000000000D+00  0.0000000000000D+00
326  3.2500000000000D+00  0.0000000000000D+00  0.0000000000000D+00
327  3.2600000000000D+00  0.0000000000000D+00  0.0000000000000D+00
328  3.2700000000000D+00  0.0000000000000D+00  0.0000000000000D+00
329  3.2800000000000D+00  0.0000000000000D+00  0.0000000000000D+00
330  3.2900000000000D+00  0.0000000000000D+00  0.0000000000000D+00
331  3.3000000000000D+00  0.0000000000000D+00  0.0000000000000D+00
332  3.3100000000000D+00  0.0000000000000D+00  0.0000000000000D+00
333  3.3200000000000D+00  0.0000000000000D+00  0.0000000000000D+00
334  3.3300000000000D+00  0.0000000000000D+00  0.0000000000000D+00
335  3.3400000000000D+00  0.0000000000000D+00  0.0000000000000D+00
336  3.3500000000000D+00  0.0000000000000D+00  0.0000000000000D+00
337  3.3600000000000D+00  0.0000000000000D+00  0.0000000000000D+00
338  3.3700000000000D+00  0.0000000000000D+00  0.0000000000000D+00
339  3.3800000000000D+00  0.0000000000000D+00  0.0000000000000D+00
340  3.3900000000000D+00  0.0000000000000D+00  0.0000000000000D+00
341  3.4000000000000D+00  0.0000000000000D+00  0.0000000000000D+00
342  3.4100000000000D+00  0.0000000000000D+00  0.0000000000000D+00
343  3.4200000000000D+00  0.0000000000000D+00  0.0000000000000D+00
344  3.4300000000000D+00  0.0000000000000D+00  0.0000000000000D+00
345  3.4400000000000D+00  0.0000000000000D+00  0.0000000000000D+00
346  3.4500000000000D+00  0.0000000000000D+00  0.0000000000000D+00
347  3.4600000000000D+00  0.0000000000000D+00  0.0000000000000D+00
348  3.4700000000000D+00  0.0000000000000D+00  0.0000000000000D+00
349  3.4800000000000D+00  0.0000000000000D+00  0.0000000000000D+00
350  3.4900000000000D+00  0.0000000000000D+00  0.0000000000000D+00
351  3.5000000000000D+00  0.0000000000000D+00  0.0000000000000D+00
352  3.5100000000000D+00  0.0000000000000D+00  0.0000000000000D+00
353  3.5200000000000D+00  0.0000000000000D+00  0.0000000000000D+00
354  3.5300000000000D+00  0.0000000000000D+00  0.0000000000000D+00
355  3.5400000000000D+00  0.0000000000000D+00  0.0000000000000D+00
356  3.5500000000000D+00  0.0000000000000D+00  0.0000000000000D+00
357  3.5600000000000D+00  0.0000000000000D+00  0.0000000000000D+00
358  3.5700000000000D+00  0.0000000000000D+00  0.0000000000000D+00
359  3.5800000000000D+00  0.0000000000000D+00  0.0000000000000D+00
360  3.5900000000000D+00  0.0000000000000D+00  0.0000000000000D+00
361  3.6000000000000D+00  0.0000000000000D+00  0.0000000000000D+00
362  3.6100000000000D+00  0.0000000000000D+00  0.0000000000000D+00
363  3.6200000000000D+00  0.0000000000000D+00  0.0000000000000D+00
364  3.6300000000000D+00  0.0000000000000D+00  0.0000000000000D+00
365  3.6400000000000D+00  0.0000000000000D+00  0.0000000000000D+00
366  3.6500000000000D+00  0.0000000000000D+00  0.0000000000000D+00
367  3.6600000000000D+00  0.0000000000000D+00  0.0000000000000D+00
368  3.6700000000000D+00  0.0000000000000D+00  0.0000000000000D+00
369  3.6800000000000D+00  0.0000000000000D+00  0.0000000000000D+00
370  3.6900000000000D+00  0.0000000000000D+00  0.0000000000000D+00
371  3.7000000000000D+00  0.0000000000000D+00  0.0000000000000D+00
372  3.7100000000000D+00  0.0000000000000D+00  0.0000000000000D+00
373  3.7200000000000D+00  0.0000000000000D+00  0.0000000000000D+00
374  3.7300000000000D+00  0.0000000000000D+00  0.0000000000000D+00
375  3.7400000000000D+00  0.0000000000000D+00  0.0000000000000D+00
376  3.7500000000000D+00  0.0000000000000D+00  0.0000000000000D+00
377  3.7600000000000D+00  0.0000000000000D+00  0.0000000000000D+00
378  3.7700000000000D+00  0.0000000000000D+00  0.0000000000000D+00
379  3.7800000000000D+00  0.0000000000000D+00  0.0000000000000D+00
380  3.7900000000000D+00  0.0000000000000D+00  0.0000000000000D+00
381  3.8000000000000D+00  0.0000000000000D+00  0.0000000000000D+00
382  3.8100000000000D+00  0.0000000000000D+00  0.0000000000000D+00
383  3.8200000000000D+00  0.0000000000000D+00  0.0000000000000D+00
384  3.8300000000000D+00  0.0000000000000D+00  0.0000000000000D+00
385  3.8400000000000D+00  0.0000000000000D+00  0.0000000000000D+00
386  3.8500000000000D+00  0.0000000000000D+00  0.0000000000000D+00
387  3.8600000000000D+00  0.0000000000000D+00  0.0000000000000D+00
388  3.8700000000000D+00  0.0000000000000D+00  0.0000000000000D+00
389  3.8800000000000D+00  0.0000000000000D+00  0.0000000000000D+00
390  3.8900000000000D+00  0.0000000000000D+00  0.0000000000000D+00
391  3.9000000000000D+00  0.0000000000000D+00  0.0000000000000D+00
392  3.9100000000000D+00  0.0000000000000D+00  0.0000000000000D+00
393  3.9200000000000D+00  0.0000000000000D+00  0.0000000000000D+00
394  3.9300000000000D+00  0.0000000000000D+00  0.0000000000000D+00
395  3.9400000000000D+00  0.0000000000000D+00  0.0000000000000D+00
396  3.9500000000000D+00  0.0000000000000D+00  0.0000000000000D+00
397  3.9600000000000D+00  0.0000000000000D+00  0.0000000000000D+00
398  3.9700000000000D+00  0.0000000000000D+00  0.0000000000000D+00
399  3.9800000000000D+00  0.0000000000000D+00  0.0000000000000D+00
400  3.9900000000000D+00  0.0000000000000D+00  0.0000000000000D+00
401  4.0000000000000D+00  0.0000000000000D+00  0.0000000000000D+00
402  4.0100000000000D+00  0.0000000000000D+00  0.0000000000000D+00
403  4.0200000000000D+00  0.0000000000000D+00  0.0000000000000D+00
404  4.0300000000000D+00  0.0000000000000D+00  0.0000000000000D+00
405  4.0400000000000D+00  0.0000000000000D+00  0.0000000000000D+00
406  4.0500000000000D+00  0.0000000000000D+00  0.0000000000000D+00
407  4.0600000000000D+00  0.0000000000000D+00  0.0000000000000D+00
408  4.0700000000000D+00  0.0000000000000D+00  0.0000000000000D+00
409  4.0800000000000D+00  0.0000000000000D+00  0.0000000000000D+00
410  4.0900000000000D+00  0.0000000000000D+00  0.0000000000000D+00
411  4.1000000000000D+00  0.0000000000000D+00  0.0000000000000D+00
412  4.1100000000000D+00  0.0000000000000D+00  0.0000000000000D+00
413  4.1200000000000D+00  0.0000000000000D+00  0.0000000000000D+00
414  4.1300000000000D+00  0.0000000000000D+00  0.0000000000000D+00
415  4.1400000000000D+00  0.0000000000000D+00  0.0000000000000D+00
416  4.1500000000000D+00  0.0000000000000D+00  0.0000000000000D+00
417  4.1600000000000D+00  0.0000000000000D+00  0.0000000000000D+00
418  4.1700000000000D+00  0.0000000000000D+00  0.0000000000000D+00
419  4.1800000000000D+00  0.0000000000000D+00  0.0000000000000D+00
420  4.1900000000000D+00  0.0000000000000D+00  0.0000000000000D+00
421  4.2000000000000D+00  0.0000000000000D+00  0.0000000000000D+00
422  4.2100000000000D+00  0.0000000000000D+00  0.0000000000000D+00
423  4.2200000000000D+00  0.0000000000000D+00  0.0000000000000D+00
424  4.2300000000000D+00  0.0000000000000D+00  0.0000000000000D+00
425  4.2400000000000D+00  0.0000000000000D+00  0.0000000000000D+00
426  4.2500000000000D+00  0.0000000000000D+00  0.0000000000000D+00
427  4.2600000000000D+00  0.0000000000000D+00  0.0000000000000D+00
428  4.2700000000000D+00  0.0000000000000D+00  0.0000000000000D+00
429  4.2800000000000D+00  0.0000000000000D+00  0.0000000000000D+00
430  4.2900000000000D+00  0.0000000000000D+00  0.0000000000000D+00
431  4.3000000000000D+00  0.0000000000000D+00  0.0000000000000D+00
432  4.3100000000000D+00  0.0000000000000D+00  0.0000000000000D+00
433  4.3200000000000D+00  0.0000000000000D+00  0.0000000000000D+00
434  4.3300000000000D+00  0.0000000000000D+00  0.0000000000000D+00
435  4.3400000000000D+00  0.0000000000000D+00  0.0000000000000D+00
436  4.3500000000000D+00  0.0000000000000D+00  0.0000000000000D+00
437  4.3600000000000D+00  0.0000000000000D+00  0.0000000000000D+00
438  4.3700000000000D+00  0.0000000000000D+00  0.0000000000000D+00
439  4.3800000000000D+00  0.0000000000000D+00  0.0000000000000D+00
440  4.3900000000000D+00  0.0000000000000D+00  0.0000000000000D+00
441  4.4000000000000D+00  0.0000000000000D+00  0.0000000000000D+00
442  4.4100000000000D+00  0.0000000000000D+00  0.0000000000000D+00
443  4.4200000000000D+00  0.0000000000000D+00  0.0000000000000D+00