Hf    ONCVPSP-3.3.0  r_core=   1.71613   1.71613   1.71613   2.42541
72.0000     12.0000      171114    zatom,zion,pspd
8   -1012   3     4   600     0    pspcod,pspxc,lmax,lloc,mmax,r2well
5.99000000  5.40000000  0.00000000    rchrg fchrg qchrg
2     2     2     2     0    nproj
1     1           extension_switch
0                         5.9661298650786D+00 -4.5676309906670D-01
1  0.0000000000000D+00  3.4546088212295D-11 -1.0626660662538D-09
2  1.0000000000000D-02  5.2637863597993D-02  5.4743718435416D-02
3  2.0000000000000D-02  1.0520913114626D-01  1.0916925898910D-01
4  3.0000000000000D-02  1.5764724669416D-01  1.6296105104214D-01
5  4.0000000000000D-02  2.0988573517450D-01  2.1580871239123D-01
6  5.0000000000000D-02  2.6185824454945D-01  2.6740957845400D-01
7  6.0000000000000D-02  3.1349858997694D-01  3.1747115423191D-01
8  7.0000000000000D-02  3.6474080062985D-01  3.6571346454254D-01
9  8.0000000000000D-02  4.1551916976616D-01  4.1187127909565D-01
10  9.0000000000000D-02  4.6576830860543D-01  4.5569619029519D-01
11  1.0000000000000D-01  5.1542320451696D-01  4.9695852318863D-01
12  1.1000000000000D-01  5.6441928396808D-01  5.3544905874008D-01
13  1.2000000000000D-01  6.1269248061739D-01  5.7098055355609D-01
14  1.3000000000000D-01  6.6017930886838D-01  6.0338904132341D-01
15  1.4000000000000D-01  7.0681694312474D-01  6.3253490350314D-01
16  1.5000000000000D-01  7.5254330290983D-01  6.5830369924368D-01
17  1.6000000000000D-01  7.9729714393072D-01  6.8060674699854D-01
18  1.7000000000000D-01  8.4101815508245D-01  6.9938145294055D-01
19  1.8000000000000D-01  8.8364706130151D-01  7.1459138392190D-01
20  1.9000000000000D-01  9.2512573209051D-01  7.2622608541443D-01
21  2.0000000000000D-01  9.6539729544815D-01  7.3430064754624D-01
22  2.1000000000000D-01  1.0044062568530D+00  7.3885502500342D-01
23  2.2000000000000D-01  1.0420986228647D+00  7.3995311915934D-01
24  2.3000000000000D-01  1.0784220288245D+00  7.3768163330331D-01
25  2.4000000000000D-01  1.1133258700605D+00  7.3214871423710D-01
26  2.5000000000000D-01  1.1467614359267D+00  7.2348239576839D-01
27  2.6000000000000D-01  1.1786820459412D+00  7.1182886172813D-01
28  2.7000000000000D-01  1.2090431872229D+00  6.9735054805466D-01
29  2.8000000000000D-01  1.2378026523731D+00  6.8022410519704D-01
30  2.9000000000000D-01  1.2649206769011D+00  6.6063824357822D-01
31  3.0000000000000D-01  1.2903600752518D+00  6.3879148610621D-01
32  3.1000000000000D-01  1.3140863744631D+00  6.1488985271599D-01
33  3.2000000000000D-01  1.3360679444594D+00  5.8914450265455D-01
34  3.3000000000000D-01  1.3562761239716D+00  5.6176936067792D-01
35  3.4000000000000D-01  1.3746853410756D+00  5.3297875350476D-01
36  3.5000000000000D-01  1.3912732273412D+00  5.0298508276621D-01
37  3.6000000000000D-01  1.4060207246055D+00  4.7199656030282D-01
38  3.7000000000000D-01  1.4189121834050D+00  4.4021503099111D-01
39  3.8000000000000D-01  1.4299354521385D+00  4.0783390734034D-01
40  3.9000000000000D-01  1.4390819560775D+00  3.7503623889307D-01
41  4.0000000000000D-01  1.4463467653911D+00  3.4199293800099D-01
42  4.1000000000000D-01  1.4517286514177D+00  3.0886118184795D-01
43  4.2000000000000D-01  1.4552301304833D+00  2.7578300866768D-01
44  4.3000000000000D-01  1.4568574946430D+00  2.4288412397695D-01
45  4.4000000000000D-01  1.4566208288090D+00  2.1027293033574D-01
46  4.5000000000000D-01  1.4545340138159D+00  1.7803979167869D-01
47  4.6000000000000D-01  1.4506147150694D+00  1.4625654065989D-01
48  4.7000000000000D-01  1.4448843565271D+00  1.1497623474748D-01
49  4.8000000000000D-01  1.4373680798605D+00  8.4233164017760D-02
50  4.9000000000000D-01  1.4280946887535D+00  5.4043110765051D-02
51  5.0000000000000D-01  1.4170965784027D+00  2.4403858190006D-02
52  5.1000000000000D-01  1.4044096503902D+00 -4.7040574131459D-03
53  5.2000000000000D-01  1.3900732132088D+00 -3.3316359348318D-02
54  5.3000000000000D-01  1.3741298688258D+00 -6.1483819196127D-02
55  5.4000000000000D-01  1.3566253857760D+00 -8.9270835211343D-02
56  5.5000000000000D-01  1.3376085593748D+00 -1.1675381666606D-01
57  5.6000000000000D-01  1.3171310597386D+00 -1.4401939270399D-01
58  5.7000000000000D-01  1.2952472683926D+00 -1.7116246641916D-01
59  5.8000000000000D-01  1.2720141043297D+00 -1.9828413681862D-01
60  5.9000000000000D-01  1.2474908404626D+00 -2.2548951303359D-01
61  6.0000000000000D-01  1.2217389114838D+00 -2.5288544660598D-01
62  6.1000000000000D-01  1.1948217142087D+00 -2.8057820885912D-01
63  6.2000000000000D-01  1.1668044015312D+00 -3.0867114126724D-01
64  6.3000000000000D-01  1.1377536711660D+00 -3.3726230733847D-01
65  6.4000000000000D-01  1.1077375503844D+00 -3.6644217482509D-01
66  6.5000000000000D-01  1.0768251779765D+00 -3.9629135705508D-01
67  6.6000000000000D-01  1.0450865846853D+00 -4.2687844184997D-01
68  6.7000000000000D-01  1.0125924733599D+00 -4.5825793584165D-01
69  6.8000000000000D-01  9.7941400007005D-01 -4.9046835104107D-01
70  6.9000000000000D-01  9.4562255740410D-01 -5.2353045924866D-01
71  7.0000000000000D-01  9.1128956114478D-01 -5.5744573833478D-01
72  7.1000000000000D-01  8.7648624147806D-01 -5.9219503257687D-01
73  7.2000000000000D-01  8.4128343984238D-01 -6.2773744713797D-01
74  7.3000000000000D-01  8.0575141246760D-01 -6.6400949441669D-01
75  7.4000000000000D-01  7.6995964158684D-01 -7.0092450743996D-01
76  7.5000000000000D-01  7.3397665522963D-01 -7.3837233268524D-01
77  7.6000000000000D-01  6.9786985642321D-01 -7.7621931179348D-01
78  7.7000000000000D-01  6.6170536254038D-01 -8.1430855855173D-01
79  7.8000000000000D-01  6.2554785543823D-01 -8.5246053433809D-01
80  7.9000000000000D-01  5.8946044293337D-01 -8.9047392195919D-01
81  8.0000000000000D-01  5.5350453205655D-01 -9.2812679450551D-01
82  8.1000000000000D-01  5.1773971442430D-01 -9.6517807253502D-01
83  8.2000000000000D-01  4.8222366395805D-01 -1.0013692596134D+00
84  8.3000000000000D-01  4.4701204707336D-01 -1.0364264430159D+00
85  8.4000000000000D-01  4.1215844535452D-01 -1.0700625432687D+00
86  8.5000000000000D-01  3.7771429062360D-01 -1.1019797932163D+00
87  8.6000000000000D-01  3.4372881220967D-01 -1.1318724244772D+00
88  8.7000000000000D-01  3.1024899612383D-01 -1.1594295365150D+00
89  8.8000000000000D-01  2.7731955574996D-01 -1.1843381211543D+00
90  8.9000000000000D-01  2.4498291357121D-01 -1.2062862132205D+00
91  9.0000000000000D-01  2.1327919336794D-01 -1.2249661361195D+00
92  9.1000000000000D-01  1.8224622224676D-01 -1.2400778096141D+00
93  9.2000000000000D-01  1.5191954179068D-01 -1.2513320858161D+00
94  9.3000000000000D-01  1.2233242756044D-01 -1.2584540785181D+00
95  9.4000000000000D-01  9.3515916125697D-02 -1.2611864504562D+00
96  9.5000000000000D-01  6.5498838762942D-02 -1.2592926229156D+00
97  9.6000000000000D-01  3.8307860925363D-02 -1.2525598722959D+00
98  9.7000000000000D-01  1.1967526568174D-02 -1.2408022788228D+00
99  9.8000000000000D-01 -1.3499693598149D-02 -1.2238634935397D+00
100  9.9000000000000D-01 -3.8073350855172D-02 -1.2016192910207D+00
101  1.0000000000000D+00 -6.1734965142508D-02 -1.1739798769618D+00
102  1.0100000000000D+00 -8.4467970541992D-02 -1.1408919217311D+00
103  1.0200000000000D+00 -1.0625766044865D-01 -1.1023402934014D+00
104  1.0300000000000D+00 -1.2709113325791D-01 -1.0583494663978D+00
105  1.0400000000000D+00 -1.4695723935026D-01 -1.0089845848349D+00
106  1.0500000000000D+00 -1.6584653009784D-01 -9.5435216278778D-01
107  1.0600000000000D+00 -1.8375120954900D-01 -8.9460040734562D-01
108  1.0700000000000D+00 -2.0066508938381D-01 -8.2991915347611D-01
109  1.0800000000000D+00 -2.1658354764454D-01 -7.6053940403835D-01
110  1.0900000000000D+00 -2.3150349166866D-01 -6.8673247181924D-01
111  1.1000000000000D+00 -2.4542332556123D-01 -6.0880872459454D-01
112  1.1100000000000D+00 -2.5834292244992D-01 -5.2711593831100D-01
113  1.1200000000000D+00 -2.7026360168367D-01 -4.4203726705670D-01
114  1.1300000000000D+00 -2.8118811102332D-01 -3.5398884320550D-01
115  1.1400000000000D+00 -2.9112061379136D-01 -2.6341702444055D-01
116  1.1500000000000D+00 -3.0006668084210D-01 -1.7079530860421D-01
117  1.1600000000000D+00 -3.0803328714364D-01 -7.6620940094387D-02
118  1.1700000000000D+00 -3.1502881264320D-01  1.8588763862441D-02
119  1.1800000000000D+00 -3.2106304702174D-01  1.1430033633255D-01
120  1.1900000000000D+00 -3.2614719786236D-01  2.0996829948207D-01
121  1.2000000000000D+00 -3.3029390168448D-01  3.0503948275504D-01
122  1.2100000000000D+00 -3.3351723721642D-01  3.9895748144988D-01
123  1.2200000000000D+00 -3.3583274022809D-01  4.9116721519853D-01
124  1.2300000000000D+00 -3.3725741921051D-01  5.8111954464933D-01
125  1.2400000000000D+00 -3.3780977111317D-01  6.6827590259590D-01
126  1.2500000000000D+00 -3.3750979634544D-01  7.5211289607389D-01
127  1.2600000000000D+00 -3.3637901222187D-01  8.3212683525037D-01
128  1.2700000000000D+00 -3.3444046400493D-01  9.0783814485471D-01
129  1.2800000000000D+00 -3.3171873271928D-01  9.7879561548011D-01
130  1.2900000000000D+00 -3.2823993890426D-01  1.0445804519468D+00
131  1.3000000000000D+00 -3.2403174148891D-01  1.1048100778091D+00
132  1.3100000000000D+00 -3.1912333104093D-01  1.1591416585983D+00
133  1.3200000000000D+00 -3.1354541661832D-01  1.2072753053877D+00
134  1.3300000000000D+00 -3.0733020554705D-01  1.2489569255945D+00
135  1.3400000000000D+00 -3.0051137555023D-01  1.2839806926599D+00
136  1.3500000000000D+00 -2.9312403857044D-01  1.3121911024667D+00
137  1.3600000000000D+00 -2.8520469589992D-01  1.3334845976006D+00
138  1.3700000000000D+00 -2.7679118420324D-01  1.3478107387942D+00
139  1.3800000000000D+00 -2.6792261204799D-01  1.3551729047412D+00
140  1.3900000000000D+00 -2.5863928688080D-01  1.3556285160436D+00
141  1.4000000000000D+00 -2.4898263219259D-01  1.3492887702494D+00
142  1.4100000000000D+00 -2.3899509493669D-01  1.3363178895494D+00
143  1.4200000000000D+00 -2.2872004336502D-01  1.3169318869134D+00
144  1.4300000000000D+00 -2.1820165529318D-01  1.2913968498895D+00
145  1.4400000000000D+00 -2.0748479737315D-01  1.2600267661059D+00
146  1.4500000000000D+00 -1.9661489555058D-01  1.2231808969456D+00
147  1.4600000000000D+00 -1.8563779737544D-01  1.1812607273575D+00
148  1.4700000000000D+00 -1.7459962678609D-01  1.1347065174532D+00
149  1.4800000000000D+00 -1.6354663193912D-01  1.0839934796898D+00
150  1.4900000000000D+00 -1.5252502715975D-01  1.0296276267889D+00
151  1.5000000000000D+00 -1.4158082957213D-01  9.7214131363295D-01
152  1.5100000000000D+00 -1.3075969169354D-01  9.1208852717089D-01
153  1.5200000000000D+00 -1.2010673077961D-01  8.5003995726554D-01
154  1.5300000000000D+00 -1.0966635616087D-01  7.8657790061205D-01
155  1.5400000000000D+00 -9.9482095633179D-02  7.2229104231417D-01
156  1.5500000000000D+00 -8.9596422098320D-02  6.5776916535797D-01
157  1.5600000000000D+00 -8.0050581644100D-02  5.9359783791556D-01
158  1.5700000000000D+00 -7.0884424304710D-02  5.3035313054974D-01
159  1.5800000000000D+00 -6.2136238631358D-02  4.6859641080623D-01
160  1.5900000000000D+00 -5.3842591435204D-02  4.0886927228993D-01
161  1.6000000000000D+00 -4.6038173654927D-02  3.5168863835201D-01
162  1.6100000000000D+00 -3.8755653785044D-02  2.9754210054211D-01
163  1.6200000000000D+00 -3.2025539647123D-02  2.4688352492213D-01
164  1.6300000000000D+00 -2.5876049893414D-02  2.0012898445273D-01
165  1.6400000000000D+00 -2.0332995885702D-02  1.5765304481267D-01
166  1.6500000000000D+00 -1.5419675183902D-02  1.1978545544799D-01
167  1.6600000000000D+00 -1.1158620804562D-02  8.6822673326399D-02
168  1.6700000000000D+00 -7.5650152607576D-03  5.8974626727007D-02
169  1.6800000000000D+00 -4.6404612064418D-03  3.6311554122170D-02
170  1.6900000000000D+00 -2.4191884078262D-03  1.9135016514301D-02
171  1.7000000000000D+00 -9.5936610874518D-04  7.9201933904909D-03
172  1.7100000000000D+00 -2.0054480654799D-04  2.1240436864103D-03
173  1.7200000000000D+00  5.9844074403507D-05  2.5599574680964D-06
174  1.7300000000000D+00  5.1996461773502D-05 -2.2447177526776D-04
175  1.7400000000000D+00 -1.3403351387708D-05  6.6174538318364D-05
176  1.7500000000000D+00 -1.9918218040557D-05  1.0497740554135D-04
177  1.7600000000000D+00  1.7416803702740D-06 -7.7548210733831D-06
178  1.7700000000000D+00  4.0054471838879D-06 -1.8662876220329D-05
179  1.7800000000000D+00 -2.1494836886217D-09 -3.4185420975118D-07
180  1.7900000000000D+00 -9.1408402627911D-09 -1.4537606128577D-06
181  1.8000000000000D+00 -3.0399963730817D-12 -4.8348148128200D-10
182  1.8100000000000D+00  0.0000000000000D+00  0.0000000000000D+00
183  1.8200000000000D+00  0.0000000000000D+00  0.0000000000000D+00
184  1.8300000000000D+00  0.0000000000000D+00  0.0000000000000D+00
185  1.8400000000000D+00  0.0000000000000D+00  0.0000000000000D+00
186  1.8500000000000D+00  0.0000000000000D+00  0.0000000000000D+00
187  1.8600000000000D+00  0.0000000000000D+00  0.0000000000000D+00
188  1.8700000000000D+00  0.0000000000000D+00  0.0000000000000D+00
189  1.8800000000000D+00  0.0000000000000D+00  0.0000000000000D+00
190  1.8900000000000D+00  0.0000000000000D+00  0.0000000000000D+00
191  1.9000000000000D+00  0.0000000000000D+00  0.0000000000000D+00
192  1.9100000000000D+00  0.0000000000000D+00  0.0000000000000D+00
193  1.9200000000000D+00  0.0000000000000D+00  0.0000000000000D+00
194  1.9300000000000D+00  0.0000000000000D+00  0.0000000000000D+00
195  1.9400000000000D+00  0.0000000000000D+00  0.0000000000000D+00
196  1.9500000000000D+00  0.0000000000000D+00  0.0000000000000D+00
197  1.9600000000000D+00  0.0000000000000D+00  0.0000000000000D+00
198  1.9700000000000D+00  0.0000000000000D+00  0.0000000000000D+00
199  1.9800000000000D+00  0.0000000000000D+00  0.0000000000000D+00
200  1.9900000000000D+00  0.0000000000000D+00  0.0000000000000D+00
201  2.0000000000000D+00  0.0000000000000D+00  0.0000000000000D+00
202  2.0100000000000D+00  0.0000000000000D+00  0.0000000000000D+00
203  2.0200000000000D+00  0.0000000000000D+00  0.0000000000000D+00
204  2.0300000000000D+00  0.0000000000000D+00  0.0000000000000D+00
205  2.0400000000000D+00  0.0000000000000D+00  0.0000000000000D+00
206  2.0500000000000D+00  0.0000000000000D+00  0.0000000000000D+00
207  2.0600000000000D+00  0.0000000000000D+00  0.0000000000000D+00
208  2.0700000000000D+00  0.0000000000000D+00  0.0000000000000D+00
209  2.0800000000000D+00  0.0000000000000D+00  0.0000000000000D+00
210  2.0900000000000D+00  0.0000000000000D+00  0.0000000000000D+00
211  2.1000000000000D+00  0.0000000000000D+00  0.0000000000000D+00
212  2.1100000000000D+00  0.0000000000000D+00  0.0000000000000D+00
213  2.1200000000000D+00  0.0000000000000D+00  0.0000000000000D+00
214  2.1300000000000D+00  0.0000000000000D+00  0.0000000000000D+00
215  2.1400000000000D+00  0.0000000000000D+00  0.0000000000000D+00
216  2.1500000000000D+00  0.0000000000000D+00  0.0000000000000D+00
217  2.1600000000000D+00  0.0000000000000D+00  0.0000000000000D+00
218  2.1700000000000D+00  0.0000000000000D+00  0.0000000000000D+00
219  2.1800000000000D+00  0.0000000000000D+00  0.0000000000000D+00
220  2.1900000000000D+00  0.0000000000000D+00  0.0000000000000D+00
221  2.2000000000000D+00  0.0000000000000D+00  0.0000000000000D+00
222  2.2100000000000D+00  0.0000000000000D+00  0.0000000000000D+00
223  2.2200000000000D+00  0.0000000000000D+00  0.0000000000000D+00
224  2.2300000000000D+00  0.0000000000000D+00  0.0000000000000D+00
225  2.2400000000000D+00  0.0000000000000D+00  0.0000000000000D+00
226  2.2500000000000D+00  0.0000000000000D+00  0.0000000000000D+00
227  2.2600000000000D+00  0.0000000000000D+00  0.0000000000000D+00
228  2.2700000000000D+00  0.0000000000000D+00  0.0000000000000D+00
229  2.2800000000000D+00  0.0000000000000D+00  0.0000000000000D+00
230  2.2900000000000D+00  0.0000000000000D+00  0.0000000000000D+00
231  2.3000000000000D+00  0.0000000000000D+00  0.0000000000000D+00
232  2.3100000000000D+00  0.0000000000000D+00  0.0000000000000D+00
233  2.3200000000000D+00  0.0000000000000D+00  0.0000000000000D+00
234  2.3300000000000D+00  0.0000000000000D+00  0.0000000000000D+00
235  2.3400000000000D+00  0.0000000000000D+00  0.0000000000000D+00
236  2.3500000000000D+00  0.0000000000000D+00  0.0000000000000D+00
237  2.3600000000000D+00  0.0000000000000D+00  0.0000000000000D+00
238  2.3700000000000D+00  0.0000000000000D+00  0.0000000000000D+00
239  2.3800000000000D+00  0.0000000000000D+00  0.0000000000000D+00
240  2.3900000000000D+00  0.0000000000000D+00  0.0000000000000D+00
241  2.4000000000000D+00  0.0000000000000D+00  0.0000000000000D+00
242  2.4100000000000D+00  0.0000000000000D+00  0.0000000000000D+00
243  2.4200000000000D+00  0.0000000000000D+00  0.0000000000000D+00
244  2.4300000000000D+00  0.0000000000000D+00  0.0000000000000D+00
245  2.4400000000000D+00  0.0000000000000D+00  0.0000000000000D+00
246  2.4500000000000D+00  0.0000000000000D+00  0.0000000000000D+00
247  2.4600000000000D+00  0.0000000000000D+00  0.0000000000000D+00
248  2.4700000000000D+00  0.0000000000000D+00  0.0000000000000D+00
249  2.4800000000000D+00  0.0000000000000D+00  0.0000000000000D+00
250  2.4900000000000D+00  0.0000000000000D+00  0.0000000000000D+00
251  2.5000000000000D+00  0.0000000000000D+00  0.0000000000000D+00
252  2.5100000000000D+00  0.0000000000000D+00  0.0000000000000D+00
253  2.5200000000000D+00  0.0000000000000D+00  0.0000000000000D+00
254  2.5300000000000D+00  0.0000000000000D+00  0.0000000000000D+00
255  2.5400000000000D+00  0.0000000000000D+00  0.0000000000000D+00
256  2.5500000000000D+00  0.0000000000000D+00  0.0000000000000D+00
257  2.5600000000000D+00  0.0000000000000D+00  0.0000000000000D+00
258  2.5700000000000D+00  0.0000000000000D+00  0.0000000000000D+00
259  2.5800000000000D+00  0.0000000000000D+00  0.0000000000000D+00
260  2.5900000000000D+00  0.0000000000000D+00  0.0000000000000D+00
261  2.6000000000000D+00  0.0000000000000D+00  0.0000000000000D+00
262  2.6100000000000D+00  0.0000000000000D+00  0.0000000000000D+00
263  2.6200000000000D+00  0.0000000000000D+00  0.0000000000000D+00
264  2.6300000000000D+00  0.0000000000000D+00  0.0000000000000D+00
265  2.6400000000000D+00  0.0000000000000D+00  0.0000000000000D+00
266  2.6500000000000D+00  0.0000000000000D+00  0.0000000000000D+00
267  2.6600000000000D+00  0.0000000000000D+00  0.0000000000000D+00
268  2.6700000000000D+00  0.0000000000000D+00  0.0000000000000D+00
269  2.6800000000000D+00  0.0000000000000D+00  0.0000000000000D+00
270  2.6900000000000D+00  0.0000000000000D+00  0.0000000000000D+00
271  2.7000000000000D+00  0.0000000000000D+00  0.0000000000000D+00
272  2.7100000000000D+00  0.0000000000000D+00  0.0000000000000D+00
273  2.7200000000000D+00  0.0000000000000D+00  0.0000000000000D+00
274  2.7300000000000D+00  0.0000000000000D+00  0.0000000000000D+00
275  2.7400000000000D+00  0.0000000000000D+00  0.0000000000000D+00
276  2.7500000000000D+00  0.0000000000000D+00  0.0000000000000D+00
277  2.7600000000000D+00  0.0000000000000D+00  0.0000000000000D+00
278  2.7700000000000D+00  0.0000000000000D+00  0.0000000000000D+00
279  2.7800000000000D+00  0.0000000000000D+00  0.0000000000000D+00
280  2.7900000000000D+00  0.0000000000000D+00  0.0000000000000D+00
281  2.8000000000000D+00  0.0000000000000D+00  0.0000000000000D+00
282  2.8100000000000D+00  0.0000000000000D+00  0.0000000000000D+00
283  2.8200000000000D+00  0.0000000000000D+00  0.0000000000000D+00
284  2.8300000000000D+00  0.0000000000000D+00  0.0000000000000D+00
285  2.8400000000000D+00  0.0000000000000D+00  0.0000000000000D+00
286  2.8500000000000D+00  0.0000000000000D+00  0.0000000000000D+00
287  2.8600000000000D+00  0.0000000000000D+00  0.0000000000000D+00
288  2.8700000000000D+00  0.0000000000000D+00  0.0000000000000D+00
289  2.8800000000000D+00  0.0000000000000D+00  0.0000000000000D+00
290  2.8900000000000D+00  0.0000000000000D+00  0.0000000000000D+00
291  2.9000000000000D+00  0.0000000000000D+00  0.0000000000000D+00
292  2.9100000000000D+00  0.0000000000000D+00  0.0000000000000D+00
293  2.9200000000000D+00  0.0000000000000D+00  0.0000000000000D+00
294  2.9300000000000D+00  0.0000000000000D+00  0.0000000000000D+00
295  2.9400000000000D+00  0.0000000000000D+00  0.0000000000000D+00
296  2.9500000000000D+00  0.0000000000000D+00  0.0000000000000D+00
297  2.9600000000000D+00  0.0000000000000D+00  0.0000000000000D+00
298  2.9700000000000D+00  0.0000000000000D+00  0.0000000000000D+00
299  2.9800000000000D+00  0.0000000000000D+00  0.0000000000000D+00
300  2.9900000000000D+00  0.0000000000000D+00  0.0000000000000D+00
301  3.0000000000000D+00  0.0000000000000D+00  0.0000000000000D+00
302  3.0100000000000D+00  0.0000000000000D+00  0.0000000000000D+00
303  3.0200000000000D+00  0.0000000000000D+00  0.0000000000000D+00
304  3.0300000000000D+00  0.0000000000000D+00  0.0000000000000D+00
305  3.0400000000000D+00  0.0000000000000D+00  0.0000000000000D+00
306  3.0500000000000D+00  0.0000000000000D+00  0.0000000000000D+00
307  3.0600000000000D+00  0.0000000000000D+00  0.0000000000000D+00
308  3.0700000000000D+00  0.0000000000000D+00  0.0000000000000D+00
309  3.0800000000000D+00  0.0000000000000D+00  0.0000000000000D+00
310  3.0900000000000D+00  0.0000000000000D+00  0.0000000000000D+00
311  3.1000000000000D+00  0.0000000000000D+00  0.0000000000000D+00
312  3.1100000000000D+00  0.0000000000000D+00  0.0000000000000D+00
313  3.1200000000000D+00  0.0000000000000D+00  0.0000000000000D+00
314  3.1300000000000D+00  0.0000000000000D+00  0.0000000000000D+00
315  3.1400000000000D+00  0.0000000000000D+00  0.0000000000000D+00
316  3.1500000000000D+00  0.0000000000000D+00  0.0000000000000D+00
317  3.1600000000000D+00  0.0000000000000D+00  0.0000000000000D+00
318  3.1700000000000D+00  0.0000000000000D+00  0.0000000000000D+00
319  3.1800000000000D+00  0.0000000000000D+00  0.0000000000000D+00
320  3.1900000000000D+00  0.0000000000000D+00  0.0000000000000D+00
321  3.2000000000000D+00  0.0000000000000D+00  0.0000000000000D+00
322  3.2100000000000D+00  0.0000000000000D+00  0.0000000000000D+00
323  3.2200000000000D+00  0.0000000000000D+00  0.0000000000000D+00
324  3.2300000000000D+00  0.0000000000000D+00  0.0000000000000D+00
325  3.2400000000000D+00  0.0000000000000D+00  0.0000000000000D+00
326  3.2500000000000D+00  0.0000000000000D+00  0.0000000000000D+00
327  3.2600000000000D+00  0.0000000000000D+00  0.0000000000000D+00
328  3.2700000000000D+00  0.0000000000000D+00  0.0000000000000D+00
329  3.2800000000000D+00  0.0000000000000D+00  0.0000000000000D+00
330  3.2900000000000D+00  0.0000000000000D+00  0.0000000000000D+00
331  3.3000000000000D+00  0.0000000000000D+00  0.0000000000000D+00
332  3.3100000000000D+00  0.0000000000000D+00  0.0000000000000D+00
333  3.3200000000000D+00  0.0000000000000D+00  0.0000000000000D+00
334  3.3300000000000D+00  0.0000000000000D+00  0.0000000000000D+00
335  3.3400000000000D+00  0.0000000000000D+00  0.0000000000000D+00
336  3.3500000000000D+00  0.0000000000000D+00  0.0000000000000D+00
337  3.3600000000000D+00  0.0000000000000D+00  0.0000000000000D+00
338  3.3700000000000D+00  0.0000000000000D+00  0.0000000000000D+00
339  3.3800000000000D+00  0.0000000000000D+00  0.0000000000000D+00
340  3.3900000000000D+00  0.0000000000000D+00  0.0000000000000D+00
341  3.4000000000000D+00  0.0000000000000D+00  0.0000000000000D+00
342  3.4100000000000D+00  0.0000000000000D+00  0.0000000000000D+00
343  3.4200000000000D+00  0.0000000000000D+00  0.0000000000000D+00
344  3.4300000000000D+00  0.0000000000000D+00  0.0000000000000D+00
345  3.4400000000000D+00  0.0000000000000D+00  0.0000000000000D+00
346  3.4500000000000D+00  0.0000000000000D+00  0.0000000000000D+00
347  3.4600000000000D+00  0.0000000000000D+00  0.0000000000000D+00
348  3.4700000000000D+00  0.0000000000000D+00  0.0000000000000D+00
349  3.4800000000000D+00  0.0000000000000D+00  0.0000000000000D+00
350  3.4900000000000D+00  0.0000000000000D+00  0.0000000000000D+00
351  3.5000000000000D+00  0.0000000000000D+00  0.0000000000000D+00
352  3.5100000000000D+00  0.0000000000000D+00  0.0000000000000D+00
353  3.5200000000000D+00  0.0000000000000D+00  0.0000000000000D+00
354  3.5300000000000D+00  0.0000000000000D+00  0.0000000000000D+00
355  3.5400000000000D+00  0.0000000000000D+00  0.0000000000000D+00
356  3.5500000000000D+00  0.0000000000000D+00  0.0000000000000D+00
357  3.5600000000000D+00  0.0000000000000D+00  0.0000000000000D+00
358  3.5700000000000D+00  0.0000000000000D+00  0.0000000000000D+00
359  3.5800000000000D+00  0.0000000000000D+00  0.0000000000000D+00
360  3.5900000000000D+00  0.0000000000000D+00  0.0000000000000D+00
361  3.6000000000000D+00  0.0000000000000D+00  0.0000000000000D+00
362  3.6100000000000D+00  0.0000000000000D+00  0.0000000000000D+00
363  3.6200000000000D+00  0.0000000000000D+00  0.0000000000000D+00
364  3.6300000000000D+00  0.0000000000000D+00  0.0000000000000D+00
365  3.6400000000000D+00  0.0000000000000D+00  0.0000000000000D+00
366  3.6500000000000D+00  0.0000000000000D+00  0.0000000000000D+00
367  3.6600000000000D+00  0.0000000000000D+00  0.0000000000000D+00
368  3.6700000000000D+00  0.0000000000000D+00  0.0000000000000D+00
369  3.6800000000000D+00  0.0000000000000D+00  0.0000000000000D+00
370  3.6900000000000D+00  0.0000000000000D+00  0.0000000000000D+00
371  3.7000000000000D+00  0.0000000000000D+00  0.0000000000000D+00
372  3.7100000000000D+00  0.0000000000000D+00  0.0000000000000D+00
373  3.7200000000000D+00  0.0000000000000D+00  0.0000000000000D+00
374  3.7300000000000D+00  0.0000000000000D+00  0.0000000000000D+00
375  3.7400000000000D+00  0.0000000000000D+00  0.0000000000000D+00
376  3.7500000000000D+00  0.0000000000000D+00  0.0000000000000D+00
377  3.7600000000000D+00  0.0000000000000D+00  0.0000000000000D+00
378  3.7700000000000D+00  0.0000000000000D+00  0.0000000000000D+00
379  3.7800000000000D+00  0.0000000000000D+00  0.0000000000000D+00
380  3.7900000000000D+00  0.0000000000000D+00  0.0000000000000D+00
381  3.8000000000000D+00  0.0000000000000D+00  0.0000000000000D+00
382  3.8100000000000D+00  0.0000000000000D+00  0.0000000000000D+00
383  3.8200000000000D+00  0.0000000000000D+00  0.0000000000000D+00
384  3.8300000000000D+00  0.0000000000000D+00  0.0000000000000D+00
385  3.8400000000000D+00  0.0000000000000D+00  0.0000000000000D+00
386  3.8500000000000D+00  0.0000000000000D+00  0.0000000000000D+00
387  3.8600000000000D+00  0.0000000000000D+00  0.0000000000000D+00
388  3.8700000000000D+00  0.0000000000000D+00  0.0000000000000D+00
389  3.8800000000000D+00  0.0000000000000D+00  0.0000000000000D+00
390  3.8900000000000D+00  0.0000000000000D+00  0.0000000000000D+00
391  3.9000000000000D+00  0.0000000000000D+00  0.0000000000000D+00
392  3.9100000000000D+00  0.0000000000000D+00  0.0000000000000D+00
393  3.9200000000000D+00  0.0000000000000D+00  0.0000000000000D+00
394  3.9300000000000D+00  0.0000000000000D+00  0.0000000000000D+00
395  3.9400000000000D+00  0.0000000000000D+00  0.0000000000000D+00
396  3.9500000000000D+00  0.0000000000000D+00  0.0000000000000D+00
397  3.9600000000000D+00  0.0000000000000D+00  0.0000000000000D+00
398  3.9700000000000D+00  0.0000000000000D+00  0.0000000000000D+00
399  3.9800000000000D+00  0.0000000000000D+00  0.0000000000000D+00
400  3.9900000000000D+00  0.0000000000000D+00  0.0000000000000D+00
401  4.0000000000000D+00  0.0000000000000D+00  0.0000000000000D+00
402  4.0100000000000D+00  0.0000000000000D+00  0.0000000000000D+00
403  4.0200000000000D+00  0.0000000000000D+00  0.0000000000000D+00
404  4.0300000000000D+00  0.0000000000000D+00  0.0000000000000D+00
405  4.0400000000000D+00  0.0000000000000D+00  0.0000000000000D+00
406  4.0500000000000D+00  0.0000000000000D+00  0.0000000000000D+00
407  4.0600000000000D+00  0.0000000000000D+00  0.0000000000000D+00
408  4.0700000000000D+00  0.0000000000000D+00  0.0000000000000D+00
409  4.0800000000000D+00  0.0000000000000D+00  0.0000000000000D+00
410  4.0900000000000D+00  0.0000000000000D+00  0.0000000000000D+00
411  4.1000000000000D+00  0.0000000000000D+00  0.0000000000000D+00
412  4.1100000000000D+00  0.0000000000000D+00  0.0000000000000D+00
413  4.1200000000000D+00  0.0000000000000D+00  0.0000000000000D+00
414  4.1300000000000D+00  0.0000000000000D+00  0.0000000000000D+00
415  4.1400000000000D+00  0.0000000000000D+00  0.0000000000000D+00
416  4.1500000000000D+00  0.0000000000000D+00  0.0000000000000D+00
417  4.1600000000000D+00  0.0000000000000D+00  0.0000000000000D+00
418  4.1700000000000D+00  0.0000000000000D+00  0.0000000000000D+00
419  4.1800000000000D+00  0.0000000000000D+00  0.0000000000000D+00
420  4.1900000000000D+00  0.0000000000000D+00  0.0000000000000D+00
421  4.2000000000000D+00  0.0000000000000D+00  0.0000000000000D+00
422  4.2100000000000D+00  0.0000000000000D+00  0.0000000000000D+00
423  4.2200000000000D+00  0.0000000000000D+00  0.0000000000000D+00
424  4.2300000000000D+00  0.0000000000000D+00  0.0000000000000D+00
425  4.2400000000000D+00  0.0000000000000D+00  0.0000000000000D+00
426  4.2500000000000D+00  0.0000000000000D+00  0.0000000000000D+00
427  4.2600000000000D+00  0.0000000000000D+00  0.0000000000000D+00
428  4.2700000000000D+00  0.0000000000000D+00  0.0000000000000D+00
429  4.2800000000000D+00  0.0000000000000D+00  0.0000000000000D+00
430  4.2900000000000D+00  0.0000000000000D+00  0.0000000000000D+00
431  4.3000000000000D+00  0.0000000000000D+00  0.0000000000000D+00
432  4.3100000000000D+00  0.0000000000000D+00  0.0000000000000D+00
433  4.3200000000000D+00  0.0000000000000D+00  0.0000000000000D+00
434  4.3300000000000D+00  0.0000000000000D+00  0.0000000000000D+00
435  4.3400000000000D+00  0.0000000000000D+00  0.0000000000000D+00
436  4.3500000000000D+00  0.0000000000000D+00  0.0000000000000D+00
437  4.3600000000000D+00  0.0000000000000D+00  0.0000000000000D+00
438  4.3700000000000D+00  0.0000000000000D+00  0.0000000000000D+00
439  4.3800000000000D+00  0.0000000000000D+00  0.0000000000000D+00
440  4.3900000000000D+00  0.0000000000000D+00  0.0000000000000D+00
441  4.4000000000000D+00  0.0000000000000D+00  0.0000000000000D+00
442  4.4100000000000D+00  0.0000000000000D+00  0.0000000000000D+00
443  4.4200000000000D+00  0.0000000000000D+00  0.0000000000000D+00