Hf    ONCVPSP-3.3.0  r_core=   1.55994   1.61677   1.40114   1.61677
72.0000     26.0000      180112    zatom,zion,pspd
8 -116133   3     4   600     0    pspcod,pspxc,lmax,lloc,mmax,r2well
5.99000000  3.00000000  0.00000000    rchrg fchrg qchrg
2     2     2     2     0    nproj
1     1           extension_switch
0                         1.3008396698255D+01  1.4568985627776D+00
1  0.0000000000000D+00 -1.5024864685742D-10  7.0839520360799D-10
2  1.0000000000000D-02  4.9819349005016D-02 -2.1978037011943D-02
3  2.0000000000000D-02  9.9585040784081D-02 -4.3847365427090D-02
4  3.0000000000000D-02  1.4924354000511D-01 -6.5500245494368D-02
5  4.0000000000000D-02  1.9874155285404D-01 -8.6830861569545D-02
6  5.0000000000000D-02  2.4802614215830D-01 -1.0773625038959D-01
7  6.0000000000000D-02  2.9704483585598D-01 -1.2811718932090D-01
8  7.0000000000000D-02  3.4574572677124D-01 -1.4787903208081D-01
9  8.0000000000000D-02  3.9407756180691D-01 -1.6693248014010D-01
10  9.0000000000000D-02  4.4198981884942D-01 -1.8519427888384D-01
11  1.0000000000000D-01  4.8943276989635D-01 -2.0258782862828D-01
12  1.1000000000000D-01  5.3635752916120D-01 -2.1904370175027D-01
13  1.2000000000000D-01  5.8271608517907D-01 -2.3450005846952D-01
14  1.3000000000000D-01  6.2846131622770D-01 -2.4890295521636D-01
15  1.4000000000000D-01  6.7354698868727D-01 -2.6220654100283D-01
16  1.5000000000000D-01  7.1792773828389D-01 -2.7437313877368D-01
17  1.6000000000000D-01  7.6155903449288D-01 -2.8537321032741D-01
18  1.7000000000000D-01  8.0439712871334D-01 -2.9518520504598D-01
19  1.8000000000000D-01  8.4639898715992D-01 -3.0379529433428D-01
20  1.9000000000000D-01  8.8752220974731D-01 -3.1119699532530D-01
21  2.0000000000000D-01  9.2772493656218D-01 -3.1739068903434D-01
22  2.1000000000000D-01  9.6696574382093D-01 -3.2238303972251D-01
23  2.2000000000000D-01  1.0052035314962D+00 -3.2618632373675D-01
24  2.3000000000000D-01  1.0423974050546D+00 -3.2881767750957D-01
25  2.4000000000000D-01  1.0785065539783D+00 -3.3029827570754D-01
26  2.5000000000000D-01  1.1134901299420D+00 -3.3065245169384D-01
27  2.6000000000000D-01  1.1473071276774D+00 -3.2990677350193D-01
28  2.7000000000000D-01  1.1799162716772D+00 -3.2808908938552D-01
29  2.8000000000000D-01  1.2112759119702D+00 -3.2522755770396D-01
30  2.9000000000000D-01  1.2413439322299D+00 -3.2134967640748D-01
31  3.0000000000000D-01  1.2700776734642D+00 -3.1648132769441D-01
32  3.1000000000000D-01  1.2974338764695D+00 -3.1064585351502D-01
33  3.2000000000000D-01  1.3233686461183D+00 -3.0386317748764D-01
34  3.3000000000000D-01  1.3478374403859D+00 -2.9614898847087D-01
35  3.4000000000000D-01  1.3707950868091D+00 -2.8751400049968D-01
36  3.5000000000000D-01  1.3921958288069D+00 -2.7796330304536D-01
37  3.6000000000000D-01  1.4119934039867D+00 -2.6749581460671D-01
38  3.7000000000000D-01  1.4301411562090D+00 -2.5610385148701D-01
39  3.8000000000000D-01  1.4465921827872D+00 -2.4377282227266D-01
40  3.9000000000000D-01  1.4612995177751D+00 -2.3048105701474D-01
41  4.0000000000000D-01  1.4742163518272D+00 -2.1619977844185D-01
42  4.1000000000000D-01  1.4852962886311D+00 -2.0089322071890D-01
43  4.2000000000000D-01  1.4944936373965D+00 -1.8451889933137D-01
44  4.3000000000000D-01  1.5017637403579D+00 -1.6702803364194D-01
45  4.4000000000000D-01  1.5070633337096D+00 -1.4836612155912D-01
46  4.5000000000000D-01  1.5103509398485D+00 -1.2847366360051D-01
47  4.6000000000000D-01  1.5115872882617D+00 -1.0728703145616D-01
48  4.7000000000000D-01  1.5107357618696D+00 -8.4739473983920D-02
49  4.8000000000000D-01  1.5077628651227D+00 -6.0762251430927D-02
50  4.9000000000000D-01  1.5026387096664D+00 -3.5285886599652D-02
51  5.0000000000000D-01  1.4953375129362D+00 -8.2415196918465D-03
52  5.1000000000000D-01  1.4858381046290D+00  2.0437648300501D-02
53  5.2000000000000D-01  1.4741244356322D+00  5.0814840506905D-02
54  5.3000000000000D-01  1.4601860836737D+00  8.2948135788468D-02
55  5.4000000000000D-01  1.4440187496996D+00  1.1688886679035D-01
56  5.5000000000000D-01  1.4256247387926D+00  1.5268000530883D-01
57  5.6000000000000D-01  1.4050134193179D+00  1.9035455673489D-01
58  5.7000000000000D-01  1.3822016539283D+00  2.2993398596564D-01
59  5.8000000000000D-01  1.3572141960850D+00  2.7142669753346D-01
60  5.9000000000000D-01  1.3300840458462D+00  3.1482659277607D-01
61  6.0000000000000D-01  1.3008527588558D+00  3.6011172664960D-01
62  6.1000000000000D-01  1.2695707027228D+00  4.0724308627228D-01
63  6.2000000000000D-01  1.2362972553178D+00  4.5616351246504D-01
64  6.3000000000000D-01  1.2011009399290D+00  5.0679678444819D-01
65  6.4000000000000D-01  1.1640594927073D+00  5.5904688644804D-01
66  6.5000000000000D-01  1.1252598583965D+00  6.1279747328301D-01
67  6.6000000000000D-01  1.0847981109654D+00  6.6791155006270D-01
68  6.7000000000000D-01  1.0427792964546D+00  7.2423137892982D-01
69  6.8000000000000D-01  9.9931719609186D-01  7.8157862336149D-01
70  6.9000000000000D-01  9.5453400852301D-01  8.3975473793348D-01
71  7.0000000000000D-01  9.0855995083543D-01  8.9854160865801D-01
72  7.1000000000000D-01  8.6153277891549D-01  9.5770244607657D-01
73  7.2000000000000D-01  8.1359722856230D-01  1.0169829302582D+00
74  7.3000000000000D-01  7.6490437967632D-01  1.0761126037411D+00
75  7.4000000000000D-01  7.1561094673218D-01  1.1348065053322D+00
76  7.5000000000000D-01  6.6587849963536D-01  1.1927670345274D+00
77  7.6000000000000D-01  6.1587261992185D-01  1.2496860332414D+00
78  7.7000000000000D-01  5.6576199809397D-01  1.3052470685342D+00
79  7.8000000000000D-01  5.1571747867441D-01  1.3591278971405D+00
80  7.9000000000000D-01  4.6591106029766D-01  1.4110030899033D+00
81  8.0000000000000D-01  4.1651485883137D-01  1.4605467916994D+00
82  8.1000000000000D-01  3.6770004212159D-01  1.5074355901767D+00
83  8.2000000000000D-01  3.1963574547534D-01  1.5513514646209D+00
84  8.3000000000000D-01  2.7248797742473D-01  1.5919847845756D+00
85  8.4000000000000D-01  2.2641852565112D-01  1.6290373264672D+00
86  8.5000000000000D-01  1.8158387317903D-01  1.6622252754757D+00
87  8.6000000000000D-01  1.3813413507430D-01  1.6912821792488D+00
88  8.7000000000000D-01  9.6212025894089D-02  1.7159618198055D+00
89  8.8000000000000D-01  5.5951868036789D-02  1.7360409701170D+00
90  8.9000000000000D-01  1.7478650925664D-02  1.7513220024059D+00
91  9.0000000000000D-01 -1.9092849369201D-02  1.7616353161610D+00
92  9.1000000000000D-01 -5.3658880902979D-02  1.7668415552087D+00
93  9.2000000000000D-01 -8.6127448406541D-02  1.7668335849363D+00
94  9.3000000000000D-01 -1.1641895965066D-01  1.7615382028778D+00
95  9.4000000000000D-01 -1.4446677841029D-01  1.7509175583406D+00
96  9.5000000000000D-01 -1.7021767765665D-01  1.7349702595596D+00
97  9.6000000000000D-01 -1.9363218752797D-01  1.7137321499603D+00
98  9.7000000000000D-01 -2.1468483362522D-01  1.6872767384815D+00
99  9.8000000000000D-01 -2.3336426223574D-01  1.6557152724979D+00
100  9.9000000000000D-01 -2.4967325019024D-01  1.6191964456515D+00
101  1.0000000000000D+00 -2.6362859822310D-01  1.5779057368872D+00
102  1.0100000000000D+00 -2.7526090782498D-01  1.5320643808398D+00
103  1.0200000000000D+00 -2.8461424280698D-01  1.4819279739564D+00
104  1.0300000000000D+00 -2.9174567794096D-01  1.4277847246931D+00
105  1.0400000000000D+00 -2.9672473819899D-01  1.3699533601321D+00
106  1.0500000000000D+00 -2.9963273323529D-01  1.3087807052424D+00
107  1.0600000000000D+00 -3.0056199287124D-01  1.2446389548756D+00
108  1.0700000000000D+00 -2.9961501025685D-01  1.1779226617500D+00
109  1.0800000000000D+00 -2.9690350046711D-01  1.1090454674309D+00
110  1.0900000000000D+00 -2.9254738305671D-01  1.0384366059581D+00
111  1.1000000000000D+00 -2.8667369790292D-01  9.6653721254944D-01
112  1.1100000000000D+00 -2.7941546432105D-01  8.9379647205385D-01
113  1.1200000000000D+00 -2.7091049395746D-01  8.2066764360484D-01
114  1.1300000000000D+00 -2.6130016846510D-01  7.4760399960697D-01
115  1.1400000000000D+00 -2.5072819320254D-01  6.7505471795651D-01
116  1.1500000000000D+00 -2.3933933836722D-01  6.0346076690423D-01
117  1.1600000000000D+00 -2.2727817906092D-01  5.3325082221784D-01
118  1.1700000000000D+00 -2.1468784565386D-01  4.6483725571480D-01
119  1.1800000000000D+00 -2.0170879555443D-01  3.9861223324224D-01
120  1.1900000000000D+00 -1.8847761714092D-01  3.3494395884001D-01
121  1.2000000000000D+00 -1.7512587622311D-01  2.7417310035708D-01
122  1.2100000000000D+00 -1.6177901463464D-01  2.1660942894834D-01
123  1.2200000000000D+00 -1.4855530971541D-01  1.6252870179186D-01
124  1.2300000000000D+00 -1.3556490317330D-01  1.1216981635853D-01
125  1.2400000000000D+00 -1.2290890619709D-01  6.5732258649063D-02
126  1.2500000000000D+00 -1.1067858685021D-01  2.3373864757304D-02
127  1.2600000000000D+00 -9.8954644670094D-02 -1.4791089570611D-02
128  1.2700000000000D+00 -8.7806578515375D-02 -4.8693449150541D-02
129  1.2800000000000D+00 -7.7292136102533D-02 -7.8310448163646D-02
130  1.2900000000000D+00 -6.7456936592000D-02 -1.0366626825244D-01
131  1.3000000000000D+00 -5.8333997142860D-02 -1.2483313902184D-01
132  1.3100000000000D+00 -4.9943443605454D-02 -1.4193171806969D-01
133  1.3200000000000D+00 -4.2293738349995D-02 -1.5512414538644D-01
134  1.3300000000000D+00 -3.5383079149504D-02 -1.6460689441757D-01
135  1.3400000000000D+00 -2.9201204864385D-02 -1.7060218843537D-01
136  1.3500000000000D+00 -2.3729837950573D-02 -1.7335631390669D-01
137  1.3600000000000D+00 -1.8943349351896D-02 -1.7313701043475D-01
138  1.3700000000000D+00 -1.4809582222322D-02 -1.7023011829942D-01
139  1.3800000000000D+00 -1.1290676616804D-02 -1.6493633700077D-01
140  1.3900000000000D+00 -8.3439528622286D-03 -1.5756776580117D-01
141  1.4000000000000D+00 -5.9228294054309D-03 -1.4844433830936D-01
142  1.4100000000000D+00 -3.9777670928868D-03 -1.3789017555350D-01
143  1.4200000000000D+00 -2.4572286413145D-03 -1.2622989933311D-01
144  1.4300000000000D+00 -1.3086416231180D-03 -1.1378494844390D-01
145  1.4400000000000D+00 -4.7935431402575D-04 -1.0086993627124D-01
146  1.4500000000000D+00  8.2426296710770D-05 -8.7789088229289D-02
147  1.4600000000000D+00  4.2672606163093D-04 -7.4832802284918D-02
148  1.4700000000000D+00  6.0093444858582D-04 -6.2274367526725D-02
149  1.4800000000000D+00  6.4898612183028D-04 -5.0366882833168D-02
150  1.4900000000000D+00  6.1060025029307D-04 -3.9340400790439D-02
151  1.5000000000000D+00  5.2058924414329D-04 -2.9399339177208D-02
152  1.5100000000000D+00  4.0838366623957D-04 -2.0724810029022D-02
153  1.5200000000000D+00  2.9690969779166D-04 -1.3453366577290D-02
154  1.5300000000000D+00  2.0116928525726D-04 -7.6650527721473D-03
155  1.5400000000000D+00  1.3601892702641D-04 -3.5469259938848D-03
156  1.5500000000000D+00  1.1008427652033D-04 -1.2204474241490D-03
157  1.5600000000000D+00  9.0183362134939D-05 -2.4999048580819D-04
158  1.5700000000000D+00  4.0540106843330D-05  1.0730021325898D-05
159  1.5800000000000D+00 -2.9311992617190D-06 -3.9455793301806D-06
160  1.5900000000000D+00 -7.8616681941778D-06 -1.6663878060399D-05
161  1.6000000000000D+00  9.4790371570969D-07  7.4157968755824D-07
162  1.6100000000000D+00  1.7318611213391D-06  1.8495731466218D-06
163  1.6200000000000D+00 -1.4352333873848D-07  4.0216954407936D-07
164  1.6300000000000D+00 -2.0688428605292D-07  5.7971448915838D-07
165  1.6400000000000D+00  0.0000000000000D+00  0.0000000000000D+00
166  1.6500000000000D+00  0.0000000000000D+00  0.0000000000000D+00
167  1.6600000000000D+00  0.0000000000000D+00  0.0000000000000D+00
168  1.6700000000000D+00  0.0000000000000D+00  0.0000000000000D+00
169  1.6800000000000D+00  0.0000000000000D+00  0.0000000000000D+00
170  1.6900000000000D+00  0.0000000000000D+00  0.0000000000000D+00
171  1.7000000000000D+00  0.0000000000000D+00  0.0000000000000D+00
172  1.7100000000000D+00  0.0000000000000D+00  0.0000000000000D+00
173  1.7200000000000D+00  0.0000000000000D+00  0.0000000000000D+00
174  1.7300000000000D+00  0.0000000000000D+00  0.0000000000000D+00
175  1.7400000000000D+00  0.0000000000000D+00  0.0000000000000D+00
176  1.7500000000000D+00  0.0000000000000D+00  0.0000000000000D+00
177  1.7600000000000D+00  0.0000000000000D+00  0.0000000000000D+00
178  1.7700000000000D+00  0.0000000000000D+00  0.0000000000000D+00
179  1.7800000000000D+00  0.0000000000000D+00  0.0000000000000D+00
180  1.7900000000000D+00  0.0000000000000D+00  0.0000000000000D+00
181  1.8000000000000D+00  0.0000000000000D+00  0.0000000000000D+00
182  1.8100000000000D+00  0.0000000000000D+00  0.0000000000000D+00
183  1.8200000000000D+00  0.0000000000000D+00  0.0000000000000D+00
184  1.8300000000000D+00  0.0000000000000D+00  0.0000000000000D+00
185  1.8400000000000D+00  0.0000000000000D+00  0.0000000000000D+00
186  1.8500000000000D+00  0.0000000000000D+00  0.0000000000000D+00
187  1.8600000000000D+00  0.0000000000000D+00  0.0000000000000D+00
188  1.8700000000000D+00  0.0000000000000D+00  0.0000000000000D+00
189  1.8800000000000D+00  0.0000000000000D+00  0.0000000000000D+00
190  1.8900000000000D+00  0.0000000000000D+00  0.0000000000000D+00
191  1.9000000000000D+00  0.0000000000000D+00  0.0000000000000D+00
192  1.9100000000000D+00  0.0000000000000D+00  0.0000000000000D+00
193  1.9200000000000D+00  0.0000000000000D+00  0.0000000000000D+00
194  1.9300000000000D+00  0.0000000000000D+00  0.0000000000000D+00
195  1.9400000000000D+00  0.0000000000000D+00  0.0000000000000D+00
196  1.9500000000000D+00  0.0000000000000D+00  0.0000000000000D+00
197  1.9600000000000D+00  0.0000000000000D+00  0.0000000000000D+00
198  1.9700000000000D+00  0.0000000000000D+00  0.0000000000000D+00
199  1.9800000000000D+00  0.0000000000000D+00  0.0000000000000D+00
200  1.9900000000000D+00  0.0000000000000D+00  0.0000000000000D+00
201  2.0000000000000D+00  0.0000000000000D+00  0.0000000000000D+00
202  2.0100000000000D+00  0.0000000000000D+00  0.0000000000000D+00
203  2.0200000000000D+00  0.0000000000000D+00  0.0000000000000D+00
204  2.0300000000000D+00  0.0000000000000D+00  0.0000000000000D+00
205  2.0400000000000D+00  0.0000000000000D+00  0.0000000000000D+00
206  2.0500000000000D+00  0.0000000000000D+00  0.0000000000000D+00
207  2.0600000000000D+00  0.0000000000000D+00  0.0000000000000D+00
208  2.0700000000000D+00  0.0000000000000D+00  0.0000000000000D+00
209  2.0800000000000D+00  0.0000000000000D+00  0.0000000000000D+00
210  2.0900000000000D+00  0.0000000000000D+00  0.0000000000000D+00
211  2.1000000000000D+00  0.0000000000000D+00  0.0000000000000D+00
212  2.1100000000000D+00  0.0000000000000D+00  0.0000000000000D+00
213  2.1200000000000D+00  0.0000000000000D+00  0.0000000000000D+00
214  2.1300000000000D+00  0.0000000000000D+00  0.0000000000000D+00
215  2.1400000000000D+00  0.0000000000000D+00  0.0000000000000D+00
216  2.1500000000000D+00  0.0000000000000D+00  0.0000000000000D+00
217  2.1600000000000D+00  0.0000000000000D+00  0.0000000000000D+00
218  2.1700000000000D+00  0.0000000000000D+00  0.0000000000000D+00
219  2.1800000000000D+00  0.0000000000000D+00  0.0000000000000D+00
220  2.1900000000000D+00  0.0000000000000D+00  0.0000000000000D+00
221  2.2000000000000D+00  0.0000000000000D+00  0.0000000000000D+00
222  2.2100000000000D+00  0.0000000000000D+00  0.0000000000000D+00
223  2.2200000000000D+00  0.0000000000000D+00  0.0000000000000D+00
224  2.2300000000000D+00  0.0000000000000D+00  0.0000000000000D+00
225  2.2400000000000D+00  0.0000000000000D+00  0.0000000000000D+00
226  2.2500000000000D+00  0.0000000000000D+00  0.0000000000000D+00
227  2.2600000000000D+00  0.0000000000000D+00  0.0000000000000D+00
228  2.2700000000000D+00  0.0000000000000D+00  0.0000000000000D+00
229  2.2800000000000D+00  0.0000000000000D+00  0.0000000000000D+00
230  2.2900000000000D+00  0.0000000000000D+00  0.0000000000000D+00
231  2.3000000000000D+00  0.0000000000000D+00  0.0000000000000D+00
232  2.3100000000000D+00  0.0000000000000D+00  0.0000000000000D+00
233  2.3200000000000D+00  0.0000000000000D+00  0.0000000000000D+00
234  2.3300000000000D+00  0.0000000000000D+00  0.0000000000000D+00
235  2.3400000000000D+00  0.0000000000000D+00  0.0000000000000D+00
236  2.3500000000000D+00  0.0000000000000D+00  0.0000000000000D+00
237  2.3600000000000D+00  0.0000000000000D+00  0.0000000000000D+00
238  2.3700000000000D+00  0.0000000000000D+00  0.0000000000000D+00
239  2.3800000000000D+00  0.0000000000000D+00  0.0000000000000D+00
240  2.3900000000000D+00  0.0000000000000D+00  0.0000000000000D+00
241  2.4000000000000D+00  0.0000000000000D+00  0.0000000000000D+00
242  2.4100000000000D+00  0.0000000000000D+00  0.0000000000000D+00
243  2.4200000000000D+00  0.0000000000000D+00  0.0000000000000D+00
244  2.4300000000000D+00  0.0000000000000D+00  0.0000000000000D+00
245  2.4400000000000D+00  0.0000000000000D+00  0.0000000000000D+00
246  2.4500000000000D+00  0.0000000000000D+00  0.0000000000000D+00
247  2.4600000000000D+00  0.0000000000000D+00  0.0000000000000D+00
248  2.4700000000000D+00  0.0000000000000D+00  0.0000000000000D+00
249  2.4800000000000D+00  0.0000000000000D+00  0.0000000000000D+00
250  2.4900000000000D+00  0.0000000000000D+00  0.0000000000000D+00
251  2.5000000000000D+00  0.0000000000000D+00  0.0000000000000D+00
252  2.5100000000000D+00  0.0000000000000D+00  0.0000000000000D+00
253  2.5200000000000D+00  0.0000000000000D+00  0.0000000000000D+00
254  2.5300000000000D+00  0.0000000000000D+00  0.0000000000000D+00
255  2.5400000000000D+00  0.0000000000000D+00  0.0000000000000D+00
256  2.5500000000000D+00  0.0000000000000D+00  0.0000000000000D+00
257  2.5600000000000D+00  0.0000000000000D+00  0.0000000000000D+00
258  2.5700000000000D+00  0.0000000000000D+00  0.0000000000000D+00
259  2.5800000000000D+00  0.0000000000000D+00  0.0000000000000D+00
260  2.5900000000000D+00  0.0000000000000D+00  0.0000000000000D+00
261  2.6000000000000D+00  0.0000000000000D+00  0.0000000000000D+00
262  2.6100000000000D+00  0.0000000000000D+00  0.0000000000000D+00
263  2.6200000000000D+00  0.0000000000000D+00  0.0000000000000D+00
264  2.6300000000000D+00  0.0000000000000D+00  0.0000000000000D+00
265  2.6400000000000D+00  0.0000000000000D+00  0.0000000000000D+00
266  2.6500000000000D+00  0.0000000000000D+00  0.0000000000000D+00
267  2.6600000000000D+00  0.0000000000000D+00  0.0000000000000D+00
268  2.6700000000000D+00  0.0000000000000D+00  0.0000000000000D+00
269  2.6800000000000D+00  0.0000000000000D+00  0.0000000000000D+00
270  2.6900000000000D+00  0.0000000000000D+00  0.0000000000000D+00
271  2.7000000000000D+00  0.0000000000000D+00  0.0000000000000D+00
272  2.7100000000000D+00  0.0000000000000D+00  0.0000000000000D+00
273  2.7200000000000D+00  0.0000000000000D+00  0.0000000000000D+00
274  2.7300000000000D+00  0.0000000000000D+00  0.0000000000000D+00
275  2.7400000000000D+00  0.0000000000000D+00  0.0000000000000D+00
276  2.7500000000000D+00  0.0000000000000D+00  0.0000000000000D+00
277  2.7600000000000D+00  0.0000000000000D+00  0.0000000000000D+00
278  2.7700000000000D+00  0.0000000000000D+00  0.0000000000000D+00
279  2.7800000000000D+00  0.0000000000000D+00  0.0000000000000D+00
280  2.7900000000000D+00  0.0000000000000D+00  0.0000000000000D+00
281  2.8000000000000D+00  0.0000000000000D+00  0.0000000000000D+00
282  2.8100000000000D+00  0.0000000000000D+00  0.0000000000000D+00
283  2.8200000000000D+00  0.0000000000000D+00  0.0000000000000D+00
284  2.8300000000000D+00  0.0000000000000D+00  0.0000000000000D+00
285  2.8400000000000D+00  0.0000000000000D+00  0.0000000000000D+00
286  2.8500000000000D+00  0.0000000000000D+00  0.0000000000000D+00
287  2.8600000000000D+00  0.0000000000000D+00  0.0000000000000D+00
288  2.8700000000000D+00  0.0000000000000D+00  0.0000000000000D+00
289  2.8800000000000D+00  0.0000000000000D+00  0.0000000000000D+00
290  2.8900000000000D+00  0.0000000000000D+00  0.0000000000000D+00
291  2.9000000000000D+00  0.0000000000000D+00  0.0000000000000D+00
292  2.9100000000000D+00  0.0000000000000D+00  0.0000000000000D+00
293  2.9200000000000D+00  0.0000000000000D+00  0.0000000000000D+00
294  2.9300000000000D+00  0.0000000000000D+00  0.0000000000000D+00
295  2.9400000000000D+00  0.0000000000000D+00  0.0000000000000D+00
296  2.9500000000000D+00  0.0000000000000D+00  0.0000000000000D+00
297  2.9600000000000D+00  0.0000000000000D+00  0.0000000000000D+00
298  2.9700000000000D+00  0.0000000000000D+00  0.0000000000000D+00
299  2.9800000000000D+00  0.0000000000000D+00  0.0000000000000D+00
300  2.9900000000000D+00  0.0000000000000D+00  0.0000000000000D+00
301  3.0000000000000D+00  0.0000000000000D+00  0.0000000000000D+00
302  3.0100000000000D+00  0.0000000000000D+00  0.0000000000000D+00
303  3.0200000000000D+00  0.0000000000000D+00  0.0000000000000D+00
304  3.0300000000000D+00  0.0000000000000D+00  0.0000000000000D+00
305  3.0400000000000D+00  0.0000000000000D+00  0.0000000000000D+00
306  3.0500000000000D+00  0.0000000000000D+00  0.0000000000000D+00
307  3.0600000000000D+00  0.0000000000000D+00  0.0000000000000D+00
308  3.0700000000000D+00  0.0000000000000D+00  0.0000000000000D+00
309  3.0800000000000D+00  0.0000000000000D+00  0.0000000000000D+00
310  3.0900000000000D+00  0.0000000000000D+00  0.0000000000000D+00
311  3.1000000000000D+00  0.0000000000000D+00  0.0000000000000D+00
312  3.1100000000000D+00  0.0000000000000D+00  0.0000000000000D+00
313  3.1200000000000D+00  0.0000000000000D+00  0.0000000000000D+00
314  3.1300000000000D+00  0.0000000000000D+00  0.0000000000000D+00
315  3.1400000000000D+00  0.0000000000000D+00  0.0000000000000D+00
316  3.1500000000000D+00  0.0000000000000D+00  0.0000000000000D+00
317  3.1600000000000D+00  0.0000000000000D+00  0.0000000000000D+00
318  3.1700000000000D+00  0.0000000000000D+00  0.0000000000000D+00
319  3.1800000000000D+00  0.0000000000000D+00  0.0000000000000D+00
320  3.1900000000000D+00  0.0000000000000D+00  0.0000000000000D+00
321  3.2000000000000D+00  0.0000000000000D+00  0.0000000000000D+00
322  3.2100000000000D+00  0.0000000000000D+00  0.0000000000000D+00
323  3.2200000000000D+00  0.0000000000000D+00  0.0000000000000D+00
324  3.2300000000000D+00  0.0000000000000D+00  0.0000000000000D+00
325  3.2400000000000D+00  0.0000000000000D+00  0.0000000000000D+00
326  3.2500000000000D+00  0.0000000000000D+00  0.0000000000000D+00
327  3.2600000000000D+00  0.0000000000000D+00  0.0000000000000D+00
328  3.2700000000000D+00  0.0000000000000D+00  0.0000000000000D+00
329  3.2800000000000D+00  0.0000000000000D+00  0.0000000000000D+00
330  3.2900000000000D+00  0.0000000000000D+00  0.0000000000000D+00
331  3.3000000000000D+00  0.0000000000000D+00  0.0000000000000D+00
332  3.3100000000000D+00  0.0000000000000D+00  0.0000000000000D+00
333  3.3200000000000D+00  0.0000000000000D+00  0.0000000000000D+00
334  3.3300000000000D+00  0.0000000000000D+00  0.0000000000000D+00
335  3.3400000000000D+00  0.0000000000000D+00  0.0000000000000D+00
336  3.3500000000000D+00  0.0000000000000D+00  0.0000000000000D+00
337  3.3600000000000D+00  0.0000000000000D+00  0.0000000000000D+00
338  3.3700000000000D+00  0.0000000000000D+00  0.0000000000000D+00
339  3.3800000000000D+00  0.0000000000000D+00  0.0000000000000D+00
340  3.3900000000000D+00  0.0000000000000D+00  0.0000000000000D+00
341  3.4000000000000D+00  0.0000000000000D+00  0.0000000000000D+00
342  3.4100000000000D+00  0.0000000000000D+00  0.0000000000000D+00
343  3.4200000000000D+00  0.0000000000000D+00  0.0000000000000D+00
344  3.4300000000000D+00  0.0000000000000D+00  0.0000000000000D+00
345  3.4400000000000D+00  0.0000000000000D+00  0.0000000000000D+00
346  3.4500000000000D+00  0.0000000000000D+00  0.0000000000000D+00
347  3.4600000000000D+00  0.0000000000000D+00  0.0000000000000D+00
348  3.4700000000000D+00  0.0000000000000D+00  0.0000000000000D+00
349  3.4800000000000D+00  0.0000000000000D+00  0.0000000000000D+00
350  3.4900000000000D+00  0.0000000000000D+00  0.0000000000000D+00
351  3.5000000000000D+00  0.0000000000000D+00  0.0000000000000D+00
352  3.5100000000000D+00  0.0000000000000D+00  0.0000000000000D+00
353  3.5200000000000D+00  0.0000000000000D+00  0.0000000000000D+00
354  3.5300000000000D+00  0.0000000000000D+00  0.0000000000000D+00
355  3.5400000000000D+00  0.0000000000000D+00  0.0000000000000D+00
356  3.5500000000000D+00  0.0000000000000D+00  0.0000000000000D+00
357  3.5600000000000D+00  0.0000000000000D+00  0.0000000000000D+00
358  3.5700000000000D+00  0.0000000000000D+00  0.0000000000000D+00
359  3.5800000000000D+00  0.0000000000000D+00  0.0000000000000D+00
360  3.5900000000000D+00  0.0000000000000D+00  0.0000000000000D+00
361  3.6000000000000D+00  0.0000000000000D+00  0.0000000000000D+00
362  3.6100000000000D+00  0.0000000000000D+00  0.0000000000000D+00
363  3.6200000000000D+00  0.0000000000000D+00  0.0000000000000D+00
364  3.6300000000000D+00  0.0000000000000D+00  0.0000000000000D+00
365  3.6400000000000D+00  0.0000000000000D+00  0.0000000000000D+00
366  3.6500000000000D+00  0.0000000000000D+00  0.0000000000000D+00
367  3.6600000000000D+00  0.0000000000000D+00  0.0000000000000D+00
368  3.6700000000000D+00  0.0000000000000D+00  0.0000000000000D+00
369  3.6800000000000D+00  0.0000000000000D+00  0.0000000000000D+00
370  3.6900000000000D+00  0.0000000000000D+00  0.0000000000000D+00
371  3.7000000000000D+00  0.0000000000000D+00  0.0000000000000D+00
372  3.7100000000000D+00  0.0000000000000D+00  0.0000000000000D+00
373  3.7200000000000D+00  0.0000000000000D+00  0.0000000000000D+00
374  3.7300000000000D+00  0.0000000000000D+00  0.0000000000000D+00
375  3.7400000000000D+00  0.0000000000000D+00  0.0000000000000D+00
376  3.7500000000000D+00  0.0000000000000D+00  0.0000000000000D+00
377  3.7600000000000D+00  0.0000000000000D+00  0.0000000000000D+00
378  3.7700000000000D+00  0.0000000000000D+00  0.0000000000000D+00
379  3.7800000000000D+00  0.0000000000000D+00  0.0000000000000D+00
380  3.7900000000000D+00  0.0000000000000D+00  0.0000000000000D+00
381  3.8000000000000D+00  0.0000000000000D+00  0.0000000000000D+00
382  3.8100000000000D+00  0.0000000000000D+00  0.0000000000000D+00
383  3.8200000000000D+00  0.0000000000000D+00  0.0000000000000D+00
384  3.8300000000000D+00  0.0000000000000D+00  0.0000000000000D+00
385  3.8400000000000D+00  0.0000000000000D+00  0.0000000000000D+00
386  3.8500000000000D+00  0.0000000000000D+00  0.0000000000000D+00
387  3.8600000000000D+00  0.0000000000000D+00  0.0000000000000D+00
388  3.8700000000000D+00  0.0000000000000D+00  0.0000000000000D+00
389  3.8800000000000D+00  0.0000000000000D+00  0.0000000000000D+00
390  3.8900000000000D+00  0.0000000000000D+00  0.0000000000000D+00
391  3.9000000000000D+00  0.0000000000000D+00  0.0000000000000D+00
392  3.9100000000000D+00  0.0000000000000D+00  0.0000000000000D+00
393  3.9200000000000D+00  0.0000000000000D+00  0.0000000000000D+00
394  3.9300000000000D+00  0.0000000000000D+00  0.0000000000000D+00
395  3.9400000000000D+00  0.0000000000000D+00  0.0000000000000D+00
396  3.9500000000000D+00  0.0000000000000D+00  0.0000000000000D+00
397  3.9600000000000D+00  0.0000000000000D+00  0.0000000000000D+00
398  3.9700000000000D+00  0.0000000000000D+00  0.0000000000000D+00
399  3.9800000000000D+00  0.0000000000000D+00  0.0000000000000D+00
400  3.9900000000000D+00  0.0000000000000D+00  0.0000000000000D+00
401  4.0000000000000D+00  0.0000000000000D+00  0.0000000000000D+00
402  4.0100000000000D+00  0.0000000000000D+00  0.0000000000000D+00
403  4.0200000000000D+00  0.0000000000000D+00  0.0000000000000D+00
404  4.0300000000000D+00  0.0000000000000D+00  0.0000000000000D+00
405  4.0400000000000D+00  0.0000000000000D+00  0.0000000000000D+00
406  4.0500000000000D+00  0.0000000000000D+00  0.0000000000000D+00
407  4.0600000000000D+00  0.0000000000000D+00  0.0000000000000D+00
408  4.0700000000000D+00  0.0000000000000D+00  0.0000000000000D+00
409  4.0800000000000D+00  0.0000000000000D+00  0.0000000000000D+00
410  4.0900000000000D+00  0.0000000000000D+00  0.0000000000000D+00
411  4.1000000000000D+00  0.0000000000000D+00  0.0000000000000D+00
412  4.1100000000000D+00  0.0000000000000D+00  0.0000000000000D+00
413  4.1200000000000D+00  0.0000000000000D+00  0.0000000000000D+00
414  4.1300000000000D+00  0.0000000000000D+00  0.0000000000000D+00
415  4.1400000000000D+00  0.0000000000000D+00  0.0000000000000D+00
416  4.1500000000000D+00  0.0000000000000D+00  0.0000000000000D+00
417  4.1600000000000D+00  0.0000000000000D+00  0.0000000000000D+00
418  4.1700000000000D+00  0.0000000000000D+00  0.0000000000000D+00
419  4.1800000000000D+00  0.0000000000000D+00  0.0000000000000D+00
420  4.1900000000000D+00  0.0000000000000D+00  0.0000000000000D+00
421  4.2000000000000D+00  0.0000000000000D+00  0.0000000000000D+00
422  4.2100000000000D+00  0.0000000000000D+00  0.0000000000000D+00
423  4.2200000000000D+00  0.0000000000000D+00  0.0000000000000D+00
424  4.2300000000000D+00  0.0000000000000D+00  0.0000000000000D+00
425  4.2400000000000D+00  0.0000000000000D+00  0.0000000000000D+00
426  4.2500000000000D+00  0.0000000000000D+00  0.0000000000000D+00
427  4.2600000000000D+00  0.0000000000000D+00  0.0000000000000D+00
428  4.2700000000000D+00  0.0000000000000D+00  0.0000000000000D+00
429  4.2800000000000D+00  0.0000000000000D+00  0.0000000000000D+00
430  4.2900000000000D+00  0.0000000000000D+00  0.0000000000000D+00
431  4.3000000000000D+00  0.0000000000000D+00  0.0000000000000D+00
432  4.3100000000000D+00  0.0000000000000D+00  0.0000000000000D+00
433  4.3200000000000D+00  0.0000000000000D+00  0.0000000000000D+00
434  4.3300000000000D+00  0.0000000000000D+00  0.0000000000000D+00
435  4.3400000000000D+00  0.0000000000000D+00  0.0000000000000D+00
436  4.3500000000000D+00  0.0000000000000D+00  0.0000000000000D+00
437  4.3600000000000D+00  0.0000000000000D+00  0.0000000000000D+00
438  4.3700000000000D+00  0.0000000000000D+00  0.0000000000000D+00
439  4.3800000000000D+00  0.0000000000000D+00  0.0000000000000D+00
440  4.3900000000000D+00  0.0000000000000D+00  0.0000000000000D+00
441  4.4000000000000D+00  0.0000000000000D+00  0.0000000000000D+00
442  4.4100000000000D+00  0.0000000000000D+00  0.0000000000000D+00
443  4.4200000000000D+00  0.0000000000000D+00  0.0000000000000D+00