Kr    ONCVPSP-3.3.0  r_core=   1.75984   1.50704   1.80233
36.0000      8.0000      171103    zatom,zion,pspd
8   -1012   2     4   600     0    pspcod,pspxc,lmax,lloc,mmax,r2well
5.99000000  7.00000000  0.00000000    rchrg fchrg qchrg
2     2     2     0     0    nproj
1     1           extension_switch
0                         8.4602138969507D+00  8.4705328424960D-01
1  0.0000000000000D+00 -9.1563645554515D-11  3.9237807447634D-10
2  1.0000000000000D-02  3.9011192274717D-02 -1.6803898295136D-02
3  2.0000000000000D-02  7.7982934084225D-02 -3.3517629101033D-02
4  3.0000000000000D-02  1.1687595232958D-01 -5.0051889851607D-02
5  4.0000000000000D-02  1.5565132653680D-01 -6.6319098159291D-02
6  5.0000000000000D-02  1.9427065992398D-01 -8.2234227835290D-02
7  6.0000000000000D-02  2.3269624423939D-01 -9.7715616307416D-02
8  7.0000000000000D-02  2.7089121640265D-01 -1.1268573436574D-01
9  8.0000000000000D-02  3.0881970507258D-01 -1.2707190955867D-01
10  9.0000000000000D-02  3.4644696537812D-01 -1.4080699504529D-01
11  1.0000000000000D-01  3.8373950018134D-01 -1.5382997627934D-01
12  1.1000000000000D-01  4.2066516639321D-01 -1.6608650855067D-01
13  1.2000000000000D-01  4.5719326503127D-01 -1.7752937913480D-01
14  1.3000000000000D-01  4.9329461389297D-01 -1.8811888859368D-01
15  1.4000000000000D-01  5.2894160191583D-01 -1.9782314662287D-01
16  1.5000000000000D-01  5.6410822450573D-01 -2.0661827874412D-01
17  1.6000000000000D-01  5.9877009933333D-01 -2.1448854108885D-01
18  1.7000000000000D-01  6.3290446232554D-01 -2.2142634149748D-01
19  1.8000000000000D-01  6.6649014381013D-01 -2.2743216616390D-01
20  1.9000000000000D-01  6.9950752500615D-01 -2.3251441207115D-01
21  2.0000000000000D-01  7.3193847528699D-01 -2.3668912648629D-01
22  2.1000000000000D-01  7.6376627087535D-01 -2.3997965579728D-01
23  2.2000000000000D-01  7.9497549585703D-01 -2.4241620697293D-01
24  2.3000000000000D-01  8.2555192662089D-01 -2.4403532589915D-01
25  2.4000000000000D-01  8.5548240104379D-01 -2.4487929777980D-01
26  2.5000000000000D-01  8.8475467393876D-01 -2.4499547567953D-01
27  2.6000000000000D-01  9.1335726047030D-01 -2.4443554412034D-01
28  2.7000000000000D-01  9.4127926941055D-01 -2.4325472541262D-01
29  2.8000000000000D-01  9.6851022826199D-01 -2.4151093709966D-01
30  2.9000000000000D-01  9.9503990240445D-01 -2.3926390951164D-01
31  3.0000000000000D-01  1.0208581105353D+00 -2.3657427295642D-01
32  3.1000000000000D-01  1.0459545387601D+00 -2.3350262451221D-01
33  3.2000000000000D-01  1.0703185557551D+00 -2.3010858472762D-01
34  3.3000000000000D-01  1.0939390314630D+00 -2.2644985477205D-01
35  3.4000000000000D-01  1.1168041617974D+00 -2.2258128471153D-01
36  3.5000000000000D-01  1.1389013018185D+00 -2.1855396360903D-01
37  3.6000000000000D-01  1.1602168098054D+00 -2.1441434206248D-01
38  3.7000000000000D-01  1.1807359045844D+00 -2.1020339759871D-01
39  3.8000000000000D-01  1.2004425383821D+00 -2.0595585303677D-01
40  3.9000000000000D-01  1.2193192873566D+00 -2.0169945752263D-01
41  4.0000000000000D-01  1.2373472618167D+00 -1.9745433942150D-01
42  4.1000000000000D-01  1.2545060379756D+00 -1.9323243963692D-01
43  4.2000000000000D-01  1.2707736128977D+00 -1.8903703321495D-01
44  4.3000000000000D-01  1.2861263840886D+00 -1.8486234628893D-01
45  4.4000000000000D-01  1.3005391549491D+00 -1.8069327453762D-01
46  4.5000000000000D-01  1.3139851670716D+00 -1.7650520836894D-01
47  4.6000000000000D-01  1.3264361600953D+00 -1.7226396901695D-01
48  4.7000000000000D-01  1.3378624595635D+00 -1.6792585865629D-01
49  4.8000000000000D-01  1.3482330929439D+00 -1.6343782650909D-01
50  4.9000000000000D-01  1.3575159336828D+00 -1.5873775175221D-01
51  5.0000000000000D-01  1.3656778728644D+00 -1.5375484284129D-01
52  5.1000000000000D-01  1.3726850177546D+00 -1.4841015166157D-01
53  5.2000000000000D-01  1.3785029162051D+00 -1.4261719970730D-01
54  5.3000000000000D-01  1.3830968056061D+00 -1.3628271229201D-01
55  5.4000000000000D-01  1.3864318847851D+00 -1.2930745561468D-01
56  5.5000000000000D-01  1.3884736069752D+00 -1.2158717036283D-01
57  5.6000000000000D-01  1.3891879917097D+00 -1.1301359443270D-01
58  5.7000000000000D-01  1.3885419532540D+00 -1.0347556630670D-01
59  5.8000000000000D-01  1.3865036429495D+00 -9.2860199649293D-02
60  5.9000000000000D-01  1.3830428026406D+00 -8.1054118788938D-02
61  6.0000000000000D-01  1.3781311261621D+00 -6.7944743940731D-02
62  6.1000000000000D-01  1.3717426257075D+00 -5.3421614315188D-02
63  6.2000000000000D-01  1.3638539997588D+00 -3.7377736649505D-02
64  6.3000000000000D-01  1.3544449991575D+00 -1.9710946204679D-02
65  6.4000000000000D-01  1.3434987878173D+00 -3.2526689734984D-04
66  6.5000000000000D-01  1.3310022945381D+00  2.0867743015034D-02
67  6.6000000000000D-01  1.3169465523687D+00  4.3947673398036D-02
68  6.7000000000000D-01  1.3013270219890D+00  6.8983986543925D-02
69  6.8000000000000D-01  1.2841438956406D+00  9.6034796861991D-02
70  6.9000000000000D-01  1.2654023782219D+00  1.2514571922184D-01
71  7.0000000000000D-01  1.2451129422920D+00  1.5634879880588D-01
72  7.1000000000000D-01  1.2232915538819D+00  1.8966153478073D-01
73  7.2000000000000D-01  1.1999598662027D+00  2.2508600942709D-01
74  7.3000000000000D-01  1.1751453785588D+00  2.6260813357161D-01
75  7.4000000000000D-01  1.1488815580252D+00  3.0219701825259D-01
76  7.5000000000000D-01  1.1212079217238D+00  3.4380448152999D-01
77  7.6000000000000D-01  1.0921700778343D+00  3.8736469822289D-01
78  7.7000000000000D-01  1.0618197238028D+00  4.3279399914464D-01
79  7.8000000000000D-01  1.0302146005521D+00  4.7999082510592D-01
80  7.9000000000000D-01  9.9741840186335D-01  5.2883583958801D-01
81  8.0000000000000D-01  9.6350063847046D-01  5.7919220256227D-01
82  8.1000000000000D-01  9.2853645679870D-01  6.3090600645970D-01
83  8.2000000000000D-01  8.9260641266989D-01  6.8380687379166D-01
84  8.3000000000000D-01  8.5579620069529D-01  7.3770871440230D-01
85  8.4000000000000D-01  8.1819634047416D-01  7.9241063880906D-01
86  8.5000000000000D-01  7.7990182110932D-01  8.4769802257638D-01
87  8.6000000000000D-01  7.4101170593746D-01  9.0334371518128D-01
88  8.7000000000000D-01  7.0162869974659D-01  9.5910938538490D-01
89  8.8000000000000D-01  6.6185868111339D-01  1.0147469937346D+00
90  8.9000000000000D-01  6.2181020283478D-01  1.0700003815011D+00
91  9.0000000000000D-01  5.8159396374848D-01  1.1246069641168D+00
92  9.1000000000000D-01  5.4132225553175D-01  1.1782995160420D+00
93  9.2000000000000D-01  5.0110838833517D-01  1.2308080329490D+00
94  9.3000000000000D-01  4.6106609934373D-01  1.2818616562025D+00
95  9.4000000000000D-01  4.2130894856073D-01  1.3311906438267D+00
96  9.5000000000000D-01  3.8194970627633D-01  1.3785283715032D+00
97  9.6000000000000D-01  3.4309973681235D-01  1.4236133466426D+00
98  9.7000000000000D-01  3.0486838322446D-01  1.4661912182240D+00
99  9.8000000000000D-01  2.6736235769274D-01  1.5060167649029D+00
100  9.9000000000000D-01  2.3068514233857D-01  1.5428558438615D+00
101  1.0000000000000D+00  1.9493640517260D-01  1.5764872830062D+00
102  1.0100000000000D+00  1.6021143580355D-01  1.6067046994054D+00
103  1.0200000000000D+00  1.2660060541736D-01  1.6333182273319D+00
104  1.0300000000000D+00  9.4188855379417D-02  1.6561561398805D+00
105  1.0400000000000D+00  6.3055218614258D-02  1.6750663489037D+00
106  1.0500000000000D+00  3.3272377674046D-02  1.6899177689521D+00
107  1.0600000000000D+00  4.9062631419639D-03  1.7006015319372D+00
108  1.0700000000000D+00 -2.1984304290730D-02  1.7070320404242D+00
109  1.0800000000000D+00 -4.7347925088374D-02  1.7091478488372D+00
110  1.0900000000000D+00 -7.1140882840469D-02  1.7069123632163D+00
111  1.1000000000000D+00 -9.3327354726270D-02  1.7003143518100D+00
112  1.1100000000000D+00 -1.1387956862844D-01  1.6893682602002D+00
113  1.1200000000000D+00 -1.3277790553229D-01  1.6741143265230D+00
114  1.1300000000000D+00 -1.5001094627780D-01  1.6546184940153D+00
115  1.1400000000000D+00 -1.6557546220957D-01  1.6309721199592D+00
116  1.1500000000000D+00 -1.7947634969156D-01  1.6032914817263D+00
117  1.1600000000000D+00 -1.9172650894823D-01  1.5717170825253D+00
118  1.1700000000000D+00 -2.0234666817678D-01  1.5364127613179D+00
119  1.1800000000000D+00 -2.1136515434540D-01  1.4975646131636D+00
120  1.1900000000000D+00 -2.1881761242223D-01  1.4553797275240D+00
121  1.2000000000000D+00 -2.2474667536650D-01  1.4100847542918D+00
122  1.2100000000000D+00 -2.2920158755936D-01  1.3619243086263D+00
123  1.2200000000000D+00 -2.3223778472335D-01  1.3111592270791D+00
124  1.2300000000000D+00 -2.3391643371159D-01  1.2580646887523D+00
125  1.2400000000000D+00 -2.3430393600051D-01  1.2029282169273D+00
126  1.2500000000000D+00 -2.3347139892474D-01  1.1460475773398D+00
127  1.2600000000000D+00 -2.3149407888109D-01  1.0877285899990D+00
128  1.2700000000000D+00 -2.2845080115046D-01  1.0282828729648D+00
129  1.2800000000000D+00 -2.2442336100186D-01  9.6802553650708D-01
130  1.2900000000000D+00 -2.1949591088705D-01  9.0727284662453D-01
131  1.3000000000000D+00 -2.1375433875302D-01  8.4633987757920D-01
132  1.3100000000000D+00 -2.0728564236943D-01  7.8553817255668D-01
133  1.3200000000000D+00 -2.0017730473285D-01  7.2517343219496D-01
134  1.3300000000000D+00 -1.9251667545684D-01  6.6554324990429D-01
135  1.3400000000000D+00 -1.8439036293867D-01  6.0693491244829D-01
136  1.3500000000000D+00 -1.7588364219330D-01  5.4962328458820D-01
137  1.3600000000000D+00 -1.6707988264950D-01  4.9386879402571D-01
138  1.3700000000000D+00 -1.5806000039423D-01  4.3991553371756D-01
139  1.3800000000000D+00 -1.4890193899501D-01  3.8798949705795D-01
140  1.3900000000000D+00 -1.3968018221875D-01  3.3829695808129D-01
141  1.4000000000000D+00 -1.3046530280327D-01  2.9102301228917D-01
142  1.4100000000000D+00 -1.2132354964539D-01  2.4633028626598D-01
143  1.4200000000000D+00 -1.1231647640337D-01  2.0435782690527D-01
144  1.4300000000000D+00 -1.0350061407213D-01  1.6522017920436D-01
145  1.4400000000000D+00 -9.4927188443832D-02  1.2900665489833D-01
146  1.4500000000000D+00 -8.6641885208058D-02  9.5780801689154D-02
147  1.4600000000000D+00 -7.8684661470168D-02  6.5580065131336D-02
148  1.4700000000000D+00 -7.1089610383379D-02  3.8415679017382D-02
149  1.4800000000000D+00 -6.3884857379158D-02  1.4272657121488D-02
150  1.4900000000000D+00 -5.7092558696035D-02 -6.8897069307885D-03
151  1.5000000000000D+00 -5.0728847788377D-02 -2.5137709418396D-02
152  1.5100000000000D+00 -4.4803835348735D-02 -4.0562918769073D-02
153  1.5200000000000D+00 -3.9322076646522D-02 -5.3279104762482D-02
154  1.5300000000000D+00 -3.4283028745764D-02 -6.3419426848300D-02
155  1.5400000000000D+00 -2.9681683435184D-02 -7.1132894534630D-02
156  1.5500000000000D+00 -2.5509051880506D-02 -7.6581795681985D-02
157  1.5600000000000D+00 -2.1752427127899D-02 -7.9940601512632D-02
158  1.5700000000000D+00 -1.8395797458850D-02 -8.1393998609598D-02
159  1.5800000000000D+00 -1.5420267845546D-02 -8.1134917835319D-02
160  1.5900000000000D+00 -1.2804492729931D-02 -7.9362548969155D-02
161  1.6000000000000D+00 -1.0525123839842D-02 -7.6280298415643D-02
162  1.6100000000000D+00 -8.5572656773904D-03 -7.2093728971674D-02
163  1.6200000000000D+00 -6.8749351044636D-03 -6.7008493165901D-02
164  1.6300000000000D+00 -5.4515198583788D-03 -6.1228282406761D-02
165  1.6400000000000D+00 -4.2602318089029D-03 -5.4952808855956D-02
166  1.6500000000000D+00 -3.2745494662897D-03 -4.8375842748229D-02
167  1.6600000000000D+00 -2.4686464919549D-03 -4.1683318246419D-02
168  1.6700000000000D+00 -1.8178002750274D-03 -3.5051532277281D-02
169  1.6800000000000D+00 -1.2987783895422D-03 -2.8645445115570D-02
170  1.6900000000000D+00 -8.9019671764129D-04 -2.2617108218564D-02
171  1.7000000000000D+00 -5.7281074557943D-04 -1.7105825515457D-02
172  1.7100000000000D+00 -3.2986551977867D-04 -1.2234447956571D-02
173  1.7200000000000D+00 -1.4806197847739D-04 -8.0880671173193D-03
174  1.7300000000000D+00 -1.6630849154210D-05 -4.7553903820987D-03
175  1.7400000000000D+00  7.8120441014938D-05 -2.4076101731146D-03
176  1.7500000000000D+00  1.4235087867458D-04 -1.0860447899549D-03
177  1.7600000000000D+00  1.4991828440949D-04 -4.5787227687833D-04
178  1.7700000000000D+00  8.3325611192935D-05 -1.4127681287572D-04
179  1.7800000000000D+00  5.9006018119805D-06 -6.8984118529689D-06
180  1.7900000000000D+00 -1.7273056904097D-05  1.6017326256263D-05
181  1.8000000000000D+00 -4.6431092684260D-06  3.3669476427932D-06
182  1.8100000000000D+00  3.6306185874918D-06 -4.9121491503325D-06
183  1.8200000000000D+00  1.8934215991936D-06 -2.3839435147069D-06
184  1.8300000000000D+00 -3.4862818756581D-07  1.0772872736150D-06
185  1.8400000000000D+00 -3.0240522776970D-07  9.3445485755357D-07
186  1.8500000000000D+00  0.0000000000000D+00  0.0000000000000D+00
187  1.8600000000000D+00  0.0000000000000D+00  0.0000000000000D+00
188  1.8700000000000D+00  0.0000000000000D+00  0.0000000000000D+00
189  1.8800000000000D+00  0.0000000000000D+00  0.0000000000000D+00
190  1.8900000000000D+00  0.0000000000000D+00  0.0000000000000D+00
191  1.9000000000000D+00  0.0000000000000D+00  0.0000000000000D+00
192  1.9100000000000D+00  0.0000000000000D+00  0.0000000000000D+00
193  1.9200000000000D+00  0.0000000000000D+00  0.0000000000000D+00
194  1.9300000000000D+00  0.0000000000000D+00  0.0000000000000D+00
195  1.9400000000000D+00  0.0000000000000D+00  0.0000000000000D+00
196  1.9500000000000D+00  0.0000000000000D+00  0.0000000000000D+00
197  1.9600000000000D+00  0.0000000000000D+00  0.0000000000000D+00
198  1.9700000000000D+00  0.0000000000000D+00  0.0000000000000D+00
199  1.9800000000000D+00  0.0000000000000D+00  0.0000000000000D+00
200  1.9900000000000D+00  0.0000000000000D+00  0.0000000000000D+00
201  2.0000000000000D+00  0.0000000000000D+00  0.0000000000000D+00
202  2.0100000000000D+00  0.0000000000000D+00  0.0000000000000D+00
203  2.0200000000000D+00  0.0000000000000D+00  0.0000000000000D+00
204  2.0300000000000D+00  0.0000000000000D+00  0.0000000000000D+00
205  2.0400000000000D+00  0.0000000000000D+00  0.0000000000000D+00
206  2.0500000000000D+00  0.0000000000000D+00  0.0000000000000D+00
207  2.0600000000000D+00  0.0000000000000D+00  0.0000000000000D+00
208  2.0700000000000D+00  0.0000000000000D+00  0.0000000000000D+00
209  2.0800000000000D+00  0.0000000000000D+00  0.0000000000000D+00
210  2.0900000000000D+00  0.0000000000000D+00  0.0000000000000D+00
211  2.1000000000000D+00  0.0000000000000D+00  0.0000000000000D+00
212  2.1100000000000D+00  0.0000000000000D+00  0.0000000000000D+00
213  2.1200000000000D+00  0.0000000000000D+00  0.0000000000000D+00
214  2.1300000000000D+00  0.0000000000000D+00  0.0000000000000D+00
215  2.1400000000000D+00  0.0000000000000D+00  0.0000000000000D+00
216  2.1500000000000D+00  0.0000000000000D+00  0.0000000000000D+00
217  2.1600000000000D+00  0.0000000000000D+00  0.0000000000000D+00
218  2.1700000000000D+00  0.0000000000000D+00  0.0000000000000D+00
219  2.1800000000000D+00  0.0000000000000D+00  0.0000000000000D+00
220  2.1900000000000D+00  0.0000000000000D+00  0.0000000000000D+00
221  2.2000000000000D+00  0.0000000000000D+00  0.0000000000000D+00
222  2.2100000000000D+00  0.0000000000000D+00  0.0000000000000D+00
223  2.2200000000000D+00  0.0000000000000D+00  0.0000000000000D+00
224  2.2300000000000D+00  0.0000000000000D+00  0.0000000000000D+00
225  2.2400000000000D+00  0.0000000000000D+00  0.0000000000000D+00
226  2.2500000000000D+00  0.0000000000000D+00  0.0000000000000D+00
227  2.2600000000000D+00  0.0000000000000D+00  0.0000000000000D+00
228  2.2700000000000D+00  0.0000000000000D+00  0.0000000000000D+00
229  2.2800000000000D+00  0.0000000000000D+00  0.0000000000000D+00
230  2.2900000000000D+00  0.0000000000000D+00  0.0000000000000D+00
231  2.3000000000000D+00  0.0000000000000D+00  0.0000000000000D+00
232  2.3100000000000D+00  0.0000000000000D+00  0.0000000000000D+00
233  2.3200000000000D+00  0.0000000000000D+00  0.0000000000000D+00
234  2.3300000000000D+00  0.0000000000000D+00  0.0000000000000D+00
235  2.3400000000000D+00  0.0000000000000D+00  0.0000000000000D+00
236  2.3500000000000D+00  0.0000000000000D+00  0.0000000000000D+00
237  2.3600000000000D+00  0.0000000000000D+00  0.0000000000000D+00
238  2.3700000000000D+00  0.0000000000000D+00  0.0000000000000D+00
239  2.3800000000000D+00  0.0000000000000D+00  0.0000000000000D+00
240  2.3900000000000D+00  0.0000000000000D+00  0.0000000000000D+00
241  2.4000000000000D+00  0.0000000000000D+00  0.0000000000000D+00
242  2.4100000000000D+00  0.0000000000000D+00  0.0000000000000D+00
243  2.4200000000000D+00  0.0000000000000D+00  0.0000000000000D+00
244  2.4300000000000D+00  0.0000000000000D+00  0.0000000000000D+00
245  2.4400000000000D+00  0.0000000000000D+00  0.0000000000000D+00
246  2.4500000000000D+00  0.0000000000000D+00  0.0000000000000D+00
247  2.4600000000000D+00  0.0000000000000D+00  0.0000000000000D+00
248  2.4700000000000D+00  0.0000000000000D+00  0.0000000000000D+00
249  2.4800000000000D+00  0.0000000000000D+00  0.0000000000000D+00
250  2.4900000000000D+00  0.0000000000000D+00  0.0000000000000D+00
251  2.5000000000000D+00  0.0000000000000D+00  0.0000000000000D+00
252  2.5100000000000D+00  0.0000000000000D+00  0.0000000000000D+00
253  2.5200000000000D+00  0.0000000000000D+00  0.0000000000000D+00
254  2.5300000000000D+00  0.0000000000000D+00  0.0000000000000D+00
255  2.5400000000000D+00  0.0000000000000D+00  0.0000000000000D+00
256  2.5500000000000D+00  0.0000000000000D+00  0.0000000000000D+00
257  2.5600000000000D+00  0.0000000000000D+00  0.0000000000000D+00
258  2.5700000000000D+00  0.0000000000000D+00  0.0000000000000D+00
259  2.5800000000000D+00  0.0000000000000D+00  0.0000000000000D+00
260  2.5900000000000D+00  0.0000000000000D+00  0.0000000000000D+00
261  2.6000000000000D+00  0.0000000000000D+00  0.0000000000000D+00
262  2.6100000000000D+00  0.0000000000000D+00  0.0000000000000D+00
263  2.6200000000000D+00  0.0000000000000D+00  0.0000000000000D+00
264  2.6300000000000D+00  0.0000000000000D+00  0.0000000000000D+00
265  2.6400000000000D+00  0.0000000000000D+00  0.0000000000000D+00
266  2.6500000000000D+00  0.0000000000000D+00  0.0000000000000D+00
267  2.6600000000000D+00  0.0000000000000D+00  0.0000000000000D+00
268  2.6700000000000D+00  0.0000000000000D+00  0.0000000000000D+00
269  2.6800000000000D+00  0.0000000000000D+00  0.0000000000000D+00
270  2.6900000000000D+00  0.0000000000000D+00  0.0000000000000D+00
271  2.7000000000000D+00  0.0000000000000D+00  0.0000000000000D+00
272  2.7100000000000D+00  0.0000000000000D+00  0.0000000000000D+00
273  2.7200000000000D+00  0.0000000000000D+00  0.0000000000000D+00
274  2.7300000000000D+00  0.0000000000000D+00  0.0000000000000D+00
275  2.7400000000000D+00  0.0000000000000D+00  0.0000000000000D+00
276  2.7500000000000D+00  0.0000000000000D+00  0.0000000000000D+00
277  2.7600000000000D+00  0.0000000000000D+00  0.0000000000000D+00
278  2.7700000000000D+00  0.0000000000000D+00  0.0000000000000D+00
279  2.7800000000000D+00  0.0000000000000D+00  0.0000000000000D+00
280  2.7900000000000D+00  0.0000000000000D+00  0.0000000000000D+00
281  2.8000000000000D+00  0.0000000000000D+00  0.0000000000000D+00
282  2.8100000000000D+00  0.0000000000000D+00  0.0000000000000D+00
283  2.8200000000000D+00  0.0000000000000D+00  0.0000000000000D+00
284  2.8300000000000D+00  0.0000000000000D+00  0.0000000000000D+00
285  2.8400000000000D+00  0.0000000000000D+00  0.0000000000000D+00
286  2.8500000000000D+00  0.0000000000000D+00  0.0000000000000D+00
287  2.8600000000000D+00  0.0000000000000D+00  0.0000000000000D+00
288  2.8700000000000D+00  0.0000000000000D+00  0.0000000000000D+00
289  2.8800000000000D+00  0.0000000000000D+00  0.0000000000000D+00
290  2.8900000000000D+00  0.0000000000000D+00  0.0000000000000D+00
291  2.9000000000000D+00  0.0000000000000D+00  0.0000000000000D+00
292  2.9100000000000D+00  0.0000000000000D+00  0.0000000000000D+00
293  2.9200000000000D+00  0.0000000000000D+00  0.0000000000000D+00
294  2.9300000000000D+00  0.0000000000000D+00  0.0000000000000D+00
295  2.9400000000000D+00  0.0000000000000D+00  0.0000000000000D+00
296  2.9500000000000D+00  0.0000000000000D+00  0.0000000000000D+00
297  2.9600000000000D+00  0.0000000000000D+00  0.0000000000000D+00
298  2.9700000000000D+00  0.0000000000000D+00  0.0000000000000D+00
299  2.9800000000000D+00  0.0000000000000D+00  0.0000000000000D+00
300  2.9900000000000D+00  0.0000000000000D+00  0.0000000000000D+00
301  3.0000000000000D+00  0.0000000000000D+00  0.0000000000000D+00
302  3.0100000000000D+00  0.0000000000000D+00  0.0000000000000D+00
303  3.0200000000000D+00  0.0000000000000D+00  0.0000000000000D+00
304  3.0300000000000D+00  0.0000000000000D+00  0.0000000000000D+00
305  3.0400000000000D+00  0.0000000000000D+00  0.0000000000000D+00
306  3.0500000000000D+00  0.0000000000000D+00  0.0000000000000D+00
307  3.0600000000000D+00  0.0000000000000D+00  0.0000000000000D+00
308  3.0700000000000D+00  0.0000000000000D+00  0.0000000000000D+00
309  3.0800000000000D+00  0.0000000000000D+00  0.0000000000000D+00
310  3.0900000000000D+00  0.0000000000000D+00  0.0000000000000D+00
311  3.1000000000000D+00  0.0000000000000D+00  0.0000000000000D+00
312  3.1100000000000D+00  0.0000000000000D+00  0.0000000000000D+00
313  3.1200000000000D+00  0.0000000000000D+00  0.0000000000000D+00
314  3.1300000000000D+00  0.0000000000000D+00  0.0000000000000D+00
315  3.1400000000000D+00  0.0000000000000D+00  0.0000000000000D+00
316  3.1500000000000D+00  0.0000000000000D+00  0.0000000000000D+00
317  3.1600000000000D+00  0.0000000000000D+00  0.0000000000000D+00
318  3.1700000000000D+00  0.0000000000000D+00  0.0000000000000D+00
319  3.1800000000000D+00  0.0000000000000D+00  0.0000000000000D+00
320  3.1900000000000D+00  0.0000000000000D+00  0.0000000000000D+00
321  3.2000000000000D+00  0.0000000000000D+00  0.0000000000000D+00
322  3.2100000000000D+00  0.0000000000000D+00  0.0000000000000D+00
323  3.2200000000000D+00  0.0000000000000D+00  0.0000000000000D+00
324  3.2300000000000D+00  0.0000000000000D+00  0.0000000000000D+00
325  3.2400000000000D+00  0.0000000000000D+00  0.0000000000000D+00
326  3.2500000000000D+00  0.0000000000000D+00  0.0000000000000D+00
327  3.2600000000000D+00  0.0000000000000D+00  0.0000000000000D+00
328  3.2700000000000D+00  0.0000000000000D+00  0.0000000000000D+00
329  3.2800000000000D+00  0.0000000000000D+00  0.0000000000000D+00
330  3.2900000000000D+00  0.0000000000000D+00  0.0000000000000D+00
331  3.3000000000000D+00  0.0000000000000D+00  0.0000000000000D+00
332  3.3100000000000D+00  0.0000000000000D+00  0.0000000000000D+00
333  3.3200000000000D+00  0.0000000000000D+00  0.0000000000000D+00
334  3.3300000000000D+00  0.0000000000000D+00  0.0000000000000D+00
335  3.3400000000000D+00  0.0000000000000D+00  0.0000000000000D+00
336  3.3500000000000D+00  0.0000000000000D+00  0.0000000000000D+00
337  3.3600000000000D+00  0.0000000000000D+00  0.0000000000000D+00
338  3.3700000000000D+00  0.0000000000000D+00  0.0000000000000D+00
339  3.3800000000000D+00  0.0000000000000D+00  0.0000000000000D+00
340  3.3900000000000D+00  0.0000000000000D+00  0.0000000000000D+00
341  3.4000000000000D+00  0.0000000000000D+00  0.0000000000000D+00
342  3.4100000000000D+00  0.0000000000000D+00  0.0000000000000D+00
343  3.4200000000000D+00  0.0000000000000D+00  0.0000000000000D+00
344  3.4300000000000D+00  0.0000000000000D+00  0.0000000000000D+00
345  3.4400000000000D+00  0.0000000000000D+00  0.0000000000000D+00
346  3.4500000000000D+00  0.0000000000000D+00  0.0000000000000D+00
347  3.4600000000000D+00  0.0000000000000D+00  0.0000000000000D+00
348  3.4700000000000D+00  0.0000000000000D+00  0.0000000000000D+00
349  3.4800000000000D+00  0.0000000000000D+00  0.0000000000000D+00
350  3.4900000000000D+00  0.0000000000000D+00  0.0000000000000D+00
351  3.5000000000000D+00  0.0000000000000D+00  0.0000000000000D+00
352  3.5100000000000D+00  0.0000000000000D+00  0.0000000000000D+00
353  3.5200000000000D+00  0.0000000000000D+00  0.0000000000000D+00
354  3.5300000000000D+00  0.0000000000000D+00  0.0000000000000D+00
355  3.5400000000000D+00  0.0000000000000D+00  0.0000000000000D+00
356  3.5500000000000D+00  0.0000000000000D+00  0.0000000000000D+00
357  3.5600000000000D+00  0.0000000000000D+00  0.0000000000000D+00
358  3.5700000000000D+00  0.0000000000000D+00  0.0000000000000D+00
359  3.5800000000000D+00  0.0000000000000D+00  0.0000000000000D+00
360  3.5900000000000D+00  0.0000000000000D+00  0.0000000000000D+00
361  3.6000000000000D+00  0.0000000000000D+00  0.0000000000000D+00
362  3.6100000000000D+00  0.0000000000000D+00  0.0000000000000D+00
363  3.6200000000000D+00  0.0000000000000D+00  0.0000000000000D+00
364  3.6300000000000D+00  0.0000000000000D+00  0.0000000000000D+00
365  3.6400000000000D+00  0.0000000000000D+00  0.0000000000000D+00
366  3.6500000000000D+00  0.0000000000000D+00  0.0000000000000D+00
367  3.6600000000000D+00  0.0000000000000D+00  0.0000000000000D+00
368  3.6700000000000D+00  0.0000000000000D+00  0.0000000000000D+00
369  3.6800000000000D+00  0.0000000000000D+00  0.0000000000000D+00
370  3.6900000000000D+00  0.0000000000000D+00  0.0000000000000D+00
371  3.7000000000000D+00  0.0000000000000D+00  0.0000000000000D+00
372  3.7100000000000D+00  0.0000000000000D+00  0.0000000000000D+00
373  3.7200000000000D+00  0.0000000000000D+00  0.0000000000000D+00
374  3.7300000000000D+00  0.0000000000000D+00  0.0000000000000D+00
375  3.7400000000000D+00  0.0000000000000D+00  0.0000000000000D+00
376  3.7500000000000D+00  0.0000000000000D+00  0.0000000000000D+00
377  3.7600000000000D+00  0.0000000000000D+00  0.0000000000000D+00
378  3.7700000000000D+00  0.0000000000000D+00  0.0000000000000D+00
379  3.7800000000000D+00  0.0000000000000D+00  0.0000000000000D+00
380  3.7900000000000D+00  0.0000000000000D+00  0.0000000000000D+00
381  3.8000000000000D+00  0.0000000000000D+00  0.0000000000000D+00
382  3.8100000000000D+00  0.0000000000000D+00  0.0000000000000D+00
383  3.8200000000000D+00  0.0000000000000D+00  0.0000000000000D+00
384  3.8300000000000D+00  0.0000000000000D+00  0.0000000000000D+00
385  3.8400000000000D+00  0.0000000000000D+00  0.0000000000000D+00
386  3.8500000000000D+00  0.0000000000000D+00  0.0000000000000D+00
387  3.8600000000000D+00  0.0000000000000D+00  0.0000000000000D+00
388  3.8700000000000D+00  0.0000000000000D+00  0.0000000000000D+00
389  3.8800000000000D+00  0.0000000000000D+00  0.0000000000000D+00
390  3.8900000000000D+00  0.0000000000000D+00  0.0000000000000D+00
391  3.9000000000000D+00  0.0000000000000D+00  0.0000000000000D+00
392  3.9100000000000D+00  0.0000000000000D+00  0.0000000000000D+00
393  3.9200000000000D+00  0.0000000000000D+00  0.0000000000000D+00
394  3.9300000000000D+00  0.0000000000000D+00  0.0000000000000D+00
395  3.9400000000000D+00  0.0000000000000D+00  0.0000000000000D+00
396  3.9500000000000D+00  0.0000000000000D+00  0.0000000000000D+00
397  3.9600000000000D+00  0.0000000000000D+00  0.0000000000000D+00
398  3.9700000000000D+00  0.0000000000000D+00  0.0000000000000D+00
399  3.9800000000000D+00  0.0000000000000D+00  0.0000000000000D+00
400  3.9900000000000D+00  0.0000000000000D+00  0.0000000000000D+00
401  4.0000000000000D+00  0.0000000000000D+00  0.0000000000000D+00
402  4.0100000000000D+00  0.0000000000000D+00  0.0000000000000D+00
403  4.0200000000000D+00  0.0000000000000D+00  0.0000000000000D+00
404  4.0300000000000D+00  0.0000000000000D+00  0.0000000000000D+00
405  4.0400000000000D+00  0.0000000000000D+00  0.0000000000000D+00
406  4.0500000000000D+00  0.0000000000000D+00  0.0000000000000D+00
407  4.0600000000000D+00  0.0000000000000D+00  0.0000000000000D+00
408  4.0700000000000D+00  0.0000000000000D+00  0.0000000000000D+00
409  4.0800000000000D+00  0.0000000000000D+00  0.0000000000000D+00
410  4.0900000000000D+00  0.0000000000000D+00  0.0000000000000D+00
411  4.1000000000000D+00  0.0000000000000D+00  0.0000000000000D+00
412  4.1100000000000D+00  0.0000000000000D+00  0.0000000000000D+00
413  4.1200000000000D+00  0.0000000000000D+00  0.0000000000000D+00
414  4.1300000000000D+00  0.0000000000000D+00  0.0000000000000D+00
415  4.1400000000000D+00  0.0000000000000D+00  0.0000000000000D+00
416  4.1500000000000D+00  0.0000000000000D+00  0.0000000000000D+00
417  4.1600000000000D+00  0.0000000000000D+00  0.0000000000000D+00
418  4.1700000000000D+00  0.0000000000000D+00  0.0000000000000D+00
419  4.1800000000000D+00  0.0000000000000D+00  0.0000000000000D+00
420  4.1900000000000D+00  0.0000000000000D+00  0.0000000000000D+00
421  4.2000000000000D+00  0.0000000000000D+00  0.0000000000000D+00
422  4.2100000000000D+00  0.0000000000000D+00  0.0000000000000D+00
423  4.2200000000000D+00  0.0000000000000D+00  0.0000000000000D+00
424  4.2300000000000D+00  0.0000000000000D+00  0.0000000000000D+00
425  4.2400000000000D+00  0.0000000000000D+00  0.0000000000000D+00
426  4.2500000000000D+00  0.0000000000000D+00  0.0000000000000D+00
427  4.2600000000000D+00  0.0000000000000D+00  0.0000000000000D+00
428  4.2700000000000D+00  0.0000000000000D+00  0.0000000000000D+00
429  4.2800000000000D+00  0.0000000000000D+00  0.0000000000000D+00
430  4.2900000000000D+00  0.0000000000000D+00  0.0000000000000D+00
431  4.3000000000000D+00  0.0000000000000D+00  0.0000000000000D+00
432  4.3100000000000D+00  0.0000000000000D+00  0.0000000000000D+00
433  4.3200000000000D+00  0.0000000000000D+00  0.0000000000000D+00
434  4.3300000000000D+00  0.0000000000000D+00  0.0000000000000D+00
435  4.3400000000000D+00  0.0000000000000D+00  0.0000000000000D+00
436  4.3500000000000D+00  0.0000000000000D+00  0.0000000000000D+00
437  4.3600000000000D+00  0.0000000000000D+00  0.0000000000000D+00
438  4.3700000000000D+00  0.0000000000000D+00  0.0000000000000D+00
439  4.3800000000000D+00  0.0000000000000D+00  0.0000000000000D+00
440  4.3900000000000D+00  0.0000000000000D+00  0.0000000000000D+00
441  4.4000000000000D+00  0.0000000000000D+00  0.0000000000000D+00
442  4.4100000000000D+00  0.0000000000000D+00  0.0000000000000D+00
443  4.4200000000000D+00  0.0000000000000D+00  0.0000000000000D+00