Ne    ONCVPSP-3.3.0  r_core=   1.31204   1.70576
10.0000      8.0000      180112    zatom,zion,pspd
8 -116133   1     4   400     0    pspcod,pspxc,lmax,lloc,mmax,r2well
3.99000000  0.00000000  0.00000000    rchrg fchrg qchrg
2     2     0     0     0    nproj
1     1           extension_switch
0                         2.3092633043878D+00 -4.7223274093529D-01
1  0.0000000000000D+00  1.2880878585975D-09  5.1391103872422D-10
2  1.0000000000000D-02  7.6697866094235D-02  1.3421754610200D-02
3  2.0000000000000D-02  1.5328334179071D-01  2.6940937299756D-02
4  3.0000000000000D-02  2.2964277108722D-01  4.0653910002301D-02
5  4.0000000000000D-02  3.0565999159739D-01  5.4654913999159D-02
6  5.0000000000000D-02  3.8121514308833D-01  6.9035038558794D-02
7  6.0000000000000D-02  4.5618354916842D-01  8.3881223966287D-02
8  7.0000000000000D-02  5.3043469497811D-01  9.9275309796148D-02
9  8.0000000000000D-02  6.0383132244831D-01  1.1529313876786D-01
10  9.0000000000000D-02  6.7622866311060D-01  1.3200372589225D-01
11  1.0000000000000D-01  7.4747382658921D-01  1.4946850187521D-01
12  1.1000000000000D-01  8.1740536079982D-01  1.6774063890199D-01
13  1.2000000000000D-01  8.8585299755006D-01  1.8686446598998D-01
14  1.3000000000000D-01  9.5263759470914D-01  2.0687498008091D-01
15  1.4000000000000D-01  1.0175712834205D+00  2.2779745795686D-01
16  1.5000000000000D-01  1.0804578260051D+00  2.4964717292019D-01
17  1.6000000000000D-01  1.1410931872764D+00  2.7242921898939D-01
18  1.7000000000000D-01  1.1992663190023D+00  2.9613844414351D-01
19  1.8000000000000D-01  1.2547601542314D+00  3.2075949291210D-01
20  1.9000000000000D-01  1.3073528052039D+00  3.4626695736917D-01
21  2.0000000000000D-01  1.3568189556082D+00  3.7262563436309D-01
22  2.1000000000000D-01  1.4029314350807D+00  3.9979088561313D-01
23  2.2000000000000D-01  1.4454629610973D+00  4.2770909614232D-01
24  2.3000000000000D-01  1.4841880308181D+00  4.5631822540779D-01
25  2.4000000000000D-01  1.5188849430452D+00  4.8554844444714D-01
26  2.5000000000000D-01  1.5493379282767D+00  5.1532285139503D-01
27  2.6000000000000D-01  1.5753393629099D+00  5.4555825684825D-01
28  2.7000000000000D-01  1.5966920419923D+00  5.7616602978140D-01
29  2.8000000000000D-01  1.6132114835654D+00  6.0705299404724D-01
30  2.9000000000000D-01  1.6247282366068D+00  6.3812236494391D-01
31  3.0000000000000D-01  1.6310901638680D+00  6.6927471490201D-01
32  3.1000000000000D-01  1.6321646705498D+00  7.0040895704309D-01
33  3.2000000000000D-01  1.6278408497441D+00  7.3142333519103D-01
34  3.3000000000000D-01  1.6180315159199D+00  7.6221640888141D-01
35  3.4000000000000D-01  1.6026750984361D+00  7.9268802201133D-01
36  3.5000000000000D-01  1.5817373681143D+00  8.2274024400322D-01
37  3.6000000000000D-01  1.5552129713031D+00  8.5227827271722D-01
38  3.7000000000000D-01  1.5231267475878D+00  8.8121128883501D-01
39  3.8000000000000D-01  1.4855348093336D+00  9.0945325204670D-01
40  3.9000000000000D-01  1.4425253635798D+00  9.3692363009596D-01
41  4.0000000000000D-01  1.3942192593892D+00  9.6354805256724D-01
42  4.1000000000000D-01  1.3407702465910D+00  9.8925888222439D-01
43  4.2000000000000D-01  1.2823649348887D+00  1.0139956977209D+00
44  4.3000000000000D-01  1.2192224455177D+00  1.0377056825866D+00
45  4.4000000000000D-01  1.1515937509818D+00  1.0603439165414D+00
46  4.5000000000000D-01  1.0797607018474D+00  1.0818735663812D+00
47  4.6000000000000D-01  1.0040347430805D+00  1.1022659749069D+00
48  4.7000000000000D-01  9.2475532593801D-01  1.1215006476159D+00
49  4.8000000000000D-01  8.4228802493192D-01  1.1395651381261D+00
50  4.9000000000000D-01  7.5702237282617D-01  1.1564548345434D+00
51  5.0000000000000D-01  6.6936942996767D-01  1.1721726502004D+00
52  5.1000000000000D-01  5.7975910744793D-01  1.1867286233691D+00
53  5.2000000000000D-01  4.8863726660787D-01  1.2001394316762D+00
54  5.3000000000000D-01  3.9646262019279D-01  1.2124278280005D+00
55  5.4000000000000D-01  3.0370346300818D-01  1.2236220056124D+00
56  5.5000000000000D-01  2.1083426218467D-01  1.2337549011948D+00
57  5.6000000000000D-01  1.1833213910164D-01  1.2428634451676D+00
58  5.7000000000000D-01  2.6673276625171D-02  1.2509877694044D+00
59  5.8000000000000D-01 -6.3670713445022D-02  1.2581703829778D+00
60  5.9000000000000D-01 -1.5223642696002D-01  1.2644553269879D+00
61  6.0000000000000D-01 -2.3857227180944D-01  1.2698873198123D+00
62  6.1000000000000D-01 -3.2224200381686D-01  1.2745109042656D+00
63  6.2000000000000D-01 -4.0282815818286D-01  1.2783696081606D+00
64  6.3000000000000D-01 -4.7993534126403D-01  1.2815051296336D+00
65  6.4000000000000D-01 -5.5319334861871D-01  1.2839565583169D+00
66  6.5000000000000D-01 -6.2226007678583D-01  1.2857596430399D+00
67  6.6000000000000D-01 -6.8682419818272D-01  1.2869461161857D+00
68  6.7000000000000D-01 -7.4660757077446D-01  1.2875430841703D+00
69  6.8000000000000D-01 -8.0136735677433D-01  1.2875724927133D+00
70  6.9000000000000D-01 -8.5089782755612D-01  1.2870506746738D+00
71  7.0000000000000D-01 -8.9503183514916D-01  1.2859879872190D+00
72  7.1000000000000D-01 -9.3364193411760D-01  1.2843885440077D+00
73  7.2000000000000D-01 -9.6664114127024D-01  1.2822500469025D+00
74  7.3000000000000D-01 -9.9398332445489D-01  1.2795637204937D+00
75  7.4000000000000D-01 -1.0156632156139D+00  1.2763143514449D+00
76  7.5000000000000D-01 -1.0317160472852D+00  1.2724804333569D+00
77  7.6000000000000D-01 -1.0422168157803D+00  1.2680344165208D+00
78  7.7000000000000D-01 -1.0472791782772D+00  1.2629430606035D+00
79  7.8000000000000D-01 -1.0470539950577D+00  1.2571678869934D+00
80  7.9000000000000D-01 -1.0417275319660D+00  1.2506657262485D+00
81  8.0000000000000D-01 -1.0315193418777D+00  1.2433893548575D+00
82  8.1000000000000D-01 -1.0166798474915D+00  1.2352882143435D+00
83  8.2000000000000D-01 -9.9748765103548D-01  1.2263092046425D+00
84  8.3000000000000D-01 -9.7424659948862D-01  1.2163975426786D+00
85  8.4000000000000D-01 -9.4728263661697D-01  1.2054976761517D+00
86  8.5000000000000D-01 -9.1694047547850D-01  1.1935542417582D+00
87  8.6000000000000D-01 -8.8358012703292D-01  1.1805130563978D+00
88  8.7000000000000D-01 -8.4757332207900D-01  1.1663221293864D+00
89  8.8000000000000D-01 -8.0929986490991D-01  1.1509326832955D+00
90  8.9000000000000D-01 -7.6914395781321D-01  1.1343001707975D+00
91  9.0000000000000D-01 -7.2749053583447D-01  1.1163852747923D+00
92  9.1000000000000D-01 -6.8472165106696D-01  1.0971548791491D+00
93  9.2000000000000D-01 -6.4121294512503D-01  1.0765829976059D+00
94  9.3000000000000D-01 -5.9733024740922D-01  1.0546516487258D+00
95  9.4000000000000D-01 -5.5342633528881D-01  1.0313516653197D+00
96  9.5000000000000D-01 -5.0983789043061D-01  1.0066834273926D+00
97  9.6000000000000D-01 -4.6688268318332D-01  9.8065750846729D-01
98  9.7000000000000D-01 -4.2485701429057D-01  9.5329522603866D-01
99  9.8000000000000D-01 -3.8403344017306D-01  9.2462908795511D-01
100  9.9000000000000D-01 -3.4465880468134D-01  8.9470312766448D-01
101  1.0000000000000D+00 -3.0695259665174D-01  8.6357312248709D-01
102  1.0100000000000D+00 -2.7110564875917D-01  8.3130669039367D-01
103  1.0200000000000D+00 -2.3727918916616D-01  7.9798326213590D-01
104  1.0300000000000D+00 -2.0560425323054D-01  7.6369392702948D-01
105  1.0400000000000D+00 -1.7618145845699D-01  7.2854115208762D-01
106  1.0500000000000D+00 -1.4908114145635D-01  6.9263837571814D-01
107  1.0600000000000D+00 -1.2434385139212D-01  6.5610947866545D-01
108  1.0700000000000D+00 -1.0198119026011D-01  6.1908813629397D-01
109  1.0800000000000D+00 -8.1976986099441D-02  5.8171705776374D-01
110  1.0900000000000D+00 -6.4288781425304D-02  5.4414711895021D-01
111  1.1000000000000D+00 -4.8849615394122D-02  5.0653639725192D-01
112  1.1100000000000D+00 -3.5570074499916D-02  4.6904911769478D-01
113  1.1200000000000D+00 -2.4340583624093D-02  4.3185452075441D-01
114  1.1300000000000D+00 -1.5033906134240D-02  3.9512566337742D-01
115  1.1400000000000D+00 -7.5078196354158D-03  3.5903816539108D-01
116  1.1500000000000D+00 -1.6079311684887D-03  3.2376891443325D-01
117  1.1600000000000D+00  2.8294055587185D-03  2.8949474293416D-01
118  1.1700000000000D+00  5.9741097304508D-03  2.5639109113984D-01
119  1.1800000000000D+00  7.9993694648909D-03  2.2463067044904D-01
120  1.1900000000000D+00  9.0786545111743D-03  1.9438214146294D-01
121  1.2000000000000D+00  9.3827853143346D-03  1.6580882096171D-01
122  1.2100000000000D+00  9.0770979173512D-03  1.3906743191127D-01
123  1.2200000000000D+00  8.3187431697486D-03  1.1430691021899D-01
124  1.2300000000000D+00  7.2541567736648D-03  9.1667281247574D-02
125  1.2400000000000D+00  6.0167349072088D-03  7.1278618443913D-02
126  1.2500000000000D+00  4.7247487963734D-03  5.3260095937150D-02
127  1.2600000000000D+00  3.4795271788513D-03  3.7719145365196D-02
128  1.2700000000000D+00  2.3645338765424D-03  2.4755962532092D-02
129  1.2800000000000D+00  1.4413934231456D-03  1.4438754336359D-02
130  1.2900000000000D+00  7.4729850540546D-04  6.7992638696598D-03
131  1.3000000000000D+00  3.3789486162439D-04  2.1105240832251D-03
132  1.3100000000000D+00  1.6686057747308D-04  1.3492358495059D-04
133  1.3200000000000D+00  5.9338515563411D-05 -1.7353142647513D-04
134  1.3300000000000D+00 -6.4402635420661D-06  2.9099699400017D-05
135  1.3400000000000D+00 -5.9243822222908D-06  3.3597087614482D-05
136  1.3500000000000D+00  2.5872567727264D-06 -9.9603102550247D-06
137  1.3600000000000D+00 -1.5164750618913D-08  2.4970352306110D-09
138  1.3700000000000D+00 -3.7134210042550D-07  6.1145371307004D-08
139  1.3800000000000D+00  0.0000000000000D+00  0.0000000000000D+00
140  1.3900000000000D+00  0.0000000000000D+00  0.0000000000000D+00
141  1.4000000000000D+00  0.0000000000000D+00  0.0000000000000D+00
142  1.4100000000000D+00  0.0000000000000D+00  0.0000000000000D+00
143  1.4200000000000D+00  0.0000000000000D+00  0.0000000000000D+00
144  1.4300000000000D+00  0.0000000000000D+00  0.0000000000000D+00
145  1.4400000000000D+00  0.0000000000000D+00  0.0000000000000D+00
146  1.4500000000000D+00  0.0000000000000D+00  0.0000000000000D+00
147  1.4600000000000D+00  0.0000000000000D+00  0.0000000000000D+00
148  1.4700000000000D+00  0.0000000000000D+00  0.0000000000000D+00
149  1.4800000000000D+00  0.0000000000000D+00  0.0000000000000D+00
150  1.4900000000000D+00  0.0000000000000D+00  0.0000000000000D+00
151  1.5000000000000D+00  0.0000000000000D+00  0.0000000000000D+00
152  1.5100000000000D+00  0.0000000000000D+00  0.0000000000000D+00
153  1.5200000000000D+00  0.0000000000000D+00  0.0000000000000D+00
154  1.5300000000000D+00  0.0000000000000D+00  0.0000000000000D+00
155  1.5400000000000D+00  0.0000000000000D+00  0.0000000000000D+00
156  1.5500000000000D+00  0.0000000000000D+00  0.0000000000000D+00
157  1.5600000000000D+00  0.0000000000000D+00  0.0000000000000D+00
158  1.5700000000000D+00  0.0000000000000D+00  0.0000000000000D+00
159  1.5800000000000D+00  0.0000000000000D+00  0.0000000000000D+00
160  1.5900000000000D+00  0.0000000000000D+00  0.0000000000000D+00
161  1.6000000000000D+00  0.0000000000000D+00  0.0000000000000D+00
162  1.6100000000000D+00  0.0000000000000D+00  0.0000000000000D+00
163  1.6200000000000D+00  0.0000000000000D+00  0.0000000000000D+00
164  1.6300000000000D+00  0.0000000000000D+00  0.0000000000000D+00
165  1.6400000000000D+00  0.0000000000000D+00  0.0000000000000D+00
166  1.6500000000000D+00  0.0000000000000D+00  0.0000000000000D+00
167  1.6600000000000D+00  0.0000000000000D+00  0.0000000000000D+00
168  1.6700000000000D+00  0.0000000000000D+00  0.0000000000000D+00
169  1.6800000000000D+00  0.0000000000000D+00  0.0000000000000D+00
170  1.6900000000000D+00  0.0000000000000D+00  0.0000000000000D+00
171  1.7000000000000D+00  0.0000000000000D+00  0.0000000000000D+00
172  1.7100000000000D+00  0.0000000000000D+00  0.0000000000000D+00
173  1.7200000000000D+00  0.0000000000000D+00  0.0000000000000D+00
174  1.7300000000000D+00  0.0000000000000D+00  0.0000000000000D+00
175  1.7400000000000D+00  0.0000000000000D+00  0.0000000000000D+00
176  1.7500000000000D+00  0.0000000000000D+00  0.0000000000000D+00
177  1.7600000000000D+00  0.0000000000000D+00  0.0000000000000D+00
178  1.7700000000000D+00  0.0000000000000D+00  0.0000000000000D+00
179  1.7800000000000D+00  0.0000000000000D+00  0.0000000000000D+00
180  1.7900000000000D+00  0.0000000000000D+00  0.0000000000000D+00
181  1.8000000000000D+00  0.0000000000000D+00  0.0000000000000D+00
182  1.8100000000000D+00  0.0000000000000D+00  0.0000000000000D+00
183  1.8200000000000D+00  0.0000000000000D+00  0.0000000000000D+00
184  1.8300000000000D+00  0.0000000000000D+00  0.0000000000000D+00
185  1.8400000000000D+00  0.0000000000000D+00  0.0000000000000D+00
186  1.8500000000000D+00  0.0000000000000D+00  0.0000000000000D+00
187  1.8600000000000D+00  0.0000000000000D+00  0.0000000000000D+00
188  1.8700000000000D+00  0.0000000000000D+00  0.0000000000000D+00
189  1.8800000000000D+00  0.0000000000000D+00  0.0000000000000D+00
190  1.8900000000000D+00  0.0000000000000D+00  0.0000000000000D+00
191  1.9000000000000D+00  0.0000000000000D+00  0.0000000000000D+00
192  1.9100000000000D+00  0.0000000000000D+00  0.0000000000000D+00
193  1.9200000000000D+00  0.0000000000000D+00  0.0000000000000D+00
194  1.9300000000000D+00  0.0000000000000D+00  0.0000000000000D+00
195  1.9400000000000D+00  0.0000000000000D+00  0.0000000000000D+00
196  1.9500000000000D+00  0.0000000000000D+00  0.0000000000000D+00
197  1.9600000000000D+00  0.0000000000000D+00  0.0000000000000D+00
198  1.9700000000000D+00  0.0000000000000D+00  0.0000000000000D+00
199  1.9800000000000D+00  0.0000000000000D+00  0.0000000000000D+00
200  1.9900000000000D+00  0.0000000000000D+00  0.0000000000000D+00
201  2.0000000000000D+00  0.0000000000000D+00  0.0000000000000D+00
202  2.0100000000000D+00  0.0000000000000D+00  0.0000000000000D+00
203  2.0200000000000D+00  0.0000000000000D+00  0.0000000000000D+00
204  2.0300000000000D+00  0.0000000000000D+00  0.0000000000000D+00
205  2.0400000000000D+00  0.0000000000000D+00  0.0000000000000D+00
206  2.0500000000000D+00  0.0000000000000D+00  0.0000000000000D+00
207  2.0600000000000D+00  0.0000000000000D+00  0.0000000000000D+00
208  2.0700000000000D+00  0.0000000000000D+00  0.0000000000000D+00
209  2.0800000000000D+00  0.0000000000000D+00  0.0000000000000D+00
210  2.0900000000000D+00  0.0000000000000D+00  0.0000000000000D+00
211  2.1000000000000D+00  0.0000000000000D+00  0.0000000000000D+00
212  2.1100000000000D+00  0.0000000000000D+00  0.0000000000000D+00
213  2.1200000000000D+00  0.0000000000000D+00  0.0000000000000D+00
214  2.1300000000000D+00  0.0000000000000D+00  0.0000000000000D+00
215  2.1400000000000D+00  0.0000000000000D+00  0.0000000000000D+00
216  2.1500000000000D+00  0.0000000000000D+00  0.0000000000000D+00
217  2.1600000000000D+00  0.0000000000000D+00  0.0000000000000D+00
218  2.1700000000000D+00  0.0000000000000D+00  0.0000000000000D+00
219  2.1800000000000D+00  0.0000000000000D+00  0.0000000000000D+00
220  2.1900000000000D+00  0.0000000000000D+00  0.0000000000000D+00
221  2.2000000000000D+00  0.0000000000000D+00  0.0000000000000D+00
222  2.2100000000000D+00  0.0000000000000D+00  0.0000000000000D+00
223  2.2200000000000D+00  0.0000000000000D+00  0.0000000000000D+00
224  2.2300000000000D+00  0.0000000000000D+00  0.0000000000000D+00
225  2.2400000000000D+00  0.0000000000000D+00  0.0000000000000D+00
226  2.2500000000000D+00  0.0000000000000D+00  0.0000000000000D+00
227  2.2600000000000D+00  0.0000000000000D+00  0.0000000000000D+00
228  2.2700000000000D+00  0.0000000000000D+00  0.0000000000000D+00
229  2.2800000000000D+00  0.0000000000000D+00  0.0000000000000D+00
230  2.2900000000000D+00  0.0000000000000D+00  0.0000000000000D+00
231  2.3000000000000D+00  0.0000000000000D+00  0.0000000000000D+00
232  2.3100000000000D+00  0.0000000000000D+00  0.0000000000000D+00
233  2.3200000000000D+00  0.0000000000000D+00  0.0000000000000D+00
234  2.3300000000000D+00  0.0000000000000D+00  0.0000000000000D+00
235  2.3400000000000D+00  0.0000000000000D+00  0.0000000000000D+00
236  2.3500000000000D+00  0.0000000000000D+00  0.0000000000000D+00
237  2.3600000000000D+00  0.0000000000000D+00  0.0000000000000D+00
238  2.3700000000000D+00  0.0000000000000D+00  0.0000000000000D+00
239  2.3800000000000D+00  0.0000000000000D+00  0.0000000000000D+00
240  2.3900000000000D+00  0.0000000000000D+00  0.0000000000000D+00
241  2.4000000000000D+00  0.0000000000000D+00  0.0000000000000D+00
242  2.4100000000000D+00  0.0000000000000D+00  0.0000000000000D+00
243  2.4200000000000D+00  0.0000000000000D+00  0.0000000000000D+00
244  2.4300000000000D+00  0.0000000000000D+00  0.0000000000000D+00
245  2.4400000000000D+00  0.0000000000000D+00  0.0000000000000D+00
246  2.4500000000000D+00  0.0000000000000D+00  0.0000000000000D+00
247  2.4600000000000D+00  0.0000000000000D+00  0.0000000000000D+00
248  2.4700000000000D+00  0.0000000000000D+00  0.0000000000000D+00
249  2.4800000000000D+00  0.0000000000000D+00  0.0000000000000D+00
250  2.4900000000000D+00  0.0000000000000D+00  0.0000000000000D+00
251  2.5000000000000D+00  0.0000000000000D+00  0.0000000000000D+00
252  2.5100000000000D+00  0.0000000000000D+00  0.0000000000000D+00
253  2.5200000000000D+00  0.0000000000000D+00  0.0000000000000D+00
254  2.5300000000000D+00  0.0000000000000D+00  0.0000000000000D+00
255  2.5400000000000D+00  0.0000000000000D+00  0.0000000000000D+00
256  2.5500000000000D+00  0.0000000000000D+00  0.0000000000000D+00
257  2.5600000000000D+00  0.0000000000000D+00  0.0000000000000D+00
258  2.5700000000000D+00  0.0000000000000D+00  0.0000000000000D+00
259  2.5800000000000D+00  0.0000000000000D+00  0.0000000000000D+00
260  2.5900000000000D+00  0.0000000000000D+00  0.0000000000000D+00
261  2.6000000000000D+00  0.0000000000000D+00  0.0000000000000D+00
262  2.6100000000000D+00  0.0000000000000D+00  0.0000000000000D+00
263  2.6200000000000D+00  0.0000000000000D+00  0.0000000000000D+00
264  2.6300000000000D+00  0.0000000000000D+00  0.0000000000000D+00
265  2.6400000000000D+00  0.0000000000000D+00  0.0000000000000D+00
266  2.6500000000000D+00  0.0000000000000D+00  0.0000000000000D+00
267  2.6600000000000D+00  0.0000000000000D+00  0.0000000000000D+00
268  2.6700000000000D+00  0.0000000000000D+00  0.0000000000000D+00
269  2.6800000000000D+00  0.0000000000000D+00  0.0000000000000D+00
270  2.6900000000000D+00  0.0000000000000D+00  0.0000000000000D+00
271  2.7000000000000D+00  0.0000000000000D+00  0.0000000000000D+00
272  2.7100000000000D+00  0.0000000000000D+00  0.0000000000000D+00
273  2.7200000000000D+00  0.0000000000000D+00  0.0000000000000D+00
274  2.7300000000000D+00  0.0000000000000D+00  0.0000000000000D+00
275  2.7400000000000D+00  0.0000000000000D+00  0.0000000000000D+00
276  2.7500000000000D+00  0.0000000000000D+00  0.0000000000000D+00
277  2.7600000000000D+00  0.0000000000000D+00  0.0000000000000D+00
278  2.7700000000000D+00  0.0000000000000D+00  0.0000000000000D+00
279  2.7800000000000D+00  0.0000000000000D+00  0.0000000000000D+00
280  2.7900000000000D+00  0.0000000000000D+00  0.0000000000000D+00
281  2.8000000000000D+00  0.0000000000000D+00  0.0000000000000D+00
282  2.8100000000000D+00  0.0000000000000D+00  0.0000000000000D+00
283  2.8200000000000D+00  0.0000000000000D+00  0.0000000000000D+00
284  2.8300000000000D+00  0.0000000000000D+00  0.0000000000000D+00
285  2.8400000000000D+00  0.0000000000000D+00  0.0000000000000D+00
286  2.8500000000000D+00  0.0000000000000D+00  0.0000000000000D+00
287  2.8600000000000D+00  0.0000000000000D+00  0.0000000000000D+00
288  2.8700000000000D+00  0.0000000000000D+00  0.0000000000000D+00
289  2.8800000000000D+00  0.0000000000000D+00  0.0000000000000D+00
290  2.8900000000000D+00  0.0000000000000D+00  0.0000000000000D+00
291  2.9000000000000D+00  0.0000000000000D+00  0.0000000000000D+00
292  2.9100000000000D+00  0.0000000000000D+00  0.0000000000000D+00
293  2.9200000000000D+00  0.0000000000000D+00  0.0000000000000D+00
294  2.9300000000000D+00  0.0000000000000D+00  0.0000000000000D+00
295  2.9400000000000D+00  0.0000000000000D+00  0.0000000000000D+00
296  2.9500000000000D+00  0.0000000000000D+00  0.0000000000000D+00
297  2.9600000000000D+00  0.0000000000000D+00  0.0000000000000D+00
298  2.9700000000000D+00  0.0000000000000D+00  0.0000000000000D+00
299  2.9800000000000D+00  0.0000000000000D+00  0.0000000000000D+00
300  2.9900000000000D+00  0.0000000000000D+00  0.0000000000000D+00
301  3.0000000000000D+00  0.0000000000000D+00  0.0000000000000D+00
302  3.0100000000000D+00  0.0000000000000D+00  0.0000000000000D+00
303  3.0200000000000D+00  0.0000000000000D+00  0.0000000000000D+00
304  3.0300000000000D+00  0.0000000000000D+00  0.0000000000000D+00
305  3.0400000000000D+00  0.0000000000000D+00  0.0000000000000D+00
306  3.0500000000000D+00  0.0000000000000D+00  0.0000000000000D+00
307  3.0600000000000D+00  0.0000000000000D+00  0.0000000000000D+00
308  3.0700000000000D+00  0.0000000000000D+00  0.0000000000000D+00
309  3.0800000000000D+00  0.0000000000000D+00  0.0000000000000D+00
310  3.0900000000000D+00  0.0000000000000D+00  0.0000000000000D+00
311  3.1000000000000D+00  0.0000000000000D+00  0.0000000000000D+00
312  3.1100000000000D+00  0.0000000000000D+00  0.0000000000000D+00
313  3.1200000000000D+00  0.0000000000000D+00  0.0000000000000D+00
314  3.1300000000000D+00  0.0000000000000D+00  0.0000000000000D+00
315  3.1400000000000D+00  0.0000000000000D+00  0.0000000000000D+00
316  3.1500000000000D+00  0.0000000000000D+00  0.0000000000000D+00
317  3.1600000000000D+00  0.0000000000000D+00  0.0000000000000D+00
318  3.1700000000000D+00  0.0000000000000D+00  0.0000000000000D+00
319  3.1800000000000D+00  0.0000000000000D+00  0.0000000000000D+00
320  3.1900000000000D+00  0.0000000000000D+00  0.0000000000000D+00
321  3.2000000000000D+00  0.0000000000000D+00  0.0000000000000D+00
322  3.2100000000000D+00  0.0000000000000D+00  0.0000000000000D+00
323  3.2200000000000D+00  0.0000000000000D+00  0.0000000000000D+00
324  3.2300000000000D+00  0.0000000000000D+00  0.0000000000000D+00
325  3.2400000000000D+00  0.0000000000000D+00  0.0000000000000D+00
326  3.2500000000000D+00  0.0000000000000D+00  0.0000000000000D+00
327  3.2600000000000D+00  0.0000000000000D+00  0.0000000000000D+00
328  3.2700000000000D+00  0.0000000000000D+00  0.0000000000000D+00
329  3.2800000000000D+00  0.0000000000000D+00  0.0000000000000D+00
330  3.2900000000000D+00  0.0000000000000D+00  0.0000000000000D+00
331  3.3000000000000D+00  0.0000000000000D+00  0.0000000000000D+00
332  3.3100000000000D+00  0.0000000000000D+00  0.0000000000000D+00
333  3.3200000000000D+00  0.0000000000000D+00  0.0000000000000D+00
334  3.3300000000000D+00  0.0000000000000D+00  0.0000000000000D+00
335  3.3400000000000D+00  0.0000000000000D+00  0.0000000000000D+00
336  3.3500000000000D+00  0.0000000000000D+00  0.0000000000000D+00
337  3.3600000000000D+00  0.0000000000000D+00  0.0000000000000D+00
338  3.3700000000000D+00  0.0000000000000D+00  0.0000000000000D+00
339  3.3800000000000D+00  0.0000000000000D+00  0.0000000000000D+00
340  3.3900000000000D+00  0.0000000000000D+00  0.0000000000000D+00
341  3.4000000000000D+00  0.0000000000000D+00  0.0000000000000D+00
342  3.4100000000000D+00  0.0000000000000D+00  0.0000000000000D+00
343  3.4200000000000D+00  0.0000000000000D+00  0.0000000000000D+00
344  3.4300000000000D+00  0.0000000000000D+00  0.0000000000000D+00
345  3.4400000000000D+00  0.0000000000000D+00  0.0000000000000D+00
346  3.4500000000000D+00  0.0000000000000D+00  0.0000000000000D+00
347  3.4600000000000D+00  0.0000000000000D+00  0.0000000000000D+00
348  3.4700000000000D+00  0.0000000000000D+00  0.0000000000000D+00
349  3.4800000000000D+00  0.0000000000000D+00  0.0000000000000D+00
350  3.4900000000000D+00  0.0000000000000D+00  0.0000000000000D+00
351  3.5000000000000D+00  0.0000000000000D+00  0.0000000000000D+00
352  3.5100000000000D+00  0.0000000000000D+00  0.0000000000000D+00
353  3.5200000000000D+00  0.0000000000000D+00  0.0000000000000D+00
354  3.5300000000000D+00  0.0000000000000D+00  0.0000000000000D+00
355  3.5400000000000D+00  0.0000000000000D+00  0.0000000000000D+00
356  3.5500000000000D+00  0.0000000000000D+00  0.0000000000000D+00
357  3.5600000000000D+00  0.0000000000000D+00  0.0000000000000D+00
358  3.5700000000000D+00  0.0000000000000D+00  0.0000000000000D+00
359  3.5800000000000D+00  0.0000000000000D+00  0.0000000000000D+00
360  3.5900000000000D+00  0.0000000000000D+00  0.0000000000000D+00
361  3.6000000000000D+00  0.0000000000000D+00  0.0000000000000D+00
362  3.6100000000000D+00  0.0000000000000D+00  0.0000000000000D+00
363  3.6200000000000D+00  0.0000000000000D+00  0.0000000000000D+00
364  3.6300000000000D+00  0.0000000000000D+00  0.0000000000000D+00
365  3.6400000000000D+00  0.0000000000000D+00  0.0000000000000D+00
366  3.6500000000000D+00  0.0000000000000D+00  0.0000000000000D+00
367  3.6600000000000D+00  0.0000000000000D+00  0.0000000000000D+00
368  3.6700000000000D+00  0.0000000000000D+00  0.0000000000000D+00
369  3.6800000000000D+00  0.0000000000000D+00  0.0000000000000D+00
370  3.6900000000000D+00  0.0000000000000D+00  0.0000000000000D+00
371  3.7000000000000D+00  0.0000000000000D+00  0.0000000000000D+00
372  3.7100000000000D+00  0.0000000000000D+00  0.0000000000000D+00
373  3.7200000000000D+00  0.0000000000000D+00  0.0000000000000D+00
374  3.7300000000000D+00  0.0000000000000D+00  0.0000000000000D+00
375  3.7400000000000D+00  0.0000000000000D+00  0.0000000000000D+00
376  3.7500000000000D+00  0.0000000000000D+00  0.0000000000000D+00
377  3.7600000000000D+00  0.0000000000000D+00  0.0000000000000D+00
378  3.7700000000000D+00  0.0000000000000D+00  0.0000000000000D+00
379  3.7800000000000D+00  0.0000000000000D+00  0.0000000000000D+00
380  3.7900000000000D+00  0.0000000000000D+00  0.0000000000000D+00
381  3.8000000000000D+00  0.0000000000000D+00  0.0000000000000D+00
382  3.8100000000000D+00  0.0000000000000D+00  0.0000000000000D+00
383  3.8200000000000D+00  0.0000000000000D+00  0.0000000000000D+00
384  3.8300000000000D+00  0.0000000000000D+00  0.0000000000000D+00
385  3.8400000000000D+00  0.0000000000000D+00  0.0000000000000D+00
386  3.8500000000000D+00  0.0000000000000D+00  0.0000000000000D+00
387  3.8600000000000D+00  0.0000000000000D+00  0.0000000000000D+00
388  3.8700000000000D+00  0.0000000000000D+00  0.0000000000000D+00
389  3.8800000000000D+00  0.0000000000000D+00  0.0000000000000D+00
390  3.8900000000000D+00  0.0000000000000D+00  0.0000000000000D+00
391  3.9000000000000D+00  0.0000000000000D+00  0.0000000000000D+00
392  3.9100000000000D+00  0.0000000000000D+00  0.0000000000000D+00
393  3.9200000000000D+00  0.0000000000000D+00  0.0000000000000D+00
394  3.9300000000000D+00  0.0000000000000D+00  0.0000000000000D+00
395  3.9400000000000D+00  0.0000000000000D+00  0.0000000000000D+00
396  3.9500000000000D+00  0.0000000000000D+00  0.0000000000000D+00
397  3.9600000000000D+00  0.0000000000000D+00  0.0000000000000D+00
398  3.9700000000000D+00  0.0000000000000D+00  0.0000000000000D+00
399  3.9800000000000D+00  0.0000000000000D+00  0.0000000000000D+00
400  3.9900000000000D+00  0.0000000000000D+00  0.0000000000000D+00
1                        -5.1435693790911D+00 -1.6685942323858D+00
1  0.0000000000000D+00 -9.3729954353527D-11  2.8584426492451D-10
2  1.0000000000000D-02  1.4004848776033D-03 -3.7043780128369D-04
3  2.0000000000000D-02  5.5975546896822D-03 -1.4800376199923D-03
4  3.0000000000000D-02  1.2578062383401D-02 -3.3236533747381D-03
5  4.0000000000000D-02  2.2320120956090D-02 -5.8926906677352D-03
6  5.0000000000000D-02  3.4793140772187D-02 -9.1750809420657D-03
7  6.0000000000000D-02  4.9957882181254D-02 -1.3155246395939D-02
8  7.0000000000000D-02  6.7766523803749D-02 -1.7814056732673D-02
9  8.0000000000000D-02  8.8162746944922D-02 -2.3128779110977D-02
10  9.0000000000000D-02  1.1108183668305D-01 -2.9073022930226D-02
11  1.0000000000000D-01  1.3645080025429D-01 -3.5616681335613D-02
12  1.1000000000000D-01  1.6418850342123D-01 -4.2725871555599D-02
13  1.2000000000000D-01  1.9420582556473D-01 -5.0362876386401D-02
14  1.3000000000000D-01  2.2640583427677D-01 -5.8486089311877D-02
15  1.4000000000000D-01  2.6068398025566D-01 -6.7049965890425D-02
16  1.5000000000000D-01  2.9692831331238D-01 -7.6004984151164D-02
17  1.6000000000000D-01  3.3501972028725D-01 -8.5297616817416D-02
18  1.7000000000000D-01  3.7483218564966D-01 -9.4870318215817D-02
19  1.8000000000000D-01  4.1623307550861D-01 -1.0466152873215D-01
20  1.9000000000000D-01  4.5908344569949D-01 -1.1460569964037D-01
21  2.0000000000000D-01  5.0323837453111D-01 -1.2463334105818D-01
22  2.1000000000000D-01  5.4854732067851D-01 -1.3467109567164D-01
23  2.2000000000000D-01  5.9485450659031D-01 -1.4464184072205D-01
24  2.3000000000000D-01  6.4199932764565D-01 -1.5446482056302D-01
25  2.4000000000000D-01  6.8981678714594D-01 -1.6405581187366D-01
26  2.5000000000000D-01  7.3813795706097D-01 -1.7332732335796D-01
27  2.6000000000000D-01  7.8679046426962D-01 -1.8218883147251D-01
28  2.7000000000000D-01  8.3559900184260D-01 -1.9054705340593D-01
29  2.8000000000000D-01  8.8438586471079D-01 -1.9830625818787D-01
30  2.9000000000000D-01  9.3297150884905D-01 -2.0536861643486D-01
31  3.0000000000000D-01  9.8117513288368D-01 -2.1163458884853D-01
32  3.1000000000000D-01  1.0288152808042D+00 -2.1700335317185D-01
33  3.2000000000000D-01  1.0757104642285D+00 -2.2137326888552D-01
34  3.3000000000000D-01  1.1216798024369D+00 -2.2464237849191D-01
35  3.4000000000000D-01  1.1665436781586D+00 -2.2670894379428D-01
36  3.5000000000000D-01  1.2101244068634D+00 -2.2747201513637D-01
37  3.6000000000000D-01  1.2522469170873D+00 -2.2683203112805D-01
38  3.7000000000000D-01  1.2927394391021D+00 -2.2469144594987D-01
39  3.8000000000000D-01  1.3314341990356D+00 -2.2095538090797D-01
40  3.9000000000000D-01  1.3681681153496D+00 -2.1553229650537D-01
41  4.0000000000000D-01  1.4027834944052D+00 -2.0833468091030D-01
42  4.1000000000000D-01  1.4351287216829D+00 -1.9927975034151D-01
43  4.2000000000000D-01  1.4650589450788D+00 -1.8829015655874D-01