Ga    ONCVPSP-3.2.3  r_core=   1.66857   1.75011   1.90252
31.0000     13.0000      161006    zatom,zion,pspd
8   -1012   2     4   600     0    pspcod,pspxc,lmax,lloc,mmax,r2well
5.99000000  5.00000000  0.00000000    rchrg fchrg qchrg
2     2     2     0     0    nproj
1     1           extension_switch
0                         6.7993463744257D+00  9.6020076042876D-01
1  0.0000000000000D+00  1.0388657434302D-09 -2.1868848676387D-09
2  1.0000000000000D-02  7.4882715419722D-03  3.1119877355617D-02
3  2.0000000000000D-02  1.5153614426265D-02  6.1868664014253D-02
4  3.0000000000000D-02  2.3170949596242D-02  9.1879715723954D-02
5  4.0000000000000D-02  3.1710921491839D-02  1.2079523027741D-01
6  5.0000000000000D-02  4.0937820267199D-02  1.4827054198251D-01
7  6.0000000000000D-02  5.1007575827357D-02  1.7397826583745D-01
8  7.0000000000000D-02  6.2065846391702D-02  1.9761224390533D-01
9  8.0000000000000D-02  7.4246223253146D-02  2.1889124857008D-01
10  9.0000000000000D-02  8.7668572124126D-02  2.3756240004495D-01
11  1.0000000000000D-01  1.0243752995779D-01  2.5340425866820D-01
12  1.1000000000000D-01  1.1864117442096D-01  2.6622955612307D-01
13  1.2000000000000D-01  1.3634988129277D-01  2.7588753372299D-01
14  1.3000000000000D-01  1.5561538299036D-01  2.8226586026464D-01
15  1.4000000000000D-01  1.7647003920175D-01  2.8529210662375D-01
16  1.5000000000000D-01  1.9892632826111D-01  2.8493475920232D-01
17  1.6000000000000D-01  2.2297656545765D-01  2.8120375947573D-01
18  1.7000000000000D-01  2.4859285195196D-01  2.7415056218131D-01
19  1.8000000000000D-01  2.7572725541197D-01  2.6386771007667D-01
20  1.9000000000000D-01  3.0431222089986D-01  2.5048792861899D-01
21  2.0000000000000D-01  3.3426120797127D-01  2.3418274931723D-01
22  2.1000000000000D-01  3.6546954741591D-01  2.1516067582749D-01
23  2.2000000000000D-01  3.9781550860186D-01  1.9366491204097D-01
24  2.3000000000000D-01  4.3116156601161D-01  1.6997067639611D-01
25  2.4000000000000D-01  4.6535585130180D-01  1.4438213137758D-01
26  2.5000000000000D-01  5.0023377510642D-01  1.1722896159249D-01
27  2.6000000000000D-01  5.3561980085669D-01  8.8862637887897D-02
28  2.7000000000000D-01  5.7132935113359D-01  5.9652408650787D-02
29  2.8000000000000D-01  6.0717082551889D-01  2.9981062666972D-02
30  2.9000000000000D-01  6.4294770758653D-01  2.4051067531101D-04
31  3.0000000000000D-01  6.7846073759250D-01 -2.9172764995826D-02
32  3.1000000000000D-01  7.1351012659114D-01 -5.7862341607266D-02
33  3.2000000000000D-01  7.4789778713936D-01 -8.5436515741304D-02
34  3.3000000000000D-01  7.8142955545348D-01 -1.1151293873722D-01
35  3.4000000000000D-01  8.1391737986276D-01 -1.3572317497207D-01
36  3.5000000000000D-01  8.4518145065840D-01 -1.5771713070343D-01
37  3.6000000000000D-01  8.7505224696703D-01 -1.7716730234513D-01
38  3.7000000000000D-01  9.0337247707777D-01 -1.9377279477047D-01
39  3.8000000000000D-01  9.2999888971548D-01 -2.0726306251574D-01
40  3.9000000000000D-01  9.5480393506851D-01 -2.1740132956547D-01
41  4.0000000000000D-01  9.7767725593516D-01 -2.2398764671533D-01
42  4.1000000000000D-01  9.9852699113218D-01 -2.2686154929175D-01
43  4.2000000000000D-01  1.0172808752946D+00 -2.2590428222456D-01
44  4.3000000000000D-01  1.0338871213667D+00 -2.2104056407387D-01
45  4.4000000000000D-01  1.0483150744179D+00 -2.1223986655807D-01
46  4.5000000000000D-01  1.0605556278894D+00 -1.9951719136564D-01
47  4.6000000000000D-01  1.0706213959611D+00 -1.8293333150189D-01
48  4.7000000000000D-01  1.0785466384015D+00 -1.6259461006733D-01
49  4.8000000000000D-01  1.0843869369828D+00 -1.3865209512472D-01
50  4.9000000000000D-01  1.0882186253057D+00 -1.1130029512628D-01
51  5.0000000000000D-01  1.0901379766213D+00 -8.0775345178055D-02
52  5.1000000000000D-01  1.0902601569621D+00 -4.7352700151604D-02
53  5.2000000000000D-01  1.0887179535502D+00 -1.1344356252368D-02
54  5.3000000000000D-01  1.0856602910143D+00  2.6904371946786D-02
55  5.4000000000000D-01  1.0812505503971D+00  6.7018486849847D-02
56  5.5000000000000D-01  1.0756647082331D+00  1.0859731857345D-01
57  5.6000000000000D-01  1.0690893151027D+00  1.5121886962807D-01
58  5.7000000000000D-01  1.0617193350033D+00  1.9444444804988D-01
59  5.8000000000000D-01  1.0537558685808D+00  2.3782353992257D-01
60  5.9000000000000D-01  1.0454037847478D+00  2.8089886915099D-01
61  6.0000000000000D-01  1.0368692864199D+00  3.2321158983766D-01
62  6.1000000000000D-01  1.0283574370503D+00  3.6430655466235D-01
63  6.2000000000000D-01  1.0200696753017D+00  4.0373760132765D-01
64  6.3000000000000D-01  1.0122013455585D+00  4.4107279841277D-01
65  6.4000000000000D-01  1.0049392720508D+00  4.7589959189433D-01
66  6.5000000000000D-01  9.9845940412699D-01  5.0782979414295D-01
67  6.6000000000000D-01  9.9292455967319D-01  5.3650435840322D-01
68  6.7000000000000D-01  9.8848229284104D-01  5.6159788359007D-01
69  6.8000000000000D-01  9.8526291112418D-01  5.8282279666403D-01
70  6.9000000000000D-01  9.8337766540783D-01  5.9993316289762D-01
71  7.0000000000000D-01  9.8291713494380D-01  6.1272807793591D-01
72  7.1000000000000D-01  9.8394982726857D-01  6.2105459969948D-01
73  7.2000000000000D-01  9.8652101092897D-01  6.2481018278116D-01
74  7.3000000000000D-01  9.9065179649257D-01  6.2394458308477D-01
75  7.4000000000000D-01  9.9633847876425D-01  6.1846120590339D-01
76  7.5000000000000D-01  1.0035521504035D+00  6.0841787644210D-01
77  7.6000000000000D-01  1.0122385942783D+00  5.9392701787174D-01
78  7.7000000000000D-01  1.0223184589259D+00  5.7515522830632D-01
79  7.8000000000000D-01  1.0336877184612D+00  5.5232225452508D-01
80  7.9000000000000D-01  1.0462184151913D+00  5.2569936680782D-01
81  8.0000000000000D-01  1.0597596801111D+00  4.9560714578427D-01
82  8.1000000000000D-01  1.0741390233973D+00  4.6241269867531D-01
83  8.2000000000000D-01  1.0891638840163D+00  4.2652632865840D-01
84  8.3000000000000D-01  1.1046234246530D+00  3.8839768724040D-01
85  8.4000000000000D-01  1.1202905553762D+00  3.4851144540649D-01
86  8.5000000000000D-01  1.1359241668311D+00  3.0738252486677D-01
87  8.6000000000000D-01  1.1512715512922D+00  2.6555093588004D-01
88  8.7000000000000D-01  1.1660709876781D+00  2.2357627283956D-01
89  8.8000000000000D-01  1.1800544646270D+00  1.8203192300190D-01
90  8.9000000000000D-01  1.1929505139903D+00  1.4149904738039D-01
91  9.0000000000000D-01  1.2044871256455D+00  1.0256039586297D-01
92  9.1000000000000D-01  1.2143947133683D+00  6.5794021015463D-02
93  9.2000000000000D-01  1.2224091006570D+00  3.1766956761963D-02
94  9.3000000000000D-01  1.2282744948856D+00  1.0289291719205D-03
95  9.4000000000000D-01  1.2317464179689D+00 -2.5893833085111D-02
96  9.5000000000000D-01  1.2325945618902D+00 -4.8504621472052D-02
97  9.6000000000000D-01  1.2306055379056D+00 -6.6342037423172D-02
98  9.7000000000000D-01  1.2255854890973D+00 -7.8985485092379D-02
99  9.8000000000000D-01  1.2173625370864D+00 -8.6060305311114D-02
100  9.9000000000000D-01  1.2057890352027D+00 -8.7242492277841D-02
101  1.0000000000000D+00  1.1907436021953D+00 -8.2262938361951D-02
102  1.0100000000000D+00  1.1721329126342D+00 -7.0911156865023D-02
103  1.0200000000000D+00  1.1498932225429D+00 -5.3038437715664D-02
104  1.0300000000000D+00  1.1239916113380D+00 -2.8560396520737D-02
105  1.0400000000000D+00  1.0944269239748D+00  2.5411165477159D-03
106  1.0500000000000D+00  1.0612304002829D+00  4.0216774952178D-02
107  1.0600000000000D+00  1.0244659815605D+00  8.4349221394893D-02
108  1.0700000000000D+00  9.8423028784498D-01  1.3475321399581D-01
109  1.0800000000000D+00  9.4065226276901D-01  1.9117647875294D-01
110  1.0900000000000D+00  8.9389248601476D-01  2.5330126737955D-01
111  1.1000000000000D+00  8.4414215739027D-01  3.2074661105940D-01
112  1.1100000000000D+00  7.9162175959399D-01  3.9307125418752D-01
113  1.1200000000000D+00  7.3657941051137D-01  4.6977724412617D-01
114  1.1300000000000D+00  6.7928891872408D-01  5.5031414697595D-01
115  1.1400000000000D+00  6.2004755962959D-01  6.3408385146781D-01
116  1.1500000000000D+00  5.5917359238966D-01  7.2044591710006D-01
117  1.1600000000000D+00  4.9700354097119D-01  8.0872341619689D-01
118  1.1700000000000D+00  4.3388926465525D-01  8.9820921509351D-01
119  1.1800000000000D+00  3.7019484648209D-01  9.8817263312258D-01
120  1.1900000000000D+00  3.0629332984428D-01  1.0778664144071D+00
121  1.2000000000000D+00  2.4256333528594D-01  1.1665339435946D+00
122  1.2100000000000D+00  1.7938559083854D-01  1.2534166339935D+00
123  1.2200000000000D+00  1.1713941095105D-01  1.3377614129868D+00
124  1.2300000000000D+00  5.6199159238630D-02  1.4188282293057D+00
125  1.2400000000000D+00 -3.0692690592516D-03  1.4958975053644D+00
126  1.2500000000000D+00 -6.0311908731891D-02  1.5682774573554D+00
127  1.2600000000000D+00 -1.1519009512547D-01  1.6353112078876D+00
128  1.2700000000000D+00 -1.6738370838659D-01  1.6963836161516D+00
129  1.2800000000000D+00 -2.1659425734597D-01  1.7509277530199D+00
130  1.2900000000000D+00 -2.6254777146891D-01  1.7984309539170D+00
131  1.3000000000000D+00 -3.0499746938855D-01  1.8384403825002D+00
132  1.3100000000000D+00 -3.4372617539029D-01  1.8705680444004D+00
133  1.3200000000000D+00 -3.7854845937508D-01  1.8944951992345D+00
134  1.3300000000000D+00 -4.0931247452687D-01  1.9099761163049D+00
135  1.3400000000000D+00 -4.3590147332543D-01  1.9168411332505D+00
136  1.3500000000000D+00 -4.5823498663415D-01  1.9149989856821D+00
137  1.3600000000000D+00 -4.7626964719163D-01  1.9044383685498D+00
138  1.3700000000000D+00 -4.8999965208353D-01  1.8852287184600D+00
139  1.3800000000000D+00 -4.9945685551138D-01  1.8575201991391D+00
140  1.3900000000000D+00 -5.0471048664801D-01  1.8215428797255D+00
141  1.4000000000000D+00 -5.0586649918481D-01  1.7776051208930D+00
142  1.4100000000000D+00 -5.0306655034363D-01  1.7260911648789D+00
143  1.4200000000000D+00 -4.9648662271866D-01  1.6674579589176D+00
144  1.4300000000000D+00 -4.8633530049330D-01  1.6022312376435D+00
145  1.4400000000000D+00 -4.7285171136385D-01  1.5310008896164D+00
146  1.4500000000000D+00 -4.5630316125590D-01  1.4544156667806D+00
147  1.4600000000000D+00 -4.3698247503624D-01  1.3731772660111D+00
148  1.4700000000000D+00 -4.1520507630889D-01  1.2880338543873D+00
149  1.4800000000000D+00 -3.9130583012801D-01  1.1997730900377D+00
150  1.4900000000000D+00 -3.6563567965986D-01  1.1092147058159D+00
151  1.5000000000000D+00 -3.3855811253556D-01  1.0172027330124D+00
152  1.5100000000000D+00 -3.1044548647270D-01  9.2459742929013D-01
153  1.5200000000000D+00 -2.8167525598354D-01  8.3226700091682D-01
154  1.5300000000000D+00 -2.5262613238247D-01  7.4107918909682D-01
155  1.5400000000000D+00 -2.2367421885822D-01  6.5189281030602D-01
156  1.5500000000000D+00 -1.9518915617342D-01  5.6554932746455D-01
157  1.5600000000000D+00 -1.6753031929005D-01  4.8286453692667D-01
158  1.5700000000000D+00 -1.4104310221365D-01  4.0462046347983D-01
159  1.5800000000000D+00 -1.1605532234329D-01  3.3155748591058D-01
160  1.5900000000000D+00 -9.2873805849648D-02  2.6436695788090D-01
161  1.6000000000000D+00 -7.1781138350325D-02  2.0368406532962D-01
162  1.6100000000000D+00 -5.3032779921158D-02  1.5008144664187D-01
163  1.6200000000000D+00 -3.6867047374590D-02  1.0409953247082D-01
164  1.6300000000000D+00 -2.3428496305205D-02  6.6032873157028D-02
165  1.6400000000000D+00 -1.2857813562091D-02  3.6185192929365D-02
166  1.6500000000000D+00 -5.5300273936536D-03  1.5539371402171D-02
167  1.6600000000000D+00 -1.4719822609233D-03  4.1220666234963D-03
168  1.6700000000000D+00  1.1916779932013D-04 -3.4695327008748D-04
169  1.6800000000000D+00  2.7170158185208D-04 -7.6818108049540D-04
170  1.6900000000000D+00 -2.7332776269903D-05  7.7197767794172D-05
171  1.7000000000000D+00 -9.2641703912749D-05  2.6139663521603D-04
172  1.7100000000000D+00  3.6668247445470D-06 -1.0382006645522D-05
173  1.7200000000000D+00  1.7344125614825D-05 -4.9084569391548D-05
174  1.7300000000000D+00 -1.3011222009088D-09  7.9202113009882D-09
175  1.7400000000000D+00 -1.1167963868471D-08  6.7981803383500D-08
176  1.7500000000000D+00 -1.8375016718621D-10  1.1185268760230D-09
177  1.7600000000000D+00  0.0000000000000D+00  0.0000000000000D+00
178  1.7700000000000D+00  0.0000000000000D+00  0.0000000000000D+00
179  1.7800000000000D+00  0.0000000000000D+00  0.0000000000000D+00
180  1.7900000000000D+00  0.0000000000000D+00  0.0000000000000D+00
181  1.8000000000000D+00  0.0000000000000D+00  0.0000000000000D+00
182  1.8100000000000D+00  0.0000000000000D+00  0.0000000000000D+00
183  1.8200000000000D+00  0.0000000000000D+00  0.0000000000000D+00
184  1.8300000000000D+00  0.0000000000000D+00  0.0000000000000D+00
185  1.8400000000000D+00  0.0000000000000D+00  0.0000000000000D+00
186  1.8500000000000D+00  0.0000000000000D+00  0.0000000000000D+00
187  1.8600000000000D+00  0.0000000000000D+00  0.0000000000000D+00
188  1.8700000000000D+00  0.0000000000000D+00  0.0000000000000D+00
189  1.8800000000000D+00  0.0000000000000D+00  0.0000000000000D+00
190  1.8900000000000D+00  0.0000000000000D+00  0.0000000000000D+00
191  1.9000000000000D+00  0.0000000000000D+00  0.0000000000000D+00
192  1.9100000000000D+00  0.0000000000000D+00  0.0000000000000D+00
193  1.9200000000000D+00  0.0000000000000D+00  0.0000000000000D+00
194  1.9300000000000D+00  0.0000000000000D+00  0.0000000000000D+00
195  1.9400000000000D+00  0.0000000000000D+00  0.0000000000000D+00
196  1.9500000000000D+00  0.0000000000000D+00  0.0000000000000D+00
197  1.9600000000000D+00  0.0000000000000D+00  0.0000000000000D+00
198  1.9700000000000D+00  0.0000000000000D+00  0.0000000000000D+00
199  1.9800000000000D+00  0.0000000000000D+00  0.0000000000000D+00
200  1.9900000000000D+00  0.0000000000000D+00  0.0000000000000D+00
201  2.0000000000000D+00  0.0000000000000D+00  0.0000000000000D+00
202  2.0100000000000D+00  0.0000000000000D+00  0.0000000000000D+00
203  2.0200000000000D+00  0.0000000000000D+00  0.0000000000000D+00
204  2.0300000000000D+00  0.0000000000000D+00  0.0000000000000D+00
205  2.0400000000000D+00  0.0000000000000D+00  0.0000000000000D+00
206  2.0500000000000D+00  0.0000000000000D+00  0.0000000000000D+00
207  2.0600000000000D+00  0.0000000000000D+00  0.0000000000000D+00
208  2.0700000000000D+00  0.0000000000000D+00  0.0000000000000D+00
209  2.0800000000000D+00  0.0000000000000D+00  0.0000000000000D+00
210  2.0900000000000D+00  0.0000000000000D+00  0.0000000000000D+00
211  2.1000000000000D+00  0.0000000000000D+00  0.0000000000000D+00
212  2.1100000000000D+00  0.0000000000000D+00  0.0000000000000D+00
213  2.1200000000000D+00  0.0000000000000D+00  0.0000000000000D+00
214  2.1300000000000D+00  0.0000000000000D+00  0.0000000000000D+00
215  2.1400000000000D+00  0.0000000000000D+00  0.0000000000000D+00
216  2.1500000000000D+00  0.0000000000000D+00  0.0000000000000D+00
217  2.1600000000000D+00  0.0000000000000D+00  0.0000000000000D+00
218  2.1700000000000D+00  0.0000000000000D+00  0.0000000000000D+00
219  2.1800000000000D+00  0.0000000000000D+00  0.0000000000000D+00
220  2.1900000000000D+00  0.0000000000000D+00  0.0000000000000D+00
221  2.2000000000000D+00  0.0000000000000D+00  0.0000000000000D+00
222  2.2100000000000D+00  0.0000000000000D+00  0.0000000000000D+00
223  2.2200000000000D+00  0.0000000000000D+00  0.0000000000000D+00
224  2.2300000000000D+00  0.0000000000000D+00  0.0000000000000D+00
225  2.2400000000000D+00  0.0000000000000D+00  0.0000000000000D+00
226  2.2500000000000D+00  0.0000000000000D+00  0.0000000000000D+00
227  2.2600000000000D+00  0.0000000000000D+00  0.0000000000000D+00
228  2.2700000000000D+00  0.0000000000000D+00  0.0000000000000D+00
229  2.2800000000000D+00  0.0000000000000D+00  0.0000000000000D+00
230  2.2900000000000D+00  0.0000000000000D+00  0.0000000000000D+00
231  2.3000000000000D+00  0.0000000000000D+00  0.0000000000000D+00
232  2.3100000000000D+00  0.0000000000000D+00  0.0000000000000D+00
233  2.3200000000000D+00  0.0000000000000D+00  0.0000000000000D+00
234  2.3300000000000D+00  0.0000000000000D+00  0.0000000000000D+00
235  2.3400000000000D+00  0.0000000000000D+00  0.0000000000000D+00
236  2.3500000000000D+00  0.0000000000000D+00  0.0000000000000D+00
237  2.3600000000000D+00  0.0000000000000D+00  0.0000000000000D+00
238  2.3700000000000D+00  0.0000000000000D+00  0.0000000000000D+00
239  2.3800000000000D+00  0.0000000000000D+00  0.0000000000000D+00
240  2.3900000000000D+00  0.0000000000000D+00  0.0000000000000D+00
241  2.4000000000000D+00  0.0000000000000D+00  0.0000000000000D+00
242  2.4100000000000D+00  0.0000000000000D+00  0.0000000000000D+00
243  2.4200000000000D+00  0.0000000000000D+00  0.0000000000000D+00
244  2.4300000000000D+00  0.0000000000000D+00  0.0000000000000D+00
245  2.4400000000000D+00  0.0000000000000D+00  0.0000000000000D+00
246  2.4500000000000D+00  0.0000000000000D+00  0.0000000000000D+00
247  2.4600000000000D+00  0.0000000000000D+00  0.0000000000000D+00
248  2.4700000000000D+00  0.0000000000000D+00  0.0000000000000D+00
249  2.4800000000000D+00  0.0000000000000D+00  0.0000000000000D+00
250  2.4900000000000D+00  0.0000000000000D+00  0.0000000000000D+00
251  2.5000000000000D+00  0.0000000000000D+00  0.0000000000000D+00
252  2.5100000000000D+00  0.0000000000000D+00  0.0000000000000D+00
253  2.5200000000000D+00  0.0000000000000D+00  0.0000000000000D+00
254  2.5300000000000D+00  0.0000000000000D+00  0.0000000000000D+00
255  2.5400000000000D+00  0.0000000000000D+00  0.0000000000000D+00
256  2.5500000000000D+00  0.0000000000000D+00  0.0000000000000D+00
257  2.5600000000000D+00  0.0000000000000D+00  0.0000000000000D+00
258  2.5700000000000D+00  0.0000000000000D+00  0.0000000000000D+00
259  2.5800000000000D+00  0.0000000000000D+00  0.0000000000000D+00
260  2.5900000000000D+00  0.0000000000000D+00  0.0000000000000D+00
261  2.6000000000000D+00  0.0000000000000D+00  0.0000000000000D+00
262  2.6100000000000D+00  0.0000000000000D+00  0.0000000000000D+00
263  2.6200000000000D+00  0.0000000000000D+00  0.0000000000000D+00
264  2.6300000000000D+00  0.0000000000000D+00  0.0000000000000D+00
265  2.6400000000000D+00  0.0000000000000D+00  0.0000000000000D+00
266  2.6500000000000D+00  0.0000000000000D+00  0.0000000000000D+00
267  2.6600000000000D+00  0.0000000000000D+00  0.0000000000000D+00
268  2.6700000000000D+00  0.0000000000000D+00  0.0000000000000D+00
269  2.6800000000000D+00  0.0000000000000D+00  0.0000000000000D+00
270  2.6900000000000D+00  0.0000000000000D+00  0.0000000000000D+00
271  2.7000000000000D+00  0.0000000000000D+00  0.0000000000000D+00
272  2.7100000000000D+00  0.0000000000000D+00  0.0000000000000D+00
273  2.7200000000000D+00  0.0000000000000D+00  0.0000000000000D+00
274  2.7300000000000D+00  0.0000000000000D+00  0.0000000000000D+00
275  2.7400000000000D+00  0.0000000000000D+00  0.0000000000000D+00
276  2.7500000000000D+00  0.0000000000000D+00  0.0000000000000D+00
277  2.7600000000000D+00  0.0000000000000D+00  0.0000000000000D+00
278  2.7700000000000D+00  0.0000000000000D+00  0.0000000000000D+00
279  2.7800000000000D+00  0.0000000000000D+00  0.0000000000000D+00
280  2.7900000000000D+00  0.0000000000000D+00  0.0000000000000D+00
281  2.8000000000000D+00  0.0000000000000D+00  0.0000000000000D+00
282  2.8100000000000D+00  0.0000000000000D+00  0.0000000000000D+00
283  2.8200000000000D+00  0.0000000000000D+00  0.0000000000000D+00
284  2.8300000000000D+00  0.0000000000000D+00  0.0000000000000D+00
285  2.8400000000000D+00  0.0000000000000D+00  0.0000000000000D+00
286  2.8500000000000D+00  0.0000000000000D+00  0.0000000000000D+00
287  2.8600000000000D+00  0.0000000000000D+00  0.0000000000000D+00
288  2.8700000000000D+00  0.0000000000000D+00  0.0000000000000D+00
289  2.8800000000000D+00  0.0000000000000D+00  0.0000000000000D+00
290  2.8900000000000D+00  0.0000000000000D+00  0.0000000000000D+00
291  2.9000000000000D+00  0.0000000000000D+00  0.0000000000000D+00
292  2.9100000000000D+00  0.0000000000000D+00  0.0000000000000D+00
293  2.9200000000000D+00  0.0000000000000D+00  0.0000000000000D+00
294  2.9300000000000D+00  0.0000000000000D+00  0.0000000000000D+00
295  2.9400000000000D+00  0.0000000000000D+00  0.0000000000000D+00
296  2.9500000000000D+00  0.0000000000000D+00  0.0000000000000D+00
297  2.9600000000000D+00  0.0000000000000D+00  0.0000000000000D+00
298  2.9700000000000D+00  0.0000000000000D+00  0.0000000000000D+00
299  2.9800000000000D+00  0.0000000000000D+00  0.0000000000000D+00
300  2.9900000000000D+00  0.0000000000000D+00  0.0000000000000D+00
301  3.0000000000000D+00  0.0000000000000D+00  0.0000000000000D+00
302  3.0100000000000D+00  0.0000000000000D+00  0.0000000000000D+00
303  3.0200000000000D+00  0.0000000000000D+00  0.0000000000000D+00
304  3.0300000000000D+00  0.0000000000000D+00  0.0000000000000D+00
305  3.0400000000000D+00  0.0000000000000D+00  0.0000000000000D+00
306  3.0500000000000D+00  0.0000000000000D+00  0.0000000000000D+00
307  3.0600000000000D+00  0.0000000000000D+00  0.0000000000000D+00
308  3.0700000000000D+00  0.0000000000000D+00  0.0000000000000D+00
309  3.0800000000000D+00  0.0000000000000D+00  0.0000000000000D+00
310  3.0900000000000D+00  0.0000000000000D+00  0.0000000000000D+00
311  3.1000000000000D+00  0.0000000000000D+00  0.0000000000000D+00
312  3.1100000000000D+00  0.0000000000000D+00  0.0000000000000D+00
313  3.1200000000000D+00  0.0000000000000D+00  0.0000000000000D+00
314  3.1300000000000D+00  0.0000000000000D+00  0.0000000000000D+00
315  3.1400000000000D+00  0.0000000000000D+00  0.0000000000000D+00
316  3.1500000000000D+00  0.0000000000000D+00  0.0000000000000D+00
317  3.1600000000000D+00  0.0000000000000D+00  0.0000000000000D+00
318  3.1700000000000D+00  0.0000000000000D+00  0.0000000000000D+00
319  3.1800000000000D+00  0.0000000000000D+00  0.0000000000000D+00
320  3.1900000000000D+00  0.0000000000000D+00  0.0000000000000D+00
321  3.2000000000000D+00  0.0000000000000D+00  0.0000000000000D+00
322  3.2100000000000D+00  0.0000000000000D+00  0.0000000000000D+00
323  3.2200000000000D+00  0.0000000000000D+00  0.0000000000000D+00
324  3.2300000000000D+00  0.0000000000000D+00  0.0000000000000D+00
325  3.2400000000000D+00  0.0000000000000D+00  0.0000000000000D+00
326  3.2500000000000D+00  0.0000000000000D+00  0.0000000000000D+00
327  3.2600000000000D+00  0.0000000000000D+00  0.0000000000000D+00
328  3.2700000000000D+00  0.0000000000000D+00  0.0000000000000D+00
329  3.2800000000000D+00  0.0000000000000D+00  0.0000000000000D+00
330  3.2900000000000D+00  0.0000000000000D+00  0.0000000000000D+00
331  3.3000000000000D+00  0.0000000000000D+00  0.0000000000000D+00
332  3.3100000000000D+00  0.0000000000000D+00  0.0000000000000D+00
333  3.3200000000000D+00  0.0000000000000D+00  0.0000000000000D+00
334  3.3300000000000D+00  0.0000000000000D+00  0.0000000000000D+00
335  3.3400000000000D+00  0.0000000000000D+00  0.0000000000000D+00
336  3.3500000000000D+00  0.0000000000000D+00  0.0000000000000D+00
337  3.3600000000000D+00  0.0000000000000D+00  0.0000000000000D+00
338  3.3700000000000D+00  0.0000000000000D+00  0.0000000000000D+00
339  3.3800000000000D+00  0.0000000000000D+00  0.0000000000000D+00
340  3.3900000000000D+00  0.0000000000000D+00  0.0000000000000D+00
341  3.4000000000000D+00  0.0000000000000D+00  0.0000000000000D+00
342  3.4100000000000D+00  0.0000000000000D+00  0.0000000000000D+00
343  3.4200000000000D+00  0.0000000000000D+00  0.0000000000000D+00
344  3.4300000000000D+00  0.0000000000000D+00  0.0000000000000D+00
345  3.4400000000000D+00  0.0000000000000D+00  0.0000000000000D+00
346  3.4500000000000D+00  0.0000000000000D+00  0.0000000000000D+00
347  3.4600000000000D+00  0.0000000000000D+00  0.0000000000000D+00
348  3.4700000000000D+00  0.0000000000000D+00  0.0000000000000D+00
349  3.4800000000000D+00  0.0000000000000D+00  0.0000000000000D+00
350  3.4900000000000D+00  0.0000000000000D+00  0.0000000000000D+00
351  3.5000000000000D+00  0.0000000000000D+00  0.0000000000000D+00
352  3.5100000000000D+00  0.0000000000000D+00  0.0000000000000D+00
353  3.5200000000000D+00  0.0000000000000D+00  0.0000000000000D+00
354  3.5300000000000D+00  0.0000000000000D+00  0.0000000000000D+00
355  3.5400000000000D+00  0.0000000000000D+00  0.0000000000000D+00
356  3.5500000000000D+00  0.0000000000000D+00  0.0000000000000D+00
357  3.5600000000000D+00  0.0000000000000D+00  0.0000000000000D+00
358  3.5700000000000D+00  0.0000000000000D+00  0.0000000000000D+00
359  3.5800000000000D+00  0.0000000000000D+00  0.0000000000000D+00
360  3.5900000000000D+00  0.0000000000000D+00  0.0000000000000D+00
361  3.6000000000000D+00  0.0000000000000D+00  0.0000000000000D+00
362  3.6100000000000D+00  0.0000000000000D+00  0.0000000000000D+00
363  3.6200000000000D+00  0.0000000000000D+00  0.0000000000000D+00
364  3.6300000000000D+00  0.0000000000000D+00  0.0000000000000D+00
365  3.6400000000000D+00  0.0000000000000D+00  0.0000000000000D+00
366  3.6500000000000D+00  0.0000000000000D+00  0.0000000000000D+00
367  3.6600000000000D+00  0.0000000000000D+00  0.0000000000000D+00
368  3.6700000000000D+00  0.0000000000000D+00  0.0000000000000D+00
369  3.6800000000000D+00  0.0000000000000D+00  0.0000000000000D+00
370  3.6900000000000D+00  0.0000000000000D+00  0.0000000000000D+00
371  3.7000000000000D+00  0.0000000000000D+00  0.0000000000000D+00
372  3.7100000000000D+00  0.0000000000000D+00  0.0000000000000D+00
373  3.7200000000000D+00  0.0000000000000D+00  0.0000000000000D+00
374  3.7300000000000D+00  0.0000000000000D+00  0.0000000000000D+00
375  3.7400000000000D+00  0.0000000000000D+00  0.0000000000000D+00
376  3.7500000000000D+00  0.0000000000000D+00  0.0000000000000D+00
377  3.7600000000000D+00  0.0000000000000D+00  0.0000000000000D+00
378  3.7700000000000D+00  0.0000000000000D+00  0.0000000000000D+00
379  3.7800000000000D+00  0.0000000000000D+00  0.0000000000000D+00
380  3.7900000000000D+00  0.0000000000000D+00  0.0000000000000D+00
381  3.8000000000000D+00  0.0000000000000D+00  0.0000000000000D+00
382  3.8100000000000D+00  0.0000000000000D+00  0.0000000000000D+00
383  3.8200000000000D+00  0.0000000000000D+00  0.0000000000000D+00
384  3.8300000000000D+00  0.0000000000000D+00  0.0000000000000D+00
385  3.8400000000000D+00  0.0000000000000D+00  0.0000000000000D+00
386  3.8500000000000D+00  0.0000000000000D+00  0.0000000000000D+00
387  3.8600000000000D+00  0.0000000000000D+00  0.0000000000000D+00
388  3.8700000000000D+00  0.0000000000000D+00  0.0000000000000D+00
389  3.8800000000000D+00  0.0000000000000D+00  0.0000000000000D+00
390  3.8900000000000D+00  0.0000000000000D+00  0.0000000000000D+00
391  3.9000000000000D+00  0.0000000000000D+00  0.0000000000000D+00
392  3.9100000000000D+00  0.0000000000000D+00  0.0000000000000D+00
393  3.9200000000000D+00  0.0000000000000D+00  0.0000000000000D+00
394  3.9300000000000D+00  0.0000000000000D+00  0.0000000000000D+00
395  3.9400000000000D+00  0.0000000000000D+00  0.0000000000000D+00
396  3.9500000000000D+00  0.0000000000000D+00  0.0000000000000D+00
397  3.9600000000000D+00  0.0000000000000D+00  0.0000000000000D+00
398  3.9700000000000D+00  0.0000000000000D+00  0.0000000000000D+00
399  3.9800000000000D+00  0.0000000000000D+00  0.0000000000000D+00
400  3.9900000000000D+00  0.0000000000000D+00  0.0000000000000D+00
401  4.0000000000000D+00  0.0000000000000D+00  0.0000000000000D+00
402  4.0100000000000D+00  0.0000000000000D+00  0.0000000000000D+00
403  4.0200000000000D+00  0.0000000000000D+00  0.0000000000000D+00
404  4.0300000000000D+00  0.0000000000000D+00  0.0000000000000D+00
405  4.0400000000000D+00  0.0000000000000D+00  0.0000000000000D+00
406  4.0500000000000D+00  0.0000000000000D+00  0.0000000000000D+00
407  4.0600000000000D+00  0.0000000000000D+00  0.0000000000000D+00
408  4.0700000000000D+00  0.0000000000000D+00  0.0000000000000D+00
409  4.0800000000000D+00  0.0000000000000D+00  0.0000000000000D+00
410  4.0900000000000D+00  0.0000000000000D+00  0.0000000000000D+00
411  4.1000000000000D+00  0.0000000000000D+00  0.0000000000000D+00
412  4.1100000000000D+00  0.0000000000000D+00  0.0000000000000D+00
413  4.1200000000000D+00  0.0000000000000D+00  0.0000000000000D+00
414  4.1300000000000D+00  0.0000000000000D+00  0.0000000000000D+00
415  4.1400000000000D+00  0.0000000000000D+00  0.0000000000000D+00
416  4.1500000000000D+00  0.0000000000000D+00  0.0000000000000D+00
417  4.1600000000000D+00  0.0000000000000D+00  0.0000000000000D+00
418  4.1700000000000D+00  0.0000000000000D+00  0.0000000000000D+00
419  4.1800000000000D+00  0.0000000000000D+00  0.0000000000000D+00
420  4.1900000000000D+00  0.0000000000000D+00  0.0000000000000D+00
421  4.2000000000000D+00  0.0000000000000D+00  0.0000000000000D+00
422  4.2100000000000D+00  0.0000000000000D+00  0.0000000000000D+00
423  4.2200000000000D+00  0.0000000000000D+00  0.0000000000000D+00
424  4.2300000000000D+00  0.0000000000000D+00  0.0000000000000D+00
425  4.2400000000000D+00  0.0000000000000D+00  0.0000000000000D+00
426  4.2500000000000D+00  0.0000000000000D+00  0.0000000000000D+00
427  4.2600000000000D+00  0.0000000000000D+00  0.0000000000000D+00
428  4.2700000000000D+00  0.0000000000000D+00  0.0000000000000D+00
429  4.2800000000000D+00  0.0000000000000D+00  0.0000000000000D+00
430  4.2900000000000D+00  0.0000000000000D+00  0.0000000000000D+00
431  4.3000000000000D+00  0.0000000000000D+00  0.0000000000000D+00
432  4.3100000000000D+00  0.0000000000000D+00  0.0000000000000D+00
433  4.3200000000000D+00  0.0000000000000D+00  0.0000000000000D+00
434  4.3300000000000D+00  0.0000000000000D+00  0.0000000000000D+00
435  4.3400000000000D+00  0.0000000000000D+00  0.0000000000000D+00
436  4.3500000000000D+00  0.0000000000000D+00  0.0000000000000D+00
437  4.3600000000000D+00  0.0000000000000D+00  0.0000000000000D+00
438  4.3700000000000D+00  0.0000000000000D+00  0.0000000000000D+00
439  4.3800000000000D+00  0.0000000000000D+00  0.0000000000000D+00
440  4.3900000000000D+00  0.0000000000000D+00  0.0000000000000D+00
441  4.4000000000000D+00  0.0000000000000D+00  0.0000000000000D+00
442  4.4100000000000D+00  0.0000000000000D+00  0.0000000000000D+00
443  4.4200000000000D+00  0.0000000000000D+00  0.0000000000000D+00