Ga    ONCVPSP-3.2.3  r_core=   1.85767   1.81388   2.62545
31.0000      3.0000      161210    zatom,zion,pspd
8   -1012   2     4   600     0    pspcod,pspxc,lmax,lloc,mmax,r2well
5.99000000  0.50000000  0.00000000    rchrg fchrg qchrg
2     2     2     0     0    nproj
1     1           extension_switch
0                         6.1807573466131D+00  6.0747053156303D-01
1  0.0000000000000D+00 -4.3040571107156D-13  1.3343631755092D-11
2  1.0000000000000D-02  2.7282202961752D-02 -1.7677672529523D-02
3  2.0000000000000D-02  5.4555538299039D-02 -3.5323730859754D-02
4  3.0000000000000D-02  8.1811122826615D-02 -5.2906649664818D-02
5  4.0000000000000D-02  1.0904004227870D-01 -7.0395080835874D-02
6  5.0000000000000D-02  1.3623333587138D-01 -8.7757940768570D-02
7  6.0000000000000D-02  1.6338198098857D-01 -1.0496449607469D-01
8  7.0000000000000D-02  1.9047687803320D-01 -1.2198444720859D-01
9  8.0000000000000D-02  2.1750883548598D-01 -1.3878800951242D-01
10  9.0000000000000D-02  2.4446855521427D-01 -1.5534599120067D-01
11  1.0000000000000D-01  2.7134661807481D-01 -1.7162986782465D-01
12  1.1000000000000D-01  2.9813346985415D-01 -1.8761185277993D-01
13  1.2000000000000D-01  3.2481940759210D-01 -2.0326496344583D-01
14  1.3000000000000D-01  3.5139456633394D-01 -2.1856308257431D-01
15  1.4000000000000D-01  3.7784890635833D-01 -2.3348101457662D-01
16  1.5000000000000D-01  4.0417220092872D-01 -2.4799453638961D-01
17  1.6000000000000D-01  4.3035402461714D-01 -2.6208044263936D-01
18  1.7000000000000D-01  4.5638374225025D-01 -2.7571658485724D-01
19  1.8000000000000D-01  4.8225049852845D-01 -2.8888190454336D-01
20  1.9000000000000D-01  5.0794320836983D-01 -3.0155645991311D-01
21  2.0000000000000D-01  5.3345054803181D-01 -3.1372144620537D-01
22  2.1000000000000D-01  5.5876094706388D-01 -3.2535920947411D-01
23  2.2000000000000D-01  5.8386258114571D-01 -3.3645325382969D-01
24  2.3000000000000D-01  6.0874336586574D-01 -3.4698824214119D-01
25  2.4000000000000D-01  6.3339095149524D-01 -3.5694999025609D-01
26  2.5000000000000D-01  6.5779271881405D-01 -3.6632545483946D-01
27  2.6000000000000D-01  6.8193577604328D-01 -3.7510271497893D-01
28  2.7000000000000D-01  7.0580695694121D-01 -3.8327094774753D-01
29  2.8000000000000D-01  7.2939282011754D-01 -3.9082039795897D-01
30  2.9000000000000D-01  7.5267964962105D-01 -3.9774234239319D-01
31  3.0000000000000D-01  7.7565345685471D-01 -4.0402904881136D-01
32  3.1000000000000D-01  7.9829998387130D-01 -4.0967373011859D-01
33  3.2000000000000D-01  8.2060470810094D-01 -4.1467049407082D-01
34  3.3000000000000D-01  8.4255284856056D-01 -4.1901428895758D-01
35  3.4000000000000D-01  8.6412937359290D-01 -4.2270084572555D-01
36  3.5000000000000D-01  8.8531901018034D-01 -4.2572661703821D-01
37  3.6000000000000D-01  9.0610625487591D-01 -4.2808871379413D-01
38  3.7000000000000D-01  9.2647538639092D-01 -4.2978483965154D-01
39  3.8000000000000D-01  9.4641047987453D-01 -4.3081322412691D-01
40  3.9000000000000D-01  9.6589542291704D-01 -4.3117255485372D-01
41  4.0000000000000D-01  9.8491393330395D-01 -4.3086190960083D-01
42  4.1000000000000D-01  1.0034495785430D+00 -4.2988068865992D-01
43  4.2000000000000D-01  1.0214857971816D+00 -4.2822854821828D-01
44  4.3000000000000D-01  1.0390059219251D+00 -4.2590533533383D-01
45  4.4000000000000D-01  1.0559932045626D+00 -4.2291102512829D-01
46  4.5000000000000D-01  1.0724308426971D+00 -4.1924566080737D-01
47  4.6000000000000D-01  1.0883020082742D+00 -4.1490929710624D-01
48  4.7000000000000D-01  1.1035898778917D+00 -4.0990194774330D-01
49  4.8000000000000D-01  1.1182776648685D+00 -4.0422353744669D-01
50  4.9000000000000D-01  1.1323486530418D+00 -3.9787385909349D-01
51  5.0000000000000D-01  1.1457862322521D+00 -3.9085253647464D-01
52  5.1000000000000D-01  1.1585739354702D+00 -3.8315899316625D-01
53  5.2000000000000D-01  1.1706954775078D+00 -3.7479242795267D-01
54  5.3000000000000D-01  1.1821347952468D+00 -3.6575179720683D-01
55  5.4000000000000D-01  1.1928760893123D+00 -3.5603580458982D-01
56  5.5000000000000D-01  1.2029038671056D+00 -3.4564289838595D-01
57  5.6000000000000D-01  1.2122029871023D+00 -3.3457127673819D-01
58  5.7000000000000D-01  1.2207587043128D+00 -3.2281890099732D-01
59  5.8000000000000D-01  1.2285567167925D+00 -3.1038351734158D-01
60  5.9000000000000D-01  1.2355832130798D+00 -2.9726268676589D-01
61  6.0000000000000D-01  1.2418249204282D+00 -2.8345382347988D-01
62  6.1000000000000D-01  1.2472691536941D+00 -2.6895424169122D-01
63  6.2000000000000D-01  1.2519038647281D+00 -2.5376121068840D-01
64  6.3000000000000D-01  1.2557176921120D+00 -2.3787201807247D-01
65  6.4000000000000D-01  1.2587000110737D+00 -2.2128404092153D-01
66  6.5000000000000D-01  1.2608409834050D+00 -2.0399482460856D-01
67  6.6000000000000D-01  1.2621316071991D+00 -1.8600216892566D-01
68  6.7000000000000D-01  1.2625637662169D+00 -1.6730422110525D-01
69  6.8000000000000D-01  1.2621302786864D+00 -1.4789957526514D-01
70  6.9000000000000D-01  1.2608249453331D+00 -1.2778737774191D-01
71  7.0000000000000D-01  1.2586425964311D+00 -1.0696743771752D-01
72  7.1000000000000D-01  1.2555791376658D+00 -8.5440342486525D-02
73  7.2000000000000D-01  1.2516315945898D+00 -6.3207576656467D-02
74  7.3000000000000D-01  1.2467981554549D+00 -4.0271644522260D-02
75  7.4000000000000D-01  1.2410782121987D+00 -1.6636194807202D-02
76  7.5000000000000D-01  1.2344723993649D+00  7.6938530802313D-03
77  7.6000000000000D-01  1.2269826307360D+00  3.2712182164378D-02
78  7.7000000000000D-01  1.2186121334578D+00  5.8410951321422D-02
79  7.8000000000000D-01  1.2093654794381D+00  8.4780669953964D-02
80  7.9000000000000D-01  1.1992486138059D+00  1.1181007490106D-01
81  8.0000000000000D-01  1.1882688802195D+00  1.3948601058205D-01
82  8.1000000000000D-01  1.1764350428211D+00  1.6779331338458D-01
83  8.2000000000000D-01  1.1637573046394D+00  1.9671470131414D-01
84  8.3000000000000D-01  1.1502473222520D+00  2.2623066992221D-01
85  8.4000000000000D-01  1.1359182165263D+00  2.5631939552293D-01
86  8.5000000000000D-01  1.1207845792719D+00  2.8695664669615D-01
87  8.6000000000000D-01  1.1048624756446D+00  3.1811570505287D-01
88  8.7000000000000D-01  1.0881694421585D+00  3.4976729621295D-01
89  8.8000000000000D-01  1.0707244801757D+00  3.8187953191166D-01
90  8.9000000000000D-01  1.0525480447576D+00  4.1441786410902D-01
91  9.0000000000000D-01  1.0336620287786D+00  4.4734505193057D-01
92  9.1000000000000D-01  1.0140897422204D+00  4.8062114221249D-01
93  9.2000000000000D-01  9.9385588658344D-01  5.1420346436382D-01
94  9.3000000000000D-01  9.7298652437085D-01  5.4804664019252D-01
95  9.4000000000000D-01  9.5150904361960D-01  5.8210260926803D-01
96  9.5000000000000D-01  9.2945211747675D-01  6.1632067031476D-01
97  9.6000000000000D-01  9.0684565883735D-01  6.5064753904838D-01
98  9.7000000000000D-01  8.8372077008456D-01  6.8502742277597D-01
99  9.8000000000000D-01  8.6010968799442D-01  7.1940211198906D-01
100  9.9000000000000D-01  8.3604572389109D-01  7.5371108908047D-01
101  1.0000000000000D+00  8.1156319916133D-01  7.8789165421527D-01
102  1.0100000000000D+00  7.8669737626091D-01  8.2187906828199D-01
103  1.0200000000000D+00  7.6148438536942D-01  8.5560671274183D-01
104  1.0300000000000D+00  7.3596114687297D-01  8.8900626608839D-01
105  1.0400000000000D+00  7.1016528987797D-01  9.2200789651900D-01
106  1.0500000000000D+00  6.8413506698289D-01  9.5454047030607D-01
107  1.0600000000000D+00  6.5790926555695D-01  9.8653177524961D-01
108  1.0700000000000D+00  6.3152711579736D-01  1.0179087584804D+00
109  1.0800000000000D+00  6.0502819585859D-01  1.0485977777723D+00
110  1.0900000000000D+00  5.7845233436624D-01  1.0785248654252D+00
111  1.1000000000000D+00  5.5183951065094D-01  1.1076160036620D+00
112  1.1100000000000D+00  5.2522975305386D-01  1.1357974103931D+00
113  1.1200000000000D+00  4.9866303567526D-01  1.1629958340975D+00
114  1.1300000000000D+00  4.7217917395134D-01  1.1891388564897D+00
115  1.1400000000000D+00  4.4581771946245D-01  1.2141552015410D+00
116  1.1500000000000D+00  4.1961785438772D-01  1.2379750493512D+00
117  1.1600000000000D+00  3.9361828603396D-01  1.2605303532865D+00
118  1.1700000000000D+00  3.6785714187497D-01  1.2817551587465D+00
119  1.1800000000000D+00  3.4237186554878D-01  1.3015859218459D+00
120  1.1900000000000D+00  3.1719911426505D-01  1.3199618262543D+00
121  1.2000000000000D+00  2.9237465807933D-01  1.3368250963951D+00
122  1.2100000000000D+00  2.6793328149450D-01  1.3521213051752D+00
123  1.2200000000000D+00  2.4390868785025D-01  1.3657996743781D+00
124  1.2300000000000D+00  2.2033340695773D-01  1.3778133658573D+00
125  1.2400000000000D+00  1.9723870643638D-01  1.3881197616518D+00
126  1.2500000000000D+00  1.7465450720208D-01  1.3966807311477D+00
127  1.2600000000000D+00  1.5260930354470D-01  1.4034628834458D+00
128  1.2700000000000D+00  1.3113008822926D-01  1.4084378030966D+00
129  1.2800000000000D+00  1.1024228303965D-01  1.4115822674101D+00
130  1.2900000000000D+00  8.9969675161814D-02  1.4128784436229D+00
131  1.3000000000000D+00  7.0334359800856D-02  1.4123140642134D+00
132  1.3100000000000D+00  5.1356689400288D-02  1.4098825787463D+00
133  1.3200000000000D+00  3.3055229796853D-02  1.4055832807650D+00
134  1.3300000000000D+00  1.5446723654927D-02  1.3994214082077D+00
135  1.3400000000000D+00 -1.4539385295263D-03  1.3914082160297D+00
136  1.3500000000000D+00 -1.7633739599787D-02  1.3815610198649D+00
137  1.3600000000000D+00 -3.3081548799185D-02  1.3699032094293D+00
138  1.3700000000000D+00 -4.7788126548803D-02  1.3564642308363D+00
139  1.3800000000000D+00 -6.1746120743633D-02  1.3412795368886D+00
140  1.3900000000000D+00 -7.4950054394432D-02  1.3243905045167D+00
141  1.4000000000000D+00 -8.7396304552820D-02  1.3058443190057D+00
142  1.4100000000000D+00 -9.9083072374524D-02  1.2856938242981D+00
143  1.4200000000000D+00 -1.1001034431918D-01  1.2639973392764D+00
144  1.4300000000000D+00 -1.2017984447944D-01  1.2408184399084D+00
145  1.4400000000000D+00 -1.2959497801345D-01  1.2162257070540D+00
146  1.4500000000000D+00 -1.3826076584228D-01  1.1902924405509D+00
147  1.4600000000000D+00 -1.4618377060648D-01  1.1630963394668D+00
148  1.4700000000000D+00 -1.5337201411483D-01  1.1347191494484D+00
149  1.4800000000000D+00 -1.5983488642229D-01  1.1052462776804D+00
150  1.4900000000000D+00 -1.6558304673497D-01  1.0747663762310D+00
151  1.5000000000000D+00 -1.7062831648154D-01  1.0433708951834D+00
152  1.5100000000000D+00 -1.7498356470431D-01  1.0111536061377D+00
153  1.5200000000000D+00 -1.7866258626542D-01  9.7821009816122D-01
154  1.5300000000000D+00 -1.8167997306186D-01  9.4463724695111D-01
155  1.5400000000000D+00 -1.8405097878781D-01  9.1053265947335D-01
156  1.5500000000000D+00 -1.8579137757274D-01  8.7599409542502D-01
157  1.5600000000000D+00 -1.8691731661264D-01  8.4111886405850D-01
158  1.5700000000000D+00 -1.8744516585592D-01  8.0600322201107D-01
159  1.5800000000000D+00 -1.8739135490781D-01  7.7074168289934D-01
160  1.5900000000000D+00 -1.8677223031735D-01  7.3542651688831D-01
161  1.6000000000000D+00 -1.8560387375764D-01  7.0014695959681D-01
162  1.6100000000000D+00 -1.8390189690969D-01  6.6498815927736D-01
163  1.6200000000000D+00 -1.8168139465736D-01  6.3003163795830D-01
164  1.6300000000000D+00 -1.7895687855252D-01  5.9535559092634D-01
165  1.6400000000000D+00 -1.7574226720546D-01  5.6103531634742D-01
166  1.6500000000000D+00 -1.7205090438588D-01  5.2714392405600D-01
167  1.6600000000000D+00 -1.6789542603174D-01  4.9375155716640D-01
168  1.6700000000000D+00 -1.6328765844004D-01  4.6092483319387D-01
169  1.6800000000000D+00 -1.5823854299251D-01  4.2872661295679D-01
170  1.6900000000000D+00 -1.5275804172524D-01  3.9721553345663D-01
171  1.7000000000000D+00 -1.4685505372783D-01  3.6644564187008D-01
172  1.7100000000000D+00 -1.4053733135456D-01  3.3646601171725D-01
173  1.7200000000000D+00 -1.3381139983365D-01  3.0732037573710D-01
174  1.7300000000000D+00 -1.2668247999579D-01  2.7904677172824D-01
175  1.7400000000000D+00 -1.1915441460806D-01  2.5167720383831D-01
176  1.7500000000000D+00 -1.1122959839620D-01  2.2523731979079D-01
177  1.7600000000000D+00 -1.0290891231177D-01  1.9974610692061D-01
178  1.7700000000000D+00 -9.4191661991051D-02  1.7521560678500D-01
179  1.7800000000000D+00 -8.5075521039896D-02  1.5165065164784D-01
180  1.7900000000000D+00 -7.5556478969729D-02  1.2904862195097D-01
181  1.8000000000000D+00 -6.5574663432308D-02  1.0733490348647D-01
182  1.8100000000000D+00 -5.5246612159886D-02  8.6638754245584D-02
183  1.8200000000000D+00 -4.4877584908488D-02  6.7316928380031D-02
184  1.8300000000000D+00 -3.3731719804426D-02  4.8456475220469D-02
185  1.8400000000000D+00 -2.0607695296740D-02  2.8552557546451D-02
186  1.8500000000000D+00 -7.2860602621817D-03  9.7631706535930D-03
187  1.8600000000000D+00  1.1635014979920D-03 -1.7254229759724D-03
188  1.8700000000000D+00  2.1897955285516D-03 -3.0335307421252D-03
189  1.8800000000000D+00 -3.8700536604632D-06  5.4628346518285D-06
190  1.8900000000000D+00 -5.8268603031049D-04  8.1788540203400D-04
191  1.9000000000000D+00 -1.7876324471662D-04  2.5005891651360D-04
192  1.9100000000000D+00  7.0515954210144D-05 -1.0267399024073D-04
193  1.9200000000000D+00  4.9911869020035D-05 -7.2555572278332D-05
194  1.9300000000000D+00 -1.6649984705152D-07  5.0695712946128D-07
195  1.9400000000000D+00 -2.2542687711590D-07  6.8637758262166D-07
196  1.9500000000000D+00  0.0000000000000D+00  0.0000000000000D+00
197  1.9600000000000D+00  0.0000000000000D+00  0.0000000000000D+00
198  1.9700000000000D+00  0.0000000000000D+00  0.0000000000000D+00
199  1.9800000000000D+00  0.0000000000000D+00  0.0000000000000D+00
200  1.9900000000000D+00  0.0000000000000D+00  0.0000000000000D+00
201  2.0000000000000D+00  0.0000000000000D+00  0.0000000000000D+00
202  2.0100000000000D+00  0.0000000000000D+00  0.0000000000000D+00
203  2.0200000000000D+00  0.0000000000000D+00  0.0000000000000D+00
204  2.0300000000000D+00  0.0000000000000D+00  0.0000000000000D+00
205  2.0400000000000D+00  0.0000000000000D+00  0.0000000000000D+00
206  2.0500000000000D+00  0.0000000000000D+00  0.0000000000000D+00
207  2.0600000000000D+00  0.0000000000000D+00  0.0000000000000D+00
208  2.0700000000000D+00  0.0000000000000D+00  0.0000000000000D+00
209  2.0800000000000D+00  0.0000000000000D+00  0.0000000000000D+00
210  2.0900000000000D+00  0.0000000000000D+00  0.0000000000000D+00
211  2.1000000000000D+00  0.0000000000000D+00  0.0000000000000D+00
212  2.1100000000000D+00  0.0000000000000D+00  0.0000000000000D+00
213  2.1200000000000D+00  0.0000000000000D+00  0.0000000000000D+00
214  2.1300000000000D+00  0.0000000000000D+00  0.0000000000000D+00
215  2.1400000000000D+00  0.0000000000000D+00  0.0000000000000D+00
216  2.1500000000000D+00  0.0000000000000D+00  0.0000000000000D+00
217  2.1600000000000D+00  0.0000000000000D+00  0.0000000000000D+00
218  2.1700000000000D+00  0.0000000000000D+00  0.0000000000000D+00
219  2.1800000000000D+00  0.0000000000000D+00  0.0000000000000D+00
220  2.1900000000000D+00  0.0000000000000D+00  0.0000000000000D+00
221  2.2000000000000D+00  0.0000000000000D+00  0.0000000000000D+00
222  2.2100000000000D+00  0.0000000000000D+00  0.0000000000000D+00
223  2.2200000000000D+00  0.0000000000000D+00  0.0000000000000D+00
224  2.2300000000000D+00  0.0000000000000D+00  0.0000000000000D+00
225  2.2400000000000D+00  0.0000000000000D+00  0.0000000000000D+00
226  2.2500000000000D+00  0.0000000000000D+00  0.0000000000000D+00
227  2.2600000000000D+00  0.0000000000000D+00  0.0000000000000D+00
228  2.2700000000000D+00  0.0000000000000D+00  0.0000000000000D+00
229  2.2800000000000D+00  0.0000000000000D+00  0.0000000000000D+00
230  2.2900000000000D+00  0.0000000000000D+00  0.0000000000000D+00
231  2.3000000000000D+00  0.0000000000000D+00  0.0000000000000D+00
232  2.3100000000000D+00  0.0000000000000D+00  0.0000000000000D+00
233  2.3200000000000D+00  0.0000000000000D+00  0.0000000000000D+00
234  2.3300000000000D+00  0.0000000000000D+00  0.0000000000000D+00
235  2.3400000000000D+00  0.0000000000000D+00  0.0000000000000D+00
236  2.3500000000000D+00  0.0000000000000D+00  0.0000000000000D+00
237  2.3600000000000D+00  0.0000000000000D+00  0.0000000000000D+00
238  2.3700000000000D+00  0.0000000000000D+00  0.0000000000000D+00
239  2.3800000000000D+00  0.0000000000000D+00  0.0000000000000D+00
240  2.3900000000000D+00  0.0000000000000D+00  0.0000000000000D+00
241  2.4000000000000D+00  0.0000000000000D+00  0.0000000000000D+00
242  2.4100000000000D+00  0.0000000000000D+00  0.0000000000000D+00
243  2.4200000000000D+00  0.0000000000000D+00  0.0000000000000D+00
244  2.4300000000000D+00  0.0000000000000D+00  0.0000000000000D+00
245  2.4400000000000D+00  0.0000000000000D+00  0.0000000000000D+00
246  2.4500000000000D+00  0.0000000000000D+00  0.0000000000000D+00
247  2.4600000000000D+00  0.0000000000000D+00  0.0000000000000D+00
248  2.4700000000000D+00  0.0000000000000D+00  0.0000000000000D+00
249  2.4800000000000D+00  0.0000000000000D+00  0.0000000000000D+00
250  2.4900000000000D+00  0.0000000000000D+00  0.0000000000000D+00
251  2.5000000000000D+00  0.0000000000000D+00  0.0000000000000D+00
252  2.5100000000000D+00  0.0000000000000D+00  0.0000000000000D+00
253  2.5200000000000D+00  0.0000000000000D+00  0.0000000000000D+00
254  2.5300000000000D+00  0.0000000000000D+00  0.0000000000000D+00
255  2.5400000000000D+00  0.0000000000000D+00  0.0000000000000D+00
256  2.5500000000000D+00  0.0000000000000D+00  0.0000000000000D+00
257  2.5600000000000D+00  0.0000000000000D+00  0.0000000000000D+00
258  2.5700000000000D+00  0.0000000000000D+00  0.0000000000000D+00
259  2.5800000000000D+00  0.0000000000000D+00  0.0000000000000D+00
260  2.5900000000000D+00  0.0000000000000D+00  0.0000000000000D+00
261  2.6000000000000D+00  0.0000000000000D+00  0.0000000000000D+00
262  2.6100000000000D+00  0.0000000000000D+00  0.0000000000000D+00
263  2.6200000000000D+00  0.0000000000000D+00  0.0000000000000D+00
264  2.6300000000000D+00  0.0000000000000D+00  0.0000000000000D+00
265  2.6400000000000D+00  0.0000000000000D+00  0.0000000000000D+00
266  2.6500000000000D+00  0.0000000000000D+00  0.0000000000000D+00
267  2.6600000000000D+00  0.0000000000000D+00  0.0000000000000D+00
268  2.6700000000000D+00  0.0000000000000D+00  0.0000000000000D+00
269  2.6800000000000D+00  0.0000000000000D+00  0.0000000000000D+00
270  2.6900000000000D+00  0.0000000000000D+00  0.0000000000000D+00
271  2.7000000000000D+00  0.0000000000000D+00  0.0000000000000D+00
272  2.7100000000000D+00  0.0000000000000D+00  0.0000000000000D+00
273  2.7200000000000D+00  0.0000000000000D+00  0.0000000000000D+00
274  2.7300000000000D+00  0.0000000000000D+00  0.0000000000000D+00
275  2.7400000000000D+00  0.0000000000000D+00  0.0000000000000D+00
276  2.7500000000000D+00  0.0000000000000D+00  0.0000000000000D+00
277  2.7600000000000D+00  0.0000000000000D+00  0.0000000000000D+00
278  2.7700000000000D+00  0.0000000000000D+00  0.0000000000000D+00
279  2.7800000000000D+00  0.0000000000000D+00  0.0000000000000D+00
280  2.7900000000000D+00  0.0000000000000D+00  0.0000000000000D+00
281  2.8000000000000D+00  0.0000000000000D+00  0.0000000000000D+00
282  2.8100000000000D+00  0.0000000000000D+00  0.0000000000000D+00
283  2.8200000000000D+00  0.0000000000000D+00  0.0000000000000D+00
284  2.8300000000000D+00  0.0000000000000D+00  0.0000000000000D+00
285  2.8400000000000D+00  0.0000000000000D+00  0.0000000000000D+00
286  2.8500000000000D+00  0.0000000000000D+00  0.0000000000000D+00
287  2.8600000000000D+00  0.0000000000000D+00  0.0000000000000D+00
288  2.8700000000000D+00  0.0000000000000D+00  0.0000000000000D+00
289  2.8800000000000D+00  0.0000000000000D+00  0.0000000000000D+00
290  2.8900000000000D+00  0.0000000000000D+00  0.0000000000000D+00
291  2.9000000000000D+00  0.0000000000000D+00  0.0000000000000D+00
292  2.9100000000000D+00  0.0000000000000D+00  0.0000000000000D+00
293  2.9200000000000D+00  0.0000000000000D+00  0.0000000000000D+00
294  2.9300000000000D+00  0.0000000000000D+00  0.0000000000000D+00
295  2.9400000000000D+00  0.0000000000000D+00  0.0000000000000D+00
296  2.9500000000000D+00  0.0000000000000D+00  0.0000000000000D+00
297  2.9600000000000D+00  0.0000000000000D+00  0.0000000000000D+00
298  2.9700000000000D+00  0.0000000000000D+00  0.0000000000000D+00
299  2.9800000000000D+00  0.0000000000000D+00  0.0000000000000D+00
300  2.9900000000000D+00  0.0000000000000D+00  0.0000000000000D+00
301  3.0000000000000D+00  0.0000000000000D+00  0.0000000000000D+00
302  3.0100000000000D+00  0.0000000000000D+00  0.0000000000000D+00
303  3.0200000000000D+00  0.0000000000000D+00  0.0000000000000D+00
304  3.0300000000000D+00  0.0000000000000D+00  0.0000000000000D+00
305  3.0400000000000D+00  0.0000000000000D+00  0.0000000000000D+00
306  3.0500000000000D+00  0.0000000000000D+00  0.0000000000000D+00
307  3.0600000000000D+00  0.0000000000000D+00  0.0000000000000D+00
308  3.0700000000000D+00  0.0000000000000D+00  0.0000000000000D+00
309  3.0800000000000D+00  0.0000000000000D+00  0.0000000000000D+00
310  3.0900000000000D+00  0.0000000000000D+00  0.0000000000000D+00
311  3.1000000000000D+00  0.0000000000000D+00  0.0000000000000D+00
312  3.1100000000000D+00  0.0000000000000D+00  0.0000000000000D+00
313  3.1200000000000D+00  0.0000000000000D+00  0.0000000000000D+00
314  3.1300000000000D+00  0.0000000000000D+00  0.0000000000000D+00
315  3.1400000000000D+00  0.0000000000000D+00  0.0000000000000D+00
316  3.1500000000000D+00  0.0000000000000D+00  0.0000000000000D+00
317  3.1600000000000D+00  0.0000000000000D+00  0.0000000000000D+00
318  3.1700000000000D+00  0.0000000000000D+00  0.0000000000000D+00
319  3.1800000000000D+00  0.0000000000000D+00  0.0000000000000D+00
320  3.1900000000000D+00  0.0000000000000D+00  0.0000000000000D+00
321  3.2000000000000D+00  0.0000000000000D+00  0.0000000000000D+00
322  3.2100000000000D+00  0.0000000000000D+00  0.0000000000000D+00
323  3.2200000000000D+00  0.0000000000000D+00  0.0000000000000D+00
324  3.2300000000000D+00  0.0000000000000D+00  0.0000000000000D+00
325  3.2400000000000D+00  0.0000000000000D+00  0.0000000000000D+00
326  3.2500000000000D+00  0.0000000000000D+00  0.0000000000000D+00
327  3.2600000000000D+00  0.0000000000000D+00  0.0000000000000D+00
328  3.2700000000000D+00  0.0000000000000D+00  0.0000000000000D+00
329  3.2800000000000D+00  0.0000000000000D+00  0.0000000000000D+00
330  3.2900000000000D+00  0.0000000000000D+00  0.0000000000000D+00
331  3.3000000000000D+00  0.0000000000000D+00  0.0000000000000D+00
332  3.3100000000000D+00  0.0000000000000D+00  0.0000000000000D+00
333  3.3200000000000D+00  0.0000000000000D+00  0.0000000000000D+00
334  3.3300000000000D+00  0.0000000000000D+00  0.0000000000000D+00
335  3.3400000000000D+00  0.0000000000000D+00  0.0000000000000D+00
336  3.3500000000000D+00  0.0000000000000D+00  0.0000000000000D+00
337  3.3600000000000D+00  0.0000000000000D+00  0.0000000000000D+00
338  3.3700000000000D+00  0.0000000000000D+00  0.0000000000000D+00
339  3.3800000000000D+00  0.0000000000000D+00  0.0000000000000D+00
340  3.3900000000000D+00  0.0000000000000D+00  0.0000000000000D+00
341  3.4000000000000D+00  0.0000000000000D+00  0.0000000000000D+00
342  3.4100000000000D+00  0.0000000000000D+00  0.0000000000000D+00
343  3.4200000000000D+00  0.0000000000000D+00  0.0000000000000D+00
344  3.4300000000000D+00  0.0000000000000D+00  0.0000000000000D+00
345  3.4400000000000D+00  0.0000000000000D+00  0.0000000000000D+00
346  3.4500000000000D+00  0.0000000000000D+00  0.0000000000000D+00
347  3.4600000000000D+00  0.0000000000000D+00  0.0000000000000D+00
348  3.4700000000000D+00  0.0000000000000D+00  0.0000000000000D+00
349  3.4800000000000D+00  0.0000000000000D+00  0.0000000000000D+00
350  3.4900000000000D+00  0.0000000000000D+00  0.0000000000000D+00
351  3.5000000000000D+00  0.0000000000000D+00  0.0000000000000D+00
352  3.5100000000000D+00  0.0000000000000D+00  0.0000000000000D+00
353  3.5200000000000D+00  0.0000000000000D+00  0.0000000000000D+00
354  3.5300000000000D+00  0.0000000000000D+00  0.0000000000000D+00
355  3.5400000000000D+00  0.0000000000000D+00  0.0000000000000D+00
356  3.5500000000000D+00  0.0000000000000D+00  0.0000000000000D+00
357  3.5600000000000D+00  0.0000000000000D+00  0.0000000000000D+00
358  3.5700000000000D+00  0.0000000000000D+00  0.0000000000000D+00
359  3.5800000000000D+00  0.0000000000000D+00  0.0000000000000D+00
360  3.5900000000000D+00  0.0000000000000D+00  0.0000000000000D+00
361  3.6000000000000D+00  0.0000000000000D+00  0.0000000000000D+00
362  3.6100000000000D+00  0.0000000000000D+00  0.0000000000000D+00
363  3.6200000000000D+00  0.0000000000000D+00  0.0000000000000D+00
364  3.6300000000000D+00  0.0000000000000D+00  0.0000000000000D+00
365  3.6400000000000D+00  0.0000000000000D+00  0.0000000000000D+00
366  3.6500000000000D+00  0.0000000000000D+00  0.0000000000000D+00
367  3.6600000000000D+00  0.0000000000000D+00  0.0000000000000D+00
368  3.6700000000000D+00  0.0000000000000D+00  0.0000000000000D+00
369  3.6800000000000D+00  0.0000000000000D+00  0.0000000000000D+00
370  3.6900000000000D+00  0.0000000000000D+00  0.0000000000000D+00
371  3.7000000000000D+00  0.0000000000000D+00  0.0000000000000D+00
372  3.7100000000000D+00  0.0000000000000D+00  0.0000000000000D+00
373  3.7200000000000D+00  0.0000000000000D+00  0.0000000000000D+00
374  3.7300000000000D+00  0.0000000000000D+00  0.0000000000000D+00
375  3.7400000000000D+00  0.0000000000000D+00  0.0000000000000D+00
376  3.7500000000000D+00  0.0000000000000D+00  0.0000000000000D+00
377  3.7600000000000D+00  0.0000000000000D+00  0.0000000000000D+00
378  3.7700000000000D+00  0.0000000000000D+00  0.0000000000000D+00
379  3.7800000000000D+00  0.0000000000000D+00  0.0000000000000D+00
380  3.7900000000000D+00  0.0000000000000D+00  0.0000000000000D+00
381  3.8000000000000D+00  0.0000000000000D+00  0.0000000000000D+00
382  3.8100000000000D+00  0.0000000000000D+00  0.0000000000000D+00
383  3.8200000000000D+00  0.0000000000000D+00  0.0000000000000D+00
384  3.8300000000000D+00  0.0000000000000D+00  0.0000000000000D+00
385  3.8400000000000D+00  0.0000000000000D+00  0.0000000000000D+00
386  3.8500000000000D+00  0.0000000000000D+00  0.0000000000000D+00
387  3.8600000000000D+00  0.0000000000000D+00  0.0000000000000D+00
388  3.8700000000000D+00  0.0000000000000D+00  0.0000000000000D+00
389  3.8800000000000D+00  0.0000000000000D+00  0.0000000000000D+00
390  3.8900000000000D+00  0.0000000000000D+00  0.0000000000000D+00
391  3.9000000000000D+00  0.0000000000000D+00  0.0000000000000D+00
392  3.9100000000000D+00  0.0000000000000D+00  0.0000000000000D+00
393  3.9200000000000D+00  0.0000000000000D+00  0.0000000000000D+00
394  3.9300000000000D+00  0.0000000000000D+00  0.0000000000000D+00
395  3.9400000000000D+00  0.0000000000000D+00  0.0000000000000D+00
396  3.9500000000000D+00  0.0000000000000D+00  0.0000000000000D+00
397  3.9600000000000D+00  0.0000000000000D+00  0.0000000000000D+00
398  3.9700000000000D+00  0.0000000000000D+00  0.0000000000000D+00
399  3.9800000000000D+00  0.0000000000000D+00  0.0000000000000D+00
400  3.9900000000000D+00  0.0000000000000D+00  0.0000000000000D+00
401  4.0000000000000D+00  0.0000000000000D+00  0.0000000000000D+00
402  4.0100000000000D+00  0.0000000000000D+00  0.0000000000000D+00
403  4.0200000000000D+00  0.0000000000000D+00  0.0000000000000D+00
404  4.0300000000000D+00  0.0000000000000D+00  0.0000000000000D+00
405  4.0400000000000D+00  0.0000000000000D+00  0.0000000000000D+00
406  4.0500000000000D+00  0.0000000000000D+00  0.0000000000000D+00
407  4.0600000000000D+00  0.0000000000000D+00  0.0000000000000D+00
408  4.0700000000000D+00  0.0000000000000D+00  0.0000000000000D+00
409  4.0800000000000D+00  0.0000000000000D+00  0.0000000000000D+00
410  4.0900000000000D+00  0.0000000000000D+00  0.0000000000000D+00
411  4.1000000000000D+00  0.0000000000000D+00  0.0000000000000D+00
412  4.1100000000000D+00  0.0000000000000D+00  0.0000000000000D+00
413  4.1200000000000D+00  0.0000000000000D+00  0.0000000000000D+00
414  4.1300000000000D+00  0.0000000000000D+00  0.0000000000000D+00
415  4.1400000000000D+00  0.0000000000000D+00  0.0000000000000D+00
416  4.1500000000000D+00  0.0000000000000D+00  0.0000000000000D+00
417  4.1600000000000D+00  0.0000000000000D+00  0.0000000000000D+00
418  4.1700000000000D+00  0.0000000000000D+00  0.0000000000000D+00
419  4.1800000000000D+00  0.0000000000000D+00  0.0000000000000D+00
420  4.1900000000000D+00  0.0000000000000D+00  0.0000000000000D+00
421  4.2000000000000D+00  0.0000000000000D+00  0.0000000000000D+00
422  4.2100000000000D+00  0.0000000000000D+00  0.0000000000000D+00
423  4.2200000000000D+00  0.0000000000000D+00  0.0000000000000D+00
424  4.2300000000000D+00  0.0000000000000D+00  0.0000000000000D+00
425  4.2400000000000D+00  0.0000000000000D+00  0.0000000000000D+00
426  4.2500000000000D+00  0.0000000000000D+00  0.0000000000000D+00
427  4.2600000000000D+00  0.0000000000000D+00  0.0000000000000D+00
428  4.2700000000000D+00  0.0000000000000D+00  0.0000000000000D+00
429  4.2800000000000D+00  0.0000000000000D+00  0.0000000000000D+00
430  4.2900000000000D+00  0.0000000000000D+00  0.0000000000000D+00
431  4.3000000000000D+00  0.0000000000000D+00  0.0000000000000D+00
432  4.3100000000000D+00  0.0000000000000D+00  0.0000000000000D+00
433  4.3200000000000D+00  0.0000000000000D+00  0.0000000000000D+00
434  4.3300000000000D+00  0.0000000000000D+00  0.0000000000000D+00
435  4.3400000000000D+00  0.0000000000000D+00  0.0000000000000D+00
436  4.3500000000000D+00  0.0000000000000D+00  0.0000000000000D+00
437  4.3600000000000D+00  0.0000000000000D+00  0.0000000000000D+00
438  4.3700000000000D+00  0.0000000000000D+00  0.0000000000000D+00
439  4.3800000000000D+00  0.0000000000000D+00  0.0000000000000D+00
440  4.3900000000000D+00  0.0000000000000D+00  0.0000000000000D+00
441  4.4000000000000D+00  0.0000000000000D+00  0.0000000000000D+00
442  4.4100000000000D+00  0.0000000000000D+00  0.0000000000000D+00
443  4.4200000000000D+00  0.0000000000000D+00  0.0000000000000D+00