Pb    ONCVPSP-3.2.3  r_core=   2.42823   2.42823   2.10438
82.0000     14.0000      170222    zatom,zion,pspd
8      11   2     4   600     0    pspcod,pspxc,lmax,lloc,mmax,r2well
5.99000000  6.00000000  0.00000000    rchrg fchrg qchrg
2     4     4     0    nproj
3     1           extension_switch
4     4     0    nprojso
0                         8.5991057307247D-01  5.2496443129615D+00
1  0.0000000000000D+00 -5.4328277987459D-12  1.2981560271186D-12
2  1.0000000000000D-02  7.2329228623660D-03  1.4462203050271D-02
3  2.0000000000000D-02  1.4420381343308D-02  2.8935709447787D-02
4  3.0000000000000D-02  2.1517079211884D-02  4.3431772846143D-02
5  4.0000000000000D-02  2.8478056027702D-02  5.7961547646157D-02
6  5.0000000000000D-02  3.5258853761532D-02  7.2536039705486D-02
7  6.0000000000000D-02  4.1815681890104D-02  8.7166057450532D-02
8  7.0000000000000D-02  4.8105580462816D-02  1.0186216352325D-01
9  8.0000000000000D-02  5.4086580643464D-02  1.1663462709413D-01
10  9.0000000000000D-02  5.9717862236816D-02  1.3149337697118D-01
11  1.0000000000000D-01  6.4959907717930D-02  1.4644795563254D-01
12  1.1000000000000D-01  6.9774652291417D-02  1.6150747430843D-01
13  1.2000000000000D-01  7.4125629518492D-02  1.7668056923551D-01
14  1.3000000000000D-01  7.7978112061503D-02  1.9197535920373D-01
15  1.4000000000000D-01  8.1299247108776D-02  2.0739940451300D-01
16  1.5000000000000D-01  8.4058186056885D-02  2.2295966745312D-01
17  1.6000000000000D-01  8.6226208042956D-02  2.3866247441731D-01
18  1.7000000000000D-01  8.7776836936236D-02  2.5451347975503D-01
19  1.8000000000000D-01  8.8685951415898D-02  2.7051763146633D-01
20  1.9000000000000D-01  8.8931887780817D-02  2.8667913883470D-01
21  2.0000000000000D-01  8.8495535156929D-02  3.0300144209139D-01
22  2.1000000000000D-01  8.7360422788521D-02  3.1948718419860D-01
23  2.2000000000000D-01  8.5512799121609D-02  3.3613818483428D-01
24  2.3000000000000D-01  8.2941702410116D-02  3.5295541665537D-01
25  2.4000000000000D-01  7.9639022599108D-02  3.6993898391120D-01
26  2.5000000000000D-01  7.5599554263483D-02  3.8708810347253D-01
27  2.6000000000000D-01  7.0821040405609D-02  4.0440108833611D-01
28  2.7000000000000D-01  6.5304206940894D-02  4.2187533365820D-01
29  2.8000000000000D-01  5.9052787726658D-02  4.3950730536442D-01
30  2.9000000000000D-01  5.2073540016372D-02  4.5729253137673D-01
31  3.0000000000000D-01  4.4376250248587D-02  4.7522559549182D-01
32  3.1000000000000D-01  3.5973730107671D-02  4.9330013393865D-01
33  3.2000000000000D-01  2.6881802821300D-02  5.1150883463583D-01
34  3.3000000000000D-01  1.7119279688136D-02  5.2984343916308D-01
35  3.4000000000000D-01  6.7079268574780D-03  5.4829474745382D-01
36  3.5000000000000D-01 -4.3275775886760D-03  5.6685262520908D-01
37  3.6000000000000D-01 -1.5959696171922D-02  5.8550601402600D-01
38  3.7000000000000D-01 -2.8158094064577D-02  6.0424294422724D-01
39  3.8000000000000D-01 -4.0889710511021D-02  6.2305055037036D-01
40  3.9000000000000D-01 -5.4118839458906D-02  6.4191508940978D-01
41  4.0000000000000D-01 -6.7807219207231D-02  6.6082196147642D-01
42  4.1000000000000D-01 -8.1914130850979D-02  6.7975573323372D-01
43  4.2000000000000D-01 -9.6396505274304D-02  6.9870016376173D-01
44  4.3000000000000D-01 -1.1120903841771D-01  7.1763823291424D-01
45  4.4000000000000D-01 -1.2630431451821D-01  7.3655217208745D-01
46  4.5000000000000D-01 -1.4163293699602D-01  7.5542349733201D-01
47  4.6000000000000D-01 -1.5714366663631D-01  7.7423304473419D-01
48  4.7000000000000D-01 -1.7278356669072D-01  7.9296100798552D-01
49  4.8000000000000D-01 -1.8849815449990D-01  8.1158697805434D-01
50  4.9000000000000D-01 -2.0423155921654D-01  8.3008998486689D-01
51  5.0000000000000D-01 -2.1992668518695D-01  8.4844854089999D-01
52  5.1000000000000D-01 -2.3552538052920D-01  8.6664068658191D-01
53  5.2000000000000D-01 -2.5096861042743D-01  8.8464403739287D-01
54  5.3000000000000D-01 -2.6619663464373D-01  9.0243583255191D-01
55  5.4000000000000D-01 -2.8114918873344D-01  9.1999298517195D-01
56  5.5000000000000D-01 -2.9576566843423D-01  9.3729213376068D-01
57  5.6000000000000D-01 -3.0998531668653D-01  9.5430969494105D-01
58  5.7000000000000D-01 -3.2374741273031D-01  9.7102191726083D-01
59  5.8000000000000D-01 -3.3699146271358D-01  9.8740493595804D-01
60  5.9000000000000D-01 -3.4965739123859D-01  1.0034348285453D+00
61  6.0000000000000D-01 -3.6168573326502D-01  1.0190876710736D+00
62  6.1000000000000D-01 -3.7301782578391D-01  1.0343395949341D+00
63  6.2000000000000D-01 -3.8359599867248D-01  1.0491668440534D+00
64  6.3000000000000D-01 -3.9336376413788D-01  1.0635458323374D+00
65  6.4000000000000D-01 -4.0226600415804D-01  1.0774532012157D+00
66  6.5000000000000D-01 -4.1024915532921D-01  1.0908658771410D+00
67  6.6000000000000D-01 -4.1726139053366D-01  1.1037611288924D+00
68  6.7000000000000D-01 -4.2325279684566D-01  1.1161166245359D+00
69  6.8000000000000D-01 -4.2817554910195D-01  1.1279104878936D+00
70  6.9000000000000D-01 -4.3198407857096D-01  1.1391213543734D+00
71  7.0000000000000D-01 -4.3463523616674D-01  1.1497284260135D+00
72  7.1000000000000D-01 -4.3608844966543D-01  1.1597115255957D+00
73  7.2000000000000D-01 -4.3630587439736D-01  1.1690511496843D+00
74  7.3000000000000D-01 -4.3525253690313D-01  1.1777285204506D+00
75  7.4000000000000D-01 -4.3289647106122D-01  1.1857256361431D+00
76  7.5000000000000D-01 -4.2920884621290D-01  1.1930253200683D+00
77  7.6000000000000D-01 -4.2416408683305D-01  1.1996112679507D+00
78  7.7000000000000D-01 -4.1773998331710D-01  1.2054680935422D+00
79  7.8000000000000D-01 -4.0991779347989D-01  1.2105813723585D+00
80  7.9000000000000D-01 -4.0068233438760D-01  1.2149376834203D+00
81  8.0000000000000D-01 -3.9002206417139D-01  1.2185246488868D+00
82  8.1000000000000D-01 -3.7792915350069D-01  1.2213309714691D+00
83  8.2000000000000D-01 -3.6439954642339D-01  1.2233464695209D+00
84  8.3000000000000D-01 -3.4943301031203D-01  1.2245621097071D+00
85  8.4000000000000D-01 -3.3303317468731D-01  1.2249700371571D+00
86  8.5000000000000D-01 -3.1520755872326D-01  1.2245636030174D+00
87  8.6000000000000D-01 -2.9596758727338D-01  1.2233373893232D+00
88  8.7000000000000D-01 -2.7532859529133D-01  1.2212872311160D+00
89  8.8000000000000D-01 -2.5330982055628D-01  1.2184102357414D+00
90  8.9000000000000D-01 -2.2993438464898D-01  1.2147047992688D+00
91  9.0000000000000D-01 -2.0522926216143D-01  1.2101706199808D+00
92  9.1000000000000D-01 -1.7922523816057D-01  1.2048087088901D+00
93  9.2000000000000D-01 -1.5195685396347D-01  1.1986213972471D+00
94  9.3000000000000D-01 -1.2346234131936D-01  1.1916123410096D+00
95  9.4000000000000D-01 -9.3783545131082D-02  1.1837865222568D+00
96  9.5000000000000D-01 -6.2965834886256D-02  1.1751502475325D+00
97  9.6000000000000D-01 -3.1058005005215D-02  1.1657111431170D+00
98  9.7000000000000D-01  1.8878356500882D-03  1.1554781472288D+00
99  9.8000000000000D-01  3.5816384826166D-02  1.1444614991706D+00
100  9.9000000000000D-01  7.0669278171192D-02  1.1326727254395D+00
101  1.0000000000000D+00  1.0638523042083D-01  1.1201246228296D+00
102  1.0100000000000D+00  1.4290018609251D-01  1.1068312385640D+00
103  1.0200000000000D+00  1.8014747927055D-01  1.0928078475003D+00
104  1.0300000000000D+00  2.1805800203332D-01  1.0780709264632D+00
105  1.0400000000000D+00  2.5656038104330D-01  1.0626381257619D+00
106  1.0500000000000D+00  2.9558116179105D-01  1.0465282379625D+00
107  1.0600000000000D+00  3.3504499995765D-01  1.0297611639882D+00
108  1.0700000000000D+00  3.7487485933387D-01  1.0123578766306D+00
109  1.0800000000000D+00  4.1499221570937D-01  9.9434038156053D-01
110  1.0900000000000D+00  4.5531726612377D-01  9.7573167593358D-01
111  1.1000000000000D+00  4.9576914284984D-01  9.5655570469396D-01
112  1.1100000000000D+00  5.3626613146240D-01  9.3683731468291D-01
113  1.1200000000000D+00  5.7672589232787D-01  9.1660220666689D-01
114  1.1300000000000D+00  6.1706568483618D-01  8.9587688540450D-01
115  1.1400000000000D+00  6.5720259368415D-01  8.7468860787721D-01
116  1.1500000000000D+00  6.9705375651063D-01  8.5306532981290D-01
117  1.1600000000000D+00  7.3653659217478D-01  8.3103565063617D-01
118  1.1700000000000D+00  7.7556902896395D-01  8.0862875698361D-01
119  1.1800000000000D+00  8.1406973201575D-01  7.8587436492568D-01
120  1.1900000000000D+00  8.5195832923749D-01  7.6280266103962D-01
121  1.2000000000000D+00  8.8915563500796D-01  7.3944424248145D-01
122  1.2100000000000D+00  9.2558387095238D-01  7.1583005620736D-01
123  1.2200000000000D+00  9.6116688308816D-01  6.9199133749627D-01
124  1.2300000000000D+00  9.9583035464480D-01  6.6795954792735D-01
125  1.2400000000000D+00  1.0295020138780D+00  6.4376631296759D-01
126  1.2500000000000D+00  1.0621118362140D+00  6.1944335932451D-01
127  1.2600000000000D+00  1.0935922400635D+00  5.9502245221997D-01
128  1.2700000000000D+00  1.1238782756787D+00  5.7053533274082D-01
129  1.2800000000000D+00  1.1529078064495D+00  5.4601365542036D-01
130  1.2900000000000D+00  1.1806216820311D+00  5.2148892620566D-01
131  1.3000000000000D+00  1.2069639027564D+00  4.9699244096236D-01
132  1.3100000000000D+00  1.2318817748020D+00  4.7255522466615D-01
133  1.3200000000000D+00  1.2553260555765D+00  4.4820797143149D-01
134  1.3300000000000D+00  1.2772510888834D+00  4.2398098552034D-01
135  1.3400000000000D+00  1.2976149294120D+00  3.9990412347272D-01
136  1.3500000000000D+00  1.3163794561226D+00  3.7600673750078D-01
137  1.3600000000000D+00  1.3335104741987D+00  3.5231762027588D-01
138  1.3700000000000D+00  1.3489778051980D+00  3.2886495124229D-01
139  1.3800000000000D+00  1.3627553651060D+00  3.0567624458382D-01
140  1.3900000000000D+00  1.3748212300868D+00  2.8277829895699D-01
141  1.4000000000000D+00  1.3851576896322D+00  2.6019714911685D-01
142  1.4100000000000D+00  1.3937512870178D+00  2.3795801953483D-01
143  1.4200000000000D+00  1.4005928468980D+00  2.1608528011605D-01
144  1.4300000000000D+00  1.4056774899270D+00  1.9460240411893D-01
145  1.4400000000000D+00  1.4090046344487D+00  1.7353192835368D-01
146  1.4500000000000D+00  1.4105779851300D+00  1.5289541576441D-01
147  1.4600000000000D+00  1.4104055087020D+00  1.3271342045307D-01
148  1.4700000000000D+00  1.4084993968189D+00  1.1300545522797D-01
149  1.4800000000000D+00  1.4048760161723D+00  9.3789961739991D-02
150  1.4900000000000D+00  1.3995558460992D+00  7.5084283250659D-02
151  1.5000000000000D+00  1.3925634037669D+00  5.6904640105218D-02
152  1.5100000000000D+00  1.3839271573654D+00  3.9266107920095D-02
153  1.5200000000000D+00  1.3736794274167D+00  2.2182598553934D-02
154  1.5300000000000D+00  1.3618562767022D+00  5.6668438577922D-03
155  1.5400000000000D+00  1.3484973890651D+00 -1.0269617753897D-02
156  1.5500000000000D+00  1.3336459375560D+00 -2.5616451910404D-02
157  1.5600000000000D+00  1.3173484423703D+00 -4.0364536067146D-02
158  1.5700000000000D+00  1.2996546190006D+00 -5.4505964451996D-02
159  1.5800000000000D+00  1.2806172172215D+00 -6.8034050212329D-02
160  1.5900000000000D+00  1.2602918513011D+00 -8.0943324741350D-02
161  1.6000000000000D+00  1.2387368221929D+00 -9.3229534257495D-02
162  1.6100000000000D+00  1.2160129320968D+00 -1.0488963360951D-01
163  1.6200000000000D+00  1.1921832922246D+00 -1.1592177740874D-01
164  1.6300000000000D+00  1.1673131242046D+00 -1.2632530846739D-01
165  1.6400000000000D+00  1.1414695559735D+00 -1.3610074365668D-01
166  1.6500000000000D+00  1.1147214126705D+00 -1.4524975718136D-01
167  1.6600000000000D+00  1.0871390033606D+00 -1.5377516138824D-01
168  1.6700000000000D+00  1.0587939041810D+00 -1.6168088512479D-01
169  1.6800000000000D+00  1.0297587387069D+00 -1.6897194976849D-01
170  1.6900000000000D+00  1.0001069561936D+00 -1.7565444295943D-01
171  1.7000000000000D+00  9.6991260845561D-01 -1.8173549016150D-01
172  1.7100000000000D+00  9.3925012609125D-01 -1.8722322409688D-01
173  1.7200000000000D+00  9.0819409475953D-01 -1.9212675218510D-01
174  1.7300000000000D+00  8.7681903227361D-01 -1.9645612204060D-01
175  1.7400000000000D+00  8.4519916713269D-01 -2.0022228516558D-01
176  1.7500000000000D+00  8.1340821932889D-01 -2.0343705889952D-01
177  1.7600000000000D+00  7.8151918391809D-01 -2.0611308676598D-01
178  1.7700000000000D+00  7.4960411830240D-01 -2.0826379728566D-01
179  1.7800000000000D+00  7.1773393351307D-01 -2.0990336139561D-01
180  1.7900000000000D+00  6.8597819059328D-01 -2.1104664855453D-01
181  1.8000000000000D+00  6.5440490214241D-01 -2.1170918166555D-01
182  1.8100000000000D+00  6.2308034022524D-01 -2.1190709091314D-01
183  1.8200000000000D+00  5.9206885056917D-01 -2.1165706662977D-01
184  1.8300000000000D+00  5.6143267420695D-01 -2.1097631130652D-01
185  1.8400000000000D+00  5.3123177650514D-01 -2.0988249084882D-01
186  1.8500000000000D+00  5.0152368451030D-01 -2.0839368520021D-01
187  1.8600000000000D+00  4.7236333274420D-01 -2.0652833843130D-01
188  1.8700000000000D+00  4.4380291795171D-01 -2.0430520840880D-01
189  1.8800000000000D+00  4.1589176332910D-01 -2.0174331615559D-01
190  1.8900000000000D+00  3.8867619208526D-01 -1.9886189498535D-01
191  1.9000000000000D+00  3.6219941146026D-01 -1.9568033955934D-01
192  1.9100000000000D+00  3.3650140625498D-01 -1.9221815489471D-01
193  1.9200000000000D+00  3.1161884353592D-01 -1.8849490551629D-01
194  1.9300000000000D+00  2.8758498720918D-01 -1.8453016474606D-01
195  1.9400000000000D+00  2.6442962382000D-01 -1.8034346431278D-01
196  1.9500000000000D+00  2.4217899886754D-01 -1.7595424430903D-01
197  1.9600000000000D+00  2.2085576393411D-01 -1.7138180360384D-01
198  1.9700000000000D+00  2.0047893499318D-01 -1.6664525082333D-01
199  1.9800000000000D+00  1.8106386086056D-01 -1.6176345589063D-01
200  1.9900000000000D+00  1.6262220321721D-01 -1.5675500233986D-01
201  2.0000000000000D+00  1.4516192638416D-01 -1.5163814031244D-01
202  2.0100000000000D+00  1.2868729818876D-01 -1.4643074045384D-01
203  2.0200000000000D+00  1.1319890076599D-01 -1.4115024867415D-01
204  2.0300000000000D+00  9.8693651276683D-02 -1.3581364185666D-01
205  2.0400000000000D+00  8.5164828386348D-02 -1.3043738348486D-01
206  2.0500000000000D+00  7.2602131073404D-02 -1.2503738633527D-01
207  2.0600000000000D+00  6.0991679887090D-02 -1.1962895873761D-01
208  2.0700000000000D+00  5.0316154248740D-02 -1.1422678604491D-01
209  2.0800000000000D+00  4.0554835697445D-02 -1.0884488552700D-01
210  2.0900000000000D+00  3.1683649085755D-02 -1.0349655846061D-01
211  2.1000000000000D+00  2.3674951508845D-02 -9.8194282427458D-02
212  2.1100000000000D+00  1.6498246483257D-02 -9.2949835061780D-02
213  2.1200000000000D+00  1.0120498749803D-02 -8.7774313944692D-02
214  2.1300000000000D+00  4.5065768876895D-03 -8.2678200062978D-02
215  2.1400000000000D+00 -3.8037613360215D-04 -7.7671410108566D-02
216  2.1500000000000D+00 -4.5781456786372D-03 -7.2763455683535D-02
217  2.1600000000000D+00 -8.1256153680944D-03 -6.7963356874710D-02
218  2.1700000000000D+00 -1.1062584770153D-02 -6.3279650175517D-02
219  2.1800000000000D+00 -1.3429618571164D-02 -5.8720387004223D-02
220  2.1900000000000D+00 -1.5267778868189D-02 -5.4293159791289D-02
221  2.2000000000000D+00 -1.6618494898883D-02 -5.0005096413460D-02
222  2.2100000000000D+00 -1.7523364683312D-02 -4.5862871720578D-02
223  2.2200000000000D+00 -1.8023977896810D-02 -4.1872714620130D-02
224  2.2300000000000D+00 -1.8161739629252D-02 -3.8040415814788D-02
225  2.2400000000000D+00 -1.7977696897873D-02 -3.4371335908665D-02
226  2.2500000000000D+00 -1.7512368239227D-02 -3.0870413724851D-02
227  2.2600000000000D+00 -1.6805578074732D-02 -2.7542174667058D-02
228  2.2700000000000D+00 -1.5896296164139D-02 -2.4390739083327D-02
229  2.2800000000000D+00 -1.4822481667657D-02 -2.1419830674612D-02
230  2.2900000000000D+00 -1.3620934625868D-02 -1.8632784653132D-02
231  2.3000000000000D+00 -1.2327153301162D-02 -1.6032555807067D-02
232  2.3100000000000D+00 -1.0975198401636D-02 -1.3621726361549D-02
233  2.3200000000000D+00 -9.5975662459318D-03 -1.1402513409498D-02
234  2.3300000000000D+00 -8.2250687213824D-03 -9.3767761438570D-03
235  2.3400000000000D+00 -6.8867223989941D-03 -7.5460226296233D-03
236  2.3500000000000D+00 -5.6111587405366D-03 -5.9124492223100D-03
237  2.3600000000000D+00 -4.4211691371477D-03 -4.4752813934567D-03
238  2.3700000000000D+00 -3.3380643341572D-03 -3.2338153050514D-03
239  2.3800000000000D+00 -2.3753854480187D-03 -2.1840580844146D-03
240  2.3900000000000D+00 -1.5710720108391D-03 -1.3373553618970D-03
241  2.4000000000000D+00 -9.5127940892966D-04 -6.9902499557386D-04
242  2.4100000000000D+00 -5.3683039500558D-04 -2.6906504183942D-04
243  2.4200000000000D+00 -2.8158685076838D-04 -1.8781910660119D-05
244  2.4300000000000D+00 -1.3837708712461D-04  8.6205124986238D-05
245  2.4400000000000D+00 -5.4795684048155D-05  8.7327160893670D-05
246  2.4500000000000D+00 -1.3897709435200D-05  3.9637579962023D-05
247  2.4600000000000D+00  2.0484731824510D-06 -7.6019194314878D-06
248  2.4700000000000D+00  3.7684579834373D-06 -2.0666062822146D-05
249  2.4800000000000D+00  1.5226272451797D-06 -1.2059884832516D-05
250  2.4900000000000D+00 -6.3689743419467D-07  1.5846598957408D-06
251  2.5000000000000D+00 -1.4937059934684D-06  4.1120498825513D-06
252  2.5100000000000D+00 -8.3128773139209D-07  2.4976009724175D-06
253  2.5200000000000D+00  1.7515654241424D-07 -8.4641358944744D-08
254  2.5300000000000D+00  4.4963929106790D-07 -2.1728038305833D-07
255  2.5400000000000D+00  2.8213597060873D-07 -1.3633731078706D-07
256  2.5500000000000D+00  0.0000000000000D+00  0.0000000000000D+00
257  2.5600000000000D+00  0.0000000000000D+00  0.0000000000000D+00
258  2.5700000000000D+00  0.0000000000000D+00  0.0000000000000D+00
259  2.5800000000000D+00  0.0000000000000D+00  0.0000000000000D+00
260  2.5900000000000D+00  0.0000000000000D+00  0.0000000000000D+00
261  2.6000000000000D+00  0.0000000000000D+00  0.0000000000000D+00
262  2.6100000000000D+00  0.0000000000000D+00  0.0000000000000D+00
263  2.6200000000000D+00  0.0000000000000D+00  0.0000000000000D+00
264  2.6300000000000D+00  0.0000000000000D+00  0.0000000000000D+00
265  2.6400000000000D+00  0.0000000000000D+00  0.0000000000000D+00
266  2.6500000000000D+00  0.0000000000000D+00  0.0000000000000D+00
267  2.6600000000000D+00  0.0000000000000D+00  0.0000000000000D+00
268  2.6700000000000D+00  0.0000000000000D+00  0.0000000000000D+00
269  2.6800000000000D+00  0.0000000000000D+00  0.0000000000000D+00
270  2.6900000000000D+00  0.0000000000000D+00  0.0000000000000D+00
271  2.7000000000000D+00  0.0000000000000D+00  0.0000000000000D+00
272  2.7100000000000D+00  0.0000000000000D+00  0.0000000000000D+00
273  2.7200000000000D+00  0.0000000000000D+00  0.0000000000000D+00
274  2.7300000000000D+00  0.0000000000000D+00  0.0000000000000D+00
275  2.7400000000000D+00  0.0000000000000D+00  0.0000000000000D+00
276  2.7500000000000D+00  0.0000000000000D+00  0.0000000000000D+00
277  2.7600000000000D+00  0.0000000000000D+00  0.0000000000000D+00
278  2.7700000000000D+00  0.0000000000000D+00  0.0000000000000D+00
279  2.7800000000000D+00  0.0000000000000D+00  0.0000000000000D+00
280  2.7900000000000D+00  0.0000000000000D+00  0.0000000000000D+00
281  2.8000000000000D+00  0.0000000000000D+00  0.0000000000000D+00
282  2.8100000000000D+00  0.0000000000000D+00  0.0000000000000D+00
283  2.8200000000000D+00  0.0000000000000D+00  0.0000000000000D+00
284  2.8300000000000D+00  0.0000000000000D+00  0.0000000000000D+00
285  2.8400000000000D+00  0.0000000000000D+00  0.0000000000000D+00
286  2.8500000000000D+00  0.0000000000000D+00  0.0000000000000D+00
287  2.8600000000000D+00  0.0000000000000D+00  0.0000000000000D+00
288  2.8700000000000D+00  0.0000000000000D+00  0.0000000000000D+00
289  2.8800000000000D+00  0.0000000000000D+00  0.0000000000000D+00
290  2.8900000000000D+00  0.0000000000000D+00  0.0000000000000D+00
291  2.9000000000000D+00  0.0000000000000D+00  0.0000000000000D+00
292  2.9100000000000D+00  0.0000000000000D+00  0.0000000000000D+00
293  2.9200000000000D+00  0.0000000000000D+00  0.0000000000000D+00
294  2.9300000000000D+00  0.0000000000000D+00  0.0000000000000D+00
295  2.9400000000000D+00  0.0000000000000D+00  0.0000000000000D+00
296  2.9500000000000D+00  0.0000000000000D+00  0.0000000000000D+00
297  2.9600000000000D+00  0.0000000000000D+00  0.0000000000000D+00
298  2.9700000000000D+00  0.0000000000000D+00  0.0000000000000D+00
299  2.9800000000000D+00  0.0000000000000D+00  0.0000000000000D+00
300  2.9900000000000D+00  0.0000000000000D+00  0.0000000000000D+00
301  3.0000000000000D+00  0.0000000000000D+00  0.0000000000000D+00
302  3.0100000000000D+00  0.0000000000000D+00  0.0000000000000D+00
303  3.0200000000000D+00  0.0000000000000D+00  0.0000000000000D+00
304  3.0300000000000D+00  0.0000000000000D+00  0.0000000000000D+00
305  3.0400000000000D+00  0.0000000000000D+00  0.0000000000000D+00
306  3.0500000000000D+00  0.0000000000000D+00  0.0000000000000D+00
307  3.0600000000000D+00  0.0000000000000D+00  0.0000000000000D+00
308  3.0700000000000D+00  0.0000000000000D+00  0.0000000000000D+00
309  3.0800000000000D+00  0.0000000000000D+00  0.0000000000000D+00
310  3.0900000000000D+00  0.0000000000000D+00  0.0000000000000D+00
311  3.1000000000000D+00  0.0000000000000D+00  0.0000000000000D+00
312  3.1100000000000D+00  0.0000000000000D+00  0.0000000000000D+00
313  3.1200000000000D+00  0.0000000000000D+00  0.0000000000000D+00
314  3.1300000000000D+00  0.0000000000000D+00  0.0000000000000D+00
315  3.1400000000000D+00  0.0000000000000D+00  0.0000000000000D+00
316  3.1500000000000D+00  0.0000000000000D+00  0.0000000000000D+00
317  3.1600000000000D+00  0.0000000000000D+00  0.0000000000000D+00
318  3.1700000000000D+00  0.0000000000000D+00  0.0000000000000D+00
319  3.1800000000000D+00  0.0000000000000D+00  0.0000000000000D+00
320  3.1900000000000D+00  0.0000000000000D+00  0.0000000000000D+00
321  3.2000000000000D+00  0.0000000000000D+00  0.0000000000000D+00
322  3.2100000000000D+00  0.0000000000000D+00  0.0000000000000D+00
323  3.2200000000000D+00  0.0000000000000D+00  0.0000000000000D+00
324  3.2300000000000D+00  0.0000000000000D+00  0.0000000000000D+00
325  3.2400000000000D+00  0.0000000000000D+00  0.0000000000000D+00
326  3.2500000000000D+00  0.0000000000000D+00  0.0000000000000D+00
327  3.2600000000000D+00  0.0000000000000D+00  0.0000000000000D+00
328  3.2700000000000D+00  0.0000000000000D+00  0.0000000000000D+00
329  3.2800000000000D+00  0.0000000000000D+00  0.0000000000000D+00
330  3.2900000000000D+00  0.0000000000000D+00  0.0000000000000D+00
331  3.3000000000000D+00  0.0000000000000D+00  0.0000000000000D+00
332  3.3100000000000D+00  0.0000000000000D+00  0.0000000000000D+00
333  3.3200000000000D+00  0.0000000000000D+00  0.0000000000000D+00
334  3.3300000000000D+00  0.0000000000000D+00  0.0000000000000D+00
335  3.3400000000000D+00  0.0000000000000D+00  0.0000000000000D+00
336  3.3500000000000D+00  0.0000000000000D+00  0.0000000000000D+00
337  3.3600000000000D+00  0.0000000000000D+00  0.0000000000000D+00
338  3.3700000000000D+00  0.0000000000000D+00  0.0000000000000D+00
339  3.3800000000000D+00  0.0000000000000D+00  0.0000000000000D+00
340  3.3900000000000D+00  0.0000000000000D+00  0.0000000000000D+00
341  3.4000000000000D+00  0.0000000000000D+00  0.0000000000000D+00
342  3.4100000000000D+00  0.0000000000000D+00  0.0000000000000D+00
343  3.4200000000000D+00  0.0000000000000D+00  0.0000000000000D+00
344  3.4300000000000D+00  0.0000000000000D+00  0.0000000000000D+00
345  3.4400000000000D+00  0.0000000000000D+00  0.0000000000000D+00
346  3.4500000000000D+00  0.0000000000000D+00  0.0000000000000D+00
347  3.4600000000000D+00  0.0000000000000D+00  0.0000000000000D+00
348  3.4700000000000D+00  0.0000000000000D+00  0.0000000000000D+00
349  3.4800000000000D+00  0.0000000000000D+00  0.0000000000000D+00
350  3.4900000000000D+00  0.0000000000000D+00  0.0000000000000D+00
351  3.5000000000000D+00  0.0000000000000D+00  0.0000000000000D+00
352  3.5100000000000D+00  0.0000000000000D+00  0.0000000000000D+00
353  3.5200000000000D+00  0.0000000000000D+00  0.0000000000000D+00
354  3.5300000000000D+00  0.0000000000000D+00  0.0000000000000D+00
355  3.5400000000000D+00  0.0000000000000D+00  0.0000000000000D+00
356  3.5500000000000D+00  0.0000000000000D+00  0.0000000000000D+00
357  3.5600000000000D+00  0.0000000000000D+00  0.0000000000000D+00
358  3.5700000000000D+00  0.0000000000000D+00  0.0000000000000D+00
359  3.5800000000000D+00  0.0000000000000D+00  0.0000000000000D+00
360  3.5900000000000D+00  0.0000000000000D+00  0.0000000000000D+00
361  3.6000000000000D+00  0.0000000000000D+00  0.0000000000000D+00
362  3.6100000000000D+00  0.0000000000000D+00  0.0000000000000D+00
363  3.6200000000000D+00  0.0000000000000D+00  0.0000000000000D+00
364  3.6300000000000D+00  0.0000000000000D+00  0.0000000000000D+00
365  3.6400000000000D+00  0.0000000000000D+00  0.0000000000000D+00
366  3.6500000000000D+00  0.0000000000000D+00  0.0000000000000D+00
367  3.6600000000000D+00  0.0000000000000D+00  0.0000000000000D+00
368  3.6700000000000D+00  0.0000000000000D+00  0.0000000000000D+00
369  3.6800000000000D+00  0.0000000000000D+00  0.0000000000000D+00
370  3.6900000000000D+00  0.0000000000000D+00  0.0000000000000D+00
371  3.7000000000000D+00  0.0000000000000D+00  0.0000000000000D+00
372  3.7100000000000D+00  0.0000000000000D+00  0.0000000000000D+00
373  3.7200000000000D+00  0.0000000000000D+00  0.0000000000000D+00
374  3.7300000000000D+00  0.0000000000000D+00  0.0000000000000D+00
375  3.7400000000000D+00  0.0000000000000D+00  0.0000000000000D+00
376  3.7500000000000D+00  0.0000000000000D+00  0.0000000000000D+00
377  3.7600000000000D+00  0.0000000000000D+00  0.0000000000000D+00
378  3.7700000000000D+00  0.0000000000000D+00  0.0000000000000D+00
379  3.7800000000000D+00  0.0000000000000D+00  0.0000000000000D+00
380  3.7900000000000D+00  0.0000000000000D+00  0.0000000000000D+00
381  3.8000000000000D+00  0.0000000000000D+00  0.0000000000000D+00
382  3.8100000000000D+00  0.0000000000000D+00  0.0000000000000D+00
383  3.8200000000000D+00  0.0000000000000D+00  0.0000000000000D+00
384  3.8300000000000D+00  0.0000000000000D+00  0.0000000000000D+00
385  3.8400000000000D+00  0.0000000000000D+00  0.0000000000000D+00
386  3.8500000000000D+00  0.0000000000000D+00  0.0000000000000D+00
387  3.8600000000000D+00  0.0000000000000D+00  0.0000000000000D+00
388  3.8700000000000D+00  0.0000000000000D+00  0.0000000000000D+00
389  3.8800000000000D+00  0.0000000000000D+00  0.0000000000000D+00
390  3.8900000000000D+00  0.0000000000000D+00  0.0000000000000D+00
391  3.9000000000000D+00  0.0000000000000D+00  0.0000000000000D+00
392  3.9100000000000D+00  0.0000000000000D+00  0.0000000000000D+00
393  3.9200000000000D+00  0.0000000000000D+00  0.0000000000000D+00
394  3.9300000000000D+00  0.0000000000000D+00  0.0000000000000D+00
395  3.9400000000000D+00  0.0000000000000D+00  0.0000000000000D+00
396  3.9500000000000D+00  0.0000000000000D+00  0.0000000000000D+00
397  3.9600000000000D+00  0.0000000000000D+00  0.0000000000000D+00
398  3.9700000000000D+00  0.0000000000000D+00  0.0000000000000D+00
399  3.9800000000000D+00  0.0000000000000D+00  0.0000000000000D+00
400  3.9900000000000D+00  0.0000000000000D+00  0.0000000000000D+00
401  4.0000000000000D+00  0.0000000000000D+00  0.0000000000000D+00
402  4.0100000000000D+00  0.0000000000000D+00  0.0000000000000D+00
403  4.0200000000000D+00  0.0000000000000D+00  0.0000000000000D+00
404  4.0300000000000D+00  0.0000000000000D+00  0.0000000000000D+00
405  4.0400000000000D+00  0.0000000000000D+00  0.0000000000000D+00
406  4.0500000000000D+00  0.0000000000000D+00  0.0000000000000D+00
407  4.0600000000000D+00  0.0000000000000D+00  0.0000000000000D+00
408  4.0700000000000D+00  0.0000000000000D+00  0.0000000000000D+00
409  4.0800000000000D+00  0.0000000000000D+00  0.0000000000000D+00
410  4.0900000000000D+00  0.0000000000000D+00  0.0000000000000D+00
411  4.1000000000000D+00  0.0000000000000D+00  0.0000000000000D+00
412  4.1100000000000D+00  0.0000000000000D+00  0.0000000000000D+00
413  4.1200000000000D+00  0.0000000000000D+00  0.0000000000000D+00
414  4.1300000000000D+00  0.0000000000000D+00  0.0000000000000D+00
415  4.1400000000000D+00  0.0000000000000D+00  0.0000000000000D+00
416  4.1500000000000D+00  0.0000000000000D+00  0.0000000000000D+00
417  4.1600000000000D+00  0.0000000000000D+00  0.0000000000000D+00
418  4.1700000000000D+00  0.0000000000000D+00  0.0000000000000D+00
419  4.1800000000000D+00  0.0000000000000D+00  0.0000000000000D+00
420  4.1900000000000D+00  0.0000000000000D+00  0.0000000000000D+00
421  4.2000000000000D+00  0.0000000000000D+00  0.0000000000000D+00
422  4.2100000000000D+00  0.0000000000000D+00  0.0000000000000D+00
423  4.2200000000000D+00  0.0000000000000D+00  0.0000000000000D+00
424  4.2300000000000D+00  0.0000000000000D+00  0.0000000000000D+00
425  4.2400000000000D+00  0.0000000000000D+00  0.0000000000000D+00
426  4.2500000000000D+00  0.0000000000000D+00  0.0000000000000D+00
427  4.2600000000000D+00  0.0000000000000D+00  0.0000000000000D+00
428  4.2700000000000D+00  0.0000000000000D+00  0.0000000000000D+00
429  4.2800000000000D+00  0.0000000000000D+00  0.0000000000000D+00
430  4.2900000000000D+00  0.0000000000000D+00  0.0000000000000D+00
431  4.3000000000000D+00  0.0000000000000D+00  0.0000000000000D+00
432  4.3100000000000D+00  0.0000000000000D+00  0.0000000000000D+00
433  4.3200000000000D+00  0.0000000000000D+00  0.0000000000000D+00
434  4.3300000000000D+00  0.0000000000000D+00  0.0000000000000D+00
435  4.3400000000000D+00  0.0000000000000D+00  0.0000000000000D+00
436  4.3500000000000D+00  0.0000000000000D+00  0.0000000000000D+00
437  4.3600000000000D+00  0.0000000000000D+00  0.0000000000000D+00
438  4.3700000000000D+00  0.0000000000000D+00  0.0000000000000D+00
439  4.3800000000000D+00  0.0000000000000D+00  0.0000000000000D+00
440  4.3900000000000D+00  0.0000000000000D+00  0.0000000000000D+00
441  4.4000000000000D+00  0.0000000000000D+00  0.0000000000000D+00
442  4.4100000000000D+00  0.0000000000000D+00  0.0000000000000D+00
443  4.4200000000000D+00  0.0000000000000D+00  0.0000000000000D+00