La    ONCVPSP-3.3.0  r_core=   2.11664   1.60878   1.85636   1.66739
57.0000     11.0000      171114    zatom,zion,pspd
8   -1012   3     4   600     0    pspcod,pspxc,lmax,lloc,mmax,r2well
5.99000000  5.00000000  0.00000000    rchrg fchrg qchrg
2     2     2     2     0    nproj
1     1           extension_switch
0                         6.7465597385641D+00  6.5347014683129D-01
1  0.0000000000000D+00 -3.2661096049935D-12  3.5780031715227D-11
2  1.0000000000000D-02  3.0820663658685D-02 -1.0149097829840D-02
3  2.0000000000000D-02  6.1626845449447D-02 -2.0263111999572D-02
4  3.0000000000000D-02  9.2404057429537D-02 -3.0307159700185D-02
5  4.0000000000000D-02  1.2313779947933D-01 -4.0246758397489D-02
6  5.0000000000000D-02  1.5381355314665D-01 -5.0048022410180D-02
7  6.0000000000000D-02  1.8441677541274D-01 -5.9677855241991D-02
8  7.0000000000000D-02  2.1493289235764D-01 -6.9104136294733D-02
9  8.0000000000000D-02  2.4534729270592D-01 -7.8295900624786D-02
10  9.0000000000000D-02  2.7564532123790D-01 -8.7223510450036D-02
11  1.0000000000000D-01  3.0581227205615D-01 -9.5858817167058D-02
12  1.1000000000000D-01  3.3583338170255D-01 -1.0417531269929D-01
13  1.2000000000000D-01  3.6569382212738D-01 -1.1214826906564D-01
14  1.3000000000000D-01  3.9537869351864D-01 -1.1975486513531D-01
15  1.4000000000000D-01  4.2487301700704D-01 -1.2697429961775D-01
16  1.5000000000000D-01  4.5416172726993D-01 -1.3378788942678D-01
17  1.6000000000000D-01  4.8322966506561D-01 -1.4017915265375D-01
18  1.7000000000000D-01  5.1206156973803D-01 -1.4613387548666D-01
19  1.8000000000000D-01  5.4064207174068D-01 -1.5164016251879D-01
20  1.9000000000000D-01  5.6895568523749D-01 -1.5668847000169D-01
21  2.0000000000000D-01  5.9698680084767D-01 -1.6127162171286D-01
22  2.1000000000000D-01  6.2471967861036D-01 -1.6538480722653D-01
23  2.2000000000000D-01  6.5213844125427D-01 -1.6902556249750D-01
24  2.3000000000000D-01  6.7922706786600D-01 -1.7219373278995D-01
25  2.4000000000000D-01  7.0596938805936D-01 -1.7489141810816D-01
26  2.5000000000000D-01  7.3234907675612D-01 -1.7712290140929D-01
27  2.6000000000000D-01  7.5834964969619D-01 -1.7889456000277D-01
28  2.7000000000000D-01  7.8395445980224D-01 -1.8021476066329D-01
29  2.8000000000000D-01  8.0914669452980D-01 -1.8109373910462D-01
30  2.9000000000000D-01  8.3390937433974D-01 -1.8154346457959D-01
31  3.0000000000000D-01  8.5822535243381D-01 -1.8157749048500D-01
32  3.1000000000000D-01  8.8207731589800D-01 -1.8121079196025D-01
33  3.2000000000000D-01  9.0544778840026D-01 -1.8045959157223D-01
34  3.3000000000000D-01  9.2831913459027D-01 -1.7934117427758D-01
35  3.4000000000000D-01  9.5067356634863D-01 -1.7787369294436D-01
36  3.5000000000000D-01  9.7249315103108D-01 -1.7607596579932D-01
37  3.6000000000000D-01  9.9375982184990D-01 -1.7396726724200D-01
38  3.7000000000000D-01  1.0144553905301D+00 -1.7156711353382D-01
39  3.8000000000000D-01  1.0345615623714D+00 -1.6889504492695D-01
40  3.9000000000000D-01  1.0540599538386D+00 -1.6597040584463D-01
41  4.0000000000000D-01  1.0729321127932D+00 -1.6281212476072D-01
42  4.1000000000000D-01  1.0911595414690D+00 -1.5943849545095D-01
43  4.2000000000000D-01  1.1087237222771D+00 -1.5586696130228D-01
44  4.3000000000000D-01  1.1256061465166D+00 -1.5211390436736D-01
45  4.4000000000000D-01  1.1417883460447D+00 -1.4819444084153D-01
46  4.5000000000000D-01  1.1572519279453D+00 -1.4412222461598D-01
47  4.6000000000000D-01  1.1719786122152D+00 -1.3990926052619D-01
48  4.7000000000000D-01  1.1859502724613D+00 -1.3556572886667D-01
49  4.8000000000000D-01  1.1991489795870D+00 -1.3109982268355D-01
50  4.9000000000000D-01  1.2115570484131D+00 -1.2651759928477D-01
51  5.0000000000000D-01  1.2231570871605D+00 -1.2182284732393D-01
52  5.1000000000000D-01  1.2339320496918D+00 -1.1701697071956D-01
53  5.2000000000000D-01  1.2438652903823D+00 -1.1209889056539D-01
54  5.3000000000000D-01  1.2529406214653D+00 -1.0706496607240D-01
55  5.4000000000000D-01  1.2611423726663D+00 -1.0190893545749D-01
56  5.5000000000000D-01  1.2684554529123D+00 -9.6621877560529D-02
57  5.6000000000000D-01  1.2748654138789D+00 -9.1192194830036D-02
58  5.7000000000000D-01  1.2803585151024D+00 -8.5605618169100D-02
59  5.8000000000000D-01  1.2849217903652D+00 -7.9845233980399D-02
60  5.9000000000000D-01  1.2885431150313D+00 -7.3891533589796D-02
61  6.0000000000000D-01  1.2912112739852D+00 -6.7722485067760D-02
62  6.1000000000000D-01  1.2929160298059D+00 -6.1313627303162D-02
63  6.2000000000000D-01  1.2936481907841D+00 -5.4638186021244D-02
64  6.3000000000000D-01  1.2933996783723D+00 -4.7667211273323D-02
65  6.4000000000000D-01  1.2921635936407D+00 -4.0369735765141D-02
66  6.5000000000000D-01  1.2899342822975D+00 -3.2712953233578D-02
67  6.6000000000000D-01  1.2867073978215D+00 -2.4662415928349D-02
68  6.7000000000000D-01  1.2824799622461D+00 -1.6182250109615D-02
69  6.8000000000000D-01  1.2772504241322D+00 -7.2353883348288D-03
70  6.9000000000000D-01  1.2710187132637D+00  2.2161828221057D-03
71  7.0000000000000D-01  1.2637862916054D+00  1.2211161093509D-02
72  7.1000000000000D-01  1.2555562000717D+00  2.2788654464535D-02
73  7.2000000000000D-01  1.2463331006631D+00  3.3987896419015D-02
74  7.3000000000000D-01  1.2361233135501D+00  4.5847952240847D-02
75  7.4000000000000D-01  1.2249348486986D+00  5.8407418192332D-02
76  7.5000000000000D-01  1.2127774316643D+00  7.1704115441381D-02
77  7.6000000000000D-01  1.1996625232069D+00  8.5774780643260D-02
78  7.7000000000000D-01  1.1856033324163D+00  1.0065475510029D-01
79  7.8000000000000D-01  1.1706148230789D+00  1.1637767442395D-01
80  7.9000000000000D-01  1.1547137130556D+00  1.3297516060750D-01
81  8.0000000000000D-01  1.1379184664945D+00  1.5047651838482D-01
82  8.1000000000000D-01  1.1202492787483D+00  1.6890843770194D-01
83  8.2000000000000D-01  1.1017280539249D+00  1.8829470406295D-01
84  8.3000000000000D-01  1.0823783750556D+00  2.0865591843196D-01
85  8.4000000000000D-01  1.0622254669267D+00  2.3000922827870D-01
86  8.5000000000000D-01  1.0412961516824D+00  2.5236807124823D-01
87  8.6000000000000D-01  1.0196187973709D+00  2.7574193281696D-01
88  8.7000000000000D-01  9.9722325967042D-01  3.0013611916849D-01
89  8.8000000000000D-01  9.7414081709687D-01  3.2555154638602D-01
90  8.9000000000000D-01  9.5040410005839D-01  3.5198454691591D-01
91  9.0000000000000D-01  9.2604701418617D-01  3.7942669410943D-01
92  9.1000000000000D-01  9.0110465843053D-01  4.0786464550167D-01
93  9.2000000000000D-01  8.7561323846988D-01  4.3728000533863D-01
94  9.3000000000000D-01  8.4960997603344D-01  4.6764920671868D-01
95  9.4000000000000D-01  8.2313301478846D-01  4.9894341357575D-01
96  9.5000000000000D-01  7.9622132348606D-01  5.3112844260084D-01
97  9.6000000000000D-01  7.6891459709692D-01  5.6416470507920D-01
98  9.7000000000000D-01  7.4125315669828D-01  5.9800716851441D-01
99  9.8000000000000D-01  7.1327784889570D-01  6.3260533782010D-01
100  9.9000000000000D-01  6.8502994557564D-01  6.6790325578939D-01
101  1.0000000000000D+00  6.5655104478860D-01  7.0383952250094D-01
102  1.0100000000000D+00  6.2788297355576D-01  7.4034733329276D-01
103  1.0200000000000D+00  5.9906769337412D-01  7.7735453493130D-01
104  1.0300000000000D+00  5.7014720916493D-01  8.1478369962849D-01
105  1.0400000000000D+00  5.4116348237268D-01  8.5255221660386D-01
106  1.0500000000000D+00  5.1215834886453D-01  8.9057240097322D-01
107  1.0600000000000D+00  4.8317344221780D-01  9.2875161984831D-01
108  1.0700000000000D+00  4.5425012290570D-01  9.6699243566529D-01
109  1.0800000000000D+00  4.2542941379509D-01  1.0051927669354D+00
110  1.0900000000000D+00  3.9675194228424D-01  1.0432460667701D+00
111  1.1000000000000D+00  3.6825788927794D-01  1.0810415197802D+00
112  1.1100000000000D+00  3.3998694508529D-01  1.1184642581606D+00
113  1.1200000000000D+00  3.1197827218329D-01  1.1553955980460D+00
114  1.1300000000000D+00  2.8427047465569D-01  1.1917132974710D+00
115  1.1400000000000D+00  2.5690157396850D-01  1.2272918375495D+00
116  1.1500000000000D+00  2.2990899057359D-01  1.2620027287986D+00
117  1.1600000000000D+00  2.0332953067630D-01  1.2957148448002D+00
118  1.1700000000000D+00  1.7719937735522D-01  1.3282947856497D+00
119  1.1800000000000D+00  1.5155408504844D-01  1.3596072739219D+00
120  1.1900000000000D+00  1.2642857625047D-01  1.3895155861346D+00
121  1.2000000000000D+00  1.0185713910384D-01  1.4178820228725D+00
122  1.2100000000000D+00  7.7873424478099D-02  1.4445684208593D+00
123  1.2200000000000D+00  5.4510440902708D-02  1.4694367104655D+00
124  1.2300000000000D+00  3.1800545649258D-02  1.4923495220690D+00
125  1.2400000000000D+00  9.7754301659397D-03  1.5131708446921D+00
126  1.2500000000000D+00 -1.1533902062434D-02  1.5317667402797D+00
127  1.2600000000000D+00 -3.2097167192314D-02  1.5480061165658D+00
128  1.2700000000000D+00 -5.1884844206542D-02  1.5617615612240D+00
129  1.2800000000000D+00 -7.0868231639204D-02  1.5729102397192D+00
130  1.2900000000000D+00 -8.9019519749636D-02  1.5813348580668D+00
131  1.3000000000000D+00 -1.0631187999972D-01  1.5869246913649D+00
132  1.3100000000000D+00 -1.2271957366176D-01  1.5895766782737D+00
133  1.3200000000000D+00 -1.3821808092960D-01  1.5891965790442D+00
134  1.3300000000000D+00 -1.5278425195830D-01  1.5857001950113D+00
135  1.3400000000000D+00 -1.6639648092193D-01  1.5790146453200D+00
136  1.3500000000000D+00 -1.7903490326304D-01  1.5690796924297D+00
137  1.3600000000000D+00 -1.9068161693122D-01  1.5558491107474D+00
138  1.3700000000000D+00 -2.0132092683300D-01  1.5392920852178D+00
139  1.3800000000000D+00 -2.1093961121177D-01  1.5193946248560D+00
140  1.3900000000000D+00 -2.1952720934195D-01  1.4961609786933D+00
141  1.4000000000000D+00 -2.2707632651229D-01  1.4696150270715D+00
142  1.4100000000000D+00 -2.3358295408082D-01  1.4398016290041D+00
143  1.4200000000000D+00 -2.3904680002636D-01  1.4067878960828D+00
144  1.4300000000000D+00 -2.4347162278805D-01  1.3706643530519D+00
145  1.4400000000000D+00 -2.4686556479251D-01  1.3315459594420D+00
146  1.4500000000000D+00 -2.4924147326817D-01  1.2895729313479D+00
147  1.4600000000000D+00 -2.5061720212857D-01  1.2449113272606D+00
148  1.4700000000000D+00 -2.5101588164732D-01  1.1977533335093D+00
149  1.4800000000000D+00 -2.5046614129920D-01  1.1483171800901D+00
150  1.4900000000000D+00 -2.4900227543439D-01  1.0968466338772D+00
151  1.5000000000000D+00 -2.4666432511833D-01  1.0436099532029D+00
152  1.5100000000000D+00 -2.4349806838037D-01  9.8889826064142D-01
153  1.5200000000000D+00 -2.3955488352155D-01  9.3302318458680D-01
154  1.5300000000000D+00 -2.3489147100950D-01  8.7631370054796D-01
155  1.5400000000000D+00 -2.2956939897091D-01  8.1911202424199D-01
156  1.5500000000000D+00 -2.2365444245381D-01  7.6176842868300D-01
157  1.5600000000000D+00 -2.1721567162849D-01  7.0463475219543D-01
158  1.5700000000000D+00 -2.1032433814420D-01  6.4805709584591D-01
159  1.5800000000000D+00 -2.0305211815019D-01  5.9236471563897D-01
160  1.5900000000000D+00 -1.9547002842179D-01  5.3786416798582D-01
161  1.6000000000000D+00 -1.8764512583996D-01  4.8481981078784D-01
162  1.6100000000000D+00 -1.7963702477584D-01  4.3343244200656D-01
163  1.6200000000000D+00 -1.7149885011733D-01  3.8385286627309D-01
164  1.6300000000000D+00 -1.6327720138211D-01  3.3618799403795D-01
165  1.6400000000000D+00 -1.5501504587542D-01  2.9052291790810D-01
166  1.6500000000000D+00 -1.4675442798478D-01  2.4694240963345D-01
167  1.6600000000000D+00 -1.3853504904321D-01  2.0552095849232D-01
168  1.6700000000000D+00 -1.3039401009247D-01  1.6632081690322D-01
169  1.6800000000000D+00 -1.2236605818109D-01  1.2939465604877D-01
170  1.6900000000000D+00 -1.1448334159921D-01  9.4784045697417D-02
171  1.7000000000000D+00 -1.0677540254888D-01  6.2519761370311D-02
172  1.7100000000000D+00 -9.9269110700728D-02  3.2621584180039D-02
173  1.7200000000000D+00 -9.1988626347703D-02  5.0982690387239D-03
174  1.7300000000000D+00 -8.4955378898808D-02 -2.0052425144091D-02
175  1.7400000000000D+00 -7.8188061794056D-02 -4.2843638926664D-02
176  1.7500000000000D+00 -7.1702642572639D-02 -6.3299254782390D-02
177  1.7600000000000D+00 -6.5512389274716D-02 -8.1453673768122D-02
178  1.7700000000000D+00 -5.9627911382578D-02 -9.7351533906603D-02
179  1.7800000000000D+00 -5.4057216663665D-02 -1.1104736476450D-01
180  1.7900000000000D+00 -4.8805781552013D-02 -1.2260518807330D-01
181  1.8000000000000D+00 -4.3876636572101D-02 -1.3209805828427D-01
182  1.8100000000000D+00 -3.9270464138952D-02 -1.3960755415960D-01
183  1.8200000000000D+00 -3.4985709913761D-02 -1.4522321662728D-01
184  1.8300000000000D+00 -3.1018705315384D-02 -1.4904194290388D-01
185  1.8400000000000D+00 -2.7363801611341D-02 -1.5116733523283D-01
186  1.8500000000000D+00 -2.4013513761149D-02 -1.5170901187688D-01
187  1.8600000000000D+00 -2.0958673545444D-02 -1.5078188239047D-01
188  1.8700000000000D+00 -1.8188590801238D-02 -1.4850539213534D-01
189  1.8800000000000D+00 -1.5691221481730D-02 -1.4500274142795D-01
190  1.8900000000000D+00 -1.3453341870833D-02 -1.4040008218488D-01
191  1.9000000000000D+00 -1.1460727172669D-02 -1.3482569949206D-01
192  1.9100000000000D+00 -9.6983339195199D-03 -1.2840918052302D-01
193  1.9200000000000D+00 -8.1504844937915D-03 -1.2128057788388D-01
194  1.9300000000000D+00 -6.8010527818056D-03 -1.1356957159683D-01
195  1.9400000000000D+00 -5.6336497689020D-03 -1.0540463465491D-01
196  1.9500000000000D+00 -4.6318076330258D-03 -9.6912208253848D-02
197  1.9600000000000D+00 -3.7791613285382D-03 -8.8215890915792D-02
198  1.9700000000000D+00 -3.0596265404213D-03 -7.9435646190226D-02
199  1.9800000000000D+00 -2.4575722205440D-03 -7.0687036472481D-02
200  1.9900000000000D+00 -1.9579879371455D-03 -6.2080481903480D-02
201  2.0000000000000D+00 -1.5466429153077D-03 -5.3720557528335D-02
202  2.0100000000000D+00 -1.2102379422237D-03 -4.5705323702880D-02
203  2.0200000000000D+00 -9.3654740593164D-04 -3.8125701251636D-02
204  2.0300000000000D+00 -7.1455117983110D-04 -3.1064892557476D-02
205  2.0400000000000D+00 -5.3455639886500D-04 -2.4597848356902D-02
206  2.0500000000000D+00 -3.8840300020174D-04 -1.8795517697675D-02
207  2.0600000000000D+00 -2.6917620493392D-04 -1.3705698479281D-02
208  2.0700000000000D+00 -1.7168526510127D-04 -9.3621021891201D-03
209  2.0800000000000D+00 -9.2684327071173D-05 -5.8138384766453D-03
210  2.0900000000000D+00 -3.0845772264111D-05 -3.1496619009999D-03
211  2.1000000000000D+00  1.4936467909227D-05 -1.4158021024668D-03
212  2.1100000000000D+00  4.0709941088552D-05 -4.5460447967591D-04
213  2.1200000000000D+00  4.3021183031095D-05 -4.0467581181123D-05
214  2.1300000000000D+00  2.5371854689768D-05  5.7540828753325D-05
215  2.1400000000000D+00  3.7346838325617D-06  1.3371787195316D-05
216  2.1500000000000D+00 -5.5690291655941D-06 -2.4170804038317D-05
217  2.1600000000000D+00 -4.2522676282496D-06 -2.0923460656917D-05
218  2.1700000000000D+00  4.2292021512966D-07  1.2976152218196D-06
219  2.1800000000000D+00  1.2857643732139D-06  4.3381890090091D-06
220  2.1900000000000D+00  5.1250561214510D-07  1.8535162800116D-06
221  2.2000000000000D+00 -9.5463928457681D-08  2.8510212704581D-07
222  2.2100000000000D+00 -1.1729184207903D-07  3.5029098636640D-07
223  2.2200000000000D+00 -1.2437616044127D-09  3.7144823671608D-09
224  2.2300000000000D+00  0.0000000000000D+00  0.0000000000000D+00
225  2.2400000000000D+00  0.0000000000000D+00  0.0000000000000D+00
226  2.2500000000000D+00  0.0000000000000D+00  0.0000000000000D+00
227  2.2600000000000D+00  0.0000000000000D+00  0.0000000000000D+00
228  2.2700000000000D+00  0.0000000000000D+00  0.0000000000000D+00
229  2.2800000000000D+00  0.0000000000000D+00  0.0000000000000D+00
230  2.2900000000000D+00  0.0000000000000D+00  0.0000000000000D+00
231  2.3000000000000D+00  0.0000000000000D+00  0.0000000000000D+00
232  2.3100000000000D+00  0.0000000000000D+00  0.0000000000000D+00
233  2.3200000000000D+00  0.0000000000000D+00  0.0000000000000D+00
234  2.3300000000000D+00  0.0000000000000D+00  0.0000000000000D+00
235  2.3400000000000D+00  0.0000000000000D+00  0.0000000000000D+00
236  2.3500000000000D+00  0.0000000000000D+00  0.0000000000000D+00
237  2.3600000000000D+00  0.0000000000000D+00  0.0000000000000D+00
238  2.3700000000000D+00  0.0000000000000D+00  0.0000000000000D+00
239  2.3800000000000D+00  0.0000000000000D+00  0.0000000000000D+00
240  2.3900000000000D+00  0.0000000000000D+00  0.0000000000000D+00
241  2.4000000000000D+00  0.0000000000000D+00  0.0000000000000D+00
242  2.4100000000000D+00  0.0000000000000D+00  0.0000000000000D+00
243  2.4200000000000D+00  0.0000000000000D+00  0.0000000000000D+00
244  2.4300000000000D+00  0.0000000000000D+00  0.0000000000000D+00
245  2.4400000000000D+00  0.0000000000000D+00  0.0000000000000D+00
246  2.4500000000000D+00  0.0000000000000D+00  0.0000000000000D+00
247  2.4600000000000D+00  0.0000000000000D+00  0.0000000000000D+00
248  2.4700000000000D+00  0.0000000000000D+00  0.0000000000000D+00
249  2.4800000000000D+00  0.0000000000000D+00  0.0000000000000D+00
250  2.4900000000000D+00  0.0000000000000D+00  0.0000000000000D+00
251  2.5000000000000D+00  0.0000000000000D+00  0.0000000000000D+00
252  2.5100000000000D+00  0.0000000000000D+00  0.0000000000000D+00
253  2.5200000000000D+00  0.0000000000000D+00  0.0000000000000D+00
254  2.5300000000000D+00  0.0000000000000D+00  0.0000000000000D+00
255  2.5400000000000D+00  0.0000000000000D+00  0.0000000000000D+00
256  2.5500000000000D+00  0.0000000000000D+00  0.0000000000000D+00
257  2.5600000000000D+00  0.0000000000000D+00  0.0000000000000D+00
258  2.5700000000000D+00  0.0000000000000D+00  0.0000000000000D+00
259  2.5800000000000D+00  0.0000000000000D+00  0.0000000000000D+00
260  2.5900000000000D+00  0.0000000000000D+00  0.0000000000000D+00
261  2.6000000000000D+00  0.0000000000000D+00  0.0000000000000D+00
262  2.6100000000000D+00  0.0000000000000D+00  0.0000000000000D+00
263  2.6200000000000D+00  0.0000000000000D+00  0.0000000000000D+00
264  2.6300000000000D+00  0.0000000000000D+00  0.0000000000000D+00
265  2.6400000000000D+00  0.0000000000000D+00  0.0000000000000D+00
266  2.6500000000000D+00  0.0000000000000D+00  0.0000000000000D+00
267  2.6600000000000D+00  0.0000000000000D+00  0.0000000000000D+00
268  2.6700000000000D+00  0.0000000000000D+00  0.0000000000000D+00
269  2.6800000000000D+00  0.0000000000000D+00  0.0000000000000D+00
270  2.6900000000000D+00  0.0000000000000D+00  0.0000000000000D+00
271  2.7000000000000D+00  0.0000000000000D+00  0.0000000000000D+00
272  2.7100000000000D+00  0.0000000000000D+00  0.0000000000000D+00
273  2.7200000000000D+00  0.0000000000000D+00  0.0000000000000D+00
274  2.7300000000000D+00  0.0000000000000D+00  0.0000000000000D+00
275  2.7400000000000D+00  0.0000000000000D+00  0.0000000000000D+00
276  2.7500000000000D+00  0.0000000000000D+00  0.0000000000000D+00
277  2.7600000000000D+00  0.0000000000000D+00  0.0000000000000D+00
278  2.7700000000000D+00  0.0000000000000D+00  0.0000000000000D+00
279  2.7800000000000D+00  0.0000000000000D+00  0.0000000000000D+00
280  2.7900000000000D+00  0.0000000000000D+00  0.0000000000000D+00
281  2.8000000000000D+00  0.0000000000000D+00  0.0000000000000D+00
282  2.8100000000000D+00  0.0000000000000D+00  0.0000000000000D+00
283  2.8200000000000D+00  0.0000000000000D+00  0.0000000000000D+00
284  2.8300000000000D+00  0.0000000000000D+00  0.0000000000000D+00
285  2.8400000000000D+00  0.0000000000000D+00  0.0000000000000D+00
286  2.8500000000000D+00  0.0000000000000D+00  0.0000000000000D+00
287  2.8600000000000D+00  0.0000000000000D+00  0.0000000000000D+00
288  2.8700000000000D+00  0.0000000000000D+00  0.0000000000000D+00
289  2.8800000000000D+00  0.0000000000000D+00  0.0000000000000D+00
290  2.8900000000000D+00  0.0000000000000D+00  0.0000000000000D+00
291  2.9000000000000D+00  0.0000000000000D+00  0.0000000000000D+00
292  2.9100000000000D+00  0.0000000000000D+00  0.0000000000000D+00
293  2.9200000000000D+00  0.0000000000000D+00  0.0000000000000D+00
294  2.9300000000000D+00  0.0000000000000D+00  0.0000000000000D+00
295  2.9400000000000D+00  0.0000000000000D+00  0.0000000000000D+00
296  2.9500000000000D+00  0.0000000000000D+00  0.0000000000000D+00
297  2.9600000000000D+00  0.0000000000000D+00  0.0000000000000D+00
298  2.9700000000000D+00  0.0000000000000D+00  0.0000000000000D+00
299  2.9800000000000D+00  0.0000000000000D+00  0.0000000000000D+00
300  2.9900000000000D+00  0.0000000000000D+00  0.0000000000000D+00
301  3.0000000000000D+00  0.0000000000000D+00  0.0000000000000D+00
302  3.0100000000000D+00  0.0000000000000D+00  0.0000000000000D+00
303  3.0200000000000D+00  0.0000000000000D+00  0.0000000000000D+00
304  3.0300000000000D+00  0.0000000000000D+00  0.0000000000000D+00
305  3.0400000000000D+00  0.0000000000000D+00  0.0000000000000D+00
306  3.0500000000000D+00  0.0000000000000D+00  0.0000000000000D+00
307  3.0600000000000D+00  0.0000000000000D+00  0.0000000000000D+00
308  3.0700000000000D+00  0.0000000000000D+00  0.0000000000000D+00
309  3.0800000000000D+00  0.0000000000000D+00  0.0000000000000D+00
310  3.0900000000000D+00  0.0000000000000D+00  0.0000000000000D+00
311  3.1000000000000D+00  0.0000000000000D+00  0.0000000000000D+00
312  3.1100000000000D+00  0.0000000000000D+00  0.0000000000000D+00
313  3.1200000000000D+00  0.0000000000000D+00  0.0000000000000D+00
314  3.1300000000000D+00  0.0000000000000D+00  0.0000000000000D+00
315  3.1400000000000D+00  0.0000000000000D+00  0.0000000000000D+00
316  3.1500000000000D+00  0.0000000000000D+00  0.0000000000000D+00
317  3.1600000000000D+00  0.0000000000000D+00  0.0000000000000D+00
318  3.1700000000000D+00  0.0000000000000D+00  0.0000000000000D+00
319  3.1800000000000D+00  0.0000000000000D+00  0.0000000000000D+00
320  3.1900000000000D+00  0.0000000000000D+00  0.0000000000000D+00
321  3.2000000000000D+00  0.0000000000000D+00  0.0000000000000D+00
322  3.2100000000000D+00  0.0000000000000D+00  0.0000000000000D+00
323  3.2200000000000D+00  0.0000000000000D+00  0.0000000000000D+00
324  3.2300000000000D+00  0.0000000000000D+00  0.0000000000000D+00
325  3.2400000000000D+00  0.0000000000000D+00  0.0000000000000D+00
326  3.2500000000000D+00  0.0000000000000D+00  0.0000000000000D+00
327  3.2600000000000D+00  0.0000000000000D+00  0.0000000000000D+00
328  3.2700000000000D+00  0.0000000000000D+00  0.0000000000000D+00
329  3.2800000000000D+00  0.0000000000000D+00  0.0000000000000D+00
330  3.2900000000000D+00  0.0000000000000D+00  0.0000000000000D+00
331  3.3000000000000D+00  0.0000000000000D+00  0.0000000000000D+00
332  3.3100000000000D+00  0.0000000000000D+00  0.0000000000000D+00
333  3.3200000000000D+00  0.0000000000000D+00  0.0000000000000D+00
334  3.3300000000000D+00  0.0000000000000D+00  0.0000000000000D+00
335  3.3400000000000D+00  0.0000000000000D+00  0.0000000000000D+00
336  3.3500000000000D+00  0.0000000000000D+00  0.0000000000000D+00
337  3.3600000000000D+00  0.0000000000000D+00  0.0000000000000D+00
338  3.3700000000000D+00  0.0000000000000D+00  0.0000000000000D+00
339  3.3800000000000D+00  0.0000000000000D+00  0.0000000000000D+00
340  3.3900000000000D+00  0.0000000000000D+00  0.0000000000000D+00
341  3.4000000000000D+00  0.0000000000000D+00  0.0000000000000D+00
342  3.4100000000000D+00  0.0000000000000D+00  0.0000000000000D+00
343  3.4200000000000D+00  0.0000000000000D+00  0.0000000000000D+00
344  3.4300000000000D+00  0.0000000000000D+00  0.0000000000000D+00
345  3.4400000000000D+00  0.0000000000000D+00  0.0000000000000D+00
346  3.4500000000000D+00  0.0000000000000D+00  0.0000000000000D+00
347  3.4600000000000D+00  0.0000000000000D+00  0.0000000000000D+00
348  3.4700000000000D+00  0.0000000000000D+00  0.0000000000000D+00
349  3.4800000000000D+00  0.0000000000000D+00  0.0000000000000D+00
350  3.4900000000000D+00  0.0000000000000D+00  0.0000000000000D+00
351  3.5000000000000D+00  0.0000000000000D+00  0.0000000000000D+00
352  3.5100000000000D+00  0.0000000000000D+00  0.0000000000000D+00
353  3.5200000000000D+00  0.0000000000000D+00  0.0000000000000D+00
354  3.5300000000000D+00  0.0000000000000D+00  0.0000000000000D+00
355  3.5400000000000D+00  0.0000000000000D+00  0.0000000000000D+00
356  3.5500000000000D+00  0.0000000000000D+00  0.0000000000000D+00
357  3.5600000000000D+00  0.0000000000000D+00  0.0000000000000D+00
358  3.5700000000000D+00  0.0000000000000D+00  0.0000000000000D+00
359  3.5800000000000D+00  0.0000000000000D+00  0.0000000000000D+00
360  3.5900000000000D+00  0.0000000000000D+00  0.0000000000000D+00
361  3.6000000000000D+00  0.0000000000000D+00  0.0000000000000D+00
362  3.6100000000000D+00  0.0000000000000D+00  0.0000000000000D+00
363  3.6200000000000D+00  0.0000000000000D+00  0.0000000000000D+00
364  3.6300000000000D+00  0.0000000000000D+00  0.0000000000000D+00
365  3.6400000000000D+00  0.0000000000000D+00  0.0000000000000D+00
366  3.6500000000000D+00  0.0000000000000D+00  0.0000000000000D+00
367  3.6600000000000D+00  0.0000000000000D+00  0.0000000000000D+00
368  3.6700000000000D+00  0.0000000000000D+00  0.0000000000000D+00
369  3.6800000000000D+00  0.0000000000000D+00  0.0000000000000D+00
370  3.6900000000000D+00  0.0000000000000D+00  0.0000000000000D+00
371  3.7000000000000D+00  0.0000000000000D+00  0.0000000000000D+00
372  3.7100000000000D+00  0.0000000000000D+00  0.0000000000000D+00
373  3.7200000000000D+00  0.0000000000000D+00  0.0000000000000D+00
374  3.7300000000000D+00  0.0000000000000D+00  0.0000000000000D+00
375  3.7400000000000D+00  0.0000000000000D+00  0.0000000000000D+00
376  3.7500000000000D+00  0.0000000000000D+00  0.0000000000000D+00
377  3.7600000000000D+00  0.0000000000000D+00  0.0000000000000D+00
378  3.7700000000000D+00  0.0000000000000D+00  0.0000000000000D+00
379  3.7800000000000D+00  0.0000000000000D+00  0.0000000000000D+00
380  3.7900000000000D+00  0.0000000000000D+00  0.0000000000000D+00
381  3.8000000000000D+00  0.0000000000000D+00  0.0000000000000D+00
382  3.8100000000000D+00  0.0000000000000D+00  0.0000000000000D+00
383  3.8200000000000D+00  0.0000000000000D+00  0.0000000000000D+00
384  3.8300000000000D+00  0.0000000000000D+00  0.0000000000000D+00
385  3.8400000000000D+00  0.0000000000000D+00  0.0000000000000D+00
386  3.8500000000000D+00  0.0000000000000D+00  0.0000000000000D+00
387  3.8600000000000D+00  0.0000000000000D+00  0.0000000000000D+00
388  3.8700000000000D+00  0.0000000000000D+00  0.0000000000000D+00
389  3.8800000000000D+00  0.0000000000000D+00  0.0000000000000D+00
390  3.8900000000000D+00  0.0000000000000D+00  0.0000000000000D+00
391  3.9000000000000D+00  0.0000000000000D+00  0.0000000000000D+00
392  3.9100000000000D+00  0.0000000000000D+00  0.0000000000000D+00
393  3.9200000000000D+00  0.0000000000000D+00  0.0000000000000D+00
394  3.9300000000000D+00  0.0000000000000D+00  0.0000000000000D+00
395  3.9400000000000D+00  0.0000000000000D+00  0.0000000000000D+00
396  3.9500000000000D+00  0.0000000000000D+00  0.0000000000000D+00
397  3.9600000000000D+00  0.0000000000000D+00  0.0000000000000D+00
398  3.9700000000000D+00  0.0000000000000D+00  0.0000000000000D+00
399  3.9800000000000D+00  0.0000000000000D+00  0.0000000000000D+00
400  3.9900000000000D+00  0.0000000000000D+00  0.0000000000000D+00
401  4.0000000000000D+00  0.0000000000000D+00  0.0000000000000D+00
402  4.0100000000000D+00  0.0000000000000D+00  0.0000000000000D+00
403  4.0200000000000D+00  0.0000000000000D+00  0.0000000000000D+00
404  4.0300000000000D+00  0.0000000000000D+00  0.0000000000000D+00
405  4.0400000000000D+00  0.0000000000000D+00  0.0000000000000D+00
406  4.0500000000000D+00  0.0000000000000D+00  0.0000000000000D+00
407  4.0600000000000D+00  0.0000000000000D+00  0.0000000000000D+00
408  4.0700000000000D+00  0.0000000000000D+00  0.0000000000000D+00
409  4.0800000000000D+00  0.0000000000000D+00  0.0000000000000D+00
410  4.0900000000000D+00  0.0000000000000D+00  0.0000000000000D+00
411  4.1000000000000D+00  0.0000000000000D+00  0.0000000000000D+00
412  4.1100000000000D+00  0.0000000000000D+00  0.0000000000000D+00
413  4.1200000000000D+00  0.0000000000000D+00  0.0000000000000D+00
414  4.1300000000000D+00  0.0000000000000D+00  0.0000000000000D+00
415  4.1400000000000D+00  0.0000000000000D+00  0.0000000000000D+00
416  4.1500000000000D+00  0.0000000000000D+00  0.0000000000000D+00
417  4.1600000000000D+00  0.0000000000000D+00  0.0000000000000D+00
418  4.1700000000000D+00  0.0000000000000D+00  0.0000000000000D+00
419  4.1800000000000D+00  0.0000000000000D+00  0.0000000000000D+00
420  4.1900000000000D+00  0.0000000000000D+00  0.0000000000000D+00
421  4.2000000000000D+00  0.0000000000000D+00  0.0000000000000D+00
422  4.2100000000000D+00  0.0000000000000D+00  0.0000000000000D+00
423  4.2200000000000D+00  0.0000000000000D+00  0.0000000000000D+00
424  4.2300000000000D+00  0.0000000000000D+00  0.0000000000000D+00
425  4.2400000000000D+00  0.0000000000000D+00  0.0000000000000D+00
426  4.2500000000000D+00  0.0000000000000D+00  0.0000000000000D+00
427  4.2600000000000D+00  0.0000000000000D+00  0.0000000000000D+00
428  4.2700000000000D+00  0.0000000000000D+00  0.0000000000000D+00
429  4.2800000000000D+00  0.0000000000000D+00  0.0000000000000D+00
430  4.2900000000000D+00  0.0000000000000D+00  0.0000000000000D+00
431  4.3000000000000D+00  0.0000000000000D+00  0.0000000000000D+00
432  4.3100000000000D+00  0.0000000000000D+00  0.0000000000000D+00
433  4.3200000000000D+00  0.0000000000000D+00  0.0000000000000D+00
434  4.3300000000000D+00  0.0000000000000D+00  0.0000000000000D+00
435  4.3400000000000D+00  0.0000000000000D+00  0.0000000000000D+00
436  4.3500000000000D+00  0.0000000000000D+00  0.0000000000000D+00
437  4.3600000000000D+00  0.0000000000000D+00  0.0000000000000D+00
438  4.3700000000000D+00  0.0000000000000D+00  0.0000000000000D+00
439  4.3800000000000D+00  0.0000000000000D+00  0.0000000000000D+00
440  4.3900000000000D+00  0.0000000000000D+00  0.0000000000000D+00
441  4.4000000000000D+00  0.0000000000000D+00  0.0000000000000D+00
442  4.4100000000000D+00  0.0000000000000D+00  0.0000000000000D+00
443  4.4200000000000D+00  0.0000000000000D+00  0.0000000000000D+00