Y     ONCVPSP  r_core=  1.61  1.51  1.57
39.0000     11.0000      151029    zatom,zion,pspd
8   -1013   2     4   600     0    pspcod,pspxc,lmax,lloc,mmax,r2well
5.99000000  4.00000000  0.00000000    rchrg fchrg qchrg
2     2     2     0     0    nproj
0                 extension_switch
0                         1.0158273066638D+01  8.7141505034448D-01
1  0.0000000000000D+00  6.9279415537693D-11 -2.4970601975038D-10
2  1.0000000000000D-02  4.9441176647539D-02 -1.0531197028131D-02
3  2.0000000000000D-02  9.8846778690009D-02 -2.1112802243750D-02
4  3.0000000000000D-02  1.4818103485811D-01 -3.1794305722823D-02
5  4.0000000000000D-02  1.9740778281212D-01 -4.2623369618400D-02
6  5.0000000000000D-02  2.4649027923423D-01 -5.3644934885943D-02
7  6.0000000000000D-02  2.9539101662464D-01 -6.4900352655482D-02
8  7.0000000000000D-02  3.4407154895445D-01 -7.6426548171920D-02
9  8.0000000000000D-02  3.9249232825899D-01 -8.8255224975153D-02
10  9.0000000000000D-02  4.4061255416975D-01 -1.0041211668301D-01
11  1.0000000000000D-01  4.8839003828114D-01 -1.1291629337401D-01
12  1.1000000000000D-01  5.3578108513239D-01 -1.2577952914671D-01
13  1.2000000000000D-01  5.8274039145318D-01 -1.3900573696056D-01
14  1.3000000000000D-01  6.2922096517790D-01 -1.5259047634270D-01
15  1.4000000000000D-01  6.7517406557625D-01 -1.6652053898058D-01
16  1.5000000000000D-01  7.2054916568016D-01 -1.8077361661423D-01
17  1.6000000000000D-01  7.6529393800847D-01 -1.9531805500020D-01
18  1.7000000000000D-01  8.0935426440428D-01 -2.1011269704486D-01
19  1.8000000000000D-01  8.5267427060458D-01 -2.2510681750362D-01
20  1.9000000000000D-01  8.9519638596173D-01 -2.4024015091893D-01
21  2.0000000000000D-01  9.3686142853010D-01 -2.5544301372956D-01
22  2.1000000000000D-01  9.7760871552299D-01 -2.7063652073144D-01
23  2.2000000000000D-01  1.0173761989339D+00 -2.8573289531142D-01
24  2.3000000000000D-01  1.0561006259057D+00 -3.0063587211676D-01
25  2.4000000000000D-01  1.0937177232215D+00 -3.1524119006782D-01
26  2.5000000000000D-01  1.1301624050848D+00 -3.2943717287831D-01
27  2.6000000000000D-01  1.1653690031527D+00 -3.4310539351852D-01
28  2.7000000000000D-01  1.1992715175927D+00 -3.5612141835085D-01
29  2.8000000000000D-01  1.2318038877396D+00 -3.6835562598698D-01
30  2.9000000000000D-01  1.2629002807546D+00 -3.7967409526793D-01
31  3.0000000000000D-01  1.2924953965128D+00 -3.8993955615819D-01
32  3.1000000000000D-01  1.3205247867920D+00 -3.9901239677560D-01
33  3.2000000000000D-01  1.3469251866854D+00 -4.0675171925717D-01
34  3.3000000000000D-01  1.3716348560332D+00 -4.1301643668911D-01
35  3.4000000000000D-01  1.3945939285476D+00 -4.1766640291309D-01
36  3.5000000000000D-01  1.4157447662087D+00 -4.2056356666255D-01
37  3.6000000000000D-01  1.4350323164216D+00 -4.2157314118618D-01
38  3.7000000000000D-01  1.4524044693629D+00 -4.2056478028409D-01
39  3.8000000000000D-01  1.4678124128942D+00 -4.1741375151662D-01
40  3.9000000000000D-01  1.4812109823938D+00 -4.1200209724985D-01
41  4.0000000000000D-01  1.4925590028475D+00 -4.0421977417532D-01
42  4.1000000000000D-01  1.5018196205510D+00 -3.9396576198696D-01
43  4.2000000000000D-01  1.5089606218051D+00 -3.8114913201468D-01
44  4.3000000000000D-01  1.5139547360373D+00 -3.6569006680212D-01
45  4.4000000000000D-01  1.5167799208508D+00 -3.4752082187577D-01
46  4.5000000000000D-01  1.5174196265917D+00 -3.2658662128037D-01
47  4.6000000000000D-01  1.5158630381336D+00 -3.0284647885383D-01
48  4.7000000000000D-01  1.5121052917035D+00 -2.7627393767561D-01
49  4.8000000000000D-01  1.5061476647179D+00 -2.4685772065035D-01
50  4.9000000000000D-01  1.4979977367566D+00 -2.1460228577209D-01
51  5.0000000000000D-01  1.4876695199794D+00 -1.7952828025740D-01
52  5.1000000000000D-01  1.4751835574790D+00 -1.4167288842789D-01
53  5.2000000000000D-01  1.4605669882696D+00 -1.0109006896458D-01
54  5.3000000000000D-01  1.4438535778242D+00 -5.7850677937731D-02
55  5.4000000000000D-01  1.4250837133011D+00 -1.2042474836005D-02
56  5.5000000000000D-01  1.4043043628327D+00  3.6229990331225D-02
57  5.6000000000000D-01  1.3815689984958D+00  8.6845609910370D-02
58  5.7000000000000D-01  1.3569374828260D+00  1.3966707161723D-01
59  5.8000000000000D-01  1.3304759189927D+00  1.9454133094207D-01
60  5.9000000000000D-01  1.3022564650046D+00  2.5130020129020D-01
61  6.0000000000000D-01  1.2723571125665D+00  3.0976105929618D-01
62  6.1000000000000D-01  1.2408614314635D+00  3.6972766184935D-01
63  6.2000000000000D-01  1.2078582805931D+00  4.3099107048938D-01
64  6.3000000000000D-01  1.1734414870095D+00  4.9333067796821D-01
65  6.4000000000000D-01  1.1377094945787D+00  5.5651533094888D-01
66  6.5000000000000D-01  1.1007649840691D+00  6.2030454201833D-01
67  6.6000000000000D-01  1.0627144667139D+00  6.8444978344201D-01
68  6.7000000000000D-01  1.0236678534878D+00  7.4869585439132D-01
69  6.8000000000000D-01  9.8373800252164D-01  8.1278231273022D-01
70  6.9000000000000D-01  9.4304024725456D-01  8.7644496186549D-01
71  7.0000000000000D-01  9.0169190807456D-01  9.3941738265109D-01
72  7.1000000000000D-01  8.5981179033274D-01  1.0014324998925D+00
73  7.2000000000000D-01  8.1751967173280D-01  1.0622241726294D+00
74  7.3000000000000D-01  7.7493578219051D-01  1.1215287970856D+00
75  7.4000000000000D-01  7.3218027933023D-01  1.1790869109694D+00
76  7.5000000000000D-01  6.8937272283476D-01  1.2346447876874D+00
77  7.6000000000000D-01  6.4663155089173D-01  1.2879560089987D+00
78  7.7000000000000D-01  6.0407356198197D-01  1.3387830046925D+00
79  7.8000000000000D-01  5.6181340523503D-01  1.3868985480122D+00
80  7.9000000000000D-01  5.1996308253181D-01  1.4320871957845D+00
81  8.0000000000000D-01  4.7863146546668D-01  1.4741466625246D+00
82  8.1000000000000D-01  4.3792383018938D-01  1.5128891182000D+00
83  8.2000000000000D-01  3.9794141303357D-01  1.5481423998178D+00
84  8.3000000000000D-01  3.5878098970211D-01  1.5797511275727D+00
85  8.4000000000000D-01  3.2053448062277D-01  1.6075777169380D+00
86  8.5000000000000D-01  2.8328858491026D-01  1.6315032787983D+00
87  8.6000000000000D-01  2.4712444517531D-01  1.6514284005109D+00
88  8.7000000000000D-01  2.1211734520793D-01  1.6672738016268D+00
89  8.8000000000000D-01  1.7833644233333D-01  1.6789808589086D+00
90  8.9000000000000D-01  1.4584453599616D-01  1.6865119962318D+00
91  9.0000000000000D-01  1.1469787387337D-01  1.6898509359491D+00
92  9.1000000000000D-01  8.4945996550790D-02  1.6890028093275D+00
93  9.2000000000000D-01  5.6631621524826D-02  1.6839941247172D+00
94  9.3000000000000D-01  2.9790567010901D-02  1.6748725931861D+00
95  9.4000000000000D-01  4.4517157565921D-03  1.6617068124304D+00
96  9.5000000000000D-01 -1.9362981227979D-02  1.6445858108561D+00
97  9.6000000000000D-01 -4.1638461394249D-02  1.6236184547932D+00
98  9.7000000000000D-01 -6.2366468490434D-02  1.5989327228738D+00
99  9.8000000000000D-01 -8.1545432434809D-02  1.5706748526072D+00
100  9.9000000000000D-01 -9.9180312430876D-02  1.5390083652097D+00
101  1.0000000000000D+00 -1.1528240478428D-01  1.5041129756849D+00
102  1.0100000000000D+00 -1.2986911713014D-01  1.4661833960492D+00
103  1.0200000000000D+00 -1.4296371101431D-01  1.4254280404460D+00
104  1.0300000000000D+00 -1.5459501499069D-01  1.3820676416634D+00
105  1.0400000000000D+00 -1.6479711060195D-01  1.3363337892855D+00
106  1.0500000000000D+00 -1.7360899378107D-01  1.2884674002935D+00
107  1.0600000000000D+00 -1.8107421439053D-01  1.2387171335273D+00
108  1.0700000000000D+00 -1.8724049674136D-01  1.1873377598221D+00
109  1.0800000000000D+00 -1.9215934405594D-01  1.1345885000057D+00
110  1.0900000000000D+00 -1.9588562993010D-01  1.0807313431906D+00
111  1.1000000000000D+00 -1.9847717991158D-01  1.0260293579488D+00
112  1.1100000000000D+00 -1.9999434636265D-01  9.7074500902036D-01
113  1.1200000000000D+00 -2.0049957978137D-01  9.1513849214212D-01
114  1.1300000000000D+00 -2.0005699974209D-01  8.5946609940145D-01
115  1.1400000000000D+00 -1.9873196858704D-01  8.0397862731164D-01
116  1.1500000000000D+00 -1.9659067093239D-01  7.4891983940756D-01
117  1.1600000000000D+00 -1.9369970196294D-01  6.9452499470316D-01
118  1.1700000000000D+00 -1.9012566735550D-01  6.4101945270293D-01
119  1.1800000000000D+00 -1.8593479758496D-01  5.8861736524271D-01
120  1.1900000000000D+00 -1.8119257915255D-01  5.3752046444154D-01
121  1.2000000000000D+00 -1.7596340510965D-01  4.8791695530795D-01
122  1.2100000000000D+00 -1.7031024704409D-01  4.3998052062396D-01
123  1.2200000000000D+00 -1.6429435052948D-01  3.9386944499279D-01
124  1.2300000000000D+00 -1.5797495571185D-01  3.4972586351872D-01
125  1.2400000000000D+00 -1.5140904445457D-01  3.0767513951183D-01
126  1.2500000000000D+00 -1.4465111538054D-01  2.6782537524393D-01
127  1.2600000000000D+00 -1.3775298762358D-01  2.3026705754745D-01
128  1.2700000000000D+00 -1.3076363390545D-01  1.9507283924018D-01
129  1.2800000000000D+00 -1.2372904345867D-01  1.6229745694198D-01
130  1.2900000000000D+00 -1.1669211473793D-01  1.3197778343893D-01
131  1.3000000000000D+00 -1.0969257764266D-01  1.0413301185850D-01
132  1.3100000000000D+00 -1.0276694496965D-01  7.8764968884948D-02
133  1.3200000000000D+00 -9.5948492101318D-02  5.5858551316265D-02
134  1.3300000000000D+00 -8.9267263861517D-02  3.5382279984904D-02
135  1.3400000000000D+00 -8.2750107431720D-02  1.7288964880881D-02
136  1.3500000000000D+00 -7.6420729459829D-02  1.5164722517216D-03
137  1.3600000000000D+00 -7.0299775686818D-02 -1.2011414751899D-02
138  1.3700000000000D+00 -6.4404931100592D-02 -2.3384051610327D-02
139  1.3800000000000D+00 -5.8751038142295D-02 -3.2702915754362D-02
140  1.3900000000000D+00 -5.3350230785379D-02 -4.0080528127429D-02
141  1.4000000000000D+00 -4.8212081701228D-02 -4.5639325824553D-02
142  1.4100000000000D+00 -4.3343759794834D-02 -4.9510498297440D-02
143  1.4200000000000D+00 -3.8750195353126D-02 -5.1832799863477D-02
144  1.4300000000000D+00 -3.4434249683827D-02 -5.2751352484945D-02
145  1.4400000000000D+00 -3.0396886384468D-02 -5.2416451886371D-02
146  1.4500000000000D+00 -2.6637341049652D-02 -5.0982391225308D-02
147  1.4600000000000D+00 -2.3153286176513D-02 -4.8606316956277D-02
148  1.4700000000000D+00 -1.9940988169549D-02 -4.5447130662312D-02
149  1.4800000000000D+00 -1.6995453512932D-02 -4.1664448632404D-02
150  1.4900000000000D+00 -1.4310573574061D-02 -3.7417576244324D-02
151  1.5000000000000D+00 -1.1879281187746D-02 -3.2864415803893D-02
152  1.5100000000000D+00 -9.6934022578380D-03 -2.8161910224341D-02
153  1.5200000000000D+00 -7.7441158413395D-03 -2.3463433016623D-02
154  1.5300000000000D+00 -6.0227671787769D-03 -1.8914361515384D-02
155  1.5400000000000D+00 -4.5216234072552D-03 -1.4648202085222D-02
156  1.5500000000000D+00 -3.2350074207472D-03 -1.0782227320871D-02
157  1.5600000000000D+00 -2.1593778069804D-03 -7.4173692601088D-03
158  1.5700000000000D+00 -1.2895689623621D-03 -4.6201732941015D-03
159  1.5800000000000D+00 -6.2877420924241D-04 -2.4672097065377D-03
160  1.5900000000000D+00 -1.9124596915057D-04 -1.0744771629232D-03
161  1.6000000000000D+00  3.0866423502169D-05 -3.8102330097461D-04
162  1.6100000000000D+00  7.6388438100662D-05 -1.0300468875227D-04
163  1.6200000000000D+00  2.6106204178551D-05 -1.1638983797642D-05
164  1.6300000000000D+00 -1.2656323616972D-05  2.3052375305049D-06
165  1.6400000000000D+00 -7.2826046651588D-06  2.0141641783055D-08
166  1.6500000000000D+00  2.5766986653712D-06 -1.1995545451408D-06
167  1.6600000000000D+00  1.4955999125679D-06 -5.6192188959004D-07
168  1.6700000000000D+00 -1.8602802367032D-07  5.1953979956032D-07
169  1.6800000000000D+00 -1.0806995331201D-07  3.0181819262736D-07
170  1.6900000000000D+00  0.0000000000000D+00  0.0000000000000D+00
171  1.7000000000000D+00  0.0000000000000D+00  0.0000000000000D+00
172  1.7100000000000D+00  0.0000000000000D+00  0.0000000000000D+00
173  1.7200000000000D+00  0.0000000000000D+00  0.0000000000000D+00
174  1.7300000000000D+00  0.0000000000000D+00  0.0000000000000D+00
175  1.7400000000000D+00  0.0000000000000D+00  0.0000000000000D+00
176  1.7500000000000D+00  0.0000000000000D+00  0.0000000000000D+00
177  1.7600000000000D+00  0.0000000000000D+00  0.0000000000000D+00
178  1.7700000000000D+00  0.0000000000000D+00  0.0000000000000D+00
179  1.7800000000000D+00  0.0000000000000D+00  0.0000000000000D+00
180  1.7900000000000D+00  0.0000000000000D+00  0.0000000000000D+00
181  1.8000000000000D+00  0.0000000000000D+00  0.0000000000000D+00
182  1.8100000000000D+00  0.0000000000000D+00  0.0000000000000D+00
183  1.8200000000000D+00  0.0000000000000D+00  0.0000000000000D+00
184  1.8300000000000D+00  0.0000000000000D+00  0.0000000000000D+00
185  1.8400000000000D+00  0.0000000000000D+00  0.0000000000000D+00
186  1.8500000000000D+00  0.0000000000000D+00  0.0000000000000D+00
187  1.8600000000000D+00  0.0000000000000D+00  0.0000000000000D+00
188  1.8700000000000D+00  0.0000000000000D+00  0.0000000000000D+00
189  1.8800000000000D+00  0.0000000000000D+00  0.0000000000000D+00
190  1.8900000000000D+00  0.0000000000000D+00  0.0000000000000D+00
191  1.9000000000000D+00  0.0000000000000D+00  0.0000000000000D+00
192  1.9100000000000D+00  0.0000000000000D+00  0.0000000000000D+00
193  1.9200000000000D+00  0.0000000000000D+00  0.0000000000000D+00
194  1.9300000000000D+00  0.0000000000000D+00  0.0000000000000D+00
195  1.9400000000000D+00  0.0000000000000D+00  0.0000000000000D+00
196  1.9500000000000D+00  0.0000000000000D+00  0.0000000000000D+00
197  1.9600000000000D+00  0.0000000000000D+00  0.0000000000000D+00
198  1.9700000000000D+00  0.0000000000000D+00  0.0000000000000D+00
199  1.9800000000000D+00  0.0000000000000D+00  0.0000000000000D+00
200  1.9900000000000D+00  0.0000000000000D+00  0.0000000000000D+00
201  2.0000000000000D+00  0.0000000000000D+00  0.0000000000000D+00
202  2.0100000000000D+00  0.0000000000000D+00  0.0000000000000D+00
203  2.0200000000000D+00  0.0000000000000D+00  0.0000000000000D+00
204  2.0300000000000D+00  0.0000000000000D+00  0.0000000000000D+00
205  2.0400000000000D+00  0.0000000000000D+00  0.0000000000000D+00
206  2.0500000000000D+00  0.0000000000000D+00  0.0000000000000D+00
207  2.0600000000000D+00  0.0000000000000D+00  0.0000000000000D+00
208  2.0700000000000D+00  0.0000000000000D+00  0.0000000000000D+00
209  2.0800000000000D+00  0.0000000000000D+00  0.0000000000000D+00
210  2.0900000000000D+00  0.0000000000000D+00  0.0000000000000D+00
211  2.1000000000000D+00  0.0000000000000D+00  0.0000000000000D+00
212  2.1100000000000D+00  0.0000000000000D+00  0.0000000000000D+00
213  2.1200000000000D+00  0.0000000000000D+00  0.0000000000000D+00
214  2.1300000000000D+00  0.0000000000000D+00  0.0000000000000D+00
215  2.1400000000000D+00  0.0000000000000D+00  0.0000000000000D+00
216  2.1500000000000D+00  0.0000000000000D+00  0.0000000000000D+00
217  2.1600000000000D+00  0.0000000000000D+00  0.0000000000000D+00
218  2.1700000000000D+00  0.0000000000000D+00  0.0000000000000D+00
219  2.1800000000000D+00  0.0000000000000D+00  0.0000000000000D+00
220  2.1900000000000D+00  0.0000000000000D+00  0.0000000000000D+00
221  2.2000000000000D+00  0.0000000000000D+00  0.0000000000000D+00
222  2.2100000000000D+00  0.0000000000000D+00  0.0000000000000D+00
223  2.2200000000000D+00  0.0000000000000D+00  0.0000000000000D+00
224  2.2300000000000D+00  0.0000000000000D+00  0.0000000000000D+00
225  2.2400000000000D+00  0.0000000000000D+00  0.0000000000000D+00
226  2.2500000000000D+00  0.0000000000000D+00  0.0000000000000D+00
227  2.2600000000000D+00  0.0000000000000D+00  0.0000000000000D+00
228  2.2700000000000D+00  0.0000000000000D+00  0.0000000000000D+00
229  2.2800000000000D+00  0.0000000000000D+00  0.0000000000000D+00
230  2.2900000000000D+00  0.0000000000000D+00  0.0000000000000D+00
231  2.3000000000000D+00  0.0000000000000D+00  0.0000000000000D+00
232  2.3100000000000D+00  0.0000000000000D+00  0.0000000000000D+00
233  2.3200000000000D+00  0.0000000000000D+00  0.0000000000000D+00
234  2.3300000000000D+00  0.0000000000000D+00  0.0000000000000D+00
235  2.3400000000000D+00  0.0000000000000D+00  0.0000000000000D+00
236  2.3500000000000D+00  0.0000000000000D+00  0.0000000000000D+00
237  2.3600000000000D+00  0.0000000000000D+00  0.0000000000000D+00
238  2.3700000000000D+00  0.0000000000000D+00  0.0000000000000D+00
239  2.3800000000000D+00  0.0000000000000D+00  0.0000000000000D+00
240  2.3900000000000D+00  0.0000000000000D+00  0.0000000000000D+00
241  2.4000000000000D+00  0.0000000000000D+00  0.0000000000000D+00
242  2.4100000000000D+00  0.0000000000000D+00  0.0000000000000D+00
243  2.4200000000000D+00  0.0000000000000D+00  0.0000000000000D+00
244  2.4300000000000D+00  0.0000000000000D+00  0.0000000000000D+00
245  2.4400000000000D+00  0.0000000000000D+00  0.0000000000000D+00
246  2.4500000000000D+00  0.0000000000000D+00  0.0000000000000D+00
247  2.4600000000000D+00  0.0000000000000D+00  0.0000000000000D+00
248  2.4700000000000D+00  0.0000000000000D+00  0.0000000000000D+00
249  2.4800000000000D+00  0.0000000000000D+00  0.0000000000000D+00
250  2.4900000000000D+00  0.0000000000000D+00  0.0000000000000D+00
251  2.5000000000000D+00  0.0000000000000D+00  0.0000000000000D+00
252  2.5100000000000D+00  0.0000000000000D+00  0.0000000000000D+00
253  2.5200000000000D+00  0.0000000000000D+00  0.0000000000000D+00
254  2.5300000000000D+00  0.0000000000000D+00  0.0000000000000D+00
255  2.5400000000000D+00  0.0000000000000D+00  0.0000000000000D+00
256  2.5500000000000D+00  0.0000000000000D+00  0.0000000000000D+00
257  2.5600000000000D+00  0.0000000000000D+00  0.0000000000000D+00
258  2.5700000000000D+00  0.0000000000000D+00  0.0000000000000D+00
259  2.5800000000000D+00  0.0000000000000D+00  0.0000000000000D+00
260  2.5900000000000D+00  0.0000000000000D+00  0.0000000000000D+00
261  2.6000000000000D+00  0.0000000000000D+00  0.0000000000000D+00
262  2.6100000000000D+00  0.0000000000000D+00  0.0000000000000D+00
263  2.6200000000000D+00  0.0000000000000D+00  0.0000000000000D+00
264  2.6300000000000D+00  0.0000000000000D+00  0.0000000000000D+00
265  2.6400000000000D+00  0.0000000000000D+00  0.0000000000000D+00
266  2.6500000000000D+00  0.0000000000000D+00  0.0000000000000D+00
267  2.6600000000000D+00  0.0000000000000D+00  0.0000000000000D+00
268  2.6700000000000D+00  0.0000000000000D+00  0.0000000000000D+00
269  2.6800000000000D+00  0.0000000000000D+00  0.0000000000000D+00
270  2.6900000000000D+00  0.0000000000000D+00  0.0000000000000D+00
271  2.7000000000000D+00  0.0000000000000D+00  0.0000000000000D+00
272  2.7100000000000D+00  0.0000000000000D+00  0.0000000000000D+00
273  2.7200000000000D+00  0.0000000000000D+00  0.0000000000000D+00
274  2.7300000000000D+00  0.0000000000000D+00  0.0000000000000D+00
275  2.7400000000000D+00  0.0000000000000D+00  0.0000000000000D+00
276  2.7500000000000D+00  0.0000000000000D+00  0.0000000000000D+00
277  2.7600000000000D+00  0.0000000000000D+00  0.0000000000000D+00
278  2.7700000000000D+00  0.0000000000000D+00  0.0000000000000D+00
279  2.7800000000000D+00  0.0000000000000D+00  0.0000000000000D+00
280  2.7900000000000D+00  0.0000000000000D+00  0.0000000000000D+00
281  2.8000000000000D+00  0.0000000000000D+00  0.0000000000000D+00
282  2.8100000000000D+00  0.0000000000000D+00  0.0000000000000D+00
283  2.8200000000000D+00  0.0000000000000D+00  0.0000000000000D+00
284  2.8300000000000D+00  0.0000000000000D+00  0.0000000000000D+00
285  2.8400000000000D+00  0.0000000000000D+00  0.0000000000000D+00
286  2.8500000000000D+00  0.0000000000000D+00  0.0000000000000D+00
287  2.8600000000000D+00  0.0000000000000D+00  0.0000000000000D+00
288  2.8700000000000D+00  0.0000000000000D+00  0.0000000000000D+00
289  2.8800000000000D+00  0.0000000000000D+00  0.0000000000000D+00
290  2.8900000000000D+00  0.0000000000000D+00  0.0000000000000D+00
291  2.9000000000000D+00  0.0000000000000D+00  0.0000000000000D+00
292  2.9100000000000D+00  0.0000000000000D+00  0.0000000000000D+00
293  2.9200000000000D+00  0.0000000000000D+00  0.0000000000000D+00
294  2.9300000000000D+00  0.0000000000000D+00  0.0000000000000D+00
295  2.9400000000000D+00  0.0000000000000D+00  0.0000000000000D+00
296  2.9500000000000D+00  0.0000000000000D+00  0.0000000000000D+00
297  2.9600000000000D+00  0.0000000000000D+00  0.0000000000000D+00
298  2.9700000000000D+00  0.0000000000000D+00  0.0000000000000D+00
299  2.9800000000000D+00  0.0000000000000D+00  0.0000000000000D+00
300  2.9900000000000D+00  0.0000000000000D+00  0.0000000000000D+00
301  3.0000000000000D+00  0.0000000000000D+00  0.0000000000000D+00
302  3.0100000000000D+00  0.0000000000000D+00  0.0000000000000D+00
303  3.0200000000000D+00  0.0000000000000D+00  0.0000000000000D+00
304  3.0300000000000D+00  0.0000000000000D+00  0.0000000000000D+00
305  3.0400000000000D+00  0.0000000000000D+00  0.0000000000000D+00
306  3.0500000000000D+00  0.0000000000000D+00  0.0000000000000D+00
307  3.0600000000000D+00  0.0000000000000D+00  0.0000000000000D+00
308  3.0700000000000D+00  0.0000000000000D+00  0.0000000000000D+00
309  3.0800000000000D+00  0.0000000000000D+00  0.0000000000000D+00
310  3.0900000000000D+00  0.0000000000000D+00  0.0000000000000D+00
311  3.1000000000000D+00  0.0000000000000D+00  0.0000000000000D+00
312  3.1100000000000D+00  0.0000000000000D+00  0.0000000000000D+00
313  3.1200000000000D+00  0.0000000000000D+00  0.0000000000000D+00
314  3.1300000000000D+00  0.0000000000000D+00  0.0000000000000D+00
315  3.1400000000000D+00  0.0000000000000D+00  0.0000000000000D+00
316  3.1500000000000D+00  0.0000000000000D+00  0.0000000000000D+00
317  3.1600000000000D+00  0.0000000000000D+00  0.0000000000000D+00
318  3.1700000000000D+00  0.0000000000000D+00  0.0000000000000D+00
319  3.1800000000000D+00  0.0000000000000D+00  0.0000000000000D+00
320  3.1900000000000D+00  0.0000000000000D+00  0.0000000000000D+00
321  3.2000000000000D+00  0.0000000000000D+00  0.0000000000000D+00
322  3.2100000000000D+00  0.0000000000000D+00  0.0000000000000D+00
323  3.2200000000000D+00  0.0000000000000D+00  0.0000000000000D+00
324  3.2300000000000D+00  0.0000000000000D+00  0.0000000000000D+00
325  3.2400000000000D+00  0.0000000000000D+00  0.0000000000000D+00
326  3.2500000000000D+00  0.0000000000000D+00  0.0000000000000D+00
327  3.2600000000000D+00  0.0000000000000D+00  0.0000000000000D+00
328  3.2700000000000D+00  0.0000000000000D+00  0.0000000000000D+00
329  3.2800000000000D+00  0.0000000000000D+00  0.0000000000000D+00
330  3.2900000000000D+00  0.0000000000000D+00  0.0000000000000D+00
331  3.3000000000000D+00  0.0000000000000D+00  0.0000000000000D+00
332  3.3100000000000D+00  0.0000000000000D+00  0.0000000000000D+00
333  3.3200000000000D+00  0.0000000000000D+00  0.0000000000000D+00
334  3.3300000000000D+00  0.0000000000000D+00  0.0000000000000D+00
335  3.3400000000000D+00  0.0000000000000D+00  0.0000000000000D+00
336  3.3500000000000D+00  0.0000000000000D+00  0.0000000000000D+00
337  3.3600000000000D+00  0.0000000000000D+00  0.0000000000000D+00
338  3.3700000000000D+00  0.0000000000000D+00  0.0000000000000D+00
339  3.3800000000000D+00  0.0000000000000D+00  0.0000000000000D+00
340  3.3900000000000D+00  0.0000000000000D+00  0.0000000000000D+00
341  3.4000000000000D+00  0.0000000000000D+00  0.0000000000000D+00
342  3.4100000000000D+00  0.0000000000000D+00  0.0000000000000D+00
343  3.4200000000000D+00  0.0000000000000D+00  0.0000000000000D+00
344  3.4300000000000D+00  0.0000000000000D+00  0.0000000000000D+00
345  3.4400000000000D+00  0.0000000000000D+00  0.0000000000000D+00
346  3.4500000000000D+00  0.0000000000000D+00  0.0000000000000D+00
347  3.4600000000000D+00  0.0000000000000D+00  0.0000000000000D+00
348  3.4700000000000D+00  0.0000000000000D+00  0.0000000000000D+00
349  3.4800000000000D+00  0.0000000000000D+00  0.0000000000000D+00
350  3.4900000000000D+00  0.0000000000000D+00  0.0000000000000D+00
351  3.5000000000000D+00  0.0000000000000D+00  0.0000000000000D+00
352  3.5100000000000D+00  0.0000000000000D+00  0.0000000000000D+00
353  3.5200000000000D+00  0.0000000000000D+00  0.0000000000000D+00
354  3.5300000000000D+00  0.0000000000000D+00  0.0000000000000D+00
355  3.5400000000000D+00  0.0000000000000D+00  0.0000000000000D+00
356  3.5500000000000D+00  0.0000000000000D+00  0.0000000000000D+00
357  3.5600000000000D+00  0.0000000000000D+00  0.0000000000000D+00
358  3.5700000000000D+00  0.0000000000000D+00  0.0000000000000D+00
359  3.5800000000000D+00  0.0000000000000D+00  0.0000000000000D+00
360  3.5900000000000D+00  0.0000000000000D+00  0.0000000000000D+00
361  3.6000000000000D+00  0.0000000000000D+00  0.0000000000000D+00
362  3.6100000000000D+00  0.0000000000000D+00  0.0000000000000D+00
363  3.6200000000000D+00  0.0000000000000D+00  0.0000000000000D+00
364  3.6300000000000D+00  0.0000000000000D+00  0.0000000000000D+00
365  3.6400000000000D+00  0.0000000000000D+00  0.0000000000000D+00
366  3.6500000000000D+00  0.0000000000000D+00  0.0000000000000D+00
367  3.6600000000000D+00  0.0000000000000D+00  0.0000000000000D+00
368  3.6700000000000D+00  0.0000000000000D+00  0.0000000000000D+00
369  3.6800000000000D+00  0.0000000000000D+00  0.0000000000000D+00
370  3.6900000000000D+00  0.0000000000000D+00  0.0000000000000D+00
371  3.7000000000000D+00  0.0000000000000D+00  0.0000000000000D+00
372  3.7100000000000D+00  0.0000000000000D+00  0.0000000000000D+00
373  3.7200000000000D+00  0.0000000000000D+00  0.0000000000000D+00
374  3.7300000000000D+00  0.0000000000000D+00  0.0000000000000D+00
375  3.7400000000000D+00  0.0000000000000D+00  0.0000000000000D+00
376  3.7500000000000D+00  0.0000000000000D+00  0.0000000000000D+00
377  3.7600000000000D+00  0.0000000000000D+00  0.0000000000000D+00
378  3.7700000000000D+00  0.0000000000000D+00  0.0000000000000D+00
379  3.7800000000000D+00  0.0000000000000D+00  0.0000000000000D+00
380  3.7900000000000D+00  0.0000000000000D+00  0.0000000000000D+00
381  3.8000000000000D+00  0.0000000000000D+00  0.0000000000000D+00
382  3.8100000000000D+00  0.0000000000000D+00  0.0000000000000D+00
383  3.8200000000000D+00  0.0000000000000D+00  0.0000000000000D+00
384  3.8300000000000D+00  0.0000000000000D+00  0.0000000000000D+00
385  3.8400000000000D+00  0.0000000000000D+00  0.0000000000000D+00
386  3.8500000000000D+00  0.0000000000000D+00  0.0000000000000D+00
387  3.8600000000000D+00  0.0000000000000D+00  0.0000000000000D+00
388  3.8700000000000D+00  0.0000000000000D+00  0.0000000000000D+00
389  3.8800000000000D+00  0.0000000000000D+00  0.0000000000000D+00
390  3.8900000000000D+00  0.0000000000000D+00  0.0000000000000D+00
391  3.9000000000000D+00  0.0000000000000D+00  0.0000000000000D+00
392  3.9100000000000D+00  0.0000000000000D+00  0.0000000000000D+00
393  3.9200000000000D+00  0.0000000000000D+00  0.0000000000000D+00
394  3.9300000000000D+00  0.0000000000000D+00  0.0000000000000D+00
395  3.9400000000000D+00  0.0000000000000D+00  0.0000000000000D+00
396  3.9500000000000D+00  0.0000000000000D+00  0.0000000000000D+00
397  3.9600000000000D+00  0.0000000000000D+00  0.0000000000000D+00
398  3.9700000000000D+00  0.0000000000000D+00  0.0000000000000D+00
399  3.9800000000000D+00  0.0000000000000D+00  0.0000000000000D+00
400  3.9900000000000D+00  0.0000000000000D+00  0.0000000000000D+00
401  4.0000000000000D+00  0.0000000000000D+00  0.0000000000000D+00
402  4.0100000000000D+00  0.0000000000000D+00  0.0000000000000D+00
403  4.0200000000000D+00  0.0000000000000D+00  0.0000000000000D+00
404  4.0300000000000D+00  0.0000000000000D+00  0.0000000000000D+00
405  4.0400000000000D+00  0.0000000000000D+00  0.0000000000000D+00
406  4.0500000000000D+00  0.0000000000000D+00  0.0000000000000D+00
407  4.0600000000000D+00  0.0000000000000D+00  0.0000000000000D+00
408  4.0700000000000D+00  0.0000000000000D+00  0.0000000000000D+00
409  4.0800000000000D+00  0.0000000000000D+00  0.0000000000000D+00
410  4.0900000000000D+00  0.0000000000000D+00  0.0000000000000D+00
411  4.1000000000000D+00  0.0000000000000D+00  0.0000000000000D+00
412  4.1100000000000D+00  0.0000000000000D+00  0.0000000000000D+00
413  4.1200000000000D+00  0.0000000000000D+00  0.0000000000000D+00
414  4.1300000000000D+00  0.0000000000000D+00  0.0000000000000D+00
415  4.1400000000000D+00  0.0000000000000D+00  0.0000000000000D+00
416  4.1500000000000D+00  0.0000000000000D+00  0.0000000000000D+00
417  4.1600000000000D+00  0.0000000000000D+00  0.0000000000000D+00
418  4.1700000000000D+00  0.0000000000000D+00  0.0000000000000D+00
419  4.1800000000000D+00  0.0000000000000D+00  0.0000000000000D+00
420  4.1900000000000D+00  0.0000000000000D+00  0.0000000000000D+00
421  4.2000000000000D+00  0.0000000000000D+00  0.0000000000000D+00
422  4.2100000000000D+00  0.0000000000000D+00  0.0000000000000D+00
423  4.2200000000000D+00  0.0000000000000D+00  0.0000000000000D+00
424  4.2300000000000D+00  0.0000000000000D+00  0.0000000000000D+00
425  4.2400000000000D+00  0.0000000000000D+00  0.0000000000000D+00
426  4.2500000000000D+00  0.0000000000000D+00  0.0000000000000D+00
427  4.2600000000000D+00  0.0000000000000D+00  0.0000000000000D+00
428  4.2700000000000D+00  0.0000000000000D+00  0.0000000000000D+00
429  4.2800000000000D+00  0.0000000000000D+00  0.0000000000000D+00
430  4.2900000000000D+00  0.0000000000000D+00  0.0000000000000D+00
431  4.3000000000000D+00  0.0000000000000D+00  0.0000000000000D+00
432  4.3100000000000D+00  0.0000000000000D+00  0.0000000000000D+00
433  4.3200000000000D+00  0.0000000000000D+00  0.0000000000000D+00
434  4.3300000000000D+00  0.0000000000000D+00  0.0000000000000D+00
435  4.3400000000000D+00  0.0000000000000D+00  0.0000000000000D+00
436  4.3500000000000D+00  0.0000000000000D+00  0.0000000000000D+00
437  4.3600000000000D+00  0.0000000000000D+00  0.0000000000000D+00
438  4.3700000000000D+00  0.0000000000000D+00  0.0000000000000D+00
439  4.3800000000000D+00  0.0000000000000D+00  0.0000000000000D+00
440  4.3900000000000D+00  0.0000000000000D+00  0.0000000000000D+00
441  4.4000000000000D+00  0.0000000000000D+00  0.0000000000000D+00
442  4.4100000000000D+00  0.0000000000000D+00  0.0000000000000D+00
443  4.4200000000000D+00  0.0000000000000D+00  0.0000000000000D+00
444  4.4300000000000D+00  0.0000000000000D+00  0.0000000000000D+00