Br    ONCVPSP  r_core=  1.81  1.51  1.92
35.0000      7.0000      151028    zatom,zion,pspd
8   -1013   2     4   600     0    pspcod,pspxc,lmax,lloc,mmax,r2well
5.99000000  8.00000000  0.00000000    rchrg fchrg qchrg
2     2     2     0     0    nproj
1                 extension_switch
0                         8.2026407111036D+00  8.2578568465698D-01
1  0.0000000000000D+00  9.2281626784541D-11 -4.8828108223375D-10
2  1.0000000000000D-02  3.4651453600152D-02 -8.0811392017690D-03
3  2.0000000000000D-02  6.9298280413358D-02 -1.6208623741964D-02
4  3.0000000000000D-02  1.0393566283432D-01 -2.4427998134623D-02
5  4.0000000000000D-02  1.3855840368745D-01 -3.2783215162163D-02
6  5.0000000000000D-02  1.7316074158402D-01 -4.1315864676307D-02
7  6.0000000000000D-02  2.0773617238353D-01 -5.0064431647625D-02
8  7.0000000000000D-02  2.4227727868454D-01 -5.9063592632222D-02
9  8.0000000000000D-02  2.7677556917750D-01 -6.8343559335845D-02
10  9.0000000000000D-02  3.1122132957911D-01 -7.7929477357078D-02
11  1.0000000000000D-01  3.4560348673520D-01 -8.7840887490510D-02
12  1.1000000000000D-01  3.7990948732823D-01 -9.8091256176247D-02
13  1.2000000000000D-01  4.1412519245930D-01 -1.0868758080479D-01
14  1.3000000000000D-01  4.4823478919424D-01 -1.1963007463695D-01
15  1.4000000000000D-01  4.8222071997114D-01 -1.3091193508954D-01
16  1.5000000000000D-01  5.1606363056551D-01 -1.4251919808251D-01
17  1.6000000000000D-01  5.4974233710151D-01 -1.5443068005453D-01
18  1.7000000000000D-01  5.8323381238509D-01 -1.6661800814778D-01
19  1.8000000000000D-01  6.1651319162155D-01 -1.7904573795045D-01
20  1.9000000000000D-01  6.4955379736727D-01 -1.9167155708514D-01
21  2.0000000000000D-01  6.8232718335650D-01 -2.0444657185347D-01
22  2.1000000000000D-01  7.1480319664158D-01 -2.1731567310876D-01
23  2.2000000000000D-01  7.4695005729107D-01 -2.3021797654220D-01
24  2.3000000000000D-01  7.7873445470777D-01 -2.4308733164487D-01
25  2.4000000000000D-01  8.1012165945920D-01 -2.5585289276319D-01
26  2.5000000000000D-01  8.4107564935929D-01 -2.6843974490734D-01
27  2.6000000000000D-01  8.7155924840342D-01 -2.8076957631203D-01
28  2.7000000000000D-01  9.0153427704117D-01 -2.9276138919583D-01
29  2.8000000000000D-01  9.3096171217342D-01 -3.0433223972429D-01
30  2.9000000000000D-01  9.5980185518448D-01 -3.1539799786248D-01
31  3.0000000000000D-01  9.8801450626556D-01 -3.2587411760471D-01
32  3.1000000000000D-01  1.0155591432543D+00 -3.3567640799903D-01
33  3.2000000000000D-01  1.0423951032067D+00 -3.4472179544044D-01
34  3.3000000000000D-01  1.0684817649323D+00 -3.5292906788992D-01
35  3.4000000000000D-01  1.0937787307579D+00 -3.6021959198380D-01
36  3.5000000000000D-01  1.1182460058478D+00 -3.6651799442517D-01
37  3.6000000000000D-01  1.1418441734815D+00 -3.7175279959118D-01
38  3.7000000000000D-01  1.1645345647947D+00 -3.7585701593928D-01
39  3.8000000000000D-01  1.1862794216005D+00 -3.7876866454327D-01
40  3.9000000000000D-01  1.2070420510447D+00 -3.8043124392678D-01
41  4.0000000000000D-01  1.2267869709928D+00 -3.8079412627594D-01
42  4.1000000000000D-01  1.2454800452095D+00 -3.7981288109252D-01
43  4.2000000000000D-01  1.2630886075558D+00 -3.7744952337997D-01
44  4.3000000000000D-01  1.2795815746091D+00 -3.7367268452485D-01
45  4.4000000000000D-01  1.2949295462923D+00 -3.6845770512885D-01
46  4.5000000000000D-01  1.3091048942785D+00 -3.6178665014871D-01
47  4.6000000000000D-01  1.3220818381252D+00 -3.5364824779643D-01
48  4.7000000000000D-01  1.3338365092687D+00 -3.4403775472644D-01
49  4.8000000000000D-01  1.3443470031841D+00 -3.3295675107335D-01
50  4.9000000000000D-01  1.3535934201828D+00 -3.2041286989070D-01
51  5.0000000000000D-01  1.3615578954748D+00 -3.0641946646294D-01
52  5.1000000000000D-01  1.3682246192633D+00 -2.9099523380654D-01
53  5.2000000000000D-01  1.3735798477693D+00 -2.7416377143031D-01
54  5.3000000000000D-01  1.3776119061911D+00 -2.5595311507791D-01
55  5.4000000000000D-01  1.3803111846965D+00 -2.3639523571794D-01
56  5.5000000000000D-01  1.3816701286178D+00 -2.1552551647062D-01
57  5.6000000000000D-01  1.3816832240678D+00 -1.9338221645817D-01
58  5.7000000000000D-01  1.3803469802249D+00 -1.7000593073316D-01
59  5.8000000000000D-01  1.3776599095415D+00 -1.4543905547364D-01
60  5.9000000000000D-01  1.3736225071110D+00 -1.1972526753098D-01
61  6.0000000000000D-01  1.3682372303923D+00 -9.2909027181588D-02
62  6.1000000000000D-01  1.3615084804260D+00 -6.5035112562149D-02
63  6.2000000000000D-01  1.3534425855963D+00 -3.6148193773513D-02
64  6.3000000000000D-01  1.3440477888888D+00 -6.2924540136272D-03
65  6.4000000000000D-01  1.3333342394706D+00  2.4488735632193D-02
66  6.5000000000000D-01  1.3213139892856D+00  5.6153081958581D-02
67  6.6000000000000D-01  1.3080009951967D+00  8.8659571117987D-02
68  6.7000000000000D-01  1.2934111270482D+00  1.2196860197967D-01
69  6.8000000000000D-01  1.2775621818364D+00  1.5604204862947D-01
70  6.9000000000000D-01  1.2604739039983D+00  1.9084325041617D-01
71  7.0000000000000D-01  1.2421680116350D+00  2.2633692913187D-01
72  7.1000000000000D-01  1.2226682282941D+00  2.6248903411796D-01
73  7.2000000000000D-01  1.2020003197469D+00  2.9926651730334D-01
74  7.3000000000000D-01  1.1801921350069D+00  3.3663704138179D-01
75  7.4000000000000D-01  1.1572736506558D+00  3.7456862550807D-01
76  7.5000000000000D-01  1.1332770173751D+00  4.1302923402103D-01
77  7.6000000000000D-01  1.1082366074197D+00  4.5198631476921D-01
78  7.7000000000000D-01  1.0821890616326D+00  4.9140629460079D-01
79  7.8000000000000D-01  1.0551733344715D+00  5.3125404048028D-01
80  7.9000000000000D-01  1.0272307354161D+00  5.7149229548045D-01
81  8.0000000000000D-01  9.9840496504428D-01  6.1208109956890D-01
82  8.1000000000000D-01  9.6874214400790D-01  6.5297720564768D-01
83  8.2000000000000D-01  9.3829083310736D-01  6.9413350170205D-01
84  8.3000000000000D-01  9.0710204266254D-01  7.3549845016338D-01
85  8.4000000000000D-01  8.7522922940027D-01  7.7701555568590D-01
86  8.5000000000000D-01  8.4272827913240D-01  8.1862287247138D-01
87  8.6000000000000D-01  8.0965747357992D-01  8.6025256205016D-01
88  8.7000000000000D-01  7.7607743980848D-01  9.0183051204001D-01
89  8.8000000000000D-01  7.4205108087845D-01  9.4327602585772D-01
90  8.9000000000000D-01  7.0764348647668D-01  9.8450159265909D-01
91  9.0000000000000D-01  6.7292182248649D-01  1.0254127459345D+00
92  9.1000000000000D-01  6.3795519866501D-01  1.0659080182006D+00
93  9.2000000000000D-01  6.0281451383080D-01  1.1058789981125D+00
94  9.3000000000000D-01  5.6757227821655D-01  1.1452104950916D+00
95  9.4000000000000D-01  5.3230241290992D-01  1.1837808152279D+00
96  9.5000000000000D-01  4.9708002658567D-01  1.2214621508023D+00
97  9.6000000000000D-01  4.6198117002310D-01  1.2581210842779D+00
98  9.7000000000000D-01  4.2708256919734D-01  1.2936192060799D+00
99  9.8000000000000D-01  3.9246133802855D-01  1.3278138439239D+00
100  9.9000000000000D-01  3.5819467217398D-01  1.3605588998478D+00
101  1.0000000000000D+00  3.2435952553306D-01  1.3917057895591D+00
102  1.0100000000000D+00  2.9103227141821D-01  1.4211044771587D+00
103  1.0200000000000D+00  2.5828835061027D-01  1.4486045968228D+00
104  1.0300000000000D+00  2.2620190877049D-01  1.4740566515919D+00
105  1.0400000000000D+00  1.9484542590422D-01  1.4973132781234D+00
106  1.0500000000000D+00  1.6428934078023D-01  1.5182305650358D+00
107  1.0600000000000D+00  1.3460167339022D-01  1.5366694113672D+00
108  1.0700000000000D+00  1.0584764867508D-01  1.5524969107613D+00
109  1.0800000000000D+00  7.8089324862751D-02  1.5655877461931D+00
110  1.0900000000000D+00  5.1385229837922D-02  1.5758255794578D+00
111  1.1000000000000D+00  2.5790009012504D-02  1.5831044192018D+00
112  1.1100000000000D+00  1.3540881676484D-03  1.5873299510322D+00
113  1.1200000000000D+00 -2.1876645294198D-02  1.5884208132148D+00
114  1.1300000000000D+00 -4.3861139342172D-02  1.5863098017045D+00
115  1.1400000000000D+00 -6.4563449277925D-02  1.5809449884468D+00
116  1.1500000000000D+00 -8.3952981590721D-02  1.5722907376426D+00
117  1.1600000000000D+00 -1.0200470679132D-01  1.5603286053238D+00
118  1.1700000000000D+00 -1.1869933858209D-01  1.5450581087476D+00
119  1.1800000000000D+00 -1.3402347687994D-01  1.5264973527923D+00
120  1.1900000000000D+00 -1.4796971262815D-01  1.5046835024168D+00
121  1.2000000000000D+00 -1.6053669260968D-01  1.4796730915268D+00
122  1.2100000000000D+00 -1.7172914277913D-01  1.4515421599892D+00
123  1.2200000000000D+00 -1.8155784903059D-01  1.4203862124001D+00
124  1.2300000000000D+00 -1.9003959477315D-01  1.3863199943759D+00
125  1.2400000000000D+00 -1.9719705504472D-01  1.3494770838587D+00
126  1.2500000000000D+00 -2.0305864717854D-01  1.3100092962727D+00
127  1.2600000000000D+00 -2.0765833872630D-01  1.2680859057123D+00
128  1.2700000000000D+00 -2.1103541363189D-01  1.2238926857787D+00
129  1.2800000000000D+00 -2.1323419784687D-01  1.1776307746196D+00
130  1.2900000000000D+00 -2.1430374642610D-01  1.1295153729064D+00
131  1.3000000000000D+00 -2.1429749426678D-01  1.0797742841212D+00
132  1.3100000000000D+00 -2.1327287286184D-01  1.0286463075331D+00
133  1.3200000000000D+00 -2.1129089627372D-01  9.7637949842113D-01
134  1.3300000000000D+00 -2.0841571944082D-01  9.2322930964967D-01
135  1.3400000000000D+00 -2.0471417228214D-01  8.6945663045434D-01
136  1.3500000000000D+00 -2.0025527362192D-01  8.1532574113683D-01
137  1.3600000000000D+00 -1.9510972874069D-01  7.6110220127544D-01
138  1.3700000000000D+00 -1.8934941487100D-01  7.0705069165375D-01
139  1.3800000000000D+00 -1.8304685897595D-01  6.5343283028343D-01
140  1.3900000000000D+00 -1.7627471215687D-01  6.0050498287420D-01
141  1.4000000000000D+00 -1.6910522527636D-01  5.4851608944741D-01
142  1.4100000000000D+00 -1.6160973010543D-01  4.9770552736256D-01
143  1.4200000000000D+00 -1.5385813064695D-01  4.4830103277422D-01
144  1.4300000000000D+00 -1.4591840858999D-01  4.0051669915756D-01
145  1.4400000000000D+00 -1.3785614748404D-01  3.5455107461484D-01
146  1.4500000000000D+00 -1.2973407927794D-01  3.1058537511450D-01
147  1.4600000000000D+00 -1.2161165699413D-01  2.6878183137029D-01
148  1.4700000000000D+00 -1.1354465659236D-01  2.2928218251988D-01
149  1.4800000000000D+00 -1.0558481398466D-01  1.9220635073844D-01
150  1.4900000000000D+00 -9.7779493419289D-02  1.5765126365701D-01
151  1.5000000000000D+00 -9.0171425114215D-02  1.2569006038659D-01
152  1.5100000000000D+00 -8.2798355697306D-02  9.6370715788372D-02
153  1.5200000000000D+00 -7.5692945088057D-02  6.9716116930658D-02
154  1.5300000000000D+00 -6.8882919069934D-02  4.5725720970954D-02
155  1.5400000000000D+00 -6.2391252230909D-02  2.4377102681969D-02
156  1.5500000000000D+00 -5.6236514158521D-02  5.6283287507664D-03
157  1.5600000000000D+00 -5.0432944293236D-02 -1.0581445327683D-02
158  1.5700000000000D+00 -4.4990506711570D-02 -2.4331637083205D-02
159  1.5800000000000D+00 -3.9915092572682D-02 -3.5718957789427D-02
160  1.5900000000000D+00 -3.5208701686020D-02 -4.4856348039917D-02
161  1.6000000000000D+00 -3.0869678452596D-02 -5.1871615310634D-02
162  1.6100000000000D+00 -2.6892971990831D-02 -5.6905966016599D-02
163  1.6200000000000D+00 -2.3270426163488D-02 -6.0112392805048D-02
164  1.6300000000000D+00 -1.9991093376444D-02 -6.1653949347359D-02
165  1.6400000000000D+00 -1.7041569815904D-02 -6.1701924130069D-02
166  1.6500000000000D+00 -1.4406347151880D-02 -6.0433938219066D-02
167  1.6600000000000D+00 -1.2068177418672D-02 -5.8031983386340D-02
168  1.6700000000000D+00 -1.0008446171077D-02 -5.4680425233512D-02
169  1.6800000000000D+00 -8.2075501432863D-03 -5.0563990204459D-02
170  1.6900000000000D+00 -6.6452745070854D-03 -4.5865761156410D-02
171  1.7000000000000D+00 -5.3011658722898D-03 -4.0765200852615D-02
172  1.7100000000000D+00 -4.1548961935017D-03 -3.5436227738211D-02
173  1.7200000000000D+00 -3.1866138593264D-03 -3.0045362718083D-02
174  1.7300000000000D+00 -2.3772774954967D-03 -2.4749969481142D-02
175  1.7400000000000D+00 -1.7089688282736D-03 -1.9696606748542D-02
176  1.7500000000000D+00 -1.1651651557246D-03 -1.5022074236275D-02
177  1.7600000000000D+00 -7.3104679380051D-04 -1.0844413494399D-02
178  1.7700000000000D+00 -3.9419681214812D-04 -7.2492931548094D-03
179  1.7800000000000D+00 -1.4366397699868D-04 -4.3380113308486D-03
180  1.7900000000000D+00  3.3367104141759D-05 -2.2754264234101D-03
181  1.8000000000000D+00  1.4421957271122D-04 -1.1008735787896D-03
182  1.8100000000000D+00  1.7058935157327D-04 -5.1807582992316D-04
183  1.8200000000000D+00  1.0233689274972D-04 -1.8619537737189D-04
184  1.8300000000000D+00  1.3391552119090D-05 -1.8146513687726D-05
185  1.8400000000000D+00 -2.0214995009602D-05  2.3430423897639D-05
186  1.8500000000000D+00 -8.7744825105848D-06  8.6612059911577D-06
187  1.8600000000000D+00  3.7950731962128D-06 -5.7333917425934D-06
188  1.8700000000000D+00  3.1676230710067D-06 -4.5315628087927D-06
189  1.8800000000000D+00 -2.8141844633737D-07  8.4816943483522D-07
190  1.8900000000000D+00 -4.3604435818831D-07  1.3141977779392D-06
191  1.9000000000000D+00  0.0000000000000D+00  0.0000000000000D+00
192  1.9100000000000D+00  0.0000000000000D+00  0.0000000000000D+00
193  1.9200000000000D+00  0.0000000000000D+00  0.0000000000000D+00
194  1.9300000000000D+00  0.0000000000000D+00  0.0000000000000D+00
195  1.9400000000000D+00  0.0000000000000D+00  0.0000000000000D+00
196  1.9500000000000D+00  0.0000000000000D+00  0.0000000000000D+00
197  1.9600000000000D+00  0.0000000000000D+00  0.0000000000000D+00
198  1.9700000000000D+00  0.0000000000000D+00  0.0000000000000D+00
199  1.9800000000000D+00  0.0000000000000D+00  0.0000000000000D+00
200  1.9900000000000D+00  0.0000000000000D+00  0.0000000000000D+00
201  2.0000000000000D+00  0.0000000000000D+00  0.0000000000000D+00
202  2.0100000000000D+00  0.0000000000000D+00  0.0000000000000D+00
203  2.0200000000000D+00  0.0000000000000D+00  0.0000000000000D+00
204  2.0300000000000D+00  0.0000000000000D+00  0.0000000000000D+00
205  2.0400000000000D+00  0.0000000000000D+00  0.0000000000000D+00
206  2.0500000000000D+00  0.0000000000000D+00  0.0000000000000D+00
207  2.0600000000000D+00  0.0000000000000D+00  0.0000000000000D+00
208  2.0700000000000D+00  0.0000000000000D+00  0.0000000000000D+00
209  2.0800000000000D+00  0.0000000000000D+00  0.0000000000000D+00
210  2.0900000000000D+00  0.0000000000000D+00  0.0000000000000D+00
211  2.1000000000000D+00  0.0000000000000D+00  0.0000000000000D+00
212  2.1100000000000D+00  0.0000000000000D+00  0.0000000000000D+00
213  2.1200000000000D+00  0.0000000000000D+00  0.0000000000000D+00
214  2.1300000000000D+00  0.0000000000000D+00  0.0000000000000D+00
215  2.1400000000000D+00  0.0000000000000D+00  0.0000000000000D+00
216  2.1500000000000D+00  0.0000000000000D+00  0.0000000000000D+00
217  2.1600000000000D+00  0.0000000000000D+00  0.0000000000000D+00
218  2.1700000000000D+00  0.0000000000000D+00  0.0000000000000D+00
219  2.1800000000000D+00  0.0000000000000D+00  0.0000000000000D+00
220  2.1900000000000D+00  0.0000000000000D+00  0.0000000000000D+00
221  2.2000000000000D+00  0.0000000000000D+00  0.0000000000000D+00
222  2.2100000000000D+00  0.0000000000000D+00  0.0000000000000D+00
223  2.2200000000000D+00  0.0000000000000D+00  0.0000000000000D+00
224  2.2300000000000D+00  0.0000000000000D+00  0.0000000000000D+00
225  2.2400000000000D+00  0.0000000000000D+00  0.0000000000000D+00
226  2.2500000000000D+00  0.0000000000000D+00  0.0000000000000D+00
227  2.2600000000000D+00  0.0000000000000D+00  0.0000000000000D+00
228  2.2700000000000D+00  0.0000000000000D+00  0.0000000000000D+00
229  2.2800000000000D+00  0.0000000000000D+00  0.0000000000000D+00
230  2.2900000000000D+00  0.0000000000000D+00  0.0000000000000D+00
231  2.3000000000000D+00  0.0000000000000D+00  0.0000000000000D+00
232  2.3100000000000D+00  0.0000000000000D+00  0.0000000000000D+00
233  2.3200000000000D+00  0.0000000000000D+00  0.0000000000000D+00
234  2.3300000000000D+00  0.0000000000000D+00  0.0000000000000D+00
235  2.3400000000000D+00  0.0000000000000D+00  0.0000000000000D+00
236  2.3500000000000D+00  0.0000000000000D+00  0.0000000000000D+00
237  2.3600000000000D+00  0.0000000000000D+00  0.0000000000000D+00
238  2.3700000000000D+00  0.0000000000000D+00  0.0000000000000D+00
239  2.3800000000000D+00  0.0000000000000D+00  0.0000000000000D+00
240  2.3900000000000D+00  0.0000000000000D+00  0.0000000000000D+00
241  2.4000000000000D+00  0.0000000000000D+00  0.0000000000000D+00
242  2.4100000000000D+00  0.0000000000000D+00  0.0000000000000D+00
243  2.4200000000000D+00  0.0000000000000D+00  0.0000000000000D+00
244  2.4300000000000D+00  0.0000000000000D+00  0.0000000000000D+00
245  2.4400000000000D+00  0.0000000000000D+00  0.0000000000000D+00
246  2.4500000000000D+00  0.0000000000000D+00  0.0000000000000D+00
247  2.4600000000000D+00  0.0000000000000D+00  0.0000000000000D+00
248  2.4700000000000D+00  0.0000000000000D+00  0.0000000000000D+00
249  2.4800000000000D+00  0.0000000000000D+00  0.0000000000000D+00
250  2.4900000000000D+00  0.0000000000000D+00  0.0000000000000D+00
251  2.5000000000000D+00  0.0000000000000D+00  0.0000000000000D+00
252  2.5100000000000D+00  0.0000000000000D+00  0.0000000000000D+00
253  2.5200000000000D+00  0.0000000000000D+00  0.0000000000000D+00
254  2.5300000000000D+00  0.0000000000000D+00  0.0000000000000D+00
255  2.5400000000000D+00  0.0000000000000D+00  0.0000000000000D+00
256  2.5500000000000D+00  0.0000000000000D+00  0.0000000000000D+00
257  2.5600000000000D+00  0.0000000000000D+00  0.0000000000000D+00
258  2.5700000000000D+00  0.0000000000000D+00  0.0000000000000D+00
259  2.5800000000000D+00  0.0000000000000D+00  0.0000000000000D+00
260  2.5900000000000D+00  0.0000000000000D+00  0.0000000000000D+00
261  2.6000000000000D+00  0.0000000000000D+00  0.0000000000000D+00
262  2.6100000000000D+00  0.0000000000000D+00  0.0000000000000D+00
263  2.6200000000000D+00  0.0000000000000D+00  0.0000000000000D+00
264  2.6300000000000D+00  0.0000000000000D+00  0.0000000000000D+00
265  2.6400000000000D+00  0.0000000000000D+00  0.0000000000000D+00
266  2.6500000000000D+00  0.0000000000000D+00  0.0000000000000D+00
267  2.6600000000000D+00  0.0000000000000D+00  0.0000000000000D+00
268  2.6700000000000D+00  0.0000000000000D+00  0.0000000000000D+00
269  2.6800000000000D+00  0.0000000000000D+00  0.0000000000000D+00
270  2.6900000000000D+00  0.0000000000000D+00  0.0000000000000D+00
271  2.7000000000000D+00  0.0000000000000D+00  0.0000000000000D+00
272  2.7100000000000D+00  0.0000000000000D+00  0.0000000000000D+00
273  2.7200000000000D+00  0.0000000000000D+00  0.0000000000000D+00
274  2.7300000000000D+00  0.0000000000000D+00  0.0000000000000D+00
275  2.7400000000000D+00  0.0000000000000D+00  0.0000000000000D+00
276  2.7500000000000D+00  0.0000000000000D+00  0.0000000000000D+00
277  2.7600000000000D+00  0.0000000000000D+00  0.0000000000000D+00
278  2.7700000000000D+00  0.0000000000000D+00  0.0000000000000D+00
279  2.7800000000000D+00  0.0000000000000D+00  0.0000000000000D+00
280  2.7900000000000D+00  0.0000000000000D+00  0.0000000000000D+00
281  2.8000000000000D+00  0.0000000000000D+00  0.0000000000000D+00
282  2.8100000000000D+00  0.0000000000000D+00  0.0000000000000D+00
283  2.8200000000000D+00  0.0000000000000D+00  0.0000000000000D+00
284  2.8300000000000D+00  0.0000000000000D+00  0.0000000000000D+00
285  2.8400000000000D+00  0.0000000000000D+00  0.0000000000000D+00
286  2.8500000000000D+00  0.0000000000000D+00  0.0000000000000D+00
287  2.8600000000000D+00  0.0000000000000D+00  0.0000000000000D+00
288  2.8700000000000D+00  0.0000000000000D+00  0.0000000000000D+00
289  2.8800000000000D+00  0.0000000000000D+00  0.0000000000000D+00
290  2.8900000000000D+00  0.0000000000000D+00  0.0000000000000D+00
291  2.9000000000000D+00  0.0000000000000D+00  0.0000000000000D+00
292  2.9100000000000D+00  0.0000000000000D+00  0.0000000000000D+00
293  2.9200000000000D+00  0.0000000000000D+00  0.0000000000000D+00
294  2.9300000000000D+00  0.0000000000000D+00  0.0000000000000D+00
295  2.9400000000000D+00  0.0000000000000D+00  0.0000000000000D+00
296  2.9500000000000D+00  0.0000000000000D+00  0.0000000000000D+00
297  2.9600000000000D+00  0.0000000000000D+00  0.0000000000000D+00
298  2.9700000000000D+00  0.0000000000000D+00  0.0000000000000D+00
299  2.9800000000000D+00  0.0000000000000D+00  0.0000000000000D+00
300  2.9900000000000D+00  0.0000000000000D+00  0.0000000000000D+00
301  3.0000000000000D+00  0.0000000000000D+00  0.0000000000000D+00
302  3.0100000000000D+00  0.0000000000000D+00  0.0000000000000D+00
303  3.0200000000000D+00  0.0000000000000D+00  0.0000000000000D+00
304  3.0300000000000D+00  0.0000000000000D+00  0.0000000000000D+00
305  3.0400000000000D+00  0.0000000000000D+00  0.0000000000000D+00
306  3.0500000000000D+00  0.0000000000000D+00  0.0000000000000D+00
307  3.0600000000000D+00  0.0000000000000D+00  0.0000000000000D+00
308  3.0700000000000D+00  0.0000000000000D+00  0.0000000000000D+00
309  3.0800000000000D+00  0.0000000000000D+00  0.0000000000000D+00
310  3.0900000000000D+00  0.0000000000000D+00  0.0000000000000D+00
311  3.1000000000000D+00  0.0000000000000D+00  0.0000000000000D+00
312  3.1100000000000D+00  0.0000000000000D+00  0.0000000000000D+00
313  3.1200000000000D+00  0.0000000000000D+00  0.0000000000000D+00
314  3.1300000000000D+00  0.0000000000000D+00  0.0000000000000D+00
315  3.1400000000000D+00  0.0000000000000D+00  0.0000000000000D+00
316  3.1500000000000D+00  0.0000000000000D+00  0.0000000000000D+00
317  3.1600000000000D+00  0.0000000000000D+00  0.0000000000000D+00
318  3.1700000000000D+00  0.0000000000000D+00  0.0000000000000D+00
319  3.1800000000000D+00  0.0000000000000D+00  0.0000000000000D+00
320  3.1900000000000D+00  0.0000000000000D+00  0.0000000000000D+00
321  3.2000000000000D+00  0.0000000000000D+00  0.0000000000000D+00
322  3.2100000000000D+00  0.0000000000000D+00  0.0000000000000D+00
323  3.2200000000000D+00  0.0000000000000D+00  0.0000000000000D+00
324  3.2300000000000D+00  0.0000000000000D+00  0.0000000000000D+00
325  3.2400000000000D+00  0.0000000000000D+00  0.0000000000000D+00
326  3.2500000000000D+00  0.0000000000000D+00  0.0000000000000D+00
327  3.2600000000000D+00  0.0000000000000D+00  0.0000000000000D+00
328  3.2700000000000D+00  0.0000000000000D+00  0.0000000000000D+00
329  3.2800000000000D+00  0.0000000000000D+00  0.0000000000000D+00
330  3.2900000000000D+00  0.0000000000000D+00  0.0000000000000D+00
331  3.3000000000000D+00  0.0000000000000D+00  0.0000000000000D+00
332  3.3100000000000D+00  0.0000000000000D+00  0.0000000000000D+00
333  3.3200000000000D+00  0.0000000000000D+00  0.0000000000000D+00
334  3.3300000000000D+00  0.0000000000000D+00  0.0000000000000D+00
335  3.3400000000000D+00  0.0000000000000D+00  0.0000000000000D+00
336  3.3500000000000D+00  0.0000000000000D+00  0.0000000000000D+00
337  3.3600000000000D+00  0.0000000000000D+00  0.0000000000000D+00
338  3.3700000000000D+00  0.0000000000000D+00  0.0000000000000D+00
339  3.3800000000000D+00  0.0000000000000D+00  0.0000000000000D+00
340  3.3900000000000D+00  0.0000000000000D+00  0.0000000000000D+00
341  3.4000000000000D+00  0.0000000000000D+00  0.0000000000000D+00
342  3.4100000000000D+00  0.0000000000000D+00  0.0000000000000D+00
343  3.4200000000000D+00  0.0000000000000D+00  0.0000000000000D+00
344  3.4300000000000D+00  0.0000000000000D+00  0.0000000000000D+00
345  3.4400000000000D+00  0.0000000000000D+00  0.0000000000000D+00
346  3.4500000000000D+00  0.0000000000000D+00  0.0000000000000D+00
347  3.4600000000000D+00  0.0000000000000D+00  0.0000000000000D+00
348  3.4700000000000D+00  0.0000000000000D+00  0.0000000000000D+00
349  3.4800000000000D+00  0.0000000000000D+00  0.0000000000000D+00
350  3.4900000000000D+00  0.0000000000000D+00  0.0000000000000D+00
351  3.5000000000000D+00  0.0000000000000D+00  0.0000000000000D+00
352  3.5100000000000D+00  0.0000000000000D+00  0.0000000000000D+00
353  3.5200000000000D+00  0.0000000000000D+00  0.0000000000000D+00
354  3.5300000000000D+00  0.0000000000000D+00  0.0000000000000D+00
355  3.5400000000000D+00  0.0000000000000D+00  0.0000000000000D+00
356  3.5500000000000D+00  0.0000000000000D+00  0.0000000000000D+00
357  3.5600000000000D+00  0.0000000000000D+00  0.0000000000000D+00
358  3.5700000000000D+00  0.0000000000000D+00  0.0000000000000D+00
359  3.5800000000000D+00  0.0000000000000D+00  0.0000000000000D+00
360  3.5900000000000D+00  0.0000000000000D+00  0.0000000000000D+00
361  3.6000000000000D+00  0.0000000000000D+00  0.0000000000000D+00
362  3.6100000000000D+00  0.0000000000000D+00  0.0000000000000D+00
363  3.6200000000000D+00  0.0000000000000D+00  0.0000000000000D+00
364  3.6300000000000D+00  0.0000000000000D+00  0.0000000000000D+00
365  3.6400000000000D+00  0.0000000000000D+00  0.0000000000000D+00
366  3.6500000000000D+00  0.0000000000000D+00  0.0000000000000D+00
367  3.6600000000000D+00  0.0000000000000D+00  0.0000000000000D+00
368  3.6700000000000D+00  0.0000000000000D+00  0.0000000000000D+00
369  3.6800000000000D+00  0.0000000000000D+00  0.0000000000000D+00
370  3.6900000000000D+00  0.0000000000000D+00  0.0000000000000D+00
371  3.7000000000000D+00  0.0000000000000D+00  0.0000000000000D+00
372  3.7100000000000D+00  0.0000000000000D+00  0.0000000000000D+00
373  3.7200000000000D+00  0.0000000000000D+00  0.0000000000000D+00
374  3.7300000000000D+00  0.0000000000000D+00  0.0000000000000D+00
375  3.7400000000000D+00  0.0000000000000D+00  0.0000000000000D+00
376  3.7500000000000D+00  0.0000000000000D+00  0.0000000000000D+00
377  3.7600000000000D+00  0.0000000000000D+00  0.0000000000000D+00
378  3.7700000000000D+00  0.0000000000000D+00  0.0000000000000D+00
379  3.7800000000000D+00  0.0000000000000D+00  0.0000000000000D+00
380  3.7900000000000D+00  0.0000000000000D+00  0.0000000000000D+00
381  3.8000000000000D+00  0.0000000000000D+00  0.0000000000000D+00
382  3.8100000000000D+00  0.0000000000000D+00  0.0000000000000D+00
383  3.8200000000000D+00  0.0000000000000D+00  0.0000000000000D+00
384  3.8300000000000D+00  0.0000000000000D+00  0.0000000000000D+00
385  3.8400000000000D+00  0.0000000000000D+00  0.0000000000000D+00
386  3.8500000000000D+00  0.0000000000000D+00  0.0000000000000D+00
387  3.8600000000000D+00  0.0000000000000D+00  0.0000000000000D+00
388  3.8700000000000D+00  0.0000000000000D+00  0.0000000000000D+00
389  3.8800000000000D+00  0.0000000000000D+00  0.0000000000000D+00
390  3.8900000000000D+00  0.0000000000000D+00  0.0000000000000D+00
391  3.9000000000000D+00  0.0000000000000D+00  0.0000000000000D+00
392  3.9100000000000D+00  0.0000000000000D+00  0.0000000000000D+00
393  3.9200000000000D+00  0.0000000000000D+00  0.0000000000000D+00
394  3.9300000000000D+00  0.0000000000000D+00  0.0000000000000D+00
395  3.9400000000000D+00  0.0000000000000D+00  0.0000000000000D+00
396  3.9500000000000D+00  0.0000000000000D+00  0.0000000000000D+00
397  3.9600000000000D+00  0.0000000000000D+00  0.0000000000000D+00
398  3.9700000000000D+00  0.0000000000000D+00  0.0000000000000D+00
399  3.9800000000000D+00  0.0000000000000D+00  0.0000000000000D+00
400  3.9900000000000D+00  0.0000000000000D+00  0.0000000000000D+00
401  4.0000000000000D+00  0.0000000000000D+00  0.0000000000000D+00
402  4.0100000000000D+00  0.0000000000000D+00  0.0000000000000D+00
403  4.0200000000000D+00  0.0000000000000D+00  0.0000000000000D+00
404  4.0300000000000D+00  0.0000000000000D+00  0.0000000000000D+00
405  4.0400000000000D+00  0.0000000000000D+00  0.0000000000000D+00
406  4.0500000000000D+00  0.0000000000000D+00  0.0000000000000D+00
407  4.0600000000000D+00  0.0000000000000D+00  0.0000000000000D+00
408  4.0700000000000D+00  0.0000000000000D+00  0.0000000000000D+00
409  4.0800000000000D+00  0.0000000000000D+00  0.0000000000000D+00
410  4.0900000000000D+00  0.0000000000000D+00  0.0000000000000D+00
411  4.1000000000000D+00  0.0000000000000D+00  0.0000000000000D+00
412  4.1100000000000D+00  0.0000000000000D+00  0.0000000000000D+00
413  4.1200000000000D+00  0.0000000000000D+00  0.0000000000000D+00
414  4.1300000000000D+00  0.0000000000000D+00  0.0000000000000D+00
415  4.1400000000000D+00  0.0000000000000D+00  0.0000000000000D+00
416  4.1500000000000D+00  0.0000000000000D+00  0.0000000000000D+00
417  4.1600000000000D+00  0.0000000000000D+00  0.0000000000000D+00
418  4.1700000000000D+00  0.0000000000000D+00  0.0000000000000D+00
419  4.1800000000000D+00  0.0000000000000D+00  0.0000000000000D+00
420  4.1900000000000D+00  0.0000000000000D+00  0.0000000000000D+00
421  4.2000000000000D+00  0.0000000000000D+00  0.0000000000000D+00
422  4.2100000000000D+00  0.0000000000000D+00  0.0000000000000D+00
423  4.2200000000000D+00  0.0000000000000D+00  0.0000000000000D+00
424  4.2300000000000D+00  0.0000000000000D+00  0.0000000000000D+00
425  4.2400000000000D+00  0.0000000000000D+00  0.0000000000000D+00
426  4.2500000000000D+00  0.0000000000000D+00  0.0000000000000D+00
427  4.2600000000000D+00  0.0000000000000D+00  0.0000000000000D+00
428  4.2700000000000D+00  0.0000000000000D+00  0.0000000000000D+00
429  4.2800000000000D+00  0.0000000000000D+00  0.0000000000000D+00
430  4.2900000000000D+00  0.0000000000000D+00  0.0000000000000D+00
431  4.3000000000000D+00  0.0000000000000D+00  0.0000000000000D+00
432  4.3100000000000D+00  0.0000000000000D+00  0.0000000000000D+00
433  4.3200000000000D+00  0.0000000000000D+00  0.0000000000000D+00
434  4.3300000000000D+00  0.0000000000000D+00  0.0000000000000D+00
435  4.3400000000000D+00  0.0000000000000D+00  0.0000000000000D+00
436  4.3500000000000D+00  0.0000000000000D+00  0.0000000000000D+00
437  4.3600000000000D+00  0.0000000000000D+00  0.0000000000000D+00
438  4.3700000000000D+00  0.0000000000000D+00  0.0000000000000D+00
439  4.3800000000000D+00  0.0000000000000D+00  0.0000000000000D+00
440  4.3900000000000D+00  0.0000000000000D+00  0.0000000000000D+00
441  4.4000000000000D+00  0.0000000000000D+00  0.0000000000000D+00
442  4.4100000000000D+00  0.0000000000000D+00  0.0000000000000D+00
443  4.4200000000000D+00  0.0000000000000D+00  0.0000000000000D+00
444  4.4300000000000D+00  0.0000000000000D+00  0.0000000000000D+00