Po    ONCVPSP-3.3.0  r_core=   1.40243   1.50649   1.40243
84.0000     24.0000      180112    zatom,zion,pspd
8 -116133   2     4   600     0    pspcod,pspxc,lmax,lloc,mmax,r2well
5.99000000  6.00000000  0.00000000    rchrg fchrg qchrg
2     2     2     0     0    nproj
1     1           extension_switch
0                         1.8033338096333D+01  2.5657273254379D+00
1  0.0000000000000D+00 -1.0115733806160D-09  2.1945702893822D-09
2  1.0000000000000D-02  8.9358058937461D-02 -1.7705049167188D-02
3  2.0000000000000D-02  1.7843020744804D-01 -3.5155709924364D-02
4  3.0000000000000D-02  2.6693212434531D-01 -5.2100227954227D-02
5  4.0000000000000D-02  3.5458264941002D-01 -6.8292080253701D-02
6  5.0000000000000D-02  4.4110532035219D-01 -8.3492499182892D-02
7  6.0000000000000D-02  5.2622985827919D-01 -9.7472888171286D-02
8  7.0000000000000D-02  6.0969358571294D-01 -1.1001709558633D-01
9  8.0000000000000D-02  6.9124276221085D-01 -1.2092351546413D-01
10  9.0000000000000D-02  7.7063382388033D-01 -1.3000698648231D-01
11  1.0000000000000D-01  8.4763451451658D-01 -1.3710046368144D-01
12  1.1000000000000D-01  9.2202489771618D-01 -1.4205644096532D-01
13  1.2000000000000D-01  9.9359824109930D-01 -1.4474810627994D-01
14  1.3000000000000D-01  1.0621617656842D+00 -1.4507021552554D-01
15  1.4000000000000D-01  1.1275372554691D+00 -1.4293967563377D-01
16  1.5000000000000D-01  1.1895615243579D+00 -1.3829583177458D-01
17  1.6000000000000D-01  1.2480867396837D+00 -1.3110045827534D-01
18  1.7000000000000D-01  1.3029806037064D+00 -1.2133745746616D-01
19  1.8000000000000D-01  1.3541263965522D+00 -1.0901227523888D-01
20  1.9000000000000D-01  1.4014228860920D+00 -9.4151046549060D-02
21  2.0000000000000D-01  1.4447841121884D+00 -7.6799488332239D-02
22  2.1000000000000D-01  1.4841390545475D+00 -5.7021561277825D-02
23  2.2000000000000D-01  1.5194311950606D+00 -3.4897925543240D-02
24  2.3000000000000D-01  1.5506179869861D+00 -1.0524218736262D-02
25  2.4000000000000D-01  1.5776702445777D+00  1.5990812708239D-02
26  2.5000000000000D-01  1.6005714677915D+00  4.4527295329099D-02
27  2.6000000000000D-01  1.6193171174781D+00  7.4956288423492D-02
28  2.7000000000000D-01  1.6339138569805D+00  1.0714188542578D-01
29  2.8000000000000D-01  1.6443787762953D+00  1.4094331988919D-01
30  2.9000000000000D-01  1.6507386149105D+00  1.7621703908646D-01
31  3.0000000000000D-01  1.6530289991089D+00  2.1281870886929D-01
32  3.1000000000000D-01  1.6512937089197D+00  2.5060511466182D-01
33  3.2000000000000D-01  1.6455839890200D+00  2.8943592529828D-01
34  3.3000000000000D-01  1.6359579167493D+00  3.2917528882628D-01
35  3.4000000000000D-01  1.6224798390127D+00  3.6969323235209D-01
36  3.5000000000000D-01  1.6052198882372D+00  4.1086684146297D-01
37  3.6000000000000D-01  1.5842535857342D+00  4.5258119867207D-01
38  3.7000000000000D-01  1.5596615388358D+00  4.9473006463783D-01
39  3.8000000000000D-01  1.5315292360457D+00  5.3721629054525D-01
40  3.9000000000000D-01  1.4999469422137D+00  5.7995195493015D-01
41  4.0000000000000D-01  1.4650096934360D+00  6.2285822330307D-01
42  4.1000000000000D-01  1.4268173890507D+00  6.6586493410402D-01
43  4.2000000000000D-01  1.3854749757651D+00  7.0890991971096D-01
44  4.3000000000000D-01  1.3410927166770D+00  7.5193807634502D-01
45  4.4000000000000D-01  1.2937865357553D+00  7.9490020168019D-01
46  4.5000000000000D-01  1.2436784262869D+00  8.3775162368639D-01
47  4.6000000000000D-01  1.1908969099019D+00  8.8045064863142D-01
48  4.7000000000000D-01  1.1355775310965D+00  9.2295686015792D-01
49  4.8000000000000D-01  1.0778633707255D+00  9.6522930486170D-01
50  4.9000000000000D-01  1.0179055607521D+00  1.0072246027611D+00
51  5.0000000000000D-01  9.5586378166014D-01  1.0488950233988D+00
52  5.1000000000000D-01  8.9190672336999D-01  1.0901865700095D+00
53  5.2000000000000D-01  8.2621249027462D-01  1.1310371151738D+00
54  5.3000000000000D-01  7.5896893113969D-01  1.1713746316306D+00
55  5.4000000000000D-01  6.9037387509823D-01  1.2111155614133D+00
56  5.5000000000000D-01  6.2063525581830D-01  1.2501633652066D+00
57  5.6000000000000D-01  5.4997110713004D-01  1.2884072917856D+00
58  5.7000000000000D-01  4.7860941494702D-01  1.3257214046264D+00
59  5.8000000000000D-01  4.0678781220834D-01  1.3619638992731D+00
60  5.9000000000000D-01  3.3475310575162D-01  1.3969767408928D+00
61  6.0000000000000D-01  2.6276062651436D-01  1.4305856466358D+00
62  6.1000000000000D-01  1.9107339716921D-01  1.4626004320971D+00
63  6.2000000000000D-01  1.1996111424752D-01  1.4928157353135D+00
64  6.3000000000000D-01  4.9698944893615D-02  1.5210121255255D+00
65  6.4000000000000D-01 -1.9433858381634D-02  1.5469575973928D+00
66  6.5000000000000D-01 -8.7155518281478D-02  1.5704094446023D+00
67  6.6000000000000D-01 -1.5318345867327D-01  1.5911165000019D+00
68  6.7000000000000D-01 -2.1723618265572D-01  1.6088217225491D+00
69  6.8000000000000D-01 -2.7903528630959D-01  1.6232651046755D+00
70  6.9000000000000D-01 -3.3830758865962D-01  1.6341868672175D+00
71  7.0000000000000D-01 -3.9478735553705D-01  1.6413309029647D+00
72  7.1000000000000D-01 -4.4821859243592D-01  1.6444484242151D+00
73  7.2000000000000D-01 -4.9835737917678D-01  1.6433017646666D+00
74  7.3000000000000D-01 -5.4497421724785D-01  1.6376682815448D+00
75  7.4000000000000D-01 -5.8785635914688D-01  1.6273443002096D+00
76  7.5000000000000D-01 -6.2681008791897D-01  1.6121490406368D+00
77  7.6000000000000D-01 -6.6166291441945D-01  1.5919284632299D+00
78  7.7000000000000D-01 -6.9226565964404D-01  1.5665589704317D+00
79  7.8000000000000D-01 -7.1849438977756D-01  1.5359509005942D+00
80  7.9000000000000D-01 -7.4025217242976D-01  1.5000517515859D+00
81  8.0000000000000D-01 -7.5747062385192D-01  1.4588490736441D+00
82  8.1000000000000D-01 -7.7011121875506D-01  1.4123729740369D+00
83  8.2000000000000D-01 -7.7816633666446D-01  1.3606981801386D+00
84  8.3000000000000D-01 -7.8166002152526D-01  1.3039456125219D+00
85  8.4000000000000D-01 -7.8064843448332D-01  1.2422834255540D+00
86  8.5000000000000D-01 -7.7521998337372D-01  1.1759274796961D+00
87  8.6000000000000D-01 -7.6549511640815D-01  1.1051412171569D+00
88  8.7000000000000D-01 -7.5162577180229D-01  1.0302349206226D+00
89  8.8000000000000D-01 -7.3379447958587D-01  9.5156434340217D-01
90  8.9000000000000D-01 -7.1221311649339D-01  8.6952870829760D-01
91  9.0000000000000D-01 -6.8712131962762D-01  7.8456808180129D-01
92  9.1000000000000D-01 -6.5878456939651D-01  6.9716013959464D-01
93  9.2000000000000D-01 -6.2749195700873D-01  6.0781634869330D-01
94  9.3000000000000D-01 -5.9355365648861D-01  5.1707760078758D-01
95  9.4000000000000D-01 -5.5729812566505D-01  4.2550934021565D-01
96  9.5000000000000D-01 -5.1906906482957D-01  3.3369623843786D-01
97  9.6000000000000D-01 -4.7922216567658D-01  2.4223647471329D-01
98  9.7000000000000D-01 -4.3812168666811D-01  1.5173568978041D-01
99  9.8000000000000D-01 -3.9613689404345D-01  6.2800685586630D-02
100  9.9000000000000D-01 -3.5363841027580D-01 -2.3967050597754D-02
101  1.0000000000000D+00 -3.1099451378073D-01 -1.0797791517303D-01
102  1.0100000000000D+00 -2.6856743512046D-01 -1.8866076472932D-01
103  1.0200000000000D+00 -2.2670969576344D-01 -2.6546941263604D-01
104  1.0300000000000D+00 -1.8576053558386D-01 -3.3788895774179D-01
105  1.0400000000000D+00 -1.4604247479853D-01 -4.0544185790994D-01
106  1.0500000000000D+00 -1.0785805483432D-01 -4.6769366321290D-01
107  1.0600000000000D+00 -7.1486800762760D-02 -5.2425832699794D-01
108  1.0700000000000D+00 -3.7182445635204D-02 -5.7480301731726D-01
109  1.0800000000000D+00 -5.1704536973398D-03 -6.1905235755030D-01
110  1.0900000000000D+00  2.4354123969693D-02 -6.5679203157911D-01
111  1.1000000000000D+00  5.1228432314889D-02 -6.8787169745933D-01
112  1.1100000000000D+00  7.5323208903044D-02 -7.1220716176191D-01
113  1.1200000000000D+00  9.6543774693153D-02 -7.2978177690956D-01
114  1.1300000000000D+00  1.1483060506799D-01 -7.4064703465286D-01
115  1.1400000000000D+00  1.3015947279072D-01 -7.4492233973805D-01
116  1.1500000000000D+00  1.4254116023779D-01 -7.4279395885269D-01
117  1.1600000000000D+00  1.5202074400978D-01 -7.3451315113711D-01
118  1.1700000000000D+00  1.5867646178404D-01 -7.2039349974936D-01
119  1.1800000000000D+00  1.6261817688828D-01 -7.0080747494720D-01
120  1.1900000000000D+00  1.6398546074526D-01 -6.7618226827983D-01
121  1.2000000000000D+00  1.6294532020286D-01 -6.4699495091945D-01
122  1.2100000000000D+00  1.5968960153212D-01 -6.1376701850732D-01
123  1.2200000000000D+00  1.5443210729386D-01 -5.7705839354829D-01
124  1.2300000000000D+00  1.4740546587939D-01 -5.3746096345339D-01
125  1.2400000000000D+00  1.3885779903206D-01 -4.9559174312235D-01
126  1.2500000000000D+00  1.2904923423296D-01 -4.5208575403809D-01
127  1.2600000000000D+00  1.1824831118785D-01 -4.0758871654912D-01
128  1.2700000000000D+00  1.0672833731187D-01 -3.6274966360812D-01
129  1.2800000000000D+00  9.4763746069182D-02 -3.1821358148376D-01
130  1.2900000000000D+00  8.2626402594057D-02 -2.7461394572898D-01
131  1.3000000000000D+00  7.0582198270012D-02 -2.3256588132701D-01
132  1.3100000000000D+00  5.8888262318609D-02 -1.9266068964458D-01
133  1.3200000000000D+00  4.7786331931866D-02 -1.5545179546533D-01
134  1.3300000000000D+00  3.7496511285836D-02 -1.2144164120387D-01
135  1.3400000000000D+00  2.8210836103411D-02 -9.1068245999006D-02
136  1.3500000000000D+00  2.0090723776489D-02 -6.4700342357985D-02
137  1.3600000000000D+00  1.3269393361887D-02 -4.2647683373923D-02
138  1.3700000000000D+00  7.8258179600526D-03 -2.5080037545955D-02
139  1.3800000000000D+00  3.8120376653781D-03 -1.2117837729543D-02
140  1.3900000000000D+00  1.3857237900990D-03 -4.2408160784645D-03
141  1.4000000000000D+00  3.3500085974110D-04 -8.2285230700505D-04
142  1.4100000000000D+00  2.7171852225596D-05  5.5904957477289D-05
143  1.4200000000000D+00  7.0966647041067D-07 -7.8429270952507D-06
144  1.4300000000000D+00  7.1828000261915D-06 -4.5730298827858D-05
145  1.4400000000000D+00 -1.3290808084004D-07  4.7396153060593D-06
146  1.4500000000000D+00 -3.3130724850582D-07  4.3840862811545D-06
147  1.4600000000000D+00 -5.8954907575238D-07  1.2333922245811D-06
148  1.4700000000000D+00 -1.0154379480635D-07  2.1243918805024D-07
149  1.4800000000000D+00  0.0000000000000D+00  0.0000000000000D+00
150  1.4900000000000D+00  0.0000000000000D+00  0.0000000000000D+00
151  1.5000000000000D+00  0.0000000000000D+00  0.0000000000000D+00
152  1.5100000000000D+00  0.0000000000000D+00  0.0000000000000D+00
153  1.5200000000000D+00  0.0000000000000D+00  0.0000000000000D+00
154  1.5300000000000D+00  0.0000000000000D+00  0.0000000000000D+00
155  1.5400000000000D+00  0.0000000000000D+00  0.0000000000000D+00
156  1.5500000000000D+00  0.0000000000000D+00  0.0000000000000D+00
157  1.5600000000000D+00  0.0000000000000D+00  0.0000000000000D+00
158  1.5700000000000D+00  0.0000000000000D+00  0.0000000000000D+00
159  1.5800000000000D+00  0.0000000000000D+00  0.0000000000000D+00
160  1.5900000000000D+00  0.0000000000000D+00  0.0000000000000D+00
161  1.6000000000000D+00  0.0000000000000D+00  0.0000000000000D+00
162  1.6100000000000D+00  0.0000000000000D+00  0.0000000000000D+00
163  1.6200000000000D+00  0.0000000000000D+00  0.0000000000000D+00
164  1.6300000000000D+00  0.0000000000000D+00  0.0000000000000D+00
165  1.6400000000000D+00  0.0000000000000D+00  0.0000000000000D+00
166  1.6500000000000D+00  0.0000000000000D+00  0.0000000000000D+00
167  1.6600000000000D+00  0.0000000000000D+00  0.0000000000000D+00
168  1.6700000000000D+00  0.0000000000000D+00  0.0000000000000D+00
169  1.6800000000000D+00  0.0000000000000D+00  0.0000000000000D+00
170  1.6900000000000D+00  0.0000000000000D+00  0.0000000000000D+00
171  1.7000000000000D+00  0.0000000000000D+00  0.0000000000000D+00
172  1.7100000000000D+00  0.0000000000000D+00  0.0000000000000D+00
173  1.7200000000000D+00  0.0000000000000D+00  0.0000000000000D+00
174  1.7300000000000D+00  0.0000000000000D+00  0.0000000000000D+00
175  1.7400000000000D+00  0.0000000000000D+00  0.0000000000000D+00
176  1.7500000000000D+00  0.0000000000000D+00  0.0000000000000D+00
177  1.7600000000000D+00  0.0000000000000D+00  0.0000000000000D+00
178  1.7700000000000D+00  0.0000000000000D+00  0.0000000000000D+00
179  1.7800000000000D+00  0.0000000000000D+00  0.0000000000000D+00
180  1.7900000000000D+00  0.0000000000000D+00  0.0000000000000D+00
181  1.8000000000000D+00  0.0000000000000D+00  0.0000000000000D+00
182  1.8100000000000D+00  0.0000000000000D+00  0.0000000000000D+00
183  1.8200000000000D+00  0.0000000000000D+00  0.0000000000000D+00
184  1.8300000000000D+00  0.0000000000000D+00  0.0000000000000D+00
185  1.8400000000000D+00  0.0000000000000D+00  0.0000000000000D+00
186  1.8500000000000D+00  0.0000000000000D+00  0.0000000000000D+00
187  1.8600000000000D+00  0.0000000000000D+00  0.0000000000000D+00
188  1.8700000000000D+00  0.0000000000000D+00  0.0000000000000D+00
189  1.8800000000000D+00  0.0000000000000D+00  0.0000000000000D+00
190  1.8900000000000D+00  0.0000000000000D+00  0.0000000000000D+00
191  1.9000000000000D+00  0.0000000000000D+00  0.0000000000000D+00
192  1.9100000000000D+00  0.0000000000000D+00  0.0000000000000D+00
193  1.9200000000000D+00  0.0000000000000D+00  0.0000000000000D+00
194  1.9300000000000D+00  0.0000000000000D+00  0.0000000000000D+00
195  1.9400000000000D+00  0.0000000000000D+00  0.0000000000000D+00
196  1.9500000000000D+00  0.0000000000000D+00  0.0000000000000D+00
197  1.9600000000000D+00  0.0000000000000D+00  0.0000000000000D+00
198  1.9700000000000D+00  0.0000000000000D+00  0.0000000000000D+00
199  1.9800000000000D+00  0.0000000000000D+00  0.0000000000000D+00
200  1.9900000000000D+00  0.0000000000000D+00  0.0000000000000D+00
201  2.0000000000000D+00  0.0000000000000D+00  0.0000000000000D+00
202  2.0100000000000D+00  0.0000000000000D+00  0.0000000000000D+00
203  2.0200000000000D+00  0.0000000000000D+00  0.0000000000000D+00
204  2.0300000000000D+00  0.0000000000000D+00  0.0000000000000D+00
205  2.0400000000000D+00  0.0000000000000D+00  0.0000000000000D+00
206  2.0500000000000D+00  0.0000000000000D+00  0.0000000000000D+00
207  2.0600000000000D+00  0.0000000000000D+00  0.0000000000000D+00
208  2.0700000000000D+00  0.0000000000000D+00  0.0000000000000D+00
209  2.0800000000000D+00  0.0000000000000D+00  0.0000000000000D+00
210  2.0900000000000D+00  0.0000000000000D+00  0.0000000000000D+00
211  2.1000000000000D+00  0.0000000000000D+00  0.0000000000000D+00
212  2.1100000000000D+00  0.0000000000000D+00  0.0000000000000D+00
213  2.1200000000000D+00  0.0000000000000D+00  0.0000000000000D+00
214  2.1300000000000D+00  0.0000000000000D+00  0.0000000000000D+00
215  2.1400000000000D+00  0.0000000000000D+00  0.0000000000000D+00
216  2.1500000000000D+00  0.0000000000000D+00  0.0000000000000D+00
217  2.1600000000000D+00  0.0000000000000D+00  0.0000000000000D+00
218  2.1700000000000D+00  0.0000000000000D+00  0.0000000000000D+00
219  2.1800000000000D+00  0.0000000000000D+00  0.0000000000000D+00
220  2.1900000000000D+00  0.0000000000000D+00  0.0000000000000D+00
221  2.2000000000000D+00  0.0000000000000D+00  0.0000000000000D+00
222  2.2100000000000D+00  0.0000000000000D+00  0.0000000000000D+00
223  2.2200000000000D+00  0.0000000000000D+00  0.0000000000000D+00
224  2.2300000000000D+00  0.0000000000000D+00  0.0000000000000D+00
225  2.2400000000000D+00  0.0000000000000D+00  0.0000000000000D+00
226  2.2500000000000D+00  0.0000000000000D+00  0.0000000000000D+00
227  2.2600000000000D+00  0.0000000000000D+00  0.0000000000000D+00
228  2.2700000000000D+00  0.0000000000000D+00  0.0000000000000D+00
229  2.2800000000000D+00  0.0000000000000D+00  0.0000000000000D+00
230  2.2900000000000D+00  0.0000000000000D+00  0.0000000000000D+00
231  2.3000000000000D+00  0.0000000000000D+00  0.0000000000000D+00
232  2.3100000000000D+00  0.0000000000000D+00  0.0000000000000D+00
233  2.3200000000000D+00  0.0000000000000D+00  0.0000000000000D+00
234  2.3300000000000D+00  0.0000000000000D+00  0.0000000000000D+00
235  2.3400000000000D+00  0.0000000000000D+00  0.0000000000000D+00
236  2.3500000000000D+00  0.0000000000000D+00  0.0000000000000D+00
237  2.3600000000000D+00  0.0000000000000D+00  0.0000000000000D+00
238  2.3700000000000D+00  0.0000000000000D+00  0.0000000000000D+00
239  2.3800000000000D+00  0.0000000000000D+00  0.0000000000000D+00
240  2.3900000000000D+00  0.0000000000000D+00  0.0000000000000D+00
241  2.4000000000000D+00  0.0000000000000D+00  0.0000000000000D+00
242  2.4100000000000D+00  0.0000000000000D+00  0.0000000000000D+00
243  2.4200000000000D+00  0.0000000000000D+00  0.0000000000000D+00
244  2.4300000000000D+00  0.0000000000000D+00  0.0000000000000D+00
245  2.4400000000000D+00  0.0000000000000D+00  0.0000000000000D+00
246  2.4500000000000D+00  0.0000000000000D+00  0.0000000000000D+00
247  2.4600000000000D+00  0.0000000000000D+00  0.0000000000000D+00
248  2.4700000000000D+00  0.0000000000000D+00  0.0000000000000D+00
249  2.4800000000000D+00  0.0000000000000D+00  0.0000000000000D+00
250  2.4900000000000D+00  0.0000000000000D+00  0.0000000000000D+00
251  2.5000000000000D+00  0.0000000000000D+00  0.0000000000000D+00
252  2.5100000000000D+00  0.0000000000000D+00  0.0000000000000D+00
253  2.5200000000000D+00  0.0000000000000D+00  0.0000000000000D+00
254  2.5300000000000D+00  0.0000000000000D+00  0.0000000000000D+00
255  2.5400000000000D+00  0.0000000000000D+00  0.0000000000000D+00
256  2.5500000000000D+00  0.0000000000000D+00  0.0000000000000D+00
257  2.5600000000000D+00  0.0000000000000D+00  0.0000000000000D+00
258  2.5700000000000D+00  0.0000000000000D+00  0.0000000000000D+00
259  2.5800000000000D+00  0.0000000000000D+00  0.0000000000000D+00
260  2.5900000000000D+00  0.0000000000000D+00  0.0000000000000D+00
261  2.6000000000000D+00  0.0000000000000D+00  0.0000000000000D+00
262  2.6100000000000D+00  0.0000000000000D+00  0.0000000000000D+00
263  2.6200000000000D+00  0.0000000000000D+00  0.0000000000000D+00
264  2.6300000000000D+00  0.0000000000000D+00  0.0000000000000D+00
265  2.6400000000000D+00  0.0000000000000D+00  0.0000000000000D+00
266  2.6500000000000D+00  0.0000000000000D+00  0.0000000000000D+00
267  2.6600000000000D+00  0.0000000000000D+00  0.0000000000000D+00
268  2.6700000000000D+00  0.0000000000000D+00  0.0000000000000D+00
269  2.6800000000000D+00  0.0000000000000D+00  0.0000000000000D+00
270  2.6900000000000D+00  0.0000000000000D+00  0.0000000000000D+00
271  2.7000000000000D+00  0.0000000000000D+00  0.0000000000000D+00
272  2.7100000000000D+00  0.0000000000000D+00  0.0000000000000D+00
273  2.7200000000000D+00  0.0000000000000D+00  0.0000000000000D+00
274  2.7300000000000D+00  0.0000000000000D+00  0.0000000000000D+00
275  2.7400000000000D+00  0.0000000000000D+00  0.0000000000000D+00
276  2.7500000000000D+00  0.0000000000000D+00  0.0000000000000D+00
277  2.7600000000000D+00  0.0000000000000D+00  0.0000000000000D+00
278  2.7700000000000D+00  0.0000000000000D+00  0.0000000000000D+00
279  2.7800000000000D+00  0.0000000000000D+00  0.0000000000000D+00
280  2.7900000000000D+00  0.0000000000000D+00  0.0000000000000D+00
281  2.8000000000000D+00  0.0000000000000D+00  0.0000000000000D+00
282  2.8100000000000D+00  0.0000000000000D+00  0.0000000000000D+00
283  2.8200000000000D+00  0.0000000000000D+00  0.0000000000000D+00
284  2.8300000000000D+00  0.0000000000000D+00  0.0000000000000D+00
285  2.8400000000000D+00  0.0000000000000D+00  0.0000000000000D+00
286  2.8500000000000D+00  0.0000000000000D+00  0.0000000000000D+00
287  2.8600000000000D+00  0.0000000000000D+00  0.0000000000000D+00
288  2.8700000000000D+00  0.0000000000000D+00  0.0000000000000D+00
289  2.8800000000000D+00  0.0000000000000D+00  0.0000000000000D+00
290  2.8900000000000D+00  0.0000000000000D+00  0.0000000000000D+00
291  2.9000000000000D+00  0.0000000000000D+00  0.0000000000000D+00
292  2.9100000000000D+00  0.0000000000000D+00  0.0000000000000D+00
293  2.9200000000000D+00  0.0000000000000D+00  0.0000000000000D+00
294  2.9300000000000D+00  0.0000000000000D+00  0.0000000000000D+00
295  2.9400000000000D+00  0.0000000000000D+00  0.0000000000000D+00
296  2.9500000000000D+00  0.0000000000000D+00  0.0000000000000D+00
297  2.9600000000000D+00  0.0000000000000D+00  0.0000000000000D+00
298  2.9700000000000D+00  0.0000000000000D+00  0.0000000000000D+00
299  2.9800000000000D+00  0.0000000000000D+00  0.0000000000000D+00
300  2.9900000000000D+00  0.0000000000000D+00  0.0000000000000D+00
301  3.0000000000000D+00  0.0000000000000D+00  0.0000000000000D+00
302  3.0100000000000D+00  0.0000000000000D+00  0.0000000000000D+00
303  3.0200000000000D+00  0.0000000000000D+00  0.0000000000000D+00
304  3.0300000000000D+00  0.0000000000000D+00  0.0000000000000D+00
305  3.0400000000000D+00  0.0000000000000D+00  0.0000000000000D+00
306  3.0500000000000D+00  0.0000000000000D+00  0.0000000000000D+00
307  3.0600000000000D+00  0.0000000000000D+00  0.0000000000000D+00
308  3.0700000000000D+00  0.0000000000000D+00  0.0000000000000D+00
309  3.0800000000000D+00  0.0000000000000D+00  0.0000000000000D+00
310  3.0900000000000D+00  0.0000000000000D+00  0.0000000000000D+00
311  3.1000000000000D+00  0.0000000000000D+00  0.0000000000000D+00
312  3.1100000000000D+00  0.0000000000000D+00  0.0000000000000D+00
313  3.1200000000000D+00  0.0000000000000D+00  0.0000000000000D+00
314  3.1300000000000D+00  0.0000000000000D+00  0.0000000000000D+00
315  3.1400000000000D+00  0.0000000000000D+00  0.0000000000000D+00
316  3.1500000000000D+00  0.0000000000000D+00  0.0000000000000D+00
317  3.1600000000000D+00  0.0000000000000D+00  0.0000000000000D+00
318  3.1700000000000D+00  0.0000000000000D+00  0.0000000000000D+00
319  3.1800000000000D+00  0.0000000000000D+00  0.0000000000000D+00
320  3.1900000000000D+00  0.0000000000000D+00  0.0000000000000D+00
321  3.2000000000000D+00  0.0000000000000D+00  0.0000000000000D+00
322  3.2100000000000D+00  0.0000000000000D+00  0.0000000000000D+00
323  3.2200000000000D+00  0.0000000000000D+00  0.0000000000000D+00
324  3.2300000000000D+00  0.0000000000000D+00  0.0000000000000D+00
325  3.2400000000000D+00  0.0000000000000D+00  0.0000000000000D+00
326  3.2500000000000D+00  0.0000000000000D+00  0.0000000000000D+00
327  3.2600000000000D+00  0.0000000000000D+00  0.0000000000000D+00
328  3.2700000000000D+00  0.0000000000000D+00  0.0000000000000D+00
329  3.2800000000000D+00  0.0000000000000D+00  0.0000000000000D+00
330  3.2900000000000D+00  0.0000000000000D+00  0.0000000000000D+00
331  3.3000000000000D+00  0.0000000000000D+00  0.0000000000000D+00
332  3.3100000000000D+00  0.0000000000000D+00  0.0000000000000D+00
333  3.3200000000000D+00  0.0000000000000D+00  0.0000000000000D+00
334  3.3300000000000D+00  0.0000000000000D+00  0.0000000000000D+00
335  3.3400000000000D+00  0.0000000000000D+00  0.0000000000000D+00
336  3.3500000000000D+00  0.0000000000000D+00  0.0000000000000D+00
337  3.3600000000000D+00  0.0000000000000D+00  0.0000000000000D+00
338  3.3700000000000D+00  0.0000000000000D+00  0.0000000000000D+00
339  3.3800000000000D+00  0.0000000000000D+00  0.0000000000000D+00
340  3.3900000000000D+00  0.0000000000000D+00  0.0000000000000D+00
341  3.4000000000000D+00  0.0000000000000D+00  0.0000000000000D+00
342  3.4100000000000D+00  0.0000000000000D+00  0.0000000000000D+00
343  3.4200000000000D+00  0.0000000000000D+00  0.0000000000000D+00
344  3.4300000000000D+00  0.0000000000000D+00  0.0000000000000D+00
345  3.4400000000000D+00  0.0000000000000D+00  0.0000000000000D+00
346  3.4500000000000D+00  0.0000000000000D+00  0.0000000000000D+00
347  3.4600000000000D+00  0.0000000000000D+00  0.0000000000000D+00
348  3.4700000000000D+00  0.0000000000000D+00  0.0000000000000D+00
349  3.4800000000000D+00  0.0000000000000D+00  0.0000000000000D+00
350  3.4900000000000D+00  0.0000000000000D+00  0.0000000000000D+00
351  3.5000000000000D+00  0.0000000000000D+00  0.0000000000000D+00
352  3.5100000000000D+00  0.0000000000000D+00  0.0000000000000D+00
353  3.5200000000000D+00  0.0000000000000D+00  0.0000000000000D+00
354  3.5300000000000D+00  0.0000000000000D+00  0.0000000000000D+00
355  3.5400000000000D+00  0.0000000000000D+00  0.0000000000000D+00
356  3.5500000000000D+00  0.0000000000000D+00  0.0000000000000D+00
357  3.5600000000000D+00  0.0000000000000D+00  0.0000000000000D+00
358  3.5700000000000D+00  0.0000000000000D+00  0.0000000000000D+00
359  3.5800000000000D+00  0.0000000000000D+00  0.0000000000000D+00
360  3.5900000000000D+00  0.0000000000000D+00  0.0000000000000D+00
361  3.6000000000000D+00  0.0000000000000D+00  0.0000000000000D+00
362  3.6100000000000D+00  0.0000000000000D+00  0.0000000000000D+00
363  3.6200000000000D+00  0.0000000000000D+00  0.0000000000000D+00
364  3.6300000000000D+00  0.0000000000000D+00  0.0000000000000D+00
365  3.6400000000000D+00  0.0000000000000D+00  0.0000000000000D+00
366  3.6500000000000D+00  0.0000000000000D+00  0.0000000000000D+00
367  3.6600000000000D+00  0.0000000000000D+00  0.0000000000000D+00
368  3.6700000000000D+00  0.0000000000000D+00  0.0000000000000D+00
369  3.6800000000000D+00  0.0000000000000D+00  0.0000000000000D+00
370  3.6900000000000D+00  0.0000000000000D+00  0.0000000000000D+00
371  3.7000000000000D+00  0.0000000000000D+00  0.0000000000000D+00
372  3.7100000000000D+00  0.0000000000000D+00  0.0000000000000D+00
373  3.7200000000000D+00  0.0000000000000D+00  0.0000000000000D+00
374  3.7300000000000D+00  0.0000000000000D+00  0.0000000000000D+00
375  3.7400000000000D+00  0.0000000000000D+00  0.0000000000000D+00
376  3.7500000000000D+00  0.0000000000000D+00  0.0000000000000D+00
377  3.7600000000000D+00  0.0000000000000D+00  0.0000000000000D+00
378  3.7700000000000D+00  0.0000000000000D+00  0.0000000000000D+00
379  3.7800000000000D+00  0.0000000000000D+00  0.0000000000000D+00
380  3.7900000000000D+00  0.0000000000000D+00  0.0000000000000D+00
381  3.8000000000000D+00  0.0000000000000D+00  0.0000000000000D+00
382  3.8100000000000D+00  0.0000000000000D+00  0.0000000000000D+00
383  3.8200000000000D+00  0.0000000000000D+00  0.0000000000000D+00
384  3.8300000000000D+00  0.0000000000000D+00  0.0000000000000D+00
385  3.8400000000000D+00  0.0000000000000D+00  0.0000000000000D+00
386  3.8500000000000D+00  0.0000000000000D+00  0.0000000000000D+00
387  3.8600000000000D+00  0.0000000000000D+00  0.0000000000000D+00
388  3.8700000000000D+00  0.0000000000000D+00  0.0000000000000D+00
389  3.8800000000000D+00  0.0000000000000D+00  0.0000000000000D+00
390  3.8900000000000D+00  0.0000000000000D+00  0.0000000000000D+00
391  3.9000000000000D+00  0.0000000000000D+00  0.0000000000000D+00
392  3.9100000000000D+00  0.0000000000000D+00  0.0000000000000D+00
393  3.9200000000000D+00  0.0000000000000D+00  0.0000000000000D+00
394  3.9300000000000D+00  0.0000000000000D+00  0.0000000000000D+00
395  3.9400000000000D+00  0.0000000000000D+00  0.0000000000000D+00
396  3.9500000000000D+00  0.0000000000000D+00  0.0000000000000D+00
397  3.9600000000000D+00  0.0000000000000D+00  0.0000000000000D+00
398  3.9700000000000D+00  0.0000000000000D+00  0.0000000000000D+00
399  3.9800000000000D+00  0.0000000000000D+00  0.0000000000000D+00
400  3.9900000000000D+00  0.0000000000000D+00  0.0000000000000D+00
401  4.0000000000000D+00  0.0000000000000D+00  0.0000000000000D+00
402  4.0100000000000D+00  0.0000000000000D+00  0.0000000000000D+00
403  4.0200000000000D+00  0.0000000000000D+00  0.0000000000000D+00
404  4.0300000000000D+00  0.0000000000000D+00  0.0000000000000D+00
405  4.0400000000000D+00  0.0000000000000D+00  0.0000000000000D+00
406  4.0500000000000D+00  0.0000000000000D+00  0.0000000000000D+00
407  4.0600000000000D+00  0.0000000000000D+00  0.0000000000000D+00
408  4.0700000000000D+00  0.0000000000000D+00  0.0000000000000D+00
409  4.0800000000000D+00  0.0000000000000D+00  0.0000000000000D+00
410  4.0900000000000D+00  0.0000000000000D+00  0.0000000000000D+00
411  4.1000000000000D+00  0.0000000000000D+00  0.0000000000000D+00
412  4.1100000000000D+00  0.0000000000000D+00  0.0000000000000D+00
413  4.1200000000000D+00  0.0000000000000D+00  0.0000000000000D+00
414  4.1300000000000D+00  0.0000000000000D+00  0.0000000000000D+00
415  4.1400000000000D+00  0.0000000000000D+00  0.0000000000000D+00
416  4.1500000000000D+00  0.0000000000000D+00  0.0000000000000D+00
417  4.1600000000000D+00  0.0000000000000D+00  0.0000000000000D+00
418  4.1700000000000D+00  0.0000000000000D+00  0.0000000000000D+00
419  4.1800000000000D+00  0.0000000000000D+00  0.0000000000000D+00
420  4.1900000000000D+00  0.0000000000000D+00  0.0000000000000D+00
421  4.2000000000000D+00  0.0000000000000D+00  0.0000000000000D+00
422  4.2100000000000D+00  0.0000000000000D+00  0.0000000000000D+00
423  4.2200000000000D+00  0.0000000000000D+00  0.0000000000000D+00
424  4.2300000000000D+00  0.0000000000000D+00  0.0000000000000D+00
425  4.2400000000000D+00  0.0000000000000D+00  0.0000000000000D+00
426  4.2500000000000D+00  0.0000000000000D+00  0.0000000000000D+00
427  4.2600000000000D+00  0.0000000000000D+00  0.0000000000000D+00
428  4.2700000000000D+00  0.0000000000000D+00  0.0000000000000D+00
429  4.2800000000000D+00  0.0000000000000D+00  0.0000000000000D+00
430  4.2900000000000D+00  0.0000000000000D+00  0.0000000000000D+00
431  4.3000000000000D+00  0.0000000000000D+00  0.0000000000000D+00
432  4.3100000000000D+00  0.0000000000000D+00  0.0000000000000D+00
433  4.3200000000000D+00  0.0000000000000D+00  0.0000000000000D+00
434  4.3300000000000D+00  0.0000000000000D+00  0.0000000000000D+00
435  4.3400000000000D+00  0.0000000000000D+00  0.0000000000000D+00
436  4.3500000000000D+00  0.0000000000000D+00  0.0000000000000D+00
437  4.3600000000000D+00  0.0000000000000D+00  0.0000000000000D+00
438  4.3700000000000D+00  0.0000000000000D+00  0.0000000000000D+00
439  4.3800000000000D+00  0.0000000000000D+00  0.0000000000000D+00
440  4.3900000000000D+00  0.0000000000000D+00  0.0000000000000D+00
441  4.4000000000000D+00  0.0000000000000D+00  0.0000000000000D+00
442  4.4100000000000D+00  0.0000000000000D+00  0.0000000000000D+00
443  4.4200000000000D+00  0.0000000000000D+00  0.0000000000000D+00