Pm    ONCVPSP  r_core=  1.91  1.50  1.76  1.71
61.0000     15.0000      160625    zatom,zion,pspd
8      11   3     4   600     0    pspcod,pspxc,lmax,lloc,mmax,r2well
5.99000000  0.25000000  0.00000000    rchrg fchrg qchrg
2     2     2     2     0    nproj
1                 extension_switch
0                         8.1821751232995D+00  6.9490173562950D-01
1  0.0000000000000D+00 -1.3592016401276D-11  1.1500775332074D-10
2  1.0000000000000D-02  3.6852066544414D-02 -1.3885859820584D-02
3  2.0000000000000D-02  7.3679906079626D-02 -2.7714356157133D-02
4  3.0000000000000D-02  1.1045930006803D-01 -4.1428519710907D-02
5  4.0000000000000D-02  1.4716604671190D-01 -5.4972166042638D-02
6  5.0000000000000D-02  1.8377596881849D-01 -6.8290279253788D-02
7  6.0000000000000D-02  2.2026492106908D-01 -8.1329385251459D-02
8  7.0000000000000D-02  2.5660879650948D-01 -9.4037911260630D-02
9  8.0000000000000D-02  2.9278353209286D-01 -1.0636652836244D-01
10  9.0000000000000D-02  3.2876511312298D-01 -1.1826847397973D-01
11  1.0000000000000D-01  3.6452957646515D-01 -1.2969985139939D-01
12  1.1000000000000D-01  4.0005301241537D-01 -1.4061990361479D-01
13  1.2000000000000D-01  4.3531156514261D-01 -1.5099125898846D-01
14  1.3000000000000D-01  4.7028143164719D-01 -1.6078014647449D-01
15  1.4000000000000D-01  5.0493885920733D-01 -1.6995657839910D-01
16  1.5000000000000D-01  5.3926014131726D-01 -1.7849449907569D-01
17  1.6000000000000D-01  5.7322161215290D-01 -1.8637189782433D-01
18  1.7000000000000D-01  6.0679963963480D-01 -1.9357088527344D-01
19  1.8000000000000D-01  6.3997061719217D-01 -2.0007773214082D-01
20  1.9000000000000D-01  6.7271095436670D-01 -2.0588287001992D-01
21  2.0000000000000D-01  7.0499706642920D-01 -2.1098085403230D-01
22  2.1000000000000D-01  7.3680536321619D-01 -2.1537028754654D-01
23  2.2000000000000D-01  7.6811223742659D-01 -2.1905370950436D-01
24  2.3000000000000D-01  7.9889405265035D-01 -2.2203744523336D-01
25  2.4000000000000D-01  8.2912713143084D-01 -2.2433142196090D-01
26  2.5000000000000D-01  8.5878774369064D-01 -2.2594895057056D-01
27  2.6000000000000D-01  8.8785209587527D-01 -2.2690647546069D-01
28  2.7000000000000D-01  9.1629632119183D-01 -2.2722329466911D-01
29  2.8000000000000D-01  9.4409647133798D-01 -2.2692125271762D-01
30  2.9000000000000D-01  9.7122851013199D-01 -2.2602440890123D-01
31  3.0000000000000D-01  9.9766830946509D-01 -2.2455868399791D-01
32  3.1000000000000D-01  1.0233916480041D+00 -2.2255148860221D-01
33  3.2000000000000D-01  1.0483742130742D+00 -2.2003133648854D-01
34  3.3000000000000D-01  1.0725916061474D+00 -2.1702744658456D-01
35  3.4000000000000D-01  1.0960193523565D+00 -2.1356933728072D-01
36  3.5000000000000D-01  1.1186329144369D+00 -2.0968641691600D-01
37  3.6000000000000D-01  1.1404077114826D+00 -2.0540757436156D-01
38  3.7000000000000D-01  1.1613191428773D+00 -2.0076077367135D-01
39  3.8000000000000D-01  1.1813426177297D+00 -1.9577265678143D-01
40  3.9000000000000D-01  1.2004535901090D+00 -1.9046815821661D-01
41  4.0000000000000D-01  1.2186276003327D+00 -1.8487013570339D-01
42  4.1000000000000D-01  1.2358403225149D+00 -1.7899902049325D-01
43  4.2000000000000D-01  1.2520676185310D+00 -1.7287249106820D-01
44  4.3000000000000D-01  1.2672855984980D+00 -1.6650517373375D-01
45  4.4000000000000D-01  1.2814706878090D+00 -1.5990837340239D-01
46  4.5000000000000D-01  1.2945997006989D+00 -1.5308983763634D-01
47  4.6000000000000D-01  1.3066499202455D+00 -1.4605355675007D-01
48  4.7000000000000D-01  1.3175991846446D+00 -1.3879960247723D-01
49  4.8000000000000D-01  1.3274259795197D+00 -1.3132400738130D-01
50  4.9000000000000D-01  1.3361095359554D+00 -1.2361868683913D-01
51  5.0000000000000D-01  1.3436299338661D+00 -1.1567140505478D-01
52  5.1000000000000D-01  1.3499682102355D+00 -1.0746578616842D-01
53  5.2000000000000D-01  1.3551064716874D+00 -9.8981371118759D-02
54  5.3000000000000D-01  1.3590280107721D+00 -9.0193720496511D-02
55  5.4000000000000D-01  1.3617174252843D+00 -8.1074563199251D-02
56  5.5000000000000D-01  1.3631607398545D+00 -7.1591990265366D-02
57  5.6000000000000D-01  1.3633455289958D+00 -6.1710692831953D-02
58  5.7000000000000D-01  1.3622610407240D+00 -5.1392242734169D-02
59  5.8000000000000D-01  1.3598983198164D+00 -4.0595413842845D-02
60  5.9000000000000D-01  1.3562503297273D+00 -2.9276541831504D-02
61  6.0000000000000D-01  1.3513120721366D+00 -1.7389919673651D-02
62  6.1000000000000D-01  1.3450807030772D+00 -4.8882258050361D-03
63  6.2000000000000D-01  1.3375556445627D+00  8.2770184579265D-03
64  6.3000000000000D-01  1.3287386906257D+00  2.2154965962063D-02
65  6.4000000000000D-01  1.3186341066718D+00  3.6794939221619D-02
66  6.5000000000000D-01  1.3072487210641D+00  5.2245908620871D-02
67  6.6000000000000D-01  1.2945920078731D+00  6.8555957752957D-02
68  6.7000000000000D-01  1.2806761597557D+00  8.5771740490308D-02
69  6.8000000000000D-01  1.2655161499724D+00  1.0393793449267D-01
70  6.9000000000000D-01  1.2491297826062D+00  1.2309669592201D-01
71  7.0000000000000D-01  1.2315377301141D+00  1.4328712014783D-01
72  7.1000000000000D-01  1.2127635574203D+00  1.6454471319047D-01
73  7.2000000000000D-01  1.1928337318529D+00  1.8690087856329D-01
74  7.3000000000000D-01  1.1717776183248D+00  2.1038242403871D-01
75  7.4000000000000D-01  1.1496274592749D+00  2.3501109267686D-01
76  7.5000000000000D-01  1.1264183390046D+00  2.6080312222250D-01
77  7.6000000000000D-01  1.1021881321776D+00  2.8776883669695D-01
78  7.7000000000000D-01  1.0769774363877D+00  3.1591227369043D-01
79  7.8000000000000D-01  1.0508294888455D+00  3.4523085049986D-01
80  7.9000000000000D-01  1.0237900673831D+00  3.7571507186217D-01
81  8.0000000000000D-01  9.9590737613126D-01  4.0734828160607D-01
82  8.1000000000000D-01  9.6723191637671D-01  4.4010646009826D-01
83  8.2000000000000D-01  9.3781634326388D-01  4.7395806888664D-01
84  8.3000000000000D-01  9.0771530915865D-01  5.0886394346438D-01
85  8.4000000000000D-01  8.7698529464130D-01  5.4477723458912D-01
86  8.5000000000000D-01  8.4568442823996D-01  5.8164339810539D-01
87  8.6000000000000D-01  8.1387229615231D-01  6.1940023274032D-01
88  8.7000000000000D-01  7.8160974332930D-01  6.5797796488000D-01
89  8.8000000000000D-01  7.4895866740916D-01  6.9729937889570D-01
90  8.9000000000000D-01  7.1598180708999D-01  7.3727999118140D-01
91  9.0000000000000D-01  6.8274252661344D-01  7.7782826569538D-01
92  9.1000000000000D-01  6.4930459809788D-01  8.1884586847564D-01
93  9.2000000000000D-01  6.1573198350574D-01  8.6022795832736D-01
94  9.3000000000000D-01  5.8208861805429D-01  9.0186351067097D-01
95  9.4000000000000D-01  5.4843819688073D-01  9.4363567138920D-01
96  9.5000000000000D-01  5.1484396674983D-01  9.8542213743614D-01
97  9.6000000000000D-01  4.8136852454407D-01  1.0270955609655D+00
98  9.7000000000000D-01  4.4807362420200D-01  1.0685239738081D+00
99  9.8000000000000D-01  4.1501999366971D-01  1.1095712292787D+00
100  9.9000000000000D-01  3.8226716330228D-01  1.1500974585229D+00
101  1.0000000000000D+00  3.4987330699814D-01  1.1899595389214D+00
102  1.0100000000000D+00  3.1789509716417D-01  1.2290115724642D+00
103  1.0200000000000D+00  2.8638757441553D-01  1.2671053724401D+00
104  1.0300000000000D+00  2.5540403266905D-01  1.3040909573433D+00
105  1.0400000000000D+00  2.2499592004821D-01  1.3398170514678D+00
106  1.0500000000000D+00  1.9521275574372D-01  1.3741315922998D+00
107  1.0600000000000D+00  1.6610206268029D-01  1.4068822455160D+00
108  1.0700000000000D+00  1.3770931554483D-01  1.4379169290866D+00
109  1.0800000000000D+00  1.1007790342352D-01  1.4670843487033D+00
110  1.0900000000000D+00  8.3249105957830D-02  1.4942345475215D+00
111  1.1000000000000D+00  5.7262081630525D-02  1.5192194738713D+00
112  1.1100000000000D+00  3.2153866450280D-02  1.5418935713134D+00
113  1.1200000000000D+00  7.9593810433326D-03  1.5621143959464D+00
114  1.1300000000000D+00 -1.5288556185698D-02  1.5797432665160D+00
115  1.1400000000000D+00 -3.7559212401706D-02  1.5946459532495D+00
116  1.1500000000000D+00 -5.8823923030919D-02  1.6066934116317D+00
117  1.1600000000000D+00 -7.9056076805104D-02  1.6157625674846D+00
118  1.1700000000000D+00 -9.8231106380332D-02  1.6217371597249D+00
119  1.1800000000000D+00 -1.1632648784114D-01  1.6245086468864D+00
120  1.1900000000000D+00 -1.3332175242300D-01  1.6239771827497D+00
121  1.2000000000000D+00 -1.4919851383802D-01  1.6200526662171D+00
122  1.2100000000000D+00 -1.6394051446346D-01  1.6126558689043D+00
123  1.2200000000000D+00 -1.7753369341796D-01  1.6017196424362D+00
124  1.2300000000000D+00 -1.8996627938490D-01  1.5871902061604D+00
125  1.2400000000000D+00 -2.0122891066321D-01  1.5690285135375D+00
126  1.2500000000000D+00 -2.1131478425540D-01  1.5472116919679D+00
127  1.2600000000000D+00 -2.2021983534130D-01  1.5217345484535D+00
128  1.2700000000000D+00 -2.2794294795407D-01  1.4926111306075D+00
129  1.2800000000000D+00 -2.3448619615251D-01  1.4598763253329D+00
130  1.2900000000000D+00 -2.3985511439982D-01  1.4235874748705D+00
131  1.3000000000000D+00 -2.4405899506852D-01  1.3838259860063D+00
132  1.3100000000000D+00 -2.4711120816099D-01  1.3406988956754D+00
133  1.3200000000000D+00 -2.4902953820434D-01  1.2943403556909D+00
134  1.3300000000000D+00 -2.4983653151439D-01  1.2449129913175D+00
135  1.3400000000000D+00 -2.4955984262486D-01  1.1926090696484D+00
136  1.3500000000000D+00 -2.4823257033446D-01  1.1376514207854D+00
137  1.3600000000000D+00 -2.4589356875196D-01  1.0802940329966D+00
138  1.3700000000000D+00 -2.4258771392839D-01  1.0208222231964D+00
139  1.3800000000000D+00 -2.3836611156964D-01  9.5955230436347D-01
140  1.3900000000000D+00 -2.3328621724621D-01  8.9683061270048D-01
141  1.4000000000000D+00 -2.2741184474132D-01  8.3303177517899D-01
142  1.4100000000000D+00 -2.2081303485740D-01  7.6855608395382D-01
143  1.4200000000000D+00 -2.1356574135300D-01  7.0382577974297D-01
144  1.4300000000000D+00 -2.0575130647912D-01  6.3928011128560D-01
145  1.4400000000000D+00 -1.9745567099989D-01  5.7536892434680D-01
146  1.4500000000000D+00 -1.8876827343761D-01  5.1254457445039D-01
147  1.4600000000000D+00 -1.7978057102465D-01  4.5125181642498D-01
148  1.4700000000000D+00 -1.7058417268633D-01  3.9191582973768D-01
149  1.4800000000000D+00 -1.6126842086123D-01  3.3492724489491D-01
150  1.4900000000000D+00 -1.5191800445372D-01  2.8062863888826D-01
151  1.5000000000000D+00 -1.4260726880427D-01  2.2927943441698D-01
152  1.5100000000000D+00 -1.3339827174552D-01  1.8104827763062D-01
153  1.5200000000000D+00 -1.2434186590126D-01  1.3602953994534D-01
154  1.5300000000000D+00 -1.1548026510256D-01  9.4265349861063D-02
155  1.5400000000000D+00 -1.0685258283411D-01  5.5786689655140D-02
156  1.5500000000000D+00 -9.8494175451811D-02  2.0609545651928D-02
157  1.5600000000000D+00 -9.0435747591833D-02 -1.1271995964399D-02
158  1.5700000000000D+00 -8.2703944696471D-02 -3.9880774940378D-02
159  1.5800000000000D+00 -7.5321144586671D-02 -6.5258006943646D-02
160  1.5900000000000D+00 -6.8305587622070D-02 -8.7462243968200D-02
161  1.6000000000000D+00 -6.1671438505985D-02 -1.0656893104103D-01
162  1.6100000000000D+00 -5.5428892702959D-02 -1.2266971911600D-01
163  1.6200000000000D+00 -4.9584309494525D-02 -1.3587166323884D-01
164  1.6300000000000D+00 -4.4140370863565D-02 -1.4629630980395D-01
165  1.6400000000000D+00 -3.9096264629678D-02 -1.5407868016842D-01
166  1.6500000000000D+00 -3.4447890254216D-02 -1.5936615789989D-01
167  1.6600000000000D+00 -3.0188085711890D-02 -1.6231728704295D-01
168  1.6700000000000D+00 -2.6306873275060D-02 -1.6310049123974D-01
169  1.6800000000000D+00 -2.2791722467373D-02 -1.6189272172234D-01
170  1.6900000000000D+00 -1.9627827693667D-02 -1.5887804552119D-01
171  1.7000000000000D+00 -1.6798398554214D-02 -1.5424618302143D-01
172  1.7100000000000D+00 -1.4284960223275D-02 -1.4819100678056D-01
173  1.7200000000000D+00 -1.2067661589497D-02 -1.4090901211953D-01
174  1.7300000000000D+00 -1.0125588742414D-02 -1.3259777036187D-01
175  1.7400000000000D+00 -8.4370809226235D-03 -1.2345437804390D-01
176  1.7500000000000D+00 -6.9800463340048D-03 -1.1367391409182D-01
177  1.7600000000000D+00 -5.7322758394443D-03 -1.0344791329659D-01
178  1.7700000000000D+00 -4.6717526897104D-03 -9.2962864180173D-02
179  1.7800000000000D+00 -3.7769538367849D-03 -8.2398752791353D-02
180  1.7900000000000D+00 -3.0271398527990D-03 -7.1927666430134D-02
181  1.8000000000000D+00 -2.4026337378161D-03 -6.1712454121564D-02
182  1.8100000000000D+00 -1.8850866157414D-03 -5.1905452169370D-02
183  1.8200000000000D+00 -1.4577271136182D-03 -4.2647291201810D-02
184  1.8300000000000D+00 -1.1055890366232D-03 -3.4065810049921D-02
185  1.8400000000000D+00 -8.1572095945471D-04 -2.6275058265986D-02
186  1.8500000000000D+00 -5.7753356405636D-04 -1.9380415146772D-02
187  1.8600000000000D+00 -3.8225011761816D-04 -1.3451234029021D-02
188  1.8700000000000D+00 -2.2386679191784D-04 -8.5316369915173D-03
189  1.8800000000000D+00 -9.9803534216468D-05 -4.7361974448573D-03
190  1.8900000000000D+00 -9.1991284691514D-06 -2.1726769756033D-03
191  1.9000000000000D+00  4.5373833684700D-05 -7.4642860590804D-04
192  1.9100000000000D+00  5.9024380648069D-05 -1.2713678922511D-04
193  1.9200000000000D+00  3.5270708916127D-05  4.0482018394321D-05
194  1.9300000000000D+00  3.2749209993763D-06  7.6771879474011D-06
195  1.9400000000000D+00 -8.0306942960690D-06 -2.4067703014262D-05
196  1.9500000000000D+00 -3.8123818360086D-06 -1.3235572529562D-05
197  1.9600000000000D+00  1.3262318402569D-06  2.6021970572248D-06
198  1.9700000000000D+00  1.4250381763204D-06  3.1498115658785D-06
199  1.9800000000000D+00 -5.5932508824572D-08  1.7893461549373D-07
200  1.9900000000000D+00 -1.6982190621280D-07  5.4328007323801D-07
201  2.0000000000000D+00 -3.3453298954928D-08  1.0702100283524D-07
202  2.0100000000000D+00  0.0000000000000D+00  0.0000000000000D+00
203  2.0200000000000D+00  0.0000000000000D+00  0.0000000000000D+00
204  2.0300000000000D+00  0.0000000000000D+00  0.0000000000000D+00
205  2.0400000000000D+00  0.0000000000000D+00  0.0000000000000D+00
206  2.0500000000000D+00  0.0000000000000D+00  0.0000000000000D+00
207  2.0600000000000D+00  0.0000000000000D+00  0.0000000000000D+00
208  2.0700000000000D+00  0.0000000000000D+00  0.0000000000000D+00
209  2.0800000000000D+00  0.0000000000000D+00  0.0000000000000D+00
210  2.0900000000000D+00  0.0000000000000D+00  0.0000000000000D+00
211  2.1000000000000D+00  0.0000000000000D+00  0.0000000000000D+00
212  2.1100000000000D+00  0.0000000000000D+00  0.0000000000000D+00
213  2.1200000000000D+00  0.0000000000000D+00  0.0000000000000D+00
214  2.1300000000000D+00  0.0000000000000D+00  0.0000000000000D+00
215  2.1400000000000D+00  0.0000000000000D+00  0.0000000000000D+00
216  2.1500000000000D+00  0.0000000000000D+00  0.0000000000000D+00
217  2.1600000000000D+00  0.0000000000000D+00  0.0000000000000D+00
218  2.1700000000000D+00  0.0000000000000D+00  0.0000000000000D+00
219  2.1800000000000D+00  0.0000000000000D+00  0.0000000000000D+00
220  2.1900000000000D+00  0.0000000000000D+00  0.0000000000000D+00
221  2.2000000000000D+00  0.0000000000000D+00  0.0000000000000D+00
222  2.2100000000000D+00  0.0000000000000D+00  0.0000000000000D+00
223  2.2200000000000D+00  0.0000000000000D+00  0.0000000000000D+00
224  2.2300000000000D+00  0.0000000000000D+00  0.0000000000000D+00
225  2.2400000000000D+00  0.0000000000000D+00  0.0000000000000D+00
226  2.2500000000000D+00  0.0000000000000D+00  0.0000000000000D+00
227  2.2600000000000D+00  0.0000000000000D+00  0.0000000000000D+00
228  2.2700000000000D+00  0.0000000000000D+00  0.0000000000000D+00
229  2.2800000000000D+00  0.0000000000000D+00  0.0000000000000D+00
230  2.2900000000000D+00  0.0000000000000D+00  0.0000000000000D+00
231  2.3000000000000D+00  0.0000000000000D+00  0.0000000000000D+00
232  2.3100000000000D+00  0.0000000000000D+00  0.0000000000000D+00
233  2.3200000000000D+00  0.0000000000000D+00  0.0000000000000D+00
234  2.3300000000000D+00  0.0000000000000D+00  0.0000000000000D+00
235  2.3400000000000D+00  0.0000000000000D+00  0.0000000000000D+00
236  2.3500000000000D+00  0.0000000000000D+00  0.0000000000000D+00
237  2.3600000000000D+00  0.0000000000000D+00  0.0000000000000D+00
238  2.3700000000000D+00  0.0000000000000D+00  0.0000000000000D+00
239  2.3800000000000D+00  0.0000000000000D+00  0.0000000000000D+00
240  2.3900000000000D+00  0.0000000000000D+00  0.0000000000000D+00
241  2.4000000000000D+00  0.0000000000000D+00  0.0000000000000D+00
242  2.4100000000000D+00  0.0000000000000D+00  0.0000000000000D+00
243  2.4200000000000D+00  0.0000000000000D+00  0.0000000000000D+00
244  2.4300000000000D+00  0.0000000000000D+00  0.0000000000000D+00
245  2.4400000000000D+00  0.0000000000000D+00  0.0000000000000D+00
246  2.4500000000000D+00  0.0000000000000D+00  0.0000000000000D+00
247  2.4600000000000D+00  0.0000000000000D+00  0.0000000000000D+00
248  2.4700000000000D+00  0.0000000000000D+00  0.0000000000000D+00
249  2.4800000000000D+00  0.0000000000000D+00  0.0000000000000D+00
250  2.4900000000000D+00  0.0000000000000D+00  0.0000000000000D+00
251  2.5000000000000D+00  0.0000000000000D+00  0.0000000000000D+00
252  2.5100000000000D+00  0.0000000000000D+00  0.0000000000000D+00
253  2.5200000000000D+00  0.0000000000000D+00  0.0000000000000D+00
254  2.5300000000000D+00  0.0000000000000D+00  0.0000000000000D+00
255  2.5400000000000D+00  0.0000000000000D+00  0.0000000000000D+00
256  2.5500000000000D+00  0.0000000000000D+00  0.0000000000000D+00
257  2.5600000000000D+00  0.0000000000000D+00  0.0000000000000D+00
258  2.5700000000000D+00  0.0000000000000D+00  0.0000000000000D+00
259  2.5800000000000D+00  0.0000000000000D+00  0.0000000000000D+00
260  2.5900000000000D+00  0.0000000000000D+00  0.0000000000000D+00
261  2.6000000000000D+00  0.0000000000000D+00  0.0000000000000D+00
262  2.6100000000000D+00  0.0000000000000D+00  0.0000000000000D+00
263  2.6200000000000D+00  0.0000000000000D+00  0.0000000000000D+00
264  2.6300000000000D+00  0.0000000000000D+00  0.0000000000000D+00
265  2.6400000000000D+00  0.0000000000000D+00  0.0000000000000D+00
266  2.6500000000000D+00  0.0000000000000D+00  0.0000000000000D+00
267  2.6600000000000D+00  0.0000000000000D+00  0.0000000000000D+00
268  2.6700000000000D+00  0.0000000000000D+00  0.0000000000000D+00
269  2.6800000000000D+00  0.0000000000000D+00  0.0000000000000D+00
270  2.6900000000000D+00  0.0000000000000D+00  0.0000000000000D+00
271  2.7000000000000D+00  0.0000000000000D+00  0.0000000000000D+00
272  2.7100000000000D+00  0.0000000000000D+00  0.0000000000000D+00
273  2.7200000000000D+00  0.0000000000000D+00  0.0000000000000D+00
274  2.7300000000000D+00  0.0000000000000D+00  0.0000000000000D+00
275  2.7400000000000D+00  0.0000000000000D+00  0.0000000000000D+00
276  2.7500000000000D+00  0.0000000000000D+00  0.0000000000000D+00
277  2.7600000000000D+00  0.0000000000000D+00  0.0000000000000D+00
278  2.7700000000000D+00  0.0000000000000D+00  0.0000000000000D+00
279  2.7800000000000D+00  0.0000000000000D+00  0.0000000000000D+00
280  2.7900000000000D+00  0.0000000000000D+00  0.0000000000000D+00
281  2.8000000000000D+00  0.0000000000000D+00  0.0000000000000D+00
282  2.8100000000000D+00  0.0000000000000D+00  0.0000000000000D+00
283  2.8200000000000D+00  0.0000000000000D+00  0.0000000000000D+00
284  2.8300000000000D+00  0.0000000000000D+00  0.0000000000000D+00
285  2.8400000000000D+00  0.0000000000000D+00  0.0000000000000D+00
286  2.8500000000000D+00  0.0000000000000D+00  0.0000000000000D+00
287  2.8600000000000D+00  0.0000000000000D+00  0.0000000000000D+00
288  2.8700000000000D+00  0.0000000000000D+00  0.0000000000000D+00
289  2.8800000000000D+00  0.0000000000000D+00  0.0000000000000D+00
290  2.8900000000000D+00  0.0000000000000D+00  0.0000000000000D+00
291  2.9000000000000D+00  0.0000000000000D+00  0.0000000000000D+00
292  2.9100000000000D+00  0.0000000000000D+00  0.0000000000000D+00
293  2.9200000000000D+00  0.0000000000000D+00  0.0000000000000D+00
294  2.9300000000000D+00  0.0000000000000D+00  0.0000000000000D+00
295  2.9400000000000D+00  0.0000000000000D+00  0.0000000000000D+00
296  2.9500000000000D+00  0.0000000000000D+00  0.0000000000000D+00
297  2.9600000000000D+00  0.0000000000000D+00  0.0000000000000D+00
298  2.9700000000000D+00  0.0000000000000D+00  0.0000000000000D+00
299  2.9800000000000D+00  0.0000000000000D+00  0.0000000000000D+00
300  2.9900000000000D+00  0.0000000000000D+00  0.0000000000000D+00
301  3.0000000000000D+00  0.0000000000000D+00  0.0000000000000D+00
302  3.0100000000000D+00  0.0000000000000D+00  0.0000000000000D+00
303  3.0200000000000D+00  0.0000000000000D+00  0.0000000000000D+00
304  3.0300000000000D+00  0.0000000000000D+00  0.0000000000000D+00
305  3.0400000000000D+00  0.0000000000000D+00  0.0000000000000D+00
306  3.0500000000000D+00  0.0000000000000D+00  0.0000000000000D+00
307  3.0600000000000D+00  0.0000000000000D+00  0.0000000000000D+00
308  3.0700000000000D+00  0.0000000000000D+00  0.0000000000000D+00
309  3.0800000000000D+00  0.0000000000000D+00  0.0000000000000D+00
310  3.0900000000000D+00  0.0000000000000D+00  0.0000000000000D+00
311  3.1000000000000D+00  0.0000000000000D+00  0.0000000000000D+00
312  3.1100000000000D+00  0.0000000000000D+00  0.0000000000000D+00
313  3.1200000000000D+00  0.0000000000000D+00  0.0000000000000D+00
314  3.1300000000000D+00  0.0000000000000D+00  0.0000000000000D+00
315  3.1400000000000D+00  0.0000000000000D+00  0.0000000000000D+00
316  3.1500000000000D+00  0.0000000000000D+00  0.0000000000000D+00
317  3.1600000000000D+00  0.0000000000000D+00  0.0000000000000D+00
318  3.1700000000000D+00  0.0000000000000D+00  0.0000000000000D+00
319  3.1800000000000D+00  0.0000000000000D+00  0.0000000000000D+00
320  3.1900000000000D+00  0.0000000000000D+00  0.0000000000000D+00
321  3.2000000000000D+00  0.0000000000000D+00  0.0000000000000D+00
322  3.2100000000000D+00  0.0000000000000D+00  0.0000000000000D+00
323  3.2200000000000D+00  0.0000000000000D+00  0.0000000000000D+00
324  3.2300000000000D+00  0.0000000000000D+00  0.0000000000000D+00
325  3.2400000000000D+00  0.0000000000000D+00  0.0000000000000D+00
326  3.2500000000000D+00  0.0000000000000D+00  0.0000000000000D+00
327  3.2600000000000D+00  0.0000000000000D+00  0.0000000000000D+00
328  3.2700000000000D+00  0.0000000000000D+00  0.0000000000000D+00
329  3.2800000000000D+00  0.0000000000000D+00  0.0000000000000D+00
330  3.2900000000000D+00  0.0000000000000D+00  0.0000000000000D+00
331  3.3000000000000D+00  0.0000000000000D+00  0.0000000000000D+00
332  3.3100000000000D+00  0.0000000000000D+00  0.0000000000000D+00
333  3.3200000000000D+00  0.0000000000000D+00  0.0000000000000D+00
334  3.3300000000000D+00  0.0000000000000D+00  0.0000000000000D+00
335  3.3400000000000D+00  0.0000000000000D+00  0.0000000000000D+00
336  3.3500000000000D+00  0.0000000000000D+00  0.0000000000000D+00
337  3.3600000000000D+00  0.0000000000000D+00  0.0000000000000D+00
338  3.3700000000000D+00  0.0000000000000D+00  0.0000000000000D+00
339  3.3800000000000D+00  0.0000000000000D+00  0.0000000000000D+00
340  3.3900000000000D+00  0.0000000000000D+00  0.0000000000000D+00
341  3.4000000000000D+00  0.0000000000000D+00  0.0000000000000D+00
342  3.4100000000000D+00  0.0000000000000D+00  0.0000000000000D+00
343  3.4200000000000D+00  0.0000000000000D+00  0.0000000000000D+00
344  3.4300000000000D+00  0.0000000000000D+00  0.0000000000000D+00
345  3.4400000000000D+00  0.0000000000000D+00  0.0000000000000D+00
346  3.4500000000000D+00  0.0000000000000D+00  0.0000000000000D+00
347  3.4600000000000D+00  0.0000000000000D+00  0.0000000000000D+00
348  3.4700000000000D+00  0.0000000000000D+00  0.0000000000000D+00
349  3.4800000000000D+00  0.0000000000000D+00  0.0000000000000D+00
350  3.4900000000000D+00  0.0000000000000D+00  0.0000000000000D+00
351  3.5000000000000D+00  0.0000000000000D+00  0.0000000000000D+00
352  3.5100000000000D+00  0.0000000000000D+00  0.0000000000000D+00
353  3.5200000000000D+00  0.0000000000000D+00  0.0000000000000D+00
354  3.5300000000000D+00  0.0000000000000D+00  0.0000000000000D+00
355  3.5400000000000D+00  0.0000000000000D+00  0.0000000000000D+00
356  3.5500000000000D+00  0.0000000000000D+00  0.0000000000000D+00
357  3.5600000000000D+00  0.0000000000000D+00  0.0000000000000D+00
358  3.5700000000000D+00  0.0000000000000D+00  0.0000000000000D+00
359  3.5800000000000D+00  0.0000000000000D+00  0.0000000000000D+00
360  3.5900000000000D+00  0.0000000000000D+00  0.0000000000000D+00
361  3.6000000000000D+00  0.0000000000000D+00  0.0000000000000D+00
362  3.6100000000000D+00  0.0000000000000D+00  0.0000000000000D+00
363  3.6200000000000D+00  0.0000000000000D+00  0.0000000000000D+00
364  3.6300000000000D+00  0.0000000000000D+00  0.0000000000000D+00
365  3.6400000000000D+00  0.0000000000000D+00  0.0000000000000D+00
366  3.6500000000000D+00  0.0000000000000D+00  0.0000000000000D+00
367  3.6600000000000D+00  0.0000000000000D+00  0.0000000000000D+00
368  3.6700000000000D+00  0.0000000000000D+00  0.0000000000000D+00
369  3.6800000000000D+00  0.0000000000000D+00  0.0000000000000D+00
370  3.6900000000000D+00  0.0000000000000D+00  0.0000000000000D+00
371  3.7000000000000D+00  0.0000000000000D+00  0.0000000000000D+00
372  3.7100000000000D+00  0.0000000000000D+00  0.0000000000000D+00
373  3.7200000000000D+00  0.0000000000000D+00  0.0000000000000D+00
374  3.7300000000000D+00  0.0000000000000D+00  0.0000000000000D+00
375  3.7400000000000D+00  0.0000000000000D+00  0.0000000000000D+00
376  3.7500000000000D+00  0.0000000000000D+00  0.0000000000000D+00
377  3.7600000000000D+00  0.0000000000000D+00  0.0000000000000D+00
378  3.7700000000000D+00  0.0000000000000D+00  0.0000000000000D+00
379  3.7800000000000D+00  0.0000000000000D+00  0.0000000000000D+00
380  3.7900000000000D+00  0.0000000000000D+00  0.0000000000000D+00
381  3.8000000000000D+00  0.0000000000000D+00  0.0000000000000D+00
382  3.8100000000000D+00  0.0000000000000D+00  0.0000000000000D+00
383  3.8200000000000D+00  0.0000000000000D+00  0.0000000000000D+00
384  3.8300000000000D+00  0.0000000000000D+00  0.0000000000000D+00
385  3.8400000000000D+00  0.0000000000000D+00  0.0000000000000D+00
386  3.8500000000000D+00  0.0000000000000D+00  0.0000000000000D+00
387  3.8600000000000D+00  0.0000000000000D+00  0.0000000000000D+00
388  3.8700000000000D+00  0.0000000000000D+00  0.0000000000000D+00
389  3.8800000000000D+00  0.0000000000000D+00  0.0000000000000D+00
390  3.8900000000000D+00  0.0000000000000D+00  0.0000000000000D+00
391  3.9000000000000D+00  0.0000000000000D+00  0.0000000000000D+00
392  3.9100000000000D+00  0.0000000000000D+00  0.0000000000000D+00
393  3.9200000000000D+00  0.0000000000000D+00  0.0000000000000D+00
394  3.9300000000000D+00  0.0000000000000D+00  0.0000000000000D+00
395  3.9400000000000D+00  0.0000000000000D+00  0.0000000000000D+00
396  3.9500000000000D+00  0.0000000000000D+00  0.0000000000000D+00
397  3.9600000000000D+00  0.0000000000000D+00  0.0000000000000D+00
398  3.9700000000000D+00  0.0000000000000D+00  0.0000000000000D+00
399  3.9800000000000D+00  0.0000000000000D+00  0.0000000000000D+00
400  3.9900000000000D+00  0.0000000000000D+00  0.0000000000000D+00
401  4.0000000000000D+00  0.0000000000000D+00  0.0000000000000D+00
402  4.0100000000000D+00  0.0000000000000D+00  0.0000000000000D+00
403  4.0200000000000D+00  0.0000000000000D+00  0.0000000000000D+00
404  4.0300000000000D+00  0.0000000000000D+00  0.0000000000000D+00
405  4.0400000000000D+00  0.0000000000000D+00  0.0000000000000D+00
406  4.0500000000000D+00  0.0000000000000D+00  0.0000000000000D+00
407  4.0600000000000D+00  0.0000000000000D+00  0.0000000000000D+00
408  4.0700000000000D+00  0.0000000000000D+00  0.0000000000000D+00
409  4.0800000000000D+00  0.0000000000000D+00  0.0000000000000D+00
410  4.0900000000000D+00  0.0000000000000D+00  0.0000000000000D+00
411  4.1000000000000D+00  0.0000000000000D+00  0.0000000000000D+00
412  4.1100000000000D+00  0.0000000000000D+00  0.0000000000000D+00
413  4.1200000000000D+00  0.0000000000000D+00  0.0000000000000D+00
414  4.1300000000000D+00  0.0000000000000D+00  0.0000000000000D+00
415  4.1400000000000D+00  0.0000000000000D+00  0.0000000000000D+00
416  4.1500000000000D+00  0.0000000000000D+00  0.0000000000000D+00
417  4.1600000000000D+00  0.0000000000000D+00  0.0000000000000D+00
418  4.1700000000000D+00  0.0000000000000D+00  0.0000000000000D+00
419  4.1800000000000D+00  0.0000000000000D+00  0.0000000000000D+00
420  4.1900000000000D+00  0.0000000000000D+00  0.0000000000000D+00
421  4.2000000000000D+00  0.0000000000000D+00  0.0000000000000D+00
422  4.2100000000000D+00  0.0000000000000D+00  0.0000000000000D+00
423  4.2200000000000D+00  0.0000000000000D+00  0.0000000000000D+00
424  4.2300000000000D+00  0.0000000000000D+00  0.0000000000000D+00
425  4.2400000000000D+00  0.0000000000000D+00  0.0000000000000D+00
426  4.2500000000000D+00  0.0000000000000D+00  0.0000000000000D+00
427  4.2600000000000D+00  0.0000000000000D+00  0.0000000000000D+00
428  4.2700000000000D+00  0.0000000000000D+00  0.0000000000000D+00
429  4.2800000000000D+00  0.0000000000000D+00  0.0000000000000D+00
430  4.2900000000000D+00  0.0000000000000D+00  0.0000000000000D+00
431  4.3000000000000D+00  0.0000000000000D+00  0.0000000000000D+00
432  4.3100000000000D+00  0.0000000000000D+00  0.0000000000000D+00
433  4.3200000000000D+00  0.0000000000000D+00  0.0000000000000D+00
434  4.3300000000000D+00  0.0000000000000D+00  0.0000000000000D+00
435  4.3400000000000D+00  0.0000000000000D+00  0.0000000000000D+00
436  4.3500000000000D+00  0.0000000000000D+00  0.0000000000000D+00
437  4.3600000000000D+00  0.0000000000000D+00  0.0000000000000D+00
438  4.3700000000000D+00  0.0000000000000D+00  0.0000000000000D+00
439  4.3800000000000D+00  0.0000000000000D+00  0.0000000000000D+00
440  4.3900000000000D+00  0.0000000000000D+00  0.0000000000000D+00
441  4.4000000000000D+00  0.0000000000000D+00  0.0000000000000D+00
442  4.4100000000000D+00  0.0000000000000D+00  0.0000000000000D+00
443  4.4200000000000D+00  0.0000000000000D+00  0.0000000000000D+00