Cs    ONCVPSP  r_core=  2.27  1.86  2.02  1.86
55.0000      9.0000      160330    zatom,zion,pspd
8      11   3     4   600     0    pspcod,pspxc,lmax,lloc,mmax,r2well
5.99000000  5.00000000  0.00000000    rchrg fchrg qchrg
2     3     4     3    nproj
3                 extension_switch
3     4     4    nprojso
0                         8.0927746160468D-01  6.4695759337137D+00
1  0.0000000000000D+00 -8.2265686233637D-12  3.5545733023667D-12
2  1.0000000000000D-02  2.4429481075995D-04  2.1993102206092D-02
3  2.0000000000000D-02  4.5468377288034D-04  4.3994768489721D-02
4  3.0000000000000D-02  5.9744516429175D-04  6.6013482723342D-02
5  4.0000000000000D-02  6.3922482721647D-04  8.8057568665939D-02
6  5.0000000000000D-02  5.4721823023390D-04  1.1013511064715D-01
7  6.0000000000000D-02  2.8935047204113D-04  1.3225387513792D-01
8  7.0000000000000D-02 -1.6554644958915D-04  1.5442123349904D-01
9  8.0000000000000D-02 -8.4755977192440D-04  1.7664408619533D-01
10  9.0000000000000D-02 -1.7855261624894D-03  1.9892878875890D-01
11  1.0000000000000D-01 -3.0068666211536D-03  2.2128107977950D-01
12  1.1000000000000D-01 -4.5374267206225D-03  2.4370601119394D-01
13  1.2000000000000D-01 -6.4013228006939D-03  2.6620788113944D-01
14  1.3000000000000D-01 -8.6207947134982D-03  2.8879016962816D-01
15  1.4000000000000D-01 -1.1216065696900D-02  3.1145547729141D-01
16  1.5000000000000D-01 -1.4205209931497D-02  3.3420546743257D-01
17  1.6000000000000D-01 -1.7604028312788D-02  3.5704081161782D-01
18  1.7000000000000D-01 -2.1425932944877D-02  3.7996113902273D-01
19  1.8000000000000D-01 -2.5681840834731D-02  4.0296498974110D-01
20  1.9000000000000D-01 -3.0380077237365D-02  4.2604977225023D-01
21  2.0000000000000D-01 -3.5526289071953D-02  4.4921172521394D-01
22  2.1000000000000D-01 -4.1123368796805D-02  4.7244588379073D-01
23  2.2000000000000D-01 -4.7171389098056D-02  4.9574605060076D-01
24  2.3000000000000D-01 -5.3667548711980D-02  5.1910477149012D-01
25  2.4000000000000D-01 -6.0606129664911D-02  5.4251331621612D-01
26  2.5000000000000D-01 -6.7978466177575D-02  5.6596166416104D-01
27  2.6000000000000D-01 -7.5772925442220D-02  5.8943849516612D-01
28  2.7000000000000D-01 -8.3974900441659D-02  6.1293118556065D-01
29  2.8000000000000D-01 -9.2566814938924D-02  6.3642580944428D-01
30  2.9000000000000D-01 -1.0152814072537D-01  6.5990714526337D-01
31  3.0000000000000D-01 -1.1083542717302D-01  6.8335868770478D-01
32  3.1000000000000D-01 -1.2046234309472D-01  7.0676266491266D-01
33  3.2000000000000D-01 -1.3037973087290D-01  7.3010006101625D-01
34  3.3000000000000D-01 -1.4055567277409D-01  7.5335064393832D-01
35  3.4000000000000D-01 -1.5095556932353D-01  7.7649299843621D-01
36  3.5000000000000D-01 -1.6154222957041D-01  7.9950456430934D-01
37  3.6000000000000D-01 -1.7227597303061D-01  8.2236167968902D-01
38  3.7000000000000D-01 -1.8311474305087D-01  8.4503962930847D-01
39  3.8000000000000D-01 -1.9401423129518D-01  8.6751269763366D-01
40  3.9000000000000D-01 -2.0492801301184D-01  8.8975422671766D-01
41  4.0000000000000D-01 -2.1580769269752D-01  9.1173667862425D-01
42  4.1000000000000D-01 -2.2660305973383D-01  9.3343170224989D-01
43  4.2000000000000D-01 -2.3726225353142D-01  9.5481020435617D-01
44  4.3000000000000D-01 -2.4773193767787D-01  9.7584242460964D-01
45  4.4000000000000D-01 -2.5795748254722D-01  9.9649801440971D-01
46  4.5000000000000D-01 -2.6788315579283D-01  1.0167461192710D+00
47  4.6000000000000D-01 -2.7745232011004D-01  1.0365554645120D+00
48  4.7000000000000D-01 -2.8660763762167D-01  1.0558944439879D+00
49  4.8000000000000D-01 -2.9529128020770D-01  1.0747312115939D+00
50  4.9000000000000D-01 -3.0344514507119D-01  1.0930337752516D+00
51  5.0000000000000D-01 -3.1101107480440D-01  1.1107700930807D+00
52  5.1000000000000D-01 -3.1793108119395D-01  1.1279081714483D+00
53  5.2000000000000D-01 -3.2414757198110D-01  1.1444161645777D+00
54  5.3000000000000D-01 -3.2960357977196D-01  1.1602624753912D+00
55  5.4000000000000D-01 -3.3424299227537D-01  1.1754158572519D+00
56  5.5000000000000D-01 -3.3801078302997D-01  1.1898455162676D+00
57  5.6000000000000D-01 -3.4085324177054D-01  1.2035212138082D+00
58  5.7000000000000D-01 -3.4271820357306D-01  1.2164133688907D+00
59  5.8000000000000D-01 -3.4355527591225D-01  1.2284931600763D+00
60  5.9000000000000D-01 -3.4331606276122D-01  1.2397326265289D+00
61  6.0000000000000D-01 -3.4195438486296D-01  1.2501047678778D+00
62  6.1000000000000D-01 -3.3942649530557D-01  1.2595836425317D+00
63  6.2000000000000D-01 -3.3569128954020D-01  1.2681444640920D+00
64  6.3000000000000D-01 -3.3071050898844D-01  1.2757636955158D+00
65  6.4000000000000D-01 -3.2444893740038D-01  1.2824191406842D+00
66  6.5000000000000D-01 -3.1687458913867D-01  1.2880900330372D+00
67  6.6000000000000D-01 -3.0795888858450D-01  1.2927571209420D+00
68  6.7000000000000D-01 -2.9767683988307D-01  1.2964027494720D+00
69  6.8000000000000D-01 -2.8600718627212D-01  1.2990109382797D+00
70  6.9000000000000D-01 -2.7293255826620D-01  1.3005674552617D+00
71  7.0000000000000D-01 -2.5843961000136D-01  1.3010598857206D+00
72  7.1000000000000D-01 -2.4251914307980D-01  1.3004776967466D+00
73  7.2000000000000D-01 -2.2516621729291D-01  1.2988122965509D+00
74  7.3000000000000D-01 -2.0638024764147D-01  1.2960570885020D+00
75  7.4000000000000D-01 -1.8616508711625D-01  1.2922075196291D+00
76  7.5000000000000D-01 -1.6452909474826D-01  1.2872611233762D+00
77  7.6000000000000D-01 -1.4148518848744D-01  1.2812175564069D+00
78  7.7000000000000D-01 -1.1705088251955D-01  1.2740786292806D+00
79  7.8000000000000D-01 -9.1248308685024D-02  1.2658483308373D+00
80  7.9000000000000D-01 -6.4104221718612D-02  1.2565328461546D+00
81  8.0000000000000D-01 -3.5649988086949D-02  1.2461405679543D+00
82  8.1000000000000D-01 -5.9215582594065D-03  1.2346821013649D+00
83  8.2000000000000D-01  2.5040577691384D-02  1.2221702619638D+00
84  8.3000000000000D-01  5.7191451201453D-02  1.2086200670484D+00
85  8.4000000000000D-01  9.0481693019178D-02  1.1940487201078D+00
86  8.5000000000000D-01  1.2485762761680D-01  1.1784755884907D+00
87  8.6000000000000D-01  1.6026138406180D-01  1.1619221742885D+00
88  8.7000000000000D-01  1.9663102313627D-01  1.1444120784774D+00
89  8.8000000000000D-01  2.3390068042798D-01  1.1259709583859D+00
90  8.9000000000000D-01  2.7200072505339D-01  1.1066264785798D+00
91  9.0000000000000D-01  3.1085793360937D-01  1.0864082552794D+00
92  9.1000000000000D-01  3.5039567888810D-01  1.0653477944470D+00
93  9.2000000000000D-01  3.9053413282789D-01  1.0434784237077D+00
94  9.3000000000000D-01  4.3119048311333D-01  1.0208352182877D+00
95  9.4000000000000D-01  4.7227916277874D-01  9.9745492117624D-01
96  9.5000000000000D-01  5.1371209211354D-01  9.7337585774205D-01
97  9.6000000000000D-01  5.5539893211238D-01  9.4863784505209D-01
98  9.7000000000000D-01  5.9724734866217D-01  9.2328209616394D-01
99  9.8000000000000D-01  6.3916328660750D-01  8.9735111968081D-01
100  9.9000000000000D-01  6.8105125278999D-01  8.7088861487740D-01
101  1.0000000000000D+00  7.2281460711333D-01  8.4393936272172D-01
102  1.0100000000000D+00  7.6435586064572D-01  8.1654911313484D-01
103  1.0200000000000D+00  8.0557697973433D-01  7.8876446884517D-01
104  1.0300000000000D+00  8.4637969507307D-01  7.6063276620850D-01
105  1.0400000000000D+00  8.8666581463729D-01  7.3220195337652D-01
106  1.0500000000000D+00  9.2633753937145D-01  7.0352046620900D-01
107  1.0600000000000D+00  9.6529778049622D-01  6.7463710233399D-01
108  1.0700000000000D+00  1.0034504772846D+00  6.4560089376890D-01
109  1.0800000000000D+00  1.0407009141438D+00  6.1646097852214D-01
110  1.0900000000000D+00  1.0769560358327D+00  5.8726647160035D-01
111  1.1000000000000D+00  1.1121247596396D+00  5.5806633585030D-01
112  1.1100000000000D+00  1.1461182833474D+00  5.2890925306639D-01
113  1.1200000000000D+00  1.1788503878214D+00  4.9984349579527D-01
114  1.1300000000000D+00  1.2102377330609D+00  4.7091680026819D-01
115  1.1400000000000D+00  1.2402001465744D+00  4.4217624088923D-01
116  1.1500000000000D+00  1.2686609029575D+00  4.1366810670307D-01
117  1.1600000000000D+00  1.2955469935778D+00  3.8543778025953D-01
118  1.1700000000000D+00  1.3207893852990D+00  3.5752961928574D-01
119  1.1800000000000D+00  1.3443232672074D+00  3.2998684156779D-01
120  1.1900000000000D+00  1.3660882843461D+00  3.0285141343226D-01
121  1.2000000000000D+00  1.3860287575104D+00  2.7616394220434D-01
122  1.2100000000000D+00  1.4040938881789D+00  2.4996357301255D-01
123  1.2200000000000D+00  1.4202379477340D+00  2.2428789028742D-01
124  1.2300000000000D+00  1.4344204501695D+00  1.9917282428712D-01
125  1.2400000000000D+00  1.4466063075268D+00  1.7465256297030D-01
126  1.2500000000000D+00  1.4567659673704D+00  1.5075946951479D-01
127  1.2600000000000D+00  1.4648755316936D+00  1.2752400575581D-01
128  1.2700000000000D+00  1.4709168566815D+00  1.0497466180513D-01
129  1.2800000000000D+00  1.4748776328310D+00  8.3137892091223D-02
130  1.2900000000000D+00  1.4767514450353D+00  6.2038058023882D-02
131  1.3000000000000D+00  1.4765378122630D+00  4.1697377480483D-02
132  1.3100000000000D+00  1.4742422065449D+00  2.2135881284555D-02
133  1.3200000000000D+00  1.4698760511128D+00  3.3713768029175D-03
134  1.3300000000000D+00  1.4634566975206D+00 -1.4580581206500D-02
135  1.3400000000000D+00  1.4550073817048D+00 -3.1706712406820D-02
136  1.3500000000000D+00  1.4445571590701D+00 -4.7996025307469D-02
137  1.3600000000000D+00  1.4321408186097D+00 -6.3439824231162D-02
138  1.3700000000000D+00  1.4177987763167D+00 -7.8031708833075D-02
139  1.3800000000000D+00  1.4015769481435D+00 -9.1767566184671D-02
140  1.3900000000000D+00  1.3835266027574D+00 -1.0464555543061D-01
141  1.4000000000000D+00  1.3637041946188D+00 -1.1666608512365D-01
142  1.4100000000000D+00  1.3421711777521D+00 -1.2783178328844D-01
143  1.4200000000000D+00  1.3189938007887D+00 -1.3814746033821D-01
144  1.4300000000000D+00  1.2942428839463D+00 -1.4762006499891D-01
145  1.4400000000000D+00  1.2679935784842D+00 -1.5625863335076D-01
146  1.4500000000000D+00  1.2403251095320D+00 -1.6407423122689D-01
147  1.4600000000000D+00  1.2113205029402D+00 -1.7107989011801D-01
148  1.4700000000000D+00  1.1810662970797D+00 -1.7729053683421D-01
149  1.4800000000000D+00  1.1496522404755D+00 -1.8272291716314D-01
150  1.4900000000000D+00  1.1171709761491D+00 -1.8739551375401D-01
151  1.5000000000000D+00  1.0837177137744D+00 -1.9132845855509D-01
152  1.5100000000000D+00  1.0493898905085D+00 -1.9454344002759D-01
153  1.5200000000000D+00  1.0142868217012D+00 -1.9706360550575D-01
154  1.5300000000000D+00  9.7850934243951D-01 -1.9891345896695D-01
155  1.5400000000000D+00  9.4215944110797D-01 -2.0011875457329D-01
156  1.5500000000000D+00  9.0533988603554D-01 -2.0070638630356D-01
157  1.5600000000000D+00  8.6815384638838D-01 -2.0070427402538D-01
158  1.5700000000000D+00  8.3070450842117D-01 -2.0014124636108D-01
159  1.5800000000000D+00  7.9309468826572D-01 -1.9904692069718D-01
160  1.5900000000000D+00  7.5542644232725D-01 -1.9745158069975D-01
161  1.6000000000000D+00  7.1780067652677D-01 -1.9538605169883D-01
162  1.6100000000000D+00  6.8031675534762D-01 -1.9288157428814D-01
163  1.6200000000000D+00  6.4307211199113D-01 -1.8996967652453D-01
164  1.6300000000000D+00  6.0616186046936D-01 -1.8668204504325D-01
165  1.6400000000000D+00  5.6967841095861D-01 -1.8305039548857D-01
166  1.6500000000000D+00  5.3371108912945D-01 -1.7910634254416D-01
167  1.6600000000000D+00  4.9834576074828D-01 -1.7488126996607D-01
168  1.6700000000000D+00  4.6366446215062D-01 -1.7040620086950D-01
169  1.6800000000000D+00  4.2974503783251D-01 -1.6571166866767D-01
170  1.6900000000000D+00  3.9666078562072D-01 -1.6082758887454D-01
171  1.7000000000000D+00  3.6448011062247D-01 -1.5578313216388D-01
172  1.7100000000000D+00  3.3326618628129D-01 -1.5060659846424D-01
173  1.7200000000000D+00  3.0307663178575D-01 -1.4532529405551D-01
174  1.7300000000000D+00  2.7396319288570D-01 -1.3996540908391D-01
175  1.7400000000000D+00  2.4597141829217D-01 -1.3455189461438D-01
176  1.7500000000000D+00  2.1914051791746D-01 -1.2910837618427D-01
177  1.7600000000000D+00  1.9350281639008D-01 -1.2365698403859D-01
178  1.7700000000000D+00  1.6908324615253D-01 -1.1821819958461D-01
179  1.7800000000000D+00  1.4590031813113D-01 -1.1281098361963D-01
180  1.7900000000000D+00  1.2396665494624D-01 -1.0745281748442D-01
181  1.8000000000000D+00  1.0328967404074D-01 -1.0215981716949D-01
182  1.8100000000000D+00  8.3872825298901D-02 -9.6946948738358D-02
183  1.8200000000000D+00  6.5715352829568D-02 -9.1827966662204D-02
184  1.8300000000000D+00  4.8812153880847D-02 -8.6815381223020D-02
185  1.8400000000000D+00  3.3153984716256D-02 -8.1920486807218D-02
186  1.8500000000000D+00  1.8727567683039D-02 -7.7153374450714D-02
187  1.8600000000000D+00  5.5156891499102D-03 -7.2522945262115D-02
188  1.8700000000000D+00 -6.5026569475246D-03 -6.8036933870372D-02
189  1.8800000000000D+00 -1.7352128059994D-02 -6.3701933204624D-02
190  1.8900000000000D+00 -2.7060874992535D-02 -5.9523424191286D-02
191  1.9000000000000D+00 -3.5660372011037D-02 -5.5505809262041D-02
192  1.9100000000000D+00 -4.3185234730807D-02 -5.1652449814033D-02
193  1.9200000000000D+00 -4.9673027778367D-02 -4.7965707023010D-02
194  1.9300000000000D+00 -5.5164061733683D-02 -4.4446986185763D-02
195  1.9400000000000D+00 -5.9701181239473D-02 -4.1096784030086D-02
196  1.9500000000000D+00 -6.3329544415491D-02 -3.7914738971653D-02
197  1.9600000000000D+00 -6.6096394731687D-02 -3.4899683982678D-02
198  1.9700000000000D+00 -6.8050826385114D-02 -3.2049701771359D-02
199  1.9800000000000D+00 -6.9243543637214D-02 -2.9362182154587D-02
200  1.9900000000000D+00 -6.9726615745807D-02 -2.6833881134955D-02
201  2.0000000000000D+00 -6.9553227758302D-02 -2.4460981631487D-02
202  2.0100000000000D+00 -6.8777428693165D-02 -2.2239155400731D-02
203  2.0200000000000D+00 -6.7453877838689D-02 -2.0163625955154D-02
204  2.0300000000000D+00 -6.5637590217495D-02 -1.8229232170410D-02
205  2.0400000000000D+00 -6.3383682239742D-02 -1.6430492279961D-02
206  2.0500000000000D+00 -6.0747118659671D-02 -1.4761667950521D-02
207  2.0600000000000D+00 -5.7782461490234D-02 -1.3216828226118D-02
208  2.0700000000000D+00 -5.4543622417965D-02 -1.1789912915077D-02
209  2.0800000000000D+00 -5.1083619177043D-02 -1.0474795270889D-02
210  2.0900000000000D+00 -4.7454336997809D-02 -9.2653436456341D-03
211  2.1000000000000D+00 -4.3706296572102D-02 -8.1554817039519D-03
212  2.1100000000000D+00 -3.9888428264545D-02 -7.1392472596093D-03
213  2.1200000000000D+00 -3.6047855073578D-02 -6.2108490206800D-03
214  2.1300000000000D+00 -3.2229683617866D-02 -5.3647214362310D-03
215  2.1400000000000D+00 -2.8476804661354D-02 -4.5955772104801D-03
216  2.1500000000000D+00 -2.4829705061466D-02 -3.8984569441307D-03
217  2.1600000000000D+00 -2.1326290568478D-02 -3.2687760813993D-03
218  2.1700000000000D+00 -1.8001719463852D-02 -2.7023690760677D-03
219  2.1800000000000D+00 -1.4888248316156D-02 -2.1955304702544D-03
220  2.1900000000000D+00 -1.2015089287219D-02 -1.7450530129937D-03
221  2.2000000000000D+00 -9.4101335712060D-03 -1.3485151785785D-03
222  2.2100000000000D+00 -7.0933587965819D-03 -1.0034175893363D-03
223  2.2200000000000D+00 -5.0813200330893D-03 -7.0784535966712D-04
224  2.2300000000000D+00 -3.3805556612919D-03 -4.5996963137125D-04
225  2.2400000000000D+00 -2.0338752160251D-03 -2.6286723063769D-04
226  2.2500000000000D+00 -1.0653834624831D-03 -1.1819254790481D-04
227  2.2600000000000D+00 -4.6060577285987D-04 -2.4913477657881D-05
228  2.2700000000000D+00 -1.3751386822512D-04  2.2935279601788D-05
229  2.2800000000000D+00 -3.0881576381926D-06  3.2870114550748D-05
230  2.2900000000000D+00  2.2519535474042D-05  1.9998387720814D-05
231  2.3000000000000D+00  2.1270096111581D-06  1.3492378093763D-06
232  2.3100000000000D+00 -1.0960672666282D-05 -5.9625692515612D-06
233  2.3200000000000D+00 -9.3384418619926D-06 -4.5944527231096D-06
234  2.3300000000000D+00  3.5835267088288D-07  2.7577841609642D-07
235  2.3400000000000D+00  1.7931203562997D-06  1.2609860376311D-06
236  2.3500000000000D+00  1.1821069376032D-06  7.7882392800097D-07
237  2.3600000000000D+00  9.4621500496117D-08 -3.8884339536402D-08
238  2.3700000000000D+00  2.1090367478449D-07 -8.6670049162154D-08
239  2.3800000000000D+00  9.8286458084884D-08 -4.0390439677712D-08
240  2.3900000000000D+00  0.0000000000000D+00  0.0000000000000D+00
241  2.4000000000000D+00  0.0000000000000D+00  0.0000000000000D+00
242  2.4100000000000D+00  0.0000000000000D+00  0.0000000000000D+00
243  2.4200000000000D+00  0.0000000000000D+00  0.0000000000000D+00
244  2.4300000000000D+00  0.0000000000000D+00  0.0000000000000D+00
245  2.4400000000000D+00  0.0000000000000D+00  0.0000000000000D+00
246  2.4500000000000D+00  0.0000000000000D+00  0.0000000000000D+00
247  2.4600000000000D+00  0.0000000000000D+00  0.0000000000000D+00
248  2.4700000000000D+00  0.0000000000000D+00  0.0000000000000D+00
249  2.4800000000000D+00  0.0000000000000D+00  0.0000000000000D+00
250  2.4900000000000D+00  0.0000000000000D+00  0.0000000000000D+00
251  2.5000000000000D+00  0.0000000000000D+00  0.0000000000000D+00
252  2.5100000000000D+00  0.0000000000000D+00  0.0000000000000D+00
253  2.5200000000000D+00  0.0000000000000D+00  0.0000000000000D+00
254  2.5300000000000D+00  0.0000000000000D+00  0.0000000000000D+00
255  2.5400000000000D+00  0.0000000000000D+00  0.0000000000000D+00
256  2.5500000000000D+00  0.0000000000000D+00  0.0000000000000D+00
257  2.5600000000000D+00  0.0000000000000D+00  0.0000000000000D+00
258  2.5700000000000D+00  0.0000000000000D+00  0.0000000000000D+00
259  2.5800000000000D+00  0.0000000000000D+00  0.0000000000000D+00
260  2.5900000000000D+00  0.0000000000000D+00  0.0000000000000D+00
261  2.6000000000000D+00  0.0000000000000D+00  0.0000000000000D+00
262  2.6100000000000D+00  0.0000000000000D+00  0.0000000000000D+00
263  2.6200000000000D+00  0.0000000000000D+00  0.0000000000000D+00
264  2.6300000000000D+00  0.0000000000000D+00  0.0000000000000D+00
265  2.6400000000000D+00  0.0000000000000D+00  0.0000000000000D+00
266  2.6500000000000D+00  0.0000000000000D+00  0.0000000000000D+00
267  2.6600000000000D+00  0.0000000000000D+00  0.0000000000000D+00
268  2.6700000000000D+00  0.0000000000000D+00  0.0000000000000D+00
269  2.6800000000000D+00  0.0000000000000D+00  0.0000000000000D+00
270  2.6900000000000D+00  0.0000000000000D+00  0.0000000000000D+00
271  2.7000000000000D+00  0.0000000000000D+00  0.0000000000000D+00
272  2.7100000000000D+00  0.0000000000000D+00  0.0000000000000D+00
273  2.7200000000000D+00  0.0000000000000D+00  0.0000000000000D+00
274  2.7300000000000D+00  0.0000000000000D+00  0.0000000000000D+00
275  2.7400000000000D+00  0.0000000000000D+00  0.0000000000000D+00
276  2.7500000000000D+00  0.0000000000000D+00  0.0000000000000D+00
277  2.7600000000000D+00  0.0000000000000D+00  0.0000000000000D+00
278  2.7700000000000D+00  0.0000000000000D+00  0.0000000000000D+00
279  2.7800000000000D+00  0.0000000000000D+00  0.0000000000000D+00
280  2.7900000000000D+00  0.0000000000000D+00  0.0000000000000D+00
281  2.8000000000000D+00  0.0000000000000D+00  0.0000000000000D+00
282  2.8100000000000D+00  0.0000000000000D+00  0.0000000000000D+00
283  2.8200000000000D+00  0.0000000000000D+00  0.0000000000000D+00
284  2.8300000000000D+00  0.0000000000000D+00  0.0000000000000D+00
285  2.8400000000000D+00  0.0000000000000D+00  0.0000000000000D+00
286  2.8500000000000D+00  0.0000000000000D+00  0.0000000000000D+00
287  2.8600000000000D+00  0.0000000000000D+00  0.0000000000000D+00
288  2.8700000000000D+00  0.0000000000000D+00  0.0000000000000D+00
289  2.8800000000000D+00  0.0000000000000D+00  0.0000000000000D+00
290  2.8900000000000D+00  0.0000000000000D+00  0.0000000000000D+00
291  2.9000000000000D+00  0.0000000000000D+00  0.0000000000000D+00
292  2.9100000000000D+00  0.0000000000000D+00  0.0000000000000D+00
293  2.9200000000000D+00  0.0000000000000D+00  0.0000000000000D+00
294  2.9300000000000D+00  0.0000000000000D+00  0.0000000000000D+00
295  2.9400000000000D+00  0.0000000000000D+00  0.0000000000000D+00
296  2.9500000000000D+00  0.0000000000000D+00  0.0000000000000D+00
297  2.9600000000000D+00  0.0000000000000D+00  0.0000000000000D+00
298  2.9700000000000D+00  0.0000000000000D+00  0.0000000000000D+00
299  2.9800000000000D+00  0.0000000000000D+00  0.0000000000000D+00
300  2.9900000000000D+00  0.0000000000000D+00  0.0000000000000D+00
301  3.0000000000000D+00  0.0000000000000D+00  0.0000000000000D+00
302  3.0100000000000D+00  0.0000000000000D+00  0.0000000000000D+00
303  3.0200000000000D+00  0.0000000000000D+00  0.0000000000000D+00
304  3.0300000000000D+00  0.0000000000000D+00  0.0000000000000D+00
305  3.0400000000000D+00  0.0000000000000D+00  0.0000000000000D+00
306  3.0500000000000D+00  0.0000000000000D+00  0.0000000000000D+00
307  3.0600000000000D+00  0.0000000000000D+00  0.0000000000000D+00
308  3.0700000000000D+00  0.0000000000000D+00  0.0000000000000D+00
309  3.0800000000000D+00  0.0000000000000D+00  0.0000000000000D+00
310  3.0900000000000D+00  0.0000000000000D+00  0.0000000000000D+00
311  3.1000000000000D+00  0.0000000000000D+00  0.0000000000000D+00
312  3.1100000000000D+00  0.0000000000000D+00  0.0000000000000D+00
313  3.1200000000000D+00  0.0000000000000D+00  0.0000000000000D+00
314  3.1300000000000D+00  0.0000000000000D+00  0.0000000000000D+00
315  3.1400000000000D+00  0.0000000000000D+00  0.0000000000000D+00
316  3.1500000000000D+00  0.0000000000000D+00  0.0000000000000D+00
317  3.1600000000000D+00  0.0000000000000D+00  0.0000000000000D+00
318  3.1700000000000D+00  0.0000000000000D+00  0.0000000000000D+00
319  3.1800000000000D+00  0.0000000000000D+00  0.0000000000000D+00
320  3.1900000000000D+00  0.0000000000000D+00  0.0000000000000D+00
321  3.2000000000000D+00  0.0000000000000D+00  0.0000000000000D+00
322  3.2100000000000D+00  0.0000000000000D+00  0.0000000000000D+00
323  3.2200000000000D+00  0.0000000000000D+00  0.0000000000000D+00
324  3.2300000000000D+00  0.0000000000000D+00  0.0000000000000D+00
325  3.2400000000000D+00  0.0000000000000D+00  0.0000000000000D+00
326  3.2500000000000D+00  0.0000000000000D+00  0.0000000000000D+00
327  3.2600000000000D+00  0.0000000000000D+00  0.0000000000000D+00
328  3.2700000000000D+00  0.0000000000000D+00  0.0000000000000D+00
329  3.2800000000000D+00  0.0000000000000D+00  0.0000000000000D+00
330  3.2900000000000D+00  0.0000000000000D+00  0.0000000000000D+00
331  3.3000000000000D+00  0.0000000000000D+00  0.0000000000000D+00
332  3.3100000000000D+00  0.0000000000000D+00  0.0000000000000D+00
333  3.3200000000000D+00  0.0000000000000D+00  0.0000000000000D+00
334  3.3300000000000D+00  0.0000000000000D+00  0.0000000000000D+00
335  3.3400000000000D+00  0.0000000000000D+00  0.0000000000000D+00
336  3.3500000000000D+00  0.0000000000000D+00  0.0000000000000D+00
337  3.3600000000000D+00  0.0000000000000D+00  0.0000000000000D+00
338  3.3700000000000D+00  0.0000000000000D+00  0.0000000000000D+00
339  3.3800000000000D+00  0.0000000000000D+00  0.0000000000000D+00
340  3.3900000000000D+00  0.0000000000000D+00  0.0000000000000D+00
341  3.4000000000000D+00  0.0000000000000D+00  0.0000000000000D+00
342  3.4100000000000D+00  0.0000000000000D+00  0.0000000000000D+00
343  3.4200000000000D+00  0.0000000000000D+00  0.0000000000000D+00
344  3.4300000000000D+00  0.0000000000000D+00  0.0000000000000D+00
345  3.4400000000000D+00  0.0000000000000D+00  0.0000000000000D+00
346  3.4500000000000D+00  0.0000000000000D+00  0.0000000000000D+00
347  3.4600000000000D+00  0.0000000000000D+00  0.0000000000000D+00
348  3.4700000000000D+00  0.0000000000000D+00  0.0000000000000D+00
349  3.4800000000000D+00  0.0000000000000D+00  0.0000000000000D+00
350  3.4900000000000D+00  0.0000000000000D+00  0.0000000000000D+00
351  3.5000000000000D+00  0.0000000000000D+00  0.0000000000000D+00
352  3.5100000000000D+00  0.0000000000000D+00  0.0000000000000D+00
353  3.5200000000000D+00  0.0000000000000D+00  0.0000000000000D+00
354  3.5300000000000D+00  0.0000000000000D+00  0.0000000000000D+00
355  3.5400000000000D+00  0.0000000000000D+00  0.0000000000000D+00
356  3.5500000000000D+00  0.0000000000000D+00  0.0000000000000D+00
357  3.5600000000000D+00  0.0000000000000D+00  0.0000000000000D+00
358  3.5700000000000D+00  0.0000000000000D+00  0.0000000000000D+00
359  3.5800000000000D+00  0.0000000000000D+00  0.0000000000000D+00
360  3.5900000000000D+00  0.0000000000000D+00  0.0000000000000D+00
361  3.6000000000000D+00  0.0000000000000D+00  0.0000000000000D+00
362  3.6100000000000D+00  0.0000000000000D+00  0.0000000000000D+00
363  3.6200000000000D+00  0.0000000000000D+00  0.0000000000000D+00
364  3.6300000000000D+00  0.0000000000000D+00  0.0000000000000D+00
365  3.6400000000000D+00  0.0000000000000D+00  0.0000000000000D+00
366  3.6500000000000D+00  0.0000000000000D+00  0.0000000000000D+00
367  3.6600000000000D+00  0.0000000000000D+00  0.0000000000000D+00
368  3.6700000000000D+00  0.0000000000000D+00  0.0000000000000D+00
369  3.6800000000000D+00  0.0000000000000D+00  0.0000000000000D+00
370  3.6900000000000D+00  0.0000000000000D+00  0.0000000000000D+00
371  3.7000000000000D+00  0.0000000000000D+00  0.0000000000000D+00
372  3.7100000000000D+00  0.0000000000000D+00  0.0000000000000D+00
373  3.7200000000000D+00  0.0000000000000D+00  0.0000000000000D+00
374  3.7300000000000D+00  0.0000000000000D+00  0.0000000000000D+00
375  3.7400000000000D+00  0.0000000000000D+00  0.0000000000000D+00
376  3.7500000000000D+00  0.0000000000000D+00  0.0000000000000D+00
377  3.7600000000000D+00  0.0000000000000D+00  0.0000000000000D+00
378  3.7700000000000D+00  0.0000000000000D+00  0.0000000000000D+00
379  3.7800000000000D+00  0.0000000000000D+00  0.0000000000000D+00
380  3.7900000000000D+00  0.0000000000000D+00  0.0000000000000D+00
381  3.8000000000000D+00  0.0000000000000D+00  0.0000000000000D+00
382  3.8100000000000D+00  0.0000000000000D+00  0.0000000000000D+00
383  3.8200000000000D+00  0.0000000000000D+00  0.0000000000000D+00
384  3.8300000000000D+00  0.0000000000000D+00  0.0000000000000D+00
385  3.8400000000000D+00  0.0000000000000D+00  0.0000000000000D+00
386  3.8500000000000D+00  0.0000000000000D+00  0.0000000000000D+00
387  3.8600000000000D+00  0.0000000000000D+00  0.0000000000000D+00
388  3.8700000000000D+00  0.0000000000000D+00  0.0000000000000D+00
389  3.8800000000000D+00  0.0000000000000D+00  0.0000000000000D+00
390  3.8900000000000D+00  0.0000000000000D+00  0.0000000000000D+00
391  3.9000000000000D+00  0.0000000000000D+00  0.0000000000000D+00
392  3.9100000000000D+00  0.0000000000000D+00  0.0000000000000D+00
393  3.9200000000000D+00  0.0000000000000D+00  0.0000000000000D+00
394  3.9300000000000D+00  0.0000000000000D+00  0.0000000000000D+00
395  3.9400000000000D+00  0.0000000000000D+00  0.0000000000000D+00
396  3.9500000000000D+00  0.0000000000000D+00  0.0000000000000D+00
397  3.9600000000000D+00  0.0000000000000D+00  0.0000000000000D+00
398  3.9700000000000D+00  0.0000000000000D+00  0.0000000000000D+00
399  3.9800000000000D+00  0.0000000000000D+00  0.0000000000000D+00
400  3.9900000000000D+00  0.0000000000000D+00  0.0000000000000D+00
401  4.0000000000000D+00  0.0000000000000D+00  0.0000000000000D+00
402  4.0100000000000D+00  0.0000000000000D+00  0.0000000000000D+00
403  4.0200000000000D+00  0.0000000000000D+00  0.0000000000000D+00
404  4.0300000000000D+00  0.0000000000000D+00  0.0000000000000D+00
405  4.0400000000000D+00  0.0000000000000D+00  0.0000000000000D+00
406  4.0500000000000D+00  0.0000000000000D+00  0.0000000000000D+00
407  4.0600000000000D+00  0.0000000000000D+00  0.0000000000000D+00
408  4.0700000000000D+00  0.0000000000000D+00  0.0000000000000D+00
409  4.0800000000000D+00  0.0000000000000D+00  0.0000000000000D+00
410  4.0900000000000D+00  0.0000000000000D+00  0.0000000000000D+00
411  4.1000000000000D+00  0.0000000000000D+00  0.0000000000000D+00
412  4.1100000000000D+00  0.0000000000000D+00  0.0000000000000D+00
413  4.1200000000000D+00  0.0000000000000D+00  0.0000000000000D+00
414  4.1300000000000D+00  0.0000000000000D+00  0.0000000000000D+00
415  4.1400000000000D+00  0.0000000000000D+00  0.0000000000000D+00
416  4.1500000000000D+00  0.0000000000000D+00  0.0000000000000D+00
417  4.1600000000000D+00  0.0000000000000D+00  0.0000000000000D+00
418  4.1700000000000D+00  0.0000000000000D+00  0.0000000000000D+00
419  4.1800000000000D+00  0.0000000000000D+00  0.0000000000000D+00
420  4.1900000000000D+00  0.0000000000000D+00  0.0000000000000D+00
421  4.2000000000000D+00  0.0000000000000D+00  0.0000000000000D+00
422  4.2100000000000D+00  0.0000000000000D+00  0.0000000000000D+00
423  4.2200000000000D+00  0.0000000000000D+00  0.0000000000000D+00
424  4.2300000000000D+00  0.0000000000000D+00  0.0000000000000D+00
425  4.2400000000000D+00  0.0000000000000D+00  0.0000000000000D+00
426  4.2500000000000D+00  0.0000000000000D+00  0.0000000000000D+00
427  4.2600000000000D+00  0.0000000000000D+00  0.0000000000000D+00
428  4.2700000000000D+00  0.0000000000000D+00  0.0000000000000D+00
429  4.2800000000000D+00  0.0000000000000D+00  0.0000000000000D+00
430  4.2900000000000D+00  0.0000000000000D+00  0.0000000000000D+00
431  4.3000000000000D+00  0.0000000000000D+00  0.0000000000000D+00
432  4.3100000000000D+00  0.0000000000000D+00  0.0000000000000D+00
433  4.3200000000000D+00  0.0000000000000D+00  0.0000000000000D+00
434  4.3300000000000D+00  0.0000000000000D+00  0.0000000000000D+00
435  4.3400000000000D+00  0.0000000000000D+00  0.0000000000000D+00
436  4.3500000000000D+00  0.0000000000000D+00  0.0000000000000D+00
437  4.3600000000000D+00  0.0000000000000D+00  0.0000000000000D+00
438  4.3700000000000D+00  0.0000000000000D+00  0.0000000000000D+00
439  4.3800000000000D+00  0.0000000000000D+00  0.0000000000000D+00
440  4.3900000000000D+00  0.0000000000000D+00  0.0000000000000D+00
441  4.4000000000000D+00  0.0000000000000D+00  0.0000000000000D+00
442  4.4100000000000D+00  0.0000000000000D+00  0.0000000000000D+00
443  4.4200000000000D+00  0.0000000000000D+00  0.0000000000000D+00