Sb    ONCVPSP  r_core=  2.51  2.15  2.60
51.0000      5.0000      160324    zatom,zion,pspd
8   -1013   2     4   600     0    pspcod,pspxc,lmax,lloc,mmax,r2well
5.99000000  7.00000000  0.00000000    rchrg fchrg qchrg
2     2     2     0     0    nproj
1                 extension_switch
0                         4.5940343493203D+00  5.1072830474294D-01
1  0.0000000000000D+00  1.0462519739463D-11 -4.5200438877901D-11
2  1.0000000000000D-02  1.9623064119697D-02 -9.1247508092314D-04
3  2.0000000000000D-02  3.9251313280985D-02 -1.8598818979784D-03
4  3.0000000000000D-02  5.8889862730701D-02 -2.8768885687520D-03
5  4.0000000000000D-02  7.8543688548425D-02 -3.9976377078868D-03
6  5.0000000000000D-02  9.8217559115819D-02 -5.2554879994678D-03
7  6.0000000000000D-02  1.1791596784208D-01 -6.6827609259463D-03
8  7.0000000000000D-02  1.3764306755193D-01 -8.3104943191423D-03
9  8.0000000000000D-02  1.5740260693194D-01 -1.0168204353664D-02
10  9.0000000000000D-02  1.7719786941826D-01 -1.2283657547120D-02
11  1.0000000000000D-01  1.9703161489323D-01 -1.4682654265140D-02
12  1.1000000000000D-01  2.1690602454078D-01 -1.7388825152982D-02
13  1.2000000000000D-01  2.3682264919077D-01 -2.0423441829742D-02
14  1.3000000000000D-01  2.5678236146013D-01 -2.3805243086698D-02
15  1.4000000000000D-01  2.7678531197530D-01 -2.7550277728390D-02
16  1.5000000000000D-01  2.9683088993442D-01 -3.1671765084805D-02
17  1.6000000000000D-01  3.1691768824082D-01 -3.6179974105702D-02
18  1.7000000000000D-01  3.3704347341035D-01 -4.1082121824981D-02
19  1.8000000000000D-01  3.5720516042568D-01 -4.6382291854407D-02
20  1.9000000000000D-01  3.7739879267929D-01 -5.2081373433196D-02
21  2.0000000000000D-01  3.9761952711539D-01 -5.8177021423564D-02
22  2.1000000000000D-01  4.1786162464855D-01 -6.4663637503372D-02
23  2.2000000000000D-01  4.3811844590374D-01 -7.1532372666344D-02
24  2.3000000000000D-01  4.5838245228982D-01 -7.8771150998964D-02
25  2.4000000000000D-01  4.7864521238511D-01 -8.6364714561993D-02
26  2.5000000000000D-01  4.9889741358081D-01 -9.4294689064404D-02
27  2.6000000000000D-01  5.1912887889602D-01 -1.0253966987982D-01
28  2.7000000000000D-01  5.3932858884569D-01 -1.1107532782024D-01
29  2.8000000000000D-01  5.5948470821247D-01 -1.1987453395112D-01
30  2.9000000000000D-01  5.7958461754305D-01 -1.2890750260544D-01
31  3.0000000000000D-01  5.9961494916125D-01 -1.3814195163379D-01
32  3.1000000000000D-01  6.1956162746271D-01 -1.4754327881334D-01
33  3.2000000000000D-01  6.3940991323029D-01 -1.5707475323154D-01
34  3.3000000000000D-01  6.5914445168572D-01 -1.6669772036163D-01
35  3.4000000000000D-01  6.7874932397066D-01 -1.7637181945609D-01
36  3.5000000000000D-01  6.9820810173081D-01 -1.8605521180366D-01
37  3.6000000000000D-01  7.1750390445885D-01 -1.9570481832361D-01
38  3.7000000000000D-01  7.3661945923647D-01 -2.0527656491012D-01
39  3.8000000000000D-01  7.5553716250298D-01 -2.1472563388907D-01
40  3.9000000000000D-01  7.7423914346746D-01 -2.2400671991034D-01
41  4.0000000000000D-01  7.9270732877320D-01 -2.3307428857052D-01
42  4.1000000000000D-01  8.1092350801833D-01 -2.4188283604447D-01
43  4.2000000000000D-01  8.2886939973327D-01 -2.5038714799948D-01
44  4.3000000000000D-01  8.4652671741617D-01 -2.5854255607253D-01
45  4.4000000000000D-01  8.6387723522959D-01 -2.6630519020977D-01
46  4.5000000000000D-01  8.8090285296737D-01 -2.7363222519757D-01
47  4.6000000000000D-01  8.9758565990813D-01 -2.8048211975601D-01
48  4.7000000000000D-01  9.1390799718251D-01 -2.8681484661830D-01
49  4.8000000000000D-01  9.2985251829379D-01 -2.9259211208328D-01
50  4.9000000000000D-01  9.4540224744719D-01 -2.9777756360210D-01
51  5.0000000000000D-01  9.6054063536015D-01 -3.0233698404347D-01
52  5.1000000000000D-01  9.7525161224599D-01 -3.0623847137580D-01
53  5.2000000000000D-01  9.8951963768482D-01 -3.0945260260593D-01
54  5.3000000000000D-01  1.0033297471190D+00 -3.1195258092404D-01
55  5.4000000000000D-01  1.0166675947362D+00 -3.1371436512217D-01
56  5.5000000000000D-01  1.0295194925292D+00 -3.1471678047699D-01
57  5.6000000000000D-01  1.0418724453502D+00 -3.1494161041755D-01
58  5.7000000000000D-01  1.0537141818066D+00 -3.1437366843278D-01
59  5.8000000000000D-01  1.0650331808762D+00 -3.1300084981209D-01
60  5.9000000000000D-01  1.0758186941484D+00 -3.1081416295381D-01
61  6.0000000000000D-01  1.0860607636328D+00 -3.0780774011922D-01
62  6.1000000000000D-01  1.0957502351063D+00 -3.0397882765498D-01
63  6.2000000000000D-01  1.1048787670020D+00 -2.9932775585085D-01
64  6.3000000000000D-01  1.1134388348761D+00 -2.9385788874307D-01
65  6.4000000000000D-01  1.1214237315185D+00 -2.8757555431609D-01
66  6.5000000000000D-01  1.1288275628067D+00 -2.8048995569336D-01
67  6.6000000000000D-01  1.1356452394292D+00 -2.7261306404325D-01
68  6.7000000000000D-01  1.1418724646366D+00 -2.6395949405598D-01
69  6.8000000000000D-01  1.1475057182051D+00 -2.5454636297239D-01
70  6.9000000000000D-01  1.1525422368238D+00 -2.4439313426191D-01
71  7.0000000000000D-01  1.1569799911427D+00 -2.3352144715872D-01
72  7.1000000000000D-01  1.1608176597401D+00 -2.2195493336639D-01
73  7.2000000000000D-01  1.1640546002918D+00 -2.0971902233411D-01
74  7.3000000000000D-01  1.1666908182398D+00 -1.9684073659189D-01
75  7.4000000000000D-01  1.1687269332801D+00 -1.8334847870400D-01
76  7.5000000000000D-01  1.1701641439984D+00 -1.6927181146332D-01
77  7.6000000000000D-01  1.1710041909986D+00 -1.5464123299916D-01
78  7.7000000000000D-01  1.1712493188773D+00 -1.3948794851104D-01
79  7.8000000000000D-01  1.1709022374028D+00 -1.2384364036756D-01
80  7.9000000000000D-01  1.1699660822637D+00 -1.0774023832440D-01
81  8.0000000000000D-01  1.1684443757524D+00 -9.1209691617974D-02
82  8.1000000000000D-01  1.1663409877467D+00 -7.4283744680852D-02
83  8.2000000000000D-01  1.1636600973511D+00 -5.6993718202360D-02
84  8.3000000000000D-01  1.1604061555496D+00 -3.9370297222612D-02
85  8.4000000000000D-01  1.1565838492142D+00 -2.1443327900615D-02
86  8.5000000000000D-01  1.1521980668016D+00 -3.2416245378000D-03
87  8.6000000000000D-01  1.1472538660528D+00  1.5207211633031D-02
88  8.7000000000000D-01  1.1417564439976D+00  3.3876960465441D-02
89  8.8000000000000D-01  1.1357111095427D+00  5.2742936389347D-02
90  8.9000000000000D-01  1.1291232589019D+00  7.1782126141487D-02
91  9.0000000000000D-01  1.1219983541028D+00  9.0973309617755D-02
92  9.1000000000000D-01  1.1143419047796D+00  1.1029716284985D-01
93  9.2000000000000D-01  1.1061594534311D+00  1.2973634223832D-01
94  9.3000000000000D-01  1.0974565642975D+00  1.4927554930970D-01
95  9.4000000000000D-01  1.0882388159766D+00  1.6890157540920D-01
96  9.5000000000000D-01  1.0785117978694D+00  1.8860332588696D-01
97  9.6000000000000D-01  1.0682811105126D+00  2.0837182348879D-01
98  9.7000000000000D-01  1.0575523698205D+00  2.2820019081673D-01
99  9.8000000000000D-01  1.0463312152289D+00  2.4808361188238D-01
100  9.9000000000000D-01  1.0346233216948D+00  2.6801927293397D-01
101  1.0000000000000D+00  1.0224344154754D+00  2.8800628289634D-01
102  1.0100000000000D+00  1.0097702935748D+00  3.0804557392172D-01
103  1.0200000000000D+00  9.9663684671382D-01  3.2813978269745D-01
104  1.0300000000000D+00  9.8304008564558D-01  3.4829311331748D-01
105  1.0400000000000D+00  9.6898617060887D-01  3.6851118266374D-01
106  1.0500000000000D+00  9.5448144368043D-01  3.8880084938718D-01
107  1.0600000000000D+00  9.3953246375861D-01  4.0917002771451D-01
108  1.0700000000000D+00  9.2414604388449D-01  4.2962748742962D-01
109  1.0800000000000D+00  9.0832929058110D-01  4.5018264149816D-01
110  1.0900000000000D+00  8.9208964486751D-01  4.7084532291716D-01
111  1.1000000000000D+00  8.7543492458505D-01  4.9162555246363D-01
112  1.1100000000000D+00  8.5837336765340D-01  5.1253329911052D-01
113  1.1200000000000D+00  8.4091367586051D-01  5.3357823494292D-01
114  1.1300000000000D+00  8.2306505877488D-01  5.5476948648504D-01
115  1.1400000000000D+00  8.0483727736022D-01  5.7611538438947D-01
116  1.1500000000000D+00  7.8624068686515D-01  5.9762321347967D-01
117  1.1600000000000D+00  7.6728627855678D-01  6.1929896515741D-01
118  1.1700000000000D+00  7.4798571986507D-01  6.4114709420254D-01
119  1.1800000000000D+00  7.2835139250774D-01  6.6317028198184D-01
120  1.1900000000000D+00  7.0839642817323D-01  6.8536920805696D-01
121  1.2000000000000D+00  6.8813474134161D-01  7.0774233217102D-01
122  1.2100000000000D+00  6.6758105884135D-01  7.3028568852125D-01
123  1.2200000000000D+00  6.4675094575461D-01  7.5299269416171D-01
124  1.2300000000000D+00  6.2566082729519D-01  7.7585397333113D-01
125  1.2400000000000D+00  6.0432800630880D-01  7.9885719939341D-01
126  1.2500000000000D+00  5.8277067607349D-01  8.2198695595432D-01
127  1.2600000000000D+00  5.6100792809606D-01  8.4522461864138D-01
128  1.2700000000000D+00  5.3905975462736D-01  8.6854825891519D-01
129  1.2800000000000D+00  5.1694704566849D-01  8.9193257106618D-01
130  1.2900000000000D+00  4.9469158025421D-01  9.1534882348759D-01
131  1.3000000000000D+00  4.7231601183322D-01  9.3876483516889D-01
132  1.3100000000000D+00  4.4984384763355D-01  9.6214497805259D-01
133  1.3200000000000D+00  4.2729942189973D-01  9.8545020590282D-01
134  1.3300000000000D+00  4.0470786294323D-01  1.0086381100934D+00
135  1.3400000000000D+00  3.8209505402283D-01  1.0316630023891D+00
136  1.3500000000000D+00  3.5948758804204D-01  1.0544760249252D+00
137  1.3600000000000D+00  3.3691271615598D-01  1.0770252871237D+00
138  1.3700000000000D+00  3.1439829042293D-01  1.0992560290930D+00
139  1.3800000000000D+00  2.9197270059426D-01  1.1211108112440D+00
140  1.3900000000000D+00  2.6966480531129D-01  1.1425297290757D+00
141  1.4000000000000D+00  2.4750385790687D-01  1.1634506523993D+00
142  1.4100000000000D+00  2.2551942708365D-01  1.1838094879387D+00
143  1.4200000000000D+00  2.0374131284713D-01  1.2035404637709D+00
144  1.4300000000000D+00  1.8219945796050D-01  1.2225764345658D+00
145  1.4400000000000D+00  1.6092385540193D-01  1.2408492056297D+00
146  1.4500000000000D+00  1.3994445219882D-01  1.2582898742291D+00
147  1.4600000000000D+00  1.1929105010195D-01  1.2748291862794D+00
148  1.4700000000000D+00  9.8993203629780D-02  1.2903979061714D+00
149  1.4800000000000D+00  7.9080115922833D-02  1.3049271979260D+00
150  1.4900000000000D+00  5.9580533031050D-02  1.3183490150287D+00
151  1.5000000000000D+00  4.0522637118030D-02  1.3305964969327D+00
152  1.5100000000000D+00  2.1933939210435D-02  1.3416043695602D+00
153  1.5200000000000D+00  3.8411720496911D-03  1.3513093474484D+00
154  1.5300000000000D+00 -1.3729816338245D-02  1.3596505349305D+00
155  1.5400000000000D+00 -3.0754167762733D-02  1.3665698238262D+00
156  1.5500000000000D+00 -4.7208117050676D-02  1.3720122849827D+00
157  1.5600000000000D+00 -6.3069092721526D-02  1.3759265512242D+00
158  1.5700000000000D+00 -7.8315814496315D-02  1.3782651889157D+00
159  1.5800000000000D+00 -9.2928387124002D-02  1.3789850559167D+00
160  1.5900000000000D+00 -1.0688838986171D-01  1.3780476431047D+00
161  1.6000000000000D+00 -1.2017896113037D-01  1.3754193974103D+00
162  1.6100000000000D+00 -1.3278487772873D-01  1.3710720237318D+00
163  1.6200000000000D+00 -1.4469262814525D-01  1.3649827637546D+00
164  1.6300000000000D+00 -1.5589047944419D-01  1.3571346494357D+00
165  1.6400000000000D+00 -1.6636853726844D-01  1.3475167291950D+00
166  1.6500000000000D+00 -1.7611879856615D-01  1.3361242651356D+00
167  1.6600000000000D+00 -1.8513519658133D-01  1.3229588993217D+00
168  1.6700000000000D+00 -1.9341363786963D-01  1.3080287881042D+00
169  1.6800000000000D+00 -2.0095203088442D-01  1.2913487025421D+00
170  1.6900000000000D+00 -2.0775030605352D-01  1.2729400945982D+00
171  1.7000000000000D+00 -2.1381042692068D-01  1.2528311272826D+00
172  1.7100000000000D+00 -2.1913639241479D-01  1.2310566690402D+00
173  1.7200000000000D+00 -2.2373422989121D-01  1.2076582508596D+00
174  1.7300000000000D+00 -2.2761197911229D-01  1.1826839868498D+00
175  1.7400000000000D+00 -2.3077966694072D-01  1.1561884573238D+00
176  1.7500000000000D+00 -2.3324927295636D-01  1.1282325553219D+00
177  1.7600000000000D+00 -2.3503468597325D-01  1.0988832964958D+00
178  1.7700000000000D+00 -2.3615165163383D-01  1.0682135931378D+00
179  1.7800000000000D+00 -2.3661771134099D-01  1.0363019935070D+00
180  1.7900000000000D+00 -2.3645213258763D-01  1.0032323867289D+00
181  1.8000000000000D+00 -2.3567583130257D-01  9.6909367596612D-01
182  1.8100000000000D+00 -2.3431128608255D-01  9.3397941932145D-01
183  1.8200000000000D+00 -2.3238244533336D-01  8.9798744290613D-01
184  1.8300000000000D+00 -2.2991462696432D-01  8.6121942457449D-01
185  1.8400000000000D+00 -2.2693441204504D-01  8.2378045440052D-01
186  1.8500000000000D+00 -2.2346953192565D-01  7.8577856980591D-01
187  1.8600000000000D+00 -2.1954875036697D-01  7.4732427197560D-01
188  1.8700000000000D+00 -2.1520174040871D-01  7.0853002247090D-01
189  1.8800000000000D+00 -2.1045895723940D-01  6.6950972543834D-01
190  1.8900000000000D+00 -2.0535150730318D-01  6.3037819650297D-01
191  1.9000000000000D+00 -1.9991101448550D-01  5.9125062194355D-01
192  1.9100000000000D+00 -1.9416948407461D-01  5.5224201117430D-01
193  1.9200000000000D+00 -1.8815916506088D-01  5.1346664499204D-01
194  1.9300000000000D+00 -1.8191241165429D-01  4.7503752328975D-01
195  1.9400000000000D+00 -1.7546154462453D-01  4.3706581499336D-01
196  1.9500000000000D+00 -1.6883871314704D-01  3.9966031294468D-01
197  1.9600000000000D+00 -1.6207575807140D-01  3.6292689789632D-01
198  1.9700000000000D+00 -1.5520407700656D-01  3.2696801308468D-01
199  1.9800000000000D+00 -1.4825449220708D-01  2.9188215373031D-01
200  1.9900000000000D+00 -1.4125712185752D-01  2.5776337397679D-01
201  2.0000000000000D+00 -1.3424125510680D-01  2.2470081262214D-01
202  2.0100000000000D+00 -1.2723523230193D-01  1.9277824409521D-01
203  2.0200000000000D+00 -1.2026632976264D-01  1.6207365141591D-01
204  2.0300000000000D+00 -1.1336065114834D-01  1.3265883029415D-01
205  2.0400000000000D+00 -1.0654302470963D-01  1.0459902093568D-01
206  2.0500000000000D+00 -9.9836907482958D-02  7.7952572154365D-02
207  2.0600000000000D+00 -9.3264297424945D-02  5.2770642101151D-02
208  2.0700000000000D+00 -8.6845652116702D-02  2.9096929240983D-02
209  2.0800000000000D+00 -8.0599816549675D-02  6.9674442728179D-03
210  2.0900000000000D+00 -7.4543960711820D-02 -1.3589671685838D-02
211  2.1000000000000D+00 -6.8693523256559D-02 -3.2554303613921D-02
212  2.1100000000000D+00 -6.3062156308702D-02 -4.9914518585538D-02
213  2.1200000000000D+00 -5.7661721471239D-02 -6.5666469121670D-02
214  2.1300000000000D+00 -5.2502231874360D-02 -7.9814567617866D-02
215  2.1400000000000D+00 -4.7591803296232D-02 -9.2371638356419D-02
216  2.1500000000000D+00 -4.2936673590844D-02 -1.0335871318603D-01
217  2.1600000000000D+00 -3.8541295167615D-02 -1.1280446113808D-01
218  2.1700000000000D+00 -3.4408388886313D-02 -1.2074479113735D-01
219  2.1800000000000D+00 -3.0539033425061D-02 -1.2722237938614D-01
220  2.1900000000000D+00 -2.6932784599750D-02 -1.3228601118710D-01
221  2.2000000000000D+00 -2.3587782949123D-02 -1.3599000618918D-01
222  2.2100000000000D+00 -2.0500774837424D-02 -1.3839410374229D-01
223  2.2200000000000D+00 -1.7667164579935D-02 -1.3956321263710D-01
224  2.2300000000000D+00 -1.5081109442383D-02 -1.3956691833623D-01
225  2.2400000000000D+00 -1.2735605159772D-02 -1.3847905257373D-01
226  2.2500000000000D+00 -1.0622567306635D-02 -1.3637729277887D-01
227  2.2600000000000D+00 -8.7329299669414D-03 -1.3334267413790D-01
228  2.2700000000000D+00 -7.0567427185392D-03 -1.2945911534488D-01
229  2.2800000000000D+00 -5.5832727788622D-03 -1.2481292157559D-01
230  2.2900000000000D+00 -4.3011107330861D-03 -1.1949227279830D-01
231  2.3000000000000D+00 -3.1982781971229D-03 -1.1358670473868D-01
232  2.3100000000000D+00 -2.2623377454693D-03 -1.0718658118519D-01
233  2.3200000000000D+00 -1.4805038842207D-03 -1.0038256306191D-01
234  2.3300000000000D+00 -8.3975451546189D-04 -9.3265076718034D-02
235  2.3400000000000D+00 -3.2694201027930D-04 -8.5923785597395D-02
236  2.3500000000000D+00  7.1096497827238D-05 -7.8447066875479D-02
237  2.3600000000000D+00  3.6743025569817D-04 -7.0921496086930D-02
238  2.3700000000000D+00  5.7492907012953D-04 -6.3431347036294D-02
239  2.3800000000000D+00  7.0615960585863D-04 -5.6058102735968D-02
240  2.3900000000000D+00  7.7328558814712D-04 -4.8879985499532D-02
241  2.4000000000000D+00  7.8797309761129D-04 -4.1971511560238D-02
242  2.4100000000000D+00  7.6129912981445D-04 -3.5403061903819D-02
243  2.4200000000000D+00  7.0366675029764D-04 -2.9240484400683D-02
244  2.4300000000000D+00  6.2498107476277D-04 -2.3549804735190D-02
245  2.4400000000000D+00  5.3368324084190D-04 -1.8379073169986D-02
246  2.4500000000000D+00  4.3742227296479D-04 -1.3772771159900D-02
247  2.4600000000000D+00  3.4166680987590D-04 -9.7529571169559D-03
248  2.4700000000000D+00  2.5566836505162D-04 -6.4099584449729D-03
249  2.4800000000000D+00  1.8635113253150D-04 -3.8090052135776D-03
250  2.4900000000000D+00  1.4102985603796D-04 -2.0062758252989D-03
251  2.5000000000000D+00  1.1092101316519D-04 -8.7963502956157D-04
252  2.5100000000000D+00  8.7161399517262D-05 -2.7737321257886D-04
253  2.5200000000000D+00  5.6886620572292D-05 -1.2915669056677D-05
254  2.5300000000000D+00  2.6681626044163D-05  4.2747356506601D-05
255  2.5400000000000D+00  2.2546097930605D-06  6.0751397997390D-06
256  2.5500000000000D+00 -6.8307228956022D-06 -2.2324804731512D-05
257  2.5600000000000D+00 -6.2081659937127D-06 -2.4427919528535D-05
258  2.5700000000000D+00 -9.7502871657617D-07 -4.3335155001169D-06
259  2.5800000000000D+00  1.4608803634141D-06  2.8094416693734D-06
260  2.5900000000000D+00  1.6104031428405D-06  3.4884037969596D-06
261  2.6000000000000D+00  3.9801284032644D-07  9.4427331026388D-07
262  2.6100000000000D+00 -1.7804520734555D-07  4.9985447811470D-07
263  2.6200000000000D+00 -2.3168121573946D-07  6.5043532993092D-07
264  2.6300000000000D+00 -8.3605555207288D-08  2.3471910189933D-07
265  2.6400000000000D+00  0.0000000000000D+00  0.0000000000000D+00
266  2.6500000000000D+00  0.0000000000000D+00  0.0000000000000D+00
267  2.6600000000000D+00  0.0000000000000D+00  0.0000000000000D+00
268  2.6700000000000D+00  0.0000000000000D+00  0.0000000000000D+00
269  2.6800000000000D+00  0.0000000000000D+00  0.0000000000000D+00
270  2.6900000000000D+00  0.0000000000000D+00  0.0000000000000D+00
271  2.7000000000000D+00  0.0000000000000D+00  0.0000000000000D+00
272  2.7100000000000D+00  0.0000000000000D+00  0.0000000000000D+00
273  2.7200000000000D+00  0.0000000000000D+00  0.0000000000000D+00
274  2.7300000000000D+00  0.0000000000000D+00  0.0000000000000D+00
275  2.7400000000000D+00  0.0000000000000D+00  0.0000000000000D+00
276  2.7500000000000D+00  0.0000000000000D+00  0.0000000000000D+00
277  2.7600000000000D+00  0.0000000000000D+00  0.0000000000000D+00
278  2.7700000000000D+00  0.0000000000000D+00  0.0000000000000D+00
279  2.7800000000000D+00  0.0000000000000D+00  0.0000000000000D+00
280  2.7900000000000D+00  0.0000000000000D+00  0.0000000000000D+00
281  2.8000000000000D+00  0.0000000000000D+00  0.0000000000000D+00
282  2.8100000000000D+00  0.0000000000000D+00  0.0000000000000D+00
283  2.8200000000000D+00  0.0000000000000D+00  0.0000000000000D+00
284  2.8300000000000D+00  0.0000000000000D+00  0.0000000000000D+00
285  2.8400000000000D+00  0.0000000000000D+00  0.0000000000000D+00
286  2.8500000000000D+00  0.0000000000000D+00  0.0000000000000D+00
287  2.8600000000000D+00  0.0000000000000D+00  0.0000000000000D+00
288  2.8700000000000D+00  0.0000000000000D+00  0.0000000000000D+00
289  2.8800000000000D+00  0.0000000000000D+00  0.0000000000000D+00
290  2.8900000000000D+00  0.0000000000000D+00  0.0000000000000D+00
291  2.9000000000000D+00  0.0000000000000D+00  0.0000000000000D+00
292  2.9100000000000D+00  0.0000000000000D+00  0.0000000000000D+00
293  2.9200000000000D+00  0.0000000000000D+00  0.0000000000000D+00
294  2.9300000000000D+00  0.0000000000000D+00  0.0000000000000D+00
295  2.9400000000000D+00  0.0000000000000D+00  0.0000000000000D+00
296  2.9500000000000D+00  0.0000000000000D+00  0.0000000000000D+00
297  2.9600000000000D+00  0.0000000000000D+00  0.0000000000000D+00
298  2.9700000000000D+00  0.0000000000000D+00  0.0000000000000D+00
299  2.9800000000000D+00  0.0000000000000D+00  0.0000000000000D+00
300  2.9900000000000D+00  0.0000000000000D+00  0.0000000000000D+00
301  3.0000000000000D+00  0.0000000000000D+00  0.0000000000000D+00
302  3.0100000000000D+00  0.0000000000000D+00  0.0000000000000D+00
303  3.0200000000000D+00  0.0000000000000D+00  0.0000000000000D+00
304  3.0300000000000D+00  0.0000000000000D+00  0.0000000000000D+00
305  3.0400000000000D+00  0.0000000000000D+00  0.0000000000000D+00
306  3.0500000000000D+00  0.0000000000000D+00  0.0000000000000D+00
307  3.0600000000000D+00  0.0000000000000D+00  0.0000000000000D+00
308  3.0700000000000D+00  0.0000000000000D+00  0.0000000000000D+00
309  3.0800000000000D+00  0.0000000000000D+00  0.0000000000000D+00
310  3.0900000000000D+00  0.0000000000000D+00  0.0000000000000D+00
311  3.1000000000000D+00  0.0000000000000D+00  0.0000000000000D+00
312  3.1100000000000D+00  0.0000000000000D+00  0.0000000000000D+00
313  3.1200000000000D+00  0.0000000000000D+00  0.0000000000000D+00
314  3.1300000000000D+00  0.0000000000000D+00  0.0000000000000D+00
315  3.1400000000000D+00  0.0000000000000D+00  0.0000000000000D+00
316  3.1500000000000D+00  0.0000000000000D+00  0.0000000000000D+00
317  3.1600000000000D+00  0.0000000000000D+00  0.0000000000000D+00
318  3.1700000000000D+00  0.0000000000000D+00  0.0000000000000D+00
319  3.1800000000000D+00  0.0000000000000D+00  0.0000000000000D+00
320  3.1900000000000D+00  0.0000000000000D+00  0.0000000000000D+00
321  3.2000000000000D+00  0.0000000000000D+00  0.0000000000000D+00
322  3.2100000000000D+00  0.0000000000000D+00  0.0000000000000D+00
323  3.2200000000000D+00  0.0000000000000D+00  0.0000000000000D+00
324  3.2300000000000D+00  0.0000000000000D+00  0.0000000000000D+00
325  3.2400000000000D+00  0.0000000000000D+00  0.0000000000000D+00
326  3.2500000000000D+00  0.0000000000000D+00  0.0000000000000D+00
327  3.2600000000000D+00  0.0000000000000D+00  0.0000000000000D+00
328  3.2700000000000D+00  0.0000000000000D+00  0.0000000000000D+00
329  3.2800000000000D+00  0.0000000000000D+00  0.0000000000000D+00
330  3.2900000000000D+00  0.0000000000000D+00  0.0000000000000D+00
331  3.3000000000000D+00  0.0000000000000D+00  0.0000000000000D+00
332  3.3100000000000D+00  0.0000000000000D+00  0.0000000000000D+00
333  3.3200000000000D+00  0.0000000000000D+00  0.0000000000000D+00
334  3.3300000000000D+00  0.0000000000000D+00  0.0000000000000D+00
335  3.3400000000000D+00  0.0000000000000D+00  0.0000000000000D+00
336  3.3500000000000D+00  0.0000000000000D+00  0.0000000000000D+00
337  3.3600000000000D+00  0.0000000000000D+00  0.0000000000000D+00
338  3.3700000000000D+00  0.0000000000000D+00  0.0000000000000D+00
339  3.3800000000000D+00  0.0000000000000D+00  0.0000000000000D+00
340  3.3900000000000D+00  0.0000000000000D+00  0.0000000000000D+00
341  3.4000000000000D+00  0.0000000000000D+00  0.0000000000000D+00
342  3.4100000000000D+00  0.0000000000000D+00  0.0000000000000D+00
343  3.4200000000000D+00  0.0000000000000D+00  0.0000000000000D+00
344  3.4300000000000D+00  0.0000000000000D+00  0.0000000000000D+00
345  3.4400000000000D+00  0.0000000000000D+00  0.0000000000000D+00
346  3.4500000000000D+00  0.0000000000000D+00  0.0000000000000D+00
347  3.4600000000000D+00  0.0000000000000D+00  0.0000000000000D+00
348  3.4700000000000D+00  0.0000000000000D+00  0.0000000000000D+00
349  3.4800000000000D+00  0.0000000000000D+00  0.0000000000000D+00
350  3.4900000000000D+00  0.0000000000000D+00  0.0000000000000D+00
351  3.5000000000000D+00  0.0000000000000D+00  0.0000000000000D+00
352  3.5100000000000D+00  0.0000000000000D+00  0.0000000000000D+00
353  3.5200000000000D+00  0.0000000000000D+00  0.0000000000000D+00
354  3.5300000000000D+00  0.0000000000000D+00  0.0000000000000D+00
355  3.5400000000000D+00  0.0000000000000D+00  0.0000000000000D+00
356  3.5500000000000D+00  0.0000000000000D+00  0.0000000000000D+00
357  3.5600000000000D+00  0.0000000000000D+00  0.0000000000000D+00
358  3.5700000000000D+00  0.0000000000000D+00  0.0000000000000D+00
359  3.5800000000000D+00  0.0000000000000D+00  0.0000000000000D+00
360  3.5900000000000D+00  0.0000000000000D+00  0.0000000000000D+00
361  3.6000000000000D+00  0.0000000000000D+00  0.0000000000000D+00
362  3.6100000000000D+00  0.0000000000000D+00  0.0000000000000D+00
363  3.6200000000000D+00  0.0000000000000D+00  0.0000000000000D+00
364  3.6300000000000D+00  0.0000000000000D+00  0.0000000000000D+00
365  3.6400000000000D+00  0.0000000000000D+00  0.0000000000000D+00
366  3.6500000000000D+00  0.0000000000000D+00  0.0000000000000D+00
367  3.6600000000000D+00  0.0000000000000D+00  0.0000000000000D+00
368  3.6700000000000D+00  0.0000000000000D+00  0.0000000000000D+00
369  3.6800000000000D+00  0.0000000000000D+00  0.0000000000000D+00
370  3.6900000000000D+00  0.0000000000000D+00  0.0000000000000D+00
371  3.7000000000000D+00  0.0000000000000D+00  0.0000000000000D+00
372  3.7100000000000D+00  0.0000000000000D+00  0.0000000000000D+00
373  3.7200000000000D+00  0.0000000000000D+00  0.0000000000000D+00
374  3.7300000000000D+00  0.0000000000000D+00  0.0000000000000D+00
375  3.7400000000000D+00  0.0000000000000D+00  0.0000000000000D+00
376  3.7500000000000D+00  0.0000000000000D+00  0.0000000000000D+00
377  3.7600000000000D+00  0.0000000000000D+00  0.0000000000000D+00
378  3.7700000000000D+00  0.0000000000000D+00  0.0000000000000D+00
379  3.7800000000000D+00  0.0000000000000D+00  0.0000000000000D+00
380  3.7900000000000D+00  0.0000000000000D+00  0.0000000000000D+00
381  3.8000000000000D+00  0.0000000000000D+00  0.0000000000000D+00
382  3.8100000000000D+00  0.0000000000000D+00  0.0000000000000D+00
383  3.8200000000000D+00  0.0000000000000D+00  0.0000000000000D+00
384  3.8300000000000D+00  0.0000000000000D+00  0.0000000000000D+00
385  3.8400000000000D+00  0.0000000000000D+00  0.0000000000000D+00
386  3.8500000000000D+00  0.0000000000000D+00  0.0000000000000D+00
387  3.8600000000000D+00  0.0000000000000D+00  0.0000000000000D+00
388  3.8700000000000D+00  0.0000000000000D+00  0.0000000000000D+00
389  3.8800000000000D+00  0.0000000000000D+00  0.0000000000000D+00
390  3.8900000000000D+00  0.0000000000000D+00  0.0000000000000D+00
391  3.9000000000000D+00  0.0000000000000D+00  0.0000000000000D+00
392  3.9100000000000D+00  0.0000000000000D+00  0.0000000000000D+00
393  3.9200000000000D+00  0.0000000000000D+00  0.0000000000000D+00
394  3.9300000000000D+00  0.0000000000000D+00  0.0000000000000D+00
395  3.9400000000000D+00  0.0000000000000D+00  0.0000000000000D+00
396  3.9500000000000D+00  0.0000000000000D+00  0.0000000000000D+00
397  3.9600000000000D+00  0.0000000000000D+00  0.0000000000000D+00
398  3.9700000000000D+00  0.0000000000000D+00  0.0000000000000D+00
399  3.9800000000000D+00  0.0000000000000D+00  0.0000000000000D+00
400  3.9900000000000D+00  0.0000000000000D+00  0.0000000000000D+00
401  4.0000000000000D+00  0.0000000000000D+00  0.0000000000000D+00
402  4.0100000000000D+00  0.0000000000000D+00  0.0000000000000D+00
403  4.0200000000000D+00  0.0000000000000D+00  0.0000000000000D+00
404  4.0300000000000D+00  0.0000000000000D+00  0.0000000000000D+00
405  4.0400000000000D+00  0.0000000000000D+00  0.0000000000000D+00
406  4.0500000000000D+00  0.0000000000000D+00  0.0000000000000D+00
407  4.0600000000000D+00  0.0000000000000D+00  0.0000000000000D+00
408  4.0700000000000D+00  0.0000000000000D+00  0.0000000000000D+00
409  4.0800000000000D+00  0.0000000000000D+00  0.0000000000000D+00
410  4.0900000000000D+00  0.0000000000000D+00  0.0000000000000D+00
411  4.1000000000000D+00  0.0000000000000D+00  0.0000000000000D+00
412  4.1100000000000D+00  0.0000000000000D+00  0.0000000000000D+00
413  4.1200000000000D+00  0.0000000000000D+00  0.0000000000000D+00
414  4.1300000000000D+00  0.0000000000000D+00  0.0000000000000D+00
415  4.1400000000000D+00  0.0000000000000D+00  0.0000000000000D+00
416  4.1500000000000D+00  0.0000000000000D+00  0.0000000000000D+00
417  4.1600000000000D+00  0.0000000000000D+00  0.0000000000000D+00
418  4.1700000000000D+00  0.0000000000000D+00  0.0000000000000D+00
419  4.1800000000000D+00  0.0000000000000D+00  0.0000000000000D+00
420  4.1900000000000D+00  0.0000000000000D+00  0.0000000000000D+00
421  4.2000000000000D+00  0.0000000000000D+00  0.0000000000000D+00
422  4.2100000000000D+00  0.0000000000000D+00  0.0000000000000D+00
423  4.2200000000000D+00  0.0000000000000D+00  0.0000000000000D+00
424  4.2300000000000D+00  0.0000000000000D+00  0.0000000000000D+00
425  4.2400000000000D+00  0.0000000000000D+00  0.0000000000000D+00
426  4.2500000000000D+00  0.0000000000000D+00  0.0000000000000D+00
427  4.2600000000000D+00  0.0000000000000D+00  0.0000000000000D+00
428  4.2700000000000D+00  0.0000000000000D+00  0.0000000000000D+00
429  4.2800000000000D+00  0.0000000000000D+00  0.0000000000000D+00
430  4.2900000000000D+00  0.0000000000000D+00  0.0000000000000D+00
431  4.3000000000000D+00  0.0000000000000D+00  0.0000000000000D+00
432  4.3100000000000D+00  0.0000000000000D+00  0.0000000000000D+00
433  4.3200000000000D+00  0.0000000000000D+00  0.0000000000000D+00
434  4.3300000000000D+00  0.0000000000000D+00  0.0000000000000D+00
435  4.3400000000000D+00  0.0000000000000D+00  0.0000000000000D+00
436  4.3500000000000D+00  0.0000000000000D+00  0.0000000000000D+00
437  4.3600000000000D+00  0.0000000000000D+00  0.0000000000000D+00
438  4.3700000000000D+00  0.0000000000000D+00  0.0000000000000D+00
439  4.3800000000000D+00  0.0000000000000D+00  0.0000000000000D+00
440  4.3900000000000D+00  0.0000000000000D+00  0.0000000000000D+00
441  4.4000000000000D+00  0.0000000000000D+00  0.0000000000000D+00
442  4.4100000000000D+00  0.0000000000000D+00  0.0000000000000D+00
443  4.4200000000000D+00  0.0000000000000D+00  0.0000000000000D+00
444  4.4300000000000D+00  0.0000000000000D+00  0.0000000000000D+00