Hf    ONCVPSP-3.3.0  r_core=   1.71613   1.71613   1.71613   2.42541
72.0000     12.0000      180419    zatom,zion,pspd
8      11   3     4   600     0    pspcod,pspxc,lmax,lloc,mmax,r2well
5.99000000  5.40000000  0.00000000    rchrg fchrg qchrg
2     4     4     4    nproj
3     1           extension_switch
4     4     4    nprojso
0                        -6.4150171084242D-01  5.7502433413663D+00
1  0.0000000000000D+00  1.0210737810823D-09  6.5769889534550D-11
2  1.0000000000000D-02 -5.6011238614347D-02  5.0463191198799D-02
3  2.0000000000000D-02 -1.1170971820405D-01  1.0087103155815D-01
4  3.0000000000000D-02 -1.6678519592898D-01  1.5116812897782D-01
5  4.0000000000000D-02 -2.2093243621667D-01  2.0129901029864D-01
6  5.0000000000000D-02 -2.7385365190470D-01  2.5120808441268D-01
7  6.0000000000000D-02 -3.2526087112410D-01  3.0083960969396D-01
8  7.0000000000000D-02 -3.7487820638068D-01  3.5013766711195D-01
9  8.0000000000000D-02 -4.2244400331236D-01  3.9904614032436D-01
10  9.0000000000000D-02 -4.6771284785702D-01  4.4750870396473D-01
11  1.0000000000000D-01 -5.1045741204423D-01  4.9546882124523D-01
12  1.1000000000000D-01 -5.5047012031105D-01  5.4286975188621D-01
13  1.2000000000000D-01 -5.8756462011762D-01  5.8965457126336D-01
14  1.3000000000000D-01 -6.2157704268574D-01  6.3576620153134D-01
15  1.4000000000000D-01 -6.5236704187937D-01  6.8114745534121D-01
16  1.5000000000000D-01 -6.7981860156923D-01  7.2574109261932D-01
17  1.6000000000000D-01 -7.0384060424931D-01  7.6948989071890D-01
18  1.7000000000000D-01 -7.2436715617607D-01  8.1233672809421D-01
19  1.8000000000000D-01 -7.4135766685628D-01  8.5422468148235D-01
20  1.9000000000000D-01 -7.5479668328876D-01  8.9509713641143D-01
21  2.0000000000000D-01 -7.6469348194323D-01  9.3489791068770D-01
22  2.1000000000000D-01 -7.7108142400827D-01  9.7357139034943D-01
23  2.2000000000000D-01 -7.7401708193376D-01  1.0110626774150D+00
24  2.3000000000000D-01 -7.7357914770426D-01  1.0473177485963D+00
25  2.4000000000000D-01 -7.6986713558403D-01  1.0822836240016D+00
26  2.5000000000000D-01 -7.6299989424672D-01  1.1159085447083D+00
27  2.6000000000000D-01 -7.5311394521988D-01  1.1481421579618D+00
28  2.7000000000000D-01 -7.4036166641546D-01  1.1789357086310D+00
29  2.8000000000000D-01 -7.2490934116188D-01  1.2082422354512D+00
30  2.9000000000000D-01 -7.0693509458315D-01  1.2360167704900D+00
31  3.0000000000000D-01 -6.8662674037075D-01  1.2622165401954D+00
32  3.1000000000000D-01 -6.6417956194971D-01  1.2868011663245D+00
33  3.2000000000000D-01 -6.3979405274322D-01  1.3097328650076D+00
34  3.3000000000000D-01 -6.1367364067781D-01  1.3309766421741D+00
35  3.4000000000000D-01 -5.8602242224232D-01  1.3505004835579D+00
36  3.5000000000000D-01 -5.5704293131203D-01  1.3682755375082D+00
37  3.6000000000000D-01 -5.2693396757689D-01  1.3842762888587D+00
38  3.7000000000000D-01 -4.9588850877039D-01  1.3984807221510D+00
39  3.8000000000000D-01 -4.6409172999084D-01  1.4108704725712D+00
40  3.9000000000000D-01 -4.3171915224650D-01  1.4214309630366D+00
41  4.0000000000000D-01 -3.9893494095094D-01  1.4301515259650D+00
42  4.1000000000000D-01 -3.6589037346116D-01  1.4370255083696D+00
43  4.2000000000000D-01 -3.3272249290152D-01  1.4420503590485D+00
44  4.3000000000000D-01 -2.9955296347105D-01  1.4452276967753D+00
45  4.4000000000000D-01 -2.6648714021298D-01  1.4465633585490D+00
46  4.5000000000000D-01 -2.3361336385102D-01  1.4460674271245D+00
47  4.6000000000000D-01 -2.0100248879741D-01  1.4437542372121D+00
48  4.7000000000000D-01 -1.6870764983373D-01  1.4396423599172D+00
49  4.8000000000000D-01 -1.3676427028721D-01  1.4337545651726D+00
50  4.9000000000000D-01 -1.0519031179956D-01  1.4261177621065D+00
51  5.0000000000000D-01 -7.3986763041395D-02  1.4167629174771D+00
52  5.1000000000000D-01 -4.3138361992034D-02  1.4057249524991D+00
53  5.2000000000000D-01 -1.2614543712178D-02  1.3930426185745D+00
54  5.3000000000000D-01  1.7629397087817D-02  1.3787583526265D+00
55  5.4000000000000D-01  4.7650941906146D-02  1.3629181129174D+00
56  5.5000000000000D-01  7.7518798355664D-02  1.3455711964027D+00
57  5.6000000000000D-01  1.0731118198938D-01  1.3267700388409D+00
58  5.7000000000000D-01  1.3711394998182D-01  1.3065699990315D+00
59  5.8000000000000D-01  1.6701860847642D-01  1.2850291286949D+00
60  5.9000000000000D-01  1.9712021704767D-01  1.2622079296381D+00
61  6.0000000000000D-01  2.2751521513468D-01  1.2381690999631D+00
62  6.1000000000000D-01  2.5829919643836D-01  1.2129772711702D+00
63  6.2000000000000D-01  2.8956465814648D-01  1.1866987380923D+00
64  6.3000000000000D-01  3.2139875242694D-01  1.1594011836539D+00
65  6.4000000000000D-01  3.5388106791680D-01  1.1311534004956D+00
66  6.5000000000000D-01  3.8708146891503D-01  1.1020250115245D+00
67  6.6000000000000D-01  4.2105801966828D-01  1.0720861914599D+00
68  6.7000000000000D-01  4.5585502051137D-01  1.0414073914231D+00
69  6.8000000000000D-01  4.9150118169738D-01  1.0100590685875D+00
70  6.9000000000000D-01  5.2800795953666D-01  9.7811142285086D-01
71  7.0000000000000D-01  5.6536807795776D-01  9.4563414241420D-01
72  7.1000000000000D-01  6.0355425683008D-01  9.1269616006414D-01
73  7.2000000000000D-01  6.4251816636136D-01  8.7936542184216D-01
74  7.3000000000000D-01  6.8218962461475D-01  8.4570866965988D-01
75  7.4000000000000D-01  7.2247605272495D-01  8.1179123927818D-01
76  7.5000000000000D-01  7.6326219970789D-01  7.7767687491209D-01
77  7.6000000000000D-01  8.0441014594129D-01  7.4342756155647D-01
78  7.7000000000000D-01  8.4575959142049D-01  7.0910337594914D-01
79  7.8000000000000D-01  8.8712843182524D-01  6.7476235690149D-01
80  7.9000000000000D-01  9.2831362228637D-01  6.4046039553211D-01
81  8.0000000000000D-01  9.6909232555741D-01  6.0625114574058D-01
82  8.1000000000000D-01  1.0092233380996D+00  5.7218595505602D-01
83  8.2000000000000D-01  1.0484487844249D+00  5.3831381579244D-01
84  8.3000000000000D-01  1.0864960669343D+00  5.0468133624119D-01
85  8.4000000000000D-01  1.1230800554727D+00  4.7133273143184D-01
86  8.5000000000000D-01  1.1579054979384D+00  4.3830983279996D-01
87  8.6000000000000D-01  1.1906696305595D+00  4.0565211591435D-01
88  8.7000000000000D-01  1.2210649639116D+00  3.7339674523939D-01
89  8.8000000000000D-01  1.2487822184334D+00  3.4157863474292D-01
90  8.9000000000000D-01  1.2735133811281D+00  3.1023052300738D-01
91  9.0000000000000D-01  1.2949548533352D+00  2.7938306136386D-01
92  9.1000000000000D-01  1.3128106579587D+00  2.4906491344705D-01
93  9.2000000000000D-01  1.3267956733359D+00  2.1930286446414D-01
94  9.3000000000000D-01  1.3366388600748D+00  1.9012193838473D-01
95  9.4000000000000D-01  1.3420864466643D+00  1.6154552119265D-01
96  9.5000000000000D-01  1.3429050394958D+00  1.3359548829394D-01
97  9.6000000000000D-01  1.3388846231251D+00  1.0629233415014D-01
98  9.7000000000000D-01  1.3298414171544D+00  7.9655302201879D-02
99  9.8000000000000D-01  1.3156205570276D+00  5.3702513164871D-02
100  9.9000000000000D-01  1.2960985672913D+00  2.8451089818467D-02
101  1.0000000000000D+00  1.2711855975282D+00  3.9172764683999D-03
102  1.0100000000000D+00  1.2408273930259D+00 -1.9883448659159D-02
103  1.0200000000000D+00  1.2050069745998D+00 -4.2936269731810D-02
104  1.0300000000000D+00  1.1637460045060D+00 -6.5226939856692D-02
105  1.0400000000000D+00  1.1171058182176D+00 -8.6741699245826D-02
106  1.0500000000000D+00  1.0651881048998D+00 -1.0746720623887D-01
107  1.0600000000000D+00  1.0081352228941D+00 -1.2739048224595D-01
108  1.0700000000000D+00  9.4613013959194D-01 -1.4649887151675D-01
109  1.0800000000000D+00  8.7939598923990D-01 -1.6478001642552D-01
110  1.0900000000000D+00  8.0819524563100D-01 -1.8222184878111D-01
111  1.1000000000000D+00  7.3282851062206D-01 -1.9881259745869D-01
112  1.1100000000000D+00  6.5363292337180D-01 -2.1454081243536D-01
113  1.1200000000000D+00  5.7098019864208D-01 -2.2939540512459D-01
114  1.1300000000000D+00  4.8527430706292D-01 -2.4336570465241D-01
115  1.1400000000000D+00  3.9694881346898D-01 -2.5644152953940D-01
116  1.1500000000000D+00  3.0646389351345D-01 -2.6861327402167D-01
117  1.1600000000000D+00  2.1430305144501D-01 -2.7987200809257D-01
118  1.1700000000000D+00  1.2096956638963D-01 -2.9020959009098D-01
119  1.1800000000000D+00  2.6982696798684D-02 -2.9961879052605D-01
120  1.1900000000000D+00 -6.7126324394407D-02 -3.0809342565904D-01
121  1.2000000000000D+00 -1.6081846884508D-01 -3.1562849921378D-01
122  1.2100000000000D+00 -2.5355122846038D-01 -3.2222035042966D-01
123  1.2200000000000D+00 -3.4478302854054D-01 -3.2786680657563D-01
124  1.2300000000000D+00 -4.3397769812325D-01 -3.3256733797324D-01
125  1.2400000000000D+00 -5.2060895525479D-01 -3.3632321344084D-01
126  1.2500000000000D+00 -6.0416486517874D-01 -3.3913765407459D-01
127  1.2600000000000D+00 -6.8415222875587D-01 -3.4101598323569D-01
128  1.2700000000000D+00 -7.6010085834590D-01 -3.4196577058422D-01
129  1.2800000000000D+00 -8.3156769990151D-01 -3.4199696806891D-01
130  1.2900000000000D+00 -8.9814075989039D-01 -3.4112203576948D-01
131  1.3000000000000D+00 -9.5944279747613D-01 -3.3935605556307D-01
132  1.3100000000000D+00 -1.0151347457733D+00 -3.3671683075728D-01
133  1.3200000000000D+00 -1.0649188250204D+00 -3.3322496977972D-01
134  1.3300000000000D+00 -1.1085413156489D+00 -3.2890395226699D-01
135  1.3400000000000D+00 -1.1457949637883D+00 -3.2378017613809D-01
136  1.3500000000000D+00 -1.1765209880954D+00 -3.1788298404137D-01
137  1.3600000000000D+00 -1.2006106695771D+00 -3.1124466822992D-01
138  1.3700000000000D+00 -1.2180065043731D+00 -3.0390045283783D-01
139  1.3800000000000D+00 -1.2287029012456D+00 -2.9588845261525D-01
140  1.3900000000000D+00 -1.2327464195940D+00 -2.8724960793431D-01
141  1.4000000000000D+00 -1.2302355353154D+00 -2.7802759542298D-01
142  1.4100000000000D+00 -1.2213199359328D+00 -2.6826871433750D-01
143  1.4200000000000D+00 -1.2061993504882D+00 -2.5802174900937D-01
144  1.4300000000000D+00 -1.1851219133621D+00 -2.4733780735522D-01
145  1.4400000000000D+00 -1.1583820851519D+00 -2.3627013674035D-01
146  1.4500000000000D+00 -1.1263181367726D+00 -2.2487391756484D-01
147  1.4600000000000D+00 -1.0893092237059D+00 -2.1320603606976D-01
148  1.4700000000000D+00 -1.0477720750994D+00 -2.0132483774374D-01
149  1.4800000000000D+00 -1.0021573206123D+00 -1.8928986260744D-01
150  1.4900000000000D+00 -9.5294549857017D-01 -1.7716156478961D-01
151  1.5000000000000D+00 -9.0064276778320D-01 -1.6500101764223D-01
152  1.5100000000000D+00 -8.4577637518084D-01 -1.5286960728127D-01
153  1.5200000000000D+00 -7.8888991099841D-01 -1.4082871631600D-01
154  1.5300000000000D+00 -7.3053840182674D-01 -1.2893940055319D-01
155  1.5400000000000D+00 -6.7128328455045D-01 -1.1726206106073D-01
156  1.5500000000000D+00 -6.1168730965130D-01 -1.0585611427673D-01
157  1.5600000000000D+00 -5.5230942210451D-01 -9.4779662835113D-02
158  1.5700000000000D+00 -4.9369967010188D-01 -8.4089169891877D-02
159  1.5800000000000D+00 -4.3639418750615D-01 -7.3839139492741D-02
160  1.5900000000000D+00 -3.8091030511943D-01 -6.4081806036189D-02
161  1.6000000000000D+00 -3.2774182958574D-01 -5.4866834977841D-02
162  1.6100000000000D+00 -2.7735454797993D-01 -4.6241037995310D-02
163  1.6200000000000D+00 -2.3018199011626D-01 -3.8248104381249D-02
164  1.6300000000000D+00 -1.8662150477894D-01 -3.0928351780488D-02
165  1.6400000000000D+00 -1.4703067636637D-01 -2.4318497729746D-02
166  1.6500000000000D+00 -1.1172413198099D-01 -1.8451454771667D-02
167  1.6600000000000D+00 -8.0984189989833D-02 -1.3358360215949D-02
168  1.6700000000000D+00 -5.5011150132001D-02 -9.0606261210928D-03
169  1.6800000000000D+00 -3.3873570192784D-02 -5.5623385042300D-03
170  1.6900000000000D+00 -1.7854450889340D-02 -2.9059308907162D-03
171  1.7000000000000D+00 -7.3977207510576D-03 -1.1620630166338D-03
172  1.7100000000000D+00 -1.9947393823467D-03 -2.5647993740769D-04
173  1.7200000000000D+00 -1.4051116526947D-05  5.8128284139588D-05
174  1.7300000000000D+00  2.0481724679915D-04  5.7065702259048D-05
175  1.7400000000000D+00 -6.0765110867177D-05 -1.4949740824435D-05
176  1.7500000000000D+00 -9.6655006645412D-05 -2.2408522194195D-05
177  1.7600000000000D+00  7.0887006780492D-06  1.9180004733652D-06
178  1.7700000000000D+00  1.7095683474450D-05  4.4349119204830D-06
179  1.7800000000000D+00  3.2771612134708D-07  7.7987878249140D-09
180  1.7900000000000D+00  1.3936373337618D-06  3.3164928921443D-08
181  1.8000000000000D+00  4.6348610392775D-10  1.1029758833562D-11
182  1.8100000000000D+00  0.0000000000000D+00  0.0000000000000D+00
183  1.8200000000000D+00  0.0000000000000D+00  0.0000000000000D+00
184  1.8300000000000D+00  0.0000000000000D+00  0.0000000000000D+00
185  1.8400000000000D+00  0.0000000000000D+00  0.0000000000000D+00
186  1.8500000000000D+00  0.0000000000000D+00  0.0000000000000D+00
187  1.8600000000000D+00  0.0000000000000D+00  0.0000000000000D+00
188  1.8700000000000D+00  0.0000000000000D+00  0.0000000000000D+00
189  1.8800000000000D+00  0.0000000000000D+00  0.0000000000000D+00
190  1.8900000000000D+00  0.0000000000000D+00  0.0000000000000D+00
191  1.9000000000000D+00  0.0000000000000D+00  0.0000000000000D+00
192  1.9100000000000D+00  0.0000000000000D+00  0.0000000000000D+00
193  1.9200000000000D+00  0.0000000000000D+00  0.0000000000000D+00
194  1.9300000000000D+00  0.0000000000000D+00  0.0000000000000D+00
195  1.9400000000000D+00  0.0000000000000D+00  0.0000000000000D+00
196  1.9500000000000D+00  0.0000000000000D+00  0.0000000000000D+00
197  1.9600000000000D+00  0.0000000000000D+00  0.0000000000000D+00
198  1.9700000000000D+00  0.0000000000000D+00  0.0000000000000D+00
199  1.9800000000000D+00  0.0000000000000D+00  0.0000000000000D+00
200  1.9900000000000D+00  0.0000000000000D+00  0.0000000000000D+00
201  2.0000000000000D+00  0.0000000000000D+00  0.0000000000000D+00
202  2.0100000000000D+00  0.0000000000000D+00  0.0000000000000D+00
203  2.0200000000000D+00  0.0000000000000D+00  0.0000000000000D+00
204  2.0300000000000D+00  0.0000000000000D+00  0.0000000000000D+00
205  2.0400000000000D+00  0.0000000000000D+00  0.0000000000000D+00
206  2.0500000000000D+00  0.0000000000000D+00  0.0000000000000D+00
207  2.0600000000000D+00  0.0000000000000D+00  0.0000000000000D+00
208  2.0700000000000D+00  0.0000000000000D+00  0.0000000000000D+00
209  2.0800000000000D+00  0.0000000000000D+00  0.0000000000000D+00
210  2.0900000000000D+00  0.0000000000000D+00  0.0000000000000D+00
211  2.1000000000000D+00  0.0000000000000D+00  0.0000000000000D+00
212  2.1100000000000D+00  0.0000000000000D+00  0.0000000000000D+00
213  2.1200000000000D+00  0.0000000000000D+00  0.0000000000000D+00
214  2.1300000000000D+00  0.0000000000000D+00  0.0000000000000D+00
215  2.1400000000000D+00  0.0000000000000D+00  0.0000000000000D+00
216  2.1500000000000D+00  0.0000000000000D+00  0.0000000000000D+00
217  2.1600000000000D+00  0.0000000000000D+00  0.0000000000000D+00
218  2.1700000000000D+00  0.0000000000000D+00  0.0000000000000D+00
219  2.1800000000000D+00  0.0000000000000D+00  0.0000000000000D+00
220  2.1900000000000D+00  0.0000000000000D+00  0.0000000000000D+00
221  2.2000000000000D+00  0.0000000000000D+00  0.0000000000000D+00
222  2.2100000000000D+00  0.0000000000000D+00  0.0000000000000D+00
223  2.2200000000000D+00  0.0000000000000D+00  0.0000000000000D+00
224  2.2300000000000D+00  0.0000000000000D+00  0.0000000000000D+00
225  2.2400000000000D+00  0.0000000000000D+00  0.0000000000000D+00
226  2.2500000000000D+00  0.0000000000000D+00  0.0000000000000D+00
227  2.2600000000000D+00  0.0000000000000D+00  0.0000000000000D+00
228  2.2700000000000D+00  0.0000000000000D+00  0.0000000000000D+00
229  2.2800000000000D+00  0.0000000000000D+00  0.0000000000000D+00
230  2.2900000000000D+00  0.0000000000000D+00  0.0000000000000D+00
231  2.3000000000000D+00  0.0000000000000D+00  0.0000000000000D+00
232  2.3100000000000D+00  0.0000000000000D+00  0.0000000000000D+00
233  2.3200000000000D+00  0.0000000000000D+00  0.0000000000000D+00
234  2.3300000000000D+00  0.0000000000000D+00  0.0000000000000D+00
235  2.3400000000000D+00  0.0000000000000D+00  0.0000000000000D+00
236  2.3500000000000D+00  0.0000000000000D+00  0.0000000000000D+00
237  2.3600000000000D+00  0.0000000000000D+00  0.0000000000000D+00
238  2.3700000000000D+00  0.0000000000000D+00  0.0000000000000D+00
239  2.3800000000000D+00  0.0000000000000D+00  0.0000000000000D+00
240  2.3900000000000D+00  0.0000000000000D+00  0.0000000000000D+00
241  2.4000000000000D+00  0.0000000000000D+00  0.0000000000000D+00
242  2.4100000000000D+00  0.0000000000000D+00  0.0000000000000D+00
243  2.4200000000000D+00  0.0000000000000D+00  0.0000000000000D+00
244  2.4300000000000D+00  0.0000000000000D+00  0.0000000000000D+00
245  2.4400000000000D+00  0.0000000000000D+00  0.0000000000000D+00
246  2.4500000000000D+00  0.0000000000000D+00  0.0000000000000D+00
247  2.4600000000000D+00  0.0000000000000D+00  0.0000000000000D+00
248  2.4700000000000D+00  0.0000000000000D+00  0.0000000000000D+00
249  2.4800000000000D+00  0.0000000000000D+00  0.0000000000000D+00
250  2.4900000000000D+00  0.0000000000000D+00  0.0000000000000D+00
251  2.5000000000000D+00  0.0000000000000D+00  0.0000000000000D+00
252  2.5100000000000D+00  0.0000000000000D+00  0.0000000000000D+00
253  2.5200000000000D+00  0.0000000000000D+00  0.0000000000000D+00
254  2.5300000000000D+00  0.0000000000000D+00  0.0000000000000D+00
255  2.5400000000000D+00  0.0000000000000D+00  0.0000000000000D+00
256  2.5500000000000D+00  0.0000000000000D+00  0.0000000000000D+00
257  2.5600000000000D+00  0.0000000000000D+00  0.0000000000000D+00
258  2.5700000000000D+00  0.0000000000000D+00  0.0000000000000D+00
259  2.5800000000000D+00  0.0000000000000D+00  0.0000000000000D+00
260  2.5900000000000D+00  0.0000000000000D+00  0.0000000000000D+00
261  2.6000000000000D+00  0.0000000000000D+00  0.0000000000000D+00
262  2.6100000000000D+00  0.0000000000000D+00  0.0000000000000D+00
263  2.6200000000000D+00  0.0000000000000D+00  0.0000000000000D+00
264  2.6300000000000D+00  0.0000000000000D+00  0.0000000000000D+00
265  2.6400000000000D+00  0.0000000000000D+00  0.0000000000000D+00
266  2.6500000000000D+00  0.0000000000000D+00  0.0000000000000D+00
267  2.6600000000000D+00  0.0000000000000D+00  0.0000000000000D+00
268  2.6700000000000D+00  0.0000000000000D+00  0.0000000000000D+00
269  2.6800000000000D+00  0.0000000000000D+00  0.0000000000000D+00
270  2.6900000000000D+00  0.0000000000000D+00  0.0000000000000D+00
271  2.7000000000000D+00  0.0000000000000D+00  0.0000000000000D+00
272  2.7100000000000D+00  0.0000000000000D+00  0.0000000000000D+00
273  2.7200000000000D+00  0.0000000000000D+00  0.0000000000000D+00
274  2.7300000000000D+00  0.0000000000000D+00  0.0000000000000D+00
275  2.7400000000000D+00  0.0000000000000D+00  0.0000000000000D+00
276  2.7500000000000D+00  0.0000000000000D+00  0.0000000000000D+00
277  2.7600000000000D+00  0.0000000000000D+00  0.0000000000000D+00
278  2.7700000000000D+00  0.0000000000000D+00  0.0000000000000D+00
279  2.7800000000000D+00  0.0000000000000D+00  0.0000000000000D+00
280  2.7900000000000D+00  0.0000000000000D+00  0.0000000000000D+00
281  2.8000000000000D+00  0.0000000000000D+00  0.0000000000000D+00
282  2.8100000000000D+00  0.0000000000000D+00  0.0000000000000D+00
283  2.8200000000000D+00  0.0000000000000D+00  0.0000000000000D+00
284  2.8300000000000D+00  0.0000000000000D+00  0.0000000000000D+00
285  2.8400000000000D+00  0.0000000000000D+00  0.0000000000000D+00
286  2.8500000000000D+00  0.0000000000000D+00  0.0000000000000D+00
287  2.8600000000000D+00  0.0000000000000D+00  0.0000000000000D+00
288  2.8700000000000D+00  0.0000000000000D+00  0.0000000000000D+00
289  2.8800000000000D+00  0.0000000000000D+00  0.0000000000000D+00
290  2.8900000000000D+00  0.0000000000000D+00  0.0000000000000D+00
291  2.9000000000000D+00  0.0000000000000D+00  0.0000000000000D+00
292  2.9100000000000D+00  0.0000000000000D+00  0.0000000000000D+00
293  2.9200000000000D+00  0.0000000000000D+00  0.0000000000000D+00
294  2.9300000000000D+00  0.0000000000000D+00  0.0000000000000D+00
295  2.9400000000000D+00  0.0000000000000D+00  0.0000000000000D+00
296  2.9500000000000D+00  0.0000000000000D+00  0.0000000000000D+00
297  2.9600000000000D+00  0.0000000000000D+00  0.0000000000000D+00
298  2.9700000000000D+00  0.0000000000000D+00  0.0000000000000D+00
299  2.9800000000000D+00  0.0000000000000D+00  0.0000000000000D+00
300  2.9900000000000D+00  0.0000000000000D+00  0.0000000000000D+00
301  3.0000000000000D+00  0.0000000000000D+00  0.0000000000000D+00
302  3.0100000000000D+00  0.0000000000000D+00  0.0000000000000D+00
303  3.0200000000000D+00  0.0000000000000D+00  0.0000000000000D+00
304  3.0300000000000D+00  0.0000000000000D+00  0.0000000000000D+00
305  3.0400000000000D+00  0.0000000000000D+00  0.0000000000000D+00
306  3.0500000000000D+00  0.0000000000000D+00  0.0000000000000D+00
307  3.0600000000000D+00  0.0000000000000D+00  0.0000000000000D+00
308  3.0700000000000D+00  0.0000000000000D+00  0.0000000000000D+00
309  3.0800000000000D+00  0.0000000000000D+00  0.0000000000000D+00
310  3.0900000000000D+00  0.0000000000000D+00  0.0000000000000D+00
311  3.1000000000000D+00  0.0000000000000D+00  0.0000000000000D+00
312  3.1100000000000D+00  0.0000000000000D+00  0.0000000000000D+00
313  3.1200000000000D+00  0.0000000000000D+00  0.0000000000000D+00
314  3.1300000000000D+00  0.0000000000000D+00  0.0000000000000D+00
315  3.1400000000000D+00  0.0000000000000D+00  0.0000000000000D+00
316  3.1500000000000D+00  0.0000000000000D+00  0.0000000000000D+00
317  3.1600000000000D+00  0.0000000000000D+00  0.0000000000000D+00
318  3.1700000000000D+00  0.0000000000000D+00  0.0000000000000D+00
319  3.1800000000000D+00  0.0000000000000D+00  0.0000000000000D+00
320  3.1900000000000D+00  0.0000000000000D+00  0.0000000000000D+00
321  3.2000000000000D+00  0.0000000000000D+00  0.0000000000000D+00
322  3.2100000000000D+00  0.0000000000000D+00  0.0000000000000D+00
323  3.2200000000000D+00  0.0000000000000D+00  0.0000000000000D+00
324  3.2300000000000D+00  0.0000000000000D+00  0.0000000000000D+00
325  3.2400000000000D+00  0.0000000000000D+00  0.0000000000000D+00
326  3.2500000000000D+00  0.0000000000000D+00  0.0000000000000D+00
327  3.2600000000000D+00  0.0000000000000D+00  0.0000000000000D+00
328  3.2700000000000D+00  0.0000000000000D+00  0.0000000000000D+00
329  3.2800000000000D+00  0.0000000000000D+00  0.0000000000000D+00
330  3.2900000000000D+00  0.0000000000000D+00  0.0000000000000D+00
331  3.3000000000000D+00  0.0000000000000D+00  0.0000000000000D+00
332  3.3100000000000D+00  0.0000000000000D+00  0.0000000000000D+00
333  3.3200000000000D+00  0.0000000000000D+00  0.0000000000000D+00
334  3.3300000000000D+00  0.0000000000000D+00  0.0000000000000D+00
335  3.3400000000000D+00  0.0000000000000D+00  0.0000000000000D+00
336  3.3500000000000D+00  0.0000000000000D+00  0.0000000000000D+00
337  3.3600000000000D+00  0.0000000000000D+00  0.0000000000000D+00
338  3.3700000000000D+00  0.0000000000000D+00  0.0000000000000D+00
339  3.3800000000000D+00  0.0000000000000D+00  0.0000000000000D+00
340  3.3900000000000D+00  0.0000000000000D+00  0.0000000000000D+00
341  3.4000000000000D+00  0.0000000000000D+00  0.0000000000000D+00
342  3.4100000000000D+00  0.0000000000000D+00  0.0000000000000D+00
343  3.4200000000000D+00  0.0000000000000D+00  0.0000000000000D+00
344  3.4300000000000D+00  0.0000000000000D+00  0.0000000000000D+00
345  3.4400000000000D+00  0.0000000000000D+00  0.0000000000000D+00
346  3.4500000000000D+00  0.0000000000000D+00  0.0000000000000D+00
347  3.4600000000000D+00  0.0000000000000D+00  0.0000000000000D+00
348  3.4700000000000D+00  0.0000000000000D+00  0.0000000000000D+00
349  3.4800000000000D+00  0.0000000000000D+00  0.0000000000000D+00
350  3.4900000000000D+00  0.0000000000000D+00  0.0000000000000D+00
351  3.5000000000000D+00  0.0000000000000D+00  0.0000000000000D+00
352  3.5100000000000D+00  0.0000000000000D+00  0.0000000000000D+00
353  3.5200000000000D+00  0.0000000000000D+00  0.0000000000000D+00
354  3.5300000000000D+00  0.0000000000000D+00  0.0000000000000D+00
355  3.5400000000000D+00  0.0000000000000D+00  0.0000000000000D+00
356  3.5500000000000D+00  0.0000000000000D+00  0.0000000000000D+00
357  3.5600000000000D+00  0.0000000000000D+00  0.0000000000000D+00
358  3.5700000000000D+00  0.0000000000000D+00  0.0000000000000D+00
359  3.5800000000000D+00  0.0000000000000D+00  0.0000000000000D+00
360  3.5900000000000D+00  0.0000000000000D+00  0.0000000000000D+00
361  3.6000000000000D+00  0.0000000000000D+00  0.0000000000000D+00
362  3.6100000000000D+00  0.0000000000000D+00  0.0000000000000D+00
363  3.6200000000000D+00  0.0000000000000D+00  0.0000000000000D+00
364  3.6300000000000D+00  0.0000000000000D+00  0.0000000000000D+00
365  3.6400000000000D+00  0.0000000000000D+00  0.0000000000000D+00
366  3.6500000000000D+00  0.0000000000000D+00  0.0000000000000D+00
367  3.6600000000000D+00  0.0000000000000D+00  0.0000000000000D+00
368  3.6700000000000D+00  0.0000000000000D+00  0.0000000000000D+00
369  3.6800000000000D+00  0.0000000000000D+00  0.0000000000000D+00
370  3.6900000000000D+00  0.0000000000000D+00  0.0000000000000D+00
371  3.7000000000000D+00  0.0000000000000D+00  0.0000000000000D+00
372  3.7100000000000D+00  0.0000000000000D+00  0.0000000000000D+00
373  3.7200000000000D+00  0.0000000000000D+00  0.0000000000000D+00
374  3.7300000000000D+00  0.0000000000000D+00  0.0000000000000D+00
375  3.7400000000000D+00  0.0000000000000D+00  0.0000000000000D+00
376  3.7500000000000D+00  0.0000000000000D+00  0.0000000000000D+00
377  3.7600000000000D+00  0.0000000000000D+00  0.0000000000000D+00
378  3.7700000000000D+00  0.0000000000000D+00  0.0000000000000D+00
379  3.7800000000000D+00  0.0000000000000D+00  0.0000000000000D+00
380  3.7900000000000D+00  0.0000000000000D+00  0.0000000000000D+00
381  3.8000000000000D+00  0.0000000000000D+00  0.0000000000000D+00
382  3.8100000000000D+00  0.0000000000000D+00  0.0000000000000D+00
383  3.8200000000000D+00  0.0000000000000D+00  0.0000000000000D+00
384  3.8300000000000D+00  0.0000000000000D+00  0.0000000000000D+00
385  3.8400000000000D+00  0.0000000000000D+00  0.0000000000000D+00
386  3.8500000000000D+00  0.0000000000000D+00  0.0000000000000D+00
387  3.8600000000000D+00  0.0000000000000D+00  0.0000000000000D+00
388  3.8700000000000D+00  0.0000000000000D+00  0.0000000000000D+00
389  3.8800000000000D+00  0.0000000000000D+00  0.0000000000000D+00
390  3.8900000000000D+00  0.0000000000000D+00  0.0000000000000D+00
391  3.9000000000000D+00  0.0000000000000D+00  0.0000000000000D+00
392  3.9100000000000D+00  0.0000000000000D+00  0.0000000000000D+00
393  3.9200000000000D+00  0.0000000000000D+00  0.0000000000000D+00
394  3.9300000000000D+00  0.0000000000000D+00  0.0000000000000D+00
395  3.9400000000000D+00  0.0000000000000D+00  0.0000000000000D+00
396  3.9500000000000D+00  0.0000000000000D+00  0.0000000000000D+00
397  3.9600000000000D+00  0.0000000000000D+00  0.0000000000000D+00
398  3.9700000000000D+00  0.0000000000000D+00  0.0000000000000D+00
399  3.9800000000000D+00  0.0000000000000D+00  0.0000000000000D+00
400  3.9900000000000D+00  0.0000000000000D+00  0.0000000000000D+00
401  4.0000000000000D+00  0.0000000000000D+00  0.0000000000000D+00
402  4.0100000000000D+00  0.0000000000000D+00  0.0000000000000D+00
403  4.0200000000000D+00  0.0000000000000D+00  0.0000000000000D+00
404  4.0300000000000D+00  0.0000000000000D+00  0.0000000000000D+00
405  4.0400000000000D+00  0.0000000000000D+00  0.0000000000000D+00
406  4.0500000000000D+00  0.0000000000000D+00  0.0000000000000D+00
407  4.0600000000000D+00  0.0000000000000D+00  0.0000000000000D+00
408  4.0700000000000D+00  0.0000000000000D+00  0.0000000000000D+00
409  4.0800000000000D+00  0.0000000000000D+00  0.0000000000000D+00
410  4.0900000000000D+00  0.0000000000000D+00  0.0000000000000D+00
411  4.1000000000000D+00  0.0000000000000D+00  0.0000000000000D+00
412  4.1100000000000D+00  0.0000000000000D+00  0.0000000000000D+00
413  4.1200000000000D+00  0.0000000000000D+00  0.0000000000000D+00
414  4.1300000000000D+00  0.0000000000000D+00  0.0000000000000D+00
415  4.1400000000000D+00  0.0000000000000D+00  0.0000000000000D+00
416  4.1500000000000D+00  0.0000000000000D+00  0.0000000000000D+00
417  4.1600000000000D+00  0.0000000000000D+00  0.0000000000000D+00
418  4.1700000000000D+00  0.0000000000000D+00  0.0000000000000D+00
419  4.1800000000000D+00  0.0000000000000D+00  0.0000000000000D+00
420  4.1900000000000D+00  0.0000000000000D+00  0.0000000000000D+00
421  4.2000000000000D+00  0.0000000000000D+00  0.0000000000000D+00
422  4.2100000000000D+00  0.0000000000000D+00  0.0000000000000D+00
423  4.2200000000000D+00  0.0000000000000D+00  0.0000000000000D+00
424  4.2300000000000D+00  0.0000000000000D+00  0.0000000000000D+00
425  4.2400000000000D+00  0.0000000000000D+00  0.0000000000000D+00
426  4.2500000000000D+00  0.0000000000000D+00  0.0000000000000D+00
427  4.2600000000000D+00  0.0000000000000D+00  0.0000000000000D+00
428  4.2700000000000D+00  0.0000000000000D+00  0.0000000000000D+00
429  4.2800000000000D+00  0.0000000000000D+00  0.0000000000000D+00
430  4.2900000000000D+00  0.0000000000000D+00  0.0000000000000D+00
431  4.3000000000000D+00  0.0000000000000D+00  0.0000000000000D+00
432  4.3100000000000D+00  0.0000000000000D+00  0.0000000000000D+00
433  4.3200000000000D+00  0.0000000000000D+00  0.0000000000000D+00
434  4.3300000000000D+00  0.0000000000000D+00  0.0000000000000D+00
435  4.3400000000000D+00  0.0000000000000D+00  0.0000000000000D+00
436  4.3500000000000D+00  0.0000000000000D+00  0.0000000000000D+00
437  4.3600000000000D+00  0.0000000000000D+00  0.0000000000000D+00
438  4.3700000000000D+00  0.0000000000000D+00  0.0000000000000D+00
439  4.3800000000000D+00  0.0000000000000D+00  0.0000000000000D+00
440  4.3900000000000D+00  0.0000000000000D+00  0.0000000000000D+00
441  4.4000000000000D+00  0.0000000000000D+00  0.0000000000000D+00
442  4.4100000000000D+00  0.0000000000000D+00  0.0000000000000D+00
443  4.4200000000000D+00  0.0000000000000D+00  0.0000000000000D+00