Si    ONCVPSP  r_core=  2.21  2.21  2.40
14.0000      4.0000      161001    zatom,zion,pspd
8      11   2     4   600     0    pspcod,pspxc,lmax,lloc,mmax,r2well
5.99000000  4.00000000  0.00000000    rchrg fchrg qchrg
2     2     2     0     0    nproj
1                 extension_switch
0                         4.7219088636354D+00  4.5205322080593D-01
1  0.0000000000000D+00  5.9653670891890D-12 -1.7990886558295D-11
2  1.0000000000000D-02  2.5743292012143D-02  1.3233815455122D-02
3  2.0000000000000D-02  5.1491554798382D-02  2.6396151012828D-02
4  3.0000000000000D-02  7.7249666761269D-02  3.9415851243042D-02
5  4.0000000000000D-02  1.0302232196769D-01  5.2222408385298D-02
6  5.0000000000000D-02  1.2881393899804D-01  6.4746283025395D-02
7  6.0000000000000D-02  1.5462857101172D-01  7.6919220994892D-02
8  7.0000000000000D-02  1.8046981742719D-01  8.8674565255386D-02
9  8.0000000000000D-02  2.0634073760938D-01  9.9947561547494D-02
10  9.0000000000000D-02  2.3224376694922D-01  1.1067565660663D-01
11  1.0000000000000D-01  2.5818063571176D-01  1.2079878777440D-01
12  1.1000000000000D-01  2.8415229101894D-01  1.3025966286519D-01
13  1.2000000000000D-01  3.1015882232126D-01  1.3900402918238D-01
14  1.3000000000000D-01  3.3619939070010D-01  1.4698093061774D-01
15  1.4000000000000D-01  3.6227216232788D-01  1.5414295181016D-01
16  1.5000000000000D-01  3.8837424639802D-01  1.6044644838670D-01
17  1.6000000000000D-01  4.1450163781982D-01  1.6585176235886D-01
18  1.7000000000000D-01  4.4064916495595D-01  1.7032342180066D-01
19  1.8000000000000D-01  4.6681044266102D-01  1.7383032399220D-01
20  1.9000000000000D-01  4.9297783086006D-01  1.7634590127183D-01
21  2.0000000000000D-01  5.1914239888500D-01  1.7784826890339D-01
22  2.1000000000000D-01  5.4529389576531D-01  1.7832035433020D-01
23  2.2000000000000D-01  5.7142072664673D-01  1.7775000725536D-01
24  2.3000000000000D-01  5.9750993548876D-01  1.7613009005839D-01
25  2.4000000000000D-01  6.2354719416750D-01  1.7345854813015D-01
26  2.5000000000000D-01  6.4951679808635D-01  1.6973845978207D-01
27  2.6000000000000D-01  6.7540166837189D-01  1.6497806546117D-01
28  2.7000000000000D-01  7.0118336070709D-01  1.5919077607893D-01
29  2.8000000000000D-01  7.2684208082825D-01  1.5239516034003D-01
30  2.9000000000000D-01  7.5235670668642D-01  1.4461491103510D-01
31  3.0000000000000D-01  7.7770481724774D-01  1.3587879034069D-01
32  3.1000000000000D-01  8.0286272788159D-01  1.2622055424883D-01
33  3.2000000000000D-01  8.2780553225891D-01  1.1567885632715D-01
34  3.3000000000000D-01  8.5250715065770D-01  1.0429713108962D-01
35  3.4000000000000D-01  8.7694038454683D-01  9.2123457335495D-02
36  3.5000000000000D-01  9.0107697729415D-01  7.9210401891333D-02
37  3.6000000000000D-01  9.2488768082011D-01  6.5614844266565D-02
38  3.7000000000000D-01  9.4834232799349D-01  5.1397782807559D-02
39  3.8000000000000D-01  9.7140991054261D-01  3.6624123007523D-02
40  3.9000000000000D-01  9.9405866223192D-01  2.1362448700256D-02
41  4.0000000000000D-01  1.0162561470319D+00  5.6847769337180D-03
42  4.1000000000000D-01  1.0379693519887D+00 -1.0333702614635D-02
43  4.2000000000000D-01  1.0591647844798D+00 -2.6614902756348D-02
44  4.3000000000000D-01  1.0798085735222D+00 -4.3078127459823D-02
45  4.4000000000000D-01  1.0998665747818D+00 -5.9640373026879D-02
46  4.5000000000000D-01  1.1193044789149D+00 -7.6216640684099D-02
47  4.6000000000000D-01  1.1380879228588D+00 -9.2720259446365D-02
48  4.7000000000000D-01  1.1561826036705D+00 -1.0906321806417D-01
49  4.8000000000000D-01  1.1735543945035D+00 -1.2515650482590D-01
50  4.9000000000000D-01  1.1901694622983D+00 -1.4091045394887D-01
51  5.0000000000000D-01  1.2059943867526D+00 -1.5623509726134D-01
52  5.1000000000000D-01  1.2209962801301D+00 -1.7104051984962D-01
53  5.2000000000000D-01  1.2351429074572D+00 -1.8523721832214D-01
54  5.3000000000000D-01  1.2484028066540D+00 -1.9873646032394D-01
55  5.4000000000000D-01  1.2607454081419D+00 -2.1145064392288D-01
56  5.5000000000000D-01  1.2721411534657D+00 -2.2329365548063D-01
57  5.6000000000000D-01  1.2825616124727D+00 -2.3418122461928D-01
58  5.7000000000000D-01  1.2919795985871D+00 -2.4403127489705D-01
59  5.8000000000000D-01  1.3003692817258D+00 -2.5276426881478D-01
60  5.9000000000000D-01  1.3077062984050D+00 -2.6030354578768D-01
61  6.0000000000000D-01  1.3139678585928D+00 -2.6657565173610D-01
62  6.1000000000000D-01  1.3191328488732D+00 -2.7151065897216D-01
63  6.2000000000000D-01  1.3231819314962D+00 -2.7504247508870D-01
64  6.3000000000000D-01  1.3260976389003D+00 -2.7710913959090D-01
65  6.4000000000000D-01  1.3278644633089D+00 -2.7765310705001D-01
66  6.5000000000000D-01  1.3284689410140D+00 -2.7662151560317D-01
67  6.6000000000000D-01  1.3278997309818D+00 -2.7396643967205D-01
68  6.7000000000000D-01  1.3261476874289D+00 -2.6964512582655D-01
69  6.8000000000000D-01  1.3232059260406D+00 -2.6362021077823D-01
70  6.9000000000000D-01  1.3190698835220D+00 -2.5585992055070D-01
71  7.0000000000000D-01  1.3137373701966D+00 -2.4633824994025D-01
72  7.1000000000000D-01  1.3072086153892D+00 -2.3503512145109D-01
73  7.2000000000000D-01  1.2994863053573D+00 -2.2193652296332D-01
74  7.3000000000000D-01  1.2905756135588D+00 -2.0703462346954D-01
75  7.4000000000000D-01  1.2804842230723D+00 -1.9032786629628D-01
76  7.5000000000000D-01  1.2692223410137D+00 -1.7182103931040D-01
77  7.6000000000000D-01  1.2568027048228D+00 -1.5152532169593D-01
78  7.7000000000000D-01  1.2432405803206D+00 -1.2945830697583D-01
79  7.8000000000000D-01  1.2285537514713D+00 -1.0564400204254D-01
80  7.9000000000000D-01  1.2127625018110D+00 -8.0112802053160D-02
81  8.0000000000000D-01  1.1958895875372D+00 -5.2901441137898D-02
82  8.1000000000000D-01  1.1779602022848D+00 -2.4052918963869D-02
83  8.2000000000000D-01  1.1590019336444D+00  6.3835967092949D-03
84  8.3000000000000D-01  1.1390447115111D+00  3.8352891251406D-02
85  8.4000000000000D-01  1.1181207483835D+00  7.1793847837007D-02
86  8.5000000000000D-01  1.0962644717614D+00  1.0663961515587D-01
87  8.6000000000000D-01  1.0735124488249D+00  1.4281779764880D-01
88  8.7000000000000D-01  1.0499033036042D+00  1.8025066766791D-01
89  8.8000000000000D-01  1.0254776268819D+00  2.1885539887113D-01
90  8.9000000000000D-01  1.0002778790954D+00  2.5854432007432D-01
91  9.0000000000000D-01  9.7434828653823D-01  2.9922518869946D-01
92  9.1000000000000D-01  9.4773473118341D-01  3.4080148287608D-01
93  9.2000000000000D-01  9.2048463447903D-01  3.8317271117503D-01
94  9.3000000000000D-01  8.9264683549129D-01  4.2623473887833D-01
95  9.4000000000000D-01  8.6427146379261D-01  4.6988012961885D-01
96  9.5000000000000D-01  8.3540980751522D-01  5.1399850115618D-01
97  9.6000000000000D-01  8.0611417701074D-01  5.5847689399352D-01
98  9.7000000000000D-01  7.7643776457525D-01  6.0320015148285D-01
99  9.8000000000000D-01  7.4643450071679D-01  6.4805131001321D-01
100  9.9000000000000D-01  7.1615890745696D-01  6.9291199783094D-01
101  1.0000000000000D+00  6.8566594917287D-01  7.3766284099817D-01
102  1.0100000000000D+00  6.5501088149656D-01  7.8218387496085D-01
103  1.0200000000000D+00  6.2424909879929D-01  8.2635496016806D-01
104  1.0300000000000D+00  5.9343598079541D-01  8.7005620016039D-01
105  1.0400000000000D+00  5.6262673880652D-01  9.1316836052821D-01
106  1.0500000000000D+00  5.3187626222991D-01  9.5557328712945D-01
107  1.0600000000000D+00  5.0123896575698D-01  9.9715432195194D-01
108  1.0700000000000D+00  4.7076863788638D-01  1.0377967150071D+00
109  1.0800000000000D+00  4.4051829127411D-01  1.0773880306507D+00
110  1.0900000000000D+00  4.1054001545722D-01  1.1158185467411D+00
111  1.1000000000000D+00  3.8088483248128D-01  1.1529816450671D+00
112  1.1100000000000D+00  3.5160255595244D-01  1.1887741915044D+00
113  1.1200000000000D+00  3.2274165402310D-01  1.2230969043943D+00
114  1.1300000000000D+00  2.9434911680719D-01  1.2558547096813D+00
115  1.1400000000000D+00  2.6647032870455D-01  1.2869570813912D+00
116  1.1500000000000D+00  2.3914894610001D-01  1.3163183660780D+00
117  1.1600000000000D+00  2.1242678087880D-01  1.3438580899368D+00
118  1.1700000000000D+00  1.8634369018094D-01  1.3695012473400D+00
119  1.1800000000000D+00  1.6093747279498D-01  1.3931785696212D+00
120  1.1900000000000D+00  1.3624377256845D-01  1.4148267729982D+00
121  1.2000000000000D+00  1.1229598918219D-01  1.4343887846230D+00
122  1.2100000000000D+00  8.9125196606453D-02  1.4518139458309D+00
123  1.2200000000000D+00  6.6760069542037D-02  1.4670581917076D+00
124  1.2300000000000D+00  4.5226818101252D-02  1.4800842062402D+00
125  1.2400000000000D+00  2.4549130958229D-02  1.4908615523927D+00
126  1.2500000000000D+00  4.7481271759956D-03  1.4993667765174D+00
127  1.2600000000000D+00 -1.4157683125732D-02  1.5055834866409D+00
128  1.2700000000000D+00 -3.2152429137812D-02  1.5095024042872D+00
129  1.2800000000000D+00 -4.9222900655430D-02  1.5111213895474D+00
130  1.2900000000000D+00 -6.5358560234376D-02  1.5104454392395D+00
131  1.3000000000000D+00 -8.0551546196562D-02  1.5074866581561D+00
132  1.3100000000000D+00 -9.4796666473976D-02  1.5022642034064D+00
133  1.3200000000000D+00 -1.0809138333649D-01  1.4948042020281D+00
134  1.3300000000000D+00 -1.2043578910033D-01  1.4851396421996D+00
135  1.3400000000000D+00 -1.3183257289746D-01  1.4733102383360D+00
136  1.3500000000000D+00 -1.4228697867222D-01  1.4593622706096D+00
137  1.3600000000000D+00 -1.5180675459752D-01  1.4433483995161D+00
138  1.3700000000000D+00 -1.6040209408128D-01  1.4253274560410D+00
139  1.3800000000000D+00 -1.6808556865716D-01  1.4053642083559D+00
140  1.3900000000000D+00 -1.7487205300828D-01  1.3835291058341D+00
141  1.4000000000000D+00 -1.8077864242291D-01  1.3598980013298D+00
142  1.4100000000000D+00 -1.8582456305700D-01  1.3345518528906D+00
143  1.4200000000000D+00 -1.9003107530883D-01  1.3075764058676D+00
144  1.4300000000000D+00 -1.9342137074436D-01  1.2790618567838D+00
145  1.4400000000000D+00 -1.9602046296129D-01  1.2491025001724D+00
146  1.4500000000000D+00 -1.9785507281619D-01  1.2177963597049D+00
147  1.4600000000000D+00 -1.9895350851038D-01  1.1852448051407D+00
148  1.4700000000000D+00 -1.9934554094924D-01  1.1515521563904D+00
149  1.4800000000000D+00 -1.9906227492459D-01  1.1168252763836D+00
150  1.4900000000000D+00 -1.9813601658076D-01  1.0811731541695D+00
151  1.5000000000000D+00 -1.9660013770574D-01  1.0447064799172D+00
152  1.5100000000000D+00 -1.9448893736809D-01  1.0075372134167D+00
153  1.5200000000000D+00 -1.9183750143110D-01  9.6977814772182D-01
154  1.5300000000000D+00 -1.8868156049434D-01  9.3154246961498D-01
155  1.5400000000000D+00 -1.8505734680041D-01  8.9294331855545D-01
156  1.5500000000000D+00 -1.8100145070178D-01  8.5409334624569D-01
157  1.5600000000000D+00 -1.7655067698806D-01  8.1510427602805D-01
158  1.5700000000000D+00 -1.7174190262769D-01  7.7608647330392D-01
159  1.5800000000000D+00 -1.6661193293080D-01  7.3714849691067D-01
160  1.5900000000000D+00 -1.6119736054429D-01  6.9839666407319D-01
161  1.6000000000000D+00 -1.5553444221387D-01  6.5993477984698D-01
162  1.6100000000000D+00 -1.4965894420163D-01  6.2186354557959D-01
163  1.6200000000000D+00 -1.4360597186011D-01  5.8427976806681D-01
164  1.6300000000000D+00 -1.3740982134863D-01  5.4727584600751D-01
165  1.6400000000000D+00 -1.3110382813314D-01  5.1093922624479D-01
166  1.6500000000000D+00 -1.2472025788204D-01  4.7535220968620D-01
167  1.6600000000000D+00 -1.1829021644342D-01  4.4059192033287D-01
168  1.6700000000000D+00 -1.1184355605687D-01  4.0673013892219D-01
169  1.6800000000000D+00 -1.0540879542299D-01  3.7383321726641D-01
170  1.6900000000000D+00 -9.9013047238433D-02  3.4196199655412D-01
171  1.7000000000000D+00 -9.2681954490557D-02  3.1117174712620D-01
172  1.7100000000000D+00 -8.6439635044989D-02  2.8151212339882D-01
173  1.7200000000000D+00 -8.0308634416430D-02  2.5302713593550D-01
174  1.7300000000000D+00 -7.4309886541078D-02  2.2575513866638D-01
175  1.7400000000000D+00 -6.8462682453355D-02  1.9972883269610D-01
176  1.7500000000000D+00 -6.2784646752854D-02  1.7497528611563D-01
177  1.7600000000000D+00 -5.7291721674028D-02  1.5151597010766D-01
178  1.7700000000000D+00 -5.1998158719713D-02  1.2936681177899D-01
179  1.7800000000000D+00 -4.6916517598474D-02  1.0853826331531D-01
180  1.7900000000000D+00 -4.2057672445409D-02  8.9035388210989D-02
181  1.8000000000000D+00 -3.7430825042734D-02  7.0857963960624D-02
182  1.8100000000000D+00 -3.3043524956817D-02  5.4000601658901D-02
183  1.8200000000000D+00 -2.8901696357571D-02  3.8452882164723D-02
184  1.8300000000000D+00 -2.5009671281061D-02  2.4199508447791D-02
185  1.8400000000000D+00 -2.1370229230812D-02  1.1220474441836D-02
186  1.8500000000000D+00 -1.7984642639696D-02 -5.0875117005570D-04
187  1.8600000000000D+00 -1.4852728282910D-02 -1.1017024985045D-02
188  1.8700000000000D+00 -1.1972903879713D-02 -2.0337315629114D-02
189  1.8800000000000D+00 -9.3422501469479D-03 -2.8506475216038D-02
190  1.8900000000000D+00 -6.9565774012549D-03 -3.5564999014932D-02
191  1.9000000000000D+00 -4.8104968805484D-03 -4.1556771814547D-02
192  1.9100000000000D+00 -2.8974960461904D-03 -4.6528803668749D-02
193  1.9200000000000D+00 -1.2100177123421D-03 -5.0530955031301D-02
194  1.9300000000000D+00  2.6045744008152D-04 -5.3615652601322D-02
195  1.9400000000000D+00  1.5233254699648D-03 -5.5837597484222D-02
196  1.9500000000000D+00  2.5887710897431D-03 -5.7253465818903D-02
197  1.9600000000000D+00  3.4676776181938D-03 -5.7921604543902D-02
198  1.9700000000000D+00  4.1715350925468D-03 -5.7901722077231D-02
199  1.9800000000000D+00  4.7123472252933D-03 -5.7254576463079D-02
200  1.9900000000000D+00  5.1025375269764D-03 -5.6041661620101D-02
201  2.0000000000000D+00  5.3548550685097D-03 -5.4324893267270D-02
202  2.0100000000000D+00  5.4822803447081D-03 -5.2166295961002D-02
203  2.0200000000000D+00  5.4979317317490D-03 -4.9627692610242D-02
204  2.0300000000000D+00  5.4149728162063D-03 -4.6770397533475D-02
205  2.0400000000000D+00  5.2465213466737D-03 -4.3654915162379D-02
206  2.0500000000000D+00  5.0055598822214D-03 -4.0340644789377D-02
207  2.0600000000000D+00  4.7048488253702D-03 -3.6885593409994D-02
208  2.0700000000000D+00  4.3568422698920D-03 -3.3346097998872D-02
209  2.0800000000000D+00  3.9736066376246D-03 -2.9776557203986D-02
210  2.0900000000000D+00  3.5667433246083D-03 -2.6229176172354D-02
211  2.1000000000000D+00  3.1473147331676D-03 -2.2753722652145D-02
212  2.1100000000000D+00  2.7257748333486D-03 -1.9397297890138D-02
213  2.1200000000000D+00  2.3119043696380D-03 -1.6204122703602D-02
214  2.1300000000000D+00  1.9147504344609D-03 -1.3215337880732D-02
215  2.1400000000000D+00  1.5430063290240D-03 -1.0471222570454D-02
216  2.1500000000000D+00  1.2035047895043D-03 -8.0029823326723D-03
217  2.1600000000000D+00  9.0194549661668D-04 -5.8368631931088D-03
218  2.1700000000000D+00  6.4076254058462D-04 -3.9846648610264D-03
219  2.1800000000000D+00  4.3438177584088D-04 -2.5188155569639D-03
220  2.1900000000000D+00  2.9279473295654D-04 -1.4874989295734D-03
221  2.2000000000000D+00  2.0916383381015D-04 -8.6085156452325D-04
222  2.2100000000000D+00  1.5391452403455D-04 -5.0198323647511D-04
223  2.2200000000000D+00  9.5097271357053D-05 -2.5842563240744D-04
224  2.2300000000000D+00  3.8033012237179D-05 -9.0930896951234D-05
225  2.2400000000000D+00 -2.8245785881537D-06  6.3687137884020D-06
226  2.2500000000000D+00 -1.2135748231459D-05  2.5525608135615D-05
227  2.2600000000000D+00 -5.9476564013511D-06  1.1851376921351D-05
228  2.2700000000000D+00  1.6648385162542D-06 -3.9732498205904D-06
229  2.2800000000000D+00  2.7953347259828D-06 -6.5387165925042D-06
230  2.2900000000000D+00  7.9694151758530D-07 -1.8327701818204D-06
231  2.3000000000000D+00 -3.2190735136556D-07  1.0045815960634D-06
232  2.3100000000000D+00 -3.6275021633984D-07  1.1320406003689D-06
233  2.3200000000000D+00 -1.1691725908376D-08  3.6486562434652D-08
234  2.3300000000000D+00  0.0000000000000D+00  0.0000000000000D+00
235  2.3400000000000D+00  0.0000000000000D+00  0.0000000000000D+00
236  2.3500000000000D+00  0.0000000000000D+00  0.0000000000000D+00
237  2.3600000000000D+00  0.0000000000000D+00  0.0000000000000D+00
238  2.3700000000000D+00  0.0000000000000D+00  0.0000000000000D+00
239  2.3800000000000D+00  0.0000000000000D+00  0.0000000000000D+00
240  2.3900000000000D+00  0.0000000000000D+00  0.0000000000000D+00
241  2.4000000000000D+00  0.0000000000000D+00  0.0000000000000D+00
242  2.4100000000000D+00  0.0000000000000D+00  0.0000000000000D+00
243  2.4200000000000D+00  0.0000000000000D+00  0.0000000000000D+00
244  2.4300000000000D+00  0.0000000000000D+00  0.0000000000000D+00
245  2.4400000000000D+00  0.0000000000000D+00  0.0000000000000D+00
246  2.4500000000000D+00  0.0000000000000D+00  0.0000000000000D+00
247  2.4600000000000D+00  0.0000000000000D+00  0.0000000000000D+00
248  2.4700000000000D+00  0.0000000000000D+00  0.0000000000000D+00
249  2.4800000000000D+00  0.0000000000000D+00  0.0000000000000D+00
250  2.4900000000000D+00  0.0000000000000D+00  0.0000000000000D+00
251  2.5000000000000D+00  0.0000000000000D+00  0.0000000000000D+00
252  2.5100000000000D+00  0.0000000000000D+00  0.0000000000000D+00
253  2.5200000000000D+00  0.0000000000000D+00  0.0000000000000D+00
254  2.5300000000000D+00  0.0000000000000D+00  0.0000000000000D+00
255  2.5400000000000D+00  0.0000000000000D+00  0.0000000000000D+00
256  2.5500000000000D+00  0.0000000000000D+00  0.0000000000000D+00
257  2.5600000000000D+00  0.0000000000000D+00  0.0000000000000D+00
258  2.5700000000000D+00  0.0000000000000D+00  0.0000000000000D+00
259  2.5800000000000D+00  0.0000000000000D+00  0.0000000000000D+00
260  2.5900000000000D+00  0.0000000000000D+00  0.0000000000000D+00
261  2.6000000000000D+00  0.0000000000000D+00  0.0000000000000D+00
262  2.6100000000000D+00  0.0000000000000D+00  0.0000000000000D+00
263  2.6200000000000D+00  0.0000000000000D+00  0.0000000000000D+00
264  2.6300000000000D+00  0.0000000000000D+00  0.0000000000000D+00
265  2.6400000000000D+00  0.0000000000000D+00  0.0000000000000D+00
266  2.6500000000000D+00  0.0000000000000D+00  0.0000000000000D+00
267  2.6600000000000D+00  0.0000000000000D+00  0.0000000000000D+00
268  2.6700000000000D+00  0.0000000000000D+00  0.0000000000000D+00
269  2.6800000000000D+00  0.0000000000000D+00  0.0000000000000D+00
270  2.6900000000000D+00  0.0000000000000D+00  0.0000000000000D+00
271  2.7000000000000D+00  0.0000000000000D+00  0.0000000000000D+00
272  2.7100000000000D+00  0.0000000000000D+00  0.0000000000000D+00
273  2.7200000000000D+00  0.0000000000000D+00  0.0000000000000D+00
274  2.7300000000000D+00  0.0000000000000D+00  0.0000000000000D+00
275  2.7400000000000D+00  0.0000000000000D+00  0.0000000000000D+00
276  2.7500000000000D+00  0.0000000000000D+00  0.0000000000000D+00
277  2.7600000000000D+00  0.0000000000000D+00  0.0000000000000D+00
278  2.7700000000000D+00  0.0000000000000D+00  0.0000000000000D+00
279  2.7800000000000D+00  0.0000000000000D+00  0.0000000000000D+00
280  2.7900000000000D+00  0.0000000000000D+00  0.0000000000000D+00
281  2.8000000000000D+00  0.0000000000000D+00  0.0000000000000D+00
282  2.8100000000000D+00  0.0000000000000D+00  0.0000000000000D+00
283  2.8200000000000D+00  0.0000000000000D+00  0.0000000000000D+00
284  2.8300000000000D+00  0.0000000000000D+00  0.0000000000000D+00
285  2.8400000000000D+00  0.0000000000000D+00  0.0000000000000D+00
286  2.8500000000000D+00  0.0000000000000D+00  0.0000000000000D+00
287  2.8600000000000D+00  0.0000000000000D+00  0.0000000000000D+00
288  2.8700000000000D+00  0.0000000000000D+00  0.0000000000000D+00
289  2.8800000000000D+00  0.0000000000000D+00  0.0000000000000D+00
290  2.8900000000000D+00  0.0000000000000D+00  0.0000000000000D+00
291  2.9000000000000D+00  0.0000000000000D+00  0.0000000000000D+00
292  2.9100000000000D+00  0.0000000000000D+00  0.0000000000000D+00
293  2.9200000000000D+00  0.0000000000000D+00  0.0000000000000D+00
294  2.9300000000000D+00  0.0000000000000D+00  0.0000000000000D+00
295  2.9400000000000D+00  0.0000000000000D+00  0.0000000000000D+00
296  2.9500000000000D+00  0.0000000000000D+00  0.0000000000000D+00
297  2.9600000000000D+00  0.0000000000000D+00  0.0000000000000D+00
298  2.9700000000000D+00  0.0000000000000D+00  0.0000000000000D+00
299  2.9800000000000D+00  0.0000000000000D+00  0.0000000000000D+00
300  2.9900000000000D+00  0.0000000000000D+00  0.0000000000000D+00
301  3.0000000000000D+00  0.0000000000000D+00  0.0000000000000D+00
302  3.0100000000000D+00  0.0000000000000D+00  0.0000000000000D+00
303  3.0200000000000D+00  0.0000000000000D+00  0.0000000000000D+00
304  3.0300000000000D+00  0.0000000000000D+00  0.0000000000000D+00
305  3.0400000000000D+00  0.0000000000000D+00  0.0000000000000D+00
306  3.0500000000000D+00  0.0000000000000D+00  0.0000000000000D+00
307  3.0600000000000D+00  0.0000000000000D+00  0.0000000000000D+00
308  3.0700000000000D+00  0.0000000000000D+00  0.0000000000000D+00
309  3.0800000000000D+00  0.0000000000000D+00  0.0000000000000D+00
310  3.0900000000000D+00  0.0000000000000D+00  0.0000000000000D+00
311  3.1000000000000D+00  0.0000000000000D+00  0.0000000000000D+00
312  3.1100000000000D+00  0.0000000000000D+00  0.0000000000000D+00
313  3.1200000000000D+00  0.0000000000000D+00  0.0000000000000D+00
314  3.1300000000000D+00  0.0000000000000D+00  0.0000000000000D+00
315  3.1400000000000D+00  0.0000000000000D+00  0.0000000000000D+00
316  3.1500000000000D+00  0.0000000000000D+00  0.0000000000000D+00
317  3.1600000000000D+00  0.0000000000000D+00  0.0000000000000D+00
318  3.1700000000000D+00  0.0000000000000D+00  0.0000000000000D+00
319  3.1800000000000D+00  0.0000000000000D+00  0.0000000000000D+00
320  3.1900000000000D+00  0.0000000000000D+00  0.0000000000000D+00
321  3.2000000000000D+00  0.0000000000000D+00  0.0000000000000D+00
322  3.2100000000000D+00  0.0000000000000D+00  0.0000000000000D+00
323  3.2200000000000D+00  0.0000000000000D+00  0.0000000000000D+00
324  3.2300000000000D+00  0.0000000000000D+00  0.0000000000000D+00
325  3.2400000000000D+00  0.0000000000000D+00  0.0000000000000D+00
326  3.2500000000000D+00  0.0000000000000D+00  0.0000000000000D+00
327  3.2600000000000D+00  0.0000000000000D+00  0.0000000000000D+00
328  3.2700000000000D+00  0.0000000000000D+00  0.0000000000000D+00
329  3.2800000000000D+00  0.0000000000000D+00  0.0000000000000D+00
330  3.2900000000000D+00  0.0000000000000D+00  0.0000000000000D+00
331  3.3000000000000D+00  0.0000000000000D+00  0.0000000000000D+00
332  3.3100000000000D+00  0.0000000000000D+00  0.0000000000000D+00
333  3.3200000000000D+00  0.0000000000000D+00  0.0000000000000D+00
334  3.3300000000000D+00  0.0000000000000D+00  0.0000000000000D+00
335  3.3400000000000D+00  0.0000000000000D+00  0.0000000000000D+00
336  3.3500000000000D+00  0.0000000000000D+00  0.0000000000000D+00
337  3.3600000000000D+00  0.0000000000000D+00  0.0000000000000D+00
338  3.3700000000000D+00  0.0000000000000D+00  0.0000000000000D+00
339  3.3800000000000D+00  0.0000000000000D+00  0.0000000000000D+00
340  3.3900000000000D+00  0.0000000000000D+00  0.0000000000000D+00
341  3.4000000000000D+00  0.0000000000000D+00  0.0000000000000D+00
342  3.4100000000000D+00  0.0000000000000D+00  0.0000000000000D+00
343  3.4200000000000D+00  0.0000000000000D+00  0.0000000000000D+00
344  3.4300000000000D+00  0.0000000000000D+00  0.0000000000000D+00
345  3.4400000000000D+00  0.0000000000000D+00  0.0000000000000D+00
346  3.4500000000000D+00  0.0000000000000D+00  0.0000000000000D+00
347  3.4600000000000D+00  0.0000000000000D+00  0.0000000000000D+00
348  3.4700000000000D+00  0.0000000000000D+00  0.0000000000000D+00
349  3.4800000000000D+00  0.0000000000000D+00  0.0000000000000D+00
350  3.4900000000000D+00  0.0000000000000D+00  0.0000000000000D+00
351  3.5000000000000D+00  0.0000000000000D+00  0.0000000000000D+00
352  3.5100000000000D+00  0.0000000000000D+00  0.0000000000000D+00
353  3.5200000000000D+00  0.0000000000000D+00  0.0000000000000D+00
354  3.5300000000000D+00  0.0000000000000D+00  0.0000000000000D+00
355  3.5400000000000D+00  0.0000000000000D+00  0.0000000000000D+00
356  3.5500000000000D+00  0.0000000000000D+00  0.0000000000000D+00
357  3.5600000000000D+00  0.0000000000000D+00  0.0000000000000D+00
358  3.5700000000000D+00  0.0000000000000D+00  0.0000000000000D+00
359  3.5800000000000D+00  0.0000000000000D+00  0.0000000000000D+00
360  3.5900000000000D+00  0.0000000000000D+00  0.0000000000000D+00
361  3.6000000000000D+00  0.0000000000000D+00  0.0000000000000D+00
362  3.6100000000000D+00  0.0000000000000D+00  0.0000000000000D+00
363  3.6200000000000D+00  0.0000000000000D+00  0.0000000000000D+00
364  3.6300000000000D+00  0.0000000000000D+00  0.0000000000000D+00
365  3.6400000000000D+00  0.0000000000000D+00  0.0000000000000D+00
366  3.6500000000000D+00  0.0000000000000D+00  0.0000000000000D+00
367  3.6600000000000D+00  0.0000000000000D+00  0.0000000000000D+00
368  3.6700000000000D+00  0.0000000000000D+00  0.0000000000000D+00
369  3.6800000000000D+00  0.0000000000000D+00  0.0000000000000D+00
370  3.6900000000000D+00  0.0000000000000D+00  0.0000000000000D+00
371  3.7000000000000D+00  0.0000000000000D+00  0.0000000000000D+00
372  3.7100000000000D+00  0.0000000000000D+00  0.0000000000000D+00
373  3.7200000000000D+00  0.0000000000000D+00  0.0000000000000D+00
374  3.7300000000000D+00  0.0000000000000D+00  0.0000000000000D+00
375  3.7400000000000D+00  0.0000000000000D+00  0.0000000000000D+00
376  3.7500000000000D+00  0.0000000000000D+00  0.0000000000000D+00
377  3.7600000000000D+00  0.0000000000000D+00  0.0000000000000D+00
378  3.7700000000000D+00  0.0000000000000D+00  0.0000000000000D+00
379  3.7800000000000D+00  0.0000000000000D+00  0.0000000000000D+00
380  3.7900000000000D+00  0.0000000000000D+00  0.0000000000000D+00
381  3.8000000000000D+00  0.0000000000000D+00  0.0000000000000D+00
382  3.8100000000000D+00  0.0000000000000D+00  0.0000000000000D+00
383  3.8200000000000D+00  0.0000000000000D+00  0.0000000000000D+00
384  3.8300000000000D+00  0.0000000000000D+00  0.0000000000000D+00
385  3.8400000000000D+00  0.0000000000000D+00  0.0000000000000D+00
386  3.8500000000000D+00  0.0000000000000D+00  0.0000000000000D+00
387  3.8600000000000D+00  0.0000000000000D+00  0.0000000000000D+00
388  3.8700000000000D+00  0.0000000000000D+00  0.0000000000000D+00
389  3.8800000000000D+00  0.0000000000000D+00  0.0000000000000D+00
390  3.8900000000000D+00  0.0000000000000D+00  0.0000000000000D+00
391  3.9000000000000D+00  0.0000000000000D+00  0.0000000000000D+00
392  3.9100000000000D+00  0.0000000000000D+00  0.0000000000000D+00
393  3.9200000000000D+00  0.0000000000000D+00  0.0000000000000D+00
394  3.9300000000000D+00  0.0000000000000D+00  0.0000000000000D+00
395  3.9400000000000D+00  0.0000000000000D+00  0.0000000000000D+00
396  3.9500000000000D+00  0.0000000000000D+00  0.0000000000000D+00
397  3.9600000000000D+00  0.0000000000000D+00  0.0000000000000D+00
398  3.9700000000000D+00  0.0000000000000D+00  0.0000000000000D+00
399  3.9800000000000D+00  0.0000000000000D+00  0.0000000000000D+00
400  3.9900000000000D+00  0.0000000000000D+00  0.0000000000000D+00
401  4.0000000000000D+00  0.0000000000000D+00  0.0000000000000D+00
402  4.0100000000000D+00  0.0000000000000D+00  0.0000000000000D+00
403  4.0200000000000D+00  0.0000000000000D+00  0.0000000000000D+00
404  4.0300000000000D+00  0.0000000000000D+00  0.0000000000000D+00
405  4.0400000000000D+00  0.0000000000000D+00  0.0000000000000D+00
406  4.0500000000000D+00  0.0000000000000D+00  0.0000000000000D+00
407  4.0600000000000D+00  0.0000000000000D+00  0.0000000000000D+00
408  4.0700000000000D+00  0.0000000000000D+00  0.0000000000000D+00
409  4.0800000000000D+00  0.0000000000000D+00  0.0000000000000D+00
410  4.0900000000000D+00  0.0000000000000D+00  0.0000000000000D+00
411  4.1000000000000D+00  0.0000000000000D+00  0.0000000000000D+00
412  4.1100000000000D+00  0.0000000000000D+00  0.0000000000000D+00
413  4.1200000000000D+00  0.0000000000000D+00  0.0000000000000D+00
414  4.1300000000000D+00  0.0000000000000D+00  0.0000000000000D+00
415  4.1400000000000D+00  0.0000000000000D+00  0.0000000000000D+00
416  4.1500000000000D+00  0.0000000000000D+00  0.0000000000000D+00
417  4.1600000000000D+00  0.0000000000000D+00  0.0000000000000D+00
418  4.1700000000000D+00  0.0000000000000D+00  0.0000000000000D+00
419  4.1800000000000D+00  0.0000000000000D+00  0.0000000000000D+00
420  4.1900000000000D+00  0.0000000000000D+00  0.0000000000000D+00
421  4.2000000000000D+00  0.0000000000000D+00  0.0000000000000D+00
422  4.2100000000000D+00  0.0000000000000D+00  0.0000000000000D+00
423  4.2200000000000D+00  0.0000000000000D+00  0.0000000000000D+00
424  4.2300000000000D+00  0.0000000000000D+00  0.0000000000000D+00
425  4.2400000000000D+00  0.0000000000000D+00  0.0000000000000D+00
426  4.2500000000000D+00  0.0000000000000D+00  0.0000000000000D+00
427  4.2600000000000D+00  0.0000000000000D+00  0.0000000000000D+00
428  4.2700000000000D+00  0.0000000000000D+00  0.0000000000000D+00
429  4.2800000000000D+00  0.0000000000000D+00  0.0000000000000D+00
430  4.2900000000000D+00  0.0000000000000D+00  0.0000000000000D+00
431  4.3000000000000D+00  0.0000000000000D+00  0.0000000000000D+00
432  4.3100000000000D+00  0.0000000000000D+00  0.0000000000000D+00
433  4.3200000000000D+00  0.0000000000000D+00  0.0000000000000D+00
434  4.3300000000000D+00  0.0000000000000D+00  0.0000000000000D+00
435  4.3400000000000D+00  0.0000000000000D+00  0.0000000000000D+00
436  4.3500000000000D+00  0.0000000000000D+00  0.0000000000000D+00
437  4.3600000000000D+00  0.0000000000000D+00  0.0000000000000D+00
438  4.3700000000000D+00  0.0000000000000D+00  0.0000000000000D+00
439  4.3800000000000D+00  0.0000000000000D+00  0.0000000000000D+00
440  4.3900000000000D+00  0.0000000000000D+00  0.0000000000000D+00
441  4.4000000000000D+00  0.0000000000000D+00  0.0000000000000D+00
442  4.4100000000000D+00  0.0000000000000D+00  0.0000000000000D+00
443  4.4200000000000D+00  0.0000000000000D+00  0.0000000000000D+00
444  4.4300000000000D+00  0.0000000000000D+00  0.0000000000000D+00