As    ONCVPSP  r_core=  1.77  1.61  1.81
33.0000     15.0000      160625    zatom,zion,pspd
8      11   2     4   600     0    pspcod,pspxc,lmax,lloc,mmax,r2well
5.99000000  5.00000000  0.00000000    rchrg fchrg qchrg
2     2     2     0     0    nproj
1                 extension_switch
0                         7.4831462456494D+00  7.6287817179645D-01
1  0.0000000000000D+00 -2.0605739337043D-13 -4.4254253039888D-11
2  1.0000000000000D-02  3.2397883816859D-02 -8.9363867295960D-03
3  2.0000000000000D-02  6.4782561663093D-02 -1.7899980679178D-02
4  3.0000000000000D-02  9.7140797413149D-02 -2.6917664188245D-02
5  4.0000000000000D-02  1.2945929474937D-01 -3.6015671865692D-02
6  5.0000000000000D-02  1.6172466736040D-01 -4.5219271789196D-02
7  6.0000000000000D-02  1.9392340949302D-01 -5.4552452750942D-02
8  7.0000000000000D-02  2.2604186697569D-01 -6.4037619513129D-02
9  8.0000000000000D-02  2.5806620883200D-01 -7.3695297992466D-02
10  9.0000000000000D-02  2.8998239960260D-01 -8.3543852238080D-02
11  1.0000000000000D-01  3.2177617249463D-01 -9.3599215002023D-02
12  1.1000000000000D-01  3.5343300347760D-01 -1.0387463362643D-01
13  1.2000000000000D-01  3.8493808644516D-01 -1.1438043288669D-01
14  1.3000000000000D-01  4.1627630956231D-01 -1.2512379633593D-01
15  1.4000000000000D-01  4.4743223291766D-01 -1.3610856759371D-01
16  1.5000000000000D-01  4.7839006760056D-01 -1.4733507291111D-01
17  1.6000000000000D-01  5.0913365632234D-01 -1.5879996622606D-01
18  1.7000000000000D-01  5.3964645570131D-01 -1.7049609779781D-01
19  1.8000000000000D-01  5.6991152032980D-01 -1.8241240737796D-01
20  1.9000000000000D-01  5.9991148874160D-01 -1.9453384273855D-01
21  2.0000000000000D-01  6.2962857139649D-01 -2.0684130423611D-01
22  2.1000000000000D-01  6.5904454079757D-01 -2.1931161594443D-01
23  2.2000000000000D-01  6.8814072385525D-01 -2.3191752374000D-01
24  2.3000000000000D-01  7.1689799660967D-01 -2.4462772057245D-01
25  2.4000000000000D-01  7.4529678142081D-01 -2.5740689899854D-01
26  2.5000000000000D-01  7.7331704673244D-01 -2.7021583090487D-01
27  2.6000000000000D-01  8.0093830951275D-01 -2.8301147418938D-01
28  2.7000000000000D-01  8.2813964047011D-01 -2.9574710601901D-01
29  2.8000000000000D-01  8.5489967213802D-01 -3.0837248212861D-01
30  2.9000000000000D-01  8.8119660991779D-01 -3.2083402147698D-01
31  3.0000000000000D-01  9.0700824616196D-01 -3.3307501542994D-01
32  3.1000000000000D-01  9.3231197737420D-01 -3.4503586049794D-01
33  3.2000000000000D-01  9.5708482459491D-01 -3.5665431351883D-01
34  3.3000000000000D-01  9.8130345703307D-01 -3.6786576804453D-01
35  3.4000000000000D-01  1.0049442189965D+00 -3.7860355056522D-01
36  3.5000000000000D-01  1.0279831601631D+00 -3.8879923508618D-01
37  3.6000000000000D-01  1.0503960692250D+00 -3.9838297446174D-01
38  3.7000000000000D-01  1.0721585109278D+00 -4.0728384678877D-01
39  3.8000000000000D-01  1.0932458665128D+00 -4.1543021506844D-01
40  3.9000000000000D-01  1.1136333775607D+00 -4.2275009826067D-01
41  4.0000000000000D-01  1.1332961932192D+00 -4.2917155178238D-01
42  4.1000000000000D-01  1.1522094207854D+00 -4.3462305543565D-01
43  4.2000000000000D-01  1.1703481795960D+00 -4.3903390670010D-01
44  4.3000000000000D-01  1.1876876581675D+00 -4.4233461728047D-01
45  4.4000000000000D-01  1.2042031745080D+00 -4.4445731077063D-01
46  4.5000000000000D-01  1.2198702395085D+00 -4.4533611927536D-01
47  4.6000000000000D-01  1.2346646233043D+00 -4.4490757682402D-01
48  4.7000000000000D-01  1.2485624244788D+00 -4.4311100741386D-01
49  4.8000000000000D-01  1.2615401419639D+00 -4.3988890553722D-01
50  4.9000000000000D-01  1.2735747494757D+00 -4.3518730707377D-01
51  5.0000000000000D-01  1.2846437723015D+00 -4.2895614846861D-01
52  5.1000000000000D-01  1.2947253662390D+00 -4.2114961216717D-01
53  5.2000000000000D-01  1.3037983984696D+00 -4.1172645633969D-01
54  5.3000000000000D-01  1.3118425301272D+00 -4.0065032700080D-01
55  5.4000000000000D-01  1.3188383003081D+00 -3.8789005071244D-01
56  5.5000000000000D-01  1.3247672112480D+00 -3.7341990615171D-01
57  5.6000000000000D-01  1.3296118143744D+00 -3.5721987292790D-01
58  5.7000000000000D-01  1.3333557969269D+00 -3.3927585614461D-01
59  5.8000000000000D-01  1.3359840688197D+00 -3.1957988532346D-01
60  5.9000000000000D-01  1.3374828494066D+00 -2.9813028643363D-01
61  6.0000000000000D-01  1.3378397537917D+00 -2.7493182590660D-01
62  6.1000000000000D-01  1.3370438783176D+00 -2.4999582565792D-01
63  6.2000000000000D-01  1.3350858848487D+00 -2.2334024828400D-01
64  6.3000000000000D-01  1.3319580834563D+00 -1.9498975175529D-01
65  6.4000000000000D-01  1.3276545131013D+00 -1.6497571308259D-01
66  6.5000000000000D-01  1.3221710199040D+00 -1.3333622059322D-01
67  6.6000000000000D-01  1.3155053325804D+00 -1.0011603461534D-01
68  6.7000000000000D-01  1.3076571346234D+00 -6.5366516532237D-02
69  6.8000000000000D-01  1.2986281327993D+00 -2.9145526331447D-02
70  6.9000000000000D-01  1.2884221215337D+00  8.4827110620268D-03
71  7.0000000000000D-01  1.2770450427575D+00  4.7447770217475D-02
72  7.1000000000000D-01  1.2645050407903D+00  8.7673219784637D-02
73  7.2000000000000D-01  1.2508125118405D+00  1.2907684646597D-01
74  7.3000000000000D-01  1.2359801477127D+00  1.7157090745394D-01
75  7.4000000000000D-01  1.2200229733182D+00  2.1506241026443D-01
76  7.5000000000000D-01  1.2029583776027D+00  2.5945341875356D-01
77  7.6000000000000D-01  1.1848061375147D+00  3.0464138397004D-01
78  7.7000000000000D-01  1.1655884346589D+00  3.5051949836513D-01
79  7.8000000000000D-01  1.1453298642979D+00  3.9697707176082D-01
80  7.9000000000000D-01  1.1240574363868D+00  4.4389992736467D-01
81  8.0000000000000D-01  1.1018005683520D+00  4.9117081601504D-01
82  8.1000000000000D-01  1.0785910693517D+00  5.3866984674706D-01
83  8.2000000000000D-01  1.0544631157846D+00  5.8627493168538D-01
84  8.3000000000000D-01  1.0294532178462D+00  6.3386224319685D-01
85  8.4000000000000D-01  1.0036001769667D+00  6.8130668117375D-01
86  8.5000000000000D-01  9.7694503399871D-01  7.2848234826759D-01
87  8.6000000000000D-01  9.4953100806374D-01  7.7526303085456D-01
88  8.7000000000000D-01  9.2140342600388D-01  8.2152268348586D-01
89  8.8000000000000D-01  8.9260964242932D-01  8.6713591456119D-01
90  8.9000000000000D-01  8.6319895039371D-01  9.1197847096011D-01
91  9.0000000000000D-01  8.3322248277496D-01  9.5592771937469D-01
92  9.1000000000000D-01  8.0273310448441D-01  9.9886312210716D-01
93  9.2000000000000D-01  7.7178529567413D-01  1.0406667051286D+00
94  9.3000000000000D-01  7.4043502615925D-01  1.0812235162384D+00
95  9.4000000000000D-01  7.0873962132025D-01  1.1204220712193D+00
96  9.5000000000000D-01  6.7675761979791D-01  1.1581547859477D+00
97  9.6000000000000D-01  6.4454862334146D-01  1.1943183924968D+00
98  9.7000000000000D-01  6.1217313921890D-01  1.2288143373542D+00
99  9.8000000000000D-01  5.7969241564391D-01  1.2615491599722D+00
100  9.9000000000000D-01  5.4716827072144D-01  1.2924348499728D+00
101  1.0000000000000D+00  5.1466291545846D-01  1.3213891814424D+00
102  1.0100000000000D+00  4.8223877142961D-01  1.3483360228698D+00
103  1.0200000000000D+00  4.4995828372995D-01  1.3732056214081D+00
104  1.0300000000000D+00  4.1788372988612D-01  1.3959348602734D+00
105  1.0400000000000D+00  3.8607702543615D-01  1.4164674882345D+00
106  1.0500000000000D+00  3.5459952692029D-01  1.4347543202768D+00
107  1.0600000000000D+00  3.2351183306115D-01  1.4507534086868D+00
108  1.0700000000000D+00  2.9287358493792D-01  1.4644301839374D+00
109  1.0800000000000D+00  2.6274326598593D-01  1.4757575649084D+00
110  1.0900000000000D+00  2.3317800267588D-01  1.4847160381345D+00
111  1.1000000000000D+00  2.0423336674329D-01  1.4912937058983D+00
112  1.1100000000000D+00  1.7596317985646D-01  1.4954863031685D+00
113  1.1200000000000D+00  1.4841932161928D-01  1.4972971835051D+00
114  1.1300000000000D+00  1.2165154181167D-01  1.4967372742171D+00
115  1.1400000000000D+00  9.5707277772554D-02  1.4938250011732D+00
116  1.1500000000000D+00  7.0631477827743D-02  1.4885861838311D+00
117  1.1600000000000D+00  4.6466431657010D-02  1.4810539011662D+00
118  1.1700000000000D+00  2.3251608479568D-02  1.4712683293224D+00
119  1.1800000000000D+00  1.0235039275247D-03  1.4592765518915D+00
120  1.1900000000000D+00 -2.0184503552013D-02  1.4451323438858D+00
121  1.2000000000000D+00 -4.0342285950500D-02  1.4288959305495D+00
122  1.2100000000000D+00 -5.9423087823558D-02  1.4106337222521D+00
123  1.2200000000000D+00 -7.7403636531078D-02  1.3904180267888D+00
124  1.2300000000000D+00 -9.4264239889693D-02  1.3683267405173D+00
125  1.2400000000000D+00 -1.0998887058329D-01  1.3444430198138D+00
126  1.2500000000000D+00 -1.2456523669027D-01  1.3188549343719D+00
127  1.2600000000000D+00 -1.3798483778670D-01  1.2916551039659D+00
128  1.2700000000000D+00 -1.5024300613089D-01  1.2629403203047D+00
129  1.2800000000000D+00 -1.6133893244889D-01  1.2328111556348D+00
130  1.2900000000000D+00 -1.7127567596793D-01  1.2013715597996D+00
131  1.3000000000000D+00 -1.8006015840400D-01  1.1687284474388D+00
132  1.3100000000000D+00 -1.8770314160163D-01  1.1349912770405D+00
133  1.3200000000000D+00 -1.9421918870610D-01  1.1002716235423D+00
134  1.3300000000000D+00 -1.9962660878020D-01  1.0646827461371D+00
135  1.3400000000000D+00 -2.0394738477485D-01  1.0283391529761D+00
136  1.3500000000000D+00 -2.0720708499557D-01  9.9135616434795D-01
137  1.3600000000000D+00 -2.0943475816173D-01  9.5384947591710D-01
138  1.3700000000000D+00 -2.1066281223663D-01  9.1593472358791D-01
139  1.3800000000000D+00 -2.1092687741883D-01  8.7772705138073D-01
140  1.3900000000000D+00 -2.1026565355482D-01  8.3934068381548D-01
141  1.4000000000000D+00 -2.0872074248815D-01  8.0088850409523D-01
142  1.4100000000000D+00 -2.0633646589552D-01  7.6248163930488D-01
143  1.4200000000000D+00 -2.0315966909539D-01  7.2422905395112D-01
144  1.4300000000000D+00 -1.9923951166396D-01  6.8623715275235D-01
145  1.4400000000000D+00 -1.9462724545522D-01  6.4860939386779D-01
146  1.4500000000000D+00 -1.8937598091938D-01  6.1144591340578D-01
147  1.4600000000000D+00 -1.8354044260310D-01  5.7484316200794D-01
148  1.4700000000000D+00 -1.7717671466874D-01  5.3889355443860D-01
149  1.4800000000000D+00 -1.7034197758909D-01  5.0368513254577D-01
150  1.4900000000000D+00 -1.6309423687262D-01  4.6930124250239D-01
151  1.5000000000000D+00 -1.5549204508100D-01  4.3582022649788D-01
152  1.5100000000000D+00 -1.4759421815519D-01  4.0331512948096D-01
153  1.5200000000000D+00 -1.3945954727848D-01  3.7185342118871D-01
154  1.5300000000000D+00 -1.3114650747490D-01  3.4149673362374D-01
155  1.5400000000000D+00 -1.2271296414108D-01  3.1230061432669D-01
156  1.5500000000000D+00 -1.1421587864780D-01  2.8431429419409D-01
157  1.5600000000000D+00 -1.0571101445786D-01  2.5758047168568D-01
158  1.5700000000000D+00 -9.7252645382596D-02  2.3213511587090D-01
159  1.5800000000000D+00 -8.8893266417725D-02  2.0800727920652D-01
160  1.5900000000000D+00 -8.0683334936975D-02  1.8521909028320D-01
161  1.6000000000000D+00 -7.2670903729854D-02  1.6378505972662D-01
162  1.6100000000000D+00 -6.4901408517059D-02  1.4371230122634D-01
163  1.6200000000000D+00 -5.7417684799425D-02  1.2500220542253D-01
164  1.6300000000000D+00 -5.0259939269634D-02  1.0765164198866D-01
165  1.6400000000000D+00 -4.3465825769437D-02  9.1654615429132D-02
166  1.6500000000000D+00 -3.7070362582675D-02  7.7002882551890D-02
167  1.6600000000000D+00 -3.1105686237642D-02  6.3685428233671D-02
168  1.6700000000000D+00 -2.5600907008513D-02  5.1688553281468D-02
169  1.6800000000000D+00 -2.0581971297575D-02  4.0995962876591D-02
170  1.6900000000000D+00 -1.6071518854736D-02  3.1588745503133D-02
171  1.7000000000000D+00 -1.2088756860031D-02  2.3445395527104D-02
172  1.7100000000000D+00 -8.6509401065663D-03  1.6544369009681D-02
173  1.7200000000000D+00 -5.7667465992883D-03  1.0853662171460D-02
174  1.7300000000000D+00 -3.4367928282584D-03  6.3328033693299D-03
175  1.7400000000000D+00 -1.6827556228110D-03  2.9755327858211D-03
176  1.7500000000000D+00 -5.2630071653305D-04  7.7410429111600D-04
177  1.7600000000000D+00  7.3596183868163D-05 -3.5590266732991D-04
178  1.7700000000000D+00  2.2600357467732D-04 -5.8795088978920D-04
179  1.7800000000000D+00  1.1344122557506D-04 -2.7573635986095D-04
180  1.7900000000000D+00 -2.1504059502930D-05  5.1402431890293D-05
181  1.8000000000000D+00 -3.7132803407454D-05  8.7537129854428D-05
182  1.8100000000000D+00  2.0180801827195D-06 -4.9196022209074D-06
183  1.8200000000000D+00  8.4509401118932D-06 -2.0472461345465D-05
184  1.8300000000000D+00  4.1825930554400D-07 -1.0085289878585D-06
185  1.8400000000000D+00 -6.0054840301080D-07  1.6816328827306D-06
186  1.8500000000000D+00 -1.8636064814114D-07  5.2184002553328D-07
187  1.8600000000000D+00  0.0000000000000D+00  0.0000000000000D+00
188  1.8700000000000D+00  0.0000000000000D+00  0.0000000000000D+00
189  1.8800000000000D+00  0.0000000000000D+00  0.0000000000000D+00
190  1.8900000000000D+00  0.0000000000000D+00  0.0000000000000D+00
191  1.9000000000000D+00  0.0000000000000D+00  0.0000000000000D+00
192  1.9100000000000D+00  0.0000000000000D+00  0.0000000000000D+00
193  1.9200000000000D+00  0.0000000000000D+00  0.0000000000000D+00
194  1.9300000000000D+00  0.0000000000000D+00  0.0000000000000D+00
195  1.9400000000000D+00  0.0000000000000D+00  0.0000000000000D+00
196  1.9500000000000D+00  0.0000000000000D+00  0.0000000000000D+00
197  1.9600000000000D+00  0.0000000000000D+00  0.0000000000000D+00
198  1.9700000000000D+00  0.0000000000000D+00  0.0000000000000D+00
199  1.9800000000000D+00  0.0000000000000D+00  0.0000000000000D+00
200  1.9900000000000D+00  0.0000000000000D+00  0.0000000000000D+00
201  2.0000000000000D+00  0.0000000000000D+00  0.0000000000000D+00
202  2.0100000000000D+00  0.0000000000000D+00  0.0000000000000D+00
203  2.0200000000000D+00  0.0000000000000D+00  0.0000000000000D+00
204  2.0300000000000D+00  0.0000000000000D+00  0.0000000000000D+00
205  2.0400000000000D+00  0.0000000000000D+00  0.0000000000000D+00
206  2.0500000000000D+00  0.0000000000000D+00  0.0000000000000D+00
207  2.0600000000000D+00  0.0000000000000D+00  0.0000000000000D+00
208  2.0700000000000D+00  0.0000000000000D+00  0.0000000000000D+00
209  2.0800000000000D+00  0.0000000000000D+00  0.0000000000000D+00
210  2.0900000000000D+00  0.0000000000000D+00  0.0000000000000D+00
211  2.1000000000000D+00  0.0000000000000D+00  0.0000000000000D+00
212  2.1100000000000D+00  0.0000000000000D+00  0.0000000000000D+00
213  2.1200000000000D+00  0.0000000000000D+00  0.0000000000000D+00
214  2.1300000000000D+00  0.0000000000000D+00  0.0000000000000D+00
215  2.1400000000000D+00  0.0000000000000D+00  0.0000000000000D+00
216  2.1500000000000D+00  0.0000000000000D+00  0.0000000000000D+00
217  2.1600000000000D+00  0.0000000000000D+00  0.0000000000000D+00
218  2.1700000000000D+00  0.0000000000000D+00  0.0000000000000D+00
219  2.1800000000000D+00  0.0000000000000D+00  0.0000000000000D+00
220  2.1900000000000D+00  0.0000000000000D+00  0.0000000000000D+00
221  2.2000000000000D+00  0.0000000000000D+00  0.0000000000000D+00
222  2.2100000000000D+00  0.0000000000000D+00  0.0000000000000D+00
223  2.2200000000000D+00  0.0000000000000D+00  0.0000000000000D+00
224  2.2300000000000D+00  0.0000000000000D+00  0.0000000000000D+00
225  2.2400000000000D+00  0.0000000000000D+00  0.0000000000000D+00
226  2.2500000000000D+00  0.0000000000000D+00  0.0000000000000D+00
227  2.2600000000000D+00  0.0000000000000D+00  0.0000000000000D+00
228  2.2700000000000D+00  0.0000000000000D+00  0.0000000000000D+00
229  2.2800000000000D+00  0.0000000000000D+00  0.0000000000000D+00
230  2.2900000000000D+00  0.0000000000000D+00  0.0000000000000D+00
231  2.3000000000000D+00  0.0000000000000D+00  0.0000000000000D+00
232  2.3100000000000D+00  0.0000000000000D+00  0.0000000000000D+00
233  2.3200000000000D+00  0.0000000000000D+00  0.0000000000000D+00
234  2.3300000000000D+00  0.0000000000000D+00  0.0000000000000D+00
235  2.3400000000000D+00  0.0000000000000D+00  0.0000000000000D+00
236  2.3500000000000D+00  0.0000000000000D+00  0.0000000000000D+00
237  2.3600000000000D+00  0.0000000000000D+00  0.0000000000000D+00
238  2.3700000000000D+00  0.0000000000000D+00  0.0000000000000D+00
239  2.3800000000000D+00  0.0000000000000D+00  0.0000000000000D+00
240  2.3900000000000D+00  0.0000000000000D+00  0.0000000000000D+00
241  2.4000000000000D+00  0.0000000000000D+00  0.0000000000000D+00
242  2.4100000000000D+00  0.0000000000000D+00  0.0000000000000D+00
243  2.4200000000000D+00  0.0000000000000D+00  0.0000000000000D+00
244  2.4300000000000D+00  0.0000000000000D+00  0.0000000000000D+00
245  2.4400000000000D+00  0.0000000000000D+00  0.0000000000000D+00
246  2.4500000000000D+00  0.0000000000000D+00  0.0000000000000D+00
247  2.4600000000000D+00  0.0000000000000D+00  0.0000000000000D+00
248  2.4700000000000D+00  0.0000000000000D+00  0.0000000000000D+00
249  2.4800000000000D+00  0.0000000000000D+00  0.0000000000000D+00
250  2.4900000000000D+00  0.0000000000000D+00  0.0000000000000D+00
251  2.5000000000000D+00  0.0000000000000D+00  0.0000000000000D+00
252  2.5100000000000D+00  0.0000000000000D+00  0.0000000000000D+00
253  2.5200000000000D+00  0.0000000000000D+00  0.0000000000000D+00
254  2.5300000000000D+00  0.0000000000000D+00  0.0000000000000D+00
255  2.5400000000000D+00  0.0000000000000D+00  0.0000000000000D+00
256  2.5500000000000D+00  0.0000000000000D+00  0.0000000000000D+00
257  2.5600000000000D+00  0.0000000000000D+00  0.0000000000000D+00
258  2.5700000000000D+00  0.0000000000000D+00  0.0000000000000D+00
259  2.5800000000000D+00  0.0000000000000D+00  0.0000000000000D+00
260  2.5900000000000D+00  0.0000000000000D+00  0.0000000000000D+00
261  2.6000000000000D+00  0.0000000000000D+00  0.0000000000000D+00
262  2.6100000000000D+00  0.0000000000000D+00  0.0000000000000D+00
263  2.6200000000000D+00  0.0000000000000D+00  0.0000000000000D+00
264  2.6300000000000D+00  0.0000000000000D+00  0.0000000000000D+00
265  2.6400000000000D+00  0.0000000000000D+00  0.0000000000000D+00
266  2.6500000000000D+00  0.0000000000000D+00  0.0000000000000D+00
267  2.6600000000000D+00  0.0000000000000D+00  0.0000000000000D+00
268  2.6700000000000D+00  0.0000000000000D+00  0.0000000000000D+00
269  2.6800000000000D+00  0.0000000000000D+00  0.0000000000000D+00
270  2.6900000000000D+00  0.0000000000000D+00  0.0000000000000D+00
271  2.7000000000000D+00  0.0000000000000D+00  0.0000000000000D+00
272  2.7100000000000D+00  0.0000000000000D+00  0.0000000000000D+00
273  2.7200000000000D+00  0.0000000000000D+00  0.0000000000000D+00
274  2.7300000000000D+00  0.0000000000000D+00  0.0000000000000D+00
275  2.7400000000000D+00  0.0000000000000D+00  0.0000000000000D+00
276  2.7500000000000D+00  0.0000000000000D+00  0.0000000000000D+00
277  2.7600000000000D+00  0.0000000000000D+00  0.0000000000000D+00
278  2.7700000000000D+00  0.0000000000000D+00  0.0000000000000D+00
279  2.7800000000000D+00  0.0000000000000D+00  0.0000000000000D+00
280  2.7900000000000D+00  0.0000000000000D+00  0.0000000000000D+00
281  2.8000000000000D+00  0.0000000000000D+00  0.0000000000000D+00
282  2.8100000000000D+00  0.0000000000000D+00  0.0000000000000D+00
283  2.8200000000000D+00  0.0000000000000D+00  0.0000000000000D+00
284  2.8300000000000D+00  0.0000000000000D+00  0.0000000000000D+00
285  2.8400000000000D+00  0.0000000000000D+00  0.0000000000000D+00
286  2.8500000000000D+00  0.0000000000000D+00  0.0000000000000D+00
287  2.8600000000000D+00  0.0000000000000D+00  0.0000000000000D+00
288  2.8700000000000D+00  0.0000000000000D+00  0.0000000000000D+00
289  2.8800000000000D+00  0.0000000000000D+00  0.0000000000000D+00
290  2.8900000000000D+00  0.0000000000000D+00  0.0000000000000D+00
291  2.9000000000000D+00  0.0000000000000D+00  0.0000000000000D+00
292  2.9100000000000D+00  0.0000000000000D+00  0.0000000000000D+00
293  2.9200000000000D+00  0.0000000000000D+00  0.0000000000000D+00
294  2.9300000000000D+00  0.0000000000000D+00  0.0000000000000D+00
295  2.9400000000000D+00  0.0000000000000D+00  0.0000000000000D+00
296  2.9500000000000D+00  0.0000000000000D+00  0.0000000000000D+00
297  2.9600000000000D+00  0.0000000000000D+00  0.0000000000000D+00
298  2.9700000000000D+00  0.0000000000000D+00  0.0000000000000D+00
299  2.9800000000000D+00  0.0000000000000D+00  0.0000000000000D+00
300  2.9900000000000D+00  0.0000000000000D+00  0.0000000000000D+00
301  3.0000000000000D+00  0.0000000000000D+00  0.0000000000000D+00
302  3.0100000000000D+00  0.0000000000000D+00  0.0000000000000D+00
303  3.0200000000000D+00  0.0000000000000D+00  0.0000000000000D+00
304  3.0300000000000D+00  0.0000000000000D+00  0.0000000000000D+00
305  3.0400000000000D+00  0.0000000000000D+00  0.0000000000000D+00
306  3.0500000000000D+00  0.0000000000000D+00  0.0000000000000D+00
307  3.0600000000000D+00  0.0000000000000D+00  0.0000000000000D+00
308  3.0700000000000D+00  0.0000000000000D+00  0.0000000000000D+00
309  3.0800000000000D+00  0.0000000000000D+00  0.0000000000000D+00
310  3.0900000000000D+00  0.0000000000000D+00  0.0000000000000D+00
311  3.1000000000000D+00  0.0000000000000D+00  0.0000000000000D+00
312  3.1100000000000D+00  0.0000000000000D+00  0.0000000000000D+00
313  3.1200000000000D+00  0.0000000000000D+00  0.0000000000000D+00
314  3.1300000000000D+00  0.0000000000000D+00  0.0000000000000D+00
315  3.1400000000000D+00  0.0000000000000D+00  0.0000000000000D+00
316  3.1500000000000D+00  0.0000000000000D+00  0.0000000000000D+00
317  3.1600000000000D+00  0.0000000000000D+00  0.0000000000000D+00
318  3.1700000000000D+00  0.0000000000000D+00  0.0000000000000D+00
319  3.1800000000000D+00  0.0000000000000D+00  0.0000000000000D+00
320  3.1900000000000D+00  0.0000000000000D+00  0.0000000000000D+00
321  3.2000000000000D+00  0.0000000000000D+00  0.0000000000000D+00
322  3.2100000000000D+00  0.0000000000000D+00  0.0000000000000D+00
323  3.2200000000000D+00  0.0000000000000D+00  0.0000000000000D+00
324  3.2300000000000D+00  0.0000000000000D+00  0.0000000000000D+00
325  3.2400000000000D+00  0.0000000000000D+00  0.0000000000000D+00
326  3.2500000000000D+00  0.0000000000000D+00  0.0000000000000D+00
327  3.2600000000000D+00  0.0000000000000D+00  0.0000000000000D+00
328  3.2700000000000D+00  0.0000000000000D+00  0.0000000000000D+00
329  3.2800000000000D+00  0.0000000000000D+00  0.0000000000000D+00
330  3.2900000000000D+00  0.0000000000000D+00  0.0000000000000D+00
331  3.3000000000000D+00  0.0000000000000D+00  0.0000000000000D+00
332  3.3100000000000D+00  0.0000000000000D+00  0.0000000000000D+00
333  3.3200000000000D+00  0.0000000000000D+00  0.0000000000000D+00
334  3.3300000000000D+00  0.0000000000000D+00  0.0000000000000D+00
335  3.3400000000000D+00  0.0000000000000D+00  0.0000000000000D+00
336  3.3500000000000D+00  0.0000000000000D+00  0.0000000000000D+00
337  3.3600000000000D+00  0.0000000000000D+00  0.0000000000000D+00
338  3.3700000000000D+00  0.0000000000000D+00  0.0000000000000D+00
339  3.3800000000000D+00  0.0000000000000D+00  0.0000000000000D+00
340  3.3900000000000D+00  0.0000000000000D+00  0.0000000000000D+00
341  3.4000000000000D+00  0.0000000000000D+00  0.0000000000000D+00
342  3.4100000000000D+00  0.0000000000000D+00  0.0000000000000D+00
343  3.4200000000000D+00  0.0000000000000D+00  0.0000000000000D+00
344  3.4300000000000D+00  0.0000000000000D+00  0.0000000000000D+00
345  3.4400000000000D+00  0.0000000000000D+00  0.0000000000000D+00
346  3.4500000000000D+00  0.0000000000000D+00  0.0000000000000D+00
347  3.4600000000000D+00  0.0000000000000D+00  0.0000000000000D+00
348  3.4700000000000D+00  0.0000000000000D+00  0.0000000000000D+00
349  3.4800000000000D+00  0.0000000000000D+00  0.0000000000000D+00
350  3.4900000000000D+00  0.0000000000000D+00  0.0000000000000D+00
351  3.5000000000000D+00  0.0000000000000D+00  0.0000000000000D+00
352  3.5100000000000D+00  0.0000000000000D+00  0.0000000000000D+00
353  3.5200000000000D+00  0.0000000000000D+00  0.0000000000000D+00
354  3.5300000000000D+00  0.0000000000000D+00  0.0000000000000D+00
355  3.5400000000000D+00  0.0000000000000D+00  0.0000000000000D+00
356  3.5500000000000D+00  0.0000000000000D+00  0.0000000000000D+00
357  3.5600000000000D+00  0.0000000000000D+00  0.0000000000000D+00
358  3.5700000000000D+00  0.0000000000000D+00  0.0000000000000D+00
359  3.5800000000000D+00  0.0000000000000D+00  0.0000000000000D+00
360  3.5900000000000D+00  0.0000000000000D+00  0.0000000000000D+00
361  3.6000000000000D+00  0.0000000000000D+00  0.0000000000000D+00
362  3.6100000000000D+00  0.0000000000000D+00  0.0000000000000D+00
363  3.6200000000000D+00  0.0000000000000D+00  0.0000000000000D+00
364  3.6300000000000D+00  0.0000000000000D+00  0.0000000000000D+00
365  3.6400000000000D+00  0.0000000000000D+00  0.0000000000000D+00
366  3.6500000000000D+00  0.0000000000000D+00  0.0000000000000D+00
367  3.6600000000000D+00  0.0000000000000D+00  0.0000000000000D+00
368  3.6700000000000D+00  0.0000000000000D+00  0.0000000000000D+00
369  3.6800000000000D+00  0.0000000000000D+00  0.0000000000000D+00
370  3.6900000000000D+00  0.0000000000000D+00  0.0000000000000D+00
371  3.7000000000000D+00  0.0000000000000D+00  0.0000000000000D+00
372  3.7100000000000D+00  0.0000000000000D+00  0.0000000000000D+00
373  3.7200000000000D+00  0.0000000000000D+00  0.0000000000000D+00
374  3.7300000000000D+00  0.0000000000000D+00  0.0000000000000D+00
375  3.7400000000000D+00  0.0000000000000D+00  0.0000000000000D+00
376  3.7500000000000D+00  0.0000000000000D+00  0.0000000000000D+00
377  3.7600000000000D+00  0.0000000000000D+00  0.0000000000000D+00
378  3.7700000000000D+00  0.0000000000000D+00  0.0000000000000D+00
379  3.7800000000000D+00  0.0000000000000D+00  0.0000000000000D+00
380  3.7900000000000D+00  0.0000000000000D+00  0.0000000000000D+00
381  3.8000000000000D+00  0.0000000000000D+00  0.0000000000000D+00
382  3.8100000000000D+00  0.0000000000000D+00  0.0000000000000D+00
383  3.8200000000000D+00  0.0000000000000D+00  0.0000000000000D+00
384  3.8300000000000D+00  0.0000000000000D+00  0.0000000000000D+00
385  3.8400000000000D+00  0.0000000000000D+00  0.0000000000000D+00
386  3.8500000000000D+00  0.0000000000000D+00  0.0000000000000D+00
387  3.8600000000000D+00  0.0000000000000D+00  0.0000000000000D+00
388  3.8700000000000D+00  0.0000000000000D+00  0.0000000000000D+00
389  3.8800000000000D+00  0.0000000000000D+00  0.0000000000000D+00
390  3.8900000000000D+00  0.0000000000000D+00  0.0000000000000D+00
391  3.9000000000000D+00  0.0000000000000D+00  0.0000000000000D+00
392  3.9100000000000D+00  0.0000000000000D+00  0.0000000000000D+00
393  3.9200000000000D+00  0.0000000000000D+00  0.0000000000000D+00
394  3.9300000000000D+00  0.0000000000000D+00  0.0000000000000D+00
395  3.9400000000000D+00  0.0000000000000D+00  0.0000000000000D+00
396  3.9500000000000D+00  0.0000000000000D+00  0.0000000000000D+00
397  3.9600000000000D+00  0.0000000000000D+00  0.0000000000000D+00
398  3.9700000000000D+00  0.0000000000000D+00  0.0000000000000D+00
399  3.9800000000000D+00  0.0000000000000D+00  0.0000000000000D+00
400  3.9900000000000D+00  0.0000000000000D+00  0.0000000000000D+00
401  4.0000000000000D+00  0.0000000000000D+00  0.0000000000000D+00
402  4.0100000000000D+00  0.0000000000000D+00  0.0000000000000D+00
403  4.0200000000000D+00  0.0000000000000D+00  0.0000000000000D+00
404  4.0300000000000D+00  0.0000000000000D+00  0.0000000000000D+00
405  4.0400000000000D+00  0.0000000000000D+00  0.0000000000000D+00
406  4.0500000000000D+00  0.0000000000000D+00  0.0000000000000D+00
407  4.0600000000000D+00  0.0000000000000D+00  0.0000000000000D+00
408  4.0700000000000D+00  0.0000000000000D+00  0.0000000000000D+00
409  4.0800000000000D+00  0.0000000000000D+00  0.0000000000000D+00
410  4.0900000000000D+00  0.0000000000000D+00  0.0000000000000D+00
411  4.1000000000000D+00  0.0000000000000D+00  0.0000000000000D+00
412  4.1100000000000D+00  0.0000000000000D+00  0.0000000000000D+00
413  4.1200000000000D+00  0.0000000000000D+00  0.0000000000000D+00
414  4.1300000000000D+00  0.0000000000000D+00  0.0000000000000D+00
415  4.1400000000000D+00  0.0000000000000D+00  0.0000000000000D+00
416  4.1500000000000D+00  0.0000000000000D+00  0.0000000000000D+00
417  4.1600000000000D+00  0.0000000000000D+00  0.0000000000000D+00
418  4.1700000000000D+00  0.0000000000000D+00  0.0000000000000D+00
419  4.1800000000000D+00  0.0000000000000D+00  0.0000000000000D+00
420  4.1900000000000D+00  0.0000000000000D+00  0.0000000000000D+00
421  4.2000000000000D+00  0.0000000000000D+00  0.0000000000000D+00
422  4.2100000000000D+00  0.0000000000000D+00  0.0000000000000D+00
423  4.2200000000000D+00  0.0000000000000D+00  0.0000000000000D+00
424  4.2300000000000D+00  0.0000000000000D+00  0.0000000000000D+00
425  4.2400000000000D+00  0.0000000000000D+00  0.0000000000000D+00
426  4.2500000000000D+00  0.0000000000000D+00  0.0000000000000D+00
427  4.2600000000000D+00  0.0000000000000D+00  0.0000000000000D+00
428  4.2700000000000D+00  0.0000000000000D+00  0.0000000000000D+00
429  4.2800000000000D+00  0.0000000000000D+00  0.0000000000000D+00
430  4.2900000000000D+00  0.0000000000000D+00  0.0000000000000D+00
431  4.3000000000000D+00  0.0000000000000D+00  0.0000000000000D+00
432  4.3100000000000D+00  0.0000000000000D+00  0.0000000000000D+00
433  4.3200000000000D+00  0.0000000000000D+00  0.0000000000000D+00
434  4.3300000000000D+00  0.0000000000000D+00  0.0000000000000D+00
435  4.3400000000000D+00  0.0000000000000D+00  0.0000000000000D+00
436  4.3500000000000D+00  0.0000000000000D+00  0.0000000000000D+00
437  4.3600000000000D+00  0.0000000000000D+00  0.0000000000000D+00
438  4.3700000000000D+00  0.0000000000000D+00  0.0000000000000D+00
439  4.3800000000000D+00  0.0000000000000D+00  0.0000000000000D+00
440  4.3900000000000D+00  0.0000000000000D+00  0.0000000000000D+00
441  4.4000000000000D+00  0.0000000000000D+00  0.0000000000000D+00
442  4.4100000000000D+00  0.0000000000000D+00  0.0000000000000D+00
443  4.4200000000000D+00  0.0000000000000D+00  0.0000000000000D+00
444  4.4300000000000D+00  0.0000000000000D+00  0.0000000000000D+00