As    ONCVPSP  r_core=  1.77  1.61  1.81
33.0000     15.0000      160903    zatom,zion,pspd
8      11   2     4   600     0    pspcod,pspxc,lmax,lloc,mmax,r2well
5.99000000  5.00000000  0.00000000    rchrg fchrg qchrg
2     3     2     0    nproj
3                 extension_switch
4     3     0    nprojso
0                         7.6240713035510D-01  7.4822369130151D+00
1  0.0000000000000D+00 -4.3888212508669D-11 -3.1680214007679D-13
2  1.0000000000000D-02 -8.9749242284017D-03  3.2395050690686D-02
3  2.0000000000000D-02 -1.7976796626837D-02  6.4776839138604D-02
4  3.0000000000000D-02 -2.7032242312033D-02  9.7132073470532D-02
5  4.0000000000000D-02 -3.6167242312544D-02  1.2944740266656D-01
6  5.0000000000000D-02 -4.5406816559685D-02  1.6170938727238D-01
7  6.0000000000000D-02 -5.4774712889349D-02  1.9390447045461D-01
8  7.0000000000000D-02 -6.4293104006704D-02  2.2601894951380D-01
9  8.0000000000000D-02 -7.3982294321810D-02  2.5803894797021D-01
10  9.0000000000000D-02 -8.3860438509676D-02  2.8995038833766D-01
11  1.0000000000000D-01 -9.3943273583602D-02  3.2173896570134D-01
12  1.1000000000000D-01 -1.0424386619588D-01  3.5339012221556D-01
13  1.2000000000000D-01 -1.1477237679580D-01  3.8488902263823D-01
14  1.3000000000000D-01 -1.2553584218157D-01  4.1622053101882D-01
15  1.4000000000000D-01 -1.3653797788080D-01  4.4736918865718D-01
16  1.5000000000000D-01 -1.4777900168435D-01  4.7831919345055D-01
17  1.6000000000000D-01 -1.5925547954078D-01  5.0905438074641D-01
18  1.7000000000000D-01 -1.7096019489434D-01  5.3955820581862D-01
19  1.8000000000000D-01 -1.8288204241894D-01  5.6981372808397D-01
20  1.9000000000000D-01 -1.9500594696445D-01  5.9980359717601D-01
21  2.0000000000000D-01 -2.0731280839087D-01  6.2951004099203D-01
22  2.1000000000000D-01 -2.1977947282092D-01  6.5891485582798D-01
23  2.2000000000000D-01 -2.3237873069355D-01  6.8799939871500D-01
24  2.3000000000000D-01 -2.4507934185004D-01  7.1674458206889D-01
25  2.4000000000000D-01 -2.5784608773225D-01  7.4513087076213D-01
26  2.5000000000000D-01 -2.7063985061901D-01  7.7313828172488D-01
27  2.6000000000000D-01 -2.8341771967370D-01  8.0074638617853D-01
28  2.7000000000000D-01 -2.9613312342346D-01  8.2793431460117D-01
29  2.8000000000000D-01 -3.0873598813944D-01  8.5468076452037D-01
30  2.9000000000000D-01 -3.2117292143937D-01  8.8096401122335D-01
31  3.0000000000000D-01 -3.3338742028815D-01  9.0676192146903D-01
32  3.1000000000000D-01 -3.4532010243115D-01  9.3205197028032D-01
33  3.2000000000000D-01 -3.5690896015852D-01  9.5681126088754D-01
34  3.3000000000000D-01 -3.6808963516774D-01  9.8101654788637D-01
35  3.4000000000000D-01 -3.7879571316731D-01  1.0046442636653D+00
36  3.5000000000000D-01 -3.8895903674654D-01  1.0276705481476D+00
37  3.6000000000000D-01 -3.9851003492661D-01  1.0500712818839D+00
38  3.7000000000000D-01 -4.0737806770624D-01  1.0718221225190D+00
39  3.8000000000000D-01 -4.1549178382225D-01  1.0928985446469D+00
40  3.9000000000000D-01 -4.2277948986160D-01  1.1132758830531D+00
41  4.0000000000000D-01 -4.2916952878807D-01  1.1329293793334D+00
42  4.1000000000000D-01 -4.3459066588261D-01  1.1518342318606D+00
43  4.2000000000000D-01 -4.3897248004408D-01  1.1699656490594D+00
44  4.3000000000000D-01 -4.4224575835470D-01  1.1872989059322D+00
45  4.4000000000000D-01 -4.4434289178402D-01  1.2038094037640D+00
46  4.5000000000000D-01 -4.4519826988585D-01  1.2194727329171D+00
47  4.6000000000000D-01 -4.4474867233504D-01  1.2342647386094D+00
48  4.7000000000000D-01 -4.4293365515434D-01  1.2481615895539D+00
49  4.8000000000000D-01 -4.3969592949798D-01  1.2611398493166D+00
50  4.9000000000000D-01 -4.3498173088511D-01  1.2731765502343D+00
51  5.0000000000000D-01 -4.2874117681507D-01  1.2842492697138D+00
52  5.1000000000000D-01 -4.2092861074681D-01  1.2943362087150D+00
53  5.2000000000000D-01 -4.1150293048537D-01  1.3034162722038D+00
54  5.3000000000000D-01 -4.0042789909075D-01  1.3114691513398D+00
55  5.4000000000000D-01 -3.8767243650614D-01  1.3184754071451D+00
56  5.5000000000000D-01 -3.7321089019572D-01  1.3244165553857D+00
57  5.6000000000000D-01 -3.5702328318309D-01  1.3292751523741D+00
58  5.7000000000000D-01 -3.3909553799325D-01  1.3330348813879D+00
59  5.8000000000000D-01 -3.1941967511941D-01  1.3356806393819D+00
60  5.9000000000000D-01 -2.9799398476379D-01  1.3371986236527D+00
61  6.0000000000000D-01 -2.7482317073531D-01  1.3375764181041D+00
62  6.1000000000000D-01 -2.4991846552778D-01  1.3368030787424D+00
63  6.2000000000000D-01 -2.2329771574848D-01  1.3348692180216D+00
64  6.3000000000000D-01 -1.9498543721810D-01  1.3317670876447D+00
65  6.4000000000000D-01 -1.6501283921840D-01  1.3274906594179D+00
66  6.5000000000000D-01 -1.3341781752138D-01  1.3220357037451D+00
67  6.6000000000000D-01 -1.0024491599614D-01  1.3153998653430D+00
68  6.7000000000000D-01 -6.5545256749546D-02  1.3075827357520D+00
69  6.8000000000000D-01 -2.9376438921454D-02  1.2985859222148D+00
70  6.9000000000000D-01  8.1975935837933D-03  1.2884131124912D+00
71  7.0000000000000D-01  4.7106714985617D-02  1.2770701351818D+00
72  7.1000000000000D-01  8.7274810533457D-02  1.2645650151320D+00
73  7.2000000000000D-01  1.2861999867225D-01  1.2509080234952D+00
74  7.3000000000000D-01  1.7105488155657D-01  1.2361117220405D+00
75  7.4000000000000D-01  2.1448682285525D-01  1.2201910013013D+00
76  7.5000000000000D-01  2.5881825164696D-01  1.2031631121704D+00
77  7.6000000000000D-01  3.0394699107041D-01  1.1850476905651D+00
78  7.7000000000000D-01  3.4976661026537D-01  1.1658667748014D+00
79  7.8000000000000D-01  3.9616679801918D-01  1.1456448153358D+00
80  7.9000000000000D-01  4.4303375642113D-01  1.1244086765567D+00
81  8.0000000000000D-01  4.9025061272365D-01  1.1021876303302D+00
82  8.1000000000000D-01  5.3769784751567D-01  1.0790133410344D+00
83  8.2000000000000D-01  5.8525373722961D-01  1.0549198418443D+00
84  8.3000000000000D-01  6.3279480893016D-01  1.0299435020620D+00
85  8.4000000000000D-01  6.8019630527129D-01  1.0041229853198D+00
86  8.5000000000000D-01  7.2733265745689D-01  9.7749919852253D-01
87  8.6000000000000D-01  7.7407796400069D-01  9.5011523143096D-01
88  8.7000000000000D-01  8.2030647305377D-01  9.2201628682976D-01
89  8.8000000000000D-01  8.6589306605260D-01  8.9324960126515D-01
90  8.9000000000000D-01  9.1071374043569D-01  8.6386435638041D-01
91  9.0000000000000D-01  9.5464608918578D-01  8.3391158092258D-01
92  9.1000000000000D-01  9.9756977497410D-01  8.0344404353901D-01
93  9.2000000000000D-01  1.0393669967140D+00  7.7251613653009D-01
94  9.3000000000000D-01  1.0799229463754D+00  7.4118375077127D-01
95  9.4000000000000D-01  1.1191262539637D+00  7.0950414206592D-01
96  9.5000000000000D-01  1.1568694186334D+00  6.7753578923902D-01
97  9.6000000000000D-01  1.1930492239805D+00  6.4533824432922D-01
98  9.7000000000000D-01  1.2275671356425D+00  6.1297197528600D-01
99  9.8000000000000D-01  1.2603296794306D+00  5.8049820162435D-01
100  9.9000000000000D-01  1.2912487983188D+00  5.4797872353730D-01
101  1.0000000000000D+00  1.3202421867292D+00  5.1547574501152D-01
102  1.0100000000000D+00  1.3472336006681D+00  4.8305169153491D-01
103  1.0200000000000D+00  1.3721531423950D+00  4.5076902302762D-01
104  1.0300000000000D+00  1.3949375184346D+00  4.1869004266814D-01
105  1.0400000000000D+00  1.4155302698843D+00  3.8687670232441D-01
106  1.0500000000000D+00  1.4338819740982D+00  3.5539040533355D-01
107  1.0600000000000D+00  1.4499504169862D+00  3.2429180740928D-01
108  1.0700000000000D+00  1.4637007353048D+00  2.9364061648337D-01
109  1.0800000000000D+00  1.4751055284638D+00  2.6349539231438D-01
110  1.0900000000000D+00  1.4841449395341D+00  2.3391334672006D-01
111  1.1000000000000D+00  1.4908067052632D+00  2.0495014530677D-01
112  1.1100000000000D+00  1.4950861750874D+00  1.7665971158724D-01
113  1.1200000000000D+00  1.4969862992506D+00  1.4909403438604D-01
114  1.1300000000000D+00  1.4965175863003D+00  1.2230297943962D-01
115  1.1400000000000D+00  1.4936980303500D+00  9.6334106099299D-02
116  1.1500000000000D+00  1.4885530086551D+00  7.1232490044016D-02
117  1.1600000000000D+00  1.4811151501700D+00  4.7040552901600D-02
118  1.1700000000000D+00  1.4714241758905D+00  2.3797899662281D-02
119  1.1800000000000D+00  1.4595267118728D+00  1.5411647589167D-03
120  1.1900000000000D+00  1.4454760759751D+00 -1.9696132340432D-02
121  1.2000000000000D+00  1.4293320394501D+00 -3.9883721206776D-02
122  1.2100000000000D+00  1.4111605646138D+00 -5.8994703402511D-02
123  1.2200000000000D+00  1.3910335198962D+00 -7.7005663548957D-02
124  1.2300000000000D+00  1.3690283736883D+00 -9.3896767801771D-02
125  1.2400000000000D+00  1.3452278684470D+00 -1.0965184907472D-01
126  1.2500000000000D+00  1.3197196765662D+00 -1.2425847836517D-01
127  1.2600000000000D+00  1.2925960396179D+00 -1.3770802163549D-01
128  1.2700000000000D+00  1.2639533925729D+00 -1.4999568175084D-01
129  1.2800000000000D+00  1.2338919746430D+00 -1.6112052498807D-01
130  1.2900000000000D+00  1.2025154284378D+00 -1.7108549175800D-01
131  1.3000000000000D+00  1.1699303891046D+00 -1.7989739124309D-01
132  1.3100000000000D+00  1.1362460651507D+00 -1.8756687964411D-01
133  1.3200000000000D+00  1.1015738126317D+00 -1.9410842191230D-01
134  1.3300000000000D+00  1.0660267043522D+00 -1.9954023687575D-01
135  1.3400000000000D+00  1.0297190957570D+00 -2.0388422566550D-01
136  1.3500000000000D+00  9.9276618908801D-01 -2.0716588358110D-01
137  1.3600000000000D+00  9.5528359737889D-01 -2.0941419548970D-01
138  1.3700000000000D+00  9.1738690984878D-01 -2.1066151493441D-01
139  1.3800000000000D+00  8.7919126007813D-01 -2.1094342734116D-01
140  1.3900000000000D+00  8.4081089845677D-01 -2.1029859758219D-01
141  1.4000000000000D+00  8.0235877019662D-01 -2.0876860241091D-01
142  1.4100000000000D+00  7.6394610012438D-01 -2.0639774831805D-01
143  1.4200000000000D+00  7.2568198557954D-01 -2.0323287529429D-01
144  1.4300000000000D+00  6.8767299833274D-01 -1.9932314733539D-01
145  1.4400000000000D+00  6.5002279671507D-01 -1.9471983028658D-01
146  1.4500000000000D+00  6.1283174880597D-01 -1.8947605792218D-01
147  1.4600000000000D+00  5.7619656748435D-01 -1.8364658714593D-01
148  1.4700000000000D+00  5.4020995827863D-01 -1.7728754315040D-01
149  1.4800000000000D+00  5.0496028039625D-01 -1.7045615569582D-01
150  1.4900000000000D+00  4.7053122184820D-01 -1.6321048736477D-01
151  1.5000000000000D+00  4.3700148885545D-01 -1.5560915505898D-01
152  1.5100000000000D+00  4.0444451014954D-01 -1.4771104575740D-01
153  1.5200000000000D+00  3.7292815641800D-01 -1.3957502776807D-01
154  1.5300000000000D+00  3.4251447507315D-01 -1.3125965867646D-01
155  1.5400000000000D+00  3.1325944070609D-01 -1.2282289119253D-01
156  1.5500000000000D+00  2.8521271999603D-01 -1.1432177803797D-01
157  1.5600000000000D+00  2.5841745293428D-01 -1.0581217732431D-01
158  1.5700000000000D+00  2.3291005283654D-01 -9.7348460049909D-02
159  1.5800000000000D+00  2.0872001604286D-01 -8.8983220161140D-02
160  1.5900000000000D+00  1.8586991161105D-01 -8.0767014943186D-02
161  1.6000000000000D+00  1.6437468402068D-01 -7.2747997333524D-02
162  1.6100000000000D+00  1.4424187126855D-01 -6.4971702617036D-02
163  1.6200000000000D+00  1.2547327604148D-01 -5.7481064266979D-02
164  1.6300000000000D+00  1.0806616534686D-01 -5.0316384476801D-02
165  1.6400000000000D+00  9.2014924423684D-02 -4.3515409273777D-02
166  1.6500000000000D+00  7.7311672001519D-02 -3.7113245087920D-02
167  1.6600000000000D+00  6.3945733668777D-02 -3.1142111993013D-02
168  1.6700000000000D+00  5.1903727611845D-02 -2.5631198609442D-02
169  1.6800000000000D+00  4.1169651033564D-02 -2.0606523918281D-02
170  1.6900000000000D+00  3.1724857157023D-02 -1.6090793962559D-02
171  1.7000000000000D+00  2.3548076020788D-02 -1.2103275444501D-02
172  1.7100000000000D+00  1.6617981608789D-02 -8.6612766065920D-03
173  1.7200000000000D+00  1.0902716021472D-02 -5.7735177973782D-03
174  1.7300000000000D+00  6.3618897181874D-03 -3.4406500025444D-03
175  1.7400000000000D+00  2.9894786537301D-03 -1.6843847800924D-03
176  1.7500000000000D+00  7.7794718091747D-04 -5.2640153788095D-04
177  1.7600000000000D+00 -3.5734142327789D-04  7.4300300094030D-05
178  1.7700000000000D+00 -5.9055697555366D-04  2.2677244091631D-04
179  1.7800000000000D+00 -2.7697820120090D-04  1.1377545746693D-04
180  1.7900000000000D+00  5.1633717681913D-05 -2.1564511530021D-05
181  1.8000000000000D+00  8.7932340038573D-05 -3.7233943657924D-05
182  1.8100000000000D+00 -4.9415428257522D-06  2.0239568868537D-06
183  1.8200000000000D+00 -2.0563853966916D-05  8.4751813524687D-06
184  1.8300000000000D+00 -1.0130345009256D-06  4.1944562878094D-07
185  1.8400000000000D+00  1.6889826875938D-06 -6.0291861438615D-07
186  1.8500000000000D+00  5.2412079822561D-07 -1.8709616608761D-07
187  1.8600000000000D+00  0.0000000000000D+00  0.0000000000000D+00
188  1.8700000000000D+00  0.0000000000000D+00  0.0000000000000D+00
189  1.8800000000000D+00  0.0000000000000D+00  0.0000000000000D+00
190  1.8900000000000D+00  0.0000000000000D+00  0.0000000000000D+00
191  1.9000000000000D+00  0.0000000000000D+00  0.0000000000000D+00
192  1.9100000000000D+00  0.0000000000000D+00  0.0000000000000D+00
193  1.9200000000000D+00  0.0000000000000D+00  0.0000000000000D+00
194  1.9300000000000D+00  0.0000000000000D+00  0.0000000000000D+00
195  1.9400000000000D+00  0.0000000000000D+00  0.0000000000000D+00
196  1.9500000000000D+00  0.0000000000000D+00  0.0000000000000D+00
197  1.9600000000000D+00  0.0000000000000D+00  0.0000000000000D+00
198  1.9700000000000D+00  0.0000000000000D+00  0.0000000000000D+00
199  1.9800000000000D+00  0.0000000000000D+00  0.0000000000000D+00
200  1.9900000000000D+00  0.0000000000000D+00  0.0000000000000D+00
201  2.0000000000000D+00  0.0000000000000D+00  0.0000000000000D+00
202  2.0100000000000D+00  0.0000000000000D+00  0.0000000000000D+00
203  2.0200000000000D+00  0.0000000000000D+00  0.0000000000000D+00
204  2.0300000000000D+00  0.0000000000000D+00  0.0000000000000D+00
205  2.0400000000000D+00  0.0000000000000D+00  0.0000000000000D+00
206  2.0500000000000D+00  0.0000000000000D+00  0.0000000000000D+00
207  2.0600000000000D+00  0.0000000000000D+00  0.0000000000000D+00
208  2.0700000000000D+00  0.0000000000000D+00  0.0000000000000D+00
209  2.0800000000000D+00  0.0000000000000D+00  0.0000000000000D+00
210  2.0900000000000D+00  0.0000000000000D+00  0.0000000000000D+00
211  2.1000000000000D+00  0.0000000000000D+00  0.0000000000000D+00
212  2.1100000000000D+00  0.0000000000000D+00  0.0000000000000D+00
213  2.1200000000000D+00  0.0000000000000D+00  0.0000000000000D+00
214  2.1300000000000D+00  0.0000000000000D+00  0.0000000000000D+00
215  2.1400000000000D+00  0.0000000000000D+00  0.0000000000000D+00
216  2.1500000000000D+00  0.0000000000000D+00  0.0000000000000D+00
217  2.1600000000000D+00  0.0000000000000D+00  0.0000000000000D+00
218  2.1700000000000D+00  0.0000000000000D+00  0.0000000000000D+00
219  2.1800000000000D+00  0.0000000000000D+00  0.0000000000000D+00
220  2.1900000000000D+00  0.0000000000000D+00  0.0000000000000D+00
221  2.2000000000000D+00  0.0000000000000D+00  0.0000000000000D+00
222  2.2100000000000D+00  0.0000000000000D+00  0.0000000000000D+00
223  2.2200000000000D+00  0.0000000000000D+00  0.0000000000000D+00
224  2.2300000000000D+00  0.0000000000000D+00  0.0000000000000D+00
225  2.2400000000000D+00  0.0000000000000D+00  0.0000000000000D+00
226  2.2500000000000D+00  0.0000000000000D+00  0.0000000000000D+00
227  2.2600000000000D+00  0.0000000000000D+00  0.0000000000000D+00
228  2.2700000000000D+00  0.0000000000000D+00  0.0000000000000D+00
229  2.2800000000000D+00  0.0000000000000D+00  0.0000000000000D+00
230  2.2900000000000D+00  0.0000000000000D+00  0.0000000000000D+00
231  2.3000000000000D+00  0.0000000000000D+00  0.0000000000000D+00
232  2.3100000000000D+00  0.0000000000000D+00  0.0000000000000D+00
233  2.3200000000000D+00  0.0000000000000D+00  0.0000000000000D+00
234  2.3300000000000D+00  0.0000000000000D+00  0.0000000000000D+00
235  2.3400000000000D+00  0.0000000000000D+00  0.0000000000000D+00
236  2.3500000000000D+00  0.0000000000000D+00  0.0000000000000D+00
237  2.3600000000000D+00  0.0000000000000D+00  0.0000000000000D+00
238  2.3700000000000D+00  0.0000000000000D+00  0.0000000000000D+00
239  2.3800000000000D+00  0.0000000000000D+00  0.0000000000000D+00
240  2.3900000000000D+00  0.0000000000000D+00  0.0000000000000D+00
241  2.4000000000000D+00  0.0000000000000D+00  0.0000000000000D+00
242  2.4100000000000D+00  0.0000000000000D+00  0.0000000000000D+00
243  2.4200000000000D+00  0.0000000000000D+00  0.0000000000000D+00
244  2.4300000000000D+00  0.0000000000000D+00  0.0000000000000D+00
245  2.4400000000000D+00  0.0000000000000D+00  0.0000000000000D+00
246  2.4500000000000D+00  0.0000000000000D+00  0.0000000000000D+00
247  2.4600000000000D+00  0.0000000000000D+00  0.0000000000000D+00
248  2.4700000000000D+00  0.0000000000000D+00  0.0000000000000D+00
249  2.4800000000000D+00  0.0000000000000D+00  0.0000000000000D+00
250  2.4900000000000D+00  0.0000000000000D+00  0.0000000000000D+00
251  2.5000000000000D+00  0.0000000000000D+00  0.0000000000000D+00
252  2.5100000000000D+00  0.0000000000000D+00  0.0000000000000D+00
253  2.5200000000000D+00  0.0000000000000D+00  0.0000000000000D+00
254  2.5300000000000D+00  0.0000000000000D+00  0.0000000000000D+00
255  2.5400000000000D+00  0.0000000000000D+00  0.0000000000000D+00
256  2.5500000000000D+00  0.0000000000000D+00  0.0000000000000D+00
257  2.5600000000000D+00  0.0000000000000D+00  0.0000000000000D+00
258  2.5700000000000D+00  0.0000000000000D+00  0.0000000000000D+00
259  2.5800000000000D+00  0.0000000000000D+00  0.0000000000000D+00
260  2.5900000000000D+00  0.0000000000000D+00  0.0000000000000D+00
261  2.6000000000000D+00  0.0000000000000D+00  0.0000000000000D+00
262  2.6100000000000D+00  0.0000000000000D+00  0.0000000000000D+00
263  2.6200000000000D+00  0.0000000000000D+00  0.0000000000000D+00
264  2.6300000000000D+00  0.0000000000000D+00  0.0000000000000D+00
265  2.6400000000000D+00  0.0000000000000D+00  0.0000000000000D+00
266  2.6500000000000D+00  0.0000000000000D+00  0.0000000000000D+00
267  2.6600000000000D+00  0.0000000000000D+00  0.0000000000000D+00
268  2.6700000000000D+00  0.0000000000000D+00  0.0000000000000D+00
269  2.6800000000000D+00  0.0000000000000D+00  0.0000000000000D+00
270  2.6900000000000D+00  0.0000000000000D+00  0.0000000000000D+00
271  2.7000000000000D+00  0.0000000000000D+00  0.0000000000000D+00
272  2.7100000000000D+00  0.0000000000000D+00  0.0000000000000D+00
273  2.7200000000000D+00  0.0000000000000D+00  0.0000000000000D+00
274  2.7300000000000D+00  0.0000000000000D+00  0.0000000000000D+00
275  2.7400000000000D+00  0.0000000000000D+00  0.0000000000000D+00
276  2.7500000000000D+00  0.0000000000000D+00  0.0000000000000D+00
277  2.7600000000000D+00  0.0000000000000D+00  0.0000000000000D+00
278  2.7700000000000D+00  0.0000000000000D+00  0.0000000000000D+00
279  2.7800000000000D+00  0.0000000000000D+00  0.0000000000000D+00
280  2.7900000000000D+00  0.0000000000000D+00  0.0000000000000D+00
281  2.8000000000000D+00  0.0000000000000D+00  0.0000000000000D+00
282  2.8100000000000D+00  0.0000000000000D+00  0.0000000000000D+00
283  2.8200000000000D+00  0.0000000000000D+00  0.0000000000000D+00
284  2.8300000000000D+00  0.0000000000000D+00  0.0000000000000D+00
285  2.8400000000000D+00  0.0000000000000D+00  0.0000000000000D+00
286  2.8500000000000D+00  0.0000000000000D+00  0.0000000000000D+00
287  2.8600000000000D+00  0.0000000000000D+00  0.0000000000000D+00
288  2.8700000000000D+00  0.0000000000000D+00  0.0000000000000D+00
289  2.8800000000000D+00  0.0000000000000D+00  0.0000000000000D+00
290  2.8900000000000D+00  0.0000000000000D+00  0.0000000000000D+00
291  2.9000000000000D+00  0.0000000000000D+00  0.0000000000000D+00
292  2.9100000000000D+00  0.0000000000000D+00  0.0000000000000D+00
293  2.9200000000000D+00  0.0000000000000D+00  0.0000000000000D+00
294  2.9300000000000D+00  0.0000000000000D+00  0.0000000000000D+00
295  2.9400000000000D+00  0.0000000000000D+00  0.0000000000000D+00
296  2.9500000000000D+00  0.0000000000000D+00  0.0000000000000D+00
297  2.9600000000000D+00  0.0000000000000D+00  0.0000000000000D+00
298  2.9700000000000D+00  0.0000000000000D+00  0.0000000000000D+00
299  2.9800000000000D+00  0.0000000000000D+00  0.0000000000000D+00
300  2.9900000000000D+00  0.0000000000000D+00  0.0000000000000D+00
301  3.0000000000000D+00  0.0000000000000D+00  0.0000000000000D+00
302  3.0100000000000D+00  0.0000000000000D+00  0.0000000000000D+00
303  3.0200000000000D+00  0.0000000000000D+00  0.0000000000000D+00
304  3.0300000000000D+00  0.0000000000000D+00  0.0000000000000D+00
305  3.0400000000000D+00  0.0000000000000D+00  0.0000000000000D+00
306  3.0500000000000D+00  0.0000000000000D+00  0.0000000000000D+00
307  3.0600000000000D+00  0.0000000000000D+00  0.0000000000000D+00
308  3.0700000000000D+00  0.0000000000000D+00  0.0000000000000D+00
309  3.0800000000000D+00  0.0000000000000D+00  0.0000000000000D+00
310  3.0900000000000D+00  0.0000000000000D+00  0.0000000000000D+00
311  3.1000000000000D+00  0.0000000000000D+00  0.0000000000000D+00
312  3.1100000000000D+00  0.0000000000000D+00  0.0000000000000D+00
313  3.1200000000000D+00  0.0000000000000D+00  0.0000000000000D+00
314  3.1300000000000D+00  0.0000000000000D+00  0.0000000000000D+00
315  3.1400000000000D+00  0.0000000000000D+00  0.0000000000000D+00
316  3.1500000000000D+00  0.0000000000000D+00  0.0000000000000D+00
317  3.1600000000000D+00  0.0000000000000D+00  0.0000000000000D+00
318  3.1700000000000D+00  0.0000000000000D+00  0.0000000000000D+00
319  3.1800000000000D+00  0.0000000000000D+00  0.0000000000000D+00
320  3.1900000000000D+00  0.0000000000000D+00  0.0000000000000D+00
321  3.2000000000000D+00  0.0000000000000D+00  0.0000000000000D+00
322  3.2100000000000D+00  0.0000000000000D+00  0.0000000000000D+00
323  3.2200000000000D+00  0.0000000000000D+00  0.0000000000000D+00
324  3.2300000000000D+00  0.0000000000000D+00  0.0000000000000D+00
325  3.2400000000000D+00  0.0000000000000D+00  0.0000000000000D+00
326  3.2500000000000D+00  0.0000000000000D+00  0.0000000000000D+00
327  3.2600000000000D+00  0.0000000000000D+00  0.0000000000000D+00
328  3.2700000000000D+00  0.0000000000000D+00  0.0000000000000D+00
329  3.2800000000000D+00  0.0000000000000D+00  0.0000000000000D+00
330  3.2900000000000D+00  0.0000000000000D+00  0.0000000000000D+00
331  3.3000000000000D+00  0.0000000000000D+00  0.0000000000000D+00
332  3.3100000000000D+00  0.0000000000000D+00  0.0000000000000D+00
333  3.3200000000000D+00  0.0000000000000D+00  0.0000000000000D+00
334  3.3300000000000D+00  0.0000000000000D+00  0.0000000000000D+00
335  3.3400000000000D+00  0.0000000000000D+00  0.0000000000000D+00
336  3.3500000000000D+00  0.0000000000000D+00  0.0000000000000D+00
337  3.3600000000000D+00  0.0000000000000D+00  0.0000000000000D+00
338  3.3700000000000D+00  0.0000000000000D+00  0.0000000000000D+00
339  3.3800000000000D+00  0.0000000000000D+00  0.0000000000000D+00
340  3.3900000000000D+00  0.0000000000000D+00  0.0000000000000D+00
341  3.4000000000000D+00  0.0000000000000D+00  0.0000000000000D+00
342  3.4100000000000D+00  0.0000000000000D+00  0.0000000000000D+00
343  3.4200000000000D+00  0.0000000000000D+00  0.0000000000000D+00
344  3.4300000000000D+00  0.0000000000000D+00  0.0000000000000D+00
345  3.4400000000000D+00  0.0000000000000D+00  0.0000000000000D+00
346  3.4500000000000D+00  0.0000000000000D+00  0.0000000000000D+00
347  3.4600000000000D+00  0.0000000000000D+00  0.0000000000000D+00
348  3.4700000000000D+00  0.0000000000000D+00  0.0000000000000D+00
349  3.4800000000000D+00  0.0000000000000D+00  0.0000000000000D+00
350  3.4900000000000D+00  0.0000000000000D+00  0.0000000000000D+00
351  3.5000000000000D+00  0.0000000000000D+00  0.0000000000000D+00
352  3.5100000000000D+00  0.0000000000000D+00  0.0000000000000D+00
353  3.5200000000000D+00  0.0000000000000D+00  0.0000000000000D+00
354  3.5300000000000D+00  0.0000000000000D+00  0.0000000000000D+00
355  3.5400000000000D+00  0.0000000000000D+00  0.0000000000000D+00
356  3.5500000000000D+00  0.0000000000000D+00  0.0000000000000D+00
357  3.5600000000000D+00  0.0000000000000D+00  0.0000000000000D+00
358  3.5700000000000D+00  0.0000000000000D+00  0.0000000000000D+00
359  3.5800000000000D+00  0.0000000000000D+00  0.0000000000000D+00
360  3.5900000000000D+00  0.0000000000000D+00  0.0000000000000D+00
361  3.6000000000000D+00  0.0000000000000D+00  0.0000000000000D+00
362  3.6100000000000D+00  0.0000000000000D+00  0.0000000000000D+00
363  3.6200000000000D+00  0.0000000000000D+00  0.0000000000000D+00
364  3.6300000000000D+00  0.0000000000000D+00  0.0000000000000D+00
365  3.6400000000000D+00  0.0000000000000D+00  0.0000000000000D+00
366  3.6500000000000D+00  0.0000000000000D+00  0.0000000000000D+00
367  3.6600000000000D+00  0.0000000000000D+00  0.0000000000000D+00
368  3.6700000000000D+00  0.0000000000000D+00  0.0000000000000D+00
369  3.6800000000000D+00  0.0000000000000D+00  0.0000000000000D+00
370  3.6900000000000D+00  0.0000000000000D+00  0.0000000000000D+00
371  3.7000000000000D+00  0.0000000000000D+00  0.0000000000000D+00
372  3.7100000000000D+00  0.0000000000000D+00  0.0000000000000D+00
373  3.7200000000000D+00  0.0000000000000D+00  0.0000000000000D+00
374  3.7300000000000D+00  0.0000000000000D+00  0.0000000000000D+00
375  3.7400000000000D+00  0.0000000000000D+00  0.0000000000000D+00
376  3.7500000000000D+00  0.0000000000000D+00  0.0000000000000D+00
377  3.7600000000000D+00  0.0000000000000D+00  0.0000000000000D+00
378  3.7700000000000D+00  0.0000000000000D+00  0.0000000000000D+00
379  3.7800000000000D+00  0.0000000000000D+00  0.0000000000000D+00
380  3.7900000000000D+00  0.0000000000000D+00  0.0000000000000D+00
381  3.8000000000000D+00  0.0000000000000D+00  0.0000000000000D+00
382  3.8100000000000D+00  0.0000000000000D+00  0.0000000000000D+00
383  3.8200000000000D+00  0.0000000000000D+00  0.0000000000000D+00
384  3.8300000000000D+00  0.0000000000000D+00  0.0000000000000D+00
385  3.8400000000000D+00  0.0000000000000D+00  0.0000000000000D+00
386  3.8500000000000D+00  0.0000000000000D+00  0.0000000000000D+00
387  3.8600000000000D+00  0.0000000000000D+00  0.0000000000000D+00
388  3.8700000000000D+00  0.0000000000000D+00  0.0000000000000D+00
389  3.8800000000000D+00  0.0000000000000D+00  0.0000000000000D+00
390  3.8900000000000D+00  0.0000000000000D+00  0.0000000000000D+00
391  3.9000000000000D+00  0.0000000000000D+00  0.0000000000000D+00
392  3.9100000000000D+00  0.0000000000000D+00  0.0000000000000D+00
393  3.9200000000000D+00  0.0000000000000D+00  0.0000000000000D+00
394  3.9300000000000D+00  0.0000000000000D+00  0.0000000000000D+00
395  3.9400000000000D+00  0.0000000000000D+00  0.0000000000000D+00
396  3.9500000000000D+00  0.0000000000000D+00  0.0000000000000D+00
397  3.9600000000000D+00  0.0000000000000D+00  0.0000000000000D+00
398  3.9700000000000D+00  0.0000000000000D+00  0.0000000000000D+00
399  3.9800000000000D+00  0.0000000000000D+00  0.0000000000000D+00
400  3.9900000000000D+00  0.0000000000000D+00  0.0000000000000D+00
401  4.0000000000000D+00  0.0000000000000D+00  0.0000000000000D+00
402  4.0100000000000D+00  0.0000000000000D+00  0.0000000000000D+00
403  4.0200000000000D+00  0.0000000000000D+00  0.0000000000000D+00
404  4.0300000000000D+00  0.0000000000000D+00  0.0000000000000D+00
405  4.0400000000000D+00  0.0000000000000D+00  0.0000000000000D+00
406  4.0500000000000D+00  0.0000000000000D+00  0.0000000000000D+00
407  4.0600000000000D+00  0.0000000000000D+00  0.0000000000000D+00
408  4.0700000000000D+00  0.0000000000000D+00  0.0000000000000D+00
409  4.0800000000000D+00  0.0000000000000D+00  0.0000000000000D+00
410  4.0900000000000D+00  0.0000000000000D+00  0.0000000000000D+00
411  4.1000000000000D+00  0.0000000000000D+00  0.0000000000000D+00
412  4.1100000000000D+00  0.0000000000000D+00  0.0000000000000D+00
413  4.1200000000000D+00  0.0000000000000D+00  0.0000000000000D+00
414  4.1300000000000D+00  0.0000000000000D+00  0.0000000000000D+00
415  4.1400000000000D+00  0.0000000000000D+00  0.0000000000000D+00
416  4.1500000000000D+00  0.0000000000000D+00  0.0000000000000D+00
417  4.1600000000000D+00  0.0000000000000D+00  0.0000000000000D+00
418  4.1700000000000D+00  0.0000000000000D+00  0.0000000000000D+00
419  4.1800000000000D+00  0.0000000000000D+00  0.0000000000000D+00
420  4.1900000000000D+00  0.0000000000000D+00  0.0000000000000D+00
421  4.2000000000000D+00  0.0000000000000D+00  0.0000000000000D+00
422  4.2100000000000D+00  0.0000000000000D+00  0.0000000000000D+00
423  4.2200000000000D+00  0.0000000000000D+00  0.0000000000000D+00
424  4.2300000000000D+00  0.0000000000000D+00  0.0000000000000D+00
425  4.2400000000000D+00  0.0000000000000D+00  0.0000000000000D+00
426  4.2500000000000D+00  0.0000000000000D+00  0.0000000000000D+00
427  4.2600000000000D+00  0.0000000000000D+00  0.0000000000000D+00
428  4.2700000000000D+00  0.0000000000000D+00  0.0000000000000D+00
429  4.2800000000000D+00  0.0000000000000D+00  0.0000000000000D+00
430  4.2900000000000D+00  0.0000000000000D+00  0.0000000000000D+00
431  4.3000000000000D+00  0.0000000000000D+00  0.0000000000000D+00
432  4.3100000000000D+00  0.0000000000000D+00  0.0000000000000D+00
433  4.3200000000000D+00  0.0000000000000D+00  0.0000000000000D+00
434  4.3300000000000D+00  0.0000000000000D+00  0.0000000000000D+00
435  4.3400000000000D+00  0.0000000000000D+00  0.0000000000000D+00
436  4.3500000000000D+00  0.0000000000000D+00  0.0000000000000D+00
437  4.3600000000000D+00  0.0000000000000D+00  0.0000000000000D+00
438  4.3700000000000D+00  0.0000000000000D+00  0.0000000000000D+00
439  4.3800000000000D+00  0.0000000000000D+00  0.0000000000000D+00
440  4.3900000000000D+00  0.0000000000000D+00  0.0000000000000D+00
441  4.4000000000000D+00  0.0000000000000D+00  0.0000000000000D+00
442  4.4100000000000D+00  0.0000000000000D+00  0.0000000000000D+00
443  4.4200000000000D+00  0.0000000000000D+00  0.0000000000000D+00