As    ONCVPSP  r_core=  1.85  1.70  2.16
33.0000      5.0000      160408    zatom,zion,pspd
8      11   2     4   600     0    pspcod,pspxc,lmax,lloc,mmax,r2well
5.99000000  8.00000000  0.00000000    rchrg fchrg qchrg
2     4     4     0    nproj
2                 extension_switch
4     4     0    nprojso
0                         8.0426424403804D-01  7.7826835106547D+00
1  0.0000000000000D+00 -9.6752640621478D-10  2.5804830494636D-10
2  1.0000000000000D-02 -7.9338568673657D-03  3.2116795314366D-02
3  2.0000000000000D-02 -1.5975888584467D-02  6.4252684837144D-02
4  3.0000000000000D-02 -2.4232568183019D-02  9.6426269033974D-02
5  4.0000000000000D-02 -3.2806985903320D-02  1.2865516665801D-01
6  5.0000000000000D-02 -4.1797209660902D-02  1.6095553825994D-01
7  6.0000000000000D-02 -5.1294707053146D-02  1.9334162675229D-01
8  7.0000000000000D-02 -6.1382848269944D-02  2.2582532040643D-01
9  8.0000000000000D-02 -7.2135508304981D-02  2.5841574340259D-01
10  9.0000000000000D-02 -8.3615785676559D-02  2.9111887873632D-01
11  1.0000000000000D-01 -9.5874853473190D-02  3.2393722791275D-01
12  1.1000000000000D-01 -1.0895095695598D-01  3.5686951143703D-01
13  1.2000000000000D-01 -1.2286857019598D-01  3.8991041364029D-01
14  1.3000000000000D-01 -1.3763772232102D-01  4.2305037487110D-01
15  1.4000000000000D-01 -1.5325350191545D-01  4.5627543353805D-01
16  1.5000000000000D-01 -1.6969574598278D-01  4.8956711991685D-01
17  1.6000000000000D-01 -1.8692891766902D-01  5.2290240304088D-01
18  1.7000000000000D-01 -2.0490217468230D-01  5.5625369138533D-01
19  1.8000000000000D-01 -2.2354962805695D-01  5.8958888743809D-01
20  1.9000000000000D-01 -2.4279078862598D-01  6.2287149563340D-01
21  2.0000000000000D-01 -2.6253119631226D-01  6.5606078251322D-01
22  2.1000000000000D-01 -2.8266322515177D-01  6.8911198738429D-01
23  2.2000000000000D-01 -3.0306705484881D-01  7.2197658116200D-01
24  2.3000000000000D-01 -3.2361179765903D-01  7.5460257054310D-01
25  2.4000000000000D-01 -3.4415676752378D-01  7.8693484413315D-01
26  2.5000000000000D-01 -3.6455287666315D-01  8.1891555667883D-01
27  2.6000000000000D-01 -3.8464414329460D-01  8.5048454712391D-01
28  2.7000000000000D-01 -4.0426929279762D-01  8.8157978582688D-01
29  2.8000000000000D-01 -4.2326343351034D-01  9.1213784595187D-01
30  2.9000000000000D-01 -4.4145978743279D-01  9.4209439377638D-01
31  3.0000000000000D-01 -4.5869145543716D-01  9.7138469245259D-01
32  3.1000000000000D-01 -4.7479319615443D-01  9.9994411361637D-01
33  3.2000000000000D-01 -4.8960319752578D-01  1.0277086511604D+00
34  3.3000000000000D-01 -5.0296482007775D-01  1.0546154314764D+00
35  3.4000000000000D-01 -5.1472829130261D-01  1.0806032145282D+00
36  3.5000000000000D-01 -5.2475233109529D-01  1.1056128802346D+00
37  3.6000000000000D-01 -5.3290568901005D-01  1.1295878948318D+00
38  3.7000000000000D-01 -5.3906857514306D-01  1.1524747521268D+00
39  3.8000000000000D-01 -5.4313396771058D-01  1.1742233848615D+00
40  3.9000000000000D-01 -5.4500878186004D-01  1.1947875417720D+00
41  4.0000000000000D-01 -5.4461488590707D-01  1.2141251263338D+00
42  4.1000000000000D-01 -5.4188995301416D-01  1.2321984936494D+00
43  4.2000000000000D-01 -5.3678813829662D-01  1.2489747024311D+00
44  4.3000000000000D-01 -5.2928057343268D-01  1.2644257195661D+00
45  4.4000000000000D-01 -5.1935567304453D-01  1.2785285753178D+00
46  4.5000000000000D-01 -5.0701924937749D-01  1.2912654677982D+00
47  4.6000000000000D-01 -4.9229443410962D-01  1.3026238159497D+00
48  4.7000000000000D-01 -4.7522140844511D-01  1.3125962608805D+00
49  4.8000000000000D-01 -4.5585694495449D-01  1.3211806160069D+00
50  4.9000000000000D-01 -4.3427376689468D-01  1.3283797670573D+00
51  5.0000000000000D-01 -4.1055973294458D-01  1.3342015235813D+00
52  5.1000000000000D-01 -3.8481685740078D-01  1.3386584241723D+00
53  5.2000000000000D-01 -3.5716017786722D-01  1.3417674981536D+00
54  5.3000000000000D-01 -3.2771648431765D-01  1.3435499869816D+00
55  5.4000000000000D-01 -2.9662292508754D-01  1.3440310290849D+00
56  5.5000000000000D-01 -2.6402550684425D-01  1.3432393122783D+00
57  5.6000000000000D-01 -2.3007750686724D-01  1.3412066982588D+00
58  5.7000000000000D-01 -1.9493781703486D-01  1.3379678240032D+00
59  5.8000000000000D-01 -1.5876923973992D-01  1.3335596851434D+00
60  5.9000000000000D-01 -1.2173675653862D-01  1.3280212065858D+00
61  6.0000000000000D-01 -8.4005790664187D-02  1.3213928057710D+00
62  6.1000000000000D-01 -4.5740484605630D-02  1.3137159540318D+00
63  6.2000000000000D-01 -7.1020137624644D-03  1.3050327415021D+00
64  6.3000000000000D-01  3.1753043265199D-02  1.2953854509590D+00
65  6.4000000000000D-01  7.0674257890765D-02  1.2848161458448D+00
66  6.5000000000000D-01  1.0951880934863D-01  1.2733662775112D+00
67  6.6000000000000D-01  1.4815282936770D-01  1.2610763164680D+00
68  6.7000000000000D-01  1.8645261738190D-01  1.2479854120962D+00
69  6.8000000000000D-01  2.2430571155936D-01  1.2341310849087D+00
70  6.9000000000000D-01  2.6161180272220D-01  1.2195489550154D+00
71  7.0000000000000D-01  2.9828348018739D-01  1.2042725099778D+00
72  7.1000000000000D-01  3.3424680064438D-01  1.1883329147280D+00
73  7.2000000000000D-01  3.6944167340868D-01  1.1717588656816D+00
74  7.3000000000000D-01  4.0382205767928D-01  1.1545764906038D+00
75  7.4000000000000D-01  4.3735596978789D-01  1.1368092951977D+00
76  7.5000000000000D-01  4.7002530081944D-01  1.1184781567810D+00
77  7.6000000000000D-01  5.0182544736850D-01  1.0996013648080D+00
78  7.7000000000000D-01  5.3276476056379D-01  1.0801947073924D+00
79  7.8000000000000D-01  5.6286382079918D-01  1.0602716023849D+00
80  7.9000000000000D-01  5.9215454782794D-01  1.0398432709848D+00
81  8.0000000000000D-01  6.2067915798547D-01  1.0189189513116D+00
82  8.1000000000000D-01  6.4848898227453D-01  9.9750614883545D-01
83  8.2000000000000D-01  6.7564316084934D-01  9.7561092008311D-01
84  8.3000000000000D-01  7.0220723105199D-01  9.5323818559382D-01
85  8.4000000000000D-01  7.2825162756233D-01  9.3039206770583D-01
86  8.5000000000000D-01  7.5385011440456D-01  9.0707624841734D-01
87  8.6000000000000D-01  7.7907816949431D-01  8.8329434228494D-01
88  8.7000000000000D-01  8.0401134309514D-01  8.5905027910571D-01
89  8.8000000000000D-01  8.2872361197603D-01  8.3434869097578D-01
90  8.9000000000000D-01  8.5328575121261D-01  8.0919529823291D-01
91  9.0000000000000D-01  8.7776374545328D-01  7.8359728877310D-01
92  9.1000000000000D-01  9.0221726107699D-01  7.5756368528247D-01
93  9.2000000000000D-01  9.2669820000516D-01  7.3110569504542D-01
94  9.3000000000000D-01  9.5124935500404D-01  7.0423703717648D-01
95  9.4000000000000D-01  9.7590318513551D-01  6.7697424237515D-01
96  9.5000000000000D-01  1.0006807285970D+00  6.4933692061618D-01
97  9.6000000000000D-01  1.0255906685569D+00  6.2134799255943D-01
98  9.7000000000000D-01  1.0506285657230D+00  5.9303388089520D-01
99  9.8000000000000D-01  1.0757762694150D+00  5.6442465830287D-01
100  9.9000000000000D-01  1.1010015166701D+00  5.3555414923389D-01
101  1.0000000000000D+00  1.1262577266305D+00  5.0645998327814D-01
102  1.0100000000000D+00  1.1514839950427D+00  4.7718359845992D-01
103  1.0200000000000D+00  1.1766052912098D+00  4.4777019341982D-01
104  1.0300000000000D+00  1.2015328572101D+00  4.1826862806286D-01
105  1.0400000000000D+00  1.2261648065881D+00  3.8873127290386D-01
106  1.0500000000000D+00  1.2503869173873D+00  3.5921380792749D-01
107  1.0600000000000D+00  1.2740736116559D+00  3.2977497247554D-01
108  1.0700000000000D+00  1.2970891113576D+00  3.0047626823680D-01
109  1.0800000000000D+00  1.3192887582732D+00  2.7138161802201D-01
110  1.0900000000000D+00  1.3405204832487D+00  2.4255698359167D-01
111  1.1000000000000D+00  1.3606264084478D+00  2.1406994625288D-01
112  1.1100000000000D+00  1.3794445640848D+00  1.8598925453009D-01
113  1.1200000000000D+00  1.3968106998438D+00  1.5838434356675D-01
114  1.1300000000000D+00  1.4125601696974D+00  1.3132483133836D-01
115  1.1400000000000D+00  1.4265298679084D+00  1.0487999702930D-01
116  1.1500000000000D+00  1.4385601929806D+00  7.9118247240595D-02
117  1.1600000000000D+00  1.4484970158959D+00  5.4106575854378D-02
118  1.1700000000000D+00  1.4561936287885D+00  2.9910023492719D-02
119  1.1800000000000D+00  1.4615126500910D+00  6.5911425776613D-03
120  1.1900000000000D+00  1.4643278625702D+00 -1.5790526011707D-02
121  1.2000000000000D+00  1.4645259613771D+00 -3.7178958813895D-02
122  1.2100000000000D+00  1.4620081901472D+00 -5.7522132484949D-02
123  1.2200000000000D+00  1.4566918439453D+00 -7.6772477754116D-02
124  1.2300000000000D+00  1.4485116198452D+00 -9.4887299481210D-02
125  1.2400000000000D+00  1.4374207977879D+00 -1.1182915807231D-01
126  1.2500000000000D+00  1.4233922347806D+00 -1.2756620758724D-01
127  1.2600000000000D+00  1.4064191594773D+00 -1.4207248676168D-01
128  1.2700000000000D+00  1.3865157560521D+00 -1.5532815960760D-01
129  1.2800000000000D+00  1.3637175268143D+00 -1.6731970236612D-01
130  1.2900000000000D+00  1.3380814281419D+00 -1.7804003477742D-01
131  1.3000000000000D+00  1.3096857764880D+00 -1.8748859416455D-01
132  1.3100000000000D+00  1.2786299210313D+00 -1.9567135076742D-01
133  1.3200000000000D+00  1.2450336864905D+00 -2.0260076442843D-01
134  1.3300000000000D+00  1.2090365903877D+00 -2.0829568294039D-01
135  1.3400000000000D+00  1.1707968393966D+00 -2.1278118242681D-01
136  1.3500000000000D+00  1.1304901171420D+00 -2.1608835204206D-01
137  1.3600000000000D+00  1.0883081738971D+00 -2.1825402482167D-01
138  1.3700000000000D+00  1.0444572319084D+00 -2.1932045730231D-01
139  1.3800000000000D+00  9.9915622524249D-01 -2.1933496189253D-01
140  1.3900000000000D+00  9.5263488985421D-01 -2.1834949513512D-01
141  1.4000000000000D+00  9.0513172623415D-01 -2.1642020673184D-01
142  1.4100000000000D+00  8.5689185614004D-01 -2.1360695405968D-01
143  1.4200000000000D+00  8.0816479547138D-01 -2.0997278695304D-01
144  1.4300000000000D+00  7.5920216931090D-01 -2.0558340878407D-01
145  1.4400000000000D+00  7.1025539229441D-01 -2.0050661898158D-01
146  1.4500000000000D+00  6.6157334116297D-01 -1.9481174326966D-01
147  1.4600000000000D+00  6.1340004352454D-01 -1.8856905727380D-01
148  1.4700000000000D+00  5.6597241013063D-01 -1.8184920981304D-01
149  1.4800000000000D+00  5.1951803271000D-01 -1.7472265139070D-01
150  1.4900000000000D+00  4.7425307497061D-01 -1.6725907429003D-01
151  1.5000000000000D+00  4.3038027646933D-01 -1.5952686938720D-01
152  1.5100000000000D+00  3.8808709309265D-01 -1.5159260541428D-01
153  1.5200000000000D+00  3.4754399466166D-01 -1.4352053592625D-01
154  1.5300000000000D+00  3.0890293432437D-01 -1.3537213790549D-01
155  1.5400000000000D+00  2.7229601363471D-01 -1.2720568796818D-01
156  1.5500000000000D+00  2.3783434441367D-01 -1.1907587728010D-01
157  1.5600000000000D+00  2.0560713626639D-01 -1.1103347218699D-01
158  1.5700000000000D+00  1.7568100339618D-01 -1.0312501972006D-01
159  1.5800000000000D+00  1.4809950664917D-01 -9.5392603308639D-02
160  1.5900000000000D+00  1.2288307662629D-01 -8.7873672849782D-02
161  1.6000000000000D+00  1.0002852762038D-01 -8.0600815697312D-02
162  1.6100000000000D+00  7.9509637026687D-02 -7.3601723231198D-02
163  1.6200000000000D+00  6.1279301616569D-02 -6.6899429724460D-02
164  1.6300000000000D+00  4.5271448879973D-02 -6.0512542593310D-02
165  1.6400000000000D+00  3.1403558185194D-02 -5.4455610116867D-02
166  1.6500000000000D+00  1.9578401304408D-02 -4.8739367410277D-02
167  1.6600000000000D+00  9.6848851685640D-03 -4.3370850126445D-02
168  1.6700000000000D+00  1.5996240954793D-03 -3.8353637084138D-02
169  1.6800000000000D+00 -4.8113507678796D-03 -3.3688122619111D-02
170  1.6900000000000D+00 -9.6908653587255D-03 -2.9371801974106D-02
171  1.7000000000000D+00 -1.3188740363199D-02 -2.5399586371069D-02
172  1.7100000000000D+00 -1.5459873680137D-02 -2.1764134316194D-02
173  1.7200000000000D+00 -1.6662271886820D-02 -1.8456197263895D-02
174  1.7300000000000D+00 -1.6955059712036D-02 -1.5464973976076D-02
175  1.7400000000000D+00 -1.6496489360358D-02 -1.2778468965200D-02
176  1.7500000000000D+00 -1.5441978527583D-02 -1.0383849085335D-02
177  1.7600000000000D+00 -1.3942196569868D-02 -8.2677941860640D-03
178  1.7700000000000D+00 -1.2141227296080D-02 -6.4168358385289D-03
179  1.7800000000000D+00 -1.0174828304383D-02 -4.8176799920373D-03
180  1.7900000000000D+00 -8.1702945203155D-03 -3.4576248670562D-03
181  1.8000000000000D+00 -6.2415474846503D-03 -2.3245692593549D-03
182  1.8100000000000D+00 -4.4776583690760D-03 -1.4068729984013D-03
183  1.8200000000000D+00 -2.9614976478786D-03 -6.9539059114928D-04
184  1.8300000000000D+00 -1.8358963820044D-03 -1.8160632618881D-04
185  1.8400000000000D+00 -1.1933158418170D-03  1.4886392463825D-04
186  1.8500000000000D+00 -8.1664124029477D-04  2.8167367766611D-04
187  1.8600000000000D+00 -4.4945703199937D-04  2.1565914028681D-04
188  1.8700000000000D+00 -1.1319125918234D-04  6.2633470750840D-05
189  1.8800000000000D+00  5.2366613404250D-05 -3.0690868814537D-05
190  1.8900000000000D+00  4.4215571402494D-05 -2.7339521747536D-05
191  1.9000000000000D+00 -7.0768114489040D-06  3.8097202953681D-06
192  1.9100000000000D+00 -1.3941260508164D-05  7.6738109845261D-06
193  1.9200000000000D+00  6.2250996208644D-08 -2.3875563067622D-08
194  1.9300000000000D+00  2.0986033762688D-06 -8.0489213531772D-07
195  1.9400000000000D+00  7.5511355888538D-07 -2.8961402220710D-07
196  1.9500000000000D+00  0.0000000000000D+00  0.0000000000000D+00
197  1.9600000000000D+00  0.0000000000000D+00  0.0000000000000D+00
198  1.9700000000000D+00  0.0000000000000D+00  0.0000000000000D+00
199  1.9800000000000D+00  0.0000000000000D+00  0.0000000000000D+00
200  1.9900000000000D+00  0.0000000000000D+00  0.0000000000000D+00
201  2.0000000000000D+00  0.0000000000000D+00  0.0000000000000D+00
202  2.0100000000000D+00  0.0000000000000D+00  0.0000000000000D+00
203  2.0200000000000D+00  0.0000000000000D+00  0.0000000000000D+00
204  2.0300000000000D+00  0.0000000000000D+00  0.0000000000000D+00
205  2.0400000000000D+00  0.0000000000000D+00  0.0000000000000D+00
206  2.0500000000000D+00  0.0000000000000D+00  0.0000000000000D+00
207  2.0600000000000D+00  0.0000000000000D+00  0.0000000000000D+00
208  2.0700000000000D+00  0.0000000000000D+00  0.0000000000000D+00
209  2.0800000000000D+00  0.0000000000000D+00  0.0000000000000D+00
210  2.0900000000000D+00  0.0000000000000D+00  0.0000000000000D+00
211  2.1000000000000D+00  0.0000000000000D+00  0.0000000000000D+00
212  2.1100000000000D+00  0.0000000000000D+00  0.0000000000000D+00
213  2.1200000000000D+00  0.0000000000000D+00  0.0000000000000D+00
214  2.1300000000000D+00  0.0000000000000D+00  0.0000000000000D+00
215  2.1400000000000D+00  0.0000000000000D+00  0.0000000000000D+00
216  2.1500000000000D+00  0.0000000000000D+00  0.0000000000000D+00
217  2.1600000000000D+00  0.0000000000000D+00  0.0000000000000D+00
218  2.1700000000000D+00  0.0000000000000D+00  0.0000000000000D+00
219  2.1800000000000D+00  0.0000000000000D+00  0.0000000000000D+00
220  2.1900000000000D+00  0.0000000000000D+00  0.0000000000000D+00
221  2.2000000000000D+00  0.0000000000000D+00  0.0000000000000D+00
222  2.2100000000000D+00  0.0000000000000D+00  0.0000000000000D+00
223  2.2200000000000D+00  0.0000000000000D+00  0.0000000000000D+00
224  2.2300000000000D+00  0.0000000000000D+00  0.0000000000000D+00
225  2.2400000000000D+00  0.0000000000000D+00  0.0000000000000D+00
226  2.2500000000000D+00  0.0000000000000D+00  0.0000000000000D+00
227  2.2600000000000D+00  0.0000000000000D+00  0.0000000000000D+00
228  2.2700000000000D+00  0.0000000000000D+00  0.0000000000000D+00
229  2.2800000000000D+00  0.0000000000000D+00  0.0000000000000D+00
230  2.2900000000000D+00  0.0000000000000D+00  0.0000000000000D+00
231  2.3000000000000D+00  0.0000000000000D+00  0.0000000000000D+00
232  2.3100000000000D+00  0.0000000000000D+00  0.0000000000000D+00
233  2.3200000000000D+00  0.0000000000000D+00  0.0000000000000D+00
234  2.3300000000000D+00  0.0000000000000D+00  0.0000000000000D+00
235  2.3400000000000D+00  0.0000000000000D+00  0.0000000000000D+00
236  2.3500000000000D+00  0.0000000000000D+00  0.0000000000000D+00
237  2.3600000000000D+00  0.0000000000000D+00  0.0000000000000D+00
238  2.3700000000000D+00  0.0000000000000D+00  0.0000000000000D+00
239  2.3800000000000D+00  0.0000000000000D+00  0.0000000000000D+00
240  2.3900000000000D+00  0.0000000000000D+00  0.0000000000000D+00
241  2.4000000000000D+00  0.0000000000000D+00  0.0000000000000D+00
242  2.4100000000000D+00  0.0000000000000D+00  0.0000000000000D+00
243  2.4200000000000D+00  0.0000000000000D+00  0.0000000000000D+00
244  2.4300000000000D+00  0.0000000000000D+00  0.0000000000000D+00
245  2.4400000000000D+00  0.0000000000000D+00  0.0000000000000D+00
246  2.4500000000000D+00  0.0000000000000D+00  0.0000000000000D+00
247  2.4600000000000D+00  0.0000000000000D+00  0.0000000000000D+00
248  2.4700000000000D+00  0.0000000000000D+00  0.0000000000000D+00
249  2.4800000000000D+00  0.0000000000000D+00  0.0000000000000D+00
250  2.4900000000000D+00  0.0000000000000D+00  0.0000000000000D+00
251  2.5000000000000D+00  0.0000000000000D+00  0.0000000000000D+00
252  2.5100000000000D+00  0.0000000000000D+00  0.0000000000000D+00
253  2.5200000000000D+00  0.0000000000000D+00  0.0000000000000D+00
254  2.5300000000000D+00  0.0000000000000D+00  0.0000000000000D+00
255  2.5400000000000D+00  0.0000000000000D+00  0.0000000000000D+00
256  2.5500000000000D+00  0.0000000000000D+00  0.0000000000000D+00
257  2.5600000000000D+00  0.0000000000000D+00  0.0000000000000D+00
258  2.5700000000000D+00  0.0000000000000D+00  0.0000000000000D+00
259  2.5800000000000D+00  0.0000000000000D+00  0.0000000000000D+00
260  2.5900000000000D+00  0.0000000000000D+00  0.0000000000000D+00
261  2.6000000000000D+00  0.0000000000000D+00  0.0000000000000D+00
262  2.6100000000000D+00  0.0000000000000D+00  0.0000000000000D+00
263  2.6200000000000D+00  0.0000000000000D+00  0.0000000000000D+00
264  2.6300000000000D+00  0.0000000000000D+00  0.0000000000000D+00
265  2.6400000000000D+00  0.0000000000000D+00  0.0000000000000D+00
266  2.6500000000000D+00  0.0000000000000D+00  0.0000000000000D+00
267  2.6600000000000D+00  0.0000000000000D+00  0.0000000000000D+00
268  2.6700000000000D+00  0.0000000000000D+00  0.0000000000000D+00
269  2.6800000000000D+00  0.0000000000000D+00  0.0000000000000D+00
270  2.6900000000000D+00  0.0000000000000D+00  0.0000000000000D+00
271  2.7000000000000D+00  0.0000000000000D+00  0.0000000000000D+00
272  2.7100000000000D+00  0.0000000000000D+00  0.0000000000000D+00
273  2.7200000000000D+00  0.0000000000000D+00  0.0000000000000D+00
274  2.7300000000000D+00  0.0000000000000D+00  0.0000000000000D+00
275  2.7400000000000D+00  0.0000000000000D+00  0.0000000000000D+00
276  2.7500000000000D+00  0.0000000000000D+00  0.0000000000000D+00
277  2.7600000000000D+00  0.0000000000000D+00  0.0000000000000D+00
278  2.7700000000000D+00  0.0000000000000D+00  0.0000000000000D+00
279  2.7800000000000D+00  0.0000000000000D+00  0.0000000000000D+00
280  2.7900000000000D+00  0.0000000000000D+00  0.0000000000000D+00
281  2.8000000000000D+00  0.0000000000000D+00  0.0000000000000D+00
282  2.8100000000000D+00  0.0000000000000D+00  0.0000000000000D+00
283  2.8200000000000D+00  0.0000000000000D+00  0.0000000000000D+00
284  2.8300000000000D+00  0.0000000000000D+00  0.0000000000000D+00
285  2.8400000000000D+00  0.0000000000000D+00  0.0000000000000D+00
286  2.8500000000000D+00  0.0000000000000D+00  0.0000000000000D+00
287  2.8600000000000D+00  0.0000000000000D+00  0.0000000000000D+00
288  2.8700000000000D+00  0.0000000000000D+00  0.0000000000000D+00
289  2.8800000000000D+00  0.0000000000000D+00  0.0000000000000D+00
290  2.8900000000000D+00  0.0000000000000D+00  0.0000000000000D+00
291  2.9000000000000D+00  0.0000000000000D+00  0.0000000000000D+00
292  2.9100000000000D+00  0.0000000000000D+00  0.0000000000000D+00
293  2.9200000000000D+00  0.0000000000000D+00  0.0000000000000D+00
294  2.9300000000000D+00  0.0000000000000D+00  0.0000000000000D+00
295  2.9400000000000D+00  0.0000000000000D+00  0.0000000000000D+00
296  2.9500000000000D+00  0.0000000000000D+00  0.0000000000000D+00
297  2.9600000000000D+00  0.0000000000000D+00  0.0000000000000D+00
298  2.9700000000000D+00  0.0000000000000D+00  0.0000000000000D+00
299  2.9800000000000D+00  0.0000000000000D+00  0.0000000000000D+00
300  2.9900000000000D+00  0.0000000000000D+00  0.0000000000000D+00
301  3.0000000000000D+00  0.0000000000000D+00  0.0000000000000D+00
302  3.0100000000000D+00  0.0000000000000D+00  0.0000000000000D+00
303  3.0200000000000D+00  0.0000000000000D+00  0.0000000000000D+00
304  3.0300000000000D+00  0.0000000000000D+00  0.0000000000000D+00
305  3.0400000000000D+00  0.0000000000000D+00  0.0000000000000D+00
306  3.0500000000000D+00  0.0000000000000D+00  0.0000000000000D+00
307  3.0600000000000D+00  0.0000000000000D+00  0.0000000000000D+00
308  3.0700000000000D+00  0.0000000000000D+00  0.0000000000000D+00
309  3.0800000000000D+00  0.0000000000000D+00  0.0000000000000D+00
310  3.0900000000000D+00  0.0000000000000D+00  0.0000000000000D+00
311  3.1000000000000D+00  0.0000000000000D+00  0.0000000000000D+00
312  3.1100000000000D+00  0.0000000000000D+00  0.0000000000000D+00
313  3.1200000000000D+00  0.0000000000000D+00  0.0000000000000D+00
314  3.1300000000000D+00  0.0000000000000D+00  0.0000000000000D+00
315  3.1400000000000D+00  0.0000000000000D+00  0.0000000000000D+00
316  3.1500000000000D+00  0.0000000000000D+00  0.0000000000000D+00
317  3.1600000000000D+00  0.0000000000000D+00  0.0000000000000D+00
318  3.1700000000000D+00  0.0000000000000D+00  0.0000000000000D+00
319  3.1800000000000D+00  0.0000000000000D+00  0.0000000000000D+00
320  3.1900000000000D+00  0.0000000000000D+00  0.0000000000000D+00
321  3.2000000000000D+00  0.0000000000000D+00  0.0000000000000D+00
322  3.2100000000000D+00  0.0000000000000D+00  0.0000000000000D+00
323  3.2200000000000D+00  0.0000000000000D+00  0.0000000000000D+00
324  3.2300000000000D+00  0.0000000000000D+00  0.0000000000000D+00
325  3.2400000000000D+00  0.0000000000000D+00  0.0000000000000D+00
326  3.2500000000000D+00  0.0000000000000D+00  0.0000000000000D+00
327  3.2600000000000D+00  0.0000000000000D+00  0.0000000000000D+00
328  3.2700000000000D+00  0.0000000000000D+00  0.0000000000000D+00
329  3.2800000000000D+00  0.0000000000000D+00  0.0000000000000D+00
330  3.2900000000000D+00  0.0000000000000D+00  0.0000000000000D+00
331  3.3000000000000D+00  0.0000000000000D+00  0.0000000000000D+00
332  3.3100000000000D+00  0.0000000000000D+00  0.0000000000000D+00
333  3.3200000000000D+00  0.0000000000000D+00  0.0000000000000D+00
334  3.3300000000000D+00  0.0000000000000D+00  0.0000000000000D+00
335  3.3400000000000D+00  0.0000000000000D+00  0.0000000000000D+00
336  3.3500000000000D+00  0.0000000000000D+00  0.0000000000000D+00
337  3.3600000000000D+00  0.0000000000000D+00  0.0000000000000D+00
338  3.3700000000000D+00  0.0000000000000D+00  0.0000000000000D+00
339  3.3800000000000D+00  0.0000000000000D+00  0.0000000000000D+00
340  3.3900000000000D+00  0.0000000000000D+00  0.0000000000000D+00
341  3.4000000000000D+00  0.0000000000000D+00  0.0000000000000D+00
342  3.4100000000000D+00  0.0000000000000D+00  0.0000000000000D+00
343  3.4200000000000D+00  0.0000000000000D+00  0.0000000000000D+00
344  3.4300000000000D+00  0.0000000000000D+00  0.0000000000000D+00
345  3.4400000000000D+00  0.0000000000000D+00  0.0000000000000D+00
346  3.4500000000000D+00  0.0000000000000D+00  0.0000000000000D+00
347  3.4600000000000D+00  0.0000000000000D+00  0.0000000000000D+00
348  3.4700000000000D+00  0.0000000000000D+00  0.0000000000000D+00
349  3.4800000000000D+00  0.0000000000000D+00  0.0000000000000D+00
350  3.4900000000000D+00  0.0000000000000D+00  0.0000000000000D+00
351  3.5000000000000D+00  0.0000000000000D+00  0.0000000000000D+00
352  3.5100000000000D+00  0.0000000000000D+00  0.0000000000000D+00
353  3.5200000000000D+00  0.0000000000000D+00  0.0000000000000D+00
354  3.5300000000000D+00  0.0000000000000D+00  0.0000000000000D+00
355  3.5400000000000D+00  0.0000000000000D+00  0.0000000000000D+00
356  3.5500000000000D+00  0.0000000000000D+00  0.0000000000000D+00
357  3.5600000000000D+00  0.0000000000000D+00  0.0000000000000D+00
358  3.5700000000000D+00  0.0000000000000D+00  0.0000000000000D+00
359  3.5800000000000D+00  0.0000000000000D+00  0.0000000000000D+00
360  3.5900000000000D+00  0.0000000000000D+00  0.0000000000000D+00
361  3.6000000000000D+00  0.0000000000000D+00  0.0000000000000D+00
362  3.6100000000000D+00  0.0000000000000D+00  0.0000000000000D+00
363  3.6200000000000D+00  0.0000000000000D+00  0.0000000000000D+00
364  3.6300000000000D+00  0.0000000000000D+00  0.0000000000000D+00
365  3.6400000000000D+00  0.0000000000000D+00  0.0000000000000D+00
366  3.6500000000000D+00  0.0000000000000D+00  0.0000000000000D+00
367  3.6600000000000D+00  0.0000000000000D+00  0.0000000000000D+00
368  3.6700000000000D+00  0.0000000000000D+00  0.0000000000000D+00
369  3.6800000000000D+00  0.0000000000000D+00  0.0000000000000D+00
370  3.6900000000000D+00  0.0000000000000D+00  0.0000000000000D+00
371  3.7000000000000D+00  0.0000000000000D+00  0.0000000000000D+00
372  3.7100000000000D+00  0.0000000000000D+00  0.0000000000000D+00
373  3.7200000000000D+00  0.0000000000000D+00  0.0000000000000D+00
374  3.7300000000000D+00  0.0000000000000D+00  0.0000000000000D+00
375  3.7400000000000D+00  0.0000000000000D+00  0.0000000000000D+00
376  3.7500000000000D+00  0.0000000000000D+00  0.0000000000000D+00
377  3.7600000000000D+00  0.0000000000000D+00  0.0000000000000D+00
378  3.7700000000000D+00  0.0000000000000D+00  0.0000000000000D+00
379  3.7800000000000D+00  0.0000000000000D+00  0.0000000000000D+00
380  3.7900000000000D+00  0.0000000000000D+00  0.0000000000000D+00
381  3.8000000000000D+00  0.0000000000000D+00  0.0000000000000D+00
382  3.8100000000000D+00  0.0000000000000D+00  0.0000000000000D+00
383  3.8200000000000D+00  0.0000000000000D+00  0.0000000000000D+00
384  3.8300000000000D+00  0.0000000000000D+00  0.0000000000000D+00
385  3.8400000000000D+00  0.0000000000000D+00  0.0000000000000D+00
386  3.8500000000000D+00  0.0000000000000D+00  0.0000000000000D+00
387  3.8600000000000D+00  0.0000000000000D+00  0.0000000000000D+00
388  3.8700000000000D+00  0.0000000000000D+00  0.0000000000000D+00
389  3.8800000000000D+00  0.0000000000000D+00  0.0000000000000D+00
390  3.8900000000000D+00  0.0000000000000D+00  0.0000000000000D+00
391  3.9000000000000D+00  0.0000000000000D+00  0.0000000000000D+00
392  3.9100000000000D+00  0.0000000000000D+00  0.0000000000000D+00
393  3.9200000000000D+00  0.0000000000000D+00  0.0000000000000D+00
394  3.9300000000000D+00  0.0000000000000D+00  0.0000000000000D+00
395  3.9400000000000D+00  0.0000000000000D+00  0.0000000000000D+00
396  3.9500000000000D+00  0.0000000000000D+00  0.0000000000000D+00
397  3.9600000000000D+00  0.0000000000000D+00  0.0000000000000D+00
398  3.9700000000000D+00  0.0000000000000D+00  0.0000000000000D+00
399  3.9800000000000D+00  0.0000000000000D+00  0.0000000000000D+00
400  3.9900000000000D+00  0.0000000000000D+00  0.0000000000000D+00
401  4.0000000000000D+00  0.0000000000000D+00  0.0000000000000D+00
402  4.0100000000000D+00  0.0000000000000D+00  0.0000000000000D+00
403  4.0200000000000D+00  0.0000000000000D+00  0.0000000000000D+00
404  4.0300000000000D+00  0.0000000000000D+00  0.0000000000000D+00
405  4.0400000000000D+00  0.0000000000000D+00  0.0000000000000D+00
406  4.0500000000000D+00  0.0000000000000D+00  0.0000000000000D+00
407  4.0600000000000D+00  0.0000000000000D+00  0.0000000000000D+00
408  4.0700000000000D+00  0.0000000000000D+00  0.0000000000000D+00
409  4.0800000000000D+00  0.0000000000000D+00  0.0000000000000D+00
410  4.0900000000000D+00  0.0000000000000D+00  0.0000000000000D+00
411  4.1000000000000D+00  0.0000000000000D+00  0.0000000000000D+00
412  4.1100000000000D+00  0.0000000000000D+00  0.0000000000000D+00
413  4.1200000000000D+00  0.0000000000000D+00  0.0000000000000D+00
414  4.1300000000000D+00  0.0000000000000D+00  0.0000000000000D+00
415  4.1400000000000D+00  0.0000000000000D+00  0.0000000000000D+00
416  4.1500000000000D+00  0.0000000000000D+00  0.0000000000000D+00
417  4.1600000000000D+00  0.0000000000000D+00  0.0000000000000D+00
418  4.1700000000000D+00  0.0000000000000D+00  0.0000000000000D+00
419  4.1800000000000D+00  0.0000000000000D+00  0.0000000000000D+00
420  4.1900000000000D+00  0.0000000000000D+00  0.0000000000000D+00
421  4.2000000000000D+00  0.0000000000000D+00  0.0000000000000D+00
422  4.2100000000000D+00  0.0000000000000D+00  0.0000000000000D+00
423  4.2200000000000D+00  0.0000000000000D+00  0.0000000000000D+00
424  4.2300000000000D+00  0.0000000000000D+00  0.0000000000000D+00
425  4.2400000000000D+00  0.0000000000000D+00  0.0000000000000D+00
426  4.2500000000000D+00  0.0000000000000D+00  0.0000000000000D+00
427  4.2600000000000D+00  0.0000000000000D+00  0.0000000000000D+00
428  4.2700000000000D+00  0.0000000000000D+00  0.0000000000000D+00
429  4.2800000000000D+00  0.0000000000000D+00  0.0000000000000D+00
430  4.2900000000000D+00  0.0000000000000D+00  0.0000000000000D+00
431  4.3000000000000D+00  0.0000000000000D+00  0.0000000000000D+00
432  4.3100000000000D+00  0.0000000000000D+00  0.0000000000000D+00
433  4.3200000000000D+00  0.0000000000000D+00  0.0000000000000D+00
434  4.3300000000000D+00  0.0000000000000D+00  0.0000000000000D+00
435  4.3400000000000D+00  0.0000000000000D+00  0.0000000000000D+00
436  4.3500000000000D+00  0.0000000000000D+00  0.0000000000000D+00
437  4.3600000000000D+00  0.0000000000000D+00  0.0000000000000D+00
438  4.3700000000000D+00  0.0000000000000D+00  0.0000000000000D+00
439  4.3800000000000D+00  0.0000000000000D+00  0.0000000000000D+00
440  4.3900000000000D+00  0.0000000000000D+00  0.0000000000000D+00
441  4.4000000000000D+00  0.0000000000000D+00  0.0000000000000D+00
442  4.4100000000000D+00  0.0000000000000D+00  0.0000000000000D+00
443  4.4200000000000D+00  0.0000000000000D+00  0.0000000000000D+00