In    ONCVPSP-3.2.3  r_core=   2.40417   2.37566   1.87143
49.0000     13.0000      161006    zatom,zion,pspd
8   -1012   2     4   600     0    pspcod,pspxc,lmax,lloc,mmax,r2well
5.99000000  5.00000000  0.00000000    rchrg fchrg qchrg
2     2     2     0     0    nproj
1     1           extension_switch
0                         5.8272255881897D+00  6.2217206829263D-01
1  0.0000000000000D+00 -1.2267076243688D-11  1.7120832529471D-11
2  1.0000000000000D-02  2.5424160140548D-02 -2.5445951562671D-02
3  2.0000000000000D-02  5.0804194929163D-02 -5.0819812482244D-02
4  3.0000000000000D-02  7.6096170775730D-02 -7.6049777272884D-02
5  4.0000000000000D-02  1.0125653677510D-01 -1.0106460956294D-01
6  5.0000000000000D-02  1.2624231395595D-01 -1.2579392365548D-01
7  6.0000000000000D-02  1.5101128202606D-01 -1.5016846250499D-01
8  7.0000000000000D-02  1.7552216279352D-01 -1.7412037093561D-01
9  8.0000000000000D-02  1.9973479945632D-01 -1.9758346294337D-01
10  9.0000000000000D-02  2.2361033096727D-01 -2.2049348194627D-01
11  1.0000000000000D-01  2.4711136070024D-01 -2.4278835287153D-01
12  1.1000000000000D-01  2.7020211866420D-01 -2.6440842499885D-01
13  1.2000000000000D-01  2.9284861653633D-01 -2.8529670451251D-01
14  1.3000000000000D-01  3.1501879481193D-01 -3.0539907575261D-01
15  1.4000000000000D-01  3.3668266139872D-01 -3.2466451019756D-01
16  1.5000000000000D-01  3.5781242101590D-01 -3.4304526225544D-01
17  1.6000000000000D-01  3.7838259479285D-01 -3.6049705099130D-01
18  1.7000000000000D-01  3.9837012950044D-01 -3.7697922697013D-01
19  1.8000000000000D-01  4.1775449588793D-01 -3.9245492345200D-01
20  1.9000000000000D-01  4.3651777564059D-01 -4.0689119123580D-01
21  2.0000000000000D-01  4.5464473651827D-01 -4.2025911651083D-01
22  2.1000000000000D-01  4.7212289528147D-01 -4.3253392114240D-01
23  2.2000000000000D-01  4.8894256806075D-01 -4.4369504488607D-01
24  2.3000000000000D-01  5.0509690787527D-01 -4.5372620909776D-01
25  2.4000000000000D-01  5.2058192905917D-01 -4.6261546158105D-01
26  2.5000000000000D-01  5.3539651840790D-01 -4.7035520229002D-01
27  2.6000000000000D-01  5.4954243291185D-01 -4.7694218968474D-01
28  2.7000000000000D-01  5.6302428400108D-01 -4.8237752761747D-01
29  2.8000000000000D-01  5.7584950828216D-01 -4.8666663270971D-01
30  2.9000000000000D-01  5.8802832480627D-01 -4.8981918226396D-01
31  3.0000000000000D-01  5.9957367896633D-01 -4.9184904283880D-01
32  3.1000000000000D-01  6.1050117318004D-01 -4.9277417970094D-01
33  3.2000000000000D-01  6.2082898457484D-01 -4.9261654745368D-01
34  3.3000000000000D-01  6.3057776994985D-01 -4.9140196222692D-01
35  3.4000000000000D-01  6.3977055834852D-01 -4.8915995589926D-01
36  3.5000000000000D-01  6.4843263163403D-01 -4.8592361290720D-01
37  3.6000000000000D-01  6.5659139351652D-01 -4.8172939028013D-01
38  3.7000000000000D-01  6.6427622753773D-01 -4.7661692162234D-01
39  3.8000000000000D-01  6.7151834457318D-01 -4.7062880584285D-01
40  3.9000000000000D-01  6.7835062046560D-01 -4.6381038151279D-01
41  4.0000000000000D-01  6.8480742445430D-01 -4.5620948780494D-01
42  4.1000000000000D-01  6.9092443911481D-01 -4.4787621304295D-01
43  4.2000000000000D-01  6.9673847256971D-01 -4.3886263195652D-01
44  4.3000000000000D-01  7.0228726377578D-01 -4.2922253280424D-01
45  4.4000000000000D-01  7.0760928173406D-01 -4.1901113558691D-01
46  4.5000000000000D-01  7.1274351950728D-01 -4.0828480263028D-01
47  4.6000000000000D-01  7.1772928396421D-01 -3.9710074286823D-01
48  4.7000000000000D-01  7.2260598220131D-01 -3.8551671120304D-01
49  4.8000000000000D-01  7.2741290561943D-01 -3.7359070436024D-01
50  4.9000000000000D-01  7.3218901265680D-01 -3.6138065469008D-01
51  5.0000000000000D-01  7.3697271119816D-01 -3.4894412339577D-01
52  5.1000000000000D-01  7.4180164169483D-01 -3.3633799469021D-01
53  5.2000000000000D-01  7.4671246204020D-01 -3.2361817239805D-01
54  5.3000000000000D-01  7.5174063525082D-01 -3.1083928052731D-01
55  5.4000000000000D-01  7.5692022100326D-01 -2.9805436933536D-01
56  5.5000000000000D-01  7.6228367207270D-01 -2.8531462840704D-01
57  5.6000000000000D-01  7.6786163670958D-01 -2.7266910824808D-01
58  5.7000000000000D-01  7.7368276797602D-01 -2.6016445187466D-01
59  5.8000000000000D-01  7.7977354104390D-01 -2.4784463784988D-01
60  5.9000000000000D-01  7.8615807943168D-01 -2.3575073618022D-01
61  6.0000000000000D-01  7.9285799112716D-01 -2.2392067843919D-01
62  6.1000000000000D-01  7.9989221550797D-01 -2.1238904343265D-01
63  6.2000000000000D-01  8.0727688193202D-01 -2.0118685965881D-01
64  6.3000000000000D-01  8.1502518082485D-01 -1.9034142574808D-01
65  6.4000000000000D-01  8.2314724804126D-01 -1.7987614999241D-01
66  6.5000000000000D-01  8.3165006322441D-01 -1.6981040999125D-01
67  6.6000000000000D-01  8.4053736282674D-01 -1.6015943335167D-01
68  6.7000000000000D-01  8.4980956839423D-01 -1.5093420028577D-01
69  6.8000000000000D-01  8.5946373064882D-01 -1.4214136884546D-01
70  6.9000000000000D-01  8.6949348983296D-01 -1.3378322342887D-01
71  7.0000000000000D-01  8.7988905270666D-01 -1.2585764707977D-01
72  7.1000000000000D-01  8.9063718651031D-01 -1.1835811798482D-01
73  7.2000000000000D-01  9.0172123012677D-01 -1.1127373045243D-01
74  7.3000000000000D-01  9.1312112259410D-01 -1.0458924053275D-01
75  7.4000000000000D-01  9.2481344903646D-01 -9.8285136310973D-02
76  7.5000000000000D-01  9.3677150399470D-01 -9.2337732776594D-02
77  7.6000000000000D-01  9.4896537205193D-01 -8.6719291040537D-02
78  7.7000000000000D-01  9.6136202556111D-01 -8.1398161539201D-02
79  7.8000000000000D-01  9.7392543919458D-01 -7.6338950733387D-02
80  7.9000000000000D-01  9.8661672094741D-01 -7.1502710677567D-02
81  8.0000000000000D-01  9.9939425913989D-01 -6.6847150705079D-02
82  8.1000000000000D-01  1.0122138848783D+00 -6.2326870346448D-02
83  8.2000000000000D-01  1.0250290493492D+00 -5.7893612472168D-02
84  8.3000000000000D-01  1.0377910152398D+00 -5.3496535529821D-02
85  8.4000000000000D-01  1.0504490614990D+00 -4.9082503627137D-02
86  8.5000000000000D-01  1.0629507005742D+00 -4.4596393100290D-02
87  8.6000000000000D-01  1.0752419071895D+00 -3.9981414099294D-02
88  8.7000000000000D-01  1.0872673576577D+00 -3.5179445622188D-02
89  8.8000000000000D-01  1.0989706786588D+00 -3.0131382336176D-02
90  8.9000000000000D-01  1.1102947043513D+00 -2.4777491437584D-02
91  9.0000000000000D-01  1.1211817406340D+00 -1.9057777726223D-02
92  9.1000000000000D-01  1.1315738353217D+00 -1.2912355000242D-02
93  9.2000000000000D-01  1.1414130529576D+00 -6.2818218192337D-03
94  9.3000000000000D-01  1.1506417529469D+00  8.9236036559699D-04
95  9.4000000000000D-01  1.1592028696644D+00  8.6674887544268D-03
96  9.5000000000000D-01  1.1670401931666D+00  1.7099242482509D-02
97  9.6000000000000D-01  1.1740986491202D+00  2.6241309728919D-02
98  9.7000000000000D-01  1.1803245765487D+00  3.6145020740395D-02
99  9.8000000000000D-01  1.1856660019976D+00  4.6858988853038D-02
100  9.9000000000000D-01  1.1900729087206D+00  5.8428761577858D-02
101  1.0000000000000D+00  1.1934974995047D+00  7.0896483785576D-02
102  1.0100000000000D+00  1.1958944517678D+00  8.4300574984665D-02
103  1.0200000000000D+00  1.1972211635931D+00  9.8675422633183D-02
104  1.0300000000000D+00  1.1974379893947D+00  1.1405109336042D-01
105  1.0400000000000D+00  1.1965084639555D+00  1.3045306389735D-01
106  1.0500000000000D+00  1.1943995136231D+00  1.4790197342651D-01
107  1.0600000000000D+00  1.1910816535050D+00  1.6641339896924D-01
108  1.0700000000000D+00  1.1865291695707D+00  1.8599765531091D-01
109  1.0800000000000D+00  1.1807202846335D+00  2.0665962085374D-01
110  1.0900000000000D+00  1.1736373072609D+00  2.2839859065352D-01
111  1.1000000000000D+00  1.1652667627447D+00  2.5120815776300D-01
112  1.1100000000000D+00  1.1555995053417D+00  2.7507612386639D-01
113  1.1200000000000D+00  1.1446308110961D+00  2.9998444002297D-01
114  1.1300000000000D+00  1.1323604506442D+00  3.2590917819249D-01
115  1.1400000000000D+00  1.1187927415080D+00  3.5282053403502D-01
116  1.1500000000000D+00  1.1039365794673D+00  3.8068286134605D-01
117  1.1600000000000D+00  1.0878054487354D+00  4.0945473826460D-01
118  1.1700000000000D+00  1.0704174107534D+00  4.3908906524674D-01
119  1.1800000000000D+00  1.0517950715322D+00  4.6953319461158D-01
120  1.1900000000000D+00  1.0319655275698D+00  5.0072909130928D-01
121  1.2000000000000D+00  1.0109602905099D+00  5.3261352433972D-01
122  1.2100000000000D+00  9.8881519081237D-01  5.6511828808190D-01
123  1.2200000000000D+00  9.6557026077801D-01  5.9817045268328D-01
124  1.2300000000000D+00  9.4126959743713D-01  6.3169264239318D-01
125  1.2400000000000D+00  9.1596120589838D-01  6.6560334058932D-01
126  1.2500000000000D+00  8.8969682383277D-01  6.9981722012559D-01
127  1.2600000000000D+00  8.6253172789652D-01  7.3424549742847D-01
128  1.2700000000000D+00  8.3452452301326D-01  7.6879630859333D-01
129  1.2800000000000D+00  8.0573691548015D-01  8.0337510566493D-01
130  1.2900000000000D+00  7.7623347097662D-01  8.3788507111338D-01
131  1.3000000000000D+00  7.4608135867313D-01  8.7222754834363D-01
132  1.3100000000000D+00  7.1535008264445D-01  9.0630248606791D-01
133  1.3200000000000D+00  6.8411120190973D-01  9.4000889419559D-01
134  1.3300000000000D+00  6.5243804050694D-01  9.7324530878476D-01
135  1.3400000000000D+00  6.2040538898903D-01  1.0059102636236D+00
136  1.3500000000000D+00  5.8808919886129D-01  1.0379027658300D+00
137  1.3600000000000D+00  5.5556627148999D-01  1.0691227728668D+00
138  1.3700000000000D+00  5.2291394300985D-01  1.0994716683483D+00
139  1.3800000000000D+00  4.9020976686153D-01  1.1288527339242D+00
140  1.3900000000000D+00  4.5753119552862D-01  1.1571716146031D+00
141  1.4000000000000D+00  4.2495526311361D-01  1.1843367747841D+00
142  1.4100000000000D+00  3.9255827034069D-01  1.2102599424140D+00
143  1.4200000000000D+00  3.6041547361545D-01  1.2348565385656D+00
144  1.4300000000000D+00  3.2860077971701D-01  1.2580460899136D+00
145  1.4400000000000D+00  2.9718644765835D-01  1.2797526216336D+00
146  1.4500000000000D+00  2.6624279932415D-01  1.2999050281290D+00
147  1.4600000000000D+00  2.3583794022321D-01  1.3184374195377D+00
148  1.4700000000000D+00  2.0603749197963D-01  1.3352894413958D+00
149  1.4800000000000D+00  1.7690433775497D-01  1.3504065656994D+00
150  1.4900000000000D+00  1.4849838202423D-01  1.3637403511371D+00
151  1.5000000000000D+00  1.2087632594375D-01  1.3752486706434D+00
152  1.5100000000000D+00  9.4091459321875D-02  1.3848959048257D+00
153  1.5200000000000D+00  6.8193470572582D-02  1.3926530991526D+00
154  1.5300000000000D+00  4.3228275163096D-02  1.3984980843690D+00
155  1.5400000000000D+00  1.9237864026863D-02  1.4024155578694D+00
156  1.5500000000000D+00 -3.7398278883914D-03  1.4043971261029D+00
157  1.5600000000000D+00 -2.5671031713557D-02  1.4044413061905D+00
158  1.5700000000000D+00 -4.6526233238855D-02  1.4025534868531D+00
159  1.5800000000000D+00 -6.6280239256445D-02  1.3987458477136D+00
160  1.5900000000000D+00 -8.4912221418308D-02  1.3930372369051D+00
161  1.6000000000000D+00 -1.0240573744667D-01  1.3854530070311D+00
162  1.6100000000000D+00 -1.1874872933446D-01  1.3760248092093D+00
163  1.6200000000000D+00 -1.3393349894574D-01  1.3647903462286D+00
164  1.6300000000000D+00 -1.4795666055150D-01  1.3517930843815D+00
165  1.6400000000000D+00 -1.6081907124873D-01  1.3370819259068D+00
166  1.6500000000000D+00 -1.7252573864922D-01  1.3207108378687D+00
167  1.6600000000000D+00 -1.8308570786976D-01  1.3027384649993D+00
168  1.6700000000000D+00 -1.9251192433891D-01  1.2832276288715D+00
169  1.6800000000000D+00 -2.0082108512798D-01  1.2622450040594D+00
170  1.6900000000000D+00 -2.0803345463270D-01  1.2398604676415D+00
171  1.7000000000000D+00 -2.1417266927962D-01  1.2161462575530D+00
172  1.7100000000000D+00 -2.1926554248430D-01  1.1911772291165D+00
173  1.7200000000000D+00 -2.2334184691574D-01  1.1650309230227D+00
174  1.7300000000000D+00 -2.2643413124516D-01  1.1377877137241D+00
175  1.7400000000000D+00 -2.2857753313801D-01  1.1095313104159D+00
176  1.7500000000000D+00 -2.2980956715853D-01  1.0803482347799D+00
177  1.7600000000000D+00 -2.3016991332906D-01  1.0503272276475D+00
178  1.7700000000000D+00 -2.2970019551671D-01  1.0195589301884D+00
179  1.7800000000000D+00 -2.2844375426988D-01  9.8813545701829D-01
180  1.7900000000000D+00 -2.2644541576109D-01  9.5614996797102D-01
181  1.8000000000000D+00 -2.2375125743016D-01  9.2369624946439D-01
182  1.8100000000000D+00 -2.2040837176141D-01  8.9086829025486D-01
183  1.8200000000000D+00 -2.1646462940738D-01  8.5775986238191D-01
184  1.8300000000000D+00 -2.1196844299501D-01  8.2446410773670D-01
185  1.8400000000000D+00 -2.0696853286858D-01  7.9107313244752D-01
186  1.8500000000000D+00 -2.0151369578791D-01  7.5767761066359D-01
187  1.8600000000000D+00 -1.9565257825726D-01  7.2436640077078D-01
188  1.8700000000000D+00 -1.8943345477130D-01  6.9122617418881D-01
189  1.8800000000000D+00 -1.8290401335931D-01  6.5834106110329D-01
190  1.8900000000000D+00 -1.7611114789244D-01  6.2579231176519D-01
191  1.9000000000000D+00 -1.6910075990134D-01  5.9365797831778D-01
192  1.9100000000000D+00 -1.6191756921576D-01  5.6201261558304D-01
193  1.9200000000000D+00 -1.5460493558812D-01  5.3092700458754D-01
194  1.9300000000000D+00 -1.4720469144797D-01  5.0046789887049D-01
195  1.9400000000000D+00 -1.3975698638047D-01  4.7069779442648D-01
196  1.9500000000000D+00 -1.3230014518317D-01  4.4167472645416D-01
197  1.9600000000000D+00 -1.2487053777682D-01  4.1345208956991D-01
198  1.9700000000000D+00 -1.1750246472202D-01  3.8607848804747D-01
199  1.9800000000000D+00 -1.1022805524862D-01  3.5959761032946D-01
200  1.9900000000000D+00 -1.0307718114802D-01  3.3404813359577D-01
201  2.0000000000000D+00 -9.6077384937463D-02  3.0946365536587D-01
202  2.0100000000000D+00 -8.9253822743268D-02  2.8587265272826D-01
203  2.0200000000000D+00 -8.2629223504847D-02  2.6329847182923D-01
204  2.0300000000000D+00 -7.6223861251666D-02  2.4175934172340D-01
205  2.0400000000000D+00 -7.0055544698891D-02  2.2126841982123D-01
206  2.0500000000000D+00 -6.4139619809466D-02  2.0183386114717D-01
207  2.0600000000000D+00 -5.8488987790235D-02  1.8345891550192D-01
208  2.0700000000000D+00 -5.3114137638167D-02  1.6614205079882D-01
209  2.0800000000000D+00 -4.8023191071946D-02  1.4987709864317D-01
210  2.0900000000000D+00 -4.3221962816935D-02  1.3465342704532D-01
211  2.1000000000000D+00 -3.8714031719008D-02  1.2045613232242D-01
212  2.1100000000000D+00 -3.4500825097512D-02  1.0726625407910D-01
213  2.1200000000000D+00 -3.0581714446601D-02  9.5061009844227D-02
214  2.1300000000000D+00 -2.6954120757897D-02  8.3814046237661D-02
215  2.1400000000000D+00 -2.3613631222828D-02  7.3495709362769D-02
216  2.1500000000000D+00 -2.0554123457364D-02  6.4073327787491D-02
217  2.1600000000000D+00 -1.7767898464812D-02  5.5511509845432D-02
218  2.1700000000000D+00 -1.5245820760028D-02  4.7772452411201D-02
219  2.1800000000000D+00 -1.2977463818460D-02  4.0816257951906D-02
220  2.1900000000000D+00 -1.0951261459433D-02  3.4601260403272D-02
221  2.2000000000000D+00 -9.1546626582770D-03  2.9084355753793D-02
222  2.2100000000000D+00 -7.5742894126239D-03  2.4221336299743D-02
223  2.2200000000000D+00 -6.1960965046615D-03  1.9967226375018D-02
224  2.2300000000000D+00 -5.0055322156376D-03  1.6276618099860D-02
225  2.2400000000000D+00 -3.9876983693677D-03  1.3104003730495D-02
226  2.2500000000000D+00 -3.1275092501336D-03  1.0404104046901D-02
227  2.2600000000000D+00 -2.4098485389097D-03  8.1321911668158D-03
228  2.2700000000000D+00 -1.8197217043257D-03  6.2444008485584D-03
229  2.2800000000000D+00 -1.3424052680974D-03  4.6980371687738D-03
230  2.2900000000000D+00 -9.6359006411561D-04  3.4518640996408D-03
231  2.3000000000000D+00 -6.6951737241730D-04  2.4663819374290D-03
232  2.3100000000000D+00 -4.4711004161933D-04  1.7040925795200D-03
233  2.3200000000000D+00 -2.8409261344303D-04  1.1297405637051D-03
234  2.3300000000000D+00 -1.6909166364851D-04  7.1047855911370D-04
235  2.3400000000000D+00 -9.1796433300217D-05  4.1636087379067D-04
236  2.3500000000000D+00 -4.3046481855082D-05  2.2035393882898D-04
237  2.3600000000000D+00 -1.4843522155420D-05  9.8327279319941D-05
238  2.3700000000000D+00 -7.1956670483923D-09  2.8079396825138D-05
239  2.3800000000000D+00  7.2660524595968D-06 -8.9788864367133D-06
240  2.3900000000000D+00  1.0531676674475D-05 -2.5824764645073D-05
241  2.4000000000000D+00  1.0911301030180D-05 -2.9263809205610D-05
242  2.4100000000000D+00  8.5354814466578D-06 -2.3105073626502D-05
243  2.4200000000000D+00  4.5817254212864D-06 -1.2328801895162D-05
244  2.4300000000000D+00  8.8238467885026D-07 -2.3404739694503D-06
245  2.4400000000000D+00 -8.9757224859706D-07  2.5077980462430D-06
246  2.4500000000000D+00 -9.6119737026334D-07  2.6864301848560D-06
247  2.4600000000000D+00 -1.9862940966524D-07  5.5477822868226D-07
248  2.4700000000000D+00  2.1560516267224D-07 -6.1793383078572D-07
249  2.4800000000000D+00  2.4089041522885D-07 -6.9223114800108D-07
250  2.4900000000000D+00  4.4222827398689D-08 -1.2735826617582D-07
251  2.5000000000000D+00 -2.4019785314450D-08  6.4658261444711D-08
252  2.5100000000000D+00 -2.6934203021818D-08  7.2503509835365D-08
253  2.5200000000000D+00 -4.8247957986360D-09  1.2987747562334D-08
254  2.5300000000000D+00  0.0000000000000D+00  0.0000000000000D+00
255  2.5400000000000D+00  0.0000000000000D+00  0.0000000000000D+00
256  2.5500000000000D+00  0.0000000000000D+00  0.0000000000000D+00
257  2.5600000000000D+00  0.0000000000000D+00  0.0000000000000D+00
258  2.5700000000000D+00  0.0000000000000D+00  0.0000000000000D+00
259  2.5800000000000D+00  0.0000000000000D+00  0.0000000000000D+00
260  2.5900000000000D+00  0.0000000000000D+00  0.0000000000000D+00
261  2.6000000000000D+00  0.0000000000000D+00  0.0000000000000D+00
262  2.6100000000000D+00  0.0000000000000D+00  0.0000000000000D+00
263  2.6200000000000D+00  0.0000000000000D+00  0.0000000000000D+00
264  2.6300000000000D+00  0.0000000000000D+00  0.0000000000000D+00
265  2.6400000000000D+00  0.0000000000000D+00  0.0000000000000D+00
266  2.6500000000000D+00  0.0000000000000D+00  0.0000000000000D+00
267  2.6600000000000D+00  0.0000000000000D+00  0.0000000000000D+00
268  2.6700000000000D+00  0.0000000000000D+00  0.0000000000000D+00
269  2.6800000000000D+00  0.0000000000000D+00  0.0000000000000D+00
270  2.6900000000000D+00  0.0000000000000D+00  0.0000000000000D+00
271  2.7000000000000D+00  0.0000000000000D+00  0.0000000000000D+00
272  2.7100000000000D+00  0.0000000000000D+00  0.0000000000000D+00
273  2.7200000000000D+00  0.0000000000000D+00  0.0000000000000D+00
274  2.7300000000000D+00  0.0000000000000D+00  0.0000000000000D+00
275  2.7400000000000D+00  0.0000000000000D+00  0.0000000000000D+00
276  2.7500000000000D+00  0.0000000000000D+00  0.0000000000000D+00
277  2.7600000000000D+00  0.0000000000000D+00  0.0000000000000D+00
278  2.7700000000000D+00  0.0000000000000D+00  0.0000000000000D+00
279  2.7800000000000D+00  0.0000000000000D+00  0.0000000000000D+00
280  2.7900000000000D+00  0.0000000000000D+00  0.0000000000000D+00
281  2.8000000000000D+00  0.0000000000000D+00  0.0000000000000D+00
282  2.8100000000000D+00  0.0000000000000D+00  0.0000000000000D+00
283  2.8200000000000D+00  0.0000000000000D+00  0.0000000000000D+00
284  2.8300000000000D+00  0.0000000000000D+00  0.0000000000000D+00
285  2.8400000000000D+00  0.0000000000000D+00  0.0000000000000D+00
286  2.8500000000000D+00  0.0000000000000D+00  0.0000000000000D+00
287  2.8600000000000D+00  0.0000000000000D+00  0.0000000000000D+00
288  2.8700000000000D+00  0.0000000000000D+00  0.0000000000000D+00
289  2.8800000000000D+00  0.0000000000000D+00  0.0000000000000D+00
290  2.8900000000000D+00  0.0000000000000D+00  0.0000000000000D+00
291  2.9000000000000D+00  0.0000000000000D+00  0.0000000000000D+00
292  2.9100000000000D+00  0.0000000000000D+00  0.0000000000000D+00
293  2.9200000000000D+00  0.0000000000000D+00  0.0000000000000D+00
294  2.9300000000000D+00  0.0000000000000D+00  0.0000000000000D+00
295  2.9400000000000D+00  0.0000000000000D+00  0.0000000000000D+00
296  2.9500000000000D+00  0.0000000000000D+00  0.0000000000000D+00
297  2.9600000000000D+00  0.0000000000000D+00  0.0000000000000D+00
298  2.9700000000000D+00  0.0000000000000D+00  0.0000000000000D+00
299  2.9800000000000D+00  0.0000000000000D+00  0.0000000000000D+00
300  2.9900000000000D+00  0.0000000000000D+00  0.0000000000000D+00
301  3.0000000000000D+00  0.0000000000000D+00  0.0000000000000D+00
302  3.0100000000000D+00  0.0000000000000D+00  0.0000000000000D+00
303  3.0200000000000D+00  0.0000000000000D+00  0.0000000000000D+00
304  3.0300000000000D+00  0.0000000000000D+00  0.0000000000000D+00
305  3.0400000000000D+00  0.0000000000000D+00  0.0000000000000D+00
306  3.0500000000000D+00  0.0000000000000D+00  0.0000000000000D+00
307  3.0600000000000D+00  0.0000000000000D+00  0.0000000000000D+00
308  3.0700000000000D+00  0.0000000000000D+00  0.0000000000000D+00
309  3.0800000000000D+00  0.0000000000000D+00  0.0000000000000D+00
310  3.0900000000000D+00  0.0000000000000D+00  0.0000000000000D+00
311  3.1000000000000D+00  0.0000000000000D+00  0.0000000000000D+00
312  3.1100000000000D+00  0.0000000000000D+00  0.0000000000000D+00
313  3.1200000000000D+00  0.0000000000000D+00  0.0000000000000D+00
314  3.1300000000000D+00  0.0000000000000D+00  0.0000000000000D+00
315  3.1400000000000D+00  0.0000000000000D+00  0.0000000000000D+00
316  3.1500000000000D+00  0.0000000000000D+00  0.0000000000000D+00
317  3.1600000000000D+00  0.0000000000000D+00  0.0000000000000D+00
318  3.1700000000000D+00  0.0000000000000D+00  0.0000000000000D+00
319  3.1800000000000D+00  0.0000000000000D+00  0.0000000000000D+00
320  3.1900000000000D+00  0.0000000000000D+00  0.0000000000000D+00
321  3.2000000000000D+00  0.0000000000000D+00  0.0000000000000D+00
322  3.2100000000000D+00  0.0000000000000D+00  0.0000000000000D+00
323  3.2200000000000D+00  0.0000000000000D+00  0.0000000000000D+00
324  3.2300000000000D+00  0.0000000000000D+00  0.0000000000000D+00
325  3.2400000000000D+00  0.0000000000000D+00  0.0000000000000D+00
326  3.2500000000000D+00  0.0000000000000D+00  0.0000000000000D+00
327  3.2600000000000D+00  0.0000000000000D+00  0.0000000000000D+00
328  3.2700000000000D+00  0.0000000000000D+00  0.0000000000000D+00
329  3.2800000000000D+00  0.0000000000000D+00  0.0000000000000D+00
330  3.2900000000000D+00  0.0000000000000D+00  0.0000000000000D+00
331  3.3000000000000D+00  0.0000000000000D+00  0.0000000000000D+00
332  3.3100000000000D+00  0.0000000000000D+00  0.0000000000000D+00
333  3.3200000000000D+00  0.0000000000000D+00  0.0000000000000D+00
334  3.3300000000000D+00  0.0000000000000D+00  0.0000000000000D+00
335  3.3400000000000D+00  0.0000000000000D+00  0.0000000000000D+00
336  3.3500000000000D+00  0.0000000000000D+00  0.0000000000000D+00
337  3.3600000000000D+00  0.0000000000000D+00  0.0000000000000D+00
338  3.3700000000000D+00  0.0000000000000D+00  0.0000000000000D+00
339  3.3800000000000D+00  0.0000000000000D+00  0.0000000000000D+00
340  3.3900000000000D+00  0.0000000000000D+00  0.0000000000000D+00
341  3.4000000000000D+00  0.0000000000000D+00  0.0000000000000D+00
342  3.4100000000000D+00  0.0000000000000D+00  0.0000000000000D+00
343  3.4200000000000D+00  0.0000000000000D+00  0.0000000000000D+00
344  3.4300000000000D+00  0.0000000000000D+00  0.0000000000000D+00
345  3.4400000000000D+00  0.0000000000000D+00  0.0000000000000D+00
346  3.4500000000000D+00  0.0000000000000D+00  0.0000000000000D+00
347  3.4600000000000D+00  0.0000000000000D+00  0.0000000000000D+00
348  3.4700000000000D+00  0.0000000000000D+00  0.0000000000000D+00
349  3.4800000000000D+00  0.0000000000000D+00  0.0000000000000D+00
350  3.4900000000000D+00  0.0000000000000D+00  0.0000000000000D+00
351  3.5000000000000D+00  0.0000000000000D+00  0.0000000000000D+00
352  3.5100000000000D+00  0.0000000000000D+00  0.0000000000000D+00
353  3.5200000000000D+00  0.0000000000000D+00  0.0000000000000D+00
354  3.5300000000000D+00  0.0000000000000D+00  0.0000000000000D+00
355  3.5400000000000D+00  0.0000000000000D+00  0.0000000000000D+00
356  3.5500000000000D+00  0.0000000000000D+00  0.0000000000000D+00
357  3.5600000000000D+00  0.0000000000000D+00  0.0000000000000D+00
358  3.5700000000000D+00  0.0000000000000D+00  0.0000000000000D+00
359  3.5800000000000D+00  0.0000000000000D+00  0.0000000000000D+00
360  3.5900000000000D+00  0.0000000000000D+00  0.0000000000000D+00
361  3.6000000000000D+00  0.0000000000000D+00  0.0000000000000D+00
362  3.6100000000000D+00  0.0000000000000D+00  0.0000000000000D+00
363  3.6200000000000D+00  0.0000000000000D+00  0.0000000000000D+00
364  3.6300000000000D+00  0.0000000000000D+00  0.0000000000000D+00
365  3.6400000000000D+00  0.0000000000000D+00  0.0000000000000D+00
366  3.6500000000000D+00  0.0000000000000D+00  0.0000000000000D+00
367  3.6600000000000D+00  0.0000000000000D+00  0.0000000000000D+00
368  3.6700000000000D+00  0.0000000000000D+00  0.0000000000000D+00
369  3.6800000000000D+00  0.0000000000000D+00  0.0000000000000D+00
370  3.6900000000000D+00  0.0000000000000D+00  0.0000000000000D+00
371  3.7000000000000D+00  0.0000000000000D+00  0.0000000000000D+00
372  3.7100000000000D+00  0.0000000000000D+00  0.0000000000000D+00
373  3.7200000000000D+00  0.0000000000000D+00  0.0000000000000D+00
374  3.7300000000000D+00  0.0000000000000D+00  0.0000000000000D+00
375  3.7400000000000D+00  0.0000000000000D+00  0.0000000000000D+00
376  3.7500000000000D+00  0.0000000000000D+00  0.0000000000000D+00
377  3.7600000000000D+00  0.0000000000000D+00  0.0000000000000D+00
378  3.7700000000000D+00  0.0000000000000D+00  0.0000000000000D+00
379  3.7800000000000D+00  0.0000000000000D+00  0.0000000000000D+00
380  3.7900000000000D+00  0.0000000000000D+00  0.0000000000000D+00
381  3.8000000000000D+00  0.0000000000000D+00  0.0000000000000D+00
382  3.8100000000000D+00  0.0000000000000D+00  0.0000000000000D+00
383  3.8200000000000D+00  0.0000000000000D+00  0.0000000000000D+00
384  3.8300000000000D+00  0.0000000000000D+00  0.0000000000000D+00
385  3.8400000000000D+00  0.0000000000000D+00  0.0000000000000D+00
386  3.8500000000000D+00  0.0000000000000D+00  0.0000000000000D+00
387  3.8600000000000D+00  0.0000000000000D+00  0.0000000000000D+00
388  3.8700000000000D+00  0.0000000000000D+00  0.0000000000000D+00
389  3.8800000000000D+00  0.0000000000000D+00  0.0000000000000D+00
390  3.8900000000000D+00  0.0000000000000D+00  0.0000000000000D+00
391  3.9000000000000D+00  0.0000000000000D+00  0.0000000000000D+00
392  3.9100000000000D+00  0.0000000000000D+00  0.0000000000000D+00
393  3.9200000000000D+00  0.0000000000000D+00  0.0000000000000D+00
394  3.9300000000000D+00  0.0000000000000D+00  0.0000000000000D+00
395  3.9400000000000D+00  0.0000000000000D+00  0.0000000000000D+00
396  3.9500000000000D+00  0.0000000000000D+00  0.0000000000000D+00
397  3.9600000000000D+00  0.0000000000000D+00  0.0000000000000D+00
398  3.9700000000000D+00  0.0000000000000D+00  0.0000000000000D+00
399  3.9800000000000D+00  0.0000000000000D+00  0.0000000000000D+00
400  3.9900000000000D+00  0.0000000000000D+00  0.0000000000000D+00
401  4.0000000000000D+00  0.0000000000000D+00  0.0000000000000D+00
402  4.0100000000000D+00  0.0000000000000D+00  0.0000000000000D+00
403  4.0200000000000D+00  0.0000000000000D+00  0.0000000000000D+00
404  4.0300000000000D+00  0.0000000000000D+00  0.0000000000000D+00
405  4.0400000000000D+00  0.0000000000000D+00  0.0000000000000D+00
406  4.0500000000000D+00  0.0000000000000D+00  0.0000000000000D+00
407  4.0600000000000D+00  0.0000000000000D+00  0.0000000000000D+00
408  4.0700000000000D+00  0.0000000000000D+00  0.0000000000000D+00
409  4.0800000000000D+00  0.0000000000000D+00  0.0000000000000D+00
410  4.0900000000000D+00  0.0000000000000D+00  0.0000000000000D+00
411  4.1000000000000D+00  0.0000000000000D+00  0.0000000000000D+00
412  4.1100000000000D+00  0.0000000000000D+00  0.0000000000000D+00
413  4.1200000000000D+00  0.0000000000000D+00  0.0000000000000D+00
414  4.1300000000000D+00  0.0000000000000D+00  0.0000000000000D+00
415  4.1400000000000D+00  0.0000000000000D+00  0.0000000000000D+00
416  4.1500000000000D+00  0.0000000000000D+00  0.0000000000000D+00
417  4.1600000000000D+00  0.0000000000000D+00  0.0000000000000D+00
418  4.1700000000000D+00  0.0000000000000D+00  0.0000000000000D+00
419  4.1800000000000D+00  0.0000000000000D+00  0.0000000000000D+00
420  4.1900000000000D+00  0.0000000000000D+00  0.0000000000000D+00
421  4.2000000000000D+00  0.0000000000000D+00  0.0000000000000D+00
422  4.2100000000000D+00  0.0000000000000D+00  0.0000000000000D+00
423  4.2200000000000D+00  0.0000000000000D+00  0.0000000000000D+00
424  4.2300000000000D+00  0.0000000000000D+00  0.0000000000000D+00
425  4.2400000000000D+00  0.0000000000000D+00  0.0000000000000D+00
426  4.2500000000000D+00  0.0000000000000D+00  0.0000000000000D+00
427  4.2600000000000D+00  0.0000000000000D+00  0.0000000000000D+00
428  4.2700000000000D+00  0.0000000000000D+00  0.0000000000000D+00
429  4.2800000000000D+00  0.0000000000000D+00  0.0000000000000D+00
430  4.2900000000000D+00  0.0000000000000D+00  0.0000000000000D+00
431  4.3000000000000D+00  0.0000000000000D+00  0.0000000000000D+00
432  4.3100000000000D+00  0.0000000000000D+00  0.0000000000000D+00
433  4.3200000000000D+00  0.0000000000000D+00  0.0000000000000D+00
434  4.3300000000000D+00  0.0000000000000D+00  0.0000000000000D+00
435  4.3400000000000D+00  0.0000000000000D+00  0.0000000000000D+00
436  4.3500000000000D+00  0.0000000000000D+00  0.0000000000000D+00
437  4.3600000000000D+00  0.0000000000000D+00  0.0000000000000D+00
438  4.3700000000000D+00  0.0000000000000D+00  0.0000000000000D+00
439  4.3800000000000D+00  0.0000000000000D+00  0.0000000000000D+00
440  4.3900000000000D+00  0.0000000000000D+00  0.0000000000000D+00
441  4.4000000000000D+00  0.0000000000000D+00  0.0000000000000D+00
442  4.4100000000000D+00  0.0000000000000D+00  0.0000000000000D+00
443  4.4200000000000D+00  0.0000000000000D+00  0.0000000000000D+00