O     ONCVPSP-3.2.3  r_core=   1.26150   1.35509   1.35509
8.0000      6.0000      161006    zatom,zion,pspd
8   -1012   2     4   600     0    pspcod,pspxc,lmax,lloc,mmax,r2well
5.99000000  4.00000000  0.00000000    rchrg fchrg qchrg
2     2     1     0     0    nproj
1     1           extension_switch
0                         6.1728895041679D+00  1.1127070331022D+00
1  0.0000000000000D+00 -1.9200568024402D-08  4.5319589025983D-08
2  1.0000000000000D-02  1.0703498921754D-01 -4.8823054773076D-02
3  2.0000000000000D-02  2.1321189013059D-01 -9.6116449248246D-02
4  3.0000000000000D-02  3.1768671901209D-01 -1.4038222369746D-01
5  4.0000000000000D-02  4.1964343542900D-01 -1.8018519739129D-01
6  5.0000000000000D-02  5.1830725427041D-01 -2.1418281462688D-01
7  6.0000000000000D-02  6.1295718023112D-01 -2.4115317163458D-01
8  7.0000000000000D-02  7.0293752861893D-01 -2.6002067239887D-01
9  8.0000000000000D-02  7.8766821555441D-01 -2.6987880674847D-01
10  9.0000000000000D-02  8.6665362394903D-01 -2.7000959910233D-01
11  1.0000000000000D-01  9.3948987864512D-01 -2.5989933996872D-01
12  1.1000000000000D-01  1.0058703942726D+00 -2.3925028348509D-01
13  1.2000000000000D-01  1.0655895921564D+00 -2.0798807161849D-01
14  1.3000000000000D-01  1.1185447173816D+00 -1.6626472766437D-01
15  1.4000000000000D-01  1.1647357232352D+00 -1.1445714683808D-01
16  1.5000000000000D-01  1.2042632270163D+00 -5.3161098446041D-02
17  1.6000000000000D-01  1.2373245779501D+00  1.6819159289747D-02
18  1.7000000000000D-01  1.2642081139598D+00  9.4485465832704D-02
19  1.8000000000000D-01  1.2852857186638D+00  1.7866427893972D-01
20  1.9000000000000D-01  1.3010038225292D+00  2.6802878525539D-01
21  2.0000000000000D-01  1.3118730219901D+00  3.6112418662534D-01
22  2.1000000000000D-01  1.3184565169847D+00  4.5639568531041D-01
23  2.2000000000000D-01  1.3213575902545D+00  5.5221863762938D-01
24  2.3000000000000D-01  1.3212063704466D+00  6.4693030183775D-01
25  2.4000000000000D-01  1.3186461352138D+00  7.3886257311045D-01
26  2.5000000000000D-01  1.3143194198258D+00  8.2637507699698D-01
27  2.6000000000000D-01  1.3088542011124D+00  9.0788798308652D-01
28  2.7000000000000D-01  1.3028504257573D+00  9.8191390308403D-01
29  2.8000000000000D-01  1.2968671460554D+00  1.0470882520392D+00
30  2.9000000000000D-01  1.2914105153290D+00  1.1021974778562D+00
31  3.0000000000000D-01  1.2869228794643D+00  1.1462046019828D+00
32  3.1000000000000D-01  1.2837731807684D+00  1.1782715626573D+00
33  3.2000000000000D-01  1.2822488659092D+00  1.1977779104043D+00
34  3.3000000000000D-01  1.2825494615572D+00  1.2043354725528D+00
35  3.4000000000000D-01  1.2847819499949D+00  1.1977986781680D+00
36  3.5000000000000D-01  1.2889580429973D+00  1.1782703155590D+00
37  3.6000000000000D-01  1.2949934163246D+00  1.1461025799690D+00
38  3.7000000000000D-01  1.3027089299027D+00  1.1018933575508D+00
39  3.8000000000000D-01  1.3118338208643D+00  1.0464777816621D+00
40  3.9000000000000D-01  1.3220108188260D+00  9.8091518716233D-01
41  4.0000000000000D-01  1.3328030957695D+00  9.0647167609516D-01
42  4.1000000000000D-01  1.3437029273946D+00  8.2459859222536D-01
43  4.2000000000000D-01  1.3541419094850D+00  7.3690728078026D-01
44  4.3000000000000D-01  1.3635025423069D+00  6.4514058191600D-01
45  4.4000000000000D-01  1.3711309689382D+00  5.5114157050911D-01
46  4.5000000000000D-01  1.3763506302162D+00  4.5682010962468D-01
47  4.6000000000000D-01  1.3784765801531D+00  3.6411782936900D-01
48  4.7000000000000D-01  1.3768301915684D+00  2.7497217592279D-01
49  4.8000000000000D-01  1.3707539726114D+00  1.9128019669894D-01
50  4.9000000000000D-01  1.3596262109859D+00  1.1486273633719D-01
51  5.0000000000000D-01  1.3428751641370D+00  4.7429714405762D-02
52  5.1000000000000D-01  1.3199925204082D+00 -9.4528607229525D-03
53  5.2000000000000D-01  1.2905458681253D+00 -5.4393516106087D-02
54  5.3000000000000D-01  1.2541899265186D+00 -8.6202991452742D-02
55  5.4000000000000D-01  1.2106763140177D+00 -1.0391843588394D-01
56  5.5000000000000D-01  1.1598616554311D+00 -1.0682365273716D-01
57  5.6000000000000D-01  1.1017138593221D+00 -9.4464991930630D-02
58  5.7000000000000D-01  1.0363164299642D+00 -6.6662568123974D-02
59  5.8000000000000D-01  9.6387071412894D-01 -2.3516568244375D-02
60  5.9000000000000D-01  8.8469602069152D-01  3.4591498365687D-02
61  6.0000000000000D-01  7.9922759033695D-01  1.0700266054818D-01
62  6.1000000000000D-01  7.0801243230903D-01  1.9278941588800D-01
63  6.2000000000000D-01  6.1170308488212D-01  2.9076959613368D-01
64  6.3000000000000D-01  5.1104939499703D-01  3.9952494045720D-01
65  6.4000000000000D-01  4.0688844959704D-01  5.1742406160727D-01
66  6.5000000000000D-01  3.0013282620356D-01  6.4264940710608D-01
67  6.6000000000000D-01  1.9175736206171D-01  7.7322774240746D-01
68  6.7000000000000D-01  8.2784669544413D-02  9.0706361589646D-01
69  6.8000000000000D-01 -2.5730350230378D-02  1.0419752083274D+00
70  6.9000000000000D-01 -1.3271672402818D-01  1.1757319231582D+00
71  7.0000000000000D-01 -2.3710406716301D-01  1.3060930398034D+00
72  7.1000000000000D-01 -3.3783939252973D-01  1.4308467297821D+00
73  7.2000000000000D-01 -4.3390376840344D-01  1.5478487268299D+00
74  7.3000000000000D-01 -5.2432852695978D-01  1.6550599461660D+00
75  7.4000000000000D-01 -6.0821073261101D-01  1.7505823654959D+00
76  7.5000000000000D-01 -6.8472763167406D-01  1.8326925102412D+00
77  7.6000000000000D-01 -7.5314982270136D-01  1.8998719281919D+00
78  7.7000000000000D-01 -8.1285290932659D-01  1.9508340926289D+00
79  7.8000000000000D-01 -8.6332742454988D-01  1.9845472375851D+00
80  7.9000000000000D-01 -9.0418684641664D-01  2.0002527028935D+00
81  8.0000000000000D-01 -9.3517355947708D-01  1.9974784486802D+00
82  8.1000000000000D-01 -9.5616265361686D-01  1.9760474874898D+00
83  8.2000000000000D-01 -9.6716349112886D-01  1.9360810756337D+00
84  8.3000000000000D-01 -9.6831901352446D-01  1.8779966018847D+00
85  8.4000000000000D-01 -9.5990280079918D-01  1.8025002094988D+00
86  8.5000000000000D-01 -9.4231393690095D-01  1.7105742848996D+00
87  8.6000000000000D-01 -9.1606977523185D-01  1.6034600413646D+00
88  8.7000000000000D-01 -8.8179673638817D-01  1.4826355169363D+00
89  8.8000000000000D-01 -8.4021930629062D-01  1.3497893908044D+00
90  8.9000000000000D-01 -7.9214743569297D-01  1.2067910999768D+00
91  9.0000000000000D-01 -7.3846257116469D-01  1.0556578066830D+00
92  9.1000000000000D-01 -6.8010257246645D-01  8.9851882533911D-01
93  9.2000000000000D-01 -6.1804579130527D-01  7.3757816492164D-01
94  9.3000000000000D-01 -5.5329460138386D-01  5.7507587734277D-01
95  9.4000000000000D-01 -4.8685867915983D-01  4.1324892422112D-01
96  9.5000000000000D-01 -4.1973833861886D-01  2.5429228285857D-01
97  9.6000000000000D-01 -3.5290822156346D-01  1.0032100709323D-01
98  9.7000000000000D-01 -2.8730163747115D-01 -4.6666059883949D-02
99  9.8000000000000D-01 -2.2379583397327D-01 -1.8482025546389D-01
100  9.9000000000000D-01 -1.6319846044143D-01 -3.1247413005144D-01
101  1.0000000000000D+00 -1.0623546485500D-01 -4.2816897564977D-01
102  1.0100000000000D+00 -5.3540635165751D-02 -5.3067835399793D-01
103  1.0200000000000D+00 -5.6469655339077D-03 -6.1902720179775D-01
104  1.0300000000000D+00  3.7020007617429D-02 -6.9250617560597D-01
105  1.0400000000000D+00  7.4146792268551D-02 -7.5068098883998D-01
106  1.0500000000000D+00  1.0553438437875D-01 -7.9339659308844D-01
107  1.0600000000000D+00  1.3109853911777D-01 -8.2077614341235D-01
108  1.0700000000000D+00  1.5086788782471D-01 -8.3321480048244D-01
109  1.0800000000000D+00  1.6497995597309D-01 -8.3136851128677D-01
110  1.0900000000000D+00  1.7367517894539D-01 -8.1613800929313D-01
111  1.1000000000000D+00  1.7728905185174D-01 -7.8864836900466D-01
112  1.1100000000000D+00  1.7624258063527D-01 -7.5022452377975D-01
113  1.1200000000000D+00  1.7103124115709D-01 -7.0236324972409D-01
114  1.1300000000000D+00  1.6221267592930D-01 -6.4670217308575D-01
115  1.1400000000000D+00  1.5039338521491D-01 -5.8498642278355D-01
116  1.1500000000000D+00  1.3621468491969D-01 -5.1903358693568D-01
117  1.1600000000000D+00  1.2033822282190D-01 -4.5069767734972D-01
118  1.1700000000000D+00  1.0343135197826D-01 -3.8183282417580D-01
119  1.1800000000000D+00  8.6152659508560D-02 -3.1425741852295D-01
120  1.1900000000000D+00  6.9137846123932D-02 -2.4971913672796D-01
121  1.2000000000000D+00  5.2986685846991D-02 -1.8986277073713D-01
122  1.2100000000000D+00  3.8250574425935D-02 -1.3619938960044D-01
123  1.2200000000000D+00  2.5422295235874D-02 -9.0084013938296D-02
124  1.2300000000000D+00  1.4906337753737D-02 -5.2623836030107D-02
125  1.2400000000000D+00  6.9846864680131D-03 -2.4570007503370D-02
126  1.2500000000000D+00  2.1213944068057D-03 -7.3847358519449D-03
127  1.2600000000000D+00  1.3996655400473D-04 -3.8737547147286D-04
128  1.2700000000000D+00 -1.3927100404851D-04  5.3698927108909D-04
129  1.2800000000000D+00  3.7350764274867D-05 -1.4042116559472D-04
130  1.2900000000000D+00  1.7492277880986D-05 -6.5149150551574D-05
131  1.3000000000000D+00 -9.0021449631891D-06  3.4217578364070D-05
132  1.3100000000000D+00 -3.6429292982346D-08 -3.1414083008814D-08
133  1.3200000000000D+00 -3.7090714340164D-08 -3.1984446684232D-08
134  1.3300000000000D+00  0.0000000000000D+00  0.0000000000000D+00
135  1.3400000000000D+00  0.0000000000000D+00  0.0000000000000D+00
136  1.3500000000000D+00  0.0000000000000D+00  0.0000000000000D+00
137  1.3600000000000D+00  0.0000000000000D+00  0.0000000000000D+00
138  1.3700000000000D+00  0.0000000000000D+00  0.0000000000000D+00
139  1.3800000000000D+00  0.0000000000000D+00  0.0000000000000D+00
140  1.3900000000000D+00  0.0000000000000D+00  0.0000000000000D+00
141  1.4000000000000D+00  0.0000000000000D+00  0.0000000000000D+00
142  1.4100000000000D+00  0.0000000000000D+00  0.0000000000000D+00
143  1.4200000000000D+00  0.0000000000000D+00  0.0000000000000D+00
144  1.4300000000000D+00  0.0000000000000D+00  0.0000000000000D+00
145  1.4400000000000D+00  0.0000000000000D+00  0.0000000000000D+00
146  1.4500000000000D+00  0.0000000000000D+00  0.0000000000000D+00
147  1.4600000000000D+00  0.0000000000000D+00  0.0000000000000D+00
148  1.4700000000000D+00  0.0000000000000D+00  0.0000000000000D+00
149  1.4800000000000D+00  0.0000000000000D+00  0.0000000000000D+00
150  1.4900000000000D+00  0.0000000000000D+00  0.0000000000000D+00
151  1.5000000000000D+00  0.0000000000000D+00  0.0000000000000D+00
152  1.5100000000000D+00  0.0000000000000D+00  0.0000000000000D+00
153  1.5200000000000D+00  0.0000000000000D+00  0.0000000000000D+00
154  1.5300000000000D+00  0.0000000000000D+00  0.0000000000000D+00
155  1.5400000000000D+00  0.0000000000000D+00  0.0000000000000D+00
156  1.5500000000000D+00  0.0000000000000D+00  0.0000000000000D+00
157  1.5600000000000D+00  0.0000000000000D+00  0.0000000000000D+00
158  1.5700000000000D+00  0.0000000000000D+00  0.0000000000000D+00
159  1.5800000000000D+00  0.0000000000000D+00  0.0000000000000D+00
160  1.5900000000000D+00  0.0000000000000D+00  0.0000000000000D+00
161  1.6000000000000D+00  0.0000000000000D+00  0.0000000000000D+00
162  1.6100000000000D+00  0.0000000000000D+00  0.0000000000000D+00
163  1.6200000000000D+00  0.0000000000000D+00  0.0000000000000D+00
164  1.6300000000000D+00  0.0000000000000D+00  0.0000000000000D+00
165  1.6400000000000D+00  0.0000000000000D+00  0.0000000000000D+00
166  1.6500000000000D+00  0.0000000000000D+00  0.0000000000000D+00
167  1.6600000000000D+00  0.0000000000000D+00  0.0000000000000D+00
168  1.6700000000000D+00  0.0000000000000D+00  0.0000000000000D+00
169  1.6800000000000D+00  0.0000000000000D+00  0.0000000000000D+00
170  1.6900000000000D+00  0.0000000000000D+00  0.0000000000000D+00
171  1.7000000000000D+00  0.0000000000000D+00  0.0000000000000D+00
172  1.7100000000000D+00  0.0000000000000D+00  0.0000000000000D+00
173  1.7200000000000D+00  0.0000000000000D+00  0.0000000000000D+00
174  1.7300000000000D+00  0.0000000000000D+00  0.0000000000000D+00
175  1.7400000000000D+00  0.0000000000000D+00  0.0000000000000D+00
176  1.7500000000000D+00  0.0000000000000D+00  0.0000000000000D+00
177  1.7600000000000D+00  0.0000000000000D+00  0.0000000000000D+00
178  1.7700000000000D+00  0.0000000000000D+00  0.0000000000000D+00
179  1.7800000000000D+00  0.0000000000000D+00  0.0000000000000D+00
180  1.7900000000000D+00  0.0000000000000D+00  0.0000000000000D+00
181  1.8000000000000D+00  0.0000000000000D+00  0.0000000000000D+00
182  1.8100000000000D+00  0.0000000000000D+00  0.0000000000000D+00
183  1.8200000000000D+00  0.0000000000000D+00  0.0000000000000D+00
184  1.8300000000000D+00  0.0000000000000D+00  0.0000000000000D+00
185  1.8400000000000D+00  0.0000000000000D+00  0.0000000000000D+00
186  1.8500000000000D+00  0.0000000000000D+00  0.0000000000000D+00
187  1.8600000000000D+00  0.0000000000000D+00  0.0000000000000D+00
188  1.8700000000000D+00  0.0000000000000D+00  0.0000000000000D+00
189  1.8800000000000D+00  0.0000000000000D+00  0.0000000000000D+00
190  1.8900000000000D+00  0.0000000000000D+00  0.0000000000000D+00
191  1.9000000000000D+00  0.0000000000000D+00  0.0000000000000D+00
192  1.9100000000000D+00  0.0000000000000D+00  0.0000000000000D+00
193  1.9200000000000D+00  0.0000000000000D+00  0.0000000000000D+00
194  1.9300000000000D+00  0.0000000000000D+00  0.0000000000000D+00
195  1.9400000000000D+00  0.0000000000000D+00  0.0000000000000D+00
196  1.9500000000000D+00  0.0000000000000D+00  0.0000000000000D+00
197  1.9600000000000D+00  0.0000000000000D+00  0.0000000000000D+00
198  1.9700000000000D+00  0.0000000000000D+00  0.0000000000000D+00
199  1.9800000000000D+00  0.0000000000000D+00  0.0000000000000D+00
200  1.9900000000000D+00  0.0000000000000D+00  0.0000000000000D+00
201  2.0000000000000D+00  0.0000000000000D+00  0.0000000000000D+00
202  2.0100000000000D+00  0.0000000000000D+00  0.0000000000000D+00
203  2.0200000000000D+00  0.0000000000000D+00  0.0000000000000D+00
204  2.0300000000000D+00  0.0000000000000D+00  0.0000000000000D+00
205  2.0400000000000D+00  0.0000000000000D+00  0.0000000000000D+00
206  2.0500000000000D+00  0.0000000000000D+00  0.0000000000000D+00
207  2.0600000000000D+00  0.0000000000000D+00  0.0000000000000D+00
208  2.0700000000000D+00  0.0000000000000D+00  0.0000000000000D+00
209  2.0800000000000D+00  0.0000000000000D+00  0.0000000000000D+00
210  2.0900000000000D+00  0.0000000000000D+00  0.0000000000000D+00
211  2.1000000000000D+00  0.0000000000000D+00  0.0000000000000D+00
212  2.1100000000000D+00  0.0000000000000D+00  0.0000000000000D+00
213  2.1200000000000D+00  0.0000000000000D+00  0.0000000000000D+00
214  2.1300000000000D+00  0.0000000000000D+00  0.0000000000000D+00
215  2.1400000000000D+00  0.0000000000000D+00  0.0000000000000D+00
216  2.1500000000000D+00  0.0000000000000D+00  0.0000000000000D+00
217  2.1600000000000D+00  0.0000000000000D+00  0.0000000000000D+00
218  2.1700000000000D+00  0.0000000000000D+00  0.0000000000000D+00
219  2.1800000000000D+00  0.0000000000000D+00  0.0000000000000D+00
220  2.1900000000000D+00  0.0000000000000D+00  0.0000000000000D+00
221  2.2000000000000D+00  0.0000000000000D+00  0.0000000000000D+00
222  2.2100000000000D+00  0.0000000000000D+00  0.0000000000000D+00
223  2.2200000000000D+00  0.0000000000000D+00  0.0000000000000D+00
224  2.2300000000000D+00  0.0000000000000D+00  0.0000000000000D+00
225  2.2400000000000D+00  0.0000000000000D+00  0.0000000000000D+00
226  2.2500000000000D+00  0.0000000000000D+00  0.0000000000000D+00
227  2.2600000000000D+00  0.0000000000000D+00  0.0000000000000D+00
228  2.2700000000000D+00  0.0000000000000D+00  0.0000000000000D+00
229  2.2800000000000D+00  0.0000000000000D+00  0.0000000000000D+00
230  2.2900000000000D+00  0.0000000000000D+00  0.0000000000000D+00
231  2.3000000000000D+00  0.0000000000000D+00  0.0000000000000D+00
232  2.3100000000000D+00  0.0000000000000D+00  0.0000000000000D+00
233  2.3200000000000D+00  0.0000000000000D+00  0.0000000000000D+00
234  2.3300000000000D+00  0.0000000000000D+00  0.0000000000000D+00
235  2.3400000000000D+00  0.0000000000000D+00  0.0000000000000D+00
236  2.3500000000000D+00  0.0000000000000D+00  0.0000000000000D+00
237  2.3600000000000D+00  0.0000000000000D+00  0.0000000000000D+00
238  2.3700000000000D+00  0.0000000000000D+00  0.0000000000000D+00
239  2.3800000000000D+00  0.0000000000000D+00  0.0000000000000D+00
240  2.3900000000000D+00  0.0000000000000D+00  0.0000000000000D+00
241  2.4000000000000D+00  0.0000000000000D+00  0.0000000000000D+00
242  2.4100000000000D+00  0.0000000000000D+00  0.0000000000000D+00
243  2.4200000000000D+00  0.0000000000000D+00  0.0000000000000D+00
244  2.4300000000000D+00  0.0000000000000D+00  0.0000000000000D+00
245  2.4400000000000D+00  0.0000000000000D+00  0.0000000000000D+00
246  2.4500000000000D+00  0.0000000000000D+00  0.0000000000000D+00
247  2.4600000000000D+00  0.0000000000000D+00  0.0000000000000D+00
248  2.4700000000000D+00  0.0000000000000D+00  0.0000000000000D+00
249  2.4800000000000D+00  0.0000000000000D+00  0.0000000000000D+00
250  2.4900000000000D+00  0.0000000000000D+00  0.0000000000000D+00
251  2.5000000000000D+00  0.0000000000000D+00  0.0000000000000D+00
252  2.5100000000000D+00  0.0000000000000D+00  0.0000000000000D+00
253  2.5200000000000D+00  0.0000000000000D+00  0.0000000000000D+00
254  2.5300000000000D+00  0.0000000000000D+00  0.0000000000000D+00
255  2.5400000000000D+00  0.0000000000000D+00  0.0000000000000D+00
256  2.5500000000000D+00  0.0000000000000D+00  0.0000000000000D+00
257  2.5600000000000D+00  0.0000000000000D+00  0.0000000000000D+00
258  2.5700000000000D+00  0.0000000000000D+00  0.0000000000000D+00
259  2.5800000000000D+00  0.0000000000000D+00  0.0000000000000D+00
260  2.5900000000000D+00  0.0000000000000D+00  0.0000000000000D+00
261  2.6000000000000D+00  0.0000000000000D+00  0.0000000000000D+00
262  2.6100000000000D+00  0.0000000000000D+00  0.0000000000000D+00
263  2.6200000000000D+00  0.0000000000000D+00  0.0000000000000D+00
264  2.6300000000000D+00  0.0000000000000D+00  0.0000000000000D+00
265  2.6400000000000D+00  0.0000000000000D+00  0.0000000000000D+00
266  2.6500000000000D+00  0.0000000000000D+00  0.0000000000000D+00
267  2.6600000000000D+00  0.0000000000000D+00  0.0000000000000D+00
268  2.6700000000000D+00  0.0000000000000D+00  0.0000000000000D+00
269  2.6800000000000D+00  0.0000000000000D+00  0.0000000000000D+00
270  2.6900000000000D+00  0.0000000000000D+00  0.0000000000000D+00
271  2.7000000000000D+00  0.0000000000000D+00  0.0000000000000D+00
272  2.7100000000000D+00  0.0000000000000D+00  0.0000000000000D+00
273  2.7200000000000D+00  0.0000000000000D+00  0.0000000000000D+00
274  2.7300000000000D+00  0.0000000000000D+00  0.0000000000000D+00
275  2.7400000000000D+00  0.0000000000000D+00  0.0000000000000D+00
276  2.7500000000000D+00  0.0000000000000D+00  0.0000000000000D+00
277  2.7600000000000D+00  0.0000000000000D+00  0.0000000000000D+00
278  2.7700000000000D+00  0.0000000000000D+00  0.0000000000000D+00
279  2.7800000000000D+00  0.0000000000000D+00  0.0000000000000D+00
280  2.7900000000000D+00  0.0000000000000D+00  0.0000000000000D+00
281  2.8000000000000D+00  0.0000000000000D+00  0.0000000000000D+00
282  2.8100000000000D+00  0.0000000000000D+00  0.0000000000000D+00
283  2.8200000000000D+00  0.0000000000000D+00  0.0000000000000D+00
284  2.8300000000000D+00  0.0000000000000D+00  0.0000000000000D+00
285  2.8400000000000D+00  0.0000000000000D+00  0.0000000000000D+00
286  2.8500000000000D+00  0.0000000000000D+00  0.0000000000000D+00
287  2.8600000000000D+00  0.0000000000000D+00  0.0000000000000D+00
288  2.8700000000000D+00  0.0000000000000D+00  0.0000000000000D+00
289  2.8800000000000D+00  0.0000000000000D+00  0.0000000000000D+00
290  2.8900000000000D+00  0.0000000000000D+00  0.0000000000000D+00
291  2.9000000000000D+00  0.0000000000000D+00  0.0000000000000D+00
292  2.9100000000000D+00  0.0000000000000D+00  0.0000000000000D+00
293  2.9200000000000D+00  0.0000000000000D+00  0.0000000000000D+00
294  2.9300000000000D+00  0.0000000000000D+00  0.0000000000000D+00
295  2.9400000000000D+00  0.0000000000000D+00  0.0000000000000D+00
296  2.9500000000000D+00  0.0000000000000D+00  0.0000000000000D+00
297  2.9600000000000D+00  0.0000000000000D+00  0.0000000000000D+00
298  2.9700000000000D+00  0.0000000000000D+00  0.0000000000000D+00
299  2.9800000000000D+00  0.0000000000000D+00  0.0000000000000D+00
300  2.9900000000000D+00  0.0000000000000D+00  0.0000000000000D+00
301  3.0000000000000D+00  0.0000000000000D+00  0.0000000000000D+00
302  3.0100000000000D+00  0.0000000000000D+00  0.0000000000000D+00
303  3.0200000000000D+00  0.0000000000000D+00  0.0000000000000D+00
304  3.0300000000000D+00  0.0000000000000D+00  0.0000000000000D+00
305  3.0400000000000D+00  0.0000000000000D+00  0.0000000000000D+00
306  3.0500000000000D+00  0.0000000000000D+00  0.0000000000000D+00
307  3.0600000000000D+00  0.0000000000000D+00  0.0000000000000D+00
308  3.0700000000000D+00  0.0000000000000D+00  0.0000000000000D+00
309  3.0800000000000D+00  0.0000000000000D+00  0.0000000000000D+00
310  3.0900000000000D+00  0.0000000000000D+00  0.0000000000000D+00
311  3.1000000000000D+00  0.0000000000000D+00  0.0000000000000D+00
312  3.1100000000000D+00  0.0000000000000D+00  0.0000000000000D+00
313  3.1200000000000D+00  0.0000000000000D+00  0.0000000000000D+00
314  3.1300000000000D+00  0.0000000000000D+00  0.0000000000000D+00
315  3.1400000000000D+00  0.0000000000000D+00  0.0000000000000D+00
316  3.1500000000000D+00  0.0000000000000D+00  0.0000000000000D+00
317  3.1600000000000D+00  0.0000000000000D+00  0.0000000000000D+00
318  3.1700000000000D+00  0.0000000000000D+00  0.0000000000000D+00
319  3.1800000000000D+00  0.0000000000000D+00  0.0000000000000D+00
320  3.1900000000000D+00  0.0000000000000D+00  0.0000000000000D+00
321  3.2000000000000D+00  0.0000000000000D+00  0.0000000000000D+00
322  3.2100000000000D+00  0.0000000000000D+00  0.0000000000000D+00
323  3.2200000000000D+00  0.0000000000000D+00  0.0000000000000D+00
324  3.2300000000000D+00  0.0000000000000D+00  0.0000000000000D+00
325  3.2400000000000D+00  0.0000000000000D+00  0.0000000000000D+00
326  3.2500000000000D+00  0.0000000000000D+00  0.0000000000000D+00
327  3.2600000000000D+00  0.0000000000000D+00  0.0000000000000D+00
328  3.2700000000000D+00  0.0000000000000D+00  0.0000000000000D+00
329  3.2800000000000D+00  0.0000000000000D+00  0.0000000000000D+00
330  3.2900000000000D+00  0.0000000000000D+00  0.0000000000000D+00
331  3.3000000000000D+00  0.0000000000000D+00  0.0000000000000D+00
332  3.3100000000000D+00  0.0000000000000D+00  0.0000000000000D+00
333  3.3200000000000D+00  0.0000000000000D+00  0.0000000000000D+00
334  3.3300000000000D+00  0.0000000000000D+00  0.0000000000000D+00
335  3.3400000000000D+00  0.0000000000000D+00  0.0000000000000D+00
336  3.3500000000000D+00  0.0000000000000D+00  0.0000000000000D+00
337  3.3600000000000D+00  0.0000000000000D+00  0.0000000000000D+00
338  3.3700000000000D+00  0.0000000000000D+00  0.0000000000000D+00
339  3.3800000000000D+00  0.0000000000000D+00  0.0000000000000D+00
340  3.3900000000000D+00  0.0000000000000D+00  0.0000000000000D+00
341  3.4000000000000D+00  0.0000000000000D+00  0.0000000000000D+00
342  3.4100000000000D+00  0.0000000000000D+00  0.0000000000000D+00
343  3.4200000000000D+00  0.0000000000000D+00  0.0000000000000D+00
344  3.4300000000000D+00  0.0000000000000D+00  0.0000000000000D+00
345  3.4400000000000D+00  0.0000000000000D+00  0.0000000000000D+00
346  3.4500000000000D+00  0.0000000000000D+00  0.0000000000000D+00
347  3.4600000000000D+00  0.0000000000000D+00  0.0000000000000D+00
348  3.4700000000000D+00  0.0000000000000D+00  0.0000000000000D+00
349  3.4800000000000D+00  0.0000000000000D+00  0.0000000000000D+00
350  3.4900000000000D+00  0.0000000000000D+00  0.0000000000000D+00
351  3.5000000000000D+00  0.0000000000000D+00  0.0000000000000D+00
352  3.5100000000000D+00  0.0000000000000D+00  0.0000000000000D+00
353  3.5200000000000D+00  0.0000000000000D+00  0.0000000000000D+00
354  3.5300000000000D+00  0.0000000000000D+00  0.0000000000000D+00
355  3.5400000000000D+00  0.0000000000000D+00  0.0000000000000D+00
356  3.5500000000000D+00  0.0000000000000D+00  0.0000000000000D+00
357  3.5600000000000D+00  0.0000000000000D+00  0.0000000000000D+00
358  3.5700000000000D+00  0.0000000000000D+00  0.0000000000000D+00
359  3.5800000000000D+00  0.0000000000000D+00  0.0000000000000D+00
360  3.5900000000000D+00  0.0000000000000D+00  0.0000000000000D+00
361  3.6000000000000D+00  0.0000000000000D+00  0.0000000000000D+00
362  3.6100000000000D+00  0.0000000000000D+00  0.0000000000000D+00
363  3.6200000000000D+00  0.0000000000000D+00  0.0000000000000D+00
364  3.6300000000000D+00  0.0000000000000D+00  0.0000000000000D+00
365  3.6400000000000D+00  0.0000000000000D+00  0.0000000000000D+00
366  3.6500000000000D+00  0.0000000000000D+00  0.0000000000000D+00
367  3.6600000000000D+00  0.0000000000000D+00  0.0000000000000D+00
368  3.6700000000000D+00  0.0000000000000D+00  0.0000000000000D+00
369  3.6800000000000D+00  0.0000000000000D+00  0.0000000000000D+00
370  3.6900000000000D+00  0.0000000000000D+00  0.0000000000000D+00
371  3.7000000000000D+00  0.0000000000000D+00  0.0000000000000D+00
372  3.7100000000000D+00  0.0000000000000D+00  0.0000000000000D+00
373  3.7200000000000D+00  0.0000000000000D+00  0.0000000000000D+00
374  3.7300000000000D+00  0.0000000000000D+00  0.0000000000000D+00
375  3.7400000000000D+00  0.0000000000000D+00  0.0000000000000D+00
376  3.7500000000000D+00  0.0000000000000D+00  0.0000000000000D+00
377  3.7600000000000D+00  0.0000000000000D+00  0.0000000000000D+00
378  3.7700000000000D+00  0.0000000000000D+00  0.0000000000000D+00
379  3.7800000000000D+00  0.0000000000000D+00  0.0000000000000D+00
380  3.7900000000000D+00  0.0000000000000D+00  0.0000000000000D+00
381  3.8000000000000D+00  0.0000000000000D+00  0.0000000000000D+00
382  3.8100000000000D+00  0.0000000000000D+00  0.0000000000000D+00
383  3.8200000000000D+00  0.0000000000000D+00  0.0000000000000D+00
384  3.8300000000000D+00  0.0000000000000D+00  0.0000000000000D+00
385  3.8400000000000D+00  0.0000000000000D+00  0.0000000000000D+00
386  3.8500000000000D+00  0.0000000000000D+00  0.0000000000000D+00
387  3.8600000000000D+00  0.0000000000000D+00  0.0000000000000D+00
388  3.8700000000000D+00  0.0000000000000D+00  0.0000000000000D+00
389  3.8800000000000D+00  0.0000000000000D+00  0.0000000000000D+00
390  3.8900000000000D+00  0.0000000000000D+00  0.0000000000000D+00
391  3.9000000000000D+00  0.0000000000000D+00  0.0000000000000D+00
392  3.9100000000000D+00  0.0000000000000D+00  0.0000000000000D+00
393  3.9200000000000D+00  0.0000000000000D+00  0.0000000000000D+00
394  3.9300000000000D+00  0.0000000000000D+00  0.0000000000000D+00
395  3.9400000000000D+00  0.0000000000000D+00  0.0000000000000D+00
396  3.9500000000000D+00  0.0000000000000D+00  0.0000000000000D+00
397  3.9600000000000D+00  0.0000000000000D+00  0.0000000000000D+00
398  3.9700000000000D+00  0.0000000000000D+00  0.0000000000000D+00
399  3.9800000000000D+00  0.0000000000000D+00  0.0000000000000D+00
400  3.9900000000000D+00  0.0000000000000D+00  0.0000000000000D+00
401  4.0000000000000D+00  0.0000000000000D+00  0.0000000000000D+00
402  4.0100000000000D+00  0.0000000000000D+00  0.0000000000000D+00
403  4.0200000000000D+00  0.0000000000000D+00  0.0000000000000D+00
404  4.0300000000000D+00  0.0000000000000D+00  0.0000000000000D+00
405  4.0400000000000D+00  0.0000000000000D+00  0.0000000000000D+00
406  4.0500000000000D+00  0.0000000000000D+00  0.0000000000000D+00
407  4.0600000000000D+00  0.0000000000000D+00  0.0000000000000D+00
408  4.0700000000000D+00  0.0000000000000D+00  0.0000000000000D+00
409  4.0800000000000D+00  0.0000000000000D+00  0.0000000000000D+00
410  4.0900000000000D+00  0.0000000000000D+00  0.0000000000000D+00
411  4.1000000000000D+00  0.0000000000000D+00  0.0000000000000D+00
412  4.1100000000000D+00  0.0000000000000D+00  0.0000000000000D+00
413  4.1200000000000D+00  0.0000000000000D+00  0.0000000000000D+00
414  4.1300000000000D+00  0.0000000000000D+00  0.0000000000000D+00
415  4.1400000000000D+00  0.0000000000000D+00  0.0000000000000D+00
416  4.1500000000000D+00  0.0000000000000D+00  0.0000000000000D+00
417  4.1600000000000D+00  0.0000000000000D+00  0.0000000000000D+00
418  4.1700000000000D+00  0.0000000000000D+00  0.0000000000000D+00
419  4.1800000000000D+00  0.0000000000000D+00  0.0000000000000D+00
420  4.1900000000000D+00  0.0000000000000D+00  0.0000000000000D+00
421  4.2000000000000D+00  0.0000000000000D+00  0.0000000000000D+00
422  4.2100000000000D+00  0.0000000000000D+00  0.0000000000000D+00
423  4.2200000000000D+00  0.0000000000000D+00  0.0000000000000D+00
424  4.2300000000000D+00  0.0000000000000D+00  0.0000000000000D+00
425  4.2400000000000D+00  0.0000000000000D+00  0.0000000000000D+00
426  4.2500000000000D+00  0.0000000000000D+00  0.0000000000000D+00
427  4.2600000000000D+00  0.0000000000000D+00  0.0000000000000D+00
428  4.2700000000000D+00  0.0000000000000D+00  0.0000000000000D+00
429  4.2800000000000D+00  0.0000000000000D+00  0.0000000000000D+00
430  4.2900000000000D+00  0.0000000000000D+00  0.0000000000000D+00
431  4.3000000000000D+00  0.0000000000000D+00  0.0000000000000D+00
432  4.3100000000000D+00  0.0000000000000D+00  0.0000000000000D+00
433  4.3200000000000D+00  0.0000000000000D+00  0.0000000000000D+00
434  4.3300000000000D+00  0.0000000000000D+00  0.0000000000000D+00
435  4.3400000000000D+00  0.0000000000000D+00  0.0000000000000D+00
436  4.3500000000000D+00  0.0000000000000D+00  0.0000000000000D+00
437  4.3600000000000D+00  0.0000000000000D+00  0.0000000000000D+00
438  4.3700000000000D+00  0.0000000000000D+00  0.0000000000000D+00
439  4.3800000000000D+00  0.0000000000000D+00  0.0000000000000D+00
440  4.3900000000000D+00  0.0000000000000D+00  0.0000000000000D+00
441  4.4000000000000D+00  0.0000000000000D+00  0.0000000000000D+00
442  4.4100000000000D+00  0.0000000000000D+00  0.0000000000000D+00
443  4.4200000000000D+00  0.0000000000000D+00  0.0000000000000D+00