Sc    ONCVPSP  r_core=  1.36  1.36  1.66
21.0000     11.0000      151027    zatom,zion,pspd
8   -1013   2     4   600     0    pspcod,pspxc,lmax,lloc,mmax,r2well
5.99000000  5.00000000  0.00000000    rchrg fchrg qchrg
2     2     2     0     0    nproj
0                 extension_switch
0                         1.0658336791340D+01  9.1673893836661D-01
1  0.0000000000000D+00  4.0247489785372D-09 -1.8805351970075D-08
2  1.0000000000000D-02  7.4485880982731D-02 -2.0598490557671D-02
3  2.0000000000000D-02  1.4887278304007D-01 -4.1368636961299D-02
4  3.0000000000000D-02  2.2306031405853D-01 -6.2474034145213D-02
5  4.0000000000000D-02  2.9694529966025D-01 -8.4062363790961D-02
6  5.0000000000000D-02  3.7042050128286D-01 -1.0625795413872D-01
7  6.0000000000000D-02  4.4337346234966D-01 -1.2915494567321D-01
8  7.0000000000000D-02  5.1568552036094D-01 -1.5281124190361D-01
9  8.0000000000000D-02  5.8723101871199D-01 -1.7724340565191D-01
10  9.0000000000000D-02  6.5787674719179D-01 -2.0242263859392D-01
11  1.0000000000000D-01  7.2748163454925D-01 -2.2827195579329D-01
12  1.1000000000000D-01  7.9589671036349D-01 -2.5466463823862D-01
13  1.2000000000000D-01  8.6296534686289D-01 -2.8142401560897D-01
14  1.3000000000000D-01  9.2852378445967D-01 -3.0832459937735D-01
15  1.4000000000000D-01  9.9240193776319D-01 -3.3509455366658D-01
16  1.5000000000000D-01  1.0544244718707D+00 -3.6141945876742D-01
17  1.6000000000000D-01  1.1144121319720D+00 -3.8694729068124D-01
18  1.7000000000000D-01  1.1721833029057D+00 -4.1129451020222D-01
19  1.8000000000000D-01  1.2275557694163D+00 -4.3405312761763D-01
20  1.9000000000000D-01  1.2803486426311D+00 -4.5479858472885D-01
21  2.0000000000000D-01  1.3303844138194D+00 -4.7309827516755D-01
22  2.1000000000000D-01  1.3774910929290D+00 -4.8852050739789D-01
23  2.2000000000000D-01  1.4215043867971D+00 -5.0064370276457D-01
24  2.3000000000000D-01  1.4622698703790D+00 -5.0906561376708D-01
25  2.4000000000000D-01  1.4996451038524D+00 -5.1341234560072D-01
26  2.5000000000000D-01  1.5335016490759D+00 -5.1334696697817D-01
27  2.6000000000000D-01  1.5637269405762D+00 -5.0857750428141D-01
28  2.7000000000000D-01  1.5902259689928D+00 -4.9886412603026D-01
29  2.8000000000000D-01  1.6129227386494D+00 -4.8402534220785D-01
30  2.9000000000000D-01  1.6317614655736D+00 -4.6394306476590D-01
31  3.0000000000000D-01  1.6467074877446D+00 -4.3856640115655D-01
32  3.1000000000000D-01  1.6577478654870D+00 -4.0791408141986D-01
33  3.2000000000000D-01  1.6648916566145D+00 -3.7207545054514D-01
34  3.3000000000000D-01  1.6681698579984D+00 -3.3120999080061D-01
35  3.4000000000000D-01  1.6676350125408D+00 -2.8554537272838D-01
36  3.5000000000000D-01  1.6633604878952D+00 -2.3537406774041D-01
37  3.6000000000000D-01  1.6554394405290D+00 -1.8104858892537D-01
38  3.7000000000000D-01  1.6439834856972D+00 -1.2297545899456D-01
39  3.8000000000000D-01  1.6291211004303D+00 -6.1608034496630D-02
40  3.9000000000000D-01  1.6109957925714D+00  2.5616572087204D-03
41  4.0000000000000D-01  1.5897640741025D+00  6.9011887861388D-02
42  4.1000000000000D-01  1.5655932813362D+00  1.3720080494711D-01
43  4.2000000000000D-01  1.5386592879233D+00  2.0657639970443D-01
44  4.3000000000000D-01  1.5091441589538D+00  2.7658664083830D-01
45  4.4000000000000D-01  1.4772337956434D+00  3.4668954323024D-01
46  4.5000000000000D-01  1.4431156201757D+00  4.1636294125245D-01
47  4.6000000000000D-01  1.4069763491944D+00  4.8511374201541D-01
48  4.7000000000000D-01  1.3689999022399D+00  5.5248644490587D-01
49  4.8000000000000D-01  1.3293654881322D+00  6.1807072988723D-01
50  4.9000000000000D-01  1.2882459080056D+00  6.8150793789315D-01
51  5.0000000000000D-01  1.2458061084782D+00  7.4249629179803D-01
52  5.1000000000000D-01  1.2022020124208D+00  8.0079473532905D-01
53  5.2000000000000D-01  1.1575796481051D+00  8.5622529926385D-01
54  5.3000000000000D-01  1.1120745903097D+00  9.0867393860219D-01
55  5.4000000000000D-01  1.0658117194299D+00  9.5808982028454D-01
56  5.5000000000000D-01  1.0189052969101D+00  1.0044830777461D+00
57  5.6000000000000D-01  9.7145934762344D-01  1.0479210851164D+00
58  5.7000000000000D-01  9.2356833230444D-01  1.0885233395084D+00
59  5.8000000000000D-01  8.7531808599124D-01  1.1264550736572D+00
60  5.9000000000000D-01  8.2678699183458D-01  1.1619197523609D+00
61  6.0000000000000D-01  7.7804735371357D-01  1.1951506340581D+00
62  6.1000000000000D-01  7.2916692603907D-01  1.2264016026843D+00
63  6.2000000000000D-01  6.8021055502768D-01  1.2559374941459D+00
64  6.3000000000000D-01  6.3124188270400D-01  1.2840241558480D+00
65  6.4000000000000D-01  5.8232506302419D-01  1.3109184862760D+00
66  6.5000000000000D-01  5.3352643884624D-01  1.3368587045024D+00
67  6.6000000000000D-01  4.8491612905350D-01  1.3620550964285D+00
68  6.7000000000000D-01  4.3656947692578D-01  1.3866814757715D+00
69  6.8000000000000D-01  3.8856831387148D-01  1.4108675831646D+00
70  6.9000000000000D-01  3.4100199677254D-01  1.4346926267776D+00
71  7.0000000000000D-01  2.9396818239088D-01  1.4581801428861D+00
72  7.1000000000000D-01  2.4757330842206D-01  1.4812943253722D+00
73  7.2000000000000D-01  2.0193275774785D-01  1.5039379397595D+00
74  7.3000000000000D-01  1.5717069002636D-01  1.5259519010655D+00
75  7.4000000000000D-01  1.1341953285307D-01  1.5471165560114D+00
76  7.5000000000000D-01  7.0819133106013D-02  1.5671546700406D+00
77  7.6000000000000D-01  2.9515577562275D-02  1.5857360790524D+00
78  7.7000000000000D-01 -1.0340299704211D-02  1.6024839254469D+00
79  7.8000000000000D-01 -4.8594697556051D-02  1.6169823594005D+00
80  7.9000000000000D-01 -8.5092882436833D-02  1.6287855497127D+00
81  8.0000000000000D-01 -1.1968143725324D-01  1.6374278151971D+00
82  8.1000000000000D-01 -1.5221067820194D-01  1.6424346581662D+00
83  8.2000000000000D-01 -1.8253718811669D-01  1.6433344568055D+00
84  8.3000000000000D-01 -2.1052641089886D-01  1.6396705537773D+00
85  8.4000000000000D-01 -2.3605524880743D-01  1.6310134647351D+00
86  8.5000000000000D-01 -2.5901460290353D-01  1.6169729229515D+00
87  8.6000000000000D-01 -2.7931179681818D-01  1.5972094752001D+00
88  8.7000000000000D-01 -2.9687282526206D-01  1.5714453494869D+00
89  8.8000000000000D-01 -3.1164437130956D-01  1.5394743271409D+00
90  8.9000000000000D-01 -3.2359554042416D-01  1.5011703699539D+00
91  9.0000000000000D-01 -3.3271926437472D-01  1.4564947771505D+00
92  9.1000000000000D-01 -3.3903333451971D-01  1.4055016765060D+00
93  9.2000000000000D-01 -3.4258103127836D-01  1.3483416882768D+00
94  9.3000000000000D-01 -3.4343132481081D-01  1.2852636390603D+00
95  9.4000000000000D-01 -3.4167863081704D-01  1.2166142444207D+00
96  9.5000000000000D-01 -3.3744211474419D-01  1.1428357231935D+00
97  9.6000000000000D-01 -3.3086454735825D-01  1.0644613518529D+00
98  9.7000000000000D-01 -3.2211072435184D-01  9.8210901306833D-01
99  9.8000000000000D-01 -3.1136547238262D-01  8.9647283839505D-01
100  9.9000000000000D-01 -2.9883127283482D-01  8.0831308700520D-01
101  1.0000000000000D+00 -2.8472554367021D-01  7.1844444520457D-01
102  1.0100000000000D+00 -2.6927762732031D-01  6.2772296733103D-01
103  1.0200000000000D+00 -2.5272553959043D-01  5.3703191184845D-01
104  1.0300000000000D+00 -2.3531254033015D-01  4.4726675387847D-01
105  1.0400000000000D+00 -2.1728359117040D-01  3.5931967703725D-01
106  1.0500000000000D+00 -1.9888176868046D-01  2.7406386205337D-01
107  1.0600000000000D+00 -1.8034470315495D-01  1.9233789864225D-01
108  1.0700000000000D+00 -1.6190111330677D-01  1.1493064770059D-01
109  1.0800000000000D+00 -1.4376750583833D-01  4.2566875017637D-02
110  1.0900000000000D+00 -1.2614510578938D-01 -2.4106036473166D-02
111  1.1000000000000D+00 -1.0921707950018D-01 -8.4530007716317D-02
112  1.1100000000000D+00 -9.3146106373398D-02 -1.3824655597071D-01
113  1.1200000000000D+00 -7.8072348198631D-02 -1.8490523143163D-01
114  1.1300000000000D+00 -6.4111856935529D-02 -2.2427000757869D-01
115  1.1400000000000D+00 -5.1355452444242D-02 -2.5622347879345D-01
116  1.1500000000000D+00 -3.9868093275254D-02 -2.8076875799007D-01
117  1.1600000000000D+00 -2.9688750912433D-02 -2.9802902657021D-01
118  1.1700000000000D+00 -2.0830788328433D-02 -3.0824473369538D-01
119  1.1800000000000D+00 -1.3282833378335D-02 -3.1176849029808D-01
120  1.1900000000000D+00 -7.0101267184349D-03 -3.0905775406620D-01
121  1.2000000000000D+00 -1.9563122648987D-03 -3.0066545637756D-01
122  1.2100000000000D+00  1.9543711017640D-03 -2.8722876582488D-01
123  1.2200000000000D+00  4.8145434840151D-03 -2.6945620925300D-01
124  1.2300000000000D+00  6.7308440740497D-03 -2.4811343508355D-01
125  1.2400000000000D+00  7.8208608557786D-03 -2.2400791743960D-01
126  1.2500000000000D+00  8.2098982924296D-03 -1.9797292282683D-01
127  1.2600000000000D+00  8.0276582143849D-03 -1.7085109314495D-01
128  1.2700000000000D+00  7.4049112997098D-03 -1.4347801009730D-01
129  1.2800000000000D+00  6.4702253054259D-03 -1.1666604663909D-01
130  1.2900000000000D+00  5.3468449865395D-03 -9.1188963939088D-02
131  1.3000000000000D+00  4.1497004838987D-03 -6.7767094190709D-02
132  1.3100000000000D+00  2.9833458450180D-03 -4.7058804633374D-02
133  1.3200000000000D+00  1.9385901654847D-03 -2.9642624512515D-02
134  1.3300000000000D+00  1.0813519137682D-03 -1.5901219434438D-02
135  1.3400000000000D+00  4.8153779973162D-04 -6.4151832405822D-03
136  1.3500000000000D+00  1.8160299874677D-04 -1.5513745727512D-03
137  1.3600000000000D+00  6.2258915531140D-05  2.0275390351806D-05
138  1.3700000000000D+00  8.0031135605313D-06  6.9151341097997D-05
139  1.3800000000000D+00 -4.2954602503654D-06 -6.2279358047857D-05
140  1.3900000000000D+00  1.8940122386208D-07  1.3309113700082D-06
141  1.4000000000000D+00  1.0268331997930D-06  8.9427929469939D-06
142  1.4100000000000D+00 -1.9419904054726D-07  5.4530778621773D-07
143  1.4200000000000D+00 -1.3038036020563D-07  3.6610595701012D-07
144  1.4300000000000D+00  0.0000000000000D+00  0.0000000000000D+00
145  1.4400000000000D+00  0.0000000000000D+00  0.0000000000000D+00
146  1.4500000000000D+00  0.0000000000000D+00  0.0000000000000D+00
147  1.4600000000000D+00  0.0000000000000D+00  0.0000000000000D+00
148  1.4700000000000D+00  0.0000000000000D+00  0.0000000000000D+00
149  1.4800000000000D+00  0.0000000000000D+00  0.0000000000000D+00
150  1.4900000000000D+00  0.0000000000000D+00  0.0000000000000D+00
151  1.5000000000000D+00  0.0000000000000D+00  0.0000000000000D+00
152  1.5100000000000D+00  0.0000000000000D+00  0.0000000000000D+00
153  1.5200000000000D+00  0.0000000000000D+00  0.0000000000000D+00
154  1.5300000000000D+00  0.0000000000000D+00  0.0000000000000D+00
155  1.5400000000000D+00  0.0000000000000D+00  0.0000000000000D+00
156  1.5500000000000D+00  0.0000000000000D+00  0.0000000000000D+00
157  1.5600000000000D+00  0.0000000000000D+00  0.0000000000000D+00
158  1.5700000000000D+00  0.0000000000000D+00  0.0000000000000D+00
159  1.5800000000000D+00  0.0000000000000D+00  0.0000000000000D+00
160  1.5900000000000D+00  0.0000000000000D+00  0.0000000000000D+00
161  1.6000000000000D+00  0.0000000000000D+00  0.0000000000000D+00
162  1.6100000000000D+00  0.0000000000000D+00  0.0000000000000D+00
163  1.6200000000000D+00  0.0000000000000D+00  0.0000000000000D+00
164  1.6300000000000D+00  0.0000000000000D+00  0.0000000000000D+00
165  1.6400000000000D+00  0.0000000000000D+00  0.0000000000000D+00
166  1.6500000000000D+00  0.0000000000000D+00  0.0000000000000D+00
167  1.6600000000000D+00  0.0000000000000D+00  0.0000000000000D+00
168  1.6700000000000D+00  0.0000000000000D+00  0.0000000000000D+00
169  1.6800000000000D+00  0.0000000000000D+00  0.0000000000000D+00
170  1.6900000000000D+00  0.0000000000000D+00  0.0000000000000D+00
171  1.7000000000000D+00  0.0000000000000D+00  0.0000000000000D+00
172  1.7100000000000D+00  0.0000000000000D+00  0.0000000000000D+00
173  1.7200000000000D+00  0.0000000000000D+00  0.0000000000000D+00
174  1.7300000000000D+00  0.0000000000000D+00  0.0000000000000D+00
175  1.7400000000000D+00  0.0000000000000D+00  0.0000000000000D+00
176  1.7500000000000D+00  0.0000000000000D+00  0.0000000000000D+00
177  1.7600000000000D+00  0.0000000000000D+00  0.0000000000000D+00
178  1.7700000000000D+00  0.0000000000000D+00  0.0000000000000D+00
179  1.7800000000000D+00  0.0000000000000D+00  0.0000000000000D+00
180  1.7900000000000D+00  0.0000000000000D+00  0.0000000000000D+00
181  1.8000000000000D+00  0.0000000000000D+00  0.0000000000000D+00
182  1.8100000000000D+00  0.0000000000000D+00  0.0000000000000D+00
183  1.8200000000000D+00  0.0000000000000D+00  0.0000000000000D+00
184  1.8300000000000D+00  0.0000000000000D+00  0.0000000000000D+00
185  1.8400000000000D+00  0.0000000000000D+00  0.0000000000000D+00
186  1.8500000000000D+00  0.0000000000000D+00  0.0000000000000D+00
187  1.8600000000000D+00  0.0000000000000D+00  0.0000000000000D+00
188  1.8700000000000D+00  0.0000000000000D+00  0.0000000000000D+00
189  1.8800000000000D+00  0.0000000000000D+00  0.0000000000000D+00
190  1.8900000000000D+00  0.0000000000000D+00  0.0000000000000D+00
191  1.9000000000000D+00  0.0000000000000D+00  0.0000000000000D+00
192  1.9100000000000D+00  0.0000000000000D+00  0.0000000000000D+00
193  1.9200000000000D+00  0.0000000000000D+00  0.0000000000000D+00
194  1.9300000000000D+00  0.0000000000000D+00  0.0000000000000D+00
195  1.9400000000000D+00  0.0000000000000D+00  0.0000000000000D+00
196  1.9500000000000D+00  0.0000000000000D+00  0.0000000000000D+00
197  1.9600000000000D+00  0.0000000000000D+00  0.0000000000000D+00
198  1.9700000000000D+00  0.0000000000000D+00  0.0000000000000D+00
199  1.9800000000000D+00  0.0000000000000D+00  0.0000000000000D+00
200  1.9900000000000D+00  0.0000000000000D+00  0.0000000000000D+00
201  2.0000000000000D+00  0.0000000000000D+00  0.0000000000000D+00
202  2.0100000000000D+00  0.0000000000000D+00  0.0000000000000D+00
203  2.0200000000000D+00  0.0000000000000D+00  0.0000000000000D+00
204  2.0300000000000D+00  0.0000000000000D+00  0.0000000000000D+00
205  2.0400000000000D+00  0.0000000000000D+00  0.0000000000000D+00
206  2.0500000000000D+00  0.0000000000000D+00  0.0000000000000D+00
207  2.0600000000000D+00  0.0000000000000D+00  0.0000000000000D+00
208  2.0700000000000D+00  0.0000000000000D+00  0.0000000000000D+00
209  2.0800000000000D+00  0.0000000000000D+00  0.0000000000000D+00
210  2.0900000000000D+00  0.0000000000000D+00  0.0000000000000D+00
211  2.1000000000000D+00  0.0000000000000D+00  0.0000000000000D+00
212  2.1100000000000D+00  0.0000000000000D+00  0.0000000000000D+00
213  2.1200000000000D+00  0.0000000000000D+00  0.0000000000000D+00
214  2.1300000000000D+00  0.0000000000000D+00  0.0000000000000D+00
215  2.1400000000000D+00  0.0000000000000D+00  0.0000000000000D+00
216  2.1500000000000D+00  0.0000000000000D+00  0.0000000000000D+00
217  2.1600000000000D+00  0.0000000000000D+00  0.0000000000000D+00
218  2.1700000000000D+00  0.0000000000000D+00  0.0000000000000D+00
219  2.1800000000000D+00  0.0000000000000D+00  0.0000000000000D+00
220  2.1900000000000D+00  0.0000000000000D+00  0.0000000000000D+00
221  2.2000000000000D+00  0.0000000000000D+00  0.0000000000000D+00
222  2.2100000000000D+00  0.0000000000000D+00  0.0000000000000D+00
223  2.2200000000000D+00  0.0000000000000D+00  0.0000000000000D+00
224  2.2300000000000D+00  0.0000000000000D+00  0.0000000000000D+00
225  2.2400000000000D+00  0.0000000000000D+00  0.0000000000000D+00
226  2.2500000000000D+00  0.0000000000000D+00  0.0000000000000D+00
227  2.2600000000000D+00  0.0000000000000D+00  0.0000000000000D+00
228  2.2700000000000D+00  0.0000000000000D+00  0.0000000000000D+00
229  2.2800000000000D+00  0.0000000000000D+00  0.0000000000000D+00
230  2.2900000000000D+00  0.0000000000000D+00  0.0000000000000D+00
231  2.3000000000000D+00  0.0000000000000D+00  0.0000000000000D+00
232  2.3100000000000D+00  0.0000000000000D+00  0.0000000000000D+00
233  2.3200000000000D+00  0.0000000000000D+00  0.0000000000000D+00
234  2.3300000000000D+00  0.0000000000000D+00  0.0000000000000D+00
235  2.3400000000000D+00  0.0000000000000D+00  0.0000000000000D+00
236  2.3500000000000D+00  0.0000000000000D+00  0.0000000000000D+00
237  2.3600000000000D+00  0.0000000000000D+00  0.0000000000000D+00
238  2.3700000000000D+00  0.0000000000000D+00  0.0000000000000D+00
239  2.3800000000000D+00  0.0000000000000D+00  0.0000000000000D+00
240  2.3900000000000D+00  0.0000000000000D+00  0.0000000000000D+00
241  2.4000000000000D+00  0.0000000000000D+00  0.0000000000000D+00
242  2.4100000000000D+00  0.0000000000000D+00  0.0000000000000D+00
243  2.4200000000000D+00  0.0000000000000D+00  0.0000000000000D+00
244  2.4300000000000D+00  0.0000000000000D+00  0.0000000000000D+00
245  2.4400000000000D+00  0.0000000000000D+00  0.0000000000000D+00
246  2.4500000000000D+00  0.0000000000000D+00  0.0000000000000D+00
247  2.4600000000000D+00  0.0000000000000D+00  0.0000000000000D+00
248  2.4700000000000D+00  0.0000000000000D+00  0.0000000000000D+00
249  2.4800000000000D+00  0.0000000000000D+00  0.0000000000000D+00
250  2.4900000000000D+00  0.0000000000000D+00  0.0000000000000D+00
251  2.5000000000000D+00  0.0000000000000D+00  0.0000000000000D+00
252  2.5100000000000D+00  0.0000000000000D+00  0.0000000000000D+00
253  2.5200000000000D+00  0.0000000000000D+00  0.0000000000000D+00
254  2.5300000000000D+00  0.0000000000000D+00  0.0000000000000D+00
255  2.5400000000000D+00  0.0000000000000D+00  0.0000000000000D+00
256  2.5500000000000D+00  0.0000000000000D+00  0.0000000000000D+00
257  2.5600000000000D+00  0.0000000000000D+00  0.0000000000000D+00
258  2.5700000000000D+00  0.0000000000000D+00  0.0000000000000D+00
259  2.5800000000000D+00  0.0000000000000D+00  0.0000000000000D+00
260  2.5900000000000D+00  0.0000000000000D+00  0.0000000000000D+00
261  2.6000000000000D+00  0.0000000000000D+00  0.0000000000000D+00
262  2.6100000000000D+00  0.0000000000000D+00  0.0000000000000D+00
263  2.6200000000000D+00  0.0000000000000D+00  0.0000000000000D+00
264  2.6300000000000D+00  0.0000000000000D+00  0.0000000000000D+00
265  2.6400000000000D+00  0.0000000000000D+00  0.0000000000000D+00
266  2.6500000000000D+00  0.0000000000000D+00  0.0000000000000D+00
267  2.6600000000000D+00  0.0000000000000D+00  0.0000000000000D+00
268  2.6700000000000D+00  0.0000000000000D+00  0.0000000000000D+00
269  2.6800000000000D+00  0.0000000000000D+00  0.0000000000000D+00
270  2.6900000000000D+00  0.0000000000000D+00  0.0000000000000D+00
271  2.7000000000000D+00  0.0000000000000D+00  0.0000000000000D+00
272  2.7100000000000D+00  0.0000000000000D+00  0.0000000000000D+00
273  2.7200000000000D+00  0.0000000000000D+00  0.0000000000000D+00
274  2.7300000000000D+00  0.0000000000000D+00  0.0000000000000D+00
275  2.7400000000000D+00  0.0000000000000D+00  0.0000000000000D+00
276  2.7500000000000D+00  0.0000000000000D+00  0.0000000000000D+00
277  2.7600000000000D+00  0.0000000000000D+00  0.0000000000000D+00
278  2.7700000000000D+00  0.0000000000000D+00  0.0000000000000D+00
279  2.7800000000000D+00  0.0000000000000D+00  0.0000000000000D+00
280  2.7900000000000D+00  0.0000000000000D+00  0.0000000000000D+00
281  2.8000000000000D+00  0.0000000000000D+00  0.0000000000000D+00
282  2.8100000000000D+00  0.0000000000000D+00  0.0000000000000D+00
283  2.8200000000000D+00  0.0000000000000D+00  0.0000000000000D+00
284  2.8300000000000D+00  0.0000000000000D+00  0.0000000000000D+00
285  2.8400000000000D+00  0.0000000000000D+00  0.0000000000000D+00
286  2.8500000000000D+00  0.0000000000000D+00  0.0000000000000D+00
287  2.8600000000000D+00  0.0000000000000D+00  0.0000000000000D+00
288  2.8700000000000D+00  0.0000000000000D+00  0.0000000000000D+00
289  2.8800000000000D+00  0.0000000000000D+00  0.0000000000000D+00
290  2.8900000000000D+00  0.0000000000000D+00  0.0000000000000D+00
291  2.9000000000000D+00  0.0000000000000D+00  0.0000000000000D+00
292  2.9100000000000D+00  0.0000000000000D+00  0.0000000000000D+00
293  2.9200000000000D+00  0.0000000000000D+00  0.0000000000000D+00
294  2.9300000000000D+00  0.0000000000000D+00  0.0000000000000D+00
295  2.9400000000000D+00  0.0000000000000D+00  0.0000000000000D+00
296  2.9500000000000D+00  0.0000000000000D+00  0.0000000000000D+00
297  2.9600000000000D+00  0.0000000000000D+00  0.0000000000000D+00
298  2.9700000000000D+00  0.0000000000000D+00  0.0000000000000D+00
299  2.9800000000000D+00  0.0000000000000D+00  0.0000000000000D+00
300  2.9900000000000D+00  0.0000000000000D+00  0.0000000000000D+00
301  3.0000000000000D+00  0.0000000000000D+00  0.0000000000000D+00
302  3.0100000000000D+00  0.0000000000000D+00  0.0000000000000D+00
303  3.0200000000000D+00  0.0000000000000D+00  0.0000000000000D+00
304  3.0300000000000D+00  0.0000000000000D+00  0.0000000000000D+00
305  3.0400000000000D+00  0.0000000000000D+00  0.0000000000000D+00
306  3.0500000000000D+00  0.0000000000000D+00  0.0000000000000D+00
307  3.0600000000000D+00  0.0000000000000D+00  0.0000000000000D+00
308  3.0700000000000D+00  0.0000000000000D+00  0.0000000000000D+00
309  3.0800000000000D+00  0.0000000000000D+00  0.0000000000000D+00
310  3.0900000000000D+00  0.0000000000000D+00  0.0000000000000D+00
311  3.1000000000000D+00  0.0000000000000D+00  0.0000000000000D+00
312  3.1100000000000D+00  0.0000000000000D+00  0.0000000000000D+00
313  3.1200000000000D+00  0.0000000000000D+00  0.0000000000000D+00
314  3.1300000000000D+00  0.0000000000000D+00  0.0000000000000D+00
315  3.1400000000000D+00  0.0000000000000D+00  0.0000000000000D+00
316  3.1500000000000D+00  0.0000000000000D+00  0.0000000000000D+00
317  3.1600000000000D+00  0.0000000000000D+00  0.0000000000000D+00
318  3.1700000000000D+00  0.0000000000000D+00  0.0000000000000D+00
319  3.1800000000000D+00  0.0000000000000D+00  0.0000000000000D+00
320  3.1900000000000D+00  0.0000000000000D+00  0.0000000000000D+00
321  3.2000000000000D+00  0.0000000000000D+00  0.0000000000000D+00
322  3.2100000000000D+00  0.0000000000000D+00  0.0000000000000D+00
323  3.2200000000000D+00  0.0000000000000D+00  0.0000000000000D+00
324  3.2300000000000D+00  0.0000000000000D+00  0.0000000000000D+00
325  3.2400000000000D+00  0.0000000000000D+00  0.0000000000000D+00
326  3.2500000000000D+00  0.0000000000000D+00  0.0000000000000D+00
327  3.2600000000000D+00  0.0000000000000D+00  0.0000000000000D+00
328  3.2700000000000D+00  0.0000000000000D+00  0.0000000000000D+00
329  3.2800000000000D+00  0.0000000000000D+00  0.0000000000000D+00
330  3.2900000000000D+00  0.0000000000000D+00  0.0000000000000D+00
331  3.3000000000000D+00  0.0000000000000D+00  0.0000000000000D+00
332  3.3100000000000D+00  0.0000000000000D+00  0.0000000000000D+00
333  3.3200000000000D+00  0.0000000000000D+00  0.0000000000000D+00
334  3.3300000000000D+00  0.0000000000000D+00  0.0000000000000D+00
335  3.3400000000000D+00  0.0000000000000D+00  0.0000000000000D+00
336  3.3500000000000D+00  0.0000000000000D+00  0.0000000000000D+00
337  3.3600000000000D+00  0.0000000000000D+00  0.0000000000000D+00
338  3.3700000000000D+00  0.0000000000000D+00  0.0000000000000D+00
339  3.3800000000000D+00  0.0000000000000D+00  0.0000000000000D+00
340  3.3900000000000D+00  0.0000000000000D+00  0.0000000000000D+00
341  3.4000000000000D+00  0.0000000000000D+00  0.0000000000000D+00
342  3.4100000000000D+00  0.0000000000000D+00  0.0000000000000D+00
343  3.4200000000000D+00  0.0000000000000D+00  0.0000000000000D+00
344  3.4300000000000D+00  0.0000000000000D+00  0.0000000000000D+00
345  3.4400000000000D+00  0.0000000000000D+00  0.0000000000000D+00
346  3.4500000000000D+00  0.0000000000000D+00  0.0000000000000D+00
347  3.4600000000000D+00  0.0000000000000D+00  0.0000000000000D+00
348  3.4700000000000D+00  0.0000000000000D+00  0.0000000000000D+00
349  3.4800000000000D+00  0.0000000000000D+00  0.0000000000000D+00
350  3.4900000000000D+00  0.0000000000000D+00  0.0000000000000D+00
351  3.5000000000000D+00  0.0000000000000D+00  0.0000000000000D+00
352  3.5100000000000D+00  0.0000000000000D+00  0.0000000000000D+00
353  3.5200000000000D+00  0.0000000000000D+00  0.0000000000000D+00
354  3.5300000000000D+00  0.0000000000000D+00  0.0000000000000D+00
355  3.5400000000000D+00  0.0000000000000D+00  0.0000000000000D+00
356  3.5500000000000D+00  0.0000000000000D+00  0.0000000000000D+00
357  3.5600000000000D+00  0.0000000000000D+00  0.0000000000000D+00
358  3.5700000000000D+00  0.0000000000000D+00  0.0000000000000D+00
359  3.5800000000000D+00  0.0000000000000D+00  0.0000000000000D+00
360  3.5900000000000D+00  0.0000000000000D+00  0.0000000000000D+00
361  3.6000000000000D+00  0.0000000000000D+00  0.0000000000000D+00
362  3.6100000000000D+00  0.0000000000000D+00  0.0000000000000D+00
363  3.6200000000000D+00  0.0000000000000D+00  0.0000000000000D+00
364  3.6300000000000D+00  0.0000000000000D+00  0.0000000000000D+00
365  3.6400000000000D+00  0.0000000000000D+00  0.0000000000000D+00
366  3.6500000000000D+00  0.0000000000000D+00  0.0000000000000D+00
367  3.6600000000000D+00  0.0000000000000D+00  0.0000000000000D+00
368  3.6700000000000D+00  0.0000000000000D+00  0.0000000000000D+00
369  3.6800000000000D+00  0.0000000000000D+00  0.0000000000000D+00
370  3.6900000000000D+00  0.0000000000000D+00  0.0000000000000D+00
371  3.7000000000000D+00  0.0000000000000D+00  0.0000000000000D+00
372  3.7100000000000D+00  0.0000000000000D+00  0.0000000000000D+00
373  3.7200000000000D+00  0.0000000000000D+00  0.0000000000000D+00
374  3.7300000000000D+00  0.0000000000000D+00  0.0000000000000D+00
375  3.7400000000000D+00  0.0000000000000D+00  0.0000000000000D+00
376  3.7500000000000D+00  0.0000000000000D+00  0.0000000000000D+00
377  3.7600000000000D+00  0.0000000000000D+00  0.0000000000000D+00
378  3.7700000000000D+00  0.0000000000000D+00  0.0000000000000D+00
379  3.7800000000000D+00  0.0000000000000D+00  0.0000000000000D+00
380  3.7900000000000D+00  0.0000000000000D+00  0.0000000000000D+00
381  3.8000000000000D+00  0.0000000000000D+00  0.0000000000000D+00
382  3.8100000000000D+00  0.0000000000000D+00  0.0000000000000D+00
383  3.8200000000000D+00  0.0000000000000D+00  0.0000000000000D+00
384  3.8300000000000D+00  0.0000000000000D+00  0.0000000000000D+00
385  3.8400000000000D+00  0.0000000000000D+00  0.0000000000000D+00
386  3.8500000000000D+00  0.0000000000000D+00  0.0000000000000D+00
387  3.8600000000000D+00  0.0000000000000D+00  0.0000000000000D+00
388  3.8700000000000D+00  0.0000000000000D+00  0.0000000000000D+00
389  3.8800000000000D+00  0.0000000000000D+00  0.0000000000000D+00
390  3.8900000000000D+00  0.0000000000000D+00  0.0000000000000D+00
391  3.9000000000000D+00  0.0000000000000D+00  0.0000000000000D+00
392  3.9100000000000D+00  0.0000000000000D+00  0.0000000000000D+00
393  3.9200000000000D+00  0.0000000000000D+00  0.0000000000000D+00
394  3.9300000000000D+00  0.0000000000000D+00  0.0000000000000D+00
395  3.9400000000000D+00  0.0000000000000D+00  0.0000000000000D+00
396  3.9500000000000D+00  0.0000000000000D+00  0.0000000000000D+00
397  3.9600000000000D+00  0.0000000000000D+00  0.0000000000000D+00
398  3.9700000000000D+00  0.0000000000000D+00  0.0000000000000D+00
399  3.9800000000000D+00  0.0000000000000D+00  0.0000000000000D+00
400  3.9900000000000D+00  0.0000000000000D+00  0.0000000000000D+00
401  4.0000000000000D+00  0.0000000000000D+00  0.0000000000000D+00
402  4.0100000000000D+00  0.0000000000000D+00  0.0000000000000D+00
403  4.0200000000000D+00  0.0000000000000D+00  0.0000000000000D+00
404  4.0300000000000D+00  0.0000000000000D+00  0.0000000000000D+00
405  4.0400000000000D+00  0.0000000000000D+00  0.0000000000000D+00
406  4.0500000000000D+00  0.0000000000000D+00  0.0000000000000D+00
407  4.0600000000000D+00  0.0000000000000D+00  0.0000000000000D+00
408  4.0700000000000D+00  0.0000000000000D+00  0.0000000000000D+00
409  4.0800000000000D+00  0.0000000000000D+00  0.0000000000000D+00
410  4.0900000000000D+00  0.0000000000000D+00  0.0000000000000D+00
411  4.1000000000000D+00  0.0000000000000D+00  0.0000000000000D+00
412  4.1100000000000D+00  0.0000000000000D+00  0.0000000000000D+00
413  4.1200000000000D+00  0.0000000000000D+00  0.0000000000000D+00
414  4.1300000000000D+00  0.0000000000000D+00  0.0000000000000D+00
415  4.1400000000000D+00  0.0000000000000D+00  0.0000000000000D+00
416  4.1500000000000D+00  0.0000000000000D+00  0.0000000000000D+00
417  4.1600000000000D+00  0.0000000000000D+00  0.0000000000000D+00
418  4.1700000000000D+00  0.0000000000000D+00  0.0000000000000D+00
419  4.1800000000000D+00  0.0000000000000D+00  0.0000000000000D+00
420  4.1900000000000D+00  0.0000000000000D+00  0.0000000000000D+00
421  4.2000000000000D+00  0.0000000000000D+00  0.0000000000000D+00
422  4.2100000000000D+00  0.0000000000000D+00  0.0000000000000D+00
423  4.2200000000000D+00  0.0000000000000D+00  0.0000000000000D+00
424  4.2300000000000D+00  0.0000000000000D+00  0.0000000000000D+00
425  4.2400000000000D+00  0.0000000000000D+00  0.0000000000000D+00
426  4.2500000000000D+00  0.0000000000000D+00  0.0000000000000D+00
427  4.2600000000000D+00  0.0000000000000D+00  0.0000000000000D+00
428  4.2700000000000D+00  0.0000000000000D+00  0.0000000000000D+00
429  4.2800000000000D+00  0.0000000000000D+00  0.0000000000000D+00
430  4.2900000000000D+00  0.0000000000000D+00  0.0000000000000D+00
431  4.3000000000000D+00  0.0000000000000D+00  0.0000000000000D+00
432  4.3100000000000D+00  0.0000000000000D+00  0.0000000000000D+00
433  4.3200000000000D+00  0.0000000000000D+00  0.0000000000000D+00
434  4.3300000000000D+00  0.0000000000000D+00  0.0000000000000D+00
435  4.3400000000000D+00  0.0000000000000D+00  0.0000000000000D+00
436  4.3500000000000D+00  0.0000000000000D+00  0.0000000000000D+00
437  4.3600000000000D+00  0.0000000000000D+00  0.0000000000000D+00
438  4.3700000000000D+00  0.0000000000000D+00  0.0000000000000D+00
439  4.3800000000000D+00  0.0000000000000D+00  0.0000000000000D+00
440  4.3900000000000D+00  0.0000000000000D+00  0.0000000000000D+00
441  4.4000000000000D+00  0.0000000000000D+00  0.0000000000000D+00
442  4.4100000000000D+00  0.0000000000000D+00  0.0000000000000D+00
443  4.4200000000000D+00  0.0000000000000D+00  0.0000000000000D+00
444  4.4300000000000D+00  0.0000000000000D+00  0.0000000000000D+00