Pb    ONCVPSP  r_core=  2.01  2.01  1.62
82.0000     14.0000      140817    zatom,zion,pspd
8    11     2     4   601     0    pspcod,pspxc,lmax,lloc,mmax,r2well
6.00000000  1.15000000  0.00000000    rchrg fchrg qchrg
2     2     2     0     0    nproj
0                 extension_switch
0                         2.6177948016801D+01  3.3706907896255D+00
1  0.0000000000000D+00  0.0000000000000D+00 -0.0000000000000D+00
2  1.0000000000000D-02  5.6196600526288D-02 -4.2983904055616D-02
3  2.0000000000000D-02  1.1238251293722D-01 -8.5916342079440D-02
4  3.0000000000000D-02  1.6854538842600D-01 -1.2874403320972D-01
5  4.0000000000000D-02  2.2466958715867D-01 -1.7141010487801D-01
6  5.0000000000000D-02  2.8073460819289D-01 -2.1385239123756D-01
7  6.0000000000000D-02  3.3671360864104D-01 -2.5600184305282D-01
8  7.0000000000000D-02  3.9257203972644D-01 -2.9778108344104D-01
9  8.0000000000000D-02  4.4826642560653D-01 -3.3910314152584D-01
10  9.0000000000000D-02  5.0374330870486D-01 -3.7987039325388D-01
11  1.0000000000000D-01  5.5893838272348D-01 -4.1997373526575D-01
12  1.1000000000000D-01  6.1377583173009D-01 -4.5929201404816D-01
13  1.2000000000000D-01  6.6816789052021D-01 -4.9769172842766D-01
14  1.3000000000000D-01  7.2201463812847D-01 -5.3502701908287D-01
15  1.4000000000000D-01  7.7520403269728D-01 -5.7113995405907D-01
16  1.5000000000000D-01  8.2761219240198D-01 -6.0586111446358D-01
17  1.6000000000000D-01  8.7910392314533D-01 -6.3901047971851D-01
18  1.7000000000000D-01  9.2953348972646D-01 -6.7039860596944D-01
19  1.8000000000000D-01  9.7874562426489D-01 -6.9982808827941D-01
20  1.9000000000000D-01  1.0265767603390D+00 -7.2709528937543D-01
21  2.0000000000000D-01  1.0728564799336D+00 -7.5199231694326D-01
22  2.1000000000000D-01  1.1174091535456D+00 -7.7430922196381D-01
23  2.2000000000000D-01  1.1600557546839D+00 -7.9383639255761D-01
24  2.3000000000000D-01  1.2006158247617D+00 -8.1036711059037D-01
25  2.4000000000000D-01  1.2389095616122D+00 -8.2370023497360D-01
26  2.5000000000000D-01  1.2747599957776D+00 -8.3364296410470D-01
27  2.6000000000000D-01  1.3079952511598D+00 -8.4001367223213D-01
28  2.7000000000000D-01  1.3384508125881D+00 -8.4264471818638D-01
29  2.8000000000000D-01  1.3659718109086D+00 -8.4138524021482D-01
30  2.9000000000000D-01  1.3904152713064D+00 -8.3610386590689D-01
31  3.0000000000000D-01  1.4116522950843D+00 -8.2669129875772D-01
32  3.1000000000000D-01  1.4295701432441D+00 -8.1306274060632D-01
33  3.2000000000000D-01  1.4440741890631D+00 -7.9516010808100D-01
34  3.3000000000000D-01  1.4550896910253D+00 -7.7295398340553D-01
35  3.4000000000000D-01  1.4625634329741D+00 -7.4644535304033D-01
36  3.5000000000000D-01  1.4664650644763D+00 -7.1566693514367D-01
37  3.6000000000000D-01  1.4667882931437D+00 -6.8068427325689D-01
38  3.7000000000000D-01  1.4635517072878D+00 -6.4159634158169D-01
39  3.8000000000000D-01  1.4567994646205D+00 -5.9853592411218D-01
40  3.9000000000000D-01  1.4466015503675D+00 -5.5166944207031D-01
41  4.0000000000000D-01  1.4330538112883D+00 -5.0119645807594D-01
42  4.1000000000000D-01  1.4162776695436D+00 -4.4734875308787D-01
43  4.2000000000000D-01  1.3964195261163D+00 -3.9038899115174D-01
44  4.3000000000000D-01  1.3736498585104D+00 -3.3060898209887D-01
45  4.4000000000000D-01  1.3481620198881D+00 -2.6832755597271D-01
46  4.5000000000000D-01  1.3201707503779D+00 -2.0388806783682D-01
47  4.6000000000000D-01  1.2899104150050D+00 -1.3765555675211D-01
48  4.7000000000000D-01  1.2576329869040D+00 -7.0013588556700D-02
49  4.8000000000000D-01  1.2236057995415D+00 -1.3608190928855D-03
50  4.9000000000000D-01  1.1881091320678D+00  6.7892617163045D-02
51  5.0000000000000D-01  1.1514335254961D+00  1.3732909080922D-01
52  5.1000000000000D-01  1.1138769872906D+00  2.0652752693355D-01
53  5.2000000000000D-01  1.0757422408499D+00  2.7506731713067D-01
54  5.3000000000000D-01  1.0373336324112D+00  3.4253273098987D-01
55  5.4000000000000D-01  9.9895404410988D-01  4.0851721892613D-01
56  5.5000000000000D-01  9.6090234681414D-01  4.7262685001951D-01
57  5.6000000000000D-01  9.2346956268297D-01  5.3448565884832D-01
58  5.7000000000000D-01  8.8693715011471D-01  5.9373773647486D-01
59  5.8000000000000D-01  8.5157280303476D-01  6.5005298306980D-01
60  5.9000000000000D-01  8.1762937244372D-01  7.0312821551120D-01
61  6.0000000000000D-01  7.8534078187953D-01  7.5269259234066D-01
62  6.1000000000000D-01  7.5492113968716D-01  7.9850839517647D-01
63  6.2000000000000D-01  7.2656195068757D-01  8.4037446602007D-01
64  6.3000000000000D-01  7.0043025592555D-01  8.7812825257868D-01
65  6.4000000000000D-01  6.7666802770718D-01  9.1164610102117D-01
66  6.5000000000000D-01  6.5538989016714D-01  9.4084572219965D-01
67  6.6000000000000D-01  6.3668274869000D-01  9.6568600542162D-01
68  6.7000000000000D-01  6.2060552634687D-01  9.8616665044212D-01
69  6.8000000000000D-01  6.0718877852052D-01  1.0023278694305D+00
70  6.9000000000000D-01  5.9643418236476D-01  1.0142500376096D+00
71  7.0000000000000D-01  5.8831581196199D-01  1.0220511007651D+00
72  7.1000000000000D-01  5.8278060123103D-01  1.0258848394302D+00
73  7.2000000000000D-01  5.7974947142168D-01  1.0259382434877D+00
74  7.3000000000000D-01  5.7911843234235D-01  1.0224286627441D+00
75  7.4000000000000D-01  5.8076029385847D-01  1.0156001395532D+00
76  7.5000000000000D-01  5.8452665958703D-01  1.0057194094587D+00
77  7.6000000000000D-01  5.9024988325289D-01  9.9307169043989D-01
78  7.7000000000000D-01  5.9774529641176D-01  9.7795605795711D-01
79  7.8000000000000D-01  6.0681358158367D-01  9.6068052422906D-01
80  7.9000000000000D-01  6.1724325411812D-01  9.4155686776024D-01
81  8.0000000000000D-01  6.2881321149699D-01  9.2089524958130D-01
82  8.1000000000000D-01  6.4129544873976D-01  8.9899911599981D-01
83  8.2000000000000D-01  6.5445923638999D-01  8.7616584096263D-01
84  8.3000000000000D-01  6.6807484472041D-01  8.5268998798006D-01
85  8.4000000000000D-01  6.8191523146480D-01  8.2886197540823D-01
86  8.5000000000000D-01  6.9575734308882D-01  8.0496599172414D-01
87  8.6000000000000D-01  7.0938337752057D-01  7.8127809203484D-01
88  8.7000000000000D-01  7.2258222946789D-01  7.5806412685356D-01
89  8.8000000000000D-01  7.3515072780550D-01  7.3557800311992D-01
90  8.9000000000000D-01  7.4689485286451D-01  7.1406002485378D-01
91  9.0000000000000D-01  7.5763090187812D-01  6.9373534448262D-01
92  9.1000000000000D-01  7.6718656537100D-01  6.7481256627687D-01
93  9.2000000000000D-01  7.7540191251647D-01  6.5748249817809D-01
94  9.3000000000000D-01  7.8213027752475D-01  6.4191705759127D-01
95  9.4000000000000D-01  7.8723904057394D-01  6.2826833604729D-01
96  9.5000000000000D-01  7.9061029812027D-01  6.1666782683996D-01
97  9.6000000000000D-01  7.9214141871278D-01  6.0722581869746D-01
98  9.7000000000000D-01  7.9174548175750D-01  6.0003095720233D-01
99  9.8000000000000D-01  7.8935126897751D-01  5.9515038931423D-01
100  9.9000000000000D-01  7.8490410086326D-01  5.9262884440300D-01
101  1.0000000000000D+00  7.7836614059989D-01  5.9248844106691D-01
102  1.0100000000000D+00  7.6971550712037D-01  5.9472999215964D-01
103  1.0200000000000D+00  7.5894648469040D-01  5.9933293489740D-01
104  1.0300000000000D+00  7.4606925975235D-01  6.0625587329866D-01
105  1.0400000000000D+00  7.3110919369577D-01  6.1543767627716D-01
106  1.0500000000000D+00  7.1410714859896D-01  6.2679733570830D-01
107  1.0600000000000D+00  6.9511912965489D-01  6.4023475194060D-01
108  1.0700000000000D+00  6.7421450384392D-01  6.5563310769950D-01
109  1.0800000000000D+00  6.5147572823770D-01  6.7285949089331D-01
110  1.0900000000000D+00  6.2699719309178D-01  6.9176644740327D-01
111  1.1000000000000D+00  6.0088556141614D-01  7.1219214118700D-01
112  1.1100000000000D+00  5.7325784635415D-01  7.3396293791280D-01
113  1.1200000000000D+00  5.4424019665197D-01  7.5689502417512D-01
114  1.1300000000000D+00  5.1396710394462D-01  7.8079550636826D-01
115  1.1400000000000D+00  4.8258075647102D-01  8.0546382433994D-01
116  1.1500000000000D+00  4.5022928590303D-01  8.3069432571843D-01
117  1.1600000000000D+00  4.1706562954548D-01  8.5627742342699D-01
118  1.1700000000000D+00  3.8324717077596D-01  8.8199998866201D-01
119  1.1800000000000D+00  3.4893347137963D-01  9.0764954786398D-01
120  1.1900000000000D+00  3.1428523264323D-01  9.3301501924725D-01
121  1.2000000000000D+00  2.7946412697069D-01  9.5788671883490D-01
122  1.2100000000000D+00  2.4463165057911D-01  9.8205823628385D-01
123  1.2200000000000D+00  2.0994528390641D-01  1.0053323675353D+00
124  1.2300000000000D+00  1.7556058726300D-01  1.0275171092540D+00
125  1.2400000000000D+00  1.4163151802995D-01  1.0484252261514D+00
126  1.2500000000000D+00  1.0830241800387D-01  1.0678866085909D+00
127  1.2600000000000D+00  7.5713682929704D-02  1.0857388389811D+00
128  1.2700000000000D+00  4.4002648324682D-02  1.1018260063658D+00
129  1.2800000000000D+00  1.3292332759258D-02  1.1160154709984D+00
130  1.2900000000000D+00 -1.6299263597618D-02  1.1281833956786D+00
131  1.3000000000000D+00 -4.4659406829133D-02  1.1382153350726D+00
132  1.3100000000000D+00 -7.1692557168422D-02  1.1460233044648D+00
133  1.3200000000000D+00 -9.7308051172743D-02  1.1515275501116D+00
134  1.3300000000000D+00 -1.2142443684584D-01  1.1546629541901D+00
135  1.3400000000000D+00 -1.4397711876783D-01  1.1553893182885D+00
136  1.3500000000000D+00 -1.6490561011734D-01  1.1536733890811D+00
137  1.3600000000000D+00 -1.8416434944302D-01  1.1495038158165D+00
138  1.3700000000000D+00 -2.0172050764053D-01  1.1428874976768D+00
139  1.3800000000000D+00 -2.1754492083640D-01  1.1338376685295D+00
140  1.3900000000000D+00 -2.3162952674161D-01  1.1223964716190D+00
141  1.4000000000000D+00 -2.4397001174438D-01  1.1086119245407D+00
142  1.4100000000000D+00 -2.5457408602586D-01  1.0925487968726D+00
143  1.4200000000000D+00 -2.6346322784338D-01  1.0742897719941D+00
144  1.4300000000000D+00 -2.7066141591625D-01  1.0539221745503D+00
145  1.4400000000000D+00 -2.7621071332300D-01  1.0315555648059D+00
146  1.4500000000000D+00 -2.8015539956176D-01  1.0073031792822D+00
147  1.4600000000000D+00 -2.8255104319302D-01  9.8129212885567D-01
148  1.4700000000000D+00 -2.8346076915682D-01  9.5365792849624D-01
149  1.4800000000000D+00 -2.8295244786669D-01  9.2454299817717D-01
150  1.4900000000000D+00 -2.8110364677629D-01  8.9409823732278D-01
151  1.5000000000000D+00 -2.7799389001970D-01  8.6247895435159D-01
152  1.5100000000000D+00 -2.7371030574776D-01  8.2984503970102D-01
153  1.5200000000000D+00 -2.6834203446635D-01  7.9635971122158D-01
154  1.5300000000000D+00 -2.6198256000579D-01  7.6218791026104D-01
155  1.5400000000000D+00 -2.5472671870364D-01  7.2749419982224D-01
156  1.5500000000000D+00 -2.4667236580704D-01  6.9244533174324D-01
157  1.5600000000000D+00 -2.3791577132964D-01  6.5720076035762D-01
158  1.5700000000000D+00 -2.2855705980588D-01  6.2192561860233D-01
159  1.5800000000000D+00 -2.1869002012028D-01  5.8676853445216D-01
160  1.5900000000000D+00 -2.0841479062763D-01  5.5188939009314D-01
161  1.6000000000000D+00 -1.9781964331519D-01  5.1742191186930D-01
162  1.6100000000000D+00 -1.8700131854194D-01  4.8351499663540D-01
163  1.6200000000000D+00 -1.7604117654197D-01  4.5028632493645D-01
164  1.6300000000000D+00 -1.6502888942750D-01  4.1786794795293D-01
165  1.6400000000000D+00 -1.5403769148205D-01  3.8636026817732D-01
166  1.6500000000000D+00 -1.4314779318398D-01  3.5587519948801D-01
167  1.6600000000000D+00 -1.3242251297493D-01  3.2649342333496D-01
168  1.6700000000000D+00 -1.2193111032020D-01  2.9830501714317D-01
169  1.6800000000000D+00 -1.1172546479556D-01  2.7136899989932D-01
170  1.6900000000000D+00 -1.0186302409603D-01  2.4575291319687D-01
171  1.7000000000000D+00 -9.2383072044823D-02  2.2149283947699D-01
172  1.7100000000000D+00 -8.3330943706801D-02  1.9863394606348D-01
173  1.7200000000000D+00 -7.4732643864562D-02  1.7718894518830D-01
174  1.7300000000000D+00 -6.6621546243603D-02  1.5718145808651D-01
175  1.7400000000000D+00 -5.9010274389894D-02  1.3860140090070D-01
176  1.7500000000000D+00 -5.1920707221984D-02  1.2145211041901D-01
177  1.7600000000000D+00 -4.5352662241663D-02  1.0570243105470D-01
178  1.7700000000000D+00 -3.9317155264120D-02  9.1336866061163D-02
179  1.7800000000000D+00 -3.3802994760205D-02  7.8306790943785D-02
180  1.7900000000000D+00 -2.8809560028438D-02  6.6577377426380D-02
181  1.8000000000000D+00 -2.4318242283933D-02  5.6088572629002D-02
182  1.8100000000000D+00 -2.0316647532128D-02  4.6787059181124D-02
183  1.8200000000000D+00 -1.6781303211095D-02  3.8605489473273D-02
184  1.8300000000000D+00 -1.3689837325030D-02  3.1475976204110D-02
185  1.8400000000000D+00 -1.1015138178028D-02  2.5325890742708D-02
186  1.8500000000000D+00 -8.7278151675462D-03  2.0078555862541D-02
187  1.8600000000000D+00 -6.7978012083013D-03  1.5657108782765D-02
188  1.8700000000000D+00 -5.1923964002404D-03  1.1983048717620D-02
189  1.8800000000000D+00 -3.8787486298320D-03  8.9754689768206D-03
190  1.8900000000000D+00 -2.8249549185893D-03  6.5614799182391D-03
191  1.9000000000000D+00 -1.9954257777630D-03  4.6563762182197D-03
192  1.9100000000000D+00 -1.3617231269086D-03  3.1966483479284D-03
193  1.9200000000000D+00 -8.8944063849944D-04  2.1033462011701D-03
194  1.9300000000000D+00 -5.5221581365529D-04  1.3172786536824D-03
195  1.9400000000000D+00 -3.2166482904602D-04  7.7490622042392D-04
196  1.9500000000000D+00 -1.7219205736820D-04  4.1877224921808D-04
197  1.9600000000000D+00 -8.5663540529643D-05  2.0839404621301D-04
198  1.9700000000000D+00 -3.6287406311502D-05  8.6280420714380D-05
199  1.9800000000000D+00 -1.6805987178690D-05  3.5262806355137D-05
200  1.9900000000000D+00 -8.5497110678881D-06  1.3107744189975D-05
201  2.0000000000000D+00 -7.1931651517943D-06  9.3099259539281D-06
202  2.0100000000000D+00 -6.9970576649911D-06  1.0231704424352D-05
203  2.0200000000000D+00 -3.2156714008276D-06  4.3910590221218D-06
204  2.0300000000000D+00 -1.0140029547938D-07  1.3097115091232D-07
205  2.0400000000000D+00  5.6047784154832D-07 -8.4396219278078D-07
206  2.0500000000000D+00  2.7719386003734D-07 -4.1739587295051D-07
207  2.0600000000000D+00  0.0000000000000D+00  0.0000000000000D+00
208  2.0700000000000D+00  0.0000000000000D+00  0.0000000000000D+00
209  2.0800000000000D+00  0.0000000000000D+00  0.0000000000000D+00
210  2.0900000000000D+00  0.0000000000000D+00  0.0000000000000D+00
211  2.1000000000000D+00  0.0000000000000D+00  0.0000000000000D+00
212  2.1100000000000D+00  0.0000000000000D+00  0.0000000000000D+00
213  2.1200000000000D+00  0.0000000000000D+00  0.0000000000000D+00
214  2.1300000000000D+00  0.0000000000000D+00  0.0000000000000D+00
215  2.1400000000000D+00  0.0000000000000D+00  0.0000000000000D+00
216  2.1500000000000D+00  0.0000000000000D+00  0.0000000000000D+00
217  2.1600000000000D+00  0.0000000000000D+00  0.0000000000000D+00
218  2.1700000000000D+00  0.0000000000000D+00  0.0000000000000D+00
219  2.1800000000000D+00  0.0000000000000D+00  0.0000000000000D+00
220  2.1900000000000D+00  0.0000000000000D+00  0.0000000000000D+00
221  2.2000000000000D+00  0.0000000000000D+00  0.0000000000000D+00
222  2.2100000000000D+00  0.0000000000000D+00  0.0000000000000D+00
223  2.2200000000000D+00  0.0000000000000D+00  0.0000000000000D+00
224  2.2300000000000D+00  0.0000000000000D+00  0.0000000000000D+00
225  2.2400000000000D+00  0.0000000000000D+00  0.0000000000000D+00
226  2.2500000000000D+00  0.0000000000000D+00  0.0000000000000D+00
227  2.2600000000000D+00  0.0000000000000D+00  0.0000000000000D+00
228  2.2700000000000D+00  0.0000000000000D+00  0.0000000000000D+00
229  2.2800000000000D+00  0.0000000000000D+00  0.0000000000000D+00
230  2.2900000000000D+00  0.0000000000000D+00  0.0000000000000D+00
231  2.3000000000000D+00  0.0000000000000D+00  0.0000000000000D+00
232  2.3100000000000D+00  0.0000000000000D+00  0.0000000000000D+00
233  2.3200000000000D+00  0.0000000000000D+00  0.0000000000000D+00
234  2.3300000000000D+00  0.0000000000000D+00  0.0000000000000D+00
235  2.3400000000000D+00  0.0000000000000D+00  0.0000000000000D+00
236  2.3500000000000D+00  0.0000000000000D+00  0.0000000000000D+00
237  2.3600000000000D+00  0.0000000000000D+00  0.0000000000000D+00
238  2.3700000000000D+00  0.0000000000000D+00  0.0000000000000D+00
239  2.3800000000000D+00  0.0000000000000D+00  0.0000000000000D+00
240  2.3900000000000D+00  0.0000000000000D+00  0.0000000000000D+00
241  2.4000000000000D+00  0.0000000000000D+00  0.0000000000000D+00
242  2.4100000000000D+00  0.0000000000000D+00  0.0000000000000D+00
243  2.4200000000000D+00  0.0000000000000D+00  0.0000000000000D+00
244  2.4300000000000D+00  0.0000000000000D+00  0.0000000000000D+00
245  2.4400000000000D+00  0.0000000000000D+00  0.0000000000000D+00
246  2.4500000000000D+00  0.0000000000000D+00  0.0000000000000D+00
247  2.4600000000000D+00  0.0000000000000D+00  0.0000000000000D+00
248  2.4700000000000D+00  0.0000000000000D+00  0.0000000000000D+00
249  2.4800000000000D+00  0.0000000000000D+00  0.0000000000000D+00
250  2.4900000000000D+00  0.0000000000000D+00  0.0000000000000D+00
251  2.5000000000000D+00  0.0000000000000D+00  0.0000000000000D+00
252  2.5100000000000D+00  0.0000000000000D+00  0.0000000000000D+00
253  2.5200000000000D+00  0.0000000000000D+00  0.0000000000000D+00
254  2.5300000000000D+00  0.0000000000000D+00  0.0000000000000D+00
255  2.5400000000000D+00  0.0000000000000D+00  0.0000000000000D+00
256  2.5500000000000D+00  0.0000000000000D+00  0.0000000000000D+00
257  2.5600000000000D+00  0.0000000000000D+00  0.0000000000000D+00
258  2.5700000000000D+00  0.0000000000000D+00  0.0000000000000D+00
259  2.5800000000000D+00  0.0000000000000D+00  0.0000000000000D+00
260  2.5900000000000D+00  0.0000000000000D+00  0.0000000000000D+00
261  2.6000000000000D+00  0.0000000000000D+00  0.0000000000000D+00
262  2.6100000000000D+00  0.0000000000000D+00  0.0000000000000D+00
263  2.6200000000000D+00  0.0000000000000D+00  0.0000000000000D+00
264  2.6300000000000D+00  0.0000000000000D+00  0.0000000000000D+00
265  2.6400000000000D+00  0.0000000000000D+00  0.0000000000000D+00
266  2.6500000000000D+00  0.0000000000000D+00  0.0000000000000D+00
267  2.6600000000000D+00  0.0000000000000D+00  0.0000000000000D+00
268  2.6700000000000D+00  0.0000000000000D+00  0.0000000000000D+00
269  2.6800000000000D+00  0.0000000000000D+00  0.0000000000000D+00
270  2.6900000000000D+00  0.0000000000000D+00  0.0000000000000D+00
271  2.7000000000000D+00  0.0000000000000D+00  0.0000000000000D+00
272  2.7100000000000D+00  0.0000000000000D+00  0.0000000000000D+00
273  2.7200000000000D+00  0.0000000000000D+00  0.0000000000000D+00
274  2.7300000000000D+00  0.0000000000000D+00  0.0000000000000D+00
275  2.7400000000000D+00  0.0000000000000D+00  0.0000000000000D+00
276  2.7500000000000D+00  0.0000000000000D+00  0.0000000000000D+00
277  2.7600000000000D+00  0.0000000000000D+00  0.0000000000000D+00
278  2.7700000000000D+00  0.0000000000000D+00  0.0000000000000D+00
279  2.7800000000000D+00  0.0000000000000D+00  0.0000000000000D+00
280  2.7900000000000D+00  0.0000000000000D+00  0.0000000000000D+00
281  2.8000000000000D+00  0.0000000000000D+00  0.0000000000000D+00
282  2.8100000000000D+00  0.0000000000000D+00  0.0000000000000D+00
283  2.8200000000000D+00  0.0000000000000D+00  0.0000000000000D+00
284  2.8300000000000D+00  0.0000000000000D+00  0.0000000000000D+00
285  2.8400000000000D+00  0.0000000000000D+00  0.0000000000000D+00
286  2.8500000000000D+00  0.0000000000000D+00  0.0000000000000D+00
287  2.8600000000000D+00  0.0000000000000D+00  0.0000000000000D+00
288  2.8700000000000D+00  0.0000000000000D+00  0.0000000000000D+00
289  2.8800000000000D+00  0.0000000000000D+00  0.0000000000000D+00
290  2.8900000000000D+00  0.0000000000000D+00  0.0000000000000D+00
291  2.9000000000000D+00  0.0000000000000D+00  0.0000000000000D+00
292  2.9100000000000D+00  0.0000000000000D+00  0.0000000000000D+00
293  2.9200000000000D+00  0.0000000000000D+00  0.0000000000000D+00
294  2.9300000000000D+00  0.0000000000000D+00  0.0000000000000D+00
295  2.9400000000000D+00  0.0000000000000D+00  0.0000000000000D+00
296  2.9500000000000D+00  0.0000000000000D+00  0.0000000000000D+00
297  2.9600000000000D+00  0.0000000000000D+00  0.0000000000000D+00
298  2.9700000000000D+00  0.0000000000000D+00  0.0000000000000D+00
299  2.9800000000000D+00  0.0000000000000D+00  0.0000000000000D+00
300  2.9900000000000D+00  0.0000000000000D+00  0.0000000000000D+00
301  3.0000000000000D+00  0.0000000000000D+00  0.0000000000000D+00
302  3.0100000000000D+00  0.0000000000000D+00  0.0000000000000D+00
303  3.0200000000000D+00  0.0000000000000D+00  0.0000000000000D+00
304  3.0300000000000D+00  0.0000000000000D+00  0.0000000000000D+00
305  3.0400000000000D+00  0.0000000000000D+00  0.0000000000000D+00
306  3.0500000000000D+00  0.0000000000000D+00  0.0000000000000D+00
307  3.0600000000000D+00  0.0000000000000D+00  0.0000000000000D+00
308  3.0700000000000D+00  0.0000000000000D+00  0.0000000000000D+00
309  3.0800000000000D+00  0.0000000000000D+00  0.0000000000000D+00
310  3.0900000000000D+00  0.0000000000000D+00  0.0000000000000D+00
311  3.1000000000000D+00  0.0000000000000D+00  0.0000000000000D+00
312  3.1100000000000D+00  0.0000000000000D+00  0.0000000000000D+00
313  3.1200000000000D+00  0.0000000000000D+00  0.0000000000000D+00
314  3.1300000000000D+00  0.0000000000000D+00  0.0000000000000D+00
315  3.1400000000000D+00  0.0000000000000D+00  0.0000000000000D+00
316  3.1500000000000D+00  0.0000000000000D+00  0.0000000000000D+00
317  3.1600000000000D+00  0.0000000000000D+00  0.0000000000000D+00
318  3.1700000000000D+00  0.0000000000000D+00  0.0000000000000D+00
319  3.1800000000000D+00  0.0000000000000D+00  0.0000000000000D+00
320  3.1900000000000D+00  0.0000000000000D+00  0.0000000000000D+00
321  3.2000000000000D+00  0.0000000000000D+00  0.0000000000000D+00
322  3.2100000000000D+00  0.0000000000000D+00  0.0000000000000D+00
323  3.2200000000000D+00  0.0000000000000D+00  0.0000000000000D+00
324  3.2300000000000D+00  0.0000000000000D+00  0.0000000000000D+00
325  3.2400000000000D+00  0.0000000000000D+00  0.0000000000000D+00
326  3.2500000000000D+00  0.0000000000000D+00  0.0000000000000D+00
327  3.2600000000000D+00  0.0000000000000D+00  0.0000000000000D+00
328  3.2700000000000D+00  0.0000000000000D+00  0.0000000000000D+00
329  3.2800000000000D+00  0.0000000000000D+00  0.0000000000000D+00
330  3.2900000000000D+00  0.0000000000000D+00  0.0000000000000D+00
331  3.3000000000000D+00  0.0000000000000D+00  0.0000000000000D+00
332  3.3100000000000D+00  0.0000000000000D+00  0.0000000000000D+00
333  3.3200000000000D+00  0.0000000000000D+00  0.0000000000000D+00
334  3.3300000000000D+00  0.0000000000000D+00  0.0000000000000D+00
335  3.3400000000000D+00  0.0000000000000D+00  0.0000000000000D+00
336  3.3500000000000D+00  0.0000000000000D+00  0.0000000000000D+00
337  3.3600000000000D+00  0.0000000000000D+00  0.0000000000000D+00
338  3.3700000000000D+00  0.0000000000000D+00  0.0000000000000D+00
339  3.3800000000000D+00  0.0000000000000D+00  0.0000000000000D+00
340  3.3900000000000D+00  0.0000000000000D+00  0.0000000000000D+00
341  3.4000000000000D+00  0.0000000000000D+00  0.0000000000000D+00
342  3.4100000000000D+00  0.0000000000000D+00  0.0000000000000D+00
343  3.4200000000000D+00  0.0000000000000D+00  0.0000000000000D+00
344  3.4300000000000D+00  0.0000000000000D+00  0.0000000000000D+00
345  3.4400000000000D+00  0.0000000000000D+00  0.0000000000000D+00
346  3.4500000000000D+00  0.0000000000000D+00  0.0000000000000D+00
347  3.4600000000000D+00  0.0000000000000D+00  0.0000000000000D+00
348  3.4700000000000D+00  0.0000000000000D+00  0.0000000000000D+00
349  3.4800000000000D+00  0.0000000000000D+00  0.0000000000000D+00
350  3.4900000000000D+00  0.0000000000000D+00  0.0000000000000D+00
351  3.5000000000000D+00  0.0000000000000D+00  0.0000000000000D+00
352  3.5100000000000D+00  0.0000000000000D+00  0.0000000000000D+00
353  3.5200000000000D+00  0.0000000000000D+00  0.0000000000000D+00
354  3.5300000000000D+00  0.0000000000000D+00  0.0000000000000D+00
355  3.5400000000000D+00  0.0000000000000D+00  0.0000000000000D+00
356  3.5500000000000D+00  0.0000000000000D+00  0.0000000000000D+00
357  3.5600000000000D+00  0.0000000000000D+00  0.0000000000000D+00
358  3.5700000000000D+00  0.0000000000000D+00  0.0000000000000D+00
359  3.5800000000000D+00  0.0000000000000D+00  0.0000000000000D+00
360  3.5900000000000D+00  0.0000000000000D+00  0.0000000000000D+00
361  3.6000000000000D+00  0.0000000000000D+00  0.0000000000000D+00
362  3.6100000000000D+00  0.0000000000000D+00  0.0000000000000D+00
363  3.6200000000000D+00  0.0000000000000D+00  0.0000000000000D+00
364  3.6300000000000D+00  0.0000000000000D+00  0.0000000000000D+00
365  3.6400000000000D+00  0.0000000000000D+00  0.0000000000000D+00
366  3.6500000000000D+00  0.0000000000000D+00  0.0000000000000D+00
367  3.6600000000000D+00  0.0000000000000D+00  0.0000000000000D+00
368  3.6700000000000D+00  0.0000000000000D+00  0.0000000000000D+00
369  3.6800000000000D+00  0.0000000000000D+00  0.0000000000000D+00
370  3.6900000000000D+00  0.0000000000000D+00  0.0000000000000D+00
371  3.7000000000000D+00  0.0000000000000D+00  0.0000000000000D+00
372  3.7100000000000D+00  0.0000000000000D+00  0.0000000000000D+00
373  3.7200000000000D+00  0.0000000000000D+00  0.0000000000000D+00
374  3.7300000000000D+00  0.0000000000000D+00  0.0000000000000D+00
375  3.7400000000000D+00  0.0000000000000D+00  0.0000000000000D+00
376  3.7500000000000D+00  0.0000000000000D+00  0.0000000000000D+00
377  3.7600000000000D+00  0.0000000000000D+00  0.0000000000000D+00
378  3.7700000000000D+00  0.0000000000000D+00  0.0000000000000D+00
379  3.7800000000000D+00  0.0000000000000D+00  0.0000000000000D+00
380  3.7900000000000D+00  0.0000000000000D+00  0.0000000000000D+00
381  3.8000000000000D+00  0.0000000000000D+00  0.0000000000000D+00
382  3.8100000000000D+00  0.0000000000000D+00  0.0000000000000D+00
383  3.8200000000000D+00  0.0000000000000D+00  0.0000000000000D+00
384  3.8300000000000D+00  0.0000000000000D+00  0.0000000000000D+00
385  3.8400000000000D+00  0.0000000000000D+00  0.0000000000000D+00
386  3.8500000000000D+00  0.0000000000000D+00  0.0000000000000D+00
387  3.8600000000000D+00  0.0000000000000D+00  0.0000000000000D+00
388  3.8700000000000D+00  0.0000000000000D+00  0.0000000000000D+00
389  3.8800000000000D+00  0.0000000000000D+00  0.0000000000000D+00
390  3.8900000000000D+00  0.0000000000000D+00  0.0000000000000D+00
391  3.9000000000000D+00  0.0000000000000D+00  0.0000000000000D+00
392  3.9100000000000D+00  0.0000000000000D+00  0.0000000000000D+00
393  3.9200000000000D+00  0.0000000000000D+00  0.0000000000000D+00
394  3.9300000000000D+00  0.0000000000000D+00  0.0000000000000D+00
395  3.9400000000000D+00  0.0000000000000D+00  0.0000000000000D+00
396  3.9500000000000D+00  0.0000000000000D+00  0.0000000000000D+00
397  3.9600000000000D+00  0.0000000000000D+00  0.0000000000000D+00
398  3.9700000000000D+00  0.0000000000000D+00  0.0000000000000D+00
399  3.9800000000000D+00  0.0000000000000D+00  0.0000000000000D+00
400  3.9900000000000D+00  0.0000000000000D+00  0.0000000000000D+00
401  4.0000000000000D+00  0.0000000000000D+00  0.0000000000000D+00
402  4.0100000000000D+00  0.0000000000000D+00  0.0000000000000D+00
403  4.0200000000000D+00  0.0000000000000D+00  0.0000000000000D+00
404  4.0300000000000D+00  0.0000000000000D+00  0.0000000000000D+00
405  4.0400000000000D+00  0.0000000000000D+00  0.0000000000000D+00
406  4.0500000000000D+00  0.0000000000000D+00  0.0000000000000D+00
407  4.0600000000000D+00  0.0000000000000D+00  0.0000000000000D+00
408  4.0700000000000D+00  0.0000000000000D+00  0.0000000000000D+00
409  4.0800000000000D+00  0.0000000000000D+00  0.0000000000000D+00
410  4.0900000000000D+00  0.0000000000000D+00  0.0000000000000D+00
411  4.1000000000000D+00  0.0000000000000D+00  0.0000000000000D+00
412  4.1100000000000D+00  0.0000000000000D+00  0.0000000000000D+00
413  4.1200000000000D+00  0.0000000000000D+00  0.0000000000000D+00
414  4.1300000000000D+00  0.0000000000000D+00  0.0000000000000D+00
415  4.1400000000000D+00  0.0000000000000D+00  0.0000000000000D+00
416  4.1500000000000D+00  0.0000000000000D+00  0.0000000000000D+00
417  4.1600000000000D+00  0.0000000000000D+00  0.0000000000000D+00
418  4.1700000000000D+00  0.0000000000000D+00  0.0000000000000D+00
419  4.1800000000000D+00  0.0000000000000D+00  0.0000000000000D+00
420  4.1900000000000D+00  0.0000000000000D+00  0.0000000000000D+00
421  4.2000000000000D+00  0.0000000000000D+00  0.0000000000000D+00
422  4.2100000000000D+00  0.0000000000000D+00  0.0000000000000D+00
423  4.2200000000000D+00  0.0000000000000D+00  0.0000000000000D+00
424  4.2300000000000D+00  0.0000000000000D+00  0.0000000000000D+00
425  4.2400000000000D+00  0.0000000000000D+00  0.0000000000000D+00
426  4.2500000000000D+00  0.0000000000000D+00  0.0000000000000D+00
427  4.2600000000000D+00  0.0000000000000D+00  0.0000000000000D+00
428  4.2700000000000D+00  0.0000000000000D+00  0.0000000000000D+00
429  4.2800000000000D+00  0.0000000000000D+00  0.0000000000000D+00
430  4.2900000000000D+00  0.0000000000000D+00  0.0000000000000D+00
431  4.3000000000000D+00  0.0000000000000D+00  0.0000000000000D+00
432  4.3100000000000D+00  0.0000000000000D+00  0.0000000000000D+00
433  4.3200000000000D+00  0.0000000000000D+00  0.0000000000000D+00
434  4.3300000000000D+00  0.0000000000000D+00  0.0000000000000D+00
435  4.3400000000000D+00  0.0000000000000D+00  0.0000000000000D+00
436  4.3500000000000D+00  0.0000000000000D+00  0.0000000000000D+00
437  4.3600000000000D+00  0.0000000000000D+00  0.0000000000000D+00
438  4.3700000000000D+00  0.0000000000000D+00  0.0000000000000D+00
439  4.3800000000000D+00  0.0000000000000D+00  0.0000000000000D+00
440  4.3900000000000D+00  0.0000000000000D+00  0.0000000000000D+00
441  4.4000000000000D+00  0.0000000000000D+00  0.0000000000000D+00
442  4.4100000000000D+00  0.0000000000000D+00  0.0000000000000D+00
443  4.4200000000000D+00  0.0000000000000D+00  0.0000000000000D+00
444  4.4300000000000D+00  0.0000000000000D+00  0.0000000000000D+00