Zn    ONCVPSP  r_core=  2.22  2.22  1.92
30.0000     12.0000      161004    zatom,zion,pspd
8 -116133   2     4   600     0    pspcod,pspxc,lmax,lloc,mmax,r2well
5.99000000  5.00000000  0.00000000    rchrg fchrg qchrg
2     2     2     0     0    nproj
1                 extension_switch
0                         4.7742678379912D+00  9.5953375237080D-01
1  0.0000000000000D+00  1.1796119636642D-12 -1.4603921370815D-11
2  1.0000000000000D-02  2.7371038301813D-02 -8.7989232124873D-05
3  2.0000000000000D-02  5.4732052026456D-02 -2.1531640124304D-04
4  3.0000000000000D-02  8.2073000786079D-02 -4.2109124668635D-04
5  4.0000000000000D-02  1.0938381265715D-01 -7.4396807939431D-04
6  5.0000000000000D-02  1.3665436862650D-01 -1.2219204813426D-03
7  6.0000000000000D-02  1.6387448729322D-01 -1.8920188910068D-03
8  7.0000000000000D-02  1.9103390991020D-01 -2.7902120196882D-03
9  8.0000000000000D-02  2.1812228584802D-01 -3.9511130289210D-03
10  9.0000000000000D-02  2.4512915856244D-01 -5.4077913809453D-03
11  1.0000000000000D-01  2.7204395214467D-01 -7.1915712525678D-03
12  1.1000000000000D-01  2.9885595853190D-01 -9.3318373775676D-03
13  1.2000000000000D-01  3.2555432545308D-01 -1.1855849154411D-02
14  1.3000000000000D-01  3.5212804518216D-01 -1.4788563824285D-02
15  1.4000000000000D-01  3.7856594416857D-01 -1.8152469489716D-02
16  1.5000000000000D-01  4.0485667361101D-01 -2.1967428706198D-02
17  1.6000000000000D-01  4.3098870103800D-01 -2.6250533338614D-02
18  1.7000000000000D-01  4.5695030295431D-01 -3.1015971330864D-02
19  1.8000000000000D-01  4.8272955860932D-01 -3.6274905991126D-02
20  1.9000000000000D-01  5.0831434493876D-01 -4.2035368346917D-02
21  2.0000000000000D-01  5.3369233272767D-01 -4.8302163073468D-02
22  2.1000000000000D-01  5.5885098403756D-01 -5.5076788446407D-02
23  2.2000000000000D-01  5.8377755093678D-01 -6.2357370715224D-02
24  2.3000000000000D-01  6.0845907556800D-01 -7.0138613237920D-02
25  2.4000000000000D-01  6.3288239158235D-01 -7.8411760659637D-02
26  2.5000000000000D-01  6.5703412696450D-01 -8.7164578359268D-02
27  2.6000000000000D-01  6.8090070826850D-01 -9.6381347328257D-02
28  2.7000000000000D-01  7.0446836627870D-01 -1.0604287458503D-01
29  2.8000000000000D-01  7.2772314310521D-01 -1.1612651916735D-01
30  2.9000000000000D-01  7.5065090071825D-01 -1.2660623368328D-01
31  3.0000000000000D-01  7.7323733092054D-01 -1.3745262133965D-01
32  3.1000000000000D-01  7.9546796675164D-01 -1.4863300830525D-01
33  3.2000000000000D-01  8.1732819531321D-01 -1.6011153120483D-01
34  3.3000000000000D-01  8.3880327199868D-01 -1.7184923947890D-01
35  3.4000000000000D-01  8.5987833610632D-01 -1.8380421228468D-01
36  3.5000000000000D-01  8.8053842780896D-01 -1.9593168955436D-01
37  3.6000000000000D-01  9.0076850644932D-01 -2.0818421676903D-01
38  3.7000000000000D-01  9.2055347012465D-01 -2.2051180295066D-01
39  3.8000000000000D-01  9.3987817651987D-01 -2.3286209131951D-01
40  3.9000000000000D-01  9.5872746494360D-01 -2.4518054201192D-01
41  4.0000000000000D-01  9.7708617951724D-01 -2.5741062620263D-01
42  4.1000000000000D-01  9.9493919346261D-01 -2.6949403092741D-01
43  4.2000000000000D-01  1.0122714344300D+00 -2.8137087385615D-01
44  4.3000000000000D-01  1.0290679108035D+00 -2.9297992722307D-01
45  4.4000000000000D-01  1.0453137389190D+00 -3.0425885008051D-01
46  4.5000000000000D-01  1.0609941711221D+00 -3.1514442800543D-01
47  4.6000000000000D-01  1.0760946245968D+00 -3.2557281935362D-01
48  4.7000000000000D-01  1.0906007108844D+00 -3.3547980712559D-01
49  4.8000000000000D-01  1.1044982660169D+00 -3.4480105548086D-01
50  4.9000000000000D-01  1.1177733811809D+00 -3.5347236991363D-01
51  5.0000000000000D-01  1.1304124338280D+00 -3.6142996008225D-01
52  5.1000000000000D-01  1.1424021191458D+00 -3.6861070426914D-01
53  5.2000000000000D-01  1.1537294818011D+00 -3.7495241443463D-01
54  5.3000000000000D-01  1.1643819478638D+00 -3.8039410082025D-01
55  5.4000000000000D-01  1.1743473568222D+00 -3.8487623505178D-01
56  5.5000000000000D-01  1.1836139935949D+00 -3.8834101069238D-01
57  5.6000000000000D-01  1.1921706204484D+00 -3.9073260019910D-01
58  5.7000000000000D-01  1.2000065087235D+00 -3.9199740724405D-01
59  5.8000000000000D-01  1.2071114702794D+00 -3.9208431337253D-01
60  5.9000000000000D-01  1.2134758885582D+00 -3.9094491798691D-01
61  6.0000000000000D-01  1.2190907491788D+00 -3.8853377066370D-01
62  6.1000000000000D-01  1.2239476699636D+00 -3.8480859483566D-01
63  6.2000000000000D-01  1.2280389303091D+00 -3.7973050189766D-01
64  6.3000000000000D-01  1.2313574998049D+00 -3.7326419482691D-01
65  6.4000000000000D-01  1.2338970660140D+00 -3.6537816044234D-01
66  6.5000000000000D-01  1.2356520613244D+00 -3.5604484946717D-01
67  6.6000000000000D-01  1.2366176887853D+00 -3.4524084360070D-01
68  6.7000000000000D-01  1.2367899468434D+00 -3.3294700884996D-01
69  6.8000000000000D-01  1.2361656528971D+00 -3.1914863442154D-01
70  6.9000000000000D-01  1.2347424655889D+00 -3.0383555652434D-01
71  7.0000000000000D-01  1.2325189057582D+00 -2.8700226648934D-01
72  7.1000000000000D-01  1.2294943759818D+00 -2.6864800266850D-01
73  7.2000000000000D-01  1.2256691786302D+00 -2.4877682563510D-01
74  7.3000000000000D-01  1.2210445323728D+00 -2.2739767626892D-01
75  7.4000000000000D-01  1.2156225870683D+00 -2.0452441637372D-01
76  7.5000000000000D-01  1.2094064369795D+00 -1.8017585153920D-01
77  7.6000000000000D-01  1.2024001322577D+00 -1.5437573602706D-01
78  7.7000000000000D-01  1.1946086886427D+00 -1.2715275952840D-01
79  7.8000000000000D-01  1.1860380953328D+00 -9.8540515709215D-02
80  7.9000000000000D-01  1.1766953209787D+00 -6.8577452530054D-02
81  8.0000000000000D-01  1.1665883177649D+00 -3.7306804396595D-02
82  8.1000000000000D-01  1.1557260235415D+00 -4.7765062680202D-03
83  8.2000000000000D-01  1.1441183619783D+00  2.8960910079457D-02
84  8.3000000000000D-01  1.1317762407159D+00  6.3848437366456D-02
85  8.4000000000000D-01  1.1187115474918D+00  9.9824731365288D-02
86  8.5000000000000D-01  1.1049371442283D+00  1.3682426629058D-01
87  8.6000000000000D-01  1.0904668590700D+00  1.7477750655349D-01
88  8.7000000000000D-01  1.0753154763660D+00  2.1361109434171D-01
89  8.8000000000000D-01  1.0594987245958D+00  2.5324805242314D-01
90  8.9000000000000D-01  1.0430332622430D+00  2.9360800150958D-01
91  9.0000000000000D-01  1.0259366616270D+00  3.3460739145674D-01
92  9.1000000000000D-01  1.0082273907055D+00  3.7615974551993D-01
93  9.2000000000000D-01  9.8992479286769D-01  4.1817591683031D-01
94  9.3000000000000D-01  9.7104906474273D-01  4.6056435620511D-01
95  9.4000000000000D-01  9.5162123205084D-01  5.0323139035710D-01
96  9.5000000000000D-01  9.3166312353212D-01  5.4608150952386D-01
97  9.6000000000000D-01  9.1119734299055D-01  5.8901766349609D-01
98  9.7000000000000D-01  8.9024723949660D-01  6.3194156498699D-01
99  9.8000000000000D-01  8.6883687579577D-01  6.7475399925157D-01
100  9.9000000000000D-01  8.4699099497520D-01  7.1735513883519D-01
101  1.0000000000000D+00  8.2473498544458D-01  7.5964486230580D-01
102  1.0100000000000D+00  8.0209484429200D-01  8.0152307580407D-01
103  1.0200000000000D+00  7.7909713907944D-01  8.4289003622923D-01
104  1.0300000000000D+00  7.5576896814646D-01  8.8364667486726D-01
105  1.0400000000000D+00  7.3213791949465D-01  9.2369492026140D-01
106  1.0500000000000D+00  7.0823202832898D-01  9.6293801912250D-01
107  1.0600000000000D+00  6.8407973333575D-01  1.0012808540798D+00
108  1.0700000000000D+00  6.5970983178018D-01  1.0386302570801D+00
109  1.0800000000000D+00  6.3515143350994D-01  1.0748953172555D+00
110  1.0900000000000D+00  6.1043391395399D-01  1.1099876820976D+00
111  1.1000000000000D+00  5.8558686620857D-01  1.1438218507956D+00
112  1.1100000000000D+00  5.6064005230553D-01  1.1763154586243D+00
113  1.1200000000000D+00  5.3562335375986D-01  1.2073895512974D+00
114  1.1300000000000D+00  5.1056672149634D-01  1.2369688482394D+00
115  1.1400000000000D+00  4.8550012525654D-01  1.2649819937635D+00
116  1.1500000000000D+00  4.6045350258987D-01  1.2913617951909D+00
117  1.1600000000000D+00  4.3545670753370D-01  1.3160454469936D+00
118  1.1700000000000D+00  4.1053945908921D-01  1.3389747401001D+00
119  1.1800000000000D+00  3.8573128960057D-01  1.3600962555402D+00
120  1.1900000000000D+00  3.6106149314651D-01  1.3793615416860D+00
121  1.2000000000000D+00  3.3655907405379D-01  1.3967272743963D+00
122  1.2100000000000D+00  3.1225269564259D-01  1.4121553994412D+00
123  1.2200000000000D+00  2.8817062931464D-01  1.4256132566350D+00
124  1.2300000000000D+00  2.6434070409458D-01  1.4370736851998D+00
125  1.2400000000000D+00  2.4079025673503D-01  1.4465151099549D+00
126  1.2500000000000D+00  2.1754608249575D-01  1.4539216079513D+00
127  1.2600000000000D+00  1.9463438670670D-01  1.4592829553143D+00
128  1.2700000000000D+00  1.7208073722328D-01  1.4625946541106D+00
129  1.2800000000000D+00  1.4991001788242D-01  1.4638579390843D+00
130  1.2900000000000D+00  1.2814638306593D-01  1.4630797642576D+00
131  1.3000000000000D+00  1.0681321347547D-01  1.4602727694566D+00
132  1.3100000000000D+00  8.5933073224297D-02  1.4554552268221D+00
133  1.3200000000000D+00  6.5527668346230D-02  1.4486509675560D+00
134  1.3300000000000D+00  4.5617806820713D-02  1.4398892891874D+00
135  1.3400000000000D+00  2.6223360213578D-02  1.4292048436413D+00
136  1.3500000000000D+00  7.3632270254505D-03  1.4166375066182D+00
137  1.3600000000000D+00 -1.0944702159532D-02  1.4022322287491D+00
138  1.3700000000000D+00 -2.8683577633722D-02  1.3860388690653D+00
139  1.3800000000000D+00 -4.5837621553330D-02  1.3681120115061D+00
140  1.3900000000000D+00 -6.2392156866269D-02  1.3485107650805D+00
141  1.4000000000000D+00 -7.8333634103638D-02  1.3272985485048D+00
142  1.4100000000000D+00 -9.3649655962530D-02  1.3045428601667D+00
143  1.4200000000000D+00 -1.0832899960169D-01  1.2803150342162D+00
144  1.4300000000000D+00 -1.2236163659259D-01  1.2546899838422D+00
145  1.4400000000000D+00 -1.3573875045500D-01  1.2277459326221D+00
146  1.4500000000000D+00 -1.4845275172221D-01  1.1995641350369D+00
147  1.4600000000000D+00 -1.6049729048561D-01  1.1702285872303D+00
148  1.4700000000000D+00 -1.7186726635899D-01  1.1398257290711D+00
149  1.4800000000000D+00 -1.8255883583485D-01  1.1084441387497D+00
150  1.4900000000000D+00 -1.9256941697489D-01  1.0761742209877D+00
151  1.5000000000000D+00 -2.0189769141715D-01  1.0431078901353D+00
152  1.5100000000000D+00 -2.1054360366113D-01  1.0093382493107D+00
153  1.5200000000000D+00 -2.1850835760858D-01  9.7495926684158D-01
154  1.5300000000000D+00 -2.2579441035072D-01  9.4006545121052D-01
155  1.5400000000000D+00 -2.3240546317048D-01  9.0475152577338D-01
156  1.5500000000000D+00 -2.3834644978188D-01  8.6911210441929D-01
157  1.5600000000000D+00 -2.4362352176836D-01  8.3324136948283D-01
158  1.5700000000000D+00 -2.4824403126513D-01  7.9723275299641D-01
159  1.5800000000000D+00 -2.5221651085629D-01  7.6117862260513D-01
160  1.5900000000000D+00 -2.5555065073757D-01  7.2516997316995D-01
161  1.6000000000000D+00 -2.5825727313763D-01  6.8929612531982D-01
162  1.6100000000000D+00 -2.6034830404726D-01  6.5364443195228D-01
163  1.6200000000000D+00 -2.6183674227482D-01  6.1829999381141D-01
164  1.6300000000000D+00 -2.6273662587466D-01  5.8334538514260D-01
165  1.6400000000000D+00 -2.6306299599199D-01  5.4886039036508D-01
166  1.6500000000000D+00 -2.6283185816932D-01  5.1492175277581D-01
167  1.6600000000000D+00 -2.6206014118087D-01  4.8160293599848D-01
168  1.6700000000000D+00 -2.6076565344063D-01  4.4897389920372D-01
169  1.6800000000000D+00 -2.5896703707042D-01  4.1710088656936D-01
170  1.6900000000000D+00 -2.5668371967693D-01  3.8604623199790D-01
171  1.7000000000000D+00 -2.5393586393984D-01  3.5586817932346D-01
172  1.7100000000000D+00 -2.5074431506719D-01  3.2662071897167D-01
173  1.7200000000000D+00 -2.4713054623065D-01  2.9835344110565D-01
174  1.7300000000000D+00 -2.4311660204817D-01  2.7111140609781D-01
175  1.7400000000000D+00 -2.3872504023204D-01  2.4493503223018D-01
176  1.7500000000000D+00 -2.3397887148510D-01  2.1986000124274D-01
177  1.7600000000000D+00 -2.2890149776283D-01  1.9591718160212D-01
178  1.7700000000000D+00 -2.2351664900365D-01  1.7313256976855D-01
179  1.7800000000000D+00 -2.1784831843944D-01  1.5152724943097D-01
180  1.7900000000000D+00 -2.1192069661106D-01  1.3111736850791D-01
181  1.8000000000000D+00 -2.0575810419156D-01  1.1191413412484D-01
182  1.8100000000000D+00 -1.9938492376511D-01  9.3923824747144D-02
183  1.8200000000000D+00 -1.9282553065354D-01  7.7147820055547D-02
184  1.8300000000000D+00 -1.8610422295960D-01  6.1582647017500D-02
185  1.8400000000000D+00 -1.7924515091064D-01  4.7220043198985D-02
186  1.8500000000000D+00 -1.7227224568467D-01  3.4047035056579D-02
187  1.8600000000000D+00 -1.6520914702593D-01  2.2046030071976D-02
188  1.8700000000000D+00 -1.5807913469464D-01  1.1194935651324D-02
189  1.8800000000000D+00 -1.5090504725810D-01  1.4672538840873D-03
190  1.8900000000000D+00 -1.4370922844794D-01 -7.1677272122646D-03
191  1.9000000000000D+00 -1.3651345042724D-01 -1.4744797757796D-02
192  1.9100000000000D+00 -1.2933880592392D-01 -2.1302779380894D-02
193  1.9200000000000D+00 -1.2220563844691D-01 -2.6884354613609D-02
194  1.9300000000000D+00 -1.1513360804358D-01 -3.1535453817917D-02
195  1.9400000000000D+00 -1.0814169732945D-01 -3.5304813939544D-02
196  1.9500000000000D+00 -1.0124824837897D-01 -3.8243507015977D-02
197  1.9600000000000D+00 -9.4471063264622D-02 -4.0404243544182D-02
198  1.9700000000000D+00 -8.7827360058437D-02 -4.1841144274984D-02
199  1.9800000000000D+00 -8.1333716322648D-02 -4.2609560973715D-02
200  1.9900000000000D+00 -7.5006033619778D-02 -4.2765830300335D-02
201  2.0000000000000D+00 -6.8859528728419D-02 -4.2366933887662D-02
202  2.0100000000000D+00 -6.2908695737194D-02 -4.1470262741388D-02
203  2.0200000000000D+00 -5.7167284097468D-02 -4.0133332660097D-02
204  2.0300000000000D+00 -5.1648272358136D-02 -3.8413519494169D-02
205  2.0400000000000D+00 -4.6363843843809D-02 -3.6367795478918D-02
206  2.0500000000000D+00 -4.1325363321579D-02 -3.4052470593655D-02
207  2.0600000000000D+00 -3.6543354680892D-02 -3.1522939881241D-02
208  2.0700000000000D+00 -3.2027479680761D-02 -2.8833438812010D-02
209  2.0800000000000D+00 -2.7786517749146D-02 -2.6036806001753D-02
210  2.0900000000000D+00 -2.3828346910846D-02 -2.3184256363212D-02
211  2.1000000000000D+00 -2.0159925831910D-02 -2.0325164045494D-02
212  2.1100000000000D+00 -1.6787277014227D-02 -1.7506856469374D-02
213  2.1200000000000D+00 -1.3715471193316D-02 -1.4774421639418D-02
214  2.1300000000000D+00 -1.0948612899393D-02 -1.2170526737867D-02
215  2.1400000000000D+00 -8.4904478100556D-03 -9.7362745727021D-03
216  2.1500000000000D+00 -6.3432095001661D-03 -7.5091709883653D-03
217  2.1600000000000D+00 -4.5047846770323D-03 -5.5183346130304D-03
218  2.1700000000000D+00 -2.9700308488108D-03 -3.7856728302581D-03
219  2.1800000000000D+00 -1.7517443041421D-03 -2.3636487015047D-03
220  2.1900000000000D+00 -8.6031049740958D-04 -1.2997602017946D-03
221  2.2000000000000D+00 -2.9031833390305D-04 -6.1493453167139D-04
222  2.2100000000000D+00  1.1377975324694D-05 -2.3011393585329D-04
223  2.2200000000000D+00  1.0799886787910D-04 -5.2195785235960D-05
224  2.2300000000000D+00  7.9766906679339D-05  4.7388788216217D-06
225  2.2400000000000D+00  1.0330142716614D-05  2.3585143242279D-06
226  2.2500000000000D+00 -2.2672040584790D-05 -6.3492536663082D-06
227  2.2600000000000D+00 -1.8640509833266D-05 -6.3314129487272D-06
228  2.2700000000000D+00  1.0296145097199D-06  1.0506064611666D-07
229  2.2800000000000D+00  4.8408775668829D-06  6.7682673193591D-07
230  2.2900000000000D+00  2.7927783528333D-06  4.7103844216104D-07
231  2.3000000000000D+00 -1.2265751131026D-07  1.8484773367898D-07
232  2.3100000000000D+00 -2.2926405011620D-07  3.4550627699307D-07
233  2.3200000000000D+00 -7.9241881052973D-08  1.1941936509742D-07
234  2.3300000000000D+00  0.0000000000000D+00  0.0000000000000D+00
235  2.3400000000000D+00  0.0000000000000D+00  0.0000000000000D+00
236  2.3500000000000D+00  0.0000000000000D+00  0.0000000000000D+00
237  2.3600000000000D+00  0.0000000000000D+00  0.0000000000000D+00
238  2.3700000000000D+00  0.0000000000000D+00  0.0000000000000D+00
239  2.3800000000000D+00  0.0000000000000D+00  0.0000000000000D+00
240  2.3900000000000D+00  0.0000000000000D+00  0.0000000000000D+00
241  2.4000000000000D+00  0.0000000000000D+00  0.0000000000000D+00
242  2.4100000000000D+00  0.0000000000000D+00  0.0000000000000D+00
243  2.4200000000000D+00  0.0000000000000D+00  0.0000000000000D+00
244  2.4300000000000D+00  0.0000000000000D+00  0.0000000000000D+00
245  2.4400000000000D+00  0.0000000000000D+00  0.0000000000000D+00
246  2.4500000000000D+00  0.0000000000000D+00  0.0000000000000D+00
247  2.4600000000000D+00  0.0000000000000D+00  0.0000000000000D+00
248  2.4700000000000D+00  0.0000000000000D+00  0.0000000000000D+00
249  2.4800000000000D+00  0.0000000000000D+00  0.0000000000000D+00
250  2.4900000000000D+00  0.0000000000000D+00  0.0000000000000D+00
251  2.5000000000000D+00  0.0000000000000D+00  0.0000000000000D+00
252  2.5100000000000D+00  0.0000000000000D+00  0.0000000000000D+00
253  2.5200000000000D+00  0.0000000000000D+00  0.0000000000000D+00
254  2.5300000000000D+00  0.0000000000000D+00  0.0000000000000D+00
255  2.5400000000000D+00  0.0000000000000D+00  0.0000000000000D+00
256  2.5500000000000D+00  0.0000000000000D+00  0.0000000000000D+00
257  2.5600000000000D+00  0.0000000000000D+00  0.0000000000000D+00
258  2.5700000000000D+00  0.0000000000000D+00  0.0000000000000D+00
259  2.5800000000000D+00  0.0000000000000D+00  0.0000000000000D+00
260  2.5900000000000D+00  0.0000000000000D+00  0.0000000000000D+00
261  2.6000000000000D+00  0.0000000000000D+00  0.0000000000000D+00
262  2.6100000000000D+00  0.0000000000000D+00  0.0000000000000D+00
263  2.6200000000000D+00  0.0000000000000D+00  0.0000000000000D+00
264  2.6300000000000D+00  0.0000000000000D+00  0.0000000000000D+00
265  2.6400000000000D+00  0.0000000000000D+00  0.0000000000000D+00
266  2.6500000000000D+00  0.0000000000000D+00  0.0000000000000D+00
267  2.6600000000000D+00  0.0000000000000D+00  0.0000000000000D+00
268  2.6700000000000D+00  0.0000000000000D+00  0.0000000000000D+00
269  2.6800000000000D+00  0.0000000000000D+00  0.0000000000000D+00
270  2.6900000000000D+00  0.0000000000000D+00  0.0000000000000D+00
271  2.7000000000000D+00  0.0000000000000D+00  0.0000000000000D+00
272  2.7100000000000D+00  0.0000000000000D+00  0.0000000000000D+00
273  2.7200000000000D+00  0.0000000000000D+00  0.0000000000000D+00
274  2.7300000000000D+00  0.0000000000000D+00  0.0000000000000D+00
275  2.7400000000000D+00  0.0000000000000D+00  0.0000000000000D+00
276  2.7500000000000D+00  0.0000000000000D+00  0.0000000000000D+00
277  2.7600000000000D+00  0.0000000000000D+00  0.0000000000000D+00
278  2.7700000000000D+00  0.0000000000000D+00  0.0000000000000D+00
279  2.7800000000000D+00  0.0000000000000D+00  0.0000000000000D+00
280  2.7900000000000D+00  0.0000000000000D+00  0.0000000000000D+00
281  2.8000000000000D+00  0.0000000000000D+00  0.0000000000000D+00
282  2.8100000000000D+00  0.0000000000000D+00  0.0000000000000D+00
283  2.8200000000000D+00  0.0000000000000D+00  0.0000000000000D+00
284  2.8300000000000D+00  0.0000000000000D+00  0.0000000000000D+00
285  2.8400000000000D+00  0.0000000000000D+00  0.0000000000000D+00
286  2.8500000000000D+00  0.0000000000000D+00  0.0000000000000D+00
287  2.8600000000000D+00  0.0000000000000D+00  0.0000000000000D+00
288  2.8700000000000D+00  0.0000000000000D+00  0.0000000000000D+00
289  2.8800000000000D+00  0.0000000000000D+00  0.0000000000000D+00
290  2.8900000000000D+00  0.0000000000000D+00  0.0000000000000D+00
291  2.9000000000000D+00  0.0000000000000D+00  0.0000000000000D+00
292  2.9100000000000D+00  0.0000000000000D+00  0.0000000000000D+00
293  2.9200000000000D+00  0.0000000000000D+00  0.0000000000000D+00
294  2.9300000000000D+00  0.0000000000000D+00  0.0000000000000D+00
295  2.9400000000000D+00  0.0000000000000D+00  0.0000000000000D+00
296  2.9500000000000D+00  0.0000000000000D+00  0.0000000000000D+00
297  2.9600000000000D+00  0.0000000000000D+00  0.0000000000000D+00
298  2.9700000000000D+00  0.0000000000000D+00  0.0000000000000D+00
299  2.9800000000000D+00  0.0000000000000D+00  0.0000000000000D+00
300  2.9900000000000D+00  0.0000000000000D+00  0.0000000000000D+00
301  3.0000000000000D+00  0.0000000000000D+00  0.0000000000000D+00
302  3.0100000000000D+00  0.0000000000000D+00  0.0000000000000D+00
303  3.0200000000000D+00  0.0000000000000D+00  0.0000000000000D+00
304  3.0300000000000D+00  0.0000000000000D+00  0.0000000000000D+00
305  3.0400000000000D+00  0.0000000000000D+00  0.0000000000000D+00
306  3.0500000000000D+00  0.0000000000000D+00  0.0000000000000D+00
307  3.0600000000000D+00  0.0000000000000D+00  0.0000000000000D+00
308  3.0700000000000D+00  0.0000000000000D+00  0.0000000000000D+00
309  3.0800000000000D+00  0.0000000000000D+00  0.0000000000000D+00
310  3.0900000000000D+00  0.0000000000000D+00  0.0000000000000D+00
311  3.1000000000000D+00  0.0000000000000D+00  0.0000000000000D+00
312  3.1100000000000D+00  0.0000000000000D+00  0.0000000000000D+00
313  3.1200000000000D+00  0.0000000000000D+00  0.0000000000000D+00
314  3.1300000000000D+00  0.0000000000000D+00  0.0000000000000D+00
315  3.1400000000000D+00  0.0000000000000D+00  0.0000000000000D+00
316  3.1500000000000D+00  0.0000000000000D+00  0.0000000000000D+00
317  3.1600000000000D+00  0.0000000000000D+00  0.0000000000000D+00
318  3.1700000000000D+00  0.0000000000000D+00  0.0000000000000D+00
319  3.1800000000000D+00  0.0000000000000D+00  0.0000000000000D+00
320  3.1900000000000D+00  0.0000000000000D+00  0.0000000000000D+00
321  3.2000000000000D+00  0.0000000000000D+00  0.0000000000000D+00
322  3.2100000000000D+00  0.0000000000000D+00  0.0000000000000D+00
323  3.2200000000000D+00  0.0000000000000D+00  0.0000000000000D+00
324  3.2300000000000D+00  0.0000000000000D+00  0.0000000000000D+00
325  3.2400000000000D+00  0.0000000000000D+00  0.0000000000000D+00
326  3.2500000000000D+00  0.0000000000000D+00  0.0000000000000D+00
327  3.2600000000000D+00  0.0000000000000D+00  0.0000000000000D+00
328  3.2700000000000D+00  0.0000000000000D+00  0.0000000000000D+00
329  3.2800000000000D+00  0.0000000000000D+00  0.0000000000000D+00
330  3.2900000000000D+00  0.0000000000000D+00  0.0000000000000D+00
331  3.3000000000000D+00  0.0000000000000D+00  0.0000000000000D+00
332  3.3100000000000D+00  0.0000000000000D+00  0.0000000000000D+00
333  3.3200000000000D+00  0.0000000000000D+00  0.0000000000000D+00
334  3.3300000000000D+00  0.0000000000000D+00  0.0000000000000D+00
335  3.3400000000000D+00  0.0000000000000D+00  0.0000000000000D+00
336  3.3500000000000D+00  0.0000000000000D+00  0.0000000000000D+00
337  3.3600000000000D+00  0.0000000000000D+00  0.0000000000000D+00
338  3.3700000000000D+00  0.0000000000000D+00  0.0000000000000D+00
339  3.3800000000000D+00  0.0000000000000D+00  0.0000000000000D+00
340  3.3900000000000D+00  0.0000000000000D+00  0.0000000000000D+00
341  3.4000000000000D+00  0.0000000000000D+00  0.0000000000000D+00
342  3.4100000000000D+00  0.0000000000000D+00  0.0000000000000D+00
343  3.4200000000000D+00  0.0000000000000D+00  0.0000000000000D+00
344  3.4300000000000D+00  0.0000000000000D+00  0.0000000000000D+00
345  3.4400000000000D+00  0.0000000000000D+00  0.0000000000000D+00
346  3.4500000000000D+00  0.0000000000000D+00  0.0000000000000D+00
347  3.4600000000000D+00  0.0000000000000D+00  0.0000000000000D+00
348  3.4700000000000D+00  0.0000000000000D+00  0.0000000000000D+00
349  3.4800000000000D+00  0.0000000000000D+00  0.0000000000000D+00
350  3.4900000000000D+00  0.0000000000000D+00  0.0000000000000D+00
351  3.5000000000000D+00  0.0000000000000D+00  0.0000000000000D+00
352  3.5100000000000D+00  0.0000000000000D+00  0.0000000000000D+00
353  3.5200000000000D+00  0.0000000000000D+00  0.0000000000000D+00
354  3.5300000000000D+00  0.0000000000000D+00  0.0000000000000D+00
355  3.5400000000000D+00  0.0000000000000D+00  0.0000000000000D+00
356  3.5500000000000D+00  0.0000000000000D+00  0.0000000000000D+00
357  3.5600000000000D+00  0.0000000000000D+00  0.0000000000000D+00
358  3.5700000000000D+00  0.0000000000000D+00  0.0000000000000D+00
359  3.5800000000000D+00  0.0000000000000D+00  0.0000000000000D+00
360  3.5900000000000D+00  0.0000000000000D+00  0.0000000000000D+00
361  3.6000000000000D+00  0.0000000000000D+00  0.0000000000000D+00
362  3.6100000000000D+00  0.0000000000000D+00  0.0000000000000D+00
363  3.6200000000000D+00  0.0000000000000D+00  0.0000000000000D+00
364  3.6300000000000D+00  0.0000000000000D+00  0.0000000000000D+00
365  3.6400000000000D+00  0.0000000000000D+00  0.0000000000000D+00
366  3.6500000000000D+00  0.0000000000000D+00  0.0000000000000D+00
367  3.6600000000000D+00  0.0000000000000D+00  0.0000000000000D+00
368  3.6700000000000D+00  0.0000000000000D+00  0.0000000000000D+00
369  3.6800000000000D+00  0.0000000000000D+00  0.0000000000000D+00
370  3.6900000000000D+00  0.0000000000000D+00  0.0000000000000D+00
371  3.7000000000000D+00  0.0000000000000D+00  0.0000000000000D+00
372  3.7100000000000D+00  0.0000000000000D+00  0.0000000000000D+00
373  3.7200000000000D+00  0.0000000000000D+00  0.0000000000000D+00
374  3.7300000000000D+00  0.0000000000000D+00  0.0000000000000D+00
375  3.7400000000000D+00  0.0000000000000D+00  0.0000000000000D+00
376  3.7500000000000D+00  0.0000000000000D+00  0.0000000000000D+00
377  3.7600000000000D+00  0.0000000000000D+00  0.0000000000000D+00
378  3.7700000000000D+00  0.0000000000000D+00  0.0000000000000D+00
379  3.7800000000000D+00  0.0000000000000D+00  0.0000000000000D+00
380  3.7900000000000D+00  0.0000000000000D+00  0.0000000000000D+00
381  3.8000000000000D+00  0.0000000000000D+00  0.0000000000000D+00
382  3.8100000000000D+00  0.0000000000000D+00  0.0000000000000D+00
383  3.8200000000000D+00  0.0000000000000D+00  0.0000000000000D+00
384  3.8300000000000D+00  0.0000000000000D+00  0.0000000000000D+00
385  3.8400000000000D+00  0.0000000000000D+00  0.0000000000000D+00
386  3.8500000000000D+00  0.0000000000000D+00  0.0000000000000D+00
387  3.8600000000000D+00  0.0000000000000D+00  0.0000000000000D+00
388  3.8700000000000D+00  0.0000000000000D+00  0.0000000000000D+00
389  3.8800000000000D+00  0.0000000000000D+00  0.0000000000000D+00
390  3.8900000000000D+00  0.0000000000000D+00  0.0000000000000D+00
391  3.9000000000000D+00  0.0000000000000D+00  0.0000000000000D+00
392  3.9100000000000D+00  0.0000000000000D+00  0.0000000000000D+00
393  3.9200000000000D+00  0.0000000000000D+00  0.0000000000000D+00
394  3.9300000000000D+00  0.0000000000000D+00  0.0000000000000D+00
395  3.9400000000000D+00  0.0000000000000D+00  0.0000000000000D+00
396  3.9500000000000D+00  0.0000000000000D+00  0.0000000000000D+00
397  3.9600000000000D+00  0.0000000000000D+00  0.0000000000000D+00
398  3.9700000000000D+00  0.0000000000000D+00  0.0000000000000D+00
399  3.9800000000000D+00  0.0000000000000D+00  0.0000000000000D+00
400  3.9900000000000D+00  0.0000000000000D+00  0.0000000000000D+00
401  4.0000000000000D+00  0.0000000000000D+00  0.0000000000000D+00
402  4.0100000000000D+00  0.0000000000000D+00  0.0000000000000D+00
403  4.0200000000000D+00  0.0000000000000D+00  0.0000000000000D+00
404  4.0300000000000D+00  0.0000000000000D+00  0.0000000000000D+00
405  4.0400000000000D+00  0.0000000000000D+00  0.0000000000000D+00
406  4.0500000000000D+00  0.0000000000000D+00  0.0000000000000D+00
407  4.0600000000000D+00  0.0000000000000D+00  0.0000000000000D+00
408  4.0700000000000D+00  0.0000000000000D+00  0.0000000000000D+00
409  4.0800000000000D+00  0.0000000000000D+00  0.0000000000000D+00
410  4.0900000000000D+00  0.0000000000000D+00  0.0000000000000D+00
411  4.1000000000000D+00  0.0000000000000D+00  0.0000000000000D+00
412  4.1100000000000D+00  0.0000000000000D+00  0.0000000000000D+00
413  4.1200000000000D+00  0.0000000000000D+00  0.0000000000000D+00
414  4.1300000000000D+00  0.0000000000000D+00  0.0000000000000D+00
415  4.1400000000000D+00  0.0000000000000D+00  0.0000000000000D+00
416  4.1500000000000D+00  0.0000000000000D+00  0.0000000000000D+00
417  4.1600000000000D+00  0.0000000000000D+00  0.0000000000000D+00
418  4.1700000000000D+00  0.0000000000000D+00  0.0000000000000D+00
419  4.1800000000000D+00  0.0000000000000D+00  0.0000000000000D+00
420  4.1900000000000D+00  0.0000000000000D+00  0.0000000000000D+00
421  4.2000000000000D+00  0.0000000000000D+00  0.0000000000000D+00
422  4.2100000000000D+00  0.0000000000000D+00  0.0000000000000D+00
423  4.2200000000000D+00  0.0000000000000D+00  0.0000000000000D+00
424  4.2300000000000D+00  0.0000000000000D+00  0.0000000000000D+00
425  4.2400000000000D+00  0.0000000000000D+00  0.0000000000000D+00
426  4.2500000000000D+00  0.0000000000000D+00  0.0000000000000D+00
427  4.2600000000000D+00  0.0000000000000D+00  0.0000000000000D+00
428  4.2700000000000D+00  0.0000000000000D+00  0.0000000000000D+00
429  4.2800000000000D+00  0.0000000000000D+00  0.0000000000000D+00
430  4.2900000000000D+00  0.0000000000000D+00  0.0000000000000D+00
431  4.3000000000000D+00  0.0000000000000D+00  0.0000000000000D+00
432  4.3100000000000D+00  0.0000000000000D+00  0.0000000000000D+00
433  4.3200000000000D+00  0.0000000000000D+00  0.0000000000000D+00
434  4.3300000000000D+00  0.0000000000000D+00  0.0000000000000D+00
435  4.3400000000000D+00  0.0000000000000D+00  0.0000000000000D+00
436  4.3500000000000D+00  0.0000000000000D+00  0.0000000000000D+00
437  4.3600000000000D+00  0.0000000000000D+00  0.0000000000000D+00
438  4.3700000000000D+00  0.0000000000000D+00  0.0000000000000D+00
439  4.3800000000000D+00  0.0000000000000D+00  0.0000000000000D+00
440  4.3900000000000D+00  0.0000000000000D+00  0.0000000000000D+00
441  4.4000000000000D+00  0.0000000000000D+00  0.0000000000000D+00
442  4.4100000000000D+00  0.0000000000000D+00  0.0000000000000D+00
443  4.4200000000000D+00  0.0000000000000D+00  0.0000000000000D+00
444  4.4300000000000D+00  0.0000000000000D+00  0.0000000000000D+00