Ti    ONCVPSP-3.2.3  r_core=   1.35825   1.31050   1.66360
22.0000     12.0000      161006    zatom,zion,pspd
8   -1012   2     4   600     0    pspcod,pspxc,lmax,lloc,mmax,r2well
5.99000000  2.50000000  0.00000000    rchrg fchrg qchrg
2     2     2     0     0    nproj
1     1           extension_switch
0                         1.0460891696421D+01  1.0829493360283D+00
1  0.0000000000000D+00 -2.6770453631642D-09  9.9330186298374D-09
2  1.0000000000000D-02  8.7593983916341D-02 -5.0388414436599D-02
3  2.0000000000000D-02  1.7485811841590D-01 -1.0011823088376D-01
4  3.0000000000000D-02  2.6146553003955D-01 -1.4854046838066D-01
5  4.0000000000000D-02  3.4709525408412D-01 -1.9502522306402D-01
6  5.0000000000000D-02  4.3143508177932D-01 -2.3897081690493D-01
7  6.0000000000000D-02  5.1418428076397D-01 -2.7981248587292D-01
8  7.0000000000000D-02  5.9505614982944D-01 -3.1703046588112D-01
9  8.0000000000000D-02  6.7378037157446D-01 -3.5015734479930D-01
10  9.0000000000000D-02  7.5010512988050D-01 -3.7878456093272D-01
11  1.0000000000000D-01  8.2379896291450D-01 -4.0256794245737D-01
12  1.1000000000000D-01  8.9465232663763D-01 -4.2123219814753D-01
13  1.2000000000000D-01  9.6247884847283D-01 -4.3457428707238D-01
14  1.3000000000000D-01  1.0271162557864D+00 -4.4246561349222D-01
15  1.4000000000000D-01  1.0884269690871D+00 -4.4485301264992D-01
16  1.5000000000000D-01  1.1462983552566D+00 -4.4175851321157D-01
17  1.6000000000000D-01  1.2006426416048D+00 -4.3327788243439D-01
18  1.7000000000000D-01  1.2513964970122D+00 -4.1957798039664D-01
19  1.8000000000000D-01  1.2985202917780D+00 -4.0089296948149D-01
20  1.9000000000000D-01  1.3419970529579D+00 -3.7751944443653D-01
21  2.0000000000000D-01  1.3818311368630D+00 -3.4981056641819D-01
22  2.1000000000000D-01  1.4180466449152D+00 -3.1816930117445D-01
23  2.2000000000000D-01  1.4506856131475D+00 -2.8304087664142D-01
24  2.3000000000000D-01  1.4798060092250D+00 -2.4490458847549D-01
25  2.4000000000000D-01  1.5054795738895D+00 -2.0426509318918D-01
26  2.5000000000000D-01  1.5277895461392D+00 -1.6164333741384D-01
27  2.6000000000000D-01  1.5468283132131D+00 -1.1756727822341D-01
28  2.7000000000000D-01  1.5626950275184D+00 -7.2562553303118D-02
29  2.8000000000000D-01  1.5754932330015D+00 -2.7143260964130D-02
30  2.9000000000000D-01  1.5853285431128D+00  1.8196991443098D-02
31  3.0000000000000D-01  1.5923064114552D+00  6.2993616265495D-02
32  3.1000000000000D-01  1.5965300344450D+00  1.0681900368053D-01
33  3.2000000000000D-01  1.5980984228924D+00  1.4928977066978D-01
34  3.3000000000000D-01  1.5971046763453D+00  1.9007317383309D-01
35  3.4000000000000D-01  1.5936344904040D+00  2.2889257278116D-01
36  3.5000000000000D-01  1.5877649230434D+00  2.6553184654538D-01
37  3.6000000000000D-01  1.5795634413597D+00  2.9983868286336D-01
38  3.7000000000000D-01  1.5690872651455D+00  3.3172667905242D-01
39  3.8000000000000D-01  1.5563830183947D+00  3.6117621317502D-01
40  3.9000000000000D-01  1.5414866943098D+00  3.8823406499871D-01
41  4.0000000000000D-01  1.5244239337406D+00  4.1301178752301D-01
42  4.1000000000000D-01  1.5052106113094D+00  4.3568285123806D-01
43  4.2000000000000D-01  1.4838537178648D+00  4.5647860443814D-01
44  4.3000000000000D-01  1.4603525224596D+00  4.7568311348729D-01
45  4.4000000000000D-01  1.4346999918514D+00  4.9362696657907D-01
46  4.5000000000000D-01  1.4068844406696D+00  5.1068014291506D-01
47  4.6000000000000D-01  1.3768913809643D+00  5.2724406603347D-01
48  4.7000000000000D-01  1.3447055359275D+00  5.4374297496018D-01
49  4.8000000000000D-01  1.3103129792262D+00  5.6061475966744D-01
50  4.9000000000000D-01  1.2737033586686D+00  5.7830141778177D-01
51  5.0000000000000D-01  1.2348721608938D+00  5.9723929739054D-01
52  5.1000000000000D-01  1.1938229724693D+00  6.1784929600522D-01
53  5.2000000000000D-01  1.1505696922265D+00  6.4052718814021D-01
54  5.3000000000000D-01  1.1051386498843D+00  6.6563425349344D-01
55  5.4000000000000D-01  1.0575705869983D+00  6.9348837436430D-01
56  5.5000000000000D-01  1.0079224580313D+00  7.2435576472141D-01
57  5.6000000000000D-01  9.5626901183338D-01  7.5844348435878D-01
58  5.7000000000000D-01  9.0270411703055D-01  7.9589287992240D-01
59  5.8000000000000D-01  8.4734179867825D-01  8.3677408048162D-01
60  5.9000000000000D-01  7.9031695801339D-01  8.8108165891340D-01
61  6.0000000000000D-01  7.3178575213284D-01  9.2873155197770D-01
62  6.1000000000000D-01  6.7192561589882D-01  9.7955931178034D-01
63  6.2000000000000D-01  6.1093491418277D-01  1.0333197398343D+00
64  6.3000000000000D-01  5.4903221869498D-01  1.0896879322027D+00
65  6.4000000000000D-01  4.8645520990362D-01  1.1482617409853D+00
66  6.5000000000000D-01  4.2345921093065D-01  1.2085656336793D+00
67  6.6000000000000D-01  3.6031536664493D-01  1.2700559083473D+00
68  6.7000000000000D-01  2.9730848735485D-01  1.3321271994544D+00
69  6.8000000000000D-01  2.3473458248395D-01  1.3941201868547D+00
70  6.9000000000000D-01  1.7289811522454D-01  1.4553303993564D+00
71  7.0000000000000D-01  1.1210901435494D-01  1.5150179847622D+00
72  7.1000000000000D-01  5.2679484046334D-02  1.5724183007433D+00
73  7.2000000000000D-01 -5.0793434404884D-03  1.6267531654263D+00
74  7.3000000000000D-01 -6.0860863924136D-02  1.6772425937662D+00
75  7.4000000000000D-01 -1.1436651546639D-01  1.7231168355892D+00
76  7.5000000000000D-01 -1.6530929784022D-01  1.7636285239682D+00
77  7.6000000000000D-01 -2.1341724362666D-01  1.7980647384294D+00
78  7.7000000000000D-01 -2.5843678713809D-01  1.8257587864880D+00
79  7.8000000000000D-01 -3.0013597811692D-01  1.8461015092338D+00
80  7.9000000000000D-01 -3.3830748877413D-01  1.8585519221100D+00
81  8.0000000000000D-01 -3.7277136520160D-01  1.8626470105917D+00
82  8.1000000000000D-01 -4.0337747748172D-01  1.8580105120757D+00
83  8.2000000000000D-01 -4.3000762688230D-01  1.8443605297605D+00
84  8.3000000000000D-01 -4.5257727330600D-01  1.8215158414262D+00
85  8.4000000000000D-01 -4.7103685159024D-01  1.7894007855527D+00
86  8.5000000000000D-01 -4.8537265124402D-01  1.7480486288438D+00
87  8.6000000000000D-01 -4.9560724066986D-01  1.6976033426202D+00
88  8.7000000000000D-01 -5.0179942375184D-01  1.6383197403325D+00
89  8.8000000000000D-01 -5.0404372378650D-01  1.5705619542397D+00
90  8.9000000000000D-01 -5.0246939697889D-01  1.4948002556733D+00
91  9.0000000000000D-01 -4.9723898500624D-01  1.4116062498475D+00
92  9.1000000000000D-01 -4.8854642334653D-01  1.3216465024364D+00
93  9.2000000000000D-01 -4.7661472906287D-01  1.2256746806999D+00
94  9.3000000000000D-01 -4.6169329841128D-01  1.1245223163614D+00
95  9.4000000000000D-01 -4.4405485088736D-01  1.0190883203310D+00
96  9.5000000000000D-01 -4.2399206204295D-01  9.1032740032425D-01
97  9.6000000000000D-01 -4.0181393248590D-01  7.9923755109257D-01
98  9.7000000000000D-01 -3.7784194486685D-01  6.8684680313326D-01
99  9.8000000000000D-01 -3.5240606416772D-01  5.7419942869036D-01
100  9.9000000000000D-01 -3.2584063940724D-01  4.6234181421935D-01
101  1.0000000000000D+00 -2.9848026663403D-01  3.5230821503031D-01
102  1.0100000000000D+00 -2.7065567395383D-01  2.4510661115416D-01
103  1.0200000000000D+00 -2.4268968924296D-01  1.4170488325864D-01
104  1.0300000000000D+00 -2.1489335015284D-01  4.3017523737394D-02
105  1.0400000000000D+00 -1.8756221382318D-01 -5.0106909777856D-02
106  1.0500000000000D+00 -1.6097292114098D-01 -1.3689740056244D-01
107  1.0600000000000D+00 -1.3538006608813D-01 -2.1667095626237D-01
108  1.0700000000000D+00 -1.1101341632671D-01 -2.8884180331513D-01
109  1.0800000000000D+00 -8.8075525712447D-02 -3.5292914583332D-01
110  1.0900000000000D+00 -6.6739772793096D-02 -4.0856336663067D-01
111  1.1000000000000D+00 -4.7148853937115D-02 -4.5549056779787D-01
112  1.1100000000000D+00 -2.9413750949510D-02 -4.9357538029732D-01
113  1.1200000000000D+00 -1.3613186659523D-02 -5.2280199530697D-01
114  1.1300000000000D+00  2.0642674838216D-04 -5.4327340185534D-01
115  1.1400000000000D+00  1.2030548518396D-02 -5.5520883950119D-01
116  1.1500000000000D+00  2.1875590166376D-02 -5.5893950800073D-01
117  1.1600000000000D+00  2.9787534640432D-02 -5.5490260262798D-01
118  1.1700000000000D+00  3.5840120079847D-02 -5.4363377312215D-01
119  1.1800000000000D+00  4.0132619718197D-02 -5.2575812347249D-01
120  1.1900000000000D+00  4.2787258589997D-02 -5.0197990304572D-01
121  1.2000000000000D+00  4.3946312347771D-02 -4.7307105653240D-01
122  1.2100000000000D+00  4.3768938745792D-02 -4.3985881934910D-01
123  1.2200000000000D+00  4.2427796687333D-02 -4.0321256098338D-01
124  1.2300000000000D+00  4.0105512625217D-02 -3.6403009659977D-01
125  1.2400000000000D+00  3.6991055217345D-02 -3.2322369122652D-01
126  1.2500000000000D+00  3.3276081401302D-02 -2.8170598910909D-01
127  1.2600000000000D+00  2.9151318678640D-02 -2.4037610662600D-01
128  1.2700000000000D+00  2.4803048508974D-02 -2.0010612899270D-01
129  1.2800000000000D+00  2.0409737197920D-02 -1.6172817193661D-01
130  1.2900000000000D+00  1.6138937543176D-02 -1.2602249501213D-01
131  1.3000000000000D+00  1.2144256640741D-02 -9.3705782989423D-02
132  1.3100000000000D+00  8.5633578058807D-03 -6.5423619226552D-02
133  1.3200000000000D+00  5.5170872063234D-03 -4.1754465406089D-02
134  1.3300000000000D+00  3.0850305125605D-03 -2.3047209353803D-02
135  1.3400000000000D+00  1.3628447260176D-03 -9.8379983225352D-03
136  1.3500000000000D+00  4.3926397420175D-04 -2.6753367132949D-03
137  1.3600000000000D+00  9.5232037371144D-05 -1.3313522644656D-04
138  1.3700000000000D+00  5.8841371138118D-06  1.2800653436030D-04
139  1.3800000000000D+00  5.9365861098950D-07 -7.1636696926971D-05
140  1.3900000000000D+00  4.0761916372900D-07 -1.3998359984954D-05
141  1.4000000000000D+00  3.7524604214223D-07  1.2363833445866D-05
142  1.4100000000000D+00 -1.7333816133046D-07  4.6976368658341D-07
143  1.4200000000000D+00 -2.6958416453970D-07  7.3059994410145D-07
144  1.4300000000000D+00  0.0000000000000D+00  0.0000000000000D+00
145  1.4400000000000D+00  0.0000000000000D+00  0.0000000000000D+00
146  1.4500000000000D+00  0.0000000000000D+00  0.0000000000000D+00
147  1.4600000000000D+00  0.0000000000000D+00  0.0000000000000D+00
148  1.4700000000000D+00  0.0000000000000D+00  0.0000000000000D+00
149  1.4800000000000D+00  0.0000000000000D+00  0.0000000000000D+00
150  1.4900000000000D+00  0.0000000000000D+00  0.0000000000000D+00
151  1.5000000000000D+00  0.0000000000000D+00  0.0000000000000D+00
152  1.5100000000000D+00  0.0000000000000D+00  0.0000000000000D+00
153  1.5200000000000D+00  0.0000000000000D+00  0.0000000000000D+00
154  1.5300000000000D+00  0.0000000000000D+00  0.0000000000000D+00
155  1.5400000000000D+00  0.0000000000000D+00  0.0000000000000D+00
156  1.5500000000000D+00  0.0000000000000D+00  0.0000000000000D+00
157  1.5600000000000D+00  0.0000000000000D+00  0.0000000000000D+00
158  1.5700000000000D+00  0.0000000000000D+00  0.0000000000000D+00
159  1.5800000000000D+00  0.0000000000000D+00  0.0000000000000D+00
160  1.5900000000000D+00  0.0000000000000D+00  0.0000000000000D+00
161  1.6000000000000D+00  0.0000000000000D+00  0.0000000000000D+00
162  1.6100000000000D+00  0.0000000000000D+00  0.0000000000000D+00
163  1.6200000000000D+00  0.0000000000000D+00  0.0000000000000D+00
164  1.6300000000000D+00  0.0000000000000D+00  0.0000000000000D+00
165  1.6400000000000D+00  0.0000000000000D+00  0.0000000000000D+00
166  1.6500000000000D+00  0.0000000000000D+00  0.0000000000000D+00
167  1.6600000000000D+00  0.0000000000000D+00  0.0000000000000D+00
168  1.6700000000000D+00  0.0000000000000D+00  0.0000000000000D+00
169  1.6800000000000D+00  0.0000000000000D+00  0.0000000000000D+00
170  1.6900000000000D+00  0.0000000000000D+00  0.0000000000000D+00
171  1.7000000000000D+00  0.0000000000000D+00  0.0000000000000D+00
172  1.7100000000000D+00  0.0000000000000D+00  0.0000000000000D+00
173  1.7200000000000D+00  0.0000000000000D+00  0.0000000000000D+00
174  1.7300000000000D+00  0.0000000000000D+00  0.0000000000000D+00
175  1.7400000000000D+00  0.0000000000000D+00  0.0000000000000D+00
176  1.7500000000000D+00  0.0000000000000D+00  0.0000000000000D+00
177  1.7600000000000D+00  0.0000000000000D+00  0.0000000000000D+00
178  1.7700000000000D+00  0.0000000000000D+00  0.0000000000000D+00
179  1.7800000000000D+00  0.0000000000000D+00  0.0000000000000D+00
180  1.7900000000000D+00  0.0000000000000D+00  0.0000000000000D+00
181  1.8000000000000D+00  0.0000000000000D+00  0.0000000000000D+00
182  1.8100000000000D+00  0.0000000000000D+00  0.0000000000000D+00
183  1.8200000000000D+00  0.0000000000000D+00  0.0000000000000D+00
184  1.8300000000000D+00  0.0000000000000D+00  0.0000000000000D+00
185  1.8400000000000D+00  0.0000000000000D+00  0.0000000000000D+00
186  1.8500000000000D+00  0.0000000000000D+00  0.0000000000000D+00
187  1.8600000000000D+00  0.0000000000000D+00  0.0000000000000D+00
188  1.8700000000000D+00  0.0000000000000D+00  0.0000000000000D+00
189  1.8800000000000D+00  0.0000000000000D+00  0.0000000000000D+00
190  1.8900000000000D+00  0.0000000000000D+00  0.0000000000000D+00
191  1.9000000000000D+00  0.0000000000000D+00  0.0000000000000D+00
192  1.9100000000000D+00  0.0000000000000D+00  0.0000000000000D+00
193  1.9200000000000D+00  0.0000000000000D+00  0.0000000000000D+00
194  1.9300000000000D+00  0.0000000000000D+00  0.0000000000000D+00
195  1.9400000000000D+00  0.0000000000000D+00  0.0000000000000D+00
196  1.9500000000000D+00  0.0000000000000D+00  0.0000000000000D+00
197  1.9600000000000D+00  0.0000000000000D+00  0.0000000000000D+00
198  1.9700000000000D+00  0.0000000000000D+00  0.0000000000000D+00
199  1.9800000000000D+00  0.0000000000000D+00  0.0000000000000D+00
200  1.9900000000000D+00  0.0000000000000D+00  0.0000000000000D+00
201  2.0000000000000D+00  0.0000000000000D+00  0.0000000000000D+00
202  2.0100000000000D+00  0.0000000000000D+00  0.0000000000000D+00
203  2.0200000000000D+00  0.0000000000000D+00  0.0000000000000D+00
204  2.0300000000000D+00  0.0000000000000D+00  0.0000000000000D+00
205  2.0400000000000D+00  0.0000000000000D+00  0.0000000000000D+00
206  2.0500000000000D+00  0.0000000000000D+00  0.0000000000000D+00
207  2.0600000000000D+00  0.0000000000000D+00  0.0000000000000D+00
208  2.0700000000000D+00  0.0000000000000D+00  0.0000000000000D+00
209  2.0800000000000D+00  0.0000000000000D+00  0.0000000000000D+00
210  2.0900000000000D+00  0.0000000000000D+00  0.0000000000000D+00
211  2.1000000000000D+00  0.0000000000000D+00  0.0000000000000D+00
212  2.1100000000000D+00  0.0000000000000D+00  0.0000000000000D+00
213  2.1200000000000D+00  0.0000000000000D+00  0.0000000000000D+00
214  2.1300000000000D+00  0.0000000000000D+00  0.0000000000000D+00
215  2.1400000000000D+00  0.0000000000000D+00  0.0000000000000D+00
216  2.1500000000000D+00  0.0000000000000D+00  0.0000000000000D+00
217  2.1600000000000D+00  0.0000000000000D+00  0.0000000000000D+00
218  2.1700000000000D+00  0.0000000000000D+00  0.0000000000000D+00
219  2.1800000000000D+00  0.0000000000000D+00  0.0000000000000D+00
220  2.1900000000000D+00  0.0000000000000D+00  0.0000000000000D+00
221  2.2000000000000D+00  0.0000000000000D+00  0.0000000000000D+00
222  2.2100000000000D+00  0.0000000000000D+00  0.0000000000000D+00
223  2.2200000000000D+00  0.0000000000000D+00  0.0000000000000D+00
224  2.2300000000000D+00  0.0000000000000D+00  0.0000000000000D+00
225  2.2400000000000D+00  0.0000000000000D+00  0.0000000000000D+00
226  2.2500000000000D+00  0.0000000000000D+00  0.0000000000000D+00
227  2.2600000000000D+00  0.0000000000000D+00  0.0000000000000D+00
228  2.2700000000000D+00  0.0000000000000D+00  0.0000000000000D+00
229  2.2800000000000D+00  0.0000000000000D+00  0.0000000000000D+00
230  2.2900000000000D+00  0.0000000000000D+00  0.0000000000000D+00
231  2.3000000000000D+00  0.0000000000000D+00  0.0000000000000D+00
232  2.3100000000000D+00  0.0000000000000D+00  0.0000000000000D+00
233  2.3200000000000D+00  0.0000000000000D+00  0.0000000000000D+00
234  2.3300000000000D+00  0.0000000000000D+00  0.0000000000000D+00
235  2.3400000000000D+00  0.0000000000000D+00  0.0000000000000D+00
236  2.3500000000000D+00  0.0000000000000D+00  0.0000000000000D+00
237  2.3600000000000D+00  0.0000000000000D+00  0.0000000000000D+00
238  2.3700000000000D+00  0.0000000000000D+00  0.0000000000000D+00
239  2.3800000000000D+00  0.0000000000000D+00  0.0000000000000D+00
240  2.3900000000000D+00  0.0000000000000D+00  0.0000000000000D+00
241  2.4000000000000D+00  0.0000000000000D+00  0.0000000000000D+00
242  2.4100000000000D+00  0.0000000000000D+00  0.0000000000000D+00
243  2.4200000000000D+00  0.0000000000000D+00  0.0000000000000D+00
244  2.4300000000000D+00  0.0000000000000D+00  0.0000000000000D+00
245  2.4400000000000D+00  0.0000000000000D+00  0.0000000000000D+00
246  2.4500000000000D+00  0.0000000000000D+00  0.0000000000000D+00
247  2.4600000000000D+00  0.0000000000000D+00  0.0000000000000D+00
248  2.4700000000000D+00  0.0000000000000D+00  0.0000000000000D+00
249  2.4800000000000D+00  0.0000000000000D+00  0.0000000000000D+00
250  2.4900000000000D+00  0.0000000000000D+00  0.0000000000000D+00
251  2.5000000000000D+00  0.0000000000000D+00  0.0000000000000D+00
252  2.5100000000000D+00  0.0000000000000D+00  0.0000000000000D+00
253  2.5200000000000D+00  0.0000000000000D+00  0.0000000000000D+00
254  2.5300000000000D+00  0.0000000000000D+00  0.0000000000000D+00
255  2.5400000000000D+00  0.0000000000000D+00  0.0000000000000D+00
256  2.5500000000000D+00  0.0000000000000D+00  0.0000000000000D+00
257  2.5600000000000D+00  0.0000000000000D+00  0.0000000000000D+00
258  2.5700000000000D+00  0.0000000000000D+00  0.0000000000000D+00
259  2.5800000000000D+00  0.0000000000000D+00  0.0000000000000D+00
260  2.5900000000000D+00  0.0000000000000D+00  0.0000000000000D+00
261  2.6000000000000D+00  0.0000000000000D+00  0.0000000000000D+00
262  2.6100000000000D+00  0.0000000000000D+00  0.0000000000000D+00
263  2.6200000000000D+00  0.0000000000000D+00  0.0000000000000D+00
264  2.6300000000000D+00  0.0000000000000D+00  0.0000000000000D+00
265  2.6400000000000D+00  0.0000000000000D+00  0.0000000000000D+00
266  2.6500000000000D+00  0.0000000000000D+00  0.0000000000000D+00
267  2.6600000000000D+00  0.0000000000000D+00  0.0000000000000D+00
268  2.6700000000000D+00  0.0000000000000D+00  0.0000000000000D+00
269  2.6800000000000D+00  0.0000000000000D+00  0.0000000000000D+00
270  2.6900000000000D+00  0.0000000000000D+00  0.0000000000000D+00
271  2.7000000000000D+00  0.0000000000000D+00  0.0000000000000D+00
272  2.7100000000000D+00  0.0000000000000D+00  0.0000000000000D+00
273  2.7200000000000D+00  0.0000000000000D+00  0.0000000000000D+00
274  2.7300000000000D+00  0.0000000000000D+00  0.0000000000000D+00
275  2.7400000000000D+00  0.0000000000000D+00  0.0000000000000D+00
276  2.7500000000000D+00  0.0000000000000D+00  0.0000000000000D+00
277  2.7600000000000D+00  0.0000000000000D+00  0.0000000000000D+00
278  2.7700000000000D+00  0.0000000000000D+00  0.0000000000000D+00
279  2.7800000000000D+00  0.0000000000000D+00  0.0000000000000D+00
280  2.7900000000000D+00  0.0000000000000D+00  0.0000000000000D+00
281  2.8000000000000D+00  0.0000000000000D+00  0.0000000000000D+00
282  2.8100000000000D+00  0.0000000000000D+00  0.0000000000000D+00
283  2.8200000000000D+00  0.0000000000000D+00  0.0000000000000D+00
284  2.8300000000000D+00  0.0000000000000D+00  0.0000000000000D+00
285  2.8400000000000D+00  0.0000000000000D+00  0.0000000000000D+00
286  2.8500000000000D+00  0.0000000000000D+00  0.0000000000000D+00
287  2.8600000000000D+00  0.0000000000000D+00  0.0000000000000D+00
288  2.8700000000000D+00  0.0000000000000D+00  0.0000000000000D+00
289  2.8800000000000D+00  0.0000000000000D+00  0.0000000000000D+00
290  2.8900000000000D+00  0.0000000000000D+00  0.0000000000000D+00
291  2.9000000000000D+00  0.0000000000000D+00  0.0000000000000D+00
292  2.9100000000000D+00  0.0000000000000D+00  0.0000000000000D+00
293  2.9200000000000D+00  0.0000000000000D+00  0.0000000000000D+00
294  2.9300000000000D+00  0.0000000000000D+00  0.0000000000000D+00
295  2.9400000000000D+00  0.0000000000000D+00  0.0000000000000D+00
296  2.9500000000000D+00  0.0000000000000D+00  0.0000000000000D+00
297  2.9600000000000D+00  0.0000000000000D+00  0.0000000000000D+00
298  2.9700000000000D+00  0.0000000000000D+00  0.0000000000000D+00
299  2.9800000000000D+00  0.0000000000000D+00  0.0000000000000D+00
300  2.9900000000000D+00  0.0000000000000D+00  0.0000000000000D+00
301  3.0000000000000D+00  0.0000000000000D+00  0.0000000000000D+00
302  3.0100000000000D+00  0.0000000000000D+00  0.0000000000000D+00
303  3.0200000000000D+00  0.0000000000000D+00  0.0000000000000D+00
304  3.0300000000000D+00  0.0000000000000D+00  0.0000000000000D+00
305  3.0400000000000D+00  0.0000000000000D+00  0.0000000000000D+00
306  3.0500000000000D+00  0.0000000000000D+00  0.0000000000000D+00
307  3.0600000000000D+00  0.0000000000000D+00  0.0000000000000D+00
308  3.0700000000000D+00  0.0000000000000D+00  0.0000000000000D+00
309  3.0800000000000D+00  0.0000000000000D+00  0.0000000000000D+00
310  3.0900000000000D+00  0.0000000000000D+00  0.0000000000000D+00
311  3.1000000000000D+00  0.0000000000000D+00  0.0000000000000D+00
312  3.1100000000000D+00  0.0000000000000D+00  0.0000000000000D+00
313  3.1200000000000D+00  0.0000000000000D+00  0.0000000000000D+00
314  3.1300000000000D+00  0.0000000000000D+00  0.0000000000000D+00
315  3.1400000000000D+00  0.0000000000000D+00  0.0000000000000D+00
316  3.1500000000000D+00  0.0000000000000D+00  0.0000000000000D+00
317  3.1600000000000D+00  0.0000000000000D+00  0.0000000000000D+00
318  3.1700000000000D+00  0.0000000000000D+00  0.0000000000000D+00
319  3.1800000000000D+00  0.0000000000000D+00  0.0000000000000D+00
320  3.1900000000000D+00  0.0000000000000D+00  0.0000000000000D+00
321  3.2000000000000D+00  0.0000000000000D+00  0.0000000000000D+00
322  3.2100000000000D+00  0.0000000000000D+00  0.0000000000000D+00
323  3.2200000000000D+00  0.0000000000000D+00  0.0000000000000D+00
324  3.2300000000000D+00  0.0000000000000D+00  0.0000000000000D+00
325  3.2400000000000D+00  0.0000000000000D+00  0.0000000000000D+00
326  3.2500000000000D+00  0.0000000000000D+00  0.0000000000000D+00
327  3.2600000000000D+00  0.0000000000000D+00  0.0000000000000D+00
328  3.2700000000000D+00  0.0000000000000D+00  0.0000000000000D+00
329  3.2800000000000D+00  0.0000000000000D+00  0.0000000000000D+00
330  3.2900000000000D+00  0.0000000000000D+00  0.0000000000000D+00
331  3.3000000000000D+00  0.0000000000000D+00  0.0000000000000D+00
332  3.3100000000000D+00  0.0000000000000D+00  0.0000000000000D+00
333  3.3200000000000D+00  0.0000000000000D+00  0.0000000000000D+00
334  3.3300000000000D+00  0.0000000000000D+00  0.0000000000000D+00
335  3.3400000000000D+00  0.0000000000000D+00  0.0000000000000D+00
336  3.3500000000000D+00  0.0000000000000D+00  0.0000000000000D+00
337  3.3600000000000D+00  0.0000000000000D+00  0.0000000000000D+00
338  3.3700000000000D+00  0.0000000000000D+00  0.0000000000000D+00
339  3.3800000000000D+00  0.0000000000000D+00  0.0000000000000D+00
340  3.3900000000000D+00  0.0000000000000D+00  0.0000000000000D+00
341  3.4000000000000D+00  0.0000000000000D+00  0.0000000000000D+00
342  3.4100000000000D+00  0.0000000000000D+00  0.0000000000000D+00
343  3.4200000000000D+00  0.0000000000000D+00  0.0000000000000D+00
344  3.4300000000000D+00  0.0000000000000D+00  0.0000000000000D+00
345  3.4400000000000D+00  0.0000000000000D+00  0.0000000000000D+00
346  3.4500000000000D+00  0.0000000000000D+00  0.0000000000000D+00
347  3.4600000000000D+00  0.0000000000000D+00  0.0000000000000D+00
348  3.4700000000000D+00  0.0000000000000D+00  0.0000000000000D+00
349  3.4800000000000D+00  0.0000000000000D+00  0.0000000000000D+00
350  3.4900000000000D+00  0.0000000000000D+00  0.0000000000000D+00
351  3.5000000000000D+00  0.0000000000000D+00  0.0000000000000D+00
352  3.5100000000000D+00  0.0000000000000D+00  0.0000000000000D+00
353  3.5200000000000D+00  0.0000000000000D+00  0.0000000000000D+00
354  3.5300000000000D+00  0.0000000000000D+00  0.0000000000000D+00
355  3.5400000000000D+00  0.0000000000000D+00  0.0000000000000D+00
356  3.5500000000000D+00  0.0000000000000D+00  0.0000000000000D+00
357  3.5600000000000D+00  0.0000000000000D+00  0.0000000000000D+00
358  3.5700000000000D+00  0.0000000000000D+00  0.0000000000000D+00
359  3.5800000000000D+00  0.0000000000000D+00  0.0000000000000D+00
360  3.5900000000000D+00  0.0000000000000D+00  0.0000000000000D+00
361  3.6000000000000D+00  0.0000000000000D+00  0.0000000000000D+00
362  3.6100000000000D+00  0.0000000000000D+00  0.0000000000000D+00
363  3.6200000000000D+00  0.0000000000000D+00  0.0000000000000D+00
364  3.6300000000000D+00  0.0000000000000D+00  0.0000000000000D+00
365  3.6400000000000D+00  0.0000000000000D+00  0.0000000000000D+00
366  3.6500000000000D+00  0.0000000000000D+00  0.0000000000000D+00
367  3.6600000000000D+00  0.0000000000000D+00  0.0000000000000D+00
368  3.6700000000000D+00  0.0000000000000D+00  0.0000000000000D+00
369  3.6800000000000D+00  0.0000000000000D+00  0.0000000000000D+00
370  3.6900000000000D+00  0.0000000000000D+00  0.0000000000000D+00
371  3.7000000000000D+00  0.0000000000000D+00  0.0000000000000D+00
372  3.7100000000000D+00  0.0000000000000D+00  0.0000000000000D+00
373  3.7200000000000D+00  0.0000000000000D+00  0.0000000000000D+00
374  3.7300000000000D+00  0.0000000000000D+00  0.0000000000000D+00
375  3.7400000000000D+00  0.0000000000000D+00  0.0000000000000D+00
376  3.7500000000000D+00  0.0000000000000D+00  0.0000000000000D+00
377  3.7600000000000D+00  0.0000000000000D+00  0.0000000000000D+00
378  3.7700000000000D+00  0.0000000000000D+00  0.0000000000000D+00
379  3.7800000000000D+00  0.0000000000000D+00  0.0000000000000D+00
380  3.7900000000000D+00  0.0000000000000D+00  0.0000000000000D+00
381  3.8000000000000D+00  0.0000000000000D+00  0.0000000000000D+00
382  3.8100000000000D+00  0.0000000000000D+00  0.0000000000000D+00
383  3.8200000000000D+00  0.0000000000000D+00  0.0000000000000D+00
384  3.8300000000000D+00  0.0000000000000D+00  0.0000000000000D+00
385  3.8400000000000D+00  0.0000000000000D+00  0.0000000000000D+00
386  3.8500000000000D+00  0.0000000000000D+00  0.0000000000000D+00
387  3.8600000000000D+00  0.0000000000000D+00  0.0000000000000D+00
388  3.8700000000000D+00  0.0000000000000D+00  0.0000000000000D+00
389  3.8800000000000D+00  0.0000000000000D+00  0.0000000000000D+00
390  3.8900000000000D+00  0.0000000000000D+00  0.0000000000000D+00
391  3.9000000000000D+00  0.0000000000000D+00  0.0000000000000D+00
392  3.9100000000000D+00  0.0000000000000D+00  0.0000000000000D+00
393  3.9200000000000D+00  0.0000000000000D+00  0.0000000000000D+00
394  3.9300000000000D+00  0.0000000000000D+00  0.0000000000000D+00
395  3.9400000000000D+00  0.0000000000000D+00  0.0000000000000D+00
396  3.9500000000000D+00  0.0000000000000D+00  0.0000000000000D+00
397  3.9600000000000D+00  0.0000000000000D+00  0.0000000000000D+00
398  3.9700000000000D+00  0.0000000000000D+00  0.0000000000000D+00
399  3.9800000000000D+00  0.0000000000000D+00  0.0000000000000D+00
400  3.9900000000000D+00  0.0000000000000D+00  0.0000000000000D+00
401  4.0000000000000D+00  0.0000000000000D+00  0.0000000000000D+00
402  4.0100000000000D+00  0.0000000000000D+00  0.0000000000000D+00
403  4.0200000000000D+00  0.0000000000000D+00  0.0000000000000D+00
404  4.0300000000000D+00  0.0000000000000D+00  0.0000000000000D+00
405  4.0400000000000D+00  0.0000000000000D+00  0.0000000000000D+00
406  4.0500000000000D+00  0.0000000000000D+00  0.0000000000000D+00
407  4.0600000000000D+00  0.0000000000000D+00  0.0000000000000D+00
408  4.0700000000000D+00  0.0000000000000D+00  0.0000000000000D+00
409  4.0800000000000D+00  0.0000000000000D+00  0.0000000000000D+00
410  4.0900000000000D+00  0.0000000000000D+00  0.0000000000000D+00
411  4.1000000000000D+00  0.0000000000000D+00  0.0000000000000D+00
412  4.1100000000000D+00  0.0000000000000D+00  0.0000000000000D+00
413  4.1200000000000D+00  0.0000000000000D+00  0.0000000000000D+00
414  4.1300000000000D+00  0.0000000000000D+00  0.0000000000000D+00
415  4.1400000000000D+00  0.0000000000000D+00  0.0000000000000D+00
416  4.1500000000000D+00  0.0000000000000D+00  0.0000000000000D+00
417  4.1600000000000D+00  0.0000000000000D+00  0.0000000000000D+00
418  4.1700000000000D+00  0.0000000000000D+00  0.0000000000000D+00
419  4.1800000000000D+00  0.0000000000000D+00  0.0000000000000D+00
420  4.1900000000000D+00  0.0000000000000D+00  0.0000000000000D+00
421  4.2000000000000D+00  0.0000000000000D+00  0.0000000000000D+00
422  4.2100000000000D+00  0.0000000000000D+00  0.0000000000000D+00
423  4.2200000000000D+00  0.0000000000000D+00  0.0000000000000D+00
424  4.2300000000000D+00  0.0000000000000D+00  0.0000000000000D+00
425  4.2400000000000D+00  0.0000000000000D+00  0.0000000000000D+00
426  4.2500000000000D+00  0.0000000000000D+00  0.0000000000000D+00
427  4.2600000000000D+00  0.0000000000000D+00  0.0000000000000D+00
428  4.2700000000000D+00  0.0000000000000D+00  0.0000000000000D+00
429  4.2800000000000D+00  0.0000000000000D+00  0.0000000000000D+00
430  4.2900000000000D+00  0.0000000000000D+00  0.0000000000000D+00
431  4.3000000000000D+00  0.0000000000000D+00  0.0000000000000D+00
432  4.3100000000000D+00  0.0000000000000D+00  0.0000000000000D+00
433  4.3200000000000D+00  0.0000000000000D+00  0.0000000000000D+00
434  4.3300000000000D+00  0.0000000000000D+00  0.0000000000000D+00
435  4.3400000000000D+00  0.0000000000000D+00  0.0000000000000D+00
436  4.3500000000000D+00  0.0000000000000D+00  0.0000000000000D+00
437  4.3600000000000D+00  0.0000000000000D+00  0.0000000000000D+00
438  4.3700000000000D+00  0.0000000000000D+00  0.0000000000000D+00
439  4.3800000000000D+00  0.0000000000000D+00  0.0000000000000D+00
440  4.3900000000000D+00  0.0000000000000D+00  0.0000000000000D+00
441  4.4000000000000D+00  0.0000000000000D+00  0.0000000000000D+00
442  4.4100000000000D+00  0.0000000000000D+00  0.0000000000000D+00
443  4.4200000000000D+00  0.0000000000000D+00  0.0000000000000D+00