W     ONCVPSP  r_core=  1.52  1.36  1.32  1.90
74.0000     28.0000      140827    zatom,zion,pspd
8    11     3     4   601     0    pspcod,pspxc,lmax,lloc,mmax,r2well
6.00000000  0.35000000  0.00000000    rchrg fchrg qchrg
2     2     2     2     0    nproj
0                 extension_switch
0                         1.4375820186210D+01  1.6829251223607D+00
1  0.0000000000000D+00 -0.0000000000000D+00  0.0000000000000D+00
2  1.0000000000000D-02 -5.2691881299273D-02  8.7592860722108D-03
3  2.0000000000000D-02 -1.0536034792777D-01  1.7577977186776D-02
4  3.0000000000000D-02 -1.5798150315956D-01  2.6514257473019D-02
5  4.0000000000000D-02 -2.1053049138539D-01  3.5623881435298D-02
6  5.0000000000000D-02 -2.6298103169590D-01  4.4958989543720D-02
7  6.0000000000000D-02 -3.1530496697564D-01  5.4566960032024D-02
8  7.0000000000000D-02 -3.6747183348015D-01  6.4489308509485D-02
9  8.0000000000000D-02 -4.1944845570294D-01  7.4760646610374D-02
10  9.0000000000000D-02 -4.7119857112447D-01  8.5407710400691D-02
11  1.0000000000000D-01 -5.2268248920588D-01  9.6448468732432D-02
12  1.1000000000000D-01 -5.7385678868901D-01  1.0789132102789D-01
13  1.2000000000000D-01 -6.2467405695626D-01  1.1973439325929D-01
14  1.3000000000000D-01 -6.7508267484289D-01  1.3196494004139D-01
15  1.4000000000000D-01 -7.2502665000026D-01  1.4455886010405D-01
16  1.5000000000000D-01 -7.7444550126783D-01  1.5748033081076D-01
17  1.6000000000000D-01 -8.2327419647793D-01  1.7068156750237D-01
18  1.7000000000000D-01 -8.7144314516150D-01  1.8410271091461D-01
19  1.8000000000000D-01 -9.1887824770137D-01  1.9767184648238D-01
20  1.9000000000000D-01 -9.6550100149574D-01  2.1130515666016D-01
21  2.0000000000000D-01 -1.0112286645461D+00  2.2490720727440D-01
22  2.1000000000000D-01 -1.0559744761973D+00  2.3837136729158D-01
23  2.2000000000000D-01 -1.0996479345009D+00  2.5158036057074D-01
24  2.3000000000000D-01 -1.1421551284890D+00  2.6440694590074D-01
25  2.4000000000000D-01 -1.1833991244787D+00  2.7671472271665D-01
26  2.5000000000000D-01 -1.2232804036189D+00  2.8835905635200D-01
27  2.6000000000000D-01 -1.2616973473909D+00  2.9918811509540D-01
28  2.7000000000000D-01 -1.2985467693267D+00  3.0904401452073D-01
29  2.8000000000000D-01 -1.3337244896201D+00  3.1776406130915D-01
30  2.9000000000000D-01 -1.3671259454130D+00  3.2518208033281D-01
31  3.0000000000000D-01 -1.3986468365251D+00  3.3112982332606D-01
32  3.1000000000000D-01 -1.4281837976951D+00  3.3543843911472D-01
33  3.2000000000000D-01 -1.4556350988081D+00  3.3794000746053D-01
34  3.3000000000000D-01 -1.4809013627413D+00  3.3846911324435D-01
35  3.4000000000000D-01 -1.5038862826761D+00  3.3686442038075D-01
36  3.5000000000000D-01 -1.5244973796826D+00  3.3297033294001D-01
37  3.6000000000000D-01 -1.5426467084853D+00  3.2663854254164D-01
38  3.7000000000000D-01 -1.5582516262221D+00  3.1772971028775D-01
39  3.8000000000000D-01 -1.5712354845445D+00  3.0611497857717D-01
40  3.9000000000000D-01 -1.5815283381369D+00  2.9167751414890D-01
41  4.0000000000000D-01 -1.5890676333627D+00  2.7431400241872D-01
42  4.1000000000000D-01 -1.5937988570993D+00  2.5393604865237D-01
43  4.2000000000000D-01 -1.5956761449630D+00  2.3047148339063D-01
44  4.3000000000000D-01 -1.5946628586992D+00  2.0386559247591D-01
45  4.4000000000000D-01 -1.5907321135413D+00  1.7408222912462D-01
46  4.5000000000000D-01 -1.5838672536117D+00  1.4110480316037D-01
47  4.6000000000000D-01 -1.5740622646212D+00  1.0493712376594D-01
48  4.7000000000000D-01 -1.5613221393452D+00  6.5604128280363D-02
49  4.8000000000000D-01 -1.5456631797867D+00  2.3152461256660D-02
50  4.9000000000000D-01 -1.5271132040375D+00 -2.2349163661954D-02
51  5.0000000000000D-01 -1.5057116938711D+00 -7.0809741946325D-02
52  5.1000000000000D-01 -1.4815098758197D+00 -1.2211591212717D-01
53  5.2000000000000D-01 -1.4545707648091D+00 -1.7613199144614D-01
54  5.3000000000000D-01 -1.4249690104617D+00 -2.3270043077953D-01
55  5.4000000000000D-01 -1.3927908011844D+00 -2.9164217467023D-01
56  5.5000000000000D-01 -1.3581336174240D+00 -3.5275735380822D-01
57  5.6000000000000D-01 -1.3211058884312D+00 -4.1582617214516D-01
58  5.7000000000000D-01 -1.2818266543609D+00 -4.8060984492305D-01
59  5.8000000000000D-01 -1.2404250501078D+00 -5.4685184615469D-01
60  5.9000000000000D-01 -1.1970397960848D+00 -6.1427924650227D-01
61  6.0000000000000D-01 -1.1518185799747D+00 -6.8260418946977D-01
62  6.1000000000000D-01 -1.1049173784239D+00 -7.5152557265318D-01
63  6.2000000000000D-01 -1.0564996929703D+00 -8.2073089952268D-01
64  6.3000000000000D-01 -1.0067358423422D+00 -8.8989793217774D-01
65  6.4000000000000D-01 -9.5580196044789D-01 -9.5869713126718D-01
66  6.5000000000000D-01 -9.0387919633876D-01 -1.0267934924663D+00
67  6.6000000000000D-01 -8.5115284219361D-01 -1.0938485775165D+00
68  6.7000000000000D-01 -7.9781117970847D-01 -1.1595232242787D+00
69  6.8000000000000D-01 -7.4404455052666D-01 -1.2234796554582D+00
70  6.9000000000000D-01 -6.9004438496910D-01 -1.2853836790319D+00
71  7.0000000000000D-01 -6.3600221178093D-01 -1.3449069186606D+00
72  7.1000000000000D-01 -5.8210842645772D-01 -1.4017295927055D+00
73  7.2000000000000D-01 -5.2855129693999D-01 -1.4555426911529D+00
74  7.3000000000000D-01 -4.7551603020012D-01 -1.5060499908595D+00
75  7.4000000000000D-01 -4.2318370122649D-01 -1.5529703706242D+00
76  7.5000000000000D-01 -3.7173025524178D-01 -1.5960399235160D+00
77  7.6000000000000D-01 -3.2132555902084D-01 -1.6350139267982D+00
78  7.7000000000000D-01 -2.7213252711652D-01 -1.6696686133647D+00
79  7.8000000000000D-01 -2.2430596307652D-01 -1.6998035414409D+00
80  7.9000000000000D-01 -1.7799204590889D-01 -1.7252424835685D+00
81  8.0000000000000D-01 -1.3332745200306D-01 -1.7458351021203D+00
82  8.1000000000000D-01 -9.0438647980388D-02 -1.7614582033898D+00
83  8.2000000000000D-01 -4.9441252973143D-02 -1.7720168001573D+00
84  8.3000000000000D-01 -1.0439475050393D-02 -1.7774449724826D+00
85  8.4000000000000D-01  2.6474374081176D-02 -1.7777065180944D+00
86  8.5000000000000D-01  6.1220282590249D-02 -1.7727953854366D+00
87  8.6000000000000D-01  9.3730857377110D-02 -1.7627358841795D+00
88  8.7000000000000D-01  1.2395155606591D-01 -1.7475826698113D+00
89  8.8000000000000D-01  1.5184083061120D-01 -1.7274205007934D+00
90  8.9000000000000D-01  1.7737018170609D-01 -1.7023637686803D+00
91  9.0000000000000D-01  2.0052412391385D-01 -1.6725558035986D+00
92  9.1000000000000D-01  2.2130006220717D-01 -1.6381679595246D+00
93  9.2000000000000D-01  2.3970808139017D-01 -1.5993984859189D+00
94  9.3000000000000D-01  2.5577055326889D-01 -1.5564710776134D+00
95  9.4000000000000D-01  2.6952202010797D-01 -1.5096337185272D+00
96  9.5000000000000D-01  2.8100858702444D-01 -1.4591566954661D+00
97  9.6000000000000D-01  2.9028732877031D-01 -1.4053306522473D+00
98  9.7000000000000D-01  2.9742573956790D-01 -1.3484646153358D+00
99  9.8000000000000D-01  3.0250106581525D-01 -1.2888838079905D+00
100  9.9000000000000D-01  3.0559958128996D-01 -1.2269273465268D+00
101  1.0000000000000D+00  3.0681581244066D-01 -1.1629458408141D+00
102  1.0100000000000D+00  3.0625175999982D-01 -1.0972994653447D+00
103  1.0200000000000D+00  3.0401605177657D-01 -1.0303541469104D+00
104  1.0300000000000D+00  3.0022290275599D-01 -9.6247965007054D-01
105  1.0400000000000D+00  2.9499126312785D-01 -8.9404694655180D-01
106  1.0500000000000D+00  2.8844389452225D-01 -8.2542555974120D-01
107  1.0600000000000D+00  2.8070663890720D-01 -7.5698183720993D-01
108  1.0700000000000D+00  2.7190725354337D-01 -6.8907517149131D-01
109  1.0800000000000D+00  2.6217404095342D-01 -6.2205410231639D-01
110  1.0900000000000D+00  2.5163550384758D-01 -5.5625634935222D-01
111  1.1000000000000D+00  2.4041929900207D-01 -4.9200575372696D-01
112  1.1100000000000D+00  2.2865232444705D-01 -4.2961328276184D-01
113  1.1200000000000D+00  2.1645709614252D-01 -3.6936532824988D-01
114  1.1300000000000D+00  2.0395325254649D-01 -3.1153011281327D-01
115  1.1400000000000D+00  1.9125633712587D-01 -2.5635413268227D-01
116  1.1500000000000D+00  1.7847852125444D-01 -2.0406486872376D-01
117  1.1600000000000D+00  1.6572337621366D-01 -1.5485513624759D-01
118  1.1700000000000D+00  1.5308938698627D-01 -1.0889500805580D-01
119  1.1800000000000D+00  1.4066914333865D-01 -6.6329560885436D-02
120  1.1900000000000D+00  1.2854784819223D-01 -2.7274831366291D-02
121  1.2000000000000D+00  1.1680078345120D-01  8.1885647198204D-03
122  1.2100000000000D+00  1.0549649064407D-01  4.0005664773444D-02
123  1.2200000000000D+00  9.4697522651356D-02  6.8145133026545D-02
124  1.2300000000000D+00  8.4452839933633D-02  9.2619221608414D-02
125  1.2400000000000D+00  7.4804824799844D-02  1.1346382500977D-01
126  1.2500000000000D+00  6.5789246418287D-02  1.3073883982144D-01
127  1.2600000000000D+00  5.7428647089272D-02  1.4454434925242D-01
128  1.2700000000000D+00  4.9737815599163D-02  1.5500559827323D-01
129  1.2800000000000D+00  4.2725380017068D-02  1.6226942117763D-01
130  1.2900000000000D+00  3.6386716982549D-02  1.6652016241649D-01
131  1.3000000000000D+00  3.0709881625828D-02  1.6796454855497D-01
132  1.3100000000000D+00  2.5677280278635D-02  1.6682874265365D-01
133  1.3200000000000D+00  2.1257517678252D-02  1.6337445234715D-01
134  1.3300000000000D+00  1.7416224252379D-02  1.5787124919455D-01
135  1.3400000000000D+00  1.4112929982061D-02  1.5060569105532D-01
136  1.3500000000000D+00  1.1304361060344D-02  1.4185867406919D-01
137  1.3600000000000D+00  8.9458017144521D-03  1.3191560789568D-01
138  1.3700000000000D+00  6.9909315958791D-03  1.2105666048539D-01
139  1.3800000000000D+00  5.3941929526245D-03  1.0955016243816D-01
140  1.3900000000000D+00  4.1083903744781D-03  9.7670156068178D-02
141  1.4000000000000D+00  3.0901824587496D-03  8.5661250178623D-02
142  1.4100000000000D+00  2.2963991217437D-03  7.3767362614482D-02
143  1.4200000000000D+00  1.6862908391087D-03  6.2216118119931D-02
144  1.4300000000000D+00  1.2249730547008D-03  5.1205490212656D-02
145  1.4400000000000D+00  8.7603896628162D-04  4.0939928749324D-02
146  1.4500000000000D+00  6.1432766508303D-04  3.1570082885851D-02
147  1.4600000000000D+00  4.1386188951392D-04  2.3251137307065D-02
148  1.4700000000000D+00  2.5687766689323D-04  1.6100580006910D-02
149  1.4800000000000D+00  1.3133242253237D-04  1.0211301375598D-02
150  1.4900000000000D+00  2.7814162133664D-05  5.6644960468474D-03
151  1.5000000000000D+00 -5.0681204460358D-05  2.4929696434295D-03
152  1.5100000000000D+00 -1.0391789279211D-04  8.7547774091696D-04
153  1.5200000000000D+00 -1.0570479956223D-04  1.8836677397598D-04
154  1.5300000000000D+00 -4.0429040243182D-05 -1.9524821490443D-05
155  1.5400000000000D+00  6.0880875608592D-06 -1.5696835211976D-05
156  1.5500000000000D+00  4.5784478301207D-06 -1.1804551166129D-05
157  1.5600000000000D+00  0.0000000000000D+00  0.0000000000000D+00
158  1.5700000000000D+00  0.0000000000000D+00  0.0000000000000D+00
159  1.5800000000000D+00  0.0000000000000D+00  0.0000000000000D+00
160  1.5900000000000D+00  0.0000000000000D+00  0.0000000000000D+00
161  1.6000000000000D+00  0.0000000000000D+00  0.0000000000000D+00
162  1.6100000000000D+00  0.0000000000000D+00  0.0000000000000D+00
163  1.6200000000000D+00  0.0000000000000D+00  0.0000000000000D+00
164  1.6300000000000D+00  0.0000000000000D+00  0.0000000000000D+00
165  1.6400000000000D+00  0.0000000000000D+00  0.0000000000000D+00
166  1.6500000000000D+00  0.0000000000000D+00  0.0000000000000D+00
167  1.6600000000000D+00  0.0000000000000D+00  0.0000000000000D+00
168  1.6700000000000D+00  0.0000000000000D+00  0.0000000000000D+00
169  1.6800000000000D+00  0.0000000000000D+00  0.0000000000000D+00
170  1.6900000000000D+00  0.0000000000000D+00  0.0000000000000D+00
171  1.7000000000000D+00  0.0000000000000D+00  0.0000000000000D+00
172  1.7100000000000D+00  0.0000000000000D+00  0.0000000000000D+00
173  1.7200000000000D+00  0.0000000000000D+00  0.0000000000000D+00
174  1.7300000000000D+00  0.0000000000000D+00  0.0000000000000D+00
175  1.7400000000000D+00  0.0000000000000D+00  0.0000000000000D+00
176  1.7500000000000D+00  0.0000000000000D+00  0.0000000000000D+00
177  1.7600000000000D+00  0.0000000000000D+00  0.0000000000000D+00
178  1.7700000000000D+00  0.0000000000000D+00  0.0000000000000D+00
179  1.7800000000000D+00  0.0000000000000D+00  0.0000000000000D+00
180  1.7900000000000D+00  0.0000000000000D+00  0.0000000000000D+00
181  1.8000000000000D+00  0.0000000000000D+00  0.0000000000000D+00
182  1.8100000000000D+00  0.0000000000000D+00  0.0000000000000D+00
183  1.8200000000000D+00  0.0000000000000D+00  0.0000000000000D+00
184  1.8300000000000D+00  0.0000000000000D+00  0.0000000000000D+00
185  1.8400000000000D+00  0.0000000000000D+00  0.0000000000000D+00
186  1.8500000000000D+00  0.0000000000000D+00  0.0000000000000D+00
187  1.8600000000000D+00  0.0000000000000D+00  0.0000000000000D+00
188  1.8700000000000D+00  0.0000000000000D+00  0.0000000000000D+00
189  1.8800000000000D+00  0.0000000000000D+00  0.0000000000000D+00
190  1.8900000000000D+00  0.0000000000000D+00  0.0000000000000D+00
191  1.9000000000000D+00  0.0000000000000D+00  0.0000000000000D+00
192  1.9100000000000D+00  0.0000000000000D+00  0.0000000000000D+00
193  1.9200000000000D+00  0.0000000000000D+00  0.0000000000000D+00
194  1.9300000000000D+00  0.0000000000000D+00  0.0000000000000D+00
195  1.9400000000000D+00  0.0000000000000D+00  0.0000000000000D+00
196  1.9500000000000D+00  0.0000000000000D+00  0.0000000000000D+00
197  1.9600000000000D+00  0.0000000000000D+00  0.0000000000000D+00
198  1.9700000000000D+00  0.0000000000000D+00  0.0000000000000D+00
199  1.9800000000000D+00  0.0000000000000D+00  0.0000000000000D+00
200  1.9900000000000D+00  0.0000000000000D+00  0.0000000000000D+00
201  2.0000000000000D+00  0.0000000000000D+00  0.0000000000000D+00
202  2.0100000000000D+00  0.0000000000000D+00  0.0000000000000D+00
203  2.0200000000000D+00  0.0000000000000D+00  0.0000000000000D+00
204  2.0300000000000D+00  0.0000000000000D+00  0.0000000000000D+00
205  2.0400000000000D+00  0.0000000000000D+00  0.0000000000000D+00
206  2.0500000000000D+00  0.0000000000000D+00  0.0000000000000D+00
207  2.0600000000000D+00  0.0000000000000D+00  0.0000000000000D+00
208  2.0700000000000D+00  0.0000000000000D+00  0.0000000000000D+00
209  2.0800000000000D+00  0.0000000000000D+00  0.0000000000000D+00
210  2.0900000000000D+00  0.0000000000000D+00  0.0000000000000D+00
211  2.1000000000000D+00  0.0000000000000D+00  0.0000000000000D+00
212  2.1100000000000D+00  0.0000000000000D+00  0.0000000000000D+00
213  2.1200000000000D+00  0.0000000000000D+00  0.0000000000000D+00
214  2.1300000000000D+00  0.0000000000000D+00  0.0000000000000D+00
215  2.1400000000000D+00  0.0000000000000D+00  0.0000000000000D+00
216  2.1500000000000D+00  0.0000000000000D+00  0.0000000000000D+00
217  2.1600000000000D+00  0.0000000000000D+00  0.0000000000000D+00
218  2.1700000000000D+00  0.0000000000000D+00  0.0000000000000D+00
219  2.1800000000000D+00  0.0000000000000D+00  0.0000000000000D+00
220  2.1900000000000D+00  0.0000000000000D+00  0.0000000000000D+00
221  2.2000000000000D+00  0.0000000000000D+00  0.0000000000000D+00
222  2.2100000000000D+00  0.0000000000000D+00  0.0000000000000D+00
223  2.2200000000000D+00  0.0000000000000D+00  0.0000000000000D+00
224  2.2300000000000D+00  0.0000000000000D+00  0.0000000000000D+00
225  2.2400000000000D+00  0.0000000000000D+00  0.0000000000000D+00
226  2.2500000000000D+00  0.0000000000000D+00  0.0000000000000D+00
227  2.2600000000000D+00  0.0000000000000D+00  0.0000000000000D+00
228  2.2700000000000D+00  0.0000000000000D+00  0.0000000000000D+00
229  2.2800000000000D+00  0.0000000000000D+00  0.0000000000000D+00
230  2.2900000000000D+00  0.0000000000000D+00  0.0000000000000D+00
231  2.3000000000000D+00  0.0000000000000D+00  0.0000000000000D+00
232  2.3100000000000D+00  0.0000000000000D+00  0.0000000000000D+00
233  2.3200000000000D+00  0.0000000000000D+00  0.0000000000000D+00
234  2.3300000000000D+00  0.0000000000000D+00  0.0000000000000D+00
235  2.3400000000000D+00  0.0000000000000D+00  0.0000000000000D+00
236  2.3500000000000D+00  0.0000000000000D+00  0.0000000000000D+00
237  2.3600000000000D+00  0.0000000000000D+00  0.0000000000000D+00
238  2.3700000000000D+00  0.0000000000000D+00  0.0000000000000D+00
239  2.3800000000000D+00  0.0000000000000D+00  0.0000000000000D+00
240  2.3900000000000D+00  0.0000000000000D+00  0.0000000000000D+00
241  2.4000000000000D+00  0.0000000000000D+00  0.0000000000000D+00
242  2.4100000000000D+00  0.0000000000000D+00  0.0000000000000D+00
243  2.4200000000000D+00  0.0000000000000D+00  0.0000000000000D+00
244  2.4300000000000D+00  0.0000000000000D+00  0.0000000000000D+00
245  2.4400000000000D+00  0.0000000000000D+00  0.0000000000000D+00
246  2.4500000000000D+00  0.0000000000000D+00  0.0000000000000D+00
247  2.4600000000000D+00  0.0000000000000D+00  0.0000000000000D+00
248  2.4700000000000D+00  0.0000000000000D+00  0.0000000000000D+00
249  2.4800000000000D+00  0.0000000000000D+00  0.0000000000000D+00
250  2.4900000000000D+00  0.0000000000000D+00  0.0000000000000D+00
251  2.5000000000000D+00  0.0000000000000D+00  0.0000000000000D+00
252  2.5100000000000D+00  0.0000000000000D+00  0.0000000000000D+00
253  2.5200000000000D+00  0.0000000000000D+00  0.0000000000000D+00
254  2.5300000000000D+00  0.0000000000000D+00  0.0000000000000D+00
255  2.5400000000000D+00  0.0000000000000D+00  0.0000000000000D+00
256  2.5500000000000D+00  0.0000000000000D+00  0.0000000000000D+00
257  2.5600000000000D+00  0.0000000000000D+00  0.0000000000000D+00
258  2.5700000000000D+00  0.0000000000000D+00  0.0000000000000D+00
259  2.5800000000000D+00  0.0000000000000D+00  0.0000000000000D+00
260  2.5900000000000D+00  0.0000000000000D+00  0.0000000000000D+00
261  2.6000000000000D+00  0.0000000000000D+00  0.0000000000000D+00
262  2.6100000000000D+00  0.0000000000000D+00  0.0000000000000D+00
263  2.6200000000000D+00  0.0000000000000D+00  0.0000000000000D+00
264  2.6300000000000D+00  0.0000000000000D+00  0.0000000000000D+00
265  2.6400000000000D+00  0.0000000000000D+00  0.0000000000000D+00
266  2.6500000000000D+00  0.0000000000000D+00  0.0000000000000D+00
267  2.6600000000000D+00  0.0000000000000D+00  0.0000000000000D+00
268  2.6700000000000D+00  0.0000000000000D+00  0.0000000000000D+00
269  2.6800000000000D+00  0.0000000000000D+00  0.0000000000000D+00
270  2.6900000000000D+00  0.0000000000000D+00  0.0000000000000D+00
271  2.7000000000000D+00  0.0000000000000D+00  0.0000000000000D+00
272  2.7100000000000D+00  0.0000000000000D+00  0.0000000000000D+00
273  2.7200000000000D+00  0.0000000000000D+00  0.0000000000000D+00
274  2.7300000000000D+00  0.0000000000000D+00  0.0000000000000D+00
275  2.7400000000000D+00  0.0000000000000D+00  0.0000000000000D+00
276  2.7500000000000D+00  0.0000000000000D+00  0.0000000000000D+00
277  2.7600000000000D+00  0.0000000000000D+00  0.0000000000000D+00
278  2.7700000000000D+00  0.0000000000000D+00  0.0000000000000D+00
279  2.7800000000000D+00  0.0000000000000D+00  0.0000000000000D+00
280  2.7900000000000D+00  0.0000000000000D+00  0.0000000000000D+00
281  2.8000000000000D+00  0.0000000000000D+00  0.0000000000000D+00
282  2.8100000000000D+00  0.0000000000000D+00  0.0000000000000D+00
283  2.8200000000000D+00  0.0000000000000D+00  0.0000000000000D+00
284  2.8300000000000D+00  0.0000000000000D+00  0.0000000000000D+00
285  2.8400000000000D+00  0.0000000000000D+00  0.0000000000000D+00
286  2.8500000000000D+00  0.0000000000000D+00  0.0000000000000D+00
287  2.8600000000000D+00  0.0000000000000D+00  0.0000000000000D+00
288  2.8700000000000D+00  0.0000000000000D+00  0.0000000000000D+00
289  2.8800000000000D+00  0.0000000000000D+00  0.0000000000000D+00
290  2.8900000000000D+00  0.0000000000000D+00  0.0000000000000D+00
291  2.9000000000000D+00  0.0000000000000D+00  0.0000000000000D+00
292  2.9100000000000D+00  0.0000000000000D+00  0.0000000000000D+00
293  2.9200000000000D+00  0.0000000000000D+00  0.0000000000000D+00
294  2.9300000000000D+00  0.0000000000000D+00  0.0000000000000D+00
295  2.9400000000000D+00  0.0000000000000D+00  0.0000000000000D+00
296  2.9500000000000D+00  0.0000000000000D+00  0.0000000000000D+00
297  2.9600000000000D+00  0.0000000000000D+00  0.0000000000000D+00
298  2.9700000000000D+00  0.0000000000000D+00  0.0000000000000D+00
299  2.9800000000000D+00  0.0000000000000D+00  0.0000000000000D+00
300  2.9900000000000D+00  0.0000000000000D+00  0.0000000000000D+00
301  3.0000000000000D+00  0.0000000000000D+00  0.0000000000000D+00
302  3.0100000000000D+00  0.0000000000000D+00  0.0000000000000D+00
303  3.0200000000000D+00  0.0000000000000D+00  0.0000000000000D+00
304  3.0300000000000D+00  0.0000000000000D+00  0.0000000000000D+00
305  3.0400000000000D+00  0.0000000000000D+00  0.0000000000000D+00
306  3.0500000000000D+00  0.0000000000000D+00  0.0000000000000D+00
307  3.0600000000000D+00  0.0000000000000D+00  0.0000000000000D+00
308  3.0700000000000D+00  0.0000000000000D+00  0.0000000000000D+00
309  3.0800000000000D+00  0.0000000000000D+00  0.0000000000000D+00
310  3.0900000000000D+00  0.0000000000000D+00  0.0000000000000D+00
311  3.1000000000000D+00  0.0000000000000D+00  0.0000000000000D+00
312  3.1100000000000D+00  0.0000000000000D+00  0.0000000000000D+00
313  3.1200000000000D+00  0.0000000000000D+00  0.0000000000000D+00
314  3.1300000000000D+00  0.0000000000000D+00  0.0000000000000D+00
315  3.1400000000000D+00  0.0000000000000D+00  0.0000000000000D+00
316  3.1500000000000D+00  0.0000000000000D+00  0.0000000000000D+00
317  3.1600000000000D+00  0.0000000000000D+00  0.0000000000000D+00
318  3.1700000000000D+00  0.0000000000000D+00  0.0000000000000D+00
319  3.1800000000000D+00  0.0000000000000D+00  0.0000000000000D+00
320  3.1900000000000D+00  0.0000000000000D+00  0.0000000000000D+00
321  3.2000000000000D+00  0.0000000000000D+00  0.0000000000000D+00
322  3.2100000000000D+00  0.0000000000000D+00  0.0000000000000D+00
323  3.2200000000000D+00  0.0000000000000D+00  0.0000000000000D+00
324  3.2300000000000D+00  0.0000000000000D+00  0.0000000000000D+00
325  3.2400000000000D+00  0.0000000000000D+00  0.0000000000000D+00
326  3.2500000000000D+00  0.0000000000000D+00  0.0000000000000D+00
327  3.2600000000000D+00  0.0000000000000D+00  0.0000000000000D+00
328  3.2700000000000D+00  0.0000000000000D+00  0.0000000000000D+00
329  3.2800000000000D+00  0.0000000000000D+00  0.0000000000000D+00
330  3.2900000000000D+00  0.0000000000000D+00  0.0000000000000D+00
331  3.3000000000000D+00  0.0000000000000D+00  0.0000000000000D+00
332  3.3100000000000D+00  0.0000000000000D+00  0.0000000000000D+00
333  3.3200000000000D+00  0.0000000000000D+00  0.0000000000000D+00
334  3.3300000000000D+00  0.0000000000000D+00  0.0000000000000D+00
335  3.3400000000000D+00  0.0000000000000D+00  0.0000000000000D+00
336  3.3500000000000D+00  0.0000000000000D+00  0.0000000000000D+00
337  3.3600000000000D+00  0.0000000000000D+00  0.0000000000000D+00
338  3.3700000000000D+00  0.0000000000000D+00  0.0000000000000D+00
339  3.3800000000000D+00  0.0000000000000D+00  0.0000000000000D+00
340  3.3900000000000D+00  0.0000000000000D+00  0.0000000000000D+00
341  3.4000000000000D+00  0.0000000000000D+00  0.0000000000000D+00
342  3.4100000000000D+00  0.0000000000000D+00  0.0000000000000D+00
343  3.4200000000000D+00  0.0000000000000D+00  0.0000000000000D+00
344  3.4300000000000D+00  0.0000000000000D+00  0.0000000000000D+00
345  3.4400000000000D+00  0.0000000000000D+00  0.0000000000000D+00
346  3.4500000000000D+00  0.0000000000000D+00  0.0000000000000D+00
347  3.4600000000000D+00  0.0000000000000D+00  0.0000000000000D+00
348  3.4700000000000D+00  0.0000000000000D+00  0.0000000000000D+00
349  3.4800000000000D+00  0.0000000000000D+00  0.0000000000000D+00
350  3.4900000000000D+00  0.0000000000000D+00  0.0000000000000D+00
351  3.5000000000000D+00  0.0000000000000D+00  0.0000000000000D+00
352  3.5100000000000D+00  0.0000000000000D+00  0.0000000000000D+00
353  3.5200000000000D+00  0.0000000000000D+00  0.0000000000000D+00
354  3.5300000000000D+00  0.0000000000000D+00  0.0000000000000D+00
355  3.5400000000000D+00  0.0000000000000D+00  0.0000000000000D+00
356  3.5500000000000D+00  0.0000000000000D+00  0.0000000000000D+00
357  3.5600000000000D+00  0.0000000000000D+00  0.0000000000000D+00
358  3.5700000000000D+00  0.0000000000000D+00  0.0000000000000D+00
359  3.5800000000000D+00  0.0000000000000D+00  0.0000000000000D+00
360  3.5900000000000D+00  0.0000000000000D+00  0.0000000000000D+00
361  3.6000000000000D+00  0.0000000000000D+00  0.0000000000000D+00
362  3.6100000000000D+00  0.0000000000000D+00  0.0000000000000D+00
363  3.6200000000000D+00  0.0000000000000D+00  0.0000000000000D+00
364  3.6300000000000D+00  0.0000000000000D+00  0.0000000000000D+00
365  3.6400000000000D+00  0.0000000000000D+00  0.0000000000000D+00
366  3.6500000000000D+00  0.0000000000000D+00  0.0000000000000D+00
367  3.6600000000000D+00  0.0000000000000D+00  0.0000000000000D+00
368  3.6700000000000D+00  0.0000000000000D+00  0.0000000000000D+00
369  3.6800000000000D+00  0.0000000000000D+00  0.0000000000000D+00
370  3.6900000000000D+00  0.0000000000000D+00  0.0000000000000D+00
371  3.7000000000000D+00  0.0000000000000D+00  0.0000000000000D+00
372  3.7100000000000D+00  0.0000000000000D+00  0.0000000000000D+00
373  3.7200000000000D+00  0.0000000000000D+00  0.0000000000000D+00
374  3.7300000000000D+00  0.0000000000000D+00  0.0000000000000D+00
375  3.7400000000000D+00  0.0000000000000D+00  0.0000000000000D+00
376  3.7500000000000D+00  0.0000000000000D+00  0.0000000000000D+00
377  3.7600000000000D+00  0.0000000000000D+00  0.0000000000000D+00
378  3.7700000000000D+00  0.0000000000000D+00  0.0000000000000D+00
379  3.7800000000000D+00  0.0000000000000D+00  0.0000000000000D+00
380  3.7900000000000D+00  0.0000000000000D+00  0.0000000000000D+00
381  3.8000000000000D+00  0.0000000000000D+00  0.0000000000000D+00
382  3.8100000000000D+00  0.0000000000000D+00  0.0000000000000D+00
383  3.8200000000000D+00  0.0000000000000D+00  0.0000000000000D+00
384  3.8300000000000D+00  0.0000000000000D+00  0.0000000000000D+00
385  3.8400000000000D+00  0.0000000000000D+00  0.0000000000000D+00
386  3.8500000000000D+00  0.0000000000000D+00  0.0000000000000D+00
387  3.8600000000000D+00  0.0000000000000D+00  0.0000000000000D+00
388  3.8700000000000D+00  0.0000000000000D+00  0.0000000000000D+00
389  3.8800000000000D+00  0.0000000000000D+00  0.0000000000000D+00
390  3.8900000000000D+00  0.0000000000000D+00  0.0000000000000D+00
391  3.9000000000000D+00  0.0000000000000D+00  0.0000000000000D+00
392  3.9100000000000D+00  0.0000000000000D+00  0.0000000000000D+00
393  3.9200000000000D+00  0.0000000000000D+00  0.0000000000000D+00
394  3.9300000000000D+00  0.0000000000000D+00  0.0000000000000D+00
395  3.9400000000000D+00  0.0000000000000D+00  0.0000000000000D+00
396  3.9500000000000D+00  0.0000000000000D+00  0.0000000000000D+00
397  3.9600000000000D+00  0.0000000000000D+00  0.0000000000000D+00
398  3.9700000000000D+00  0.0000000000000D+00  0.0000000000000D+00
399  3.9800000000000D+00  0.0000000000000D+00  0.0000000000000D+00
400  3.9900000000000D+00  0.0000000000000D+00  0.0000000000000D+00
401  4.0000000000000D+00  0.0000000000000D+00  0.0000000000000D+00
402  4.0100000000000D+00  0.0000000000000D+00  0.0000000000000D+00
403  4.0200000000000D+00  0.0000000000000D+00  0.0000000000000D+00
404  4.0300000000000D+00  0.0000000000000D+00  0.0000000000000D+00
405  4.0400000000000D+00  0.0000000000000D+00  0.0000000000000D+00
406  4.0500000000000D+00  0.0000000000000D+00  0.0000000000000D+00
407  4.0600000000000D+00  0.0000000000000D+00  0.0000000000000D+00
408  4.0700000000000D+00  0.0000000000000D+00  0.0000000000000D+00
409  4.0800000000000D+00  0.0000000000000D+00  0.0000000000000D+00
410  4.0900000000000D+00  0.0000000000000D+00  0.0000000000000D+00
411  4.1000000000000D+00  0.0000000000000D+00  0.0000000000000D+00
412  4.1100000000000D+00  0.0000000000000D+00  0.0000000000000D+00
413  4.1200000000000D+00  0.0000000000000D+00  0.0000000000000D+00
414  4.1300000000000D+00  0.0000000000000D+00  0.0000000000000D+00
415  4.1400000000000D+00  0.0000000000000D+00  0.0000000000000D+00
416  4.1500000000000D+00  0.0000000000000D+00  0.0000000000000D+00
417  4.1600000000000D+00  0.0000000000000D+00  0.0000000000000D+00
418  4.1700000000000D+00  0.0000000000000D+00  0.0000000000000D+00
419  4.1800000000000D+00  0.0000000000000D+00  0.0000000000000D+00
420  4.1900000000000D+00  0.0000000000000D+00  0.0000000000000D+00
421  4.2000000000000D+00  0.0000000000000D+00  0.0000000000000D+00
422  4.2100000000000D+00  0.0000000000000D+00  0.0000000000000D+00
423  4.2200000000000D+00  0.0000000000000D+00  0.0000000000000D+00
424  4.2300000000000D+00  0.0000000000000D+00  0.0000000000000D+00
425  4.2400000000000D+00  0.0000000000000D+00  0.0000000000000D+00
426  4.2500000000000D+00  0.0000000000000D+00  0.0000000000000D+00
427  4.2600000000000D+00  0.0000000000000D+00  0.0000000000000D+00
428  4.2700000000000D+00  0.0000000000000D+00  0.0000000000000D+00
429  4.2800000000000D+00  0.0000000000000D+00  0.0000000000000D+00
430  4.2900000000000D+00  0.0000000000000D+00  0.0000000000000D+00
431  4.3000000000000D+00  0.0000000000000D+00  0.0000000000000D+00
432  4.3100000000000D+00  0.0000000000000D+00  0.0000000000000D+00
433  4.3200000000000D+00  0.0000000000000D+00  0.0000000000000D+00
434  4.3300000000000D+00  0.0000000000000D+00  0.0000000000000D+00
435  4.3400000000000D+00  0.0000000000000D+00  0.0000000000000D+00
436  4.3500000000000D+00  0.0000000000000D+00  0.0000000000000D+00
437  4.3600000000000D+00  0.0000000000000D+00  0.0000000000000D+00
438  4.3700000000000D+00  0.0000000000000D+00  0.0000000000000D+00
439  4.3800000000000D+00  0.0000000000000D+00  0.0000000000000D+00
440  4.3900000000000D+00  0.0000000000000D+00  0.0000000000000D+00
441  4.4000000000000D+00  0.0000000000000D+00  0.0000000000000D+00
442  4.4100000000000D+00  0.0000000000000D+00  0.0000000000000D+00
443  4.4200000000000D+00  0.0000000000000D+00  0.0000000000000D+00