Zn    ONCVPSP-3.3.0  r_core=   1.35823   1.66358   1.85211
30.0000     20.0000      171103    zatom,zion,pspd
8   -1012   2     4   600     0    pspcod,pspxc,lmax,lloc,mmax,r2well
5.99000000  2.50000000  0.00000000    rchrg fchrg qchrg
2     2     2     0     0    nproj
1     1           extension_switch
0                         2.8164639525084D+00 -1.5262664457551D+00
1  0.0000000000000D+00  7.6886529365439D-09  5.9304272603811D-10
2  1.0000000000000D-02  8.8160638667635D-02  3.0674773486419D-02
3  2.0000000000000D-02  1.7610912169733D-01  6.1363553084413D-02
4  3.0000000000000D-02  2.6363124535348D-01  9.2079913819084D-02
5  4.0000000000000D-02  3.5050878931788D-01  1.2283657600254D-01
6  5.0000000000000D-02  4.3651770538751D-01  1.5364499637025D-01
7  6.0000000000000D-02  5.2142653688888D-01  1.8451498097275D-01
8  7.0000000000000D-02  6.0499513640901D-01  2.1545432635809D-01
9  8.0000000000000D-02  6.8697374175468D-01  2.4646849498764D-01
10  9.0000000000000D-02  7.6710246079185D-01  2.7756033011177D-01
11  1.0000000000000D-01  8.4511120520875D-01  3.0872981451017D-01
12  1.1000000000000D-01  9.2072010154344D-01  3.3997387659099D-01
13  1.2000000000000D-01  9.9364039530163D-01  3.7128624636589D-01
14  1.3000000000000D-01  1.0635758509639D+00  4.0265736279508D-01
15  1.4000000000000D-01  1.1302246374588D+00  4.3407433295170D-01
16  1.5000000000000D-01  1.1932816755802D+00  4.6552094241100D-01
17  1.6000000000000D-01  1.2524414111696D+00  4.9697771525110D-01
18  1.7000000000000D-01  1.3074009659819D+00  5.2842202108081D-01
19  1.8000000000000D-01  1.3578636072908D+00  5.5982822560796D-01
20  1.9000000000000D-01  1.4035424677453D+00  5.9116788044940D-01
21  2.0000000000000D-01  1.4441644389933D+00  6.2240994717857D-01
22  2.1000000000000D-01  1.4794741563497D+00  6.5352105002442D-01
23  2.2000000000000D-01  1.5092379874684D+00  6.8446575118869D-01
24  2.3000000000000D-01  1.5332479356911D+00  7.1520684244670D-01
25  2.4000000000000D-01  1.5513253685704D+00  7.4570564654607D-01
26  2.5000000000000D-01  1.5633244840198D+00  7.7592232192026D-01
27  2.6000000000000D-01  1.5691354305869D+00  8.0581616438897D-01
28  2.7000000000000D-01  1.5686870044264D+00  8.3534589982045D-01
29  2.8000000000000D-01  1.5619488535054D+00  8.6446996217317D-01
30  2.9000000000000D-01  1.5489331292679D+00  8.9314675190542D-01
31  3.0000000000000D-01  1.5296955371722D+00  9.2133487042641D-01
32  3.1000000000000D-01  1.5043357499708D+00  9.4899332704420D-01
33  3.2000000000000D-01  1.4729971610245D+00  9.7608171572526D-01
34  3.3000000000000D-01  1.4358659690402D+00  1.0025603598962D+00
35  3.4000000000000D-01  1.3931696000588D+00  1.0283904244675D+00
36  3.5000000000000D-01  1.3451744869703D+00  1.0535339952199D+00
37  3.6000000000000D-01  1.2921832409583D+00  1.0779541266384D+00
38  3.7000000000000D-01  1.2345312627378D+00  1.1016148601917D+00
39  3.8000000000000D-01  1.1725828539450D+00  1.1244812159027D+00
40  3.9000000000000D-01  1.1067269002496D+00  1.1465191608281D+00
41  4.0000000000000D-01  1.0373722074358D+00  1.1676955587329D+00
42  4.1000000000000D-01  9.6494257959288D-01  1.1879781058005D+00
43  4.2000000000000D-01  8.8987173447261D-01  1.2073352576413D+00
44  4.3000000000000D-01  8.1259815487153D-01  1.2257361531421D+00
45  4.4000000000000D-01  7.3355997645795D-01  1.2431505408267D+00
46  4.5000000000000D-01  6.5319001175661D-01  1.2595487133771D+00
47  4.6000000000000D-01  5.7191100701515D-01  1.2749014557802D+00
48  4.7000000000000D-01  4.9013122346896D-01  1.2891800122375D+00
49  4.8000000000000D-01  4.0824042719856D-01  1.3023560764970D+00
50  4.9000000000000D-01  3.2660636249388D-01  1.3144018096550D+00
51  5.0000000000000D-01  2.4557177261116D-01  1.3252898887460D+00
52  5.1000000000000D-01  1.6545201926892D-01  1.3349935886028D+00
53  5.2000000000000D-01  8.6533338470697D-02  1.3434868985463D+00
54  5.3000000000000D-01  9.0717555736218D-03  1.3507446744877D+00
55  5.4000000000000D-01 -6.6707332709316D-02  1.3567428259962D+00
56  5.5000000000000D-01 -1.4060891715807D-01  1.3614585368556D+00
57  5.6000000000000D-01 -2.1246749881939D-01  1.3648705165999D+00
58  5.7000000000000D-01 -2.8214561361294D-01  1.3669592795320D+00
59  5.8000000000000D-01 -3.4953181061177D-01  1.3677074467954D+00
60  5.9000000000000D-01 -4.1453814862051D-01  1.3671000662243D+00
61  6.0000000000000D-01 -4.7709728693159D-01  1.3651249439530D+00
62  6.1000000000000D-01 -5.3715925565302D-01  1.3617729811537D+00
63  6.2000000000000D-01 -5.9468799847239D-01  1.3570385087944D+00
64  6.3000000000000D-01 -6.4965778603123D-01  1.3509196129938D+00
65  6.4000000000000D-01 -7.0204960102001D-01  1.3434184433981D+00
66  6.5000000000000D-01 -7.5184759663982D-01  1.3345414970267D+00
67  6.6000000000000D-01 -7.9903572812677D-01  1.3242998702334D+00
68  6.7000000000000D-01 -8.4359465269379D-01  1.3127094718000D+00
69  6.8000000000000D-01 -8.8549898651549D-01  1.2997911907232D+00
70  6.9000000000000D-01 -9.2471499847211D-01  1.2855710129551D+00
71  7.0000000000000D-01 -9.6119880941267D-01  1.2700800822091D+00
72  7.1000000000000D-01 -9.9489515306581D-01  1.2533547009142D+00
73  7.2000000000000D-01 -1.0257367404449D+00  1.2354362684950D+00
74  7.3000000000000D-01 -1.0536442543109D+00  1.2163711553278D+00
75  7.4000000000000D-01 -1.0785269840811D+00  1.1962105119582D+00
76  7.5000000000000D-01 -1.1002840949646D+00  1.1750100144433D+00
77  7.6000000000000D-01 -1.1188065085264D+00  1.1528295479590D+00
78  7.7000000000000D-01 -1.1339793555588D+00  1.1297328320775D+00
79  7.8000000000000D-01 -1.1456849466280D+00  1.1057869923321D+00
80  7.9000000000000D-01 -1.1538061912672D+00  1.0810620838248D+00
81  8.0000000000000D-01 -1.1582303838511D+00  1.0556305736677D+00
82  8.1000000000000D-01 -1.1588532630650D+00  1.0295667899608D+00
83  8.2000000000000D-01 -1.1555832428437D+00  1.0029463457728D+00
84  8.3000000000000D-01 -1.1483457059467D+00  9.7584554719065D-01
85  8.4000000000000D-01 -1.1370872471442D+00  9.4834079492304D-01
86  8.5000000000000D-01 -1.1217797514440D+00  9.2050798917066D-01
87  8.6000000000000D-01 -1.1024241939616D+00  8.9242194750785D-01
88  8.7000000000000D-01 -1.0790540519413D+00  8.6415584535005D-01
89  8.8000000000000D-01 -1.0517382260126D+00  8.3578068821413D-01
90  8.9000000000000D-01 -1.0205833768984D+00  8.0736482441945D-01
91  9.0000000000000D-01 -9.8573559530641D-01  7.7897350613625D-01
92  9.1000000000000D-01 -9.4738133639332D-01  7.5066850578139D-01
93  9.2000000000000D-01 -9.0574756570568D-01  7.2250779370559D-01
94  9.3000000000000D-01 -8.6110108054297D-01  6.9454528193489D-01
95  9.4000000000000D-01 -8.1374698888011D-01  6.6683063744638D-01
96  9.5000000000000D-01 -7.6402634692911D-01  6.3940916710017D-01
97  9.6000000000000D-01 -7.1231297565543D-01  6.1232177494995D-01
98  9.7000000000000D-01 -6.5900949589419D-01  5.8560499122190D-01
99  9.8000000000000D-01 -6.0454263991071D-01  5.5929107087981D-01
100  9.9000000000000D-01 -5.4935791530648D-01  5.3340815830331D-01
101  1.0000000000000D+00 -4.9391371317767D-01  5.0798051333840D-01
102  1.0100000000000D+00 -4.3867496686306D-01  4.8302879279979D-01
103  1.0200000000000D+00 -3.8410647995298D-01  4.5857038044889D-01
104  1.0300000000000D+00 -3.3066605208967D-01  4.3461975757101D-01
105  1.0400000000000D+00 -2.7879753816549D-01  4.1118890554018D-01
106  1.0500000000000D+00 -2.2892398081054D-01  3.8828773123775D-01
107  1.0600000000000D+00 -1.8144095745432D-01  3.6592450580193D-01
108  1.0700000000000D+00 -1.3671028114950D-01  3.4410630708215D-01
109  1.0800000000000D+00 -9.5054189692341D-02  3.2283945621249D-01
110  1.0900000000000D+00 -5.6750148471145D-02  3.0212993905140D-01
111  1.1000000000000D+00 -2.2026384178257D-02  2.8198380357777D-01
112  1.1100000000000D+00  8.9417499511102D-03  2.6240752513546D-01
113  1.1200000000000D+00  3.6034490549531D-02  2.4340833215292D-01
114  1.1300000000000D+00  5.9189395472258D-02  2.2499448606696D-01
115  1.1400000000000D+00  7.8402039810977D-02  2.0717551010807D-01
116  1.1500000000000D+00  9.3725650117743D-02  1.8996236298703D-01
117  1.1600000000000D+00  1.0526967138883D-01  1.7336755478096D-01
118  1.1700000000000D+00  1.1319728536592D-01  1.5740520378248D-01
119  1.1800000000000D+00  1.1772191465902D-01  1.4209103405045D-01
120  1.1900000000000D+00  1.1910277663029D-01  1.2744231524665D-01
121  1.2000000000000D+00  1.1763956760385D-01  1.1347774742125D-01
122  1.2100000000000D+00  1.1366637673538D-01  1.0021729463546D-01
123  1.2200000000000D+00  1.0754494444183D-01  8.7681972323019D-02
124  1.2300000000000D+00  9.9657400561313D-02  7.5893594683234D-02
125  1.2400000000000D+00  9.0398624410783D-02  6.4874488950140D-02
126  1.2500000000000D+00  8.0168377270459D-02  5.4647183927178D-02
127  1.2600000000000D+00  6.9363370463903D-02  4.5234081213011D-02
128  1.2700000000000D+00  5.8369429602752D-02  3.6657117717071D-02
129  1.2800000000000D+00  4.7553896328556D-02  2.8937425194934D-02
130  1.2900000000000D+00  3.7258506185241D-02  2.2095005505568D-02
131  1.3000000000000D+00  2.7792556599198D-02  1.6148389188242D-02
132  1.3100000000000D+00  1.9427677966741D-02  1.1114428062358D-02
133  1.3200000000000D+00  1.2396183194585D-02  7.0105747475626D-03
134  1.3300000000000D+00  6.8415772492362D-03  3.8303212482885D-03
135  1.3400000000000D+00  2.9388928661937D-03  1.6133500933637D-03
136  1.3500000000000D+00  8.4452639135798D-04  4.1675758346001D-04
137  1.3600000000000D+00  9.5678114175532D-05 -1.2298517946925D-06
138  1.3700000000000D+00 -2.0275973432591D-05 -2.7773440310740D-05
139  1.3800000000000D+00  1.4465911769669D-05  1.4479667584630D-05
140  1.3900000000000D+00  2.9849800138565D-06  2.6936825587604D-06
141  1.4000000000000D+00 -2.1713731859010D-06 -2.6525003717360D-06
142  1.4100000000000D+00 -2.2084927845266D-07 -4.5052198745221D-08
143  1.4200000000000D+00 -3.4024442872253D-07 -6.9408239556678D-08
144  1.4300000000000D+00  0.0000000000000D+00  0.0000000000000D+00
145  1.4400000000000D+00  0.0000000000000D+00  0.0000000000000D+00
146  1.4500000000000D+00  0.0000000000000D+00  0.0000000000000D+00
147  1.4600000000000D+00  0.0000000000000D+00  0.0000000000000D+00
148  1.4700000000000D+00  0.0000000000000D+00  0.0000000000000D+00
149  1.4800000000000D+00  0.0000000000000D+00  0.0000000000000D+00
150  1.4900000000000D+00  0.0000000000000D+00  0.0000000000000D+00
151  1.5000000000000D+00  0.0000000000000D+00  0.0000000000000D+00
152  1.5100000000000D+00  0.0000000000000D+00  0.0000000000000D+00
153  1.5200000000000D+00  0.0000000000000D+00  0.0000000000000D+00
154  1.5300000000000D+00  0.0000000000000D+00  0.0000000000000D+00
155  1.5400000000000D+00  0.0000000000000D+00  0.0000000000000D+00
156  1.5500000000000D+00  0.0000000000000D+00  0.0000000000000D+00
157  1.5600000000000D+00  0.0000000000000D+00  0.0000000000000D+00
158  1.5700000000000D+00  0.0000000000000D+00  0.0000000000000D+00
159  1.5800000000000D+00  0.0000000000000D+00  0.0000000000000D+00
160  1.5900000000000D+00  0.0000000000000D+00  0.0000000000000D+00
161  1.6000000000000D+00  0.0000000000000D+00  0.0000000000000D+00
162  1.6100000000000D+00  0.0000000000000D+00  0.0000000000000D+00
163  1.6200000000000D+00  0.0000000000000D+00  0.0000000000000D+00
164  1.6300000000000D+00  0.0000000000000D+00  0.0000000000000D+00
165  1.6400000000000D+00  0.0000000000000D+00  0.0000000000000D+00
166  1.6500000000000D+00  0.0000000000000D+00  0.0000000000000D+00
167  1.6600000000000D+00  0.0000000000000D+00  0.0000000000000D+00
168  1.6700000000000D+00  0.0000000000000D+00  0.0000000000000D+00
169  1.6800000000000D+00  0.0000000000000D+00  0.0000000000000D+00
170  1.6900000000000D+00  0.0000000000000D+00  0.0000000000000D+00
171  1.7000000000000D+00  0.0000000000000D+00  0.0000000000000D+00
172  1.7100000000000D+00  0.0000000000000D+00  0.0000000000000D+00
173  1.7200000000000D+00  0.0000000000000D+00  0.0000000000000D+00
174  1.7300000000000D+00  0.0000000000000D+00  0.0000000000000D+00
175  1.7400000000000D+00  0.0000000000000D+00  0.0000000000000D+00
176  1.7500000000000D+00  0.0000000000000D+00  0.0000000000000D+00
177  1.7600000000000D+00  0.0000000000000D+00  0.0000000000000D+00
178  1.7700000000000D+00  0.0000000000000D+00  0.0000000000000D+00
179  1.7800000000000D+00  0.0000000000000D+00  0.0000000000000D+00
180  1.7900000000000D+00  0.0000000000000D+00  0.0000000000000D+00
181  1.8000000000000D+00  0.0000000000000D+00  0.0000000000000D+00
182  1.8100000000000D+00  0.0000000000000D+00  0.0000000000000D+00
183  1.8200000000000D+00  0.0000000000000D+00  0.0000000000000D+00
184  1.8300000000000D+00  0.0000000000000D+00  0.0000000000000D+00
185  1.8400000000000D+00  0.0000000000000D+00  0.0000000000000D+00
186  1.8500000000000D+00  0.0000000000000D+00  0.0000000000000D+00
187  1.8600000000000D+00  0.0000000000000D+00  0.0000000000000D+00
188  1.8700000000000D+00  0.0000000000000D+00  0.0000000000000D+00
189  1.8800000000000D+00  0.0000000000000D+00  0.0000000000000D+00
190  1.8900000000000D+00  0.0000000000000D+00  0.0000000000000D+00
191  1.9000000000000D+00  0.0000000000000D+00  0.0000000000000D+00
192  1.9100000000000D+00  0.0000000000000D+00  0.0000000000000D+00
193  1.9200000000000D+00  0.0000000000000D+00  0.0000000000000D+00
194  1.9300000000000D+00  0.0000000000000D+00  0.0000000000000D+00
195  1.9400000000000D+00  0.0000000000000D+00  0.0000000000000D+00
196  1.9500000000000D+00  0.0000000000000D+00  0.0000000000000D+00
197  1.9600000000000D+00  0.0000000000000D+00  0.0000000000000D+00
198  1.9700000000000D+00  0.0000000000000D+00  0.0000000000000D+00
199  1.9800000000000D+00  0.0000000000000D+00  0.0000000000000D+00
200  1.9900000000000D+00  0.0000000000000D+00  0.0000000000000D+00
201  2.0000000000000D+00  0.0000000000000D+00  0.0000000000000D+00
202  2.0100000000000D+00  0.0000000000000D+00  0.0000000000000D+00
203  2.0200000000000D+00  0.0000000000000D+00  0.0000000000000D+00
204  2.0300000000000D+00  0.0000000000000D+00  0.0000000000000D+00
205  2.0400000000000D+00  0.0000000000000D+00  0.0000000000000D+00
206  2.0500000000000D+00  0.0000000000000D+00  0.0000000000000D+00
207  2.0600000000000D+00  0.0000000000000D+00  0.0000000000000D+00
208  2.0700000000000D+00  0.0000000000000D+00  0.0000000000000D+00
209  2.0800000000000D+00  0.0000000000000D+00  0.0000000000000D+00
210  2.0900000000000D+00  0.0000000000000D+00  0.0000000000000D+00
211  2.1000000000000D+00  0.0000000000000D+00  0.0000000000000D+00
212  2.1100000000000D+00  0.0000000000000D+00  0.0000000000000D+00
213  2.1200000000000D+00  0.0000000000000D+00  0.0000000000000D+00
214  2.1300000000000D+00  0.0000000000000D+00  0.0000000000000D+00
215  2.1400000000000D+00  0.0000000000000D+00  0.0000000000000D+00
216  2.1500000000000D+00  0.0000000000000D+00  0.0000000000000D+00
217  2.1600000000000D+00  0.0000000000000D+00  0.0000000000000D+00
218  2.1700000000000D+00  0.0000000000000D+00  0.0000000000000D+00
219  2.1800000000000D+00  0.0000000000000D+00  0.0000000000000D+00
220  2.1900000000000D+00  0.0000000000000D+00  0.0000000000000D+00
221  2.2000000000000D+00  0.0000000000000D+00  0.0000000000000D+00
222  2.2100000000000D+00  0.0000000000000D+00  0.0000000000000D+00
223  2.2200000000000D+00  0.0000000000000D+00  0.0000000000000D+00
224  2.2300000000000D+00  0.0000000000000D+00  0.0000000000000D+00
225  2.2400000000000D+00  0.0000000000000D+00  0.0000000000000D+00
226  2.2500000000000D+00  0.0000000000000D+00  0.0000000000000D+00
227  2.2600000000000D+00  0.0000000000000D+00  0.0000000000000D+00
228  2.2700000000000D+00  0.0000000000000D+00  0.0000000000000D+00
229  2.2800000000000D+00  0.0000000000000D+00  0.0000000000000D+00
230  2.2900000000000D+00  0.0000000000000D+00  0.0000000000000D+00
231  2.3000000000000D+00  0.0000000000000D+00  0.0000000000000D+00
232  2.3100000000000D+00  0.0000000000000D+00  0.0000000000000D+00
233  2.3200000000000D+00  0.0000000000000D+00  0.0000000000000D+00
234  2.3300000000000D+00  0.0000000000000D+00  0.0000000000000D+00
235  2.3400000000000D+00  0.0000000000000D+00  0.0000000000000D+00
236  2.3500000000000D+00  0.0000000000000D+00  0.0000000000000D+00
237  2.3600000000000D+00  0.0000000000000D+00  0.0000000000000D+00
238  2.3700000000000D+00  0.0000000000000D+00  0.0000000000000D+00
239  2.3800000000000D+00  0.0000000000000D+00  0.0000000000000D+00
240  2.3900000000000D+00  0.0000000000000D+00  0.0000000000000D+00
241  2.4000000000000D+00  0.0000000000000D+00  0.0000000000000D+00
242  2.4100000000000D+00  0.0000000000000D+00  0.0000000000000D+00
243  2.4200000000000D+00  0.0000000000000D+00  0.0000000000000D+00
244  2.4300000000000D+00  0.0000000000000D+00  0.0000000000000D+00
245  2.4400000000000D+00  0.0000000000000D+00  0.0000000000000D+00
246  2.4500000000000D+00  0.0000000000000D+00  0.0000000000000D+00
247  2.4600000000000D+00  0.0000000000000D+00  0.0000000000000D+00
248  2.4700000000000D+00  0.0000000000000D+00  0.0000000000000D+00
249  2.4800000000000D+00  0.0000000000000D+00  0.0000000000000D+00
250  2.4900000000000D+00  0.0000000000000D+00  0.0000000000000D+00
251  2.5000000000000D+00  0.0000000000000D+00  0.0000000000000D+00
252  2.5100000000000D+00  0.0000000000000D+00  0.0000000000000D+00
253  2.5200000000000D+00  0.0000000000000D+00  0.0000000000000D+00
254  2.5300000000000D+00  0.0000000000000D+00  0.0000000000000D+00
255  2.5400000000000D+00  0.0000000000000D+00  0.0000000000000D+00
256  2.5500000000000D+00  0.0000000000000D+00  0.0000000000000D+00
257  2.5600000000000D+00  0.0000000000000D+00  0.0000000000000D+00
258  2.5700000000000D+00  0.0000000000000D+00  0.0000000000000D+00
259  2.5800000000000D+00  0.0000000000000D+00  0.0000000000000D+00
260  2.5900000000000D+00  0.0000000000000D+00  0.0000000000000D+00
261  2.6000000000000D+00  0.0000000000000D+00  0.0000000000000D+00
262  2.6100000000000D+00  0.0000000000000D+00  0.0000000000000D+00
263  2.6200000000000D+00  0.0000000000000D+00  0.0000000000000D+00
264  2.6300000000000D+00  0.0000000000000D+00  0.0000000000000D+00
265  2.6400000000000D+00  0.0000000000000D+00  0.0000000000000D+00
266  2.6500000000000D+00  0.0000000000000D+00  0.0000000000000D+00
267  2.6600000000000D+00  0.0000000000000D+00  0.0000000000000D+00
268  2.6700000000000D+00  0.0000000000000D+00  0.0000000000000D+00
269  2.6800000000000D+00  0.0000000000000D+00  0.0000000000000D+00
270  2.6900000000000D+00  0.0000000000000D+00  0.0000000000000D+00
271  2.7000000000000D+00  0.0000000000000D+00  0.0000000000000D+00
272  2.7100000000000D+00  0.0000000000000D+00  0.0000000000000D+00
273  2.7200000000000D+00  0.0000000000000D+00  0.0000000000000D+00
274  2.7300000000000D+00  0.0000000000000D+00  0.0000000000000D+00
275  2.7400000000000D+00  0.0000000000000D+00  0.0000000000000D+00
276  2.7500000000000D+00  0.0000000000000D+00  0.0000000000000D+00
277  2.7600000000000D+00  0.0000000000000D+00  0.0000000000000D+00
278  2.7700000000000D+00  0.0000000000000D+00  0.0000000000000D+00
279  2.7800000000000D+00  0.0000000000000D+00  0.0000000000000D+00
280  2.7900000000000D+00  0.0000000000000D+00  0.0000000000000D+00
281  2.8000000000000D+00  0.0000000000000D+00  0.0000000000000D+00
282  2.8100000000000D+00  0.0000000000000D+00  0.0000000000000D+00
283  2.8200000000000D+00  0.0000000000000D+00  0.0000000000000D+00
284  2.8300000000000D+00  0.0000000000000D+00  0.0000000000000D+00
285  2.8400000000000D+00  0.0000000000000D+00  0.0000000000000D+00
286  2.8500000000000D+00  0.0000000000000D+00  0.0000000000000D+00
287  2.8600000000000D+00  0.0000000000000D+00  0.0000000000000D+00
288  2.8700000000000D+00  0.0000000000000D+00  0.0000000000000D+00
289  2.8800000000000D+00  0.0000000000000D+00  0.0000000000000D+00
290  2.8900000000000D+00  0.0000000000000D+00  0.0000000000000D+00
291  2.9000000000000D+00  0.0000000000000D+00  0.0000000000000D+00
292  2.9100000000000D+00  0.0000000000000D+00  0.0000000000000D+00
293  2.9200000000000D+00  0.0000000000000D+00  0.0000000000000D+00
294  2.9300000000000D+00  0.0000000000000D+00  0.0000000000000D+00
295  2.9400000000000D+00  0.0000000000000D+00  0.0000000000000D+00
296  2.9500000000000D+00  0.0000000000000D+00  0.0000000000000D+00
297  2.9600000000000D+00  0.0000000000000D+00  0.0000000000000D+00
298  2.9700000000000D+00  0.0000000000000D+00  0.0000000000000D+00
299  2.9800000000000D+00  0.0000000000000D+00  0.0000000000000D+00
300  2.9900000000000D+00  0.0000000000000D+00  0.0000000000000D+00
301  3.0000000000000D+00  0.0000000000000D+00  0.0000000000000D+00
302  3.0100000000000D+00  0.0000000000000D+00  0.0000000000000D+00
303  3.0200000000000D+00  0.0000000000000D+00  0.0000000000000D+00
304  3.0300000000000D+00  0.0000000000000D+00  0.0000000000000D+00
305  3.0400000000000D+00  0.0000000000000D+00  0.0000000000000D+00
306  3.0500000000000D+00  0.0000000000000D+00  0.0000000000000D+00
307  3.0600000000000D+00  0.0000000000000D+00  0.0000000000000D+00
308  3.0700000000000D+00  0.0000000000000D+00  0.0000000000000D+00
309  3.0800000000000D+00  0.0000000000000D+00  0.0000000000000D+00
310  3.0900000000000D+00  0.0000000000000D+00  0.0000000000000D+00
311  3.1000000000000D+00  0.0000000000000D+00  0.0000000000000D+00
312  3.1100000000000D+00  0.0000000000000D+00  0.0000000000000D+00
313  3.1200000000000D+00  0.0000000000000D+00  0.0000000000000D+00
314  3.1300000000000D+00  0.0000000000000D+00  0.0000000000000D+00
315  3.1400000000000D+00  0.0000000000000D+00  0.0000000000000D+00
316  3.1500000000000D+00  0.0000000000000D+00  0.0000000000000D+00
317  3.1600000000000D+00  0.0000000000000D+00  0.0000000000000D+00
318  3.1700000000000D+00  0.0000000000000D+00  0.0000000000000D+00
319  3.1800000000000D+00  0.0000000000000D+00  0.0000000000000D+00
320  3.1900000000000D+00  0.0000000000000D+00  0.0000000000000D+00
321  3.2000000000000D+00  0.0000000000000D+00  0.0000000000000D+00
322  3.2100000000000D+00  0.0000000000000D+00  0.0000000000000D+00
323  3.2200000000000D+00  0.0000000000000D+00  0.0000000000000D+00
324  3.2300000000000D+00  0.0000000000000D+00  0.0000000000000D+00
325  3.2400000000000D+00  0.0000000000000D+00  0.0000000000000D+00
326  3.2500000000000D+00  0.0000000000000D+00  0.0000000000000D+00
327  3.2600000000000D+00  0.0000000000000D+00  0.0000000000000D+00
328  3.2700000000000D+00  0.0000000000000D+00  0.0000000000000D+00
329  3.2800000000000D+00  0.0000000000000D+00  0.0000000000000D+00
330  3.2900000000000D+00  0.0000000000000D+00  0.0000000000000D+00
331  3.3000000000000D+00  0.0000000000000D+00  0.0000000000000D+00
332  3.3100000000000D+00  0.0000000000000D+00  0.0000000000000D+00
333  3.3200000000000D+00  0.0000000000000D+00  0.0000000000000D+00
334  3.3300000000000D+00  0.0000000000000D+00  0.0000000000000D+00
335  3.3400000000000D+00  0.0000000000000D+00  0.0000000000000D+00
336  3.3500000000000D+00  0.0000000000000D+00  0.0000000000000D+00
337  3.3600000000000D+00  0.0000000000000D+00  0.0000000000000D+00
338  3.3700000000000D+00  0.0000000000000D+00  0.0000000000000D+00
339  3.3800000000000D+00  0.0000000000000D+00  0.0000000000000D+00
340  3.3900000000000D+00  0.0000000000000D+00  0.0000000000000D+00
341  3.4000000000000D+00  0.0000000000000D+00  0.0000000000000D+00
342  3.4100000000000D+00  0.0000000000000D+00  0.0000000000000D+00
343  3.4200000000000D+00  0.0000000000000D+00  0.0000000000000D+00
344  3.4300000000000D+00  0.0000000000000D+00  0.0000000000000D+00
345  3.4400000000000D+00  0.0000000000000D+00  0.0000000000000D+00
346  3.4500000000000D+00  0.0000000000000D+00  0.0000000000000D+00
347  3.4600000000000D+00  0.0000000000000D+00  0.0000000000000D+00
348  3.4700000000000D+00  0.0000000000000D+00  0.0000000000000D+00
349  3.4800000000000D+00  0.0000000000000D+00  0.0000000000000D+00
350  3.4900000000000D+00  0.0000000000000D+00  0.0000000000000D+00
351  3.5000000000000D+00  0.0000000000000D+00  0.0000000000000D+00
352  3.5100000000000D+00  0.0000000000000D+00  0.0000000000000D+00
353  3.5200000000000D+00  0.0000000000000D+00  0.0000000000000D+00
354  3.5300000000000D+00  0.0000000000000D+00  0.0000000000000D+00
355  3.5400000000000D+00  0.0000000000000D+00  0.0000000000000D+00
356  3.5500000000000D+00  0.0000000000000D+00  0.0000000000000D+00
357  3.5600000000000D+00  0.0000000000000D+00  0.0000000000000D+00
358  3.5700000000000D+00  0.0000000000000D+00  0.0000000000000D+00
359  3.5800000000000D+00  0.0000000000000D+00  0.0000000000000D+00
360  3.5900000000000D+00  0.0000000000000D+00  0.0000000000000D+00
361  3.6000000000000D+00  0.0000000000000D+00  0.0000000000000D+00
362  3.6100000000000D+00  0.0000000000000D+00  0.0000000000000D+00
363  3.6200000000000D+00  0.0000000000000D+00  0.0000000000000D+00
364  3.6300000000000D+00  0.0000000000000D+00  0.0000000000000D+00
365  3.6400000000000D+00  0.0000000000000D+00  0.0000000000000D+00
366  3.6500000000000D+00  0.0000000000000D+00  0.0000000000000D+00
367  3.6600000000000D+00  0.0000000000000D+00  0.0000000000000D+00
368  3.6700000000000D+00  0.0000000000000D+00  0.0000000000000D+00
369  3.6800000000000D+00  0.0000000000000D+00  0.0000000000000D+00
370  3.6900000000000D+00  0.0000000000000D+00  0.0000000000000D+00
371  3.7000000000000D+00  0.0000000000000D+00  0.0000000000000D+00
372  3.7100000000000D+00  0.0000000000000D+00  0.0000000000000D+00
373  3.7200000000000D+00  0.0000000000000D+00  0.0000000000000D+00
374  3.7300000000000D+00  0.0000000000000D+00  0.0000000000000D+00
375  3.7400000000000D+00  0.0000000000000D+00  0.0000000000000D+00
376  3.7500000000000D+00  0.0000000000000D+00  0.0000000000000D+00
377  3.7600000000000D+00  0.0000000000000D+00  0.0000000000000D+00
378  3.7700000000000D+00  0.0000000000000D+00  0.0000000000000D+00
379  3.7800000000000D+00  0.0000000000000D+00  0.0000000000000D+00
380  3.7900000000000D+00  0.0000000000000D+00  0.0000000000000D+00
381  3.8000000000000D+00  0.0000000000000D+00  0.0000000000000D+00
382  3.8100000000000D+00  0.0000000000000D+00  0.0000000000000D+00
383  3.8200000000000D+00  0.0000000000000D+00  0.0000000000000D+00
384  3.8300000000000D+00  0.0000000000000D+00  0.0000000000000D+00
385  3.8400000000000D+00  0.0000000000000D+00  0.0000000000000D+00
386  3.8500000000000D+00  0.0000000000000D+00  0.0000000000000D+00
387  3.8600000000000D+00  0.0000000000000D+00  0.0000000000000D+00
388  3.8700000000000D+00  0.0000000000000D+00  0.0000000000000D+00
389  3.8800000000000D+00  0.0000000000000D+00  0.0000000000000D+00
390  3.8900000000000D+00  0.0000000000000D+00  0.0000000000000D+00
391  3.9000000000000D+00  0.0000000000000D+00  0.0000000000000D+00
392  3.9100000000000D+00  0.0000000000000D+00  0.0000000000000D+00
393  3.9200000000000D+00  0.0000000000000D+00  0.0000000000000D+00
394  3.9300000000000D+00  0.0000000000000D+00  0.0000000000000D+00
395  3.9400000000000D+00  0.0000000000000D+00  0.0000000000000D+00
396  3.9500000000000D+00  0.0000000000000D+00  0.0000000000000D+00
397  3.9600000000000D+00  0.0000000000000D+00  0.0000000000000D+00
398  3.9700000000000D+00  0.0000000000000D+00  0.0000000000000D+00
399  3.9800000000000D+00  0.0000000000000D+00  0.0000000000000D+00
400  3.9900000000000D+00  0.0000000000000D+00  0.0000000000000D+00
401  4.0000000000000D+00  0.0000000000000D+00  0.0000000000000D+00
402  4.0100000000000D+00  0.0000000000000D+00  0.0000000000000D+00
403  4.0200000000000D+00  0.0000000000000D+00  0.0000000000000D+00
404  4.0300000000000D+00  0.0000000000000D+00  0.0000000000000D+00
405  4.0400000000000D+00  0.0000000000000D+00  0.0000000000000D+00
406  4.0500000000000D+00  0.0000000000000D+00  0.0000000000000D+00
407  4.0600000000000D+00  0.0000000000000D+00  0.0000000000000D+00
408  4.0700000000000D+00  0.0000000000000D+00  0.0000000000000D+00
409  4.0800000000000D+00  0.0000000000000D+00  0.0000000000000D+00
410  4.0900000000000D+00  0.0000000000000D+00  0.0000000000000D+00
411  4.1000000000000D+00  0.0000000000000D+00  0.0000000000000D+00
412  4.1100000000000D+00  0.0000000000000D+00  0.0000000000000D+00
413  4.1200000000000D+00  0.0000000000000D+00  0.0000000000000D+00
414  4.1300000000000D+00  0.0000000000000D+00  0.0000000000000D+00
415  4.1400000000000D+00  0.0000000000000D+00  0.0000000000000D+00
416  4.1500000000000D+00  0.0000000000000D+00  0.0000000000000D+00
417  4.1600000000000D+00  0.0000000000000D+00  0.0000000000000D+00
418  4.1700000000000D+00  0.0000000000000D+00  0.0000000000000D+00
419  4.1800000000000D+00  0.0000000000000D+00  0.0000000000000D+00
420  4.1900000000000D+00  0.0000000000000D+00  0.0000000000000D+00
421  4.2000000000000D+00  0.0000000000000D+00  0.0000000000000D+00
422  4.2100000000000D+00  0.0000000000000D+00  0.0000000000000D+00
423  4.2200000000000D+00  0.0000000000000D+00  0.0000000000000D+00
424  4.2300000000000D+00  0.0000000000000D+00  0.0000000000000D+00
425  4.2400000000000D+00  0.0000000000000D+00  0.0000000000000D+00
426  4.2500000000000D+00  0.0000000000000D+00  0.0000000000000D+00
427  4.2600000000000D+00  0.0000000000000D+00  0.0000000000000D+00
428  4.2700000000000D+00  0.0000000000000D+00  0.0000000000000D+00
429  4.2800000000000D+00  0.0000000000000D+00  0.0000000000000D+00
430  4.2900000000000D+00  0.0000000000000D+00  0.0000000000000D+00
431  4.3000000000000D+00  0.0000000000000D+00  0.0000000000000D+00
432  4.3100000000000D+00  0.0000000000000D+00  0.0000000000000D+00
433  4.3200000000000D+00  0.0000000000000D+00  0.0000000000000D+00
434  4.3300000000000D+00  0.0000000000000D+00  0.0000000000000D+00
435  4.3400000000000D+00  0.0000000000000D+00  0.0000000000000D+00
436  4.3500000000000D+00  0.0000000000000D+00  0.0000000000000D+00
437  4.3600000000000D+00  0.0000000000000D+00  0.0000000000000D+00
438  4.3700000000000D+00  0.0000000000000D+00  0.0000000000000D+00
439  4.3800000000000D+00  0.0000000000000D+00  0.0000000000000D+00
440  4.3900000000000D+00  0.0000000000000D+00  0.0000000000000D+00
441  4.4000000000000D+00  0.0000000000000D+00  0.0000000000000D+00
442  4.4100000000000D+00  0.0000000000000D+00  0.0000000000000D+00
443  4.4200000000000D+00  0.0000000000000D+00  0.0000000000000D+00