Pt    ONCVPSP-3.2.3.1  r_core=   1.45722   1.45722   1.45722   1.91724
78.0000     18.0000      170503    zatom,zion,pspd
8      11   3     4   500     0    pspcod,pspxc,lmax,lloc,mmax,r2well
4.99000000  5.00000000  0.00000000    rchrg fchrg qchrg
2     2     2     2     0    nproj
1     1           extension_switch
0                         1.7920610840656D+01  1.7277904626614D+00
1  0.0000000000000D+00 -3.6549874238290D-10  1.9395970940472D-10
2  1.0000000000000D-02  8.1686457613717D-02 -1.9772567794469D-02
3  2.0000000000000D-02  1.6317213416030D-01 -3.9432841391566D-02
4  3.0000000000000D-02  2.4425689477439D-01 -5.8868787640769D-02
5  4.0000000000000D-02  3.2474188985675D-01 -7.7968880534204D-02
6  5.0000000000000D-02  4.0443018260498D-01 -9.6622330740104D-02
7  6.0000000000000D-02  4.8312736149730D-01 -1.1471930016464D-01
8  7.0000000000000D-02  5.6064213456759D-01 -1.3215110338068D-01
9  8.0000000000000D-02  6.3678690267490D-01 -1.4881039795611D-01
10  9.0000000000000D-02  7.1137830935414D-01 -1.6459136589987D-01
11  1.0000000000000D-01  7.8423776522752D-01 -1.7938988861392D-01
12  1.1000000000000D-01  8.5519194535382D-01 -1.9310371788621D-01
13  1.2000000000000D-01  9.2407325828646D-01 -2.0563264557725D-01
14  1.3000000000000D-01  9.9072028599692D-01 -2.1687867473492D-01
15  1.4000000000000D-01  1.0549781941898D+00 -2.2674619491377D-01
16  1.5000000000000D-01  1.1166991128864D+00 -2.3514216447218D-01
17  1.6000000000000D-01  1.1757424874785D+00 -2.4197630256905D-01
18  1.7000000000000D-01  1.2319754007487D+00 -2.4716129347994D-01
19  1.8000000000000D-01  1.2852728666168D+00 -2.5061300569773D-01
20  1.9000000000000D-01  1.3355180965973D+00 -2.5225072807512D-01
21  2.0000000000000D-01  1.3826027401394D+00 -2.5199742500563D-01
22  2.1000000000000D-01  1.4264271001678D+00 -2.4978001232684D-01
23  2.2000000000000D-01  1.4669003252461D+00 -2.4552965526733D-01
24  2.3000000000000D-01  1.5039405798479D+00 -2.3918208934918D-01
25  2.4000000000000D-01  1.5374751942389D+00 -2.3067796470534D-01
26  2.5000000000000D-01  1.5674407954522D+00 -2.1996321378018D-01
27  2.6000000000000D-01  1.5937834207777D+00 -2.0698944185695D-01
28  2.7000000000000D-01  1.6164586150859D+00 -1.9171433930480D-01
29  2.8000000000000D-01  1.6354315131715D+00 -1.7410211386581D-01
30  2.9000000000000D-01  1.6506769081376D+00 -1.5412394071729D-01
31  3.0000000000000D-01  1.6621793066398D+00 -1.3175842745447D-01
32  3.1000000000000D-01  1.6699329715965D+00 -1.0699209054979D-01
33  3.2000000000000D-01  1.6739419527263D+00 -7.9819839268742D-02
34  3.3000000000000D-01  1.6742201050197D+00 -5.0245462463960D-02
35  3.4000000000000D-01  1.6707910949886D+00 -1.8282113140094D-02
36  3.5000000000000D-01  1.6636883942627D+00  1.6047214810436D-02
37  3.6000000000000D-01  1.6529552598375D+00  5.2709223748516D-02
38  3.7000000000000D-01  1.6386447000078D+00  9.1659869747154D-02
39  3.8000000000000D-01  1.6208194247753D+00  1.3284394714165D-01
40  3.9000000000000D-01  1.5995517792745D+00  1.7619470720762D-01
41  4.0000000000000D-01  1.5749236585541D+00  2.2163351819129D-01
42  4.1000000000000D-01  1.5470264018573D+00  2.6906957402155D-01
43  4.2000000000000D-01  1.5159606643897D+00  3.1839965905147D-01
44  4.3000000000000D-01  1.4818362644417D+00  3.6950797610289D-01
45  4.4000000000000D-01  1.4447720036494D+00  4.2226604491757D-01
46  4.5000000000000D-01  1.4048954581374D+00  4.7653267785087D-01
47  4.6000000000000D-01  1.3623427382906D+00  5.3215403927596D-01
48  4.7000000000000D-01  1.3172582149565D+00  5.8896379469811D-01
49  4.8000000000000D-01  1.2697942099766D+00  6.4678335501278D-01
50  4.9000000000000D-01  1.2201106490966D+00  7.0542222067588D-01
51  5.0000000000000D-01  1.1683746755047D+00  7.6467842979769D-01
52  5.1000000000000D-01  1.1147602224941D+00  8.2433911332503D-01
53  5.2000000000000D-01  1.0594475440411D+00  8.8418115954670D-01
54  5.3000000000000D-01  1.0026227024314D+00  9.4397198915141D-01
55  5.4000000000000D-01  9.4447701245028D-01  1.0034704409964D+00
56  5.5000000000000D-01  8.8520644207303D-01  1.0624277676118D+00
57  5.6000000000000D-01  8.2501097005132D-01  1.1205887382916D+00
58  5.7000000000000D-01  7.6409390127548D-01  1.1776928464064D+00
59  5.8000000000000D-01  7.0266114130597D-01  1.2334756163401D+00
60  5.9000000000000D-01  6.4092043199594D-01  1.2876700042061D+00
61  6.0000000000000D-01  5.7908055067003D-01  1.3400078852584D+00
62  6.1000000000000D-01  5.1735047587121D-01  1.3902216196927D+00
63  6.2000000000000D-01  4.5593852323323D-01  1.4380456873451D+00
64  6.3000000000000D-01  3.9505145557398D-01  1.4832183806563D+00
65  6.4000000000000D-01  3.3489357182269D-01  1.5254835441971D+00
66  6.5000000000000D-01  2.7566577989166D-01  1.5645923480557D+00
67  6.6000000000000D-01  2.1756465906670D-01  1.6003050814820D+00
68  6.7000000000000D-01  1.6078151791336D-01  1.6323929523957D+00
69  6.8000000000000D-01  1.0550145407771D-01  1.6606398776850D+00
70  6.9000000000000D-01  5.1902422683661D-02  1.6848442486854D+00
71  7.0000000000000D-01  1.5432029630161D-04  1.7048206558293D+00
72  7.1000000000000D-01 -4.9581908378050D-02  1.7204015562137D+00
73  7.2000000000000D-01 -9.7155133752778D-02  1.7314388677506D+00
74  7.3000000000000D-01 -1.4242486722383D-01  1.7378054736539D+00
75  7.4000000000000D-01 -1.8526204229620D-01  1.7393966212742D+00
76  7.5000000000000D-01 -2.2554974373769D-01  1.7361311997323D+00
77  7.6000000000000D-01 -2.6318387770668D-01  1.7279528814146D+00
78  7.7000000000000D-01 -2.9807377606846D-01  1.7148311131861D+00
79  7.8000000000000D-01 -3.3014272846418D-01  1.6967619441411D+00
80  7.9000000000000D-01 -3.5932843612714D-01  1.6737686778422D+00
81  8.0000000000000D-01 -3.8558338195155D-01  1.6459023382915D+00
82  8.1000000000000D-01 -4.0887511190418D-01  1.6132419403207D+00
83  8.2000000000000D-01 -4.2918642352509D-01  1.5758945566671D+00
84  8.3000000000000D-01 -4.4651545798543D-01  1.5339951757081D+00
85  8.4000000000000D-01 -4.6087569294969D-01  1.4877063456424D+00
86  8.5000000000000D-01 -4.7229583432045D-01  1.4372176028090D+00
87  8.6000000000000D-01 -4.8081960581723D-01  1.3827446838139D+00
88  8.7000000000000D-01 -4.8650543624724D-01  1.3245285231596D+00
89  8.8000000000000D-01 -4.8942604525585D-01  1.2628340401301D+00
90  8.9000000000000D-01 -4.8966792928744D-01  1.1979487207448D+00
91  9.0000000000000D-01 -4.8733075043192D-01  1.1301810026370D+00
92  9.1000000000000D-01 -4.8252663176812D-01  1.0598584727139D+00
93  9.2000000000000D-01 -4.7537936372942D-01  9.8732588938708D-01
94  9.3000000000000D-01 -4.6602352690015D-01  9.1294304300503D-01
95  9.4000000000000D-01 -4.5460353748951D-01  8.3708246984244D-01
96  9.5000000000000D-01 -4.4127262251435D-01  7.6012703658968D-01
97  9.6000000000000D-01 -4.2619173244005D-01  6.8246741370936D-01
98  9.7000000000000D-01 -4.0952839967088D-01  6.0449945726915D-01
99  9.8000000000000D-01 -3.9145555184276D-01  5.2662151990797D-01
100  9.9000000000000D-01 -3.7215028932183D-01  4.4923171239446D-01
101  1.0000000000000D+00 -3.5179263669106D-01  3.7272513785461D-01
102  1.0100000000000D+00 -3.3056427824653D-01  2.9749112106384D-01
103  1.0200000000000D+00 -3.0864728766875D-01  2.2391045529201D-01
104  1.0300000000000D+00 -2.8622286205549D-01  1.5235268901343D-01
105  1.0400000000000D+00 -2.6347007039625D-01  8.3173474329492D-02
106  1.0500000000000D+00 -2.4056462634968D-01  1.6711998250016D-02
107  1.0600000000000D+00 -2.1767769485222D-01 -4.6711482978709D-02
108  1.0700000000000D+00 -1.9497474159681D-01 -1.0679798761491D-01
109  1.0800000000000D+00 -1.7261443386282D-01 -1.6327201277851D-01
110  1.0900000000000D+00 -1.5074760044621D-01 -2.1588358379881D-01
111  1.1000000000000D+00 -1.2951625768436D-01 -2.6441013477169D-01
112  1.1100000000000D+00 -1.0905270766789D-01 -3.0865820872264D-01
113  1.1200000000000D+00 -8.9478713690871D-02 -3.4846496824009D-01
114  1.1300000000000D+00 -7.0904756966518D-02 -3.8369950984865D-01
115  1.1400000000000D+00 -5.3429377450446D-02 -4.1426397814608D-01
116  1.1500000000000D+00 -3.7138600604607D-02 -4.4009447806495D-01
117  1.1600000000000D+00 -2.2105450426462D-02 -4.6116178707160D-01
118  1.1700000000000D+00 -8.3895479625237D-03 -4.7747187162017D-01
119  1.1800000000000D+00  3.9632067044755D-03 -4.8906621495879D-01
120  1.1900000000000D+00  1.4920872254107D-02 -4.9602196619407D-01
121  1.2000000000000D+00  2.4465628392069D-02 -4.9845192367870D-01
122  1.2100000000000D+00  3.2593868456170D-02 -4.9650436841720D-01
123  1.2200000000000D+00  3.9316228917873D-02 -4.9036276469080D-01
124  1.2300000000000D+00  4.4657564167271D-02 -4.8024534909775D-01
125  1.2400000000000D+00  4.8656875587191D-02 -4.6640463049843D-01
126  1.2500000000000D+00  5.1367204648480D-02 -4.4912682492224D-01
127  1.2600000000000D+00  5.2855500979790D-02 -4.2873125207615D-01
128  1.2700000000000D+00  5.3202486510440D-02 -4.0556974872953D-01
129  1.2800000000000D+00  5.2502485466262D-02 -3.8002600518411D-01
130  1.2900000000000D+00  5.0863302849065D-02 -3.5251506218512D-01
131  1.3000000000000D+00  4.8405779180580D-02 -3.2348188114978D-01
132  1.3100000000000D+00  4.5265362484989D-02 -2.9340571711842D-01
133  1.3200000000000D+00  4.1587801756056D-02 -2.6278757443664D-01
134  1.3300000000000D+00  3.7522145654112D-02 -2.3213003266143D-01
135  1.3400000000000D+00  3.3212755195770D-02 -2.0191498839089D-01
136  1.3500000000000D+00  2.8795111313407D-02 -1.7259243643306D-01
137  1.3600000000000D+00  2.4395922211203D-02 -1.4458181213087D-01
138  1.3700000000000D+00  2.0131152060152D-02 -1.1826717705955D-01
139  1.3800000000000D+00  1.6104867658651D-02 -9.3994747291296D-02
140  1.3900000000000D+00  1.2408050773501D-02 -7.2070247749922D-02
141  1.4000000000000D+00  9.1175795973422D-03 -5.2756683951995D-02
142  1.4100000000000D+00  6.2966177515333D-03 -3.6279469736838D-02
143  1.4200000000000D+00  3.9886528771802D-03 -2.2795983080919D-02
144  1.4300000000000D+00  2.2105178826343D-03 -1.2364866051293D-02
145  1.4400000000000D+00  1.0182198093142D-03 -5.2808097059077D-03
146  1.4500000000000D+00  4.2395273058468D-04 -1.6349712158989D-03
147  1.4600000000000D+00  1.7024804480528D-04 -2.8706055282986D-04
148  1.4700000000000D+00  3.4970481524592D-05  5.5046314419743D-06
149  1.4800000000000D+00 -1.1487133071147D-05 -1.4822564717716D-05
150  1.4900000000000D+00 -3.6162738278460D-06 -8.5572334188530D-06
151  1.5000000000000D+00  3.1810025249150D-06  1.0259748538030D-06
152  1.5100000000000D+00  1.4884099511862D-07  9.2981742116817D-08
153  1.5200000000000D+00 -6.3318983695048D-07  1.4505862477900D-06
154  1.5300000000000D+00  0.0000000000000D+00  0.0000000000000D+00
155  1.5400000000000D+00  0.0000000000000D+00  0.0000000000000D+00
156  1.5500000000000D+00  0.0000000000000D+00  0.0000000000000D+00
157  1.5600000000000D+00  0.0000000000000D+00  0.0000000000000D+00
158  1.5700000000000D+00  0.0000000000000D+00  0.0000000000000D+00
159  1.5800000000000D+00  0.0000000000000D+00  0.0000000000000D+00
160  1.5900000000000D+00  0.0000000000000D+00  0.0000000000000D+00
161  1.6000000000000D+00  0.0000000000000D+00  0.0000000000000D+00
162  1.6100000000000D+00  0.0000000000000D+00  0.0000000000000D+00
163  1.6200000000000D+00  0.0000000000000D+00  0.0000000000000D+00
164  1.6300000000000D+00  0.0000000000000D+00  0.0000000000000D+00
165  1.6400000000000D+00  0.0000000000000D+00  0.0000000000000D+00
166  1.6500000000000D+00  0.0000000000000D+00  0.0000000000000D+00
167  1.6600000000000D+00  0.0000000000000D+00  0.0000000000000D+00
168  1.6700000000000D+00  0.0000000000000D+00  0.0000000000000D+00
169  1.6800000000000D+00  0.0000000000000D+00  0.0000000000000D+00
170  1.6900000000000D+00  0.0000000000000D+00  0.0000000000000D+00
171  1.7000000000000D+00  0.0000000000000D+00  0.0000000000000D+00
172  1.7100000000000D+00  0.0000000000000D+00  0.0000000000000D+00
173  1.7200000000000D+00  0.0000000000000D+00  0.0000000000000D+00
174  1.7300000000000D+00  0.0000000000000D+00  0.0000000000000D+00
175  1.7400000000000D+00  0.0000000000000D+00  0.0000000000000D+00
176  1.7500000000000D+00  0.0000000000000D+00  0.0000000000000D+00
177  1.7600000000000D+00  0.0000000000000D+00  0.0000000000000D+00
178  1.7700000000000D+00  0.0000000000000D+00  0.0000000000000D+00
179  1.7800000000000D+00  0.0000000000000D+00  0.0000000000000D+00
180  1.7900000000000D+00  0.0000000000000D+00  0.0000000000000D+00
181  1.8000000000000D+00  0.0000000000000D+00  0.0000000000000D+00
182  1.8100000000000D+00  0.0000000000000D+00  0.0000000000000D+00
183  1.8200000000000D+00  0.0000000000000D+00  0.0000000000000D+00
184  1.8300000000000D+00  0.0000000000000D+00  0.0000000000000D+00
185  1.8400000000000D+00  0.0000000000000D+00  0.0000000000000D+00
186  1.8500000000000D+00  0.0000000000000D+00  0.0000000000000D+00
187  1.8600000000000D+00  0.0000000000000D+00  0.0000000000000D+00
188  1.8700000000000D+00  0.0000000000000D+00  0.0000000000000D+00
189  1.8800000000000D+00  0.0000000000000D+00  0.0000000000000D+00
190  1.8900000000000D+00  0.0000000000000D+00  0.0000000000000D+00
191  1.9000000000000D+00  0.0000000000000D+00  0.0000000000000D+00
192  1.9100000000000D+00  0.0000000000000D+00  0.0000000000000D+00
193  1.9200000000000D+00  0.0000000000000D+00  0.0000000000000D+00
194  1.9300000000000D+00  0.0000000000000D+00  0.0000000000000D+00
195  1.9400000000000D+00  0.0000000000000D+00  0.0000000000000D+00
196  1.9500000000000D+00  0.0000000000000D+00  0.0000000000000D+00
197  1.9600000000000D+00  0.0000000000000D+00  0.0000000000000D+00
198  1.9700000000000D+00  0.0000000000000D+00  0.0000000000000D+00
199  1.9800000000000D+00  0.0000000000000D+00  0.0000000000000D+00
200  1.9900000000000D+00  0.0000000000000D+00  0.0000000000000D+00
201  2.0000000000000D+00  0.0000000000000D+00  0.0000000000000D+00
202  2.0100000000000D+00  0.0000000000000D+00  0.0000000000000D+00
203  2.0200000000000D+00  0.0000000000000D+00  0.0000000000000D+00
204  2.0300000000000D+00  0.0000000000000D+00  0.0000000000000D+00
205  2.0400000000000D+00  0.0000000000000D+00  0.0000000000000D+00
206  2.0500000000000D+00  0.0000000000000D+00  0.0000000000000D+00
207  2.0600000000000D+00  0.0000000000000D+00  0.0000000000000D+00
208  2.0700000000000D+00  0.0000000000000D+00  0.0000000000000D+00
209  2.0800000000000D+00  0.0000000000000D+00  0.0000000000000D+00
210  2.0900000000000D+00  0.0000000000000D+00  0.0000000000000D+00
211  2.1000000000000D+00  0.0000000000000D+00  0.0000000000000D+00
212  2.1100000000000D+00  0.0000000000000D+00  0.0000000000000D+00
213  2.1200000000000D+00  0.0000000000000D+00  0.0000000000000D+00
214  2.1300000000000D+00  0.0000000000000D+00  0.0000000000000D+00
215  2.1400000000000D+00  0.0000000000000D+00  0.0000000000000D+00
216  2.1500000000000D+00  0.0000000000000D+00  0.0000000000000D+00
217  2.1600000000000D+00  0.0000000000000D+00  0.0000000000000D+00
218  2.1700000000000D+00  0.0000000000000D+00  0.0000000000000D+00
219  2.1800000000000D+00  0.0000000000000D+00  0.0000000000000D+00
220  2.1900000000000D+00  0.0000000000000D+00  0.0000000000000D+00
221  2.2000000000000D+00  0.0000000000000D+00  0.0000000000000D+00
222  2.2100000000000D+00  0.0000000000000D+00  0.0000000000000D+00
223  2.2200000000000D+00  0.0000000000000D+00  0.0000000000000D+00
224  2.2300000000000D+00  0.0000000000000D+00  0.0000000000000D+00
225  2.2400000000000D+00  0.0000000000000D+00  0.0000000000000D+00
226  2.2500000000000D+00  0.0000000000000D+00  0.0000000000000D+00
227  2.2600000000000D+00  0.0000000000000D+00  0.0000000000000D+00
228  2.2700000000000D+00  0.0000000000000D+00  0.0000000000000D+00
229  2.2800000000000D+00  0.0000000000000D+00  0.0000000000000D+00
230  2.2900000000000D+00  0.0000000000000D+00  0.0000000000000D+00
231  2.3000000000000D+00  0.0000000000000D+00  0.0000000000000D+00
232  2.3100000000000D+00  0.0000000000000D+00  0.0000000000000D+00
233  2.3200000000000D+00  0.0000000000000D+00  0.0000000000000D+00
234  2.3300000000000D+00  0.0000000000000D+00  0.0000000000000D+00
235  2.3400000000000D+00  0.0000000000000D+00  0.0000000000000D+00
236  2.3500000000000D+00  0.0000000000000D+00  0.0000000000000D+00
237  2.3600000000000D+00  0.0000000000000D+00  0.0000000000000D+00
238  2.3700000000000D+00  0.0000000000000D+00  0.0000000000000D+00
239  2.3800000000000D+00  0.0000000000000D+00  0.0000000000000D+00
240  2.3900000000000D+00  0.0000000000000D+00  0.0000000000000D+00
241  2.4000000000000D+00  0.0000000000000D+00  0.0000000000000D+00
242  2.4100000000000D+00  0.0000000000000D+00  0.0000000000000D+00
243  2.4200000000000D+00  0.0000000000000D+00  0.0000000000000D+00
244  2.4300000000000D+00  0.0000000000000D+00  0.0000000000000D+00
245  2.4400000000000D+00  0.0000000000000D+00  0.0000000000000D+00
246  2.4500000000000D+00  0.0000000000000D+00  0.0000000000000D+00
247  2.4600000000000D+00  0.0000000000000D+00  0.0000000000000D+00
248  2.4700000000000D+00  0.0000000000000D+00  0.0000000000000D+00
249  2.4800000000000D+00  0.0000000000000D+00  0.0000000000000D+00
250  2.4900000000000D+00  0.0000000000000D+00  0.0000000000000D+00
251  2.5000000000000D+00  0.0000000000000D+00  0.0000000000000D+00
252  2.5100000000000D+00  0.0000000000000D+00  0.0000000000000D+00
253  2.5200000000000D+00  0.0000000000000D+00  0.0000000000000D+00
254  2.5300000000000D+00  0.0000000000000D+00  0.0000000000000D+00
255  2.5400000000000D+00  0.0000000000000D+00  0.0000000000000D+00
256  2.5500000000000D+00  0.0000000000000D+00  0.0000000000000D+00
257  2.5600000000000D+00  0.0000000000000D+00  0.0000000000000D+00
258  2.5700000000000D+00  0.0000000000000D+00  0.0000000000000D+00
259  2.5800000000000D+00  0.0000000000000D+00  0.0000000000000D+00
260  2.5900000000000D+00  0.0000000000000D+00  0.0000000000000D+00
261  2.6000000000000D+00  0.0000000000000D+00  0.0000000000000D+00
262  2.6100000000000D+00  0.0000000000000D+00  0.0000000000000D+00
263  2.6200000000000D+00  0.0000000000000D+00  0.0000000000000D+00
264  2.6300000000000D+00  0.0000000000000D+00  0.0000000000000D+00
265  2.6400000000000D+00  0.0000000000000D+00  0.0000000000000D+00
266  2.6500000000000D+00  0.0000000000000D+00  0.0000000000000D+00
267  2.6600000000000D+00  0.0000000000000D+00  0.0000000000000D+00
268  2.6700000000000D+00  0.0000000000000D+00  0.0000000000000D+00
269  2.6800000000000D+00  0.0000000000000D+00  0.0000000000000D+00
270  2.6900000000000D+00  0.0000000000000D+00  0.0000000000000D+00
271  2.7000000000000D+00  0.0000000000000D+00  0.0000000000000D+00
272  2.7100000000000D+00  0.0000000000000D+00  0.0000000000000D+00
273  2.7200000000000D+00  0.0000000000000D+00  0.0000000000000D+00
274  2.7300000000000D+00  0.0000000000000D+00  0.0000000000000D+00
275  2.7400000000000D+00  0.0000000000000D+00  0.0000000000000D+00
276  2.7500000000000D+00  0.0000000000000D+00  0.0000000000000D+00
277  2.7600000000000D+00  0.0000000000000D+00  0.0000000000000D+00
278  2.7700000000000D+00  0.0000000000000D+00  0.0000000000000D+00
279  2.7800000000000D+00  0.0000000000000D+00  0.0000000000000D+00
280  2.7900000000000D+00  0.0000000000000D+00  0.0000000000000D+00
281  2.8000000000000D+00  0.0000000000000D+00  0.0000000000000D+00
282  2.8100000000000D+00  0.0000000000000D+00  0.0000000000000D+00
283  2.8200000000000D+00  0.0000000000000D+00  0.0000000000000D+00
284  2.8300000000000D+00  0.0000000000000D+00  0.0000000000000D+00
285  2.8400000000000D+00  0.0000000000000D+00  0.0000000000000D+00
286  2.8500000000000D+00  0.0000000000000D+00  0.0000000000000D+00
287  2.8600000000000D+00  0.0000000000000D+00  0.0000000000000D+00
288  2.8700000000000D+00  0.0000000000000D+00  0.0000000000000D+00
289  2.8800000000000D+00  0.0000000000000D+00  0.0000000000000D+00
290  2.8900000000000D+00  0.0000000000000D+00  0.0000000000000D+00
291  2.9000000000000D+00  0.0000000000000D+00  0.0000000000000D+00
292  2.9100000000000D+00  0.0000000000000D+00  0.0000000000000D+00
293  2.9200000000000D+00  0.0000000000000D+00  0.0000000000000D+00
294  2.9300000000000D+00  0.0000000000000D+00  0.0000000000000D+00
295  2.9400000000000D+00  0.0000000000000D+00  0.0000000000000D+00
296  2.9500000000000D+00  0.0000000000000D+00  0.0000000000000D+00
297  2.9600000000000D+00  0.0000000000000D+00  0.0000000000000D+00
298  2.9700000000000D+00  0.0000000000000D+00  0.0000000000000D+00
299  2.9800000000000D+00  0.0000000000000D+00  0.0000000000000D+00
300  2.9900000000000D+00  0.0000000000000D+00  0.0000000000000D+00
301  3.0000000000000D+00  0.0000000000000D+00  0.0000000000000D+00
302  3.0100000000000D+00  0.0000000000000D+00  0.0000000000000D+00
303  3.0200000000000D+00  0.0000000000000D+00  0.0000000000000D+00
304  3.0300000000000D+00  0.0000000000000D+00  0.0000000000000D+00
305  3.0400000000000D+00  0.0000000000000D+00  0.0000000000000D+00
306  3.0500000000000D+00  0.0000000000000D+00  0.0000000000000D+00
307  3.0600000000000D+00  0.0000000000000D+00  0.0000000000000D+00
308  3.0700000000000D+00  0.0000000000000D+00  0.0000000000000D+00
309  3.0800000000000D+00  0.0000000000000D+00  0.0000000000000D+00
310  3.0900000000000D+00  0.0000000000000D+00  0.0000000000000D+00
311  3.1000000000000D+00  0.0000000000000D+00  0.0000000000000D+00
312  3.1100000000000D+00  0.0000000000000D+00  0.0000000000000D+00
313  3.1200000000000D+00  0.0000000000000D+00  0.0000000000000D+00
314  3.1300000000000D+00  0.0000000000000D+00  0.0000000000000D+00
315  3.1400000000000D+00  0.0000000000000D+00  0.0000000000000D+00
316  3.1500000000000D+00  0.0000000000000D+00  0.0000000000000D+00
317  3.1600000000000D+00  0.0000000000000D+00  0.0000000000000D+00
318  3.1700000000000D+00  0.0000000000000D+00  0.0000000000000D+00
319  3.1800000000000D+00  0.0000000000000D+00  0.0000000000000D+00
320  3.1900000000000D+00  0.0000000000000D+00  0.0000000000000D+00
321  3.2000000000000D+00  0.0000000000000D+00  0.0000000000000D+00
322  3.2100000000000D+00  0.0000000000000D+00  0.0000000000000D+00
323  3.2200000000000D+00  0.0000000000000D+00  0.0000000000000D+00
324  3.2300000000000D+00  0.0000000000000D+00  0.0000000000000D+00
325  3.2400000000000D+00  0.0000000000000D+00  0.0000000000000D+00
326  3.2500000000000D+00  0.0000000000000D+00  0.0000000000000D+00
327  3.2600000000000D+00  0.0000000000000D+00  0.0000000000000D+00
328  3.2700000000000D+00  0.0000000000000D+00  0.0000000000000D+00
329  3.2800000000000D+00  0.0000000000000D+00  0.0000000000000D+00
330  3.2900000000000D+00  0.0000000000000D+00  0.0000000000000D+00
331  3.3000000000000D+00  0.0000000000000D+00  0.0000000000000D+00
332  3.3100000000000D+00  0.0000000000000D+00  0.0000000000000D+00
333  3.3200000000000D+00  0.0000000000000D+00  0.0000000000000D+00
334  3.3300000000000D+00  0.0000000000000D+00  0.0000000000000D+00
335  3.3400000000000D+00  0.0000000000000D+00  0.0000000000000D+00
336  3.3500000000000D+00  0.0000000000000D+00  0.0000000000000D+00
337  3.3600000000000D+00  0.0000000000000D+00  0.0000000000000D+00
338  3.3700000000000D+00  0.0000000000000D+00  0.0000000000000D+00
339  3.3800000000000D+00  0.0000000000000D+00  0.0000000000000D+00
340  3.3900000000000D+00  0.0000000000000D+00  0.0000000000000D+00
341  3.4000000000000D+00  0.0000000000000D+00  0.0000000000000D+00
342  3.4100000000000D+00  0.0000000000000D+00  0.0000000000000D+00
343  3.4200000000000D+00  0.0000000000000D+00  0.0000000000000D+00
344  3.4300000000000D+00  0.0000000000000D+00  0.0000000000000D+00
345  3.4400000000000D+00  0.0000000000000D+00  0.0000000000000D+00
346  3.4500000000000D+00  0.0000000000000D+00  0.0000000000000D+00
347  3.4600000000000D+00  0.0000000000000D+00  0.0000000000000D+00
348  3.4700000000000D+00  0.0000000000000D+00  0.0000000000000D+00
349  3.4800000000000D+00  0.0000000000000D+00  0.0000000000000D+00
350  3.4900000000000D+00  0.0000000000000D+00  0.0000000000000D+00
351  3.5000000000000D+00  0.0000000000000D+00  0.0000000000000D+00
352  3.5100000000000D+00  0.0000000000000D+00  0.0000000000000D+00
353  3.5200000000000D+00  0.0000000000000D+00  0.0000000000000D+00
354  3.5300000000000D+00  0.0000000000000D+00  0.0000000000000D+00
355  3.5400000000000D+00  0.0000000000000D+00  0.0000000000000D+00
356  3.5500000000000D+00  0.0000000000000D+00  0.0000000000000D+00
357  3.5600000000000D+00  0.0000000000000D+00  0.0000000000000D+00
358  3.5700000000000D+00  0.0000000000000D+00  0.0000000000000D+00
359  3.5800000000000D+00  0.0000000000000D+00  0.0000000000000D+00
360  3.5900000000000D+00  0.0000000000000D+00  0.0000000000000D+00
361  3.6000000000000D+00  0.0000000000000D+00  0.0000000000000D+00
362  3.6100000000000D+00  0.0000000000000D+00  0.0000000000000D+00
363  3.6200000000000D+00  0.0000000000000D+00  0.0000000000000D+00
364  3.6300000000000D+00  0.0000000000000D+00  0.0000000000000D+00
365  3.6400000000000D+00  0.0000000000000D+00  0.0000000000000D+00
366  3.6500000000000D+00  0.0000000000000D+00  0.0000000000000D+00
367  3.6600000000000D+00  0.0000000000000D+00  0.0000000000000D+00
368  3.6700000000000D+00  0.0000000000000D+00  0.0000000000000D+00
369  3.6800000000000D+00  0.0000000000000D+00  0.0000000000000D+00
370  3.6900000000000D+00  0.0000000000000D+00  0.0000000000000D+00
371  3.7000000000000D+00  0.0000000000000D+00  0.0000000000000D+00
372  3.7100000000000D+00  0.0000000000000D+00  0.0000000000000D+00
373  3.7200000000000D+00  0.0000000000000D+00  0.0000000000000D+00
374  3.7300000000000D+00  0.0000000000000D+00  0.0000000000000D+00
375  3.7400000000000D+00  0.0000000000000D+00  0.0000000000000D+00
376  3.7500000000000D+00  0.0000000000000D+00  0.0000000000000D+00
377  3.7600000000000D+00  0.0000000000000D+00  0.0000000000000D+00
378  3.7700000000000D+00  0.0000000000000D+00  0.0000000000000D+00
379  3.7800000000000D+00  0.0000000000000D+00  0.0000000000000D+00
380  3.7900000000000D+00  0.0000000000000D+00  0.0000000000000D+00
381  3.8000000000000D+00  0.0000000000000D+00  0.0000000000000D+00
382  3.8100000000000D+00  0.0000000000000D+00  0.0000000000000D+00
383  3.8200000000000D+00  0.0000000000000D+00  0.0000000000000D+00
384  3.8300000000000D+00  0.0000000000000D+00  0.0000000000000D+00
385  3.8400000000000D+00  0.0000000000000D+00  0.0000000000000D+00
386  3.8500000000000D+00  0.0000000000000D+00  0.0000000000000D+00
387  3.8600000000000D+00  0.0000000000000D+00  0.0000000000000D+00
388  3.8700000000000D+00  0.0000000000000D+00  0.0000000000000D+00
389  3.8800000000000D+00  0.0000000000000D+00  0.0000000000000D+00
390  3.8900000000000D+00  0.0000000000000D+00  0.0000000000000D+00
391  3.9000000000000D+00  0.0000000000000D+00  0.0000000000000D+00
392  3.9100000000000D+00  0.0000000000000D+00  0.0000000000000D+00
393  3.9200000000000D+00  0.0000000000000D+00  0.0000000000000D+00
394  3.9300000000000D+00  0.0000000000000D+00  0.0000000000000D+00
395  3.9400000000000D+00  0.0000000000000D+00  0.0000000000000D+00
396  3.9500000000000D+00  0.0000000000000D+00  0.0000000000000D+00
397  3.9600000000000D+00  0.0000000000000D+00  0.0000000000000D+00
398  3.9700000000000D+00  0.0000000000000D+00  0.0000000000000D+00
399  3.9800000000000D+00  0.0000000000000D+00  0.0000000000000D+00
400  3.9900000000000D+00  0.0000000000000D+00  0.0000000000000D+00
401  4.0000000000000D+00  0.0000000000000D+00  0.0000000000000D+00
402  4.0100000000000D+00  0.0000000000000D+00  0.0000000000000D+00
403  4.0200000000000D+00  0.0000000000000D+00  0.0000000000000D+00
404  4.0300000000000D+00  0.0000000000000D+00  0.0000000000000D+00
405  4.0400000000000D+00  0.0000000000000D+00  0.0000000000000D+00
406  4.0500000000000D+00  0.0000000000000D+00  0.0000000000000D+00
407  4.0600000000000D+00  0.0000000000000D+00  0.0000000000000D+00
408  4.0700000000000D+00  0.0000000000000D+00  0.0000000000000D+00
409  4.0800000000000D+00  0.0000000000000D+00  0.0000000000000D+00
410  4.0900000000000D+00  0.0000000000000D+00  0.0000000000000D+00
411  4.1000000000000D+00  0.0000000000000D+00  0.0000000000000D+00
412  4.1100000000000D+00  0.0000000000000D+00  0.0000000000000D+00
413  4.1200000000000D+00  0.0000000000000D+00  0.0000000000000D+00
414  4.1300000000000D+00  0.0000000000000D+00  0.0000000000000D+00
415  4.1400000000000D+00  0.0000000000000D+00  0.0000000000000D+00
416  4.1500000000000D+00  0.0000000000000D+00  0.0000000000000D+00
417  4.1600000000000D+00  0.0000000000000D+00  0.0000000000000D+00
418  4.1700000000000D+00  0.0000000000000D+00  0.0000000000000D+00
419  4.1800000000000D+00  0.0000000000000D+00  0.0000000000000D+00
420  4.1900000000000D+00  0.0000000000000D+00  0.0000000000000D+00
421  4.2000000000000D+00  0.0000000000000D+00  0.0000000000000D+00
422  4.2100000000000D+00  0.0000000000000D+00  0.0000000000000D+00
423  4.2200000000000D+00  0.0000000000000D+00  0.0000000000000D+00
424  4.2300000000000D+00  0.0000000000000D+00  0.0000000000000D+00
425  4.2400000000000D+00  0.0000000000000D+00  0.0000000000000D+00
426  4.2500000000000D+00  0.0000000000000D+00  0.0000000000000D+00
427  4.2600000000000D+00  0.0000000000000D+00  0.0000000000000D+00
428  4.2700000000000D+00  0.0000000000000D+00  0.0000000000000D+00
429  4.2800000000000D+00  0.0000000000000D+00  0.0000000000000D+00
430  4.2900000000000D+00  0.0000000000000D+00  0.0000000000000D+00
431  4.3000000000000D+00  0.0000000000000D+00  0.0000000000000D+00
432  4.3100000000000D+00  0.0000000000000D+00  0.0000000000000D+00
433  4.3200000000000D+00  0.0000000000000D+00  0.0000000000000D+00
434  4.3300000000000D+00  0.0000000000000D+00  0.0000000000000D+00
435  4.3400000000000D+00  0.0000000000000D+00  0.0000000000000D+00
436  4.3500000000000D+00  0.0000000000000D+00  0.0000000000000D+00
437  4.3600000000000D+00  0.0000000000000D+00  0.0000000000000D+00
438  4.3700000000000D+00  0.0000000000000D+00  0.0000000000000D+00
439  4.3800000000000D+00  0.0000000000000D+00  0.0000000000000D+00
440  4.3900000000000D+00  0.0000000000000D+00  0.0000000000000D+00
441  4.4000000000000D+00  0.0000000000000D+00  0.0000000000000D+00
442  4.4100000000000D+00  0.0000000000000D+00  0.0000000000000D+00
443  4.4200000000000D+00  0.0000000000000D+00  0.0000000000000D+00