Ba    ONCVPSP  r_core=  2.15  1.91  2.15
56.0000     10.0000      161102    zatom,zion,pspd
8 -116133   2     4   600     0    pspcod,pspxc,lmax,lloc,mmax,r2well
5.99000000  5.00000000  0.00000000    rchrg fchrg qchrg
2     2     2     0     0    nproj
1                 extension_switch
0                         6.7172142274930D+00  6.8190271287868D-01
1  0.0000000000000D+00  5.6429028116867D-12 -1.6096643115637D-11
2  1.0000000000000D-02  2.6766559366288D-02 -1.2100971986594D-03
3  2.0000000000000D-02  5.3534733822274D-02 -2.4564418745000D-03
4  3.0000000000000D-02  8.0306056819504D-02 -3.7750440612752D-03
5  4.0000000000000D-02  1.0708189890983D-01 -5.2014399652580D-03
6  5.0000000000000D-02  1.3386338723568D-01 -6.7704576958631D-03
7  6.0000000000000D-02  1.6065132614441D-01 -8.5159861581331D-03
8  7.0000000000000D-02  1.8744611929494D-01 -1.0470748142105D-02
9  8.0000000000000D-02  2.1424769361894D-01 -1.2666078627974D-02
10  9.0000000000000D-02  2.4105542549215D-01 -1.5131709305818D-02
11  1.0000000000000D-01  2.6786806946265D-01 -1.7895560284806D-02
12  1.1000000000000D-01  2.9468368987350D-01 -2.0983539938952D-02
13  1.2000000000000D-01  3.2149959570592D-01 -2.4419353805140D-02
14  1.3000000000000D-01  3.4831227895712D-01 -2.8224323414004D-02
15  1.4000000000000D-01  3.7511735685324D-01 -3.2417215895860D-02
16  1.5000000000000D-01  4.0190951818319D-01 -3.7014085161802D-02
17  1.6000000000000D-01  4.2868247402357D-01 -4.2028125415178D-02
18  1.7000000000000D-01  4.5542891310776D-01 -4.7469537700434D-02
19  1.8000000000000D-01  4.8214046207459D-01 -5.3345410145147D-02
20  1.9000000000000D-01  5.0880765081305D-01 -5.9659612497417D-02
21  2.0000000000000D-01  5.3541988309982D-01 -6.6412705504394D-02
22  2.1000000000000D-01  5.6196541270591D-01 -7.3601865618924D-02
23  2.2000000000000D-01  5.8843132512728D-01 -8.1220825460611D-02
24  2.3000000000000D-01  6.1480352507253D-01 -8.9259830394614D-02
25  2.4000000000000D-01  6.4106672981797D-01 -9.7705611527112D-02
26  2.5000000000000D-01  6.6720446851746D-01 -1.0654137535025D-01
27  2.6000000000000D-01  6.9319908753073D-01 -1.1574681020212D-01
28  2.7000000000000D-01  7.1903176181014D-01 -1.2529810963906D-01
29  2.8000000000000D-01  7.4468251236149D-01 -1.3516801274839D-01
30  2.9000000000000D-01  7.7013022977034D-01 -1.4532586136006D-01
31  3.0000000000000D-01  7.9535270376065D-01 -1.5573767404599D-01
32  3.1000000000000D-01  8.2032665872820D-01 -1.6636623672567D-01
33  3.2000000000000D-01  8.4502779516684D-01 -1.7717120962722D-01
34  3.3000000000000D-01  8.6943083688138D-01 -1.8810925028367D-01
35  3.4000000000000D-01  8.9350958385701D-01 -1.9913415217628D-01
36  3.5000000000000D-01  9.1723697063146D-01 -2.1019699856879D-01
37  3.6000000000000D-01  9.4058512999305D-01 -2.2124633101113D-01
38  3.7000000000000D-01  9.6352546180519D-01 -2.3222833192614D-01
39  3.8000000000000D-01  9.8602870673550D-01 -2.4308702063056D-01
40  3.9000000000000D-01  1.0080650246471D+00 -2.5376446208075D-01
41  4.0000000000000D-01  1.0296040773883D+00 -2.6420098757575D-01
42  4.1000000000000D-01  1.0506151156979D+00 -2.7433542659425D-01
43  4.2000000000000D-01  1.0710670699248D+00 -2.8410534888959D-01
44  4.3000000000000D-01  1.0909286442414D+00 -2.9344731591710D-01
45  4.4000000000000D-01  1.1101684140159D+00 -3.0229714062135D-01
46  4.5000000000000D-01  1.1287549259927D+00 -3.1059015456847D-01
47  4.6000000000000D-01  1.1466568009134D+00 -3.1826148136886D-01
48  4.7000000000000D-01  1.1638428382029D+00 -3.2524631530054D-01
49  4.8000000000000D-01  1.1802821223289D+00 -3.3148020401221D-01
50  4.9000000000000D-01  1.1959441304360D+00 -3.3689933415752D-01
51  5.0000000000000D-01  1.2107988408464D+00 -3.4144081879003D-01
52  5.1000000000000D-01  1.2248168420112D+00 -3.4504298532962D-01
53  5.2000000000000D-01  1.2379694414934D+00 -3.4764566289782D-01
54  5.3000000000000D-01  1.2502287745551D+00 -3.4919046781107D-01
55  5.4000000000000D-01  1.2615679119259D+00 -3.4962108601625D-01
56  5.5000000000000D-01  1.2719609663225D+00 -3.4888355125465D-01
57  5.6000000000000D-01  1.2813831972937D+00 -3.4692651774612D-01
58  5.7000000000000D-01  1.2898111139693D+00 -3.4370152619567D-01
59  5.8000000000000D-01  1.2972225752915D+00 -3.3916326194180D-01
60  5.9000000000000D-01  1.3035968873171D+00 -3.3326980408547D-01
61  6.0000000000000D-01  1.3089148971863D+00 -3.2598286446578D-01
62  6.1000000000000D-01  1.3131590833607D+00 -3.1726801537807D-01
63  6.2000000000000D-01  1.3163136417477D+00 -3.0709490496696D-01
64  6.3000000000000D-01  1.3183645673388D+00 -2.9543745926624D-01
65  6.4000000000000D-01  1.3192997310039D+00 -2.8227406990318D-01
66  6.5000000000000D-01  1.3191089511010D+00 -2.6758776653447D-01
67  6.6000000000000D-01  1.3177840595753D+00 -2.5136637313425D-01
68  6.7000000000000D-01  1.3153189622434D+00 -2.3360264731356D-01
69  6.8000000000000D-01  1.3117096929755D+00 -2.1429440191224D-01
70  6.9000000000000D-01  1.3069544615120D+00 -1.9344460817013D-01
71  7.0000000000000D-01  1.3010536946714D+00 -1.7106147985377D-01
72  7.1000000000000D-01  1.2940100707333D+00 -1.4715853778795D-01
73  7.2000000000000D-01  1.2858285467993D+00 -1.2175465431639D-01
74  7.3000000000000D-01  1.2765163789684D+00 -9.4874077294961D-02
75  7.4000000000000D-01  1.2660831351804D+00 -6.6546433301437D-02
76  7.5000000000000D-01  1.2545407006174D+00 -3.6806709828330D-02
77  7.6000000000000D-01  1.2419032755743D+00 -5.6952163111344D-03
78  7.7000000000000D-01  1.2281873657415D+00  2.6742476070463D-02
79  7.8000000000000D-01  1.2134117648707D+00  6.0455615792992D-02
80  7.9000000000000D-01  1.1975975298243D+00  9.5388373477922D-02
81  8.0000000000000D-01  1.1807679480367D+00  1.3147996526693D-01
82  8.1000000000000D-01  1.1629484974489D+00  1.6866479679358D-01
83  8.2000000000000D-01  1.1441667990028D+00  2.0687262737313D-01
84  8.3000000000000D-01  1.1244525618142D+00  2.4602875394507D-01
85  8.4000000000000D-01  1.1038375211711D+00  2.8605421421695D-01
86  8.5000000000000D-01  1.0823553695328D+00  3.2686600837301D-01
87  8.6000000000000D-01  1.0600416807327D+00  3.6837733862939D-01
88  8.7000000000000D-01  1.0369338276168D+00  4.1049786583624D-01
89  8.8000000000000D-01  1.0130708933741D+00  4.5313398225052D-01
90  8.9000000000000D-01  9.8849357684338D-01  4.9618909952760D-01
91  9.0000000000000D-01  9.6324409210324D-01  5.3956395090957D-01
92  9.1000000000000D-01  9.3736606267820D-01  5.8315690651961D-01
93  9.2000000000000D-01  9.1090441071367D-01  6.2686430060961D-01
94  9.3000000000000D-01  8.8390524149579D-01  6.7058076954781D-01
95  9.4000000000000D-01  8.5641572371057D-01  7.1419959928021D-01
96  9.5000000000000D-01  8.2848396585522D-01  7.5761308094945D-01
97  9.6000000000000D-01  8.0015888923125D-01  8.0071287331080D-01
98  9.7000000000000D-01  7.7149009796359D-01  8.4339037054666D-01
99  9.8000000000000D-01  7.4252774650325D-01  8.8553707404773D-01
100  9.9000000000000D-01  7.1332240508217D-01  9.2704496670227D-01
101  1.0000000000000D+00  6.8392492359847D-01  9.6780688821401D-01
102  1.0100000000000D+00  6.5438629441768D-01  1.0077169099544D+00
103  1.0200000000000D+00  6.2475751458110D-01  1.0466707078468D+00
104  1.0300000000000D+00  5.9508944791602D-01  1.0845659317784D+00
105  1.0400000000000D+00  5.6543268754380D-01  1.1213025700398D+00
106  1.0500000000000D+00  5.3583741928142D-01  1.1567833073043D+00
107  1.0600000000000D+00  5.0635328642923D-01  1.1909138746767D+00
108  1.0700000000000D+00  4.7702925643347D-01  1.2236033903639D+00
109  1.0800000000000D+00  4.4791348990472D-01  1.2547646895517D+00
110  1.0900000000000D+00  4.1905321246531D-01  1.2843146421107D+00
111  1.1000000000000D+00  3.9049458988719D-01  1.3121744567960D+00
112  1.1100000000000D+00  3.6228260696989D-01  1.3382699706529D+00
113  1.1200000000000D+00  3.3446095059372D-01  1.3625319224003D+00
114  1.1300000000000D+00  3.0707189736581D-01  1.3848962086205D+00
115  1.1400000000000D+00  2.8015620625892D-01  1.4053041216572D+00
116  1.1500000000000D+00  2.5375301662293D-01  1.4237025681884D+00
117  1.1600000000000D+00  2.2789975192946D-01  1.4400442675156D+00
118  1.1700000000000D+00  2.0263202958311D-01  1.4542879287027D+00
119  1.1800000000000D+00  1.7798357710903D-01  1.4663984057823D+00
120  1.1900000000000D+00  1.5398615500528D-01  1.4763468303192D+00
121  1.2000000000000D+00  1.3066948651695D-01  1.4841107207321D+00
122  1.2100000000000D+00  1.0806119456019D-01  1.4896740678694D+00
123  1.2200000000000D+00  8.6186745995241D-02  1.4930273964357D+00
124  1.2300000000000D+00  6.5069403427522D-02  1.4941678019332D+00
125  1.2400000000000D+00  4.4730184669152D-02  1.4930989629377D+00
126  1.2500000000000D+00  2.5187829965385D-02  1.4898311286217D+00
127  1.2600000000000D+00  6.4587770797295D-03  1.4843810814744D+00
128  1.2700000000000D+00 -1.1442855731202D-02  1.4767720753728D+00
129  1.2800000000000D+00 -2.8505278843722D-02  1.4670337492307D+00
130  1.2900000000000D+00 -4.4719032493370D-02  1.4552020164796D+00
131  1.3000000000000D+00 -6.0076980168378D-02  1.4413189308559D+00
132  1.3100000000000D+00 -7.4574294259554D-02  1.4254325290393D+00
133  1.3200000000000D+00 -8.8208434052051D-02  1.4075966506739D+00
134  1.3300000000000D+00 -1.0097911623159D-01  1.3878707365852D+00
135  1.3400000000000D+00 -1.1288827807359D-01  1.3663196059854D+00
136  1.3500000000000D+00 -1.2394003349744D-01  1.3430132135096D+00
137  1.3600000000000D+00 -1.3414062224895D-01  1.3180263871712D+00
138  1.3700000000000D+00 -1.4349835244640D-01  1.2914385482411D+00
139  1.3800000000000D+00 -1.5202353677302D-01  1.2633334142009D+00
140  1.3900000000000D+00 -1.5972842264826D-01  1.2337986860640D+00
141  1.4000000000000D+00 -1.6662711666917D-01  1.2029257212408D+00
142  1.4100000000000D+00 -1.7273550370727D-01  1.1708091933975D+00
143  1.4200000000000D+00 -1.7807116101685D-01  1.1375467406664D+00
144  1.4300000000000D+00 -1.8265326773299D-01  1.1032386036382D+00
145  1.4400000000000D+00 -1.8650251019010D-01  1.0679872546956D+00
146  1.4500000000000D+00 -1.8964098344346D-01  1.0318970201286D+00
147  1.4600000000000D+00 -1.9209208945303D-01  9.9507369666014D-01
148  1.4700000000000D+00 -1.9388043234795D-01  9.5762416389904D-01
149  1.4800000000000D+00 -1.9503171122584D-01  9.1965599434282D-01
150  1.4900000000000D+00 -1.9557261093576D-01  8.8127706247840D-01
151  1.5000000000000D+00 -1.9553069129909D-01  8.4259515461999D-01
152  1.5100000000000D+00 -1.9493427522014D-01  8.0371758098456D-01
153  1.5200000000000D+00 -1.9381233614584D-01  7.6475079164257D-01
154  1.5300000000000D+00 -1.9219438531799D-01  7.2579999780224D-01
155  1.5400000000000D+00 -1.9011035926298D-01  6.8696879995610D-01
156  1.5500000000000D+00 -1.8759050796649D-01  6.4835882437596D-01
157  1.5600000000000D+00 -1.8466528412937D-01  6.1006936924450D-01
158  1.5700000000000D+00 -1.8136523397445D-01  5.7219706200577D-01
159  1.5800000000000D+00 -1.7772088991794D-01  5.3483552886603D-01
160  1.5900000000000D+00 -1.7376266561304D-01  4.9807507817517D-01
161  1.6000000000000D+00 -1.6952075357088D-01  4.6200239818058D-01
162  1.6100000000000D+00 -1.6502502590180D-01  4.2670027101238D-01
163  1.6200000000000D+00 -1.6030493828715D-01  3.9224730302330D-01
164  1.6300000000000D+00 -1.5538943770795D-01  3.5871767325961D-01
165  1.6400000000000D+00 -1.5030687398959D-01  3.2618090000151D-01
166  1.6500000000000D+00 -1.4508491563365D-01  2.9470162691837D-01
167  1.6600000000000D+00 -1.3975046995291D-01  2.6433942862554D-01
168  1.6700000000000D+00 -1.3432960791894D-01  2.3514863693822D-01
169  1.6800000000000D+00 -1.2884749368780D-01  2.0717818742972D-01
170  1.6900000000000D+00 -1.2332831915553D-01  1.8047148736120D-01
171  1.7000000000000D+00 -1.1779524344353D-01  1.5506630435572D-01
172  1.7100000000000D+00 -1.1227033762192D-01  1.3099467671125D-01
173  1.7200000000000D+00 -1.0677453448342D-01  1.0828284441244D-01
174  1.7300000000000D+00 -1.0132758365495D-01  8.6951201648396D-02
175  1.7400000000000D+00 -9.5948011744831D-02  6.7014269488814D-02
176  1.7500000000000D+00 -9.0653087820563D-02  4.8480689541539D-02
177  1.7600000000000D+00 -8.5458793771887D-02  3.1353236741494D-02
178  1.7700000000000D+00 -8.0379799891883D-02  1.5628852212101D-02
179  1.7800000000000D+00 -7.5429445063847D-02  1.2986937747021D-03
180  1.7900000000000D+00 -7.0619721945828D-02 -1.1651794768569D-02
181  1.8000000000000D+00 -6.5961266374395D-02 -2.3242798558818D-02
182  1.8100000000000D+00 -6.1463351405834D-02 -3.3500029626624D-02
183  1.8200000000000D+00 -5.7133885159034D-02 -4.2454611004717D-02
184  1.8300000000000D+00 -5.2979412740688D-02 -5.0142946333331D-02
185  1.8400000000000D+00 -4.9005121540405D-02 -5.6606577642343D-02
186  1.8500000000000D+00 -4.5214848768534D-02 -6.1892036793068D-02
187  1.8600000000000D+00 -4.1611097092010D-02 -6.6050663512408D-02
188  1.8700000000000D+00 -3.8195040800733D-02 -6.9138469359990D-02
189  1.8800000000000D+00 -3.4966549074225D-02 -7.1215929751864D-02
190  1.8900000000000D+00 -3.1924232476710D-02 -7.2347674151755D-02
191  1.9000000000000D+00 -2.9065415508074D-02 -7.2602500046939D-02
192  1.9100000000000D+00 -2.6386044793256D-02 -7.2053716933844D-02
193  1.9200000000000D+00 -2.3881025845771D-02 -7.0777508948860D-02
194  1.9300000000000D+00 -2.1544397819902D-02 -6.8852025259239D-02
195  1.9400000000000D+00 -1.9369570885502D-02 -6.6356300132619D-02
196  1.9500000000000D+00 -1.7349654719140D-02 -6.3368762877274D-02
197  1.9600000000000D+00 -1.5477642719048D-02 -5.9966417467065D-02
198  1.9700000000000D+00 -1.3746416287019D-02 -5.6224861986377D-02
199  1.9800000000000D+00 -1.2148792136024D-02 -5.2218133080509D-02
200  1.9900000000000D+00 -1.0677669812336D-02 -4.8018052264468D-02
201  2.0000000000000D+00 -9.3260914629831D-03 -4.3693998746852D-02
202  2.0100000000000D+00 -8.0873288473562D-03 -3.9312550800627D-02
203  2.0200000000000D+00 -6.9549622675774D-03 -3.4937164580159D-02
204  2.0300000000000D+00 -5.9229549325932D-03 -3.0627873140735D-02
205  2.0400000000000D+00 -4.9857235472623D-03 -2.6441001330796D-02
206  2.0500000000000D+00 -4.1382051383229D-03 -2.2428896907344D-02
207  2.0600000000000D+00 -3.3759183225078D-03 -1.8639684582300D-02
208  2.0700000000000D+00 -2.6950201872244D-03 -1.5117038606577D-02
209  2.0800000000000D+00 -2.0924362007905D-03 -1.1900459198917D-02
210  2.0900000000000D+00 -1.5660264643188D-03 -9.0258282463827D-03
211  2.1000000000000D+00 -1.1131176278538D-03 -6.5159935446861D-03
212  2.1100000000000D+00 -7.3174336169424D-04 -4.3854004137974D-03
213  2.1200000000000D+00 -4.2482690585616D-04 -2.6749306358019D-03
214  2.1300000000000D+00 -1.9651690399171D-04 -1.4244753171920D-03
215  2.1400000000000D+00 -4.7424872886169D-05 -6.4248149134402D-04
216  2.1500000000000D+00  3.0309214945248D-05 -2.2181585096190D-04
217  2.1600000000000D+00  4.8088351477214D-05 -3.9534521451205D-05
218  2.1700000000000D+00  2.8817269703314D-05  9.9131970210860D-06
219  2.1800000000000D+00  7.2314425054412D-07  5.4736806889145D-07
220  2.1900000000000D+00 -8.7977816668068D-06 -8.7046764555308D-06
221  2.2000000000000D+00 -5.4715282835087D-06 -6.3536521335677D-06
222  2.2100000000000D+00  8.7491487300907D-07  4.5179362363130D-07
223  2.2200000000000D+00  1.8087885161156D-06  1.1265792434805D-06
224  2.2300000000000D+00  5.7115944168280D-07  4.0310056767619D-07
225  2.2400000000000D+00 -1.0179088218643D-07  2.7205547410757D-07
226  2.2500000000000D+00 -1.1282008636339D-07  3.0153311794897D-07
227  2.2600000000000D+00  0.0000000000000D+00  0.0000000000000D+00
228  2.2700000000000D+00  0.0000000000000D+00  0.0000000000000D+00
229  2.2800000000000D+00  0.0000000000000D+00  0.0000000000000D+00
230  2.2900000000000D+00  0.0000000000000D+00  0.0000000000000D+00
231  2.3000000000000D+00  0.0000000000000D+00  0.0000000000000D+00
232  2.3100000000000D+00  0.0000000000000D+00  0.0000000000000D+00
233  2.3200000000000D+00  0.0000000000000D+00  0.0000000000000D+00
234  2.3300000000000D+00  0.0000000000000D+00  0.0000000000000D+00
235  2.3400000000000D+00  0.0000000000000D+00  0.0000000000000D+00
236  2.3500000000000D+00  0.0000000000000D+00  0.0000000000000D+00
237  2.3600000000000D+00  0.0000000000000D+00  0.0000000000000D+00
238  2.3700000000000D+00  0.0000000000000D+00  0.0000000000000D+00
239  2.3800000000000D+00  0.0000000000000D+00  0.0000000000000D+00
240  2.3900000000000D+00  0.0000000000000D+00  0.0000000000000D+00
241  2.4000000000000D+00  0.0000000000000D+00  0.0000000000000D+00
242  2.4100000000000D+00  0.0000000000000D+00  0.0000000000000D+00
243  2.4200000000000D+00  0.0000000000000D+00  0.0000000000000D+00
244  2.4300000000000D+00  0.0000000000000D+00  0.0000000000000D+00
245  2.4400000000000D+00  0.0000000000000D+00  0.0000000000000D+00
246  2.4500000000000D+00  0.0000000000000D+00  0.0000000000000D+00
247  2.4600000000000D+00  0.0000000000000D+00  0.0000000000000D+00
248  2.4700000000000D+00  0.0000000000000D+00  0.0000000000000D+00
249  2.4800000000000D+00  0.0000000000000D+00  0.0000000000000D+00
250  2.4900000000000D+00  0.0000000000000D+00  0.0000000000000D+00
251  2.5000000000000D+00  0.0000000000000D+00  0.0000000000000D+00
252  2.5100000000000D+00  0.0000000000000D+00  0.0000000000000D+00
253  2.5200000000000D+00  0.0000000000000D+00  0.0000000000000D+00
254  2.5300000000000D+00  0.0000000000000D+00  0.0000000000000D+00
255  2.5400000000000D+00  0.0000000000000D+00  0.0000000000000D+00
256  2.5500000000000D+00  0.0000000000000D+00  0.0000000000000D+00
257  2.5600000000000D+00  0.0000000000000D+00  0.0000000000000D+00
258  2.5700000000000D+00  0.0000000000000D+00  0.0000000000000D+00
259  2.5800000000000D+00  0.0000000000000D+00  0.0000000000000D+00
260  2.5900000000000D+00  0.0000000000000D+00  0.0000000000000D+00
261  2.6000000000000D+00  0.0000000000000D+00  0.0000000000000D+00
262  2.6100000000000D+00  0.0000000000000D+00  0.0000000000000D+00
263  2.6200000000000D+00  0.0000000000000D+00  0.0000000000000D+00
264  2.6300000000000D+00  0.0000000000000D+00  0.0000000000000D+00
265  2.6400000000000D+00  0.0000000000000D+00  0.0000000000000D+00
266  2.6500000000000D+00  0.0000000000000D+00  0.0000000000000D+00
267  2.6600000000000D+00  0.0000000000000D+00  0.0000000000000D+00
268  2.6700000000000D+00  0.0000000000000D+00  0.0000000000000D+00
269  2.6800000000000D+00  0.0000000000000D+00  0.0000000000000D+00
270  2.6900000000000D+00  0.0000000000000D+00  0.0000000000000D+00
271  2.7000000000000D+00  0.0000000000000D+00  0.0000000000000D+00
272  2.7100000000000D+00  0.0000000000000D+00  0.0000000000000D+00
273  2.7200000000000D+00  0.0000000000000D+00  0.0000000000000D+00
274  2.7300000000000D+00  0.0000000000000D+00  0.0000000000000D+00
275  2.7400000000000D+00  0.0000000000000D+00  0.0000000000000D+00
276  2.7500000000000D+00  0.0000000000000D+00  0.0000000000000D+00
277  2.7600000000000D+00  0.0000000000000D+00  0.0000000000000D+00
278  2.7700000000000D+00  0.0000000000000D+00  0.0000000000000D+00
279  2.7800000000000D+00  0.0000000000000D+00  0.0000000000000D+00
280  2.7900000000000D+00  0.0000000000000D+00  0.0000000000000D+00
281  2.8000000000000D+00  0.0000000000000D+00  0.0000000000000D+00
282  2.8100000000000D+00  0.0000000000000D+00  0.0000000000000D+00
283  2.8200000000000D+00  0.0000000000000D+00  0.0000000000000D+00
284  2.8300000000000D+00  0.0000000000000D+00  0.0000000000000D+00
285  2.8400000000000D+00  0.0000000000000D+00  0.0000000000000D+00
286  2.8500000000000D+00  0.0000000000000D+00  0.0000000000000D+00
287  2.8600000000000D+00  0.0000000000000D+00  0.0000000000000D+00
288  2.8700000000000D+00  0.0000000000000D+00  0.0000000000000D+00
289  2.8800000000000D+00  0.0000000000000D+00  0.0000000000000D+00
290  2.8900000000000D+00  0.0000000000000D+00  0.0000000000000D+00
291  2.9000000000000D+00  0.0000000000000D+00  0.0000000000000D+00
292  2.9100000000000D+00  0.0000000000000D+00  0.0000000000000D+00
293  2.9200000000000D+00  0.0000000000000D+00  0.0000000000000D+00
294  2.9300000000000D+00  0.0000000000000D+00  0.0000000000000D+00
295  2.9400000000000D+00  0.0000000000000D+00  0.0000000000000D+00
296  2.9500000000000D+00  0.0000000000000D+00  0.0000000000000D+00
297  2.9600000000000D+00  0.0000000000000D+00  0.0000000000000D+00
298  2.9700000000000D+00  0.0000000000000D+00  0.0000000000000D+00
299  2.9800000000000D+00  0.0000000000000D+00  0.0000000000000D+00
300  2.9900000000000D+00  0.0000000000000D+00  0.0000000000000D+00
301  3.0000000000000D+00  0.0000000000000D+00  0.0000000000000D+00
302  3.0100000000000D+00  0.0000000000000D+00  0.0000000000000D+00
303  3.0200000000000D+00  0.0000000000000D+00  0.0000000000000D+00
304  3.0300000000000D+00  0.0000000000000D+00  0.0000000000000D+00
305  3.0400000000000D+00  0.0000000000000D+00  0.0000000000000D+00
306  3.0500000000000D+00  0.0000000000000D+00  0.0000000000000D+00
307  3.0600000000000D+00  0.0000000000000D+00  0.0000000000000D+00
308  3.0700000000000D+00  0.0000000000000D+00  0.0000000000000D+00
309  3.0800000000000D+00  0.0000000000000D+00  0.0000000000000D+00
310  3.0900000000000D+00  0.0000000000000D+00  0.0000000000000D+00
311  3.1000000000000D+00  0.0000000000000D+00  0.0000000000000D+00
312  3.1100000000000D+00  0.0000000000000D+00  0.0000000000000D+00
313  3.1200000000000D+00  0.0000000000000D+00  0.0000000000000D+00
314  3.1300000000000D+00  0.0000000000000D+00  0.0000000000000D+00
315  3.1400000000000D+00  0.0000000000000D+00  0.0000000000000D+00
316  3.1500000000000D+00  0.0000000000000D+00  0.0000000000000D+00
317  3.1600000000000D+00  0.0000000000000D+00  0.0000000000000D+00
318  3.1700000000000D+00  0.0000000000000D+00  0.0000000000000D+00
319  3.1800000000000D+00  0.0000000000000D+00  0.0000000000000D+00
320  3.1900000000000D+00  0.0000000000000D+00  0.0000000000000D+00
321  3.2000000000000D+00  0.0000000000000D+00  0.0000000000000D+00
322  3.2100000000000D+00  0.0000000000000D+00  0.0000000000000D+00
323  3.2200000000000D+00  0.0000000000000D+00  0.0000000000000D+00
324  3.2300000000000D+00  0.0000000000000D+00  0.0000000000000D+00
325  3.2400000000000D+00  0.0000000000000D+00  0.0000000000000D+00
326  3.2500000000000D+00  0.0000000000000D+00  0.0000000000000D+00
327  3.2600000000000D+00  0.0000000000000D+00  0.0000000000000D+00
328  3.2700000000000D+00  0.0000000000000D+00  0.0000000000000D+00
329  3.2800000000000D+00  0.0000000000000D+00  0.0000000000000D+00
330  3.2900000000000D+00  0.0000000000000D+00  0.0000000000000D+00
331  3.3000000000000D+00  0.0000000000000D+00  0.0000000000000D+00
332  3.3100000000000D+00  0.0000000000000D+00  0.0000000000000D+00
333  3.3200000000000D+00  0.0000000000000D+00  0.0000000000000D+00
334  3.3300000000000D+00  0.0000000000000D+00  0.0000000000000D+00
335  3.3400000000000D+00  0.0000000000000D+00  0.0000000000000D+00
336  3.3500000000000D+00  0.0000000000000D+00  0.0000000000000D+00
337  3.3600000000000D+00  0.0000000000000D+00  0.0000000000000D+00
338  3.3700000000000D+00  0.0000000000000D+00  0.0000000000000D+00
339  3.3800000000000D+00  0.0000000000000D+00  0.0000000000000D+00
340  3.3900000000000D+00  0.0000000000000D+00  0.0000000000000D+00
341  3.4000000000000D+00  0.0000000000000D+00  0.0000000000000D+00
342  3.4100000000000D+00  0.0000000000000D+00  0.0000000000000D+00
343  3.4200000000000D+00  0.0000000000000D+00  0.0000000000000D+00
344  3.4300000000000D+00  0.0000000000000D+00  0.0000000000000D+00
345  3.4400000000000D+00  0.0000000000000D+00  0.0000000000000D+00
346  3.4500000000000D+00  0.0000000000000D+00  0.0000000000000D+00
347  3.4600000000000D+00  0.0000000000000D+00  0.0000000000000D+00
348  3.4700000000000D+00  0.0000000000000D+00  0.0000000000000D+00
349  3.4800000000000D+00  0.0000000000000D+00  0.0000000000000D+00
350  3.4900000000000D+00  0.0000000000000D+00  0.0000000000000D+00
351  3.5000000000000D+00  0.0000000000000D+00  0.0000000000000D+00
352  3.5100000000000D+00  0.0000000000000D+00  0.0000000000000D+00
353  3.5200000000000D+00  0.0000000000000D+00  0.0000000000000D+00
354  3.5300000000000D+00  0.0000000000000D+00  0.0000000000000D+00
355  3.5400000000000D+00  0.0000000000000D+00  0.0000000000000D+00
356  3.5500000000000D+00  0.0000000000000D+00  0.0000000000000D+00
357  3.5600000000000D+00  0.0000000000000D+00  0.0000000000000D+00
358  3.5700000000000D+00  0.0000000000000D+00  0.0000000000000D+00
359  3.5800000000000D+00  0.0000000000000D+00  0.0000000000000D+00
360  3.5900000000000D+00  0.0000000000000D+00  0.0000000000000D+00
361  3.6000000000000D+00  0.0000000000000D+00  0.0000000000000D+00
362  3.6100000000000D+00  0.0000000000000D+00  0.0000000000000D+00
363  3.6200000000000D+00  0.0000000000000D+00  0.0000000000000D+00
364  3.6300000000000D+00  0.0000000000000D+00  0.0000000000000D+00
365  3.6400000000000D+00  0.0000000000000D+00  0.0000000000000D+00
366  3.6500000000000D+00  0.0000000000000D+00  0.0000000000000D+00
367  3.6600000000000D+00  0.0000000000000D+00  0.0000000000000D+00
368  3.6700000000000D+00  0.0000000000000D+00  0.0000000000000D+00
369  3.6800000000000D+00  0.0000000000000D+00  0.0000000000000D+00
370  3.6900000000000D+00  0.0000000000000D+00  0.0000000000000D+00
371  3.7000000000000D+00  0.0000000000000D+00  0.0000000000000D+00
372  3.7100000000000D+00  0.0000000000000D+00  0.0000000000000D+00
373  3.7200000000000D+00  0.0000000000000D+00  0.0000000000000D+00
374  3.7300000000000D+00  0.0000000000000D+00  0.0000000000000D+00
375  3.7400000000000D+00  0.0000000000000D+00  0.0000000000000D+00
376  3.7500000000000D+00  0.0000000000000D+00  0.0000000000000D+00
377  3.7600000000000D+00  0.0000000000000D+00  0.0000000000000D+00
378  3.7700000000000D+00  0.0000000000000D+00  0.0000000000000D+00
379  3.7800000000000D+00  0.0000000000000D+00  0.0000000000000D+00
380  3.7900000000000D+00  0.0000000000000D+00  0.0000000000000D+00
381  3.8000000000000D+00  0.0000000000000D+00  0.0000000000000D+00
382  3.8100000000000D+00  0.0000000000000D+00  0.0000000000000D+00
383  3.8200000000000D+00  0.0000000000000D+00  0.0000000000000D+00
384  3.8300000000000D+00  0.0000000000000D+00  0.0000000000000D+00
385  3.8400000000000D+00  0.0000000000000D+00  0.0000000000000D+00
386  3.8500000000000D+00  0.0000000000000D+00  0.0000000000000D+00
387  3.8600000000000D+00  0.0000000000000D+00  0.0000000000000D+00
388  3.8700000000000D+00  0.0000000000000D+00  0.0000000000000D+00
389  3.8800000000000D+00  0.0000000000000D+00  0.0000000000000D+00
390  3.8900000000000D+00  0.0000000000000D+00  0.0000000000000D+00
391  3.9000000000000D+00  0.0000000000000D+00  0.0000000000000D+00
392  3.9100000000000D+00  0.0000000000000D+00  0.0000000000000D+00
393  3.9200000000000D+00  0.0000000000000D+00  0.0000000000000D+00
394  3.9300000000000D+00  0.0000000000000D+00  0.0000000000000D+00
395  3.9400000000000D+00  0.0000000000000D+00  0.0000000000000D+00
396  3.9500000000000D+00  0.0000000000000D+00  0.0000000000000D+00
397  3.9600000000000D+00  0.0000000000000D+00  0.0000000000000D+00
398  3.9700000000000D+00  0.0000000000000D+00  0.0000000000000D+00
399  3.9800000000000D+00  0.0000000000000D+00  0.0000000000000D+00
400  3.9900000000000D+00  0.0000000000000D+00  0.0000000000000D+00
401  4.0000000000000D+00  0.0000000000000D+00  0.0000000000000D+00
402  4.0100000000000D+00  0.0000000000000D+00  0.0000000000000D+00
403  4.0200000000000D+00  0.0000000000000D+00  0.0000000000000D+00
404  4.0300000000000D+00  0.0000000000000D+00  0.0000000000000D+00
405  4.0400000000000D+00  0.0000000000000D+00  0.0000000000000D+00
406  4.0500000000000D+00  0.0000000000000D+00  0.0000000000000D+00
407  4.0600000000000D+00  0.0000000000000D+00  0.0000000000000D+00
408  4.0700000000000D+00  0.0000000000000D+00  0.0000000000000D+00
409  4.0800000000000D+00  0.0000000000000D+00  0.0000000000000D+00
410  4.0900000000000D+00  0.0000000000000D+00  0.0000000000000D+00
411  4.1000000000000D+00  0.0000000000000D+00  0.0000000000000D+00
412  4.1100000000000D+00  0.0000000000000D+00  0.0000000000000D+00
413  4.1200000000000D+00  0.0000000000000D+00  0.0000000000000D+00
414  4.1300000000000D+00  0.0000000000000D+00  0.0000000000000D+00
415  4.1400000000000D+00  0.0000000000000D+00  0.0000000000000D+00
416  4.1500000000000D+00  0.0000000000000D+00  0.0000000000000D+00
417  4.1600000000000D+00  0.0000000000000D+00  0.0000000000000D+00
418  4.1700000000000D+00  0.0000000000000D+00  0.0000000000000D+00
419  4.1800000000000D+00  0.0000000000000D+00  0.0000000000000D+00
420  4.1900000000000D+00  0.0000000000000D+00  0.0000000000000D+00
421  4.2000000000000D+00  0.0000000000000D+00  0.0000000000000D+00
422  4.2100000000000D+00  0.0000000000000D+00  0.0000000000000D+00
423  4.2200000000000D+00  0.0000000000000D+00  0.0000000000000D+00
424  4.2300000000000D+00  0.0000000000000D+00  0.0000000000000D+00
425  4.2400000000000D+00  0.0000000000000D+00  0.0000000000000D+00
426  4.2500000000000D+00  0.0000000000000D+00  0.0000000000000D+00
427  4.2600000000000D+00  0.0000000000000D+00  0.0000000000000D+00
428  4.2700000000000D+00  0.0000000000000D+00  0.0000000000000D+00
429  4.2800000000000D+00  0.0000000000000D+00  0.0000000000000D+00
430  4.2900000000000D+00  0.0000000000000D+00  0.0000000000000D+00
431  4.3000000000000D+00  0.0000000000000D+00  0.0000000000000D+00
432  4.3100000000000D+00  0.0000000000000D+00  0.0000000000000D+00
433  4.3200000000000D+00  0.0000000000000D+00  0.0000000000000D+00
434  4.3300000000000D+00  0.0000000000000D+00  0.0000000000000D+00
435  4.3400000000000D+00  0.0000000000000D+00  0.0000000000000D+00
436  4.3500000000000D+00  0.0000000000000D+00  0.0000000000000D+00
437  4.3600000000000D+00  0.0000000000000D+00  0.0000000000000D+00
438  4.3700000000000D+00  0.0000000000000D+00  0.0000000000000D+00
439  4.3800000000000D+00  0.0000000000000D+00  0.0000000000000D+00
440  4.3900000000000D+00  0.0000000000000D+00  0.0000000000000D+00
441  4.4000000000000D+00  0.0000000000000D+00  0.0000000000000D+00
442  4.4100000000000D+00  0.0000000000000D+00  0.0000000000000D+00
443  4.4200000000000D+00  0.0000000000000D+00  0.0000000000000D+00
444  4.4300000000000D+00  0.0000000000000D+00  0.0000000000000D+00