Sc    ONCVPSP-3.3.0  r_core=   1.35663   1.35663   1.66161
21.0000     11.0000      180419    zatom,zion,pspd
8      11   2     4   600     0    pspcod,pspxc,lmax,lloc,mmax,r2well
5.99000000  5.00000000  0.00000000    rchrg fchrg qchrg
2     3     2     0    nproj
3     1           extension_switch
4     3     0    nprojso
0                         9.5432716633183D-01  1.0845610636303D+01
1  0.0000000000000D+00 -1.6168888838930D-08  3.4739908727488D-09
2  1.0000000000000D-02 -2.3469666775986D-02  7.5071218940032D-02
3  2.0000000000000D-02 -4.7056300158874D-02  1.5003223952584D-01
4  3.0000000000000D-02 -7.0870068120762D-02  2.2477171255712D-01
5  4.0000000000000D-02 -9.5007720038007D-02  2.9917602500864D-01
6  5.0000000000000D-02 -1.1954631978846D-01  3.7312826186408D-01
7  6.0000000000000D-02 -1.4453749781244D-01  4.4650727788696D-01
8  7.0000000000000D-02 -1.7000237557350D-01  5.1918691177360D-01
9  8.0000000000000D-02 -1.9592729968599D-01  5.9103537165936D-01
10  9.0000000000000D-02 -2.2226050348749D-01  6.6191481676155D-01
11  1.0000000000000D-01 -2.4890979148041D-01  7.3168115513887D-01
12  1.1000000000000D-01 -2.7574131737389D-01  8.0018407223957D-01
13  1.2000000000000D-01 -3.0257950000301D-01  8.6726729922454D-01
14  1.3000000000000D-01 -3.2920809380977D-01  9.3276912411856D-01
15  1.4000000000000D-01 -3.5537240248763D-01  9.9652314280377D-01
16  1.5000000000000D-01 -3.8078259648137D-01  1.0583592408659D+00
17  1.6000000000000D-01 -4.0511806795604D-01  1.1181047914761D+00
18  1.7000000000000D-01 -4.2803273124355D-01  1.1755860489800D+00
19  1.8000000000000D-01 -4.4916115325265D-01  1.2306297127970D+00
20  1.9000000000000D-01 -4.6812537744844D-01  1.2830646317338D+00
21  2.0000000000000D-01 -4.8454228727349D-01  1.3327236149875D+00
22  2.1000000000000D-01 -4.9803134072192D-01  1.3794453130549D+00
23  2.2000000000000D-01 -5.0822249754026D-01  1.4230761295444D+00
24  2.3000000000000D-01 -5.1476415446828D-01  1.4634721235650D+00
25  2.4000000000000D-01 -5.1733090221229D-01  1.5005008619781D+00
26  2.5000000000000D-01 -5.1563092051911D-01  1.5340431813527D+00
27  2.6000000000000D-01 -5.0941283475071D-01  1.5639948209553D+00
28  2.7000000000000D-01 -4.9847186859908D-01  1.5902678905069D+00
29  2.8000000000000D-01 -4.8265514278633D-01  1.6127921396905D+00
30  2.9000000000000D-01 -4.6186598842842D-01  1.6315160004303D+00
31  3.0000000000000D-01 -4.3606716577574D-01  1.6464073776919D+00
32  3.1000000000000D-01 -4.0528290378236D-01  1.6574541698680D+00
33  3.2000000000000D-01 -3.6959970282939D-01  1.6646645055976D+00
34  3.3000000000000D-01 -3.2916587131742D-01  1.6680666899747D+00
35  3.4000000000000D-01 -2.8418979609261D-01  1.6677088594171D+00
36  3.5000000000000D-01 -2.3493697609550D-01  1.6636583508129D+00
37  3.6000000000000D-01 -1.8172587753698D-01  1.6560007968204D+00
38  3.7000000000000D-01 -1.2492269662467D-01  1.6448389652027D+00
39  3.8000000000000D-01 -6.4935141734787D-02  1.6302913657008D+00
40  3.9000000000000D-01 -2.2053703257518D-03  1.6124906530485D+00
41  4.0000000000000D-01  6.2797763740712D-02  1.5915818591965D+00
42  4.1000000000000D-01  1.2958697996327D-01  1.5677204915259D+00
43  4.2000000000000D-01  1.9766517264752D-01  1.5410705367069D+00
44  4.3000000000000D-01  2.6653415001277D-01  1.5118024118323D+00
45  4.4000000000000D-01  3.3570331281938D-01  1.4800909054605D+00
46  4.5000000000000D-01  4.0469807489269D-01  1.4461131512316D+00
47  4.6000000000000D-01  4.7306783308393D-01  1.4100466757523D+00
48  4.7000000000000D-01  5.4039330393658D-01  1.3720675605016D+00
49  4.8000000000000D-01  6.0629305841774D-01  1.3323487546399D+00
50  4.9000000000000D-01  6.7042910423557D-01  1.2910585718548D+00
51  5.0000000000000D-01  7.3251138709123D-01  1.2483593998493D+00
52  5.1000000000000D-01  7.9230110722499D-01  1.2044066458577D+00
53  5.2000000000000D-01  8.4961277525592D-01  1.1593479357969D+00
54  5.3000000000000D-01  9.0431496094952D-01  1.1133225784389D+00
55  5.4000000000000D-01  9.5632971946305D-01  1.0664612994977D+00
56  5.5000000000000D-01  1.0056307112000D+00  1.0188862438692D+00
57  5.6000000000000D-01  1.0522400627660D+00  9.7071123765514D-01
58  5.7000000000000D-01  1.0962240470622D+00  9.2204229514886D-01
59  5.8000000000000D-01  1.1376876894763D+00  8.7297834984682D-01
60  5.9000000000000D-01  1.1767684337366D+00  8.2361218291698D-01
61  6.0000000000000D-01  1.2136290247074D+00  7.7403151752561D-01
62  6.1000000000000D-01  1.2484497855443D+00  7.2432024314446D-01
63  6.2000000000000D-01  1.2814204827648D+00  6.7455973052150D-01
64  6.3000000000000D-01  1.3127319844848D+00  6.2483019549298D-01
65  6.4000000000000D-01  1.3425679239774D+00  5.7521206831883D-01
66  6.5000000000000D-01  1.3710965826777D+00  5.2578732476572D-01
67  6.6000000000000D-01  1.3984632036063D+00  4.7664073578579D-01
68  6.7000000000000D-01  1.4247829380795D+00  4.2786099430491D-01
69  6.8000000000000D-01  1.4501346154394D+00  3.7954168036164D-01
70  6.9000000000000D-01  1.4745555078370D+00  3.3178202952811D-01
71  7.0000000000000D-01  1.4980372401022D+00  2.8468747413959D-01
72  7.1000000000000D-01  1.5205229689220D+00  2.3836993225916D-01
73  7.2000000000000D-01  1.5419059263946D+00  1.9294782540559D-01
74  7.3000000000000D-01  1.5620293913980D+00  1.4854581269667D-01
75  7.4000000000000D-01  1.5806881185571D+00  1.0529423610550D-01
76  7.5000000000000D-01  1.5976312198647D+00  6.3328278799208D-02
77  7.6000000000000D-01  1.6125664589616D+00  2.2786845862454D-02
78  7.7000000000000D-01  1.6251658833318D+00 -1.6188816026369D-02
79  7.8000000000000D-01  1.6350726864216D+00 -5.3456736455003D-02
80  7.9000000000000D-01  1.6419091603444D+00 -8.8876046627018D-02
81  8.0000000000000D-01  1.6452855713622D+00 -1.2230897623233D-01
82  8.1000000000000D-01  1.6448097653548D+00 -1.5362298069165D-01
83  8.2000000000000D-01  1.6400972896371D+00 -1.8269295332765D-01
84  8.3000000000000D-01  1.6307818012874D+00 -2.0940347370568D-01
85  8.4000000000000D-01  1.6165255210409D+00 -2.3365104115660D-01
86  8.5000000000000D-01  1.5970294860976D+00 -2.5534624141216D-01
87  8.6000000000000D-01  1.5720433550892D+00 -2.7441579438864D-01
88  8.7000000000000D-01  1.5413745240214D+00 -2.9080443246299D-01
89  8.8000000000000D-01  1.5048963231921D+00 -3.0447656108309D-01
90  8.9000000000000D-01  1.4625550816993D+00 -3.1541765720004D-01
91  9.0000000000000D-01  1.4143758678867D+00 -3.2363536573812D-01
92  9.1000000000000D-01  1.3604667404848D+00 -3.2916026003386D-01
93  9.2000000000000D-01  1.3010213757628D+00 -3.3204623876412D-01
94  9.3000000000000D-01  1.2363199700571D+00 -3.3237053920471D-01
95  9.4000000000000D-01  1.1667283538583D+00 -3.3023335456224D-01
96  9.5000000000000D-01  1.0926952924241D+00 -3.2575705142961D-01
97  9.6000000000000D-01  1.0147479877822D+00 -3.1908499194878D-01
98  9.7000000000000D-01  9.3348583702345D-01 -3.1037997381587D-01
99  9.8000000000000D-01  8.4957254177162D-01 -2.9982230979123D-01
100  9.9000000000000D-01  7.6372670024933D-01 -2.8760757615842D-01
101  1.0000000000000D+00  6.7671105052603D-01 -2.7394406747927D-01
102  1.0100000000000D+00  5.8932056451629D-01 -2.5905000156699D-01
103  1.0200000000000D+00  5.0236962087083D-01 -2.4315052464981D-01
104  1.0300000000000D+00  4.1667850833296D-01 -2.2647457164147D-01
105  1.0400000000000D+00  3.3305952939139D-01 -2.0925164026628D-01
106  1.0500000000000D+00  2.5230298614612D-01 -1.9170854029522D-01
107  1.0600000000000D+00  1.7516333740117D-01 -1.7406618058699D-01
108  1.0700000000000D+00  1.0234581566277D-01 -1.5653645647010D-01
109  1.0800000000000D+00  3.4493786763410D-02 -1.3931929864714D-01
110  1.0900000000000D+00 -2.7822878497869D-02 -1.2259994186280D-01
111  1.1000000000000D+00 -8.4118168631152D-02 -1.0654646779372D-01
112  1.1100000000000D+00 -1.3399880354371D-01 -9.1307671408396D-02
113  1.1200000000000D+00 -1.7717141755529D-01 -7.7011293286089D-02
114  1.1300000000000D+00 -2.1344788945953D-01 -6.3762653252483D-02
115  1.1400000000000D+00 -2.4274869510756D-01 -5.1643712197639D-02
116  1.1500000000000D+00 -2.6510419299699D-01 -4.0712581393868D-02
117  1.1600000000000D+00 -2.8065380635960D-01 -3.1003487217860D-02
118  1.1700000000000D+00 -2.8964310490066D-01 -2.2527190650924D-02
119  1.1800000000000D+00 -2.9241883230261D-01 -1.5271851692381D-02
120  1.1900000000000D+00 -2.8942197062468D-01 -9.2043191444970D-03
121  1.2000000000000D+00 -2.8117898109848D-01 -4.2718158395868D-03
122  1.2100000000000D+00 -2.6829139929800D-01 -4.0398112042241D-04
123  1.2200000000000D+00 -2.5142398588824D-01  2.4847726029217D-03
124  1.2300000000000D+00 -2.3129169029910D-01  4.4926444407886D-03
125  1.2400000000000D+00 -2.0864569657314D-01  5.7276285251159D-03
126  1.2500000000000D+00 -1.8425884103052D-01  6.3045585673497D-03
127  1.2600000000000D+00 -1.5891071928013D-01  6.3420815902711D-03
128  1.2700000000000D+00 -1.3337281055497D-01  5.9596310050661D-03
129  1.2800000000000D+00 -1.0839388964005D-01  5.2744579466805D-03
130  1.2900000000000D+00 -8.4686142895338D-02  4.3988080455785D-03
131  1.3000000000000D+00 -6.2911812568227D-02  3.4372145031780D-03
132  1.3100000000000D+00 -4.3675736830989D-02  2.4846694610393D-03
133  1.3200000000000D+00 -2.7508966574484D-02  1.6235175475485D-03
134  1.3300000000000D+00 -1.4760888003169D-02  9.1350106231085D-04
135  1.3400000000000D+00 -5.9658338075447D-03  4.1679945763896D-04
136  1.3500000000000D+00 -1.4604998672569D-03  1.7080823991882D-04
137  1.3600000000000D+00  1.1366668381667D-06  6.7272522699533D-05
138  1.3700000000000D+00  6.0609251344188D-05  9.7020383551296D-06
139  1.3800000000000D+00 -5.5402682585834D-05 -5.6062024750403D-06
140  1.3900000000000D+00  1.1576661294141D-06  2.2457388928789D-07
141  1.4000000000000D+00  7.8466860941968D-06  1.2446977591651D-06
142  1.4100000000000D+00  5.4949270085612D-07 -2.0021211633401D-07
143  1.4200000000000D+00  3.6891560363063D-07 -1.3441738832281D-07
144  1.4300000000000D+00  0.0000000000000D+00  0.0000000000000D+00
145  1.4400000000000D+00  0.0000000000000D+00  0.0000000000000D+00
146  1.4500000000000D+00  0.0000000000000D+00  0.0000000000000D+00
147  1.4600000000000D+00  0.0000000000000D+00  0.0000000000000D+00
148  1.4700000000000D+00  0.0000000000000D+00  0.0000000000000D+00
149  1.4800000000000D+00  0.0000000000000D+00  0.0000000000000D+00
150  1.4900000000000D+00  0.0000000000000D+00  0.0000000000000D+00
151  1.5000000000000D+00  0.0000000000000D+00  0.0000000000000D+00
152  1.5100000000000D+00  0.0000000000000D+00  0.0000000000000D+00
153  1.5200000000000D+00  0.0000000000000D+00  0.0000000000000D+00
154  1.5300000000000D+00  0.0000000000000D+00  0.0000000000000D+00
155  1.5400000000000D+00  0.0000000000000D+00  0.0000000000000D+00
156  1.5500000000000D+00  0.0000000000000D+00  0.0000000000000D+00
157  1.5600000000000D+00  0.0000000000000D+00  0.0000000000000D+00
158  1.5700000000000D+00  0.0000000000000D+00  0.0000000000000D+00
159  1.5800000000000D+00  0.0000000000000D+00  0.0000000000000D+00
160  1.5900000000000D+00  0.0000000000000D+00  0.0000000000000D+00
161  1.6000000000000D+00  0.0000000000000D+00  0.0000000000000D+00
162  1.6100000000000D+00  0.0000000000000D+00  0.0000000000000D+00
163  1.6200000000000D+00  0.0000000000000D+00  0.0000000000000D+00
164  1.6300000000000D+00  0.0000000000000D+00  0.0000000000000D+00
165  1.6400000000000D+00  0.0000000000000D+00  0.0000000000000D+00
166  1.6500000000000D+00  0.0000000000000D+00  0.0000000000000D+00
167  1.6600000000000D+00  0.0000000000000D+00  0.0000000000000D+00
168  1.6700000000000D+00  0.0000000000000D+00  0.0000000000000D+00
169  1.6800000000000D+00  0.0000000000000D+00  0.0000000000000D+00
170  1.6900000000000D+00  0.0000000000000D+00  0.0000000000000D+00
171  1.7000000000000D+00  0.0000000000000D+00  0.0000000000000D+00
172  1.7100000000000D+00  0.0000000000000D+00  0.0000000000000D+00
173  1.7200000000000D+00  0.0000000000000D+00  0.0000000000000D+00
174  1.7300000000000D+00  0.0000000000000D+00  0.0000000000000D+00
175  1.7400000000000D+00  0.0000000000000D+00  0.0000000000000D+00
176  1.7500000000000D+00  0.0000000000000D+00  0.0000000000000D+00
177  1.7600000000000D+00  0.0000000000000D+00  0.0000000000000D+00
178  1.7700000000000D+00  0.0000000000000D+00  0.0000000000000D+00
179  1.7800000000000D+00  0.0000000000000D+00  0.0000000000000D+00
180  1.7900000000000D+00  0.0000000000000D+00  0.0000000000000D+00
181  1.8000000000000D+00  0.0000000000000D+00  0.0000000000000D+00
182  1.8100000000000D+00  0.0000000000000D+00  0.0000000000000D+00
183  1.8200000000000D+00  0.0000000000000D+00  0.0000000000000D+00
184  1.8300000000000D+00  0.0000000000000D+00  0.0000000000000D+00
185  1.8400000000000D+00  0.0000000000000D+00  0.0000000000000D+00
186  1.8500000000000D+00  0.0000000000000D+00  0.0000000000000D+00
187  1.8600000000000D+00  0.0000000000000D+00  0.0000000000000D+00
188  1.8700000000000D+00  0.0000000000000D+00  0.0000000000000D+00
189  1.8800000000000D+00  0.0000000000000D+00  0.0000000000000D+00
190  1.8900000000000D+00  0.0000000000000D+00  0.0000000000000D+00
191  1.9000000000000D+00  0.0000000000000D+00  0.0000000000000D+00
192  1.9100000000000D+00  0.0000000000000D+00  0.0000000000000D+00
193  1.9200000000000D+00  0.0000000000000D+00  0.0000000000000D+00
194  1.9300000000000D+00  0.0000000000000D+00  0.0000000000000D+00
195  1.9400000000000D+00  0.0000000000000D+00  0.0000000000000D+00
196  1.9500000000000D+00  0.0000000000000D+00  0.0000000000000D+00
197  1.9600000000000D+00  0.0000000000000D+00  0.0000000000000D+00
198  1.9700000000000D+00  0.0000000000000D+00  0.0000000000000D+00
199  1.9800000000000D+00  0.0000000000000D+00  0.0000000000000D+00
200  1.9900000000000D+00  0.0000000000000D+00  0.0000000000000D+00
201  2.0000000000000D+00  0.0000000000000D+00  0.0000000000000D+00
202  2.0100000000000D+00  0.0000000000000D+00  0.0000000000000D+00
203  2.0200000000000D+00  0.0000000000000D+00  0.0000000000000D+00
204  2.0300000000000D+00  0.0000000000000D+00  0.0000000000000D+00
205  2.0400000000000D+00  0.0000000000000D+00  0.0000000000000D+00
206  2.0500000000000D+00  0.0000000000000D+00  0.0000000000000D+00
207  2.0600000000000D+00  0.0000000000000D+00  0.0000000000000D+00
208  2.0700000000000D+00  0.0000000000000D+00  0.0000000000000D+00
209  2.0800000000000D+00  0.0000000000000D+00  0.0000000000000D+00
210  2.0900000000000D+00  0.0000000000000D+00  0.0000000000000D+00
211  2.1000000000000D+00  0.0000000000000D+00  0.0000000000000D+00
212  2.1100000000000D+00  0.0000000000000D+00  0.0000000000000D+00
213  2.1200000000000D+00  0.0000000000000D+00  0.0000000000000D+00
214  2.1300000000000D+00  0.0000000000000D+00  0.0000000000000D+00
215  2.1400000000000D+00  0.0000000000000D+00  0.0000000000000D+00
216  2.1500000000000D+00  0.0000000000000D+00  0.0000000000000D+00
217  2.1600000000000D+00  0.0000000000000D+00  0.0000000000000D+00
218  2.1700000000000D+00  0.0000000000000D+00  0.0000000000000D+00
219  2.1800000000000D+00  0.0000000000000D+00  0.0000000000000D+00
220  2.1900000000000D+00  0.0000000000000D+00  0.0000000000000D+00
221  2.2000000000000D+00  0.0000000000000D+00  0.0000000000000D+00
222  2.2100000000000D+00  0.0000000000000D+00  0.0000000000000D+00
223  2.2200000000000D+00  0.0000000000000D+00  0.0000000000000D+00
224  2.2300000000000D+00  0.0000000000000D+00  0.0000000000000D+00
225  2.2400000000000D+00  0.0000000000000D+00  0.0000000000000D+00
226  2.2500000000000D+00  0.0000000000000D+00  0.0000000000000D+00
227  2.2600000000000D+00  0.0000000000000D+00  0.0000000000000D+00
228  2.2700000000000D+00  0.0000000000000D+00  0.0000000000000D+00
229  2.2800000000000D+00  0.0000000000000D+00  0.0000000000000D+00
230  2.2900000000000D+00  0.0000000000000D+00  0.0000000000000D+00
231  2.3000000000000D+00  0.0000000000000D+00  0.0000000000000D+00
232  2.3100000000000D+00  0.0000000000000D+00  0.0000000000000D+00
233  2.3200000000000D+00  0.0000000000000D+00  0.0000000000000D+00
234  2.3300000000000D+00  0.0000000000000D+00  0.0000000000000D+00
235  2.3400000000000D+00  0.0000000000000D+00  0.0000000000000D+00
236  2.3500000000000D+00  0.0000000000000D+00  0.0000000000000D+00
237  2.3600000000000D+00  0.0000000000000D+00  0.0000000000000D+00
238  2.3700000000000D+00  0.0000000000000D+00  0.0000000000000D+00
239  2.3800000000000D+00  0.0000000000000D+00  0.0000000000000D+00
240  2.3900000000000D+00  0.0000000000000D+00  0.0000000000000D+00
241  2.4000000000000D+00  0.0000000000000D+00  0.0000000000000D+00
242  2.4100000000000D+00  0.0000000000000D+00  0.0000000000000D+00
243  2.4200000000000D+00  0.0000000000000D+00  0.0000000000000D+00
244  2.4300000000000D+00  0.0000000000000D+00  0.0000000000000D+00
245  2.4400000000000D+00  0.0000000000000D+00  0.0000000000000D+00
246  2.4500000000000D+00  0.0000000000000D+00  0.0000000000000D+00
247  2.4600000000000D+00  0.0000000000000D+00  0.0000000000000D+00
248  2.4700000000000D+00  0.0000000000000D+00  0.0000000000000D+00
249  2.4800000000000D+00  0.0000000000000D+00  0.0000000000000D+00
250  2.4900000000000D+00  0.0000000000000D+00  0.0000000000000D+00
251  2.5000000000000D+00  0.0000000000000D+00  0.0000000000000D+00
252  2.5100000000000D+00  0.0000000000000D+00  0.0000000000000D+00
253  2.5200000000000D+00  0.0000000000000D+00  0.0000000000000D+00
254  2.5300000000000D+00  0.0000000000000D+00  0.0000000000000D+00
255  2.5400000000000D+00  0.0000000000000D+00  0.0000000000000D+00
256  2.5500000000000D+00  0.0000000000000D+00  0.0000000000000D+00
257  2.5600000000000D+00  0.0000000000000D+00  0.0000000000000D+00
258  2.5700000000000D+00  0.0000000000000D+00  0.0000000000000D+00
259  2.5800000000000D+00  0.0000000000000D+00  0.0000000000000D+00
260  2.5900000000000D+00  0.0000000000000D+00  0.0000000000000D+00
261  2.6000000000000D+00  0.0000000000000D+00  0.0000000000000D+00
262  2.6100000000000D+00  0.0000000000000D+00  0.0000000000000D+00
263  2.6200000000000D+00  0.0000000000000D+00  0.0000000000000D+00
264  2.6300000000000D+00  0.0000000000000D+00  0.0000000000000D+00
265  2.6400000000000D+00  0.0000000000000D+00  0.0000000000000D+00
266  2.6500000000000D+00  0.0000000000000D+00  0.0000000000000D+00
267  2.6600000000000D+00  0.0000000000000D+00  0.0000000000000D+00
268  2.6700000000000D+00  0.0000000000000D+00  0.0000000000000D+00
269  2.6800000000000D+00  0.0000000000000D+00  0.0000000000000D+00
270  2.6900000000000D+00  0.0000000000000D+00  0.0000000000000D+00
271  2.7000000000000D+00  0.0000000000000D+00  0.0000000000000D+00
272  2.7100000000000D+00  0.0000000000000D+00  0.0000000000000D+00
273  2.7200000000000D+00  0.0000000000000D+00  0.0000000000000D+00
274  2.7300000000000D+00  0.0000000000000D+00  0.0000000000000D+00
275  2.7400000000000D+00  0.0000000000000D+00  0.0000000000000D+00
276  2.7500000000000D+00  0.0000000000000D+00  0.0000000000000D+00
277  2.7600000000000D+00  0.0000000000000D+00  0.0000000000000D+00
278  2.7700000000000D+00  0.0000000000000D+00  0.0000000000000D+00
279  2.7800000000000D+00  0.0000000000000D+00  0.0000000000000D+00
280  2.7900000000000D+00  0.0000000000000D+00  0.0000000000000D+00
281  2.8000000000000D+00  0.0000000000000D+00  0.0000000000000D+00
282  2.8100000000000D+00  0.0000000000000D+00  0.0000000000000D+00
283  2.8200000000000D+00  0.0000000000000D+00  0.0000000000000D+00
284  2.8300000000000D+00  0.0000000000000D+00  0.0000000000000D+00
285  2.8400000000000D+00  0.0000000000000D+00  0.0000000000000D+00
286  2.8500000000000D+00  0.0000000000000D+00  0.0000000000000D+00
287  2.8600000000000D+00  0.0000000000000D+00  0.0000000000000D+00
288  2.8700000000000D+00  0.0000000000000D+00  0.0000000000000D+00
289  2.8800000000000D+00  0.0000000000000D+00  0.0000000000000D+00
290  2.8900000000000D+00  0.0000000000000D+00  0.0000000000000D+00
291  2.9000000000000D+00  0.0000000000000D+00  0.0000000000000D+00
292  2.9100000000000D+00  0.0000000000000D+00  0.0000000000000D+00
293  2.9200000000000D+00  0.0000000000000D+00  0.0000000000000D+00
294  2.9300000000000D+00  0.0000000000000D+00  0.0000000000000D+00
295  2.9400000000000D+00  0.0000000000000D+00  0.0000000000000D+00
296  2.9500000000000D+00  0.0000000000000D+00  0.0000000000000D+00
297  2.9600000000000D+00  0.0000000000000D+00  0.0000000000000D+00
298  2.9700000000000D+00  0.0000000000000D+00  0.0000000000000D+00
299  2.9800000000000D+00  0.0000000000000D+00  0.0000000000000D+00
300  2.9900000000000D+00  0.0000000000000D+00  0.0000000000000D+00
301  3.0000000000000D+00  0.0000000000000D+00  0.0000000000000D+00
302  3.0100000000000D+00  0.0000000000000D+00  0.0000000000000D+00
303  3.0200000000000D+00  0.0000000000000D+00  0.0000000000000D+00
304  3.0300000000000D+00  0.0000000000000D+00  0.0000000000000D+00
305  3.0400000000000D+00  0.0000000000000D+00  0.0000000000000D+00
306  3.0500000000000D+00  0.0000000000000D+00  0.0000000000000D+00
307  3.0600000000000D+00  0.0000000000000D+00  0.0000000000000D+00
308  3.0700000000000D+00  0.0000000000000D+00  0.0000000000000D+00
309  3.0800000000000D+00  0.0000000000000D+00  0.0000000000000D+00
310  3.0900000000000D+00  0.0000000000000D+00  0.0000000000000D+00
311  3.1000000000000D+00  0.0000000000000D+00  0.0000000000000D+00
312  3.1100000000000D+00  0.0000000000000D+00  0.0000000000000D+00
313  3.1200000000000D+00  0.0000000000000D+00  0.0000000000000D+00
314  3.1300000000000D+00  0.0000000000000D+00  0.0000000000000D+00
315  3.1400000000000D+00  0.0000000000000D+00  0.0000000000000D+00
316  3.1500000000000D+00  0.0000000000000D+00  0.0000000000000D+00
317  3.1600000000000D+00  0.0000000000000D+00  0.0000000000000D+00
318  3.1700000000000D+00  0.0000000000000D+00  0.0000000000000D+00
319  3.1800000000000D+00  0.0000000000000D+00  0.0000000000000D+00
320  3.1900000000000D+00  0.0000000000000D+00  0.0000000000000D+00
321  3.2000000000000D+00  0.0000000000000D+00  0.0000000000000D+00
322  3.2100000000000D+00  0.0000000000000D+00  0.0000000000000D+00
323  3.2200000000000D+00  0.0000000000000D+00  0.0000000000000D+00
324  3.2300000000000D+00  0.0000000000000D+00  0.0000000000000D+00
325  3.2400000000000D+00  0.0000000000000D+00  0.0000000000000D+00
326  3.2500000000000D+00  0.0000000000000D+00  0.0000000000000D+00
327  3.2600000000000D+00  0.0000000000000D+00  0.0000000000000D+00
328  3.2700000000000D+00  0.0000000000000D+00  0.0000000000000D+00
329  3.2800000000000D+00  0.0000000000000D+00  0.0000000000000D+00
330  3.2900000000000D+00  0.0000000000000D+00  0.0000000000000D+00
331  3.3000000000000D+00  0.0000000000000D+00  0.0000000000000D+00
332  3.3100000000000D+00  0.0000000000000D+00  0.0000000000000D+00
333  3.3200000000000D+00  0.0000000000000D+00  0.0000000000000D+00
334  3.3300000000000D+00  0.0000000000000D+00  0.0000000000000D+00
335  3.3400000000000D+00  0.0000000000000D+00  0.0000000000000D+00
336  3.3500000000000D+00  0.0000000000000D+00  0.0000000000000D+00
337  3.3600000000000D+00  0.0000000000000D+00  0.0000000000000D+00
338  3.3700000000000D+00  0.0000000000000D+00  0.0000000000000D+00
339  3.3800000000000D+00  0.0000000000000D+00  0.0000000000000D+00
340  3.3900000000000D+00  0.0000000000000D+00  0.0000000000000D+00
341  3.4000000000000D+00  0.0000000000000D+00  0.0000000000000D+00
342  3.4100000000000D+00  0.0000000000000D+00  0.0000000000000D+00
343  3.4200000000000D+00  0.0000000000000D+00  0.0000000000000D+00
344  3.4300000000000D+00  0.0000000000000D+00  0.0000000000000D+00
345  3.4400000000000D+00  0.0000000000000D+00  0.0000000000000D+00
346  3.4500000000000D+00  0.0000000000000D+00  0.0000000000000D+00
347  3.4600000000000D+00  0.0000000000000D+00  0.0000000000000D+00
348  3.4700000000000D+00  0.0000000000000D+00  0.0000000000000D+00
349  3.4800000000000D+00  0.0000000000000D+00  0.0000000000000D+00
350  3.4900000000000D+00  0.0000000000000D+00  0.0000000000000D+00
351  3.5000000000000D+00  0.0000000000000D+00  0.0000000000000D+00
352  3.5100000000000D+00  0.0000000000000D+00  0.0000000000000D+00
353  3.5200000000000D+00  0.0000000000000D+00  0.0000000000000D+00
354  3.5300000000000D+00  0.0000000000000D+00  0.0000000000000D+00
355  3.5400000000000D+00  0.0000000000000D+00  0.0000000000000D+00
356  3.5500000000000D+00  0.0000000000000D+00  0.0000000000000D+00
357  3.5600000000000D+00  0.0000000000000D+00  0.0000000000000D+00
358  3.5700000000000D+00  0.0000000000000D+00  0.0000000000000D+00
359  3.5800000000000D+00  0.0000000000000D+00  0.0000000000000D+00
360  3.5900000000000D+00  0.0000000000000D+00  0.0000000000000D+00
361  3.6000000000000D+00  0.0000000000000D+00  0.0000000000000D+00
362  3.6100000000000D+00  0.0000000000000D+00  0.0000000000000D+00
363  3.6200000000000D+00  0.0000000000000D+00  0.0000000000000D+00
364  3.6300000000000D+00  0.0000000000000D+00  0.0000000000000D+00
365  3.6400000000000D+00  0.0000000000000D+00  0.0000000000000D+00
366  3.6500000000000D+00  0.0000000000000D+00  0.0000000000000D+00
367  3.6600000000000D+00  0.0000000000000D+00  0.0000000000000D+00
368  3.6700000000000D+00  0.0000000000000D+00  0.0000000000000D+00
369  3.6800000000000D+00  0.0000000000000D+00  0.0000000000000D+00
370  3.6900000000000D+00  0.0000000000000D+00  0.0000000000000D+00
371  3.7000000000000D+00  0.0000000000000D+00  0.0000000000000D+00
372  3.7100000000000D+00  0.0000000000000D+00  0.0000000000000D+00
373  3.7200000000000D+00  0.0000000000000D+00  0.0000000000000D+00
374  3.7300000000000D+00  0.0000000000000D+00  0.0000000000000D+00
375  3.7400000000000D+00  0.0000000000000D+00  0.0000000000000D+00
376  3.7500000000000D+00  0.0000000000000D+00  0.0000000000000D+00
377  3.7600000000000D+00  0.0000000000000D+00  0.0000000000000D+00
378  3.7700000000000D+00  0.0000000000000D+00  0.0000000000000D+00
379  3.7800000000000D+00  0.0000000000000D+00  0.0000000000000D+00
380  3.7900000000000D+00  0.0000000000000D+00  0.0000000000000D+00
381  3.8000000000000D+00  0.0000000000000D+00  0.0000000000000D+00
382  3.8100000000000D+00  0.0000000000000D+00  0.0000000000000D+00
383  3.8200000000000D+00  0.0000000000000D+00  0.0000000000000D+00
384  3.8300000000000D+00  0.0000000000000D+00  0.0000000000000D+00
385  3.8400000000000D+00  0.0000000000000D+00  0.0000000000000D+00
386  3.8500000000000D+00  0.0000000000000D+00  0.0000000000000D+00
387  3.8600000000000D+00  0.0000000000000D+00  0.0000000000000D+00
388  3.8700000000000D+00  0.0000000000000D+00  0.0000000000000D+00
389  3.8800000000000D+00  0.0000000000000D+00  0.0000000000000D+00
390  3.8900000000000D+00  0.0000000000000D+00  0.0000000000000D+00
391  3.9000000000000D+00  0.0000000000000D+00  0.0000000000000D+00
392  3.9100000000000D+00  0.0000000000000D+00  0.0000000000000D+00
393  3.9200000000000D+00  0.0000000000000D+00  0.0000000000000D+00
394  3.9300000000000D+00  0.0000000000000D+00  0.0000000000000D+00
395  3.9400000000000D+00  0.0000000000000D+00  0.0000000000000D+00
396  3.9500000000000D+00  0.0000000000000D+00  0.0000000000000D+00
397  3.9600000000000D+00  0.0000000000000D+00  0.0000000000000D+00
398  3.9700000000000D+00  0.0000000000000D+00  0.0000000000000D+00
399  3.9800000000000D+00  0.0000000000000D+00  0.0000000000000D+00
400  3.9900000000000D+00  0.0000000000000D+00  0.0000000000000D+00
401  4.0000000000000D+00  0.0000000000000D+00  0.0000000000000D+00
402  4.0100000000000D+00  0.0000000000000D+00  0.0000000000000D+00
403  4.0200000000000D+00  0.0000000000000D+00  0.0000000000000D+00
404  4.0300000000000D+00  0.0000000000000D+00  0.0000000000000D+00
405  4.0400000000000D+00  0.0000000000000D+00  0.0000000000000D+00
406  4.0500000000000D+00  0.0000000000000D+00  0.0000000000000D+00
407  4.0600000000000D+00  0.0000000000000D+00  0.0000000000000D+00
408  4.0700000000000D+00  0.0000000000000D+00  0.0000000000000D+00
409  4.0800000000000D+00  0.0000000000000D+00  0.0000000000000D+00
410  4.0900000000000D+00  0.0000000000000D+00  0.0000000000000D+00
411  4.1000000000000D+00  0.0000000000000D+00  0.0000000000000D+00
412  4.1100000000000D+00  0.0000000000000D+00  0.0000000000000D+00
413  4.1200000000000D+00  0.0000000000000D+00  0.0000000000000D+00
414  4.1300000000000D+00  0.0000000000000D+00  0.0000000000000D+00
415  4.1400000000000D+00  0.0000000000000D+00  0.0000000000000D+00
416  4.1500000000000D+00  0.0000000000000D+00  0.0000000000000D+00
417  4.1600000000000D+00  0.0000000000000D+00  0.0000000000000D+00
418  4.1700000000000D+00  0.0000000000000D+00  0.0000000000000D+00
419  4.1800000000000D+00  0.0000000000000D+00  0.0000000000000D+00
420  4.1900000000000D+00  0.0000000000000D+00  0.0000000000000D+00
421  4.2000000000000D+00  0.0000000000000D+00  0.0000000000000D+00
422  4.2100000000000D+00  0.0000000000000D+00  0.0000000000000D+00
423  4.2200000000000D+00  0.0000000000000D+00  0.0000000000000D+00
424  4.2300000000000D+00  0.0000000000000D+00  0.0000000000000D+00
425  4.2400000000000D+00  0.0000000000000D+00  0.0000000000000D+00
426  4.2500000000000D+00  0.0000000000000D+00  0.0000000000000D+00
427  4.2600000000000D+00  0.0000000000000D+00  0.0000000000000D+00
428  4.2700000000000D+00  0.0000000000000D+00  0.0000000000000D+00
429  4.2800000000000D+00  0.0000000000000D+00  0.0000000000000D+00
430  4.2900000000000D+00  0.0000000000000D+00  0.0000000000000D+00
431  4.3000000000000D+00  0.0000000000000D+00  0.0000000000000D+00
432  4.3100000000000D+00  0.0000000000000D+00  0.0000000000000D+00
433  4.3200000000000D+00  0.0000000000000D+00  0.0000000000000D+00
434  4.3300000000000D+00  0.0000000000000D+00  0.0000000000000D+00
435  4.3400000000000D+00  0.0000000000000D+00  0.0000000000000D+00
436  4.3500000000000D+00  0.0000000000000D+00  0.0000000000000D+00
437  4.3600000000000D+00  0.0000000000000D+00  0.0000000000000D+00
438  4.3700000000000D+00  0.0000000000000D+00  0.0000000000000D+00
439  4.3800000000000D+00  0.0000000000000D+00  0.0000000000000D+00
440  4.3900000000000D+00  0.0000000000000D+00  0.0000000000000D+00
441  4.4000000000000D+00  0.0000000000000D+00  0.0000000000000D+00
442  4.4100000000000D+00  0.0000000000000D+00  0.0000000000000D+00
443  4.4200000000000D+00  0.0000000000000D+00  0.0000000000000D+00