He    ONCVPSP-3.3.0  r_core=   1.26476   1.13601
2.0000      2.0000      180423    zatom,zion,pspd
8      11   1     4   600     0    pspcod,pspxc,lmax,lloc,mmax,r2well
5.99000000  0.00000000  0.00000000    rchrg fchrg qchrg
2     2     0     0    nproj
3     1           extension_switch
2     0     0    nprojso
0                        -3.5156005991068D+00 -8.0227151473909D-01
1  0.0000000000000D+00 -2.3202120225108D-09  7.0697512288831D-09
2  1.0000000000000D-02  1.0938931711203D-01 -5.2008665305483D-02
3  2.0000000000000D-02  2.1833126267889D-01 -1.0343637761685D-01
4  3.0000000000000D-02  3.2638159895843D-01 -1.5370888532111D-01
5  4.0000000000000D-02  4.3310231858568D-01 -2.0226523616403D-01
6  5.0000000000000D-02  5.3806466729653D-01 -2.4856417027415D-01
7  6.0000000000000D-02  6.4085205738343D-01 -2.9209021035506D-01
8  7.0000000000000D-02  7.4106283824380D-01 -3.3235935658939D-01
9  8.0000000000000D-02  8.3831289270189D-01 -3.6892430086785D-01
10  9.0000000000000D-02  9.3223803060483D-01 -4.0137908354186D-01
11  1.0000000000000D-01  1.0224961544615D+00 -4.2936312583737D-01
12  1.1000000000000D-01  1.1087691755493D+00 -4.5256458217608D-01
13  1.2000000000000D-01  1.1907646628935D+00 -4.7072296871687D-01
14  1.3000000000000D-01  1.2682172117513D+00 -4.8363103723224D-01
15  1.4000000000000D-01  1.3408895226352D+00 -4.9113587672964D-01
16  1.5000000000000D-01  1.4085731864072D+00 -4.9313923876800D-01
17  1.6000000000000D-01  1.4710891754799D+00 -4.8959709595223D-01
18  1.7000000000000D-01  1.5282880456037D+00 -4.8051845635945D-01
19  1.8000000000000D-01  1.5800498570081D+00 -4.6596346941341D-01
20  1.9000000000000D-01  1.6262838277336D+00 -4.4604087073870D-01
21  2.0000000000000D-01  1.6669277357590D+00 -4.2090482457263D-01
22  2.1000000000000D-01  1.7019470899411D+00 -3.9075123218209D-01
23  2.2000000000000D-01  1.7313340927650D+00 -3.5581358324660D-01
24  2.3000000000000D-01  1.7551064204227D+00 -3.1635843416705D-01
25  2.4000000000000D-01  1.7733058477356D+00 -2.7268060261875D-01
26  2.5000000000000D-01  1.7859967468913D+00 -2.2509817128747D-01
27  2.6000000000000D-01  1.7932644898549D+00 -1.7394739554936D-01
28  2.7000000000000D-01  1.7952137846247D+00 -1.1957760984929D-01
29  2.8000000000000D-01  1.7919669752364D+00 -6.2346225704731D-02
30  2.9000000000000D-01  1.7836623345912D+00 -2.6139106572624D-03
31  3.0000000000000D-01  1.7704523778102D+00  5.9259967814627D-02
32  3.1000000000000D-01  1.7525022219348D+00  1.2292155630974D-01
33  3.2000000000000D-01  1.7299880154508D+00  1.8802631868852D-01
34  3.3000000000000D-01  1.7030954583445D+00  2.5424236931235D-01
35  3.4000000000000D-01  1.6720184302899D+00  3.2125328795606D-01
36  3.5000000000000D-01  1.6369577411553D+00  3.8876037962536D-01
37  3.6000000000000D-01  1.5981200143989D+00  4.5648435477052D-01
38  3.7000000000000D-01  1.5557167101580D+00  5.2416641805094D-01
39  3.8000000000000D-01  1.5099632910119D+00  5.9156876661988D-01
40  3.9000000000000D-01  1.4610785295899D+00  6.5847451160822D-01
41  4.0000000000000D-01  1.4092839534851D+00  7.2468704883687D-01
42  4.1000000000000D-01  1.3548034193925D+00  7.9002891653438D-01
43  4.2000000000000D-01  1.2978628051023D+00  8.5434018873908D-01
44  4.3000000000000D-01  1.2386898049995D+00  9.1747646290976D-01
45  4.4000000000000D-01  1.1775138121215D+00  9.7930650884985D-01
46  4.5000000000000D-01  1.1145658676611D+00  1.0397096531979D+00
47  4.6000000000000D-01  1.0500786571093D+00  1.0985729792997D+00
48  4.7000000000000D-01  9.8428653105867D-01  1.1557884261417D+00
49  4.8000000000000D-01  9.1742552805377D-01  1.2112498721045D+00
50  4.9000000000000D-01  8.4973337679208D-01  1.2648502895460D+00
51  5.0000000000000D-01  7.8144945545956D-01  1.3164790546262D+00
52  5.1000000000000D-01  7.1281468701204D-01  1.3660194933717D+00
53  5.2000000000000D-01  6.4407135077510D-01  1.4133467398013D+00
54  5.3000000000000D-01  5.7546279279686D-01  1.4583259750975D+00
55  5.4000000000000D-01  5.0723301991024D-01  1.5008111084335D+00
56  5.5000000000000D-01  4.3962616539777D-01  1.5406439503118D+00
57  5.6000000000000D-01  3.7288581743241D-01  1.5776539183502D+00
58  5.7000000000000D-01  3.0725420504399D-01  1.6116583035251D+00
59  5.8000000000000D-01  2.4297124013598D-01  1.6424631122605D+00
60  5.9000000000000D-01  1.8027341799837D-01  1.6698644865994D+00
61  6.0000000000000D-01  1.1939258272110D-01  1.6936506913667D+00
62  6.1000000000000D-01  6.0554567856238D-02  1.7136046438915D+00
63  6.2000000000000D-01  3.9777264805121D-03  1.7295069489126D+00
64  6.3000000000000D-01 -5.0128631555756D-02  1.7411393888268D+00
65  6.4000000000000D-01 -1.0156587408355D-01  1.7482888079316D+00
66  6.5000000000000D-01 -1.5014772866944D-01  1.7507513187965D+00
67  6.6000000000000D-01 -1.9570198560435D-01  1.7483367497380D+00
68  6.7000000000000D-01 -2.3807219308938D-01  1.7408732447330D+00
69  6.8000000000000D-01 -2.7711931433582D-01  1.7282119211185D+00
70  6.9000000000000D-01 -3.1272331533875D-01  1.7102314862949D+00
71  7.0000000000000D-01 -3.4478465173892D-01  1.6868427124564D+00
72  7.1000000000000D-01 -3.7322562346633D-01  1.6579926681738D+00
73  7.2000000000000D-01 -3.9799156678972D-01  1.6236686075177D+00
74  7.3000000000000D-01 -4.1905185495541D-01  1.5839014213073D+00
75  7.4000000000000D-01 -4.3640068077961D-01  1.5387685609574D+00
76  7.5000000000000D-01 -4.5005759733391D-01  1.4883963532095D+00
77  7.6000000000000D-01 -4.6006779617899D-01  1.4329616336068D+00
78  7.7000000000000D-01 -4.6650210642170D-01  1.3726926378004D+00
79  7.8000000000000D-01 -4.6945670213044D-01  1.3078691024536D+00
80  7.9000000000000D-01 -4.6905251025224D-01  1.2388215413713D+00
81  8.0000000000000D-01 -4.6543431607846D-01  1.1659296773474D+00
82  8.1000000000000D-01 -4.5876956840106D-01  1.0896200257801D+00
83  8.2000000000000D-01 -4.4924689170302D-01  1.0103626420845D+00
84  8.3000000000000D-01 -4.3707431793739D-01  9.2866706103420D-01
85  8.4000000000000D-01 -4.2247725557503D-01  8.4507747208927D-01
86  8.5000000000000D-01 -4.0569621854298D-01  7.6016719020914D-01
87  8.6000000000000D-01 -3.8698434234179D-01  6.7453249631726D-01
88  8.7000000000000D-01 -3.6660471892810D-01  5.8878593518600D-01
89  8.8000000000000D-01 -3.4482758579524D-01  5.0354917078156D-01
90  8.9000000000000D-01 -3.2192740800123D-01  4.1944550980012D-01
91  9.0000000000000D-01 -2.9817989461106D-01  3.3709221301851D-01
92  9.1000000000000D-01 -2.7385899308046D-01  2.5709272098513D-01
93  9.2000000000000D-01 -2.4923390646316D-01  1.8002892533588D-01
94  9.3000000000000D-01 -2.2456617893821D-01  1.0645361951762D-01
95  9.4000000000000D-01 -2.0010689500580D-01  3.6883262863763D-02
96  9.5000000000000D-01 -1.7609403678084D-01 -2.8208810242771D-02
97  9.6000000000000D-01 -1.5275004213917D-01 -8.8398608922507D-02
98  9.7000000000000D-01 -1.3027960398107D-01 -1.4331701192221D-01
99  9.8000000000000D-01 -1.0886774833228D-01 -1.9265448794695D-01
100  9.9000000000000D-01 -8.8678224500275D-02 -2.3616491106645D-01
101  1.0000000000000D+00 -6.9852212509790D-02 -2.7366847840467D-01
102  1.0100000000000D+00 -5.2507506849700D-02 -3.0505311297025D-01
103  1.0200000000000D+00 -3.6737619380550D-02 -3.3027664175039D-01
104  1.0300000000000D+00 -2.2610392549149D-02 -3.4937132701625D-01
105  1.0400000000000D+00 -1.0166943083470D-02 -3.6244720487387D-01
106  1.0500000000000D+00  5.7807502678093D-04 -3.6969036316535D-01
107  1.0600000000000D+00  9.6357721774361D-03 -3.7135988181546D-01
108  1.0700000000000D+00  1.7041969434296D-02 -3.6778376700004D-01
109  1.0800000000000D+00  2.2855781541993D-02 -3.5935381839714D-01
110  1.0900000000000D+00  2.7157864821383D-02 -3.4651952144556D-01
111  1.1000000000000D+00  3.0048360462545D-02 -3.2978105850327D-01
112  1.1100000000000D+00  3.1644567422542D-02 -3.0968154180664D-01
113  1.1200000000000D+00  3.2078383313858D-02 -2.8679858450620D-01
114  1.1300000000000D+00  3.1493555911800D-02 -2.6173533905123D-01
115  1.1400000000000D+00  3.0042790970611D-02 -2.3511114184397D-01
116  1.1500000000000D+00  2.7884763516498D-02 -2.0755190670830D-01
117  1.1600000000000D+00  2.5181083482137D-02 -1.7968042262056D-01
118  1.1700000000000D+00  2.2093266620381D-02 -1.5210671111810D-01
119  1.1800000000000D+00  1.8779757591263D-02 -1.2541858373251D-01
120  1.1900000000000D+00  1.5393058486992D-02 -1.0017256399979D-01
121  1.2000000000000D+00  1.2077009374201D-02 -7.6885315297102D-02
122  1.2100000000000D+00  8.9642646795677D-03 -5.6025707211154D-02
123  1.2200000000000D+00  6.1740093300311D-03 -3.8007654941865D-02
124  1.2300000000000D+00  3.8113901656220D-03 -2.3192470533399D-02
125  1.2400000000000D+00  1.9508620330466D-03 -1.1793252877438D-02
126  1.2500000000000D+00  6.8910766249589D-04 -4.1995978424898D-03
127  1.2600000000000D+00  7.9713230139339D-05 -5.8666230475109D-04
128  1.2700000000000D+00 -5.6874390190093D-05  2.6078901401172D-04
129  1.2800000000000D+00  2.8639399423323D-07 -1.4339223452393D-06
130  1.2900000000000D+00  1.1990946544374D-05 -6.1528857894314D-05
131  1.3000000000000D+00 -2.4154493444396D-06  1.2031123705533D-05
132  1.3100000000000D+00 -4.3402776983026D-07  2.1851634820200D-06
133  1.3200000000000D+00  7.6676488918793D-08 -1.6266647164029D-07
134  1.3300000000000D+00  0.0000000000000D+00  0.0000000000000D+00
135  1.3400000000000D+00  0.0000000000000D+00  0.0000000000000D+00
136  1.3500000000000D+00  0.0000000000000D+00  0.0000000000000D+00
137  1.3600000000000D+00  0.0000000000000D+00  0.0000000000000D+00
138  1.3700000000000D+00  0.0000000000000D+00  0.0000000000000D+00
139  1.3800000000000D+00  0.0000000000000D+00  0.0000000000000D+00
140  1.3900000000000D+00  0.0000000000000D+00  0.0000000000000D+00
141  1.4000000000000D+00  0.0000000000000D+00  0.0000000000000D+00
142  1.4100000000000D+00  0.0000000000000D+00  0.0000000000000D+00
143  1.4200000000000D+00  0.0000000000000D+00  0.0000000000000D+00
144  1.4300000000000D+00  0.0000000000000D+00  0.0000000000000D+00
145  1.4400000000000D+00  0.0000000000000D+00  0.0000000000000D+00
146  1.4500000000000D+00  0.0000000000000D+00  0.0000000000000D+00
147  1.4600000000000D+00  0.0000000000000D+00  0.0000000000000D+00
148  1.4700000000000D+00  0.0000000000000D+00  0.0000000000000D+00
149  1.4800000000000D+00  0.0000000000000D+00  0.0000000000000D+00
150  1.4900000000000D+00  0.0000000000000D+00  0.0000000000000D+00
151  1.5000000000000D+00  0.0000000000000D+00  0.0000000000000D+00
152  1.5100000000000D+00  0.0000000000000D+00  0.0000000000000D+00
153  1.5200000000000D+00  0.0000000000000D+00  0.0000000000000D+00
154  1.5300000000000D+00  0.0000000000000D+00  0.0000000000000D+00
155  1.5400000000000D+00  0.0000000000000D+00  0.0000000000000D+00
156  1.5500000000000D+00  0.0000000000000D+00  0.0000000000000D+00
157  1.5600000000000D+00  0.0000000000000D+00  0.0000000000000D+00
158  1.5700000000000D+00  0.0000000000000D+00  0.0000000000000D+00
159  1.5800000000000D+00  0.0000000000000D+00  0.0000000000000D+00
160  1.5900000000000D+00  0.0000000000000D+00  0.0000000000000D+00
161  1.6000000000000D+00  0.0000000000000D+00  0.0000000000000D+00
162  1.6100000000000D+00  0.0000000000000D+00  0.0000000000000D+00
163  1.6200000000000D+00  0.0000000000000D+00  0.0000000000000D+00
164  1.6300000000000D+00  0.0000000000000D+00  0.0000000000000D+00
165  1.6400000000000D+00  0.0000000000000D+00  0.0000000000000D+00
166  1.6500000000000D+00  0.0000000000000D+00  0.0000000000000D+00
167  1.6600000000000D+00  0.0000000000000D+00  0.0000000000000D+00
168  1.6700000000000D+00  0.0000000000000D+00  0.0000000000000D+00
169  1.6800000000000D+00  0.0000000000000D+00  0.0000000000000D+00
170  1.6900000000000D+00  0.0000000000000D+00  0.0000000000000D+00
171  1.7000000000000D+00  0.0000000000000D+00  0.0000000000000D+00
172  1.7100000000000D+00  0.0000000000000D+00  0.0000000000000D+00
173  1.7200000000000D+00  0.0000000000000D+00  0.0000000000000D+00
174  1.7300000000000D+00  0.0000000000000D+00  0.0000000000000D+00
175  1.7400000000000D+00  0.0000000000000D+00  0.0000000000000D+00
176  1.7500000000000D+00  0.0000000000000D+00  0.0000000000000D+00
177  1.7600000000000D+00  0.0000000000000D+00  0.0000000000000D+00
178  1.7700000000000D+00  0.0000000000000D+00  0.0000000000000D+00
179  1.7800000000000D+00  0.0000000000000D+00  0.0000000000000D+00
180  1.7900000000000D+00  0.0000000000000D+00  0.0000000000000D+00
181  1.8000000000000D+00  0.0000000000000D+00  0.0000000000000D+00
182  1.8100000000000D+00  0.0000000000000D+00  0.0000000000000D+00
183  1.8200000000000D+00  0.0000000000000D+00  0.0000000000000D+00
184  1.8300000000000D+00  0.0000000000000D+00  0.0000000000000D+00
185  1.8400000000000D+00  0.0000000000000D+00  0.0000000000000D+00
186  1.8500000000000D+00  0.0000000000000D+00  0.0000000000000D+00
187  1.8600000000000D+00  0.0000000000000D+00  0.0000000000000D+00
188  1.8700000000000D+00  0.0000000000000D+00  0.0000000000000D+00
189  1.8800000000000D+00  0.0000000000000D+00  0.0000000000000D+00
190  1.8900000000000D+00  0.0000000000000D+00  0.0000000000000D+00
191  1.9000000000000D+00  0.0000000000000D+00  0.0000000000000D+00
192  1.9100000000000D+00  0.0000000000000D+00  0.0000000000000D+00
193  1.9200000000000D+00  0.0000000000000D+00  0.0000000000000D+00
194  1.9300000000000D+00  0.0000000000000D+00  0.0000000000000D+00
195  1.9400000000000D+00  0.0000000000000D+00  0.0000000000000D+00
196  1.9500000000000D+00  0.0000000000000D+00  0.0000000000000D+00
197  1.9600000000000D+00  0.0000000000000D+00  0.0000000000000D+00
198  1.9700000000000D+00  0.0000000000000D+00  0.0000000000000D+00
199  1.9800000000000D+00  0.0000000000000D+00  0.0000000000000D+00
200  1.9900000000000D+00  0.0000000000000D+00  0.0000000000000D+00
201  2.0000000000000D+00  0.0000000000000D+00  0.0000000000000D+00
202  2.0100000000000D+00  0.0000000000000D+00  0.0000000000000D+00
203  2.0200000000000D+00  0.0000000000000D+00  0.0000000000000D+00
204  2.0300000000000D+00  0.0000000000000D+00  0.0000000000000D+00
205  2.0400000000000D+00  0.0000000000000D+00  0.0000000000000D+00
206  2.0500000000000D+00  0.0000000000000D+00  0.0000000000000D+00
207  2.0600000000000D+00  0.0000000000000D+00  0.0000000000000D+00
208  2.0700000000000D+00  0.0000000000000D+00  0.0000000000000D+00
209  2.0800000000000D+00  0.0000000000000D+00  0.0000000000000D+00
210  2.0900000000000D+00  0.0000000000000D+00  0.0000000000000D+00
211  2.1000000000000D+00  0.0000000000000D+00  0.0000000000000D+00
212  2.1100000000000D+00  0.0000000000000D+00  0.0000000000000D+00
213  2.1200000000000D+00  0.0000000000000D+00  0.0000000000000D+00
214  2.1300000000000D+00  0.0000000000000D+00  0.0000000000000D+00
215  2.1400000000000D+00  0.0000000000000D+00  0.0000000000000D+00
216  2.1500000000000D+00  0.0000000000000D+00  0.0000000000000D+00
217  2.1600000000000D+00  0.0000000000000D+00  0.0000000000000D+00
218  2.1700000000000D+00  0.0000000000000D+00  0.0000000000000D+00
219  2.1800000000000D+00  0.0000000000000D+00  0.0000000000000D+00
220  2.1900000000000D+00  0.0000000000000D+00  0.0000000000000D+00
221  2.2000000000000D+00  0.0000000000000D+00  0.0000000000000D+00
222  2.2100000000000D+00  0.0000000000000D+00  0.0000000000000D+00
223  2.2200000000000D+00  0.0000000000000D+00  0.0000000000000D+00
224  2.2300000000000D+00  0.0000000000000D+00  0.0000000000000D+00
225  2.2400000000000D+00  0.0000000000000D+00  0.0000000000000D+00
226  2.2500000000000D+00  0.0000000000000D+00  0.0000000000000D+00
227  2.2600000000000D+00  0.0000000000000D+00  0.0000000000000D+00
228  2.2700000000000D+00  0.0000000000000D+00  0.0000000000000D+00
229  2.2800000000000D+00  0.0000000000000D+00  0.0000000000000D+00
230  2.2900000000000D+00  0.0000000000000D+00  0.0000000000000D+00
231  2.3000000000000D+00  0.0000000000000D+00  0.0000000000000D+00
232  2.3100000000000D+00  0.0000000000000D+00  0.0000000000000D+00
233  2.3200000000000D+00  0.0000000000000D+00  0.0000000000000D+00
234  2.3300000000000D+00  0.0000000000000D+00  0.0000000000000D+00
235  2.3400000000000D+00  0.0000000000000D+00  0.0000000000000D+00
236  2.3500000000000D+00  0.0000000000000D+00  0.0000000000000D+00
237  2.3600000000000D+00  0.0000000000000D+00  0.0000000000000D+00
238  2.3700000000000D+00  0.0000000000000D+00  0.0000000000000D+00
239  2.3800000000000D+00  0.0000000000000D+00  0.0000000000000D+00
240  2.3900000000000D+00  0.0000000000000D+00  0.0000000000000D+00
241  2.4000000000000D+00  0.0000000000000D+00  0.0000000000000D+00
242  2.4100000000000D+00  0.0000000000000D+00  0.0000000000000D+00
243  2.4200000000000D+00  0.0000000000000D+00  0.0000000000000D+00
244  2.4300000000000D+00  0.0000000000000D+00  0.0000000000000D+00
245  2.4400000000000D+00  0.0000000000000D+00  0.0000000000000D+00
246  2.4500000000000D+00  0.0000000000000D+00  0.0000000000000D+00
247  2.4600000000000D+00  0.0000000000000D+00  0.0000000000000D+00
248  2.4700000000000D+00  0.0000000000000D+00  0.0000000000000D+00
249  2.4800000000000D+00  0.0000000000000D+00  0.0000000000000D+00
250  2.4900000000000D+00  0.0000000000000D+00  0.0000000000000D+00
251  2.5000000000000D+00  0.0000000000000D+00  0.0000000000000D+00
252  2.5100000000000D+00  0.0000000000000D+00  0.0000000000000D+00
253  2.5200000000000D+00  0.0000000000000D+00  0.0000000000000D+00
254  2.5300000000000D+00  0.0000000000000D+00  0.0000000000000D+00
255  2.5400000000000D+00  0.0000000000000D+00  0.0000000000000D+00
256  2.5500000000000D+00  0.0000000000000D+00  0.0000000000000D+00
257  2.5600000000000D+00  0.0000000000000D+00  0.0000000000000D+00
258  2.5700000000000D+00  0.0000000000000D+00  0.0000000000000D+00
259  2.5800000000000D+00  0.0000000000000D+00  0.0000000000000D+00
260  2.5900000000000D+00  0.0000000000000D+00  0.0000000000000D+00
261  2.6000000000000D+00  0.0000000000000D+00  0.0000000000000D+00
262  2.6100000000000D+00  0.0000000000000D+00  0.0000000000000D+00
263  2.6200000000000D+00  0.0000000000000D+00  0.0000000000000D+00
264  2.6300000000000D+00  0.0000000000000D+00  0.0000000000000D+00
265  2.6400000000000D+00  0.0000000000000D+00  0.0000000000000D+00
266  2.6500000000000D+00  0.0000000000000D+00  0.0000000000000D+00
267  2.6600000000000D+00  0.0000000000000D+00  0.0000000000000D+00
268  2.6700000000000D+00  0.0000000000000D+00  0.0000000000000D+00
269  2.6800000000000D+00  0.0000000000000D+00  0.0000000000000D+00
270  2.6900000000000D+00  0.0000000000000D+00  0.0000000000000D+00
271  2.7000000000000D+00  0.0000000000000D+00  0.0000000000000D+00
272  2.7100000000000D+00  0.0000000000000D+00  0.0000000000000D+00
273  2.7200000000000D+00  0.0000000000000D+00  0.0000000000000D+00
274  2.7300000000000D+00  0.0000000000000D+00  0.0000000000000D+00
275  2.7400000000000D+00  0.0000000000000D+00  0.0000000000000D+00
276  2.7500000000000D+00  0.0000000000000D+00  0.0000000000000D+00
277  2.7600000000000D+00  0.0000000000000D+00  0.0000000000000D+00
278  2.7700000000000D+00  0.0000000000000D+00  0.0000000000000D+00
279  2.7800000000000D+00  0.0000000000000D+00  0.0000000000000D+00
280  2.7900000000000D+00  0.0000000000000D+00  0.0000000000000D+00
281  2.8000000000000D+00  0.0000000000000D+00  0.0000000000000D+00
282  2.8100000000000D+00  0.0000000000000D+00  0.0000000000000D+00
283  2.8200000000000D+00  0.0000000000000D+00  0.0000000000000D+00
284  2.8300000000000D+00  0.0000000000000D+00  0.0000000000000D+00
285  2.8400000000000D+00  0.0000000000000D+00  0.0000000000000D+00
286  2.8500000000000D+00  0.0000000000000D+00  0.0000000000000D+00
287  2.8600000000000D+00  0.0000000000000D+00  0.0000000000000D+00
288  2.8700000000000D+00  0.0000000000000D+00  0.0000000000000D+00
289  2.8800000000000D+00  0.0000000000000D+00  0.0000000000000D+00
290  2.8900000000000D+00  0.0000000000000D+00  0.0000000000000D+00
291  2.9000000000000D+00  0.0000000000000D+00  0.0000000000000D+00
292  2.9100000000000D+00  0.0000000000000D+00  0.0000000000000D+00
293  2.9200000000000D+00  0.0000000000000D+00  0.0000000000000D+00
294  2.9300000000000D+00  0.0000000000000D+00  0.0000000000000D+00
295  2.9400000000000D+00  0.0000000000000D+00  0.0000000000000D+00
296  2.9500000000000D+00  0.0000000000000D+00  0.0000000000000D+00
297  2.9600000000000D+00  0.0000000000000D+00  0.0000000000000D+00
298  2.9700000000000D+00  0.0000000000000D+00  0.0000000000000D+00
299  2.9800000000000D+00  0.0000000000000D+00  0.0000000000000D+00
300  2.9900000000000D+00  0.0000000000000D+00  0.0000000000000D+00
301  3.0000000000000D+00  0.0000000000000D+00  0.0000000000000D+00
302  3.0100000000000D+00  0.0000000000000D+00  0.0000000000000D+00
303  3.0200000000000D+00  0.0000000000000D+00  0.0000000000000D+00
304  3.0300000000000D+00  0.0000000000000D+00  0.0000000000000D+00
305  3.0400000000000D+00  0.0000000000000D+00  0.0000000000000D+00
306  3.0500000000000D+00  0.0000000000000D+00  0.0000000000000D+00
307  3.0600000000000D+00  0.0000000000000D+00  0.0000000000000D+00
308  3.0700000000000D+00  0.0000000000000D+00  0.0000000000000D+00
309  3.0800000000000D+00  0.0000000000000D+00  0.0000000000000D+00
310  3.0900000000000D+00  0.0000000000000D+00  0.0000000000000D+00
311  3.1000000000000D+00  0.0000000000000D+00  0.0000000000000D+00
312  3.1100000000000D+00  0.0000000000000D+00  0.0000000000000D+00
313  3.1200000000000D+00  0.0000000000000D+00  0.0000000000000D+00
314  3.1300000000000D+00  0.0000000000000D+00  0.0000000000000D+00
315  3.1400000000000D+00  0.0000000000000D+00  0.0000000000000D+00
316  3.1500000000000D+00  0.0000000000000D+00  0.0000000000000D+00
317  3.1600000000000D+00  0.0000000000000D+00  0.0000000000000D+00
318  3.1700000000000D+00  0.0000000000000D+00  0.0000000000000D+00
319  3.1800000000000D+00  0.0000000000000D+00  0.0000000000000D+00
320  3.1900000000000D+00  0.0000000000000D+00  0.0000000000000D+00
321  3.2000000000000D+00  0.0000000000000D+00  0.0000000000000D+00
322  3.2100000000000D+00  0.0000000000000D+00  0.0000000000000D+00
323  3.2200000000000D+00  0.0000000000000D+00  0.0000000000000D+00
324  3.2300000000000D+00  0.0000000000000D+00  0.0000000000000D+00
325  3.2400000000000D+00  0.0000000000000D+00  0.0000000000000D+00
326  3.2500000000000D+00  0.0000000000000D+00  0.0000000000000D+00
327  3.2600000000000D+00  0.0000000000000D+00  0.0000000000000D+00
328  3.2700000000000D+00  0.0000000000000D+00  0.0000000000000D+00
329  3.2800000000000D+00  0.0000000000000D+00  0.0000000000000D+00
330  3.2900000000000D+00  0.0000000000000D+00  0.0000000000000D+00
331  3.3000000000000D+00  0.0000000000000D+00  0.0000000000000D+00
332  3.3100000000000D+00  0.0000000000000D+00  0.0000000000000D+00
333  3.3200000000000D+00  0.0000000000000D+00  0.0000000000000D+00
334  3.3300000000000D+00  0.0000000000000D+00  0.0000000000000D+00
335  3.3400000000000D+00  0.0000000000000D+00  0.0000000000000D+00
336  3.3500000000000D+00  0.0000000000000D+00  0.0000000000000D+00
337  3.3600000000000D+00  0.0000000000000D+00  0.0000000000000D+00
338  3.3700000000000D+00  0.0000000000000D+00  0.0000000000000D+00
339  3.3800000000000D+00  0.0000000000000D+00  0.0000000000000D+00
340  3.3900000000000D+00  0.0000000000000D+00  0.0000000000000D+00
341  3.4000000000000D+00  0.0000000000000D+00  0.0000000000000D+00
342  3.4100000000000D+00  0.0000000000000D+00  0.0000000000000D+00
343  3.4200000000000D+00  0.0000000000000D+00  0.0000000000000D+00
344  3.4300000000000D+00  0.0000000000000D+00  0.0000000000000D+00
345  3.4400000000000D+00  0.0000000000000D+00  0.0000000000000D+00
346  3.4500000000000D+00  0.0000000000000D+00  0.0000000000000D+00
347  3.4600000000000D+00  0.0000000000000D+00  0.0000000000000D+00
348  3.4700000000000D+00  0.0000000000000D+00  0.0000000000000D+00
349  3.4800000000000D+00  0.0000000000000D+00  0.0000000000000D+00
350  3.4900000000000D+00  0.0000000000000D+00  0.0000000000000D+00
351  3.5000000000000D+00  0.0000000000000D+00  0.0000000000000D+00
352  3.5100000000000D+00  0.0000000000000D+00  0.0000000000000D+00
353  3.5200000000000D+00  0.0000000000000D+00  0.0000000000000D+00
354  3.5300000000000D+00  0.0000000000000D+00  0.0000000000000D+00
355  3.5400000000000D+00  0.0000000000000D+00  0.0000000000000D+00
356  3.5500000000000D+00  0.0000000000000D+00  0.0000000000000D+00
357  3.5600000000000D+00  0.0000000000000D+00  0.0000000000000D+00
358  3.5700000000000D+00  0.0000000000000D+00  0.0000000000000D+00
359  3.5800000000000D+00  0.0000000000000D+00  0.0000000000000D+00
360  3.5900000000000D+00  0.0000000000000D+00  0.0000000000000D+00
361  3.6000000000000D+00  0.0000000000000D+00  0.0000000000000D+00
362  3.6100000000000D+00  0.0000000000000D+00  0.0000000000000D+00
363  3.6200000000000D+00  0.0000000000000D+00  0.0000000000000D+00
364  3.6300000000000D+00  0.0000000000000D+00  0.0000000000000D+00
365  3.6400000000000D+00  0.0000000000000D+00  0.0000000000000D+00
366  3.6500000000000D+00  0.0000000000000D+00  0.0000000000000D+00
367  3.6600000000000D+00  0.0000000000000D+00  0.0000000000000D+00
368  3.6700000000000D+00  0.0000000000000D+00  0.0000000000000D+00
369  3.6800000000000D+00  0.0000000000000D+00  0.0000000000000D+00
370  3.6900000000000D+00  0.0000000000000D+00  0.0000000000000D+00
371  3.7000000000000D+00  0.0000000000000D+00  0.0000000000000D+00
372  3.7100000000000D+00  0.0000000000000D+00  0.0000000000000D+00
373  3.7200000000000D+00  0.0000000000000D+00  0.0000000000000D+00
374  3.7300000000000D+00  0.0000000000000D+00  0.0000000000000D+00
375  3.7400000000000D+00  0.0000000000000D+00  0.0000000000000D+00
376  3.7500000000000D+00  0.0000000000000D+00  0.0000000000000D+00
377  3.7600000000000D+00  0.0000000000000D+00  0.0000000000000D+00
378  3.7700000000000D+00  0.0000000000000D+00  0.0000000000000D+00
379  3.7800000000000D+00  0.0000000000000D+00  0.0000000000000D+00
380  3.7900000000000D+00  0.0000000000000D+00  0.0000000000000D+00
381  3.8000000000000D+00  0.0000000000000D+00  0.0000000000000D+00
382  3.8100000000000D+00  0.0000000000000D+00  0.0000000000000D+00
383  3.8200000000000D+00  0.0000000000000D+00  0.0000000000000D+00
384  3.8300000000000D+00  0.0000000000000D+00  0.0000000000000D+00
385  3.8400000000000D+00  0.0000000000000D+00  0.0000000000000D+00
386  3.8500000000000D+00  0.0000000000000D+00  0.0000000000000D+00
387  3.8600000000000D+00  0.0000000000000D+00  0.0000000000000D+00
388  3.8700000000000D+00  0.0000000000000D+00  0.0000000000000D+00
389  3.8800000000000D+00  0.0000000000000D+00  0.0000000000000D+00
390  3.8900000000000D+00  0.0000000000000D+00  0.0000000000000D+00
391  3.9000000000000D+00  0.0000000000000D+00  0.0000000000000D+00
392  3.9100000000000D+00  0.0000000000000D+00  0.0000000000000D+00
393  3.9200000000000D+00  0.0000000000000D+00  0.0000000000000D+00
394  3.9300000000000D+00  0.0000000000000D+00  0.0000000000000D+00
395  3.9400000000000D+00  0.0000000000000D+00  0.0000000000000D+00
396  3.9500000000000D+00  0.0000000000000D+00  0.0000000000000D+00
397  3.9600000000000D+00  0.0000000000000D+00  0.0000000000000D+00
398  3.9700000000000D+00  0.0000000000000D+00  0.0000000000000D+00
399  3.9800000000000D+00  0.0000000000000D+00  0.0000000000000D+00
400  3.9900000000000D+00  0.0000000000000D+00  0.0000000000000D+00
401  4.0000000000000D+00  0.0000000000000D+00  0.0000000000000D+00
402  4.0100000000000D+00  0.0000000000000D+00  0.0000000000000D+00
403  4.0200000000000D+00  0.0000000000000D+00  0.0000000000000D+00
404  4.0300000000000D+00  0.0000000000000D+00  0.0000000000000D+00
405  4.0400000000000D+00  0.0000000000000D+00  0.0000000000000D+00
406  4.0500000000000D+00  0.0000000000000D+00  0.0000000000000D+00
407  4.0600000000000D+00  0.0000000000000D+00  0.0000000000000D+00
408  4.0700000000000D+00  0.0000000000000D+00  0.0000000000000D+00
409  4.0800000000000D+00  0.0000000000000D+00  0.0000000000000D+00
410  4.0900000000000D+00  0.0000000000000D+00  0.0000000000000D+00
411  4.1000000000000D+00  0.0000000000000D+00  0.0000000000000D+00
412  4.1100000000000D+00  0.0000000000000D+00  0.0000000000000D+00
413  4.1200000000000D+00  0.0000000000000D+00  0.0000000000000D+00
414  4.1300000000000D+00  0.0000000000000D+00  0.0000000000000D+00
415  4.1400000000000D+00  0.0000000000000D+00  0.0000000000000D+00
416  4.1500000000000D+00  0.0000000000000D+00  0.0000000000000D+00
417  4.1600000000000D+00  0.0000000000000D+00  0.0000000000000D+00
418  4.1700000000000D+00  0.0000000000000D+00  0.0000000000000D+00
419  4.1800000000000D+00  0.0000000000000D+00  0.0000000000000D+00
420  4.1900000000000D+00  0.0000000000000D+00  0.0000000000000D+00
421  4.2000000000000D+00  0.0000000000000D+00  0.0000000000000D+00
422  4.2100000000000D+00  0.0000000000000D+00  0.0000000000000D+00
423  4.2200000000000D+00  0.0000000000000D+00  0.0000000000000D+00
424  4.2300000000000D+00  0.0000000000000D+00  0.0000000000000D+00
425  4.2400000000000D+00  0.0000000000000D+00  0.0000000000000D+00
426  4.2500000000000D+00  0.0000000000000D+00  0.0000000000000D+00
427  4.2600000000000D+00  0.0000000000000D+00  0.0000000000000D+00
428  4.2700000000000D+00  0.0000000000000D+00  0.0000000000000D+00
429  4.2800000000000D+00  0.0000000000000D+00  0.0000000000000D+00
430  4.2900000000000D+00  0.0000000000000D+00  0.0000000000000D+00
431  4.3000000000000D+00  0.0000000000000D+00  0.0000000000000D+00
432  4.3100000000000D+00  0.0000000000000D+00  0.0000000000000D+00
433  4.3200000000000D+00  0.0000000000000D+00  0.0000000000000D+00
434  4.3300000000000D+00  0.0000000000000D+00  0.0000000000000D+00
435  4.3400000000000D+00  0.0000000000000D+00  0.0000000000000D+00
436  4.3500000000000D+00  0.0000000000000D+00  0.0000000000000D+00
437  4.3600000000000D+00  0.0000000000000D+00  0.0000000000000D+00
438  4.3700000000000D+00  0.0000000000000D+00  0.0000000000000D+00
439  4.3800000000000D+00  0.0000000000000D+00  0.0000000000000D+00
440  4.3900000000000D+00  0.0000000000000D+00  0.0000000000000D+00
441  4.4000000000000D+00  0.0000000000000D+00  0.0000000000000D+00
442  4.4100000000000D+00  0.0000000000000D+00  0.0000000000000D+00
443  4.4200000000000D+00  0.0000000000000D+00  0.0000000000000D+00