Ar    ONCVPSP  r_core=  1.56  1.56  1.56
18.0000      8.0000      141222    zatom,zion,pspd
8    11     2     4   401     0    pspcod,pspxc,lmax,lloc,mmax,r2well
4.00000000  0.08500000  0.00000000    rchrg fchrg qchrg
2     2     2     0     0    nproj
0                 extension_switch
0                         8.4516546525614D+00  4.2173215196196D-01
1  0.0000000000000D+00 -0.0000000000000D+00 -0.0000000000000D+00
2  1.0000000000000D-02 -6.2676663365738D-02 -3.5923605369765D-02
3  2.0000000000000D-02 -1.2523705973258D-01 -7.1675841699013D-02
4  3.0000000000000D-02 -1.8756528418698D-01 -1.0708642604973D-01
5  4.0000000000000D-02 -2.4954615379362D-01 -1.4198723668559D-01
6  5.0000000000000D-02 -3.1106556312560D-01 -1.7621336629738D-01
7  6.0000000000000D-02 -3.7201083330588D-01 -2.0960414274878D-01
8  7.0000000000000D-02 -4.3227105249925D-01 -2.4200410712811D-01
9  8.0000000000000D-02 -4.9173740588134D-01 -2.7326393940955D-01
10  9.0000000000000D-02 -5.5030349321340D-01 -3.0324132265108D-01
11  1.0000000000000D-01 -6.0786563228443D-01 -3.3180173741980D-01
12  1.1000000000000D-01 -6.6432314660947D-01 -3.5881917894031D-01
13  1.2000000000000D-01 -7.1957863594380D-01 -3.8417679043148D-01
14  1.3000000000000D-01 -7.7353822832150D-01 -4.0776740705565D-01
15  1.4000000000000D-01 -8.2611181255952D-01 -4.2949400609400D-01
16  1.5000000000000D-01 -8.7721325024518D-01 -4.4927005984141D-01
17  1.6000000000000D-01 -9.2676056660655D-01 -4.6701978926201D-01
18  1.7000000000000D-01 -9.7467611959791D-01 -4.8267831712782D-01
19  1.8000000000000D-01 -1.0208867470723D+00 -4.9619172116539D-01
20  1.9000000000000D-01 -1.0653238918761D+00 -5.0751698839885D-01
21  2.0000000000000D-01 -1.1079237047838D+00 -5.1662187316439D-01
22  2.1000000000000D-01 -1.1486271258933D+00 -5.2348466276898D-01
23  2.2000000000000D-01 -1.1873799446455D+00 -5.2809385537690D-01
24  2.3000000000000D-01 -1.2241328393942D+00 -5.3044775587392D-01
25  2.4000000000000D-01 -1.2588413970884D+00 -5.3055399664614D-01
26  2.5000000000000D-01 -1.2914661142170D+00 -5.2842899114978D-01
27  2.6000000000000D-01 -1.3219723802131D+00 -5.2409732692132D-01
28  2.7000000000000D-01 -1.3503304441880D+00 -5.1759110987752D-01
29  2.8000000000000D-01 -1.3765153667100D+00 -5.0894926766892D-01
30  2.9000000000000D-01 -1.4005069579146D+00 -4.9821682148664D-01
31  3.0000000000000D-01 -1.4222897033509D+00 -4.8544413759940D-01
32  3.1000000000000D-01 -1.4418526791297D+00 -4.7068616856174D-01
33  3.2000000000000D-01 -1.4591894579456D+00 -4.5400169502247D-01
34  3.3000000000000D-01 -1.4742980081686D+00 -4.3545258480568D-01
35  3.4000000000000D-01 -1.4871805846261D+00 -4.1510304654705D-01
36  3.5000000000000D-01 -1.4978436189794D+00 -3.9301896108303D-01
37  3.6000000000000D-01 -1.5062976011953D+00 -3.6926719101692D-01
38  3.7000000000000D-01 -1.5125569657353D+00 -3.4391500140350D-01
39  3.8000000000000D-01 -1.5166399714894D+00 -3.1702948382849D-01
40  3.9000000000000D-01 -1.5185685847607D+00 -2.8867706667639D-01
41  4.0000000000000D-01 -1.5183683647141D+00 -2.5892309794749D-01
42  4.1000000000000D-01 -1.5160683496049D+00 -2.2783148928468D-01
43  4.2000000000000D-01 -1.5117009466316D+00 -1.9546444089003D-01
44  4.3000000000000D-01 -1.5053018254964D+00 -1.6188224620010D-01
45  4.4000000000000D-01 -1.4969098160345D+00 -1.2714317763715D-01
46  4.5000000000000D-01 -1.4865668101201D+00 -9.1303453701064D-02
47  4.6000000000000D-01 -1.4743176679144D+00 -5.4417286607823D-02
48  4.7000000000000D-01 -1.4602101283938D+00 -1.6537008521031D-02
49  4.8000000000000D-01 -1.4442947243369D+00  2.2286726396947D-02
50  4.9000000000000D-01 -1.4266247036804D+00  6.2004668745987D-02
51  5.0000000000000D-01 -1.4072559390614D+00  1.0256865248689D-01
52  5.1000000000000D-01 -1.3862468617180D+00  1.4393117895835D-01
53  5.2000000000000D-01 -1.3636583908857D+00  1.8604498359900D-01
54  5.3000000000000D-01 -1.3395538388612D+00  2.2886254407197D-01
55  5.4000000000000D-01 -1.3139988545889D+00  2.7233555579966D-01
56  5.5000000000000D-01 -1.2870613429417D+00  3.1641439934860D-01
57  5.6000000000000D-01 -1.2588113697829D+00  3.6104754431591D-01
58  5.7000000000000D-01 -1.2293211070905D+00  4.0618105130645D-01
59  5.8000000000000D-01 -1.1986647053358D+00  4.5175792155114D-01
60  5.9000000000000D-01 -1.1669182381667D+00  4.9771766711634D-01
61  6.0000000000000D-01 -1.1341595650145D+00  5.4399570387180D-01
62  6.1000000000000D-01 -1.1004682345617D+00  5.9052292715225D-01
63  6.2000000000000D-01 -1.0659253805861D+00  6.3722534613216D-01
64  6.3000000000000D-01 -1.0306135359199D+00  6.8402355570534D-01
65  6.4000000000000D-01 -9.9461654966819D-01  7.3083263040578D-01
66  6.5000000000000D-01 -9.5801940879426D-01  7.7756182950249D-01
67  6.6000000000000D-01 -9.2090803303105D-01  8.2411437536205D-01
68  6.7000000000000D-01 -8.8336914346549D-01  8.7038753944703D-01
69  6.8000000000000D-01 -8.4549007409505D-01  9.1627267325782D-01
70  6.9000000000000D-01 -8.0735850083731D-01  9.6165524904022D-01
71  7.0000000000000D-01 -7.6906226055070D-01  1.0064151902019D+00
72  7.1000000000000D-01 -7.3068912419098D-01  1.0504272200967D+00
73  7.2000000000000D-01 -6.9232654341424D-01  1.0935612968844D+00
74  7.3000000000000D-01 -6.5406142270875D-01  1.1356831557548D+00
75  7.4000000000000D-01 -6.1597977169589D-01  1.1766549575114D+00
76  7.5000000000000D-01 -5.7816649331483D-01  1.2163360495814D+00
77  7.6000000000000D-01 -5.4070509713077D-01  1.2545837839253D+00
78  7.7000000000000D-01 -5.0367740474638D-01  1.2912544259784D+00
79  7.8000000000000D-01 -4.6716325818849D-01  1.3262041368839D+00
80  7.9000000000000D-01 -4.3124022662601D-01  1.3592900193280D+00
81  8.0000000000000D-01 -3.9598331353992D-01  1.3903712164840D+00
82  8.1000000000000D-01 -3.6146466657433D-01  1.4193100526507D+00
83  8.2000000000000D-01 -3.2775329238119D-01  1.4459732033792D+00
84  8.3000000000000D-01 -2.9491477883089D-01  1.4702328822488D+00
85  8.4000000000000D-01 -2.6301102699574D-01  1.4919680309612D+00
86  8.5000000000000D-01 -2.3209999532395D-01  1.5110654990849D+00
87  8.6000000000000D-01 -2.0223545840805D-01  1.5274211995894D+00
88  8.7000000000000D-01 -1.7346678271382D-01  1.5409412262652D+00
89  8.8000000000000D-01 -1.4583872157367D-01  1.5515429192242D+00
90  8.9000000000000D-01 -1.1939123166049D-01  1.5591558649266D+00
91  9.0000000000000D-01 -9.4159313043394D-02  1.5637228175810D+00
92  9.1000000000000D-01 -7.0172874782099D-02  1.5652005293349D+00
93  9.2000000000000D-01 -4.7456627838893D-02  1.5635604774202D+00
94  9.3000000000000D-01 -2.6030006872238D-02  1.5587894773715D+00
95  9.4000000000000D-01 -5.9071222191467D-03  1.5508901726074D+00
96  9.5000000000000D-01  1.2903256928931D-02  1.5398813920919D+00
97  9.6000000000000D-01  3.0397687503243D-02  1.5257983694786D+00
98  9.7000000000000D-01  4.6577969948483D-02  1.5086926816209D+00
99  9.8000000000000D-01  6.1451116244337D-02  1.4886323496976D+00
100  9.9000000000000D-01  7.5029341910789D-02  1.4657020426702D+00
101  1.0000000000000D+00  8.7329739500880D-02  1.4400019992177D+00
102  1.0100000000000D+00  9.8374173194163D-02  1.4116477698795D+00
103  1.0200000000000D+00  1.0818907424127D-01  1.3807695508870D+00
104  1.0300000000000D+00  1.1680520511825D-01  1.3475113631999D+00
105  1.0400000000000D+00  1.2425739139126D-01  1.3120300522780D+00
106  1.0500000000000D+00  1.3058437817998D-01  1.2744948837888D+00
107  1.0600000000000D+00  1.3582831390317D-01  1.2350854333963D+00
108  1.0700000000000D+00  1.4003450351004D-01  1.1939906387662D+00
109  1.0800000000000D+00  1.4325108913294D-01  1.1514075091301D+00
110  1.0900000000000D+00  1.4552878379736D-01  1.1075400371615D+00
111  1.1000000000000D+00  1.4692024414071D-01  1.0625967062734D+00
112  1.1100000000000D+00  1.4747985947396D-01  1.0167894803892D+00
113  1.1200000000000D+00  1.4726336068547D-01  9.7033219354452D-01
114  1.1300000000000D+00  1.4632779121421D-01  9.2344036855759D-01
115  1.1400000000000D+00  1.4473018579381D-01  8.7632580747305D-01
116  1.1500000000000D+00  1.4252793536125D-01  8.2919791975699D-01
117  1.1600000000000D+00  1.3977840059362D-01  7.8226210835554D-01
118  1.1700000000000D+00  1.3653877091846D-01  7.3571915004518D-01
119  1.1800000000000D+00  1.3286443197399D-01  6.8975837467268D-01
120  1.1900000000000D+00  1.2880998018581D-01  6.4456180228278D-01
121  1.2000000000000D+00  1.2442917514720D-01  6.0030394438236D-01
122  1.2100000000000D+00  1.1977311877566D-01  5.5714421191848D-01
123  1.2200000000000D+00  1.1489078620622D-01  5.1522912377227D-01
124  1.2300000000000D+00  1.0982970508429D-01  4.7469514708600D-01
125  1.2400000000000D+00  1.0463466161288D-01  4.3566333310448D-01
126  1.2500000000000D+00  9.9346920594076D-02  3.9823621020010D-01
127  1.2600000000000D+00  9.4006119899686D-02  3.6250566289177D-01
128  1.2700000000000D+00  8.8648972855525D-02  3.2854760439991D-01
129  1.2800000000000D+00  8.3307986530562D-02  2.9641705525325D-01
130  1.2900000000000D+00  7.8014158916997D-02  2.6615915744676D-01
131  1.3000000000000D+00  7.2795131267225D-02  2.3780177830504D-01
132  1.3100000000000D+00  6.7674573794735D-02  2.1135365382249D-01
133  1.3200000000000D+00  6.2674935743808D-02  1.8681511476177D-01
134  1.3300000000000D+00  5.7814690375462D-02  1.6416773729347D-01
135  1.3400000000000D+00  5.3109475092526D-02  1.4337949994545D-01
136  1.3500000000000D+00  4.8573936106011D-02  1.2441106256493D-01
137  1.3600000000000D+00  4.4218302856961D-02  1.0720472585482D-01
138  1.3700000000000D+00  4.0051835751869D-02  9.1696790600817D-02
139  1.3800000000000D+00  3.6081920845332D-02  7.7814037257818D-02
140  1.3900000000000D+00  3.2313132538698D-02  6.5473215481106D-02
141  1.4000000000000D+00  2.8749738963287D-02  5.4587005347017D-02
142  1.4100000000000D+00  2.5393679736190D-02  4.5060747349641D-02
143  1.4200000000000D+00  2.2246294430555D-02  3.6797422190909D-02
144  1.4300000000000D+00  1.9308053107852D-02  2.9695473878784D-02
145  1.4400000000000D+00  1.6578528093455D-02  2.3654763344133D-02
146  1.4500000000000D+00  1.4057126997722D-02  1.8571246652891D-02
147  1.4600000000000D+00  1.1742859992114D-02  1.4345773345712D-02
148  1.4700000000000D+00  9.6348184123585D-03  1.0878844304444D-02
149  1.4800000000000D+00  7.7320594947887D-03  8.0737104248046D-03
150  1.4900000000000D+00  6.0342318578286D-03  5.8409590004941D-03
151  1.5000000000000D+00  4.5407505105645D-03  4.0881464993726D-03
152  1.5100000000000D+00  3.2524095417853D-03  2.7387759587578D-03
153  1.5200000000000D+00  2.1693607454846D-03  1.7082599420685D-03
154  1.5300000000000D+00  1.2949444876300D-03  9.4307685619874D-04
155  1.5400000000000D+00  6.3259426158772D-04  3.8853330776994D-04
156  1.5500000000000D+00  2.0419559237801D-04  3.1558757301078D-05
157  1.5600000000000D+00 -6.3535345364026D-06 -1.4949260563751D-04
158  1.5700000000000D+00 -5.7238701933179D-05 -1.4463141882826D-04
159  1.5800000000000D+00 -1.6210558603612D-05 -3.2139377451126D-05
160  1.5900000000000D+00  2.9785442066456D-06  1.1698743600874D-05
161  1.6000000000000D+00  7.0996587113027D-07  2.7885128154865D-06
162  1.6100000000000D+00  0.0000000000000D+00  0.0000000000000D+00
163  1.6200000000000D+00  0.0000000000000D+00  0.0000000000000D+00
164  1.6300000000000D+00  0.0000000000000D+00  0.0000000000000D+00
165  1.6400000000000D+00  0.0000000000000D+00  0.0000000000000D+00
166  1.6500000000000D+00  0.0000000000000D+00  0.0000000000000D+00
167  1.6600000000000D+00  0.0000000000000D+00  0.0000000000000D+00
168  1.6700000000000D+00  0.0000000000000D+00  0.0000000000000D+00
169  1.6800000000000D+00  0.0000000000000D+00  0.0000000000000D+00
170  1.6900000000000D+00  0.0000000000000D+00  0.0000000000000D+00
171  1.7000000000000D+00  0.0000000000000D+00  0.0000000000000D+00
172  1.7100000000000D+00  0.0000000000000D+00  0.0000000000000D+00
173  1.7200000000000D+00  0.0000000000000D+00  0.0000000000000D+00
174  1.7300000000000D+00  0.0000000000000D+00  0.0000000000000D+00
175  1.7400000000000D+00  0.0000000000000D+00  0.0000000000000D+00
176  1.7500000000000D+00  0.0000000000000D+00  0.0000000000000D+00
177  1.7600000000000D+00  0.0000000000000D+00  0.0000000000000D+00
178  1.7700000000000D+00  0.0000000000000D+00  0.0000000000000D+00
179  1.7800000000000D+00  0.0000000000000D+00  0.0000000000000D+00
180  1.7900000000000D+00  0.0000000000000D+00  0.0000000000000D+00
181  1.8000000000000D+00  0.0000000000000D+00  0.0000000000000D+00
182  1.8100000000000D+00  0.0000000000000D+00  0.0000000000000D+00
183  1.8200000000000D+00  0.0000000000000D+00  0.0000000000000D+00
184  1.8300000000000D+00  0.0000000000000D+00  0.0000000000000D+00
185  1.8400000000000D+00  0.0000000000000D+00  0.0000000000000D+00
186  1.8500000000000D+00  0.0000000000000D+00  0.0000000000000D+00
187  1.8600000000000D+00  0.0000000000000D+00  0.0000000000000D+00
188  1.8700000000000D+00  0.0000000000000D+00  0.0000000000000D+00
189  1.8800000000000D+00  0.0000000000000D+00  0.0000000000000D+00
190  1.8900000000000D+00  0.0000000000000D+00  0.0000000000000D+00
191  1.9000000000000D+00  0.0000000000000D+00  0.0000000000000D+00
192  1.9100000000000D+00  0.0000000000000D+00  0.0000000000000D+00
193  1.9200000000000D+00  0.0000000000000D+00  0.0000000000000D+00
194  1.9300000000000D+00  0.0000000000000D+00  0.0000000000000D+00
195  1.9400000000000D+00  0.0000000000000D+00  0.0000000000000D+00
196  1.9500000000000D+00  0.0000000000000D+00  0.0000000000000D+00
197  1.9600000000000D+00  0.0000000000000D+00  0.0000000000000D+00
198  1.9700000000000D+00  0.0000000000000D+00  0.0000000000000D+00
199  1.9800000000000D+00  0.0000000000000D+00  0.0000000000000D+00
200  1.9900000000000D+00  0.0000000000000D+00  0.0000000000000D+00
201  2.0000000000000D+00  0.0000000000000D+00  0.0000000000000D+00
202  2.0100000000000D+00  0.0000000000000D+00  0.0000000000000D+00
203  2.0200000000000D+00  0.0000000000000D+00  0.0000000000000D+00
204  2.0300000000000D+00  0.0000000000000D+00  0.0000000000000D+00
205  2.0400000000000D+00  0.0000000000000D+00  0.0000000000000D+00
206  2.0500000000000D+00  0.0000000000000D+00  0.0000000000000D+00
207  2.0600000000000D+00  0.0000000000000D+00  0.0000000000000D+00
208  2.0700000000000D+00  0.0000000000000D+00  0.0000000000000D+00
209  2.0800000000000D+00  0.0000000000000D+00  0.0000000000000D+00
210  2.0900000000000D+00  0.0000000000000D+00  0.0000000000000D+00
211  2.1000000000000D+00  0.0000000000000D+00  0.0000000000000D+00
212  2.1100000000000D+00  0.0000000000000D+00  0.0000000000000D+00
213  2.1200000000000D+00  0.0000000000000D+00  0.0000000000000D+00
214  2.1300000000000D+00  0.0000000000000D+00  0.0000000000000D+00
215  2.1400000000000D+00  0.0000000000000D+00  0.0000000000000D+00
216  2.1500000000000D+00  0.0000000000000D+00  0.0000000000000D+00
217  2.1600000000000D+00  0.0000000000000D+00  0.0000000000000D+00
218  2.1700000000000D+00  0.0000000000000D+00  0.0000000000000D+00
219  2.1800000000000D+00  0.0000000000000D+00  0.0000000000000D+00
220  2.1900000000000D+00  0.0000000000000D+00  0.0000000000000D+00
221  2.2000000000000D+00  0.0000000000000D+00  0.0000000000000D+00
222  2.2100000000000D+00  0.0000000000000D+00  0.0000000000000D+00
223  2.2200000000000D+00  0.0000000000000D+00  0.0000000000000D+00
224  2.2300000000000D+00  0.0000000000000D+00  0.0000000000000D+00
225  2.2400000000000D+00  0.0000000000000D+00  0.0000000000000D+00
226  2.2500000000000D+00  0.0000000000000D+00  0.0000000000000D+00
227  2.2600000000000D+00  0.0000000000000D+00  0.0000000000000D+00
228  2.2700000000000D+00  0.0000000000000D+00  0.0000000000000D+00
229  2.2800000000000D+00  0.0000000000000D+00  0.0000000000000D+00
230  2.2900000000000D+00  0.0000000000000D+00  0.0000000000000D+00
231  2.3000000000000D+00  0.0000000000000D+00  0.0000000000000D+00
232  2.3100000000000D+00  0.0000000000000D+00  0.0000000000000D+00
233  2.3200000000000D+00  0.0000000000000D+00  0.0000000000000D+00
234  2.3300000000000D+00  0.0000000000000D+00  0.0000000000000D+00
235  2.3400000000000D+00  0.0000000000000D+00  0.0000000000000D+00
236  2.3500000000000D+00  0.0000000000000D+00  0.0000000000000D+00
237  2.3600000000000D+00  0.0000000000000D+00  0.0000000000000D+00
238  2.3700000000000D+00  0.0000000000000D+00  0.0000000000000D+00
239  2.3800000000000D+00  0.0000000000000D+00  0.0000000000000D+00
240  2.3900000000000D+00  0.0000000000000D+00  0.0000000000000D+00
241  2.4000000000000D+00  0.0000000000000D+00  0.0000000000000D+00
242  2.4100000000000D+00  0.0000000000000D+00  0.0000000000000D+00
243  2.4200000000000D+00  0.0000000000000D+00  0.0000000000000D+00
244  2.4300000000000D+00  0.0000000000000D+00  0.0000000000000D+00
245  2.4400000000000D+00  0.0000000000000D+00  0.0000000000000D+00
246  2.4500000000000D+00  0.0000000000000D+00  0.0000000000000D+00
247  2.4600000000000D+00  0.0000000000000D+00  0.0000000000000D+00
248  2.4700000000000D+00  0.0000000000000D+00  0.0000000000000D+00
249  2.4800000000000D+00  0.0000000000000D+00  0.0000000000000D+00
250  2.4900000000000D+00  0.0000000000000D+00  0.0000000000000D+00
251  2.5000000000000D+00  0.0000000000000D+00  0.0000000000000D+00
252  2.5100000000000D+00  0.0000000000000D+00  0.0000000000000D+00
253  2.5200000000000D+00  0.0000000000000D+00  0.0000000000000D+00
254  2.5300000000000D+00  0.0000000000000D+00  0.0000000000000D+00
255  2.5400000000000D+00  0.0000000000000D+00  0.0000000000000D+00
256  2.5500000000000D+00  0.0000000000000D+00  0.0000000000000D+00
257  2.5600000000000D+00  0.0000000000000D+00  0.0000000000000D+00
258  2.5700000000000D+00  0.0000000000000D+00  0.0000000000000D+00
259  2.5800000000000D+00  0.0000000000000D+00  0.0000000000000D+00
260  2.5900000000000D+00  0.0000000000000D+00  0.0000000000000D+00
261  2.6000000000000D+00  0.0000000000000D+00  0.0000000000000D+00
262  2.6100000000000D+00  0.0000000000000D+00  0.0000000000000D+00
263  2.6200000000000D+00  0.0000000000000D+00  0.0000000000000D+00
264  2.6300000000000D+00  0.0000000000000D+00  0.0000000000000D+00
265  2.6400000000000D+00  0.0000000000000D+00  0.0000000000000D+00
266  2.6500000000000D+00  0.0000000000000D+00  0.0000000000000D+00
267  2.6600000000000D+00  0.0000000000000D+00  0.0000000000000D+00
268  2.6700000000000D+00  0.0000000000000D+00  0.0000000000000D+00
269  2.6800000000000D+00  0.0000000000000D+00  0.0000000000000D+00
270  2.6900000000000D+00  0.0000000000000D+00  0.0000000000000D+00
271  2.7000000000000D+00  0.0000000000000D+00  0.0000000000000D+00
272  2.7100000000000D+00  0.0000000000000D+00  0.0000000000000D+00
273  2.7200000000000D+00  0.0000000000000D+00  0.0000000000000D+00
274  2.7300000000000D+00  0.0000000000000D+00  0.0000000000000D+00
275  2.7400000000000D+00  0.0000000000000D+00  0.0000000000000D+00
276  2.7500000000000D+00  0.0000000000000D+00  0.0000000000000D+00
277  2.7600000000000D+00  0.0000000000000D+00  0.0000000000000D+00
278  2.7700000000000D+00  0.0000000000000D+00  0.0000000000000D+00
279  2.7800000000000D+00  0.0000000000000D+00  0.0000000000000D+00
280  2.7900000000000D+00  0.0000000000000D+00  0.0000000000000D+00
281  2.8000000000000D+00  0.0000000000000D+00  0.0000000000000D+00
282  2.8100000000000D+00  0.0000000000000D+00  0.0000000000000D+00
283  2.8200000000000D+00  0.0000000000000D+00  0.0000000000000D+00
284  2.8300000000000D+00  0.0000000000000D+00  0.0000000000000D+00
285  2.8400000000000D+00  0.0000000000000D+00  0.0000000000000D+00
286  2.8500000000000D+00  0.0000000000000D+00  0.0000000000000D+00
287  2.8600000000000D+00  0.0000000000000D+00  0.0000000000000D+00
288  2.8700000000000D+00  0.0000000000000D+00  0.0000000000000D+00
289  2.8800000000000D+00  0.0000000000000D+00  0.0000000000000D+00
290  2.8900000000000D+00  0.0000000000000D+00  0.0000000000000D+00
291  2.9000000000000D+00  0.0000000000000D+00  0.0000000000000D+00
292  2.9100000000000D+00  0.0000000000000D+00  0.0000000000000D+00
293  2.9200000000000D+00  0.0000000000000D+00  0.0000000000000D+00
294  2.9300000000000D+00  0.0000000000000D+00  0.0000000000000D+00
295  2.9400000000000D+00  0.0000000000000D+00  0.0000000000000D+00
296  2.9500000000000D+00  0.0000000000000D+00  0.0000000000000D+00
297  2.9600000000000D+00  0.0000000000000D+00  0.0000000000000D+00
298  2.9700000000000D+00  0.0000000000000D+00  0.0000000000000D+00
299  2.9800000000000D+00  0.0000000000000D+00  0.0000000000000D+00
300  2.9900000000000D+00  0.0000000000000D+00  0.0000000000000D+00
301  3.0000000000000D+00  0.0000000000000D+00  0.0000000000000D+00
302  3.0100000000000D+00  0.0000000000000D+00  0.0000000000000D+00
303  3.0200000000000D+00  0.0000000000000D+00  0.0000000000000D+00
304  3.0300000000000D+00  0.0000000000000D+00  0.0000000000000D+00
305  3.0400000000000D+00  0.0000000000000D+00  0.0000000000000D+00
306  3.0500000000000D+00  0.0000000000000D+00  0.0000000000000D+00
307  3.0600000000000D+00  0.0000000000000D+00  0.0000000000000D+00
308  3.0700000000000D+00  0.0000000000000D+00  0.0000000000000D+00
309  3.0800000000000D+00  0.0000000000000D+00  0.0000000000000D+00
310  3.0900000000000D+00  0.0000000000000D+00  0.0000000000000D+00
311  3.1000000000000D+00  0.0000000000000D+00  0.0000000000000D+00
312  3.1100000000000D+00  0.0000000000000D+00  0.0000000000000D+00
313  3.1200000000000D+00  0.0000000000000D+00  0.0000000000000D+00
314  3.1300000000000D+00  0.0000000000000D+00  0.0000000000000D+00
315  3.1400000000000D+00  0.0000000000000D+00  0.0000000000000D+00
316  3.1500000000000D+00  0.0000000000000D+00  0.0000000000000D+00
317  3.1600000000000D+00  0.0000000000000D+00  0.0000000000000D+00
318  3.1700000000000D+00  0.0000000000000D+00  0.0000000000000D+00
319  3.1800000000000D+00  0.0000000000000D+00  0.0000000000000D+00
320  3.1900000000000D+00  0.0000000000000D+00  0.0000000000000D+00
321  3.2000000000000D+00  0.0000000000000D+00  0.0000000000000D+00
322  3.2100000000000D+00  0.0000000000000D+00  0.0000000000000D+00
323  3.2200000000000D+00  0.0000000000000D+00  0.0000000000000D+00
324  3.2300000000000D+00  0.0000000000000D+00  0.0000000000000D+00
325  3.2400000000000D+00  0.0000000000000D+00  0.0000000000000D+00
326  3.2500000000000D+00  0.0000000000000D+00  0.0000000000000D+00
327  3.2600000000000D+00  0.0000000000000D+00  0.0000000000000D+00
328  3.2700000000000D+00  0.0000000000000D+00  0.0000000000000D+00
329  3.2800000000000D+00  0.0000000000000D+00  0.0000000000000D+00
330  3.2900000000000D+00  0.0000000000000D+00  0.0000000000000D+00
331  3.3000000000000D+00  0.0000000000000D+00  0.0000000000000D+00
332  3.3100000000000D+00  0.0000000000000D+00  0.0000000000000D+00
333  3.3200000000000D+00  0.0000000000000D+00  0.0000000000000D+00
334  3.3300000000000D+00  0.0000000000000D+00  0.0000000000000D+00
335  3.3400000000000D+00  0.0000000000000D+00  0.0000000000000D+00
336  3.3500000000000D+00  0.0000000000000D+00  0.0000000000000D+00
337  3.3600000000000D+00  0.0000000000000D+00  0.0000000000000D+00
338  3.3700000000000D+00  0.0000000000000D+00  0.0000000000000D+00
339  3.3800000000000D+00  0.0000000000000D+00  0.0000000000000D+00
340  3.3900000000000D+00  0.0000000000000D+00  0.0000000000000D+00
341  3.4000000000000D+00  0.0000000000000D+00  0.0000000000000D+00
342  3.4100000000000D+00  0.0000000000000D+00  0.0000000000000D+00
343  3.4200000000000D+00  0.0000000000000D+00  0.0000000000000D+00
344  3.4300000000000D+00  0.0000000000000D+00  0.0000000000000D+00
345  3.4400000000000D+00  0.0000000000000D+00  0.0000000000000D+00
346  3.4500000000000D+00  0.0000000000000D+00  0.0000000000000D+00
347  3.4600000000000D+00  0.0000000000000D+00  0.0000000000000D+00
348  3.4700000000000D+00  0.0000000000000D+00  0.0000000000000D+00
349  3.4800000000000D+00  0.0000000000000D+00  0.0000000000000D+00
350  3.4900000000000D+00  0.0000000000000D+00  0.0000000000000D+00
351  3.5000000000000D+00  0.0000000000000D+00  0.0000000000000D+00
352  3.5100000000000D+00  0.0000000000000D+00  0.0000000000000D+00
353  3.5200000000000D+00  0.0000000000000D+00  0.0000000000000D+00
354  3.5300000000000D+00  0.0000000000000D+00  0.0000000000000D+00
355  3.5400000000000D+00  0.0000000000000D+00  0.0000000000000D+00
356  3.5500000000000D+00  0.0000000000000D+00  0.0000000000000D+00
357  3.5600000000000D+00  0.0000000000000D+00  0.0000000000000D+00
358  3.5700000000000D+00  0.0000000000000D+00  0.0000000000000D+00
359  3.5800000000000D+00  0.0000000000000D+00  0.0000000000000D+00
360  3.5900000000000D+00  0.0000000000000D+00  0.0000000000000D+00
361  3.6000000000000D+00  0.0000000000000D+00  0.0000000000000D+00
362  3.6100000000000D+00  0.0000000000000D+00  0.0000000000000D+00
363  3.6200000000000D+00  0.0000000000000D+00  0.0000000000000D+00
364  3.6300000000000D+00  0.0000000000000D+00  0.0000000000000D+00
365  3.6400000000000D+00  0.0000000000000D+00  0.0000000000000D+00
366  3.6500000000000D+00  0.0000000000000D+00  0.0000000000000D+00
367  3.6600000000000D+00  0.0000000000000D+00  0.0000000000000D+00
368  3.6700000000000D+00  0.0000000000000D+00  0.0000000000000D+00
369  3.6800000000000D+00  0.0000000000000D+00  0.0000000000000D+00
370  3.6900000000000D+00  0.0000000000000D+00  0.0000000000000D+00
371  3.7000000000000D+00  0.0000000000000D+00  0.0000000000000D+00
372  3.7100000000000D+00  0.0000000000000D+00  0.0000000000000D+00
373  3.7200000000000D+00  0.0000000000000D+00  0.0000000000000D+00
374  3.7300000000000D+00  0.0000000000000D+00  0.0000000000000D+00
375  3.7400000000000D+00  0.0000000000000D+00  0.0000000000000D+00
376  3.7500000000000D+00  0.0000000000000D+00  0.0000000000000D+00
377  3.7600000000000D+00  0.0000000000000D+00  0.0000000000000D+00
378  3.7700000000000D+00  0.0000000000000D+00  0.0000000000000D+00
379  3.7800000000000D+00  0.0000000000000D+00  0.0000000000000D+00
380  3.7900000000000D+00  0.0000000000000D+00  0.0000000000000D+00
381  3.8000000000000D+00  0.0000000000000D+00  0.0000000000000D+00
382  3.8100000000000D+00  0.0000000000000D+00  0.0000000000000D+00
383  3.8200000000000D+00  0.0000000000000D+00  0.0000000000000D+00
384  3.8300000000000D+00  0.0000000000000D+00  0.0000000000000D+00
385  3.8400000000000D+00  0.0000000000000D+00  0.0000000000000D+00
386  3.8500000000000D+00  0.0000000000000D+00  0.0000000000000D+00
387  3.8600000000000D+00  0.0000000000000D+00  0.0000000000000D+00
388  3.8700000000000D+00  0.0000000000000D+00  0.0000000000000D+00
389  3.8800000000000D+00  0.0000000000000D+00  0.0000000000000D+00
390  3.8900000000000D+00  0.0000000000000D+00  0.0000000000000D+00
391  3.9000000000000D+00  0.0000000000000D+00  0.0000000000000D+00
392  3.9100000000000D+00  0.0000000000000D+00  0.0000000000000D+00
393  3.9200000000000D+00  0.0000000000000D+00  0.0000000000000D+00
394  3.9300000000000D+00  0.0000000000000D+00  0.0000000000000D+00
395  3.9400000000000D+00  0.0000000000000D+00  0.0000000000000D+00
396  3.9500000000000D+00  0.0000000000000D+00  0.0000000000000D+00
397  3.9600000000000D+00  0.0000000000000D+00  0.0000000000000D+00
398  3.9700000000000D+00  0.0000000000000D+00  0.0000000000000D+00
399  3.9800000000000D+00  0.0000000000000D+00  0.0000000000000D+00
400  3.9900000000000D+00  0.0000000000000D+00  0.0000000000000D+00
401  4.0000000000000D+00  0.0000000000000D+00  0.0000000000000D+00
1                         2.2717343005536D+00  2.5653177677193D-01
1  0.0000000000000D+00 -0.0000000000000D+00 -0.0000000000000D+00
2  1.0000000000000D-02 -1.4902318668044D-03 -1.2746410739428D-03
3  2.0000000000000D-02 -5.9501144989944D-03 -5.0712995808699D-03
4  3.0000000000000D-02 -1.3347343081165D-02 -1.1308640066713D-02
5  4.0000000000000D-02 -2.3628521274120D-02 -1.9852625278377D-02
6  5.0000000000000D-02 -3.6719821967724D-02 -3.0518774064529D-02
7  6.0000000000000D-02 -5.2527898883161D-02 -4.3075273107515D-02
8  7.0000000000000D-02 -7.0941035809619D-02 -5.7246894039830D-02
9  8.0000000000000D-02 -9.1830516819453D-02 -7.2719654904446D-02
10  9.0000000000000D-02 -1.1505219760625D-01 -8.9146153224672D-02
11  1.0000000000000D-01 -1.4044825519069D-01 -1.0615148737071D-01
12  1.1000000000000D-01 -1.6784909065573D-01 -1.2333967351675D-01
13  1.2000000000000D-01 -1.9707535738425D-01 -1.4030045755086D-01
14  1.3000000000000D-01 -2.2794008545682D-01 -1.5661641477343D-01
15  1.4000000000000D-01 -2.6025087155439D-01 -1.7187022552486D-01
16  1.5000000000000D-01 -2.9381210268279D-01 -1.8565201134601D-01
17  1.6000000000000D-01 -3.2842718176844D-01 -1.9756661538470D-01
18  1.7000000000000D-01 -3.6390072295425D-01 -2.0724071035171D-01
19  1.8000000000000D-01 -4.0004068522900D-01 -2.1432962029434D-01
20  1.9000000000000D-01 -4.3666041369630D-01 -2.1852374531592D-01
21  2.0000000000000D-01 -4.7358055931930D-01 -2.1955448450096D-01
22  2.1000000000000D-01 -5.1063084992763D-01 -2.1719955916915D-01
23  2.2000000000000D-01 -5.4765168743078D-01 -2.1128764757644D-01
24  2.3000000000000D-01 -5.8449554859989D-01 -2.0170225058797D-01
25  2.4000000000000D-01 -6.2102817031958D-01 -1.8838472205413D-01
26  2.5000000000000D-01 -6.5712950342869D-01 -1.7133640917219D-01
27  2.6000000000000D-01 -6.9269442020500D-01 -1.5061985123266D-01
28  2.7000000000000D-01 -7.2763317029081D-01 -1.2635902372944D-01
29  2.8000000000000D-01 -7.6187157764157D-01 -9.8738604087431D-02
30  2.9000000000000D-01 -7.9535097642638D-01 -6.8002256425950D-02
31  3.0000000000000D-01 -8.2802789004211D-01 -3.4449956541803D-02
32  3.1000000000000D-01 -8.5987345927053D-01  1.5656153359590D-03
33  3.2000000000000D-01 -8.9087263092822D-01  3.9643566276087D-02
34  3.3000000000000D-01 -9.2102313245936D-01  7.9340065802373D-02
35  3.4000000000000D-01 -9.5033419430159D-01  1.2017454674488D-01
36  3.5000000000000D-01 -9.7882516662149D-01  1.6163626796267D-01
37  3.6000000000000D-01 -1.0065238661622D+00  2.0319186286301D-01
38  3.7000000000000D-01 -1.0334648998090D+00  2.4429293207739D-01
39  3.8000000000000D-01 -1.0596877853946D+00  2.8438435839393D-01
40  3.9000000000000D-01 -1.0852350372327D+00  3.2291270566334D-01
41  4.0000000000000D-01 -1.1101502163886D+00  3.5933470062781D-01
42  4.1000000000000D-01 -1.1344759439200D+00  3.9312579953399D-01