P     ONCVPSP  r_core=  1.61  1.77  2.02
     15.0000      5.0000      141008    zatom,zion,pspd
     8    11     2     4   601     0    pspcod,pspxc,lmax,lloc,mmax,r2well
  6.00000000  0.20000000  0.00000000    rchrg fchrg qchrg
     2     2     2     0     0    nproj
     0                 extension_switch
   0                         7.4222807841619D+00  7.2127416963301D-01
     1  0.0000000000000D+00  0.0000000000000D+00  0.0000000000000D+00
     2  1.0000000000000D-02 -4.9547597710262D-02 -3.8468225868128D-02
     3  2.0000000000000D-02 -9.9003711786282D-02 -7.6759195870715D-02
     4  3.0000000000000D-02 -1.4827727668316D-01 -1.1469669598027D-01
     5  4.0000000000000D-02 -1.9727806013509D-01 -1.5210658843911D-01
     6  5.0000000000000D-02 -2.4591707256772D-01 -1.8881783143366D-01
     7  6.0000000000000D-02 -2.9410696789778D-01 -2.2466347676725D-01
     8  7.0000000000000D-02 -3.4176243295149D-01 -2.5948163845587D-01
     9  8.0000000000000D-02 -3.8880056281320D-01 -2.9311642537400D-01
    10  9.0000000000000D-02 -4.3514121952916D-01 -3.2541883136282D-01
    11  1.0000000000000D-01 -4.8070737170615D-01 -3.5624757650461D-01
    12  1.1000000000000D-01 -5.2542541269363D-01 -3.8546989364212D-01
    13  1.2000000000000D-01 -5.6922545520143D-01 -4.1296225463515D-01
    14  1.3000000000000D-01 -6.1204160038633D-01 -4.3861103130381D-01
    15  1.4000000000000D-01 -6.5381217956878D-01 -4.6231308633587D-01
    16  1.5000000000000D-01 -6.9447996712665D-01 -4.8397629039829D-01
    17  1.6000000000000D-01 -7.3399236300675D-01 -5.0351996144891D-01
    18  1.7000000000000D-01 -7.7230154397873D-01 -5.2087522393643D-01
    19  1.8000000000000D-01 -8.0936458244032D-01 -5.3598528483006D-01
    20  1.9000000000000D-01 -8.4514353241886D-01 -5.4880562547223D-01
    21  2.0000000000000D-01 -8.7960548198526D-01 -5.5930410726449D-01
    22  2.1000000000000D-01 -9.1272257254067D-01 -5.6746099214908D-01
    23  2.2000000000000D-01 -9.4447198423701D-01 -5.7326887613734D-01
    24  2.3000000000000D-01 -9.7483588861652D-01 -5.7673253839332D-01
    25  2.4000000000000D-01 -1.0038013687265D+00 -5.7786870661826D-01
    26  2.5000000000000D-01 -1.0313603075047D+00 -5.7670574037077D-01
    27  2.6000000000000D-01 -1.0575092459780D+00 -5.7328323686179D-01
    28  2.7000000000000D-01 -1.0822492115523D+00 -5.6765155880739D-01
    29  2.8000000000000D-01 -1.1055855194139D+00 -5.5987129311873D-01
    30  2.9000000000000D-01 -1.1275275475434D+00 -5.5001264078489D-01
    31  3.0000000000000D-01 -1.1480884877782D+00 -5.3815474446078D-01
    32  3.1000000000000D-01 -1.1672850750095D+00 -5.2438495896067D-01
    33  3.2000000000000D-01 -1.1851372983701D+00 -5.0879807469545D-01
    34  3.3000000000000D-01 -1.2016680905362D+00 -4.9149548298185D-01
    35  3.4000000000000D-01 -1.2169030092306D+00 -4.7258432122640D-01
    36  3.5000000000000D-01 -1.2308699023409D+00 -4.5217657393047D-01
    37  3.6000000000000D-01 -1.2435985650944D+00 -4.3038815214211D-01
    38  3.7000000000000D-01 -1.2551203888442D+00 -4.0733794961655D-01
    39  3.8000000000000D-01 -1.2654680151992D+00 -3.8314691237521D-01
    40  3.9000000000000D-01 -1.2746749774687D+00 -3.5793707249628D-01
    41  4.0000000000000D-01 -1.2827753502647D+00 -3.3183060206674D-01
    42  4.1000000000000D-01 -1.2898034088623D+00 -3.0494889119468D-01
    43  4.2000000000000D-01 -1.2957932909872D+00 -2.7741162992395D-01
    44  4.3000000000000D-01 -1.3007786714549D+00 -2.4933592185210D-01
    45  4.4000000000000D-01 -1.3047924506471D+00 -2.2083543180123D-01
    46  4.5000000000000D-01 -1.3078664594122D+00 -1.9201957424191D-01
    47  4.6000000000000D-01 -1.3100311829337D+00 -1.6299274909860D-01
    48  4.7000000000000D-01 -1.3113155091806D+00 -1.3385364003936D-01
    49  4.8000000000000D-01 -1.3117464956020D+00 -1.0469455779702D-01
    50  4.9000000000000D-01 -1.3113491497798D+00 -7.5600816082171D-02
    51  5.0000000000000D-01 -1.3101462664306D+00 -4.6650256546887D-02
    52  5.1000000000000D-01 -1.3081582857282D+00 -1.7912827542147D-02
    53  5.2000000000000D-01 -1.3054031402467D+00  1.0549875597744D-02
    54  5.3000000000000D-01 -1.3018961792467D+00  3.8684863330761D-02
    55  5.4000000000000D-01 -1.2976501483113D+00  6.6447853453666D-02
    56  5.5000000000000D-01 -1.2926750757207D+00  9.3803646727286D-02
    57  5.6000000000000D-01 -1.2869783813090D+00  1.2072587718564D-01
    58  5.7000000000000D-01 -1.2805648247544D+00  1.4719723128216D-01
    59  5.8000000000000D-01 -1.2734366529203D+00  1.7320909912857D-01
    60  5.9000000000000D-01 -1.2655936302120D+00  1.9876158252768D-01
    61  6.0000000000000D-01 -1.2570332457200D+00  2.2386297754117D-01
    62  6.1000000000000D-01 -1.2477508037671D+00  2.4852963907137D-01
    63  6.2000000000000D-01 -1.2377396708253D+00  2.7278535391343D-01
    64  6.3000000000000D-01 -1.2269914667254D+00  2.9666091431232D-01
    65  6.4000000000000D-01 -1.2154963132839D+00  3.2019352908004D-01
    66  6.5000000000000D-01 -1.2032430994520D+00  3.4342615713819D-01
    67  6.6000000000000D-01 -1.1902197635413D+00  3.6640683105635D-01
    68  6.7000000000000D-01 -1.1764136163154D+00  3.8918786583911D-01
    69  6.8000000000000D-01 -1.1618116406836D+00  4.1182509389319D-01
    70  6.9000000000000D-01 -1.1464008122565D+00  4.3437706289154D-01
    71  7.0000000000000D-01 -1.1301684709303D+00  4.5690410693243D-01
    72  7.1000000000000D-01 -1.1131026749473D+00  4.7946744162773D-01
    73  7.2000000000000D-01 -1.0951925221471D+00  5.0212833048222D-01
    74  7.3000000000000D-01 -1.0764285135376D+00  5.2494714981662D-01
    75  7.4000000000000D-01 -1.0568029027698D+00  5.4798247847364D-01
    76  7.5000000000000D-01 -1.0363100062949D+00  5.7129027779046D-01
    77  7.6000000000000D-01 -1.0149466316835D+00  5.9492277530588D-01
    78  7.7000000000000D-01 -9.9271231814481D-01  6.1892780039531D-01
    79  7.8000000000000D-01 -9.6960965438933D-01  6.4334792756407D-01
    80  7.9000000000000D-01 -9.4564457001420D-01  6.6821967790048D-01
    81  8.0000000000000D-01 -9.2082659969572D-01  6.9357278165845D-01
    82  8.1000000000000D-01 -8.9516912271256D-01  7.1942949611071D-01
    83  8.2000000000000D-01 -8.6868957517738D-01  7.4580398539745D-01
    84  8.3000000000000D-01 -8.4140963255463D-01  7.7270176862110D-01
    85  8.4000000000000D-01 -8.1335536025929D-01  8.0011924192024D-01
    86  8.5000000000000D-01 -7.8455733036347D-01  8.2804327970079D-01
    87  8.6000000000000D-01 -7.5505070268381D-01  8.5645091961177D-01
    88  8.7000000000000D-01 -7.2487526878330D-01  8.8530913522749D-01
    89  8.8000000000000D-01 -6.9407545769533D-01  9.1457469973702D-01
    90  8.9000000000000D-01 -6.6270030246952D-01  9.4419414324179D-01
    91  9.0000000000000D-01 -6.3080336694662D-01  9.7410380551867D-01
    92  9.1000000000000D-01 -5.9844263250005D-01  1.0042299853124D+00
    93  9.2000000000000D-01 -5.6568034483315D-01  1.0344891863726D+00
    94  9.3000000000000D-01 -5.3258282129853D-01  1.0647884595399D+00
    95  9.4000000000000D-01 -4.9922021960844D-01  1.0950258392152D+00
    96  9.5000000000000D-01 -4.6566625850963D-01  1.1250909309847D+00
    97  9.6000000000000D-01 -4.3199796349084D-01  1.1548653303009D+00
    98  9.7000000000000D-01 -3.9829527596378D-01  1.1842234817490D+00
    99  9.8000000000000D-01 -3.6464068027263D-01  1.2130334880017D+00
   100  9.9000000000000D-01 -3.3111880879032D-01  1.2411579369992D+00
   101  1.0000000000000D+00 -2.9781601151613D-01  1.2684548331151D+00
   102  1.0100000000000D+00 -2.6481990286700D-01  1.2947785871699D+00
   103  1.0200000000000D+00 -2.3221899140209D-01  1.3199808879077D+00
   104  1.0300000000000D+00 -2.0010199074999D-01  1.3439120761039D+00
   105  1.0400000000000D+00 -1.6855732654106D-01  1.3664223288906D+00
   106  1.0500000000000D+00 -1.3767271033838D-01  1.3873626564506D+00
   107  1.0600000000000D+00 -1.0753458066183D-01  1.4065861317414D+00
   108  1.0700000000000D+00 -7.8227788296733D-02  1.4239486592885D+00
   109  1.0800000000000D+00 -4.9834729815888D-02  1.4393108146688D+00
   110  1.0900000000000D+00 -2.2434586744390D-02  1.4525395606634D+00
   111  1.1000000000000D+00  3.8966742757821D-03  1.4635083975883D+00
   112  1.1100000000000D+00  2.9086877823280D-02  1.4720986373754D+00
   113  1.1200000000000D+00  5.3067678621234D-02  1.4781995643597D+00
   114  1.1300000000000D+00  7.5776919176780D-02  1.4817134745290D+00
   115  1.1400000000000D+00  9.7157209626162D-02  1.4825528298667D+00
   116  1.1500000000000D+00  1.1715659600814D-01  1.4806417087861D+00
   117  1.1600000000000D+00  1.3572882548775D-01  1.4759164187103D+00
   118  1.1700000000000D+00  1.5283573037482D-01  1.4683306757337D+00
   119  1.1800000000000D+00  1.6844514806612D-01  1.4578512202950D+00
   120  1.1900000000000D+00  1.8253100140700D-01  1.4444579971055D+00
   121  1.2000000000000D+00  1.9507591007834D-01  1.4281498202366D+00
   122  1.2100000000000D+00  2.0607019329214D-01  1.4089422676750D+00
   123  1.2200000000000D+00  2.1551068642353D-01  1.3868651264487D+00
   124  1.2300000000000D+00  2.2340205048853D-01  1.3619652343176D+00
   125  1.2400000000000D+00  2.2975838602974D-01  1.3343099682997D+00
   126  1.2500000000000D+00  2.3460005557171D-01  1.3039803549378D+00
   127  1.2600000000000D+00  2.3795464709296D-01  1.2710731603478D+00
   128  1.2700000000000D+00  2.3985961036993D-01  1.2357065024946D+00
   129  1.2800000000000D+00  2.4035801862187D-01  1.1980106852476D+00
   130  1.2900000000000D+00  2.3949992649501D-01  1.1581311332379D+00
   131  1.3000000000000D+00  2.3734421488127D-01  1.1162321357226D+00
   132  1.3100000000000D+00  2.3395455287697D-01  1.0724882481560D+00
   133  1.3200000000000D+00  2.2940142672045D-01  1.0270885532886D+00
   134  1.3300000000000D+00  2.2376185911372D-01  9.8023569799264D-01
   135  1.3400000000000D+00  2.1711697498432D-01  9.3214103230141D-01
   136  1.3500000000000D+00  2.0955384002710D-01  8.8302798082099D-01
   137  1.3600000000000D+00  2.0116326925609D-01  8.3312722978113D-01
   138  1.3700000000000D+00  1.9204000730148D-01  7.8267779560133D-01
   139  1.3800000000000D+00  1.8228182848930D-01  7.3192334494891D-01
   140  1.3900000000000D+00  1.7198894032703D-01  6.8111235664275D-01
   141  1.4000000000000D+00  1.6126391364902D-01  6.3049714486656D-01
   142  1.4100000000000D+00  1.5020894472640D-01  5.8032712921914D-01
   143  1.4200000000000D+00  1.3892948721223D-01  5.3085857665302D-01
   144  1.4300000000000D+00  1.2752725538380D-01  4.8233629411084D-01
   145  1.4400000000000D+00  1.1610550624359D-01  4.3500776238547D-01
   146  1.4500000000000D+00  1.0476534992308D-01  3.8911346233030D-01
   147  1.4600000000000D+00  9.3603280997754D-02  3.4488102750954D-01
   148  1.4700000000000D+00  8.2718040293804D-02  3.0254237620966D-01
   149  1.4800000000000D+00  7.2196729333108D-02  2.6229918467207D-01
   150  1.4900000000000D+00  6.2130489739896D-02  2.2436198847131D-01
   151  1.5000000000000D+00  5.2597807699376D-02  1.8890875096161D-01
   152  1.5100000000000D+00  4.3676486649237D-02  1.5611471448487D-01
   153  1.5200000000000D+00  3.5436251249782D-02  1.2613375411886D-01
   154  1.5300000000000D+00  2.7938229131947D-02  9.9098825175683D-02
   155  1.5400000000000D+00  2.1241904368433D-02  7.5137498856887D-02
   156  1.5500000000000D+00  1.5390000176596D-02  5.4338701571980D-02
   157  1.5600000000000D+00  1.0430286457930D-02  3.6801832291203D-02
   158  1.5700000000000D+00  6.3865486311721D-03  2.2571265090841D-02
   159  1.5800000000000D+00  3.2910173724408D-03  1.1709532790188D-02
   160  1.5900000000000D+00  1.1731875595952D-03  4.3039104868560D-03
   161  1.6000000000000D+00  6.7157818973955D-05  4.4880363784863D-04
   162  1.6100000000000D+00 -3.0913329936295D-04 -9.0075901243803D-04
   163  1.6200000000000D+00 -1.8049833253266D-04 -5.6333338053737D-04
   164  1.6300000000000D+00  1.2840860761981D-05  3.5224264631494D-05
   165  1.6400000000000D+00  1.3299743609564D-05  3.6483044020020D-05
   166  1.6500000000000D+00  0.0000000000000D+00  0.0000000000000D+00
   167  1.6600000000000D+00  0.0000000000000D+00  0.0000000000000D+00
   168  1.6700000000000D+00  0.0000000000000D+00  0.0000000000000D+00
   169  1.6800000000000D+00  0.0000000000000D+00  0.0000000000000D+00
   170  1.6900000000000D+00  0.0000000000000D+00  0.0000000000000D+00
   171  1.7000000000000D+00  0.0000000000000D+00  0.0000000000000D+00
   172  1.7100000000000D+00  0.0000000000000D+00  0.0000000000000D+00
   173  1.7200000000000D+00  0.0000000000000D+00  0.0000000000000D+00
   174  1.7300000000000D+00  0.0000000000000D+00  0.0000000000000D+00
   175  1.7400000000000D+00  0.0000000000000D+00  0.0000000000000D+00
   176  1.7500000000000D+00  0.0000000000000D+00  0.0000000000000D+00
   177  1.7600000000000D+00  0.0000000000000D+00  0.0000000000000D+00
   178  1.7700000000000D+00  0.0000000000000D+00  0.0000000000000D+00
   179  1.7800000000000D+00  0.0000000000000D+00  0.0000000000000D+00
   180  1.7900000000000D+00  0.0000000000000D+00  0.0000000000000D+00
   181  1.8000000000000D+00  0.0000000000000D+00  0.0000000000000D+00
   182  1.8100000000000D+00  0.0000000000000D+00  0.0000000000000D+00
   183  1.8200000000000D+00  0.0000000000000D+00  0.0000000000000D+00
   184  1.8300000000000D+00  0.0000000000000D+00  0.0000000000000D+00
   185  1.8400000000000D+00  0.0000000000000D+00  0.0000000000000D+00
   186  1.8500000000000D+00  0.0000000000000D+00  0.0000000000000D+00
   187  1.8600000000000D+00  0.0000000000000D+00  0.0000000000000D+00
   188  1.8700000000000D+00  0.0000000000000D+00  0.0000000000000D+00
   189  1.8800000000000D+00  0.0000000000000D+00  0.0000000000000D+00
   190  1.8900000000000D+00  0.0000000000000D+00  0.0000000000000D+00
   191  1.9000000000000D+00  0.0000000000000D+00  0.0000000000000D+00
   192  1.9100000000000D+00  0.0000000000000D+00  0.0000000000000D+00
   193  1.9200000000000D+00  0.0000000000000D+00  0.0000000000000D+00
   194  1.9300000000000D+00  0.0000000000000D+00  0.0000000000000D+00
   195  1.9400000000000D+00  0.0000000000000D+00  0.0000000000000D+00
   196  1.9500000000000D+00  0.0000000000000D+00  0.0000000000000D+00
   197  1.9600000000000D+00  0.0000000000000D+00  0.0000000000000D+00
   198  1.9700000000000D+00  0.0000000000000D+00  0.0000000000000D+00
   199  1.9800000000000D+00  0.0000000000000D+00  0.0000000000000D+00
   200  1.9900000000000D+00  0.0000000000000D+00  0.0000000000000D+00
   201  2.0000000000000D+00  0.0000000000000D+00  0.0000000000000D+00
   202  2.0100000000000D+00  0.0000000000000D+00  0.0000000000000D+00
   203  2.0200000000000D+00  0.0000000000000D+00  0.0000000000000D+00
   204  2.0300000000000D+00  0.0000000000000D+00  0.0000000000000D+00
   205  2.0400000000000D+00  0.0000000000000D+00  0.0000000000000D+00
   206  2.0500000000000D+00  0.0000000000000D+00  0.0000000000000D+00
   207  2.0600000000000D+00  0.0000000000000D+00  0.0000000000000D+00
   208  2.0700000000000D+00  0.0000000000000D+00  0.0000000000000D+00
   209  2.0800000000000D+00  0.0000000000000D+00  0.0000000000000D+00
   210  2.0900000000000D+00  0.0000000000000D+00  0.0000000000000D+00
   211  2.1000000000000D+00  0.0000000000000D+00  0.0000000000000D+00
   212  2.1100000000000D+00  0.0000000000000D+00  0.0000000000000D+00
   213  2.1200000000000D+00  0.0000000000000D+00  0.0000000000000D+00
   214  2.1300000000000D+00  0.0000000000000D+00  0.0000000000000D+00
   215  2.1400000000000D+00  0.0000000000000D+00  0.0000000000000D+00
   216  2.1500000000000D+00  0.0000000000000D+00  0.0000000000000D+00
   217  2.1600000000000D+00  0.0000000000000D+00  0.0000000000000D+00
   218  2.1700000000000D+00  0.0000000000000D+00  0.0000000000000D+00
   219  2.1800000000000D+00  0.0000000000000D+00  0.0000000000000D+00
   220  2.1900000000000D+00  0.0000000000000D+00  0.0000000000000D+00
   221  2.2000000000000D+00  0.0000000000000D+00  0.0000000000000D+00
   222  2.2100000000000D+00  0.0000000000000D+00  0.0000000000000D+00
   223  2.2200000000000D+00  0.0000000000000D+00  0.0000000000000D+00
   224  2.2300000000000D+00  0.0000000000000D+00  0.0000000000000D+00
   225  2.2400000000000D+00  0.0000000000000D+00  0.0000000000000D+00
   226  2.2500000000000D+00  0.0000000000000D+00  0.0000000000000D+00
   227  2.2600000000000D+00  0.0000000000000D+00  0.0000000000000D+00
   228  2.2700000000000D+00  0.0000000000000D+00  0.0000000000000D+00
   229  2.2800000000000D+00  0.0000000000000D+00  0.0000000000000D+00
   230  2.2900000000000D+00  0.0000000000000D+00  0.0000000000000D+00
   231  2.3000000000000D+00  0.0000000000000D+00  0.0000000000000D+00
   232  2.3100000000000D+00  0.0000000000000D+00  0.0000000000000D+00
   233  2.3200000000000D+00  0.0000000000000D+00  0.0000000000000D+00
   234  2.3300000000000D+00  0.0000000000000D+00  0.0000000000000D+00
   235  2.3400000000000D+00  0.0000000000000D+00  0.0000000000000D+00
   236  2.3500000000000D+00  0.0000000000000D+00  0.0000000000000D+00
   237  2.3600000000000D+00  0.0000000000000D+00  0.0000000000000D+00
   238  2.3700000000000D+00  0.0000000000000D+00  0.0000000000000D+00
   239  2.3800000000000D+00  0.0000000000000D+00  0.0000000000000D+00
   240  2.3900000000000D+00  0.0000000000000D+00  0.0000000000000D+00
   241  2.4000000000000D+00  0.0000000000000D+00  0.0000000000000D+00
   242  2.4100000000000D+00  0.0000000000000D+00  0.0000000000000D+00
   243  2.4200000000000D+00  0.0000000000000D+00  0.0000000000000D+00
   244  2.4300000000000D+00  0.0000000000000D+00  0.0000000000000D+00
   245  2.4400000000000D+00  0.0000000000000D+00  0.0000000000000D+00
   246  2.4500000000000D+00  0.0000000000000D+00  0.0000000000000D+00
   247  2.4600000000000D+00  0.0000000000000D+00  0.0000000000000D+00
   248  2.4700000000000D+00  0.0000000000000D+00  0.0000000000000D+00
   249  2.4800000000000D+00  0.0000000000000D+00  0.0000000000000D+00
   250  2.4900000000000D+00  0.0000000000000D+00  0.0000000000000D+00
   251  2.5000000000000D+00  0.0000000000000D+00  0.0000000000000D+00
   252  2.5100000000000D+00  0.0000000000000D+00  0.0000000000000D+00
   253  2.5200000000000D+00  0.0000000000000D+00  0.0000000000000D+00
   254  2.5300000000000D+00  0.0000000000000D+00  0.0000000000000D+00
   255  2.5400000000000D+00  0.0000000000000D+00  0.0000000000000D+00
   256  2.5500000000000D+00  0.0000000000000D+00  0.0000000000000D+00
   257  2.5600000000000D+00  0.0000000000000D+00  0.0000000000000D+00
   258  2.5700000000000D+00  0.0000000000000D+00  0.0000000000000D+00
   259  2.5800000000000D+00  0.0000000000000D+00  0.0000000000000D+00
   260  2.5900000000000D+00  0.0000000000000D+00  0.0000000000000D+00
   261  2.6000000000000D+00  0.0000000000000D+00  0.0000000000000D+00
   262  2.6100000000000D+00  0.0000000000000D+00  0.0000000000000D+00
   263  2.6200000000000D+00  0.0000000000000D+00  0.0000000000000D+00
   264  2.6300000000000D+00  0.0000000000000D+00  0.0000000000000D+00
   265  2.6400000000000D+00  0.0000000000000D+00  0.0000000000000D+00
   266  2.6500000000000D+00  0.0000000000000D+00  0.0000000000000D+00
   267  2.6600000000000D+00  0.0000000000000D+00  0.0000000000000D+00
   268  2.6700000000000D+00  0.0000000000000D+00  0.0000000000000D+00
   269  2.6800000000000D+00  0.0000000000000D+00  0.0000000000000D+00
   270  2.6900000000000D+00  0.0000000000000D+00  0.0000000000000D+00
   271  2.7000000000000D+00  0.0000000000000D+00  0.0000000000000D+00
   272  2.7100000000000D+00  0.0000000000000D+00  0.0000000000000D+00
   273  2.7200000000000D+00  0.0000000000000D+00  0.0000000000000D+00
   274  2.7300000000000D+00  0.0000000000000D+00  0.0000000000000D+00
   275  2.7400000000000D+00  0.0000000000000D+00  0.0000000000000D+00
   276  2.7500000000000D+00  0.0000000000000D+00  0.0000000000000D+00
   277  2.7600000000000D+00  0.0000000000000D+00  0.0000000000000D+00
   278  2.7700000000000D+00  0.0000000000000D+00  0.0000000000000D+00
   279  2.7800000000000D+00  0.0000000000000D+00  0.0000000000000D+00
   280  2.7900000000000D+00  0.0000000000000D+00  0.0000000000000D+00
   281  2.8000000000000D+00  0.0000000000000D+00  0.0000000000000D+00
   282  2.8100000000000D+00  0.0000000000000D+00  0.0000000000000D+00
   283  2.8200000000000D+00  0.0000000000000D+00  0.0000000000000D+00
   284  2.8300000000000D+00  0.0000000000000D+00  0.0000000000000D+00
   285  2.8400000000000D+00  0.0000000000000D+00  0.0000000000000D+00
   286  2.8500000000000D+00  0.0000000000000D+00  0.0000000000000D+00
   287  2.8600000000000D+00  0.0000000000000D+00  0.0000000000000D+00
   288  2.8700000000000D+00  0.0000000000000D+00  0.0000000000000D+00
   289  2.8800000000000D+00  0.0000000000000D+00  0.0000000000000D+00
   290  2.8900000000000D+00  0.0000000000000D+00  0.0000000000000D+00
   291  2.9000000000000D+00  0.0000000000000D+00  0.0000000000000D+00
   292  2.9100000000000D+00  0.0000000000000D+00  0.0000000000000D+00
   293  2.9200000000000D+00  0.0000000000000D+00  0.0000000000000D+00
   294  2.9300000000000D+00  0.0000000000000D+00  0.0000000000000D+00
   295  2.9400000000000D+00  0.0000000000000D+00  0.0000000000000D+00
   296  2.9500000000000D+00  0.0000000000000D+00  0.0000000000000D+00
   297  2.9600000000000D+00  0.0000000000000D+00  0.0000000000000D+00
   298  2.9700000000000D+00  0.0000000000000D+00  0.0000000000000D+00
   299  2.9800000000000D+00  0.0000000000000D+00  0.0000000000000D+00
   300  2.9900000000000D+00  0.0000000000000D+00  0.0000000000000D+00
   301  3.0000000000000D+00  0.0000000000000D+00  0.0000000000000D+00
   302  3.0100000000000D+00  0.0000000000000D+00  0.0000000000000D+00
   303  3.0200000000000D+00  0.0000000000000D+00  0.0000000000000D+00
   304  3.0300000000000D+00  0.0000000000000D+00  0.0000000000000D+00
   305  3.0400000000000D+00  0.0000000000000D+00  0.0000000000000D+00
   306  3.0500000000000D+00  0.0000000000000D+00  0.0000000000000D+00
   307  3.0600000000000D+00  0.0000000000000D+00  0.0000000000000D+00
   308  3.0700000000000D+00  0.0000000000000D+00  0.0000000000000D+00
   309  3.0800000000000D+00  0.0000000000000D+00  0.0000000000000D+00
   310  3.0900000000000D+00  0.0000000000000D+00  0.0000000000000D+00
   311  3.1000000000000D+00  0.0000000000000D+00  0.0000000000000D+00
   312  3.1100000000000D+00  0.0000000000000D+00  0.0000000000000D+00
   313  3.1200000000000D+00  0.0000000000000D+00  0.0000000000000D+00
   314  3.1300000000000D+00  0.0000000000000D+00  0.0000000000000D+00
   315  3.1400000000000D+00  0.0000000000000D+00  0.0000000000000D+00
   316  3.1500000000000D+00  0.0000000000000D+00  0.0000000000000D+00
   317  3.1600000000000D+00  0.0000000000000D+00  0.0000000000000D+00
   318  3.1700000000000D+00  0.0000000000000D+00  0.0000000000000D+00
   319  3.1800000000000D+00  0.0000000000000D+00  0.0000000000000D+00
   320  3.1900000000000D+00  0.0000000000000D+00  0.0000000000000D+00
   321  3.2000000000000D+00  0.0000000000000D+00  0.0000000000000D+00
   322  3.2100000000000D+00  0.0000000000000D+00  0.0000000000000D+00
   323  3.2200000000000D+00  0.0000000000000D+00  0.0000000000000D+00
   324  3.2300000000000D+00  0.0000000000000D+00  0.0000000000000D+00
   325  3.2400000000000D+00  0.0000000000000D+00  0.0000000000000D+00
   326  3.2500000000000D+00  0.0000000000000D+00  0.0000000000000D+00
   327  3.2600000000000D+00  0.0000000000000D+00  0.0000000000000D+00
   328  3.2700000000000D+00  0.0000000000000D+00  0.0000000000000D+00
   329  3.2800000000000D+00  0.0000000000000D+00  0.0000000000000D+00
   330  3.2900000000000D+00  0.0000000000000D+00  0.0000000000000D+00
   331  3.3000000000000D+00  0.0000000000000D+00  0.0000000000000D+00
   332  3.3100000000000D+00  0.0000000000000D+00  0.0000000000000D+00
   333  3.3200000000000D+00  0.0000000000000D+00  0.0000000000000D+00
   334  3.3300000000000D+00  0.0000000000000D+00  0.0000000000000D+00
   335  3.3400000000000D+00  0.0000000000000D+00  0.0000000000000D+00
   336  3.3500000000000D+00  0.0000000000000D+00  0.0000000000000D+00
   337  3.3600000000000D+00  0.0000000000000D+00  0.0000000000000D+00
   338  3.3700000000000D+00  0.0000000000000D+00  0.0000000000000D+00
   339  3.3800000000000D+00  0.0000000000000D+00  0.0000000000000D+00
   340  3.3900000000000D+00  0.0000000000000D+00  0.0000000000000D+00
   341  3.4000000000000D+00  0.0000000000000D+00  0.0000000000000D+00
   342  3.4100000000000D+00  0.0000000000000D+00  0.0000000000000D+00
   343  3.4200000000000D+00  0.0000000000000D+00  0.0000000000000D+00
   344  3.4300000000000D+00  0.0000000000000D+00  0.0000000000000D+00
   345  3.4400000000000D+00  0.0000000000000D+00  0.0000000000000D+00
   346  3.4500000000000D+00  0.0000000000000D+00  0.0000000000000D+00
   347  3.4600000000000D+00  0.0000000000000D+00  0.0000000000000D+00
   348  3.4700000000000D+00  0.0000000000000D+00  0.0000000000000D+00
   349  3.4800000000000D+00  0.0000000000000D+00  0.0000000000000D+00
   350  3.4900000000000D+00  0.0000000000000D+00  0.0000000000000D+00
   351  3.5000000000000D+00  0.0000000000000D+00  0.0000000000000D+00
   352  3.5100000000000D+00  0.0000000000000D+00  0.0000000000000D+00
   353  3.5200000000000D+00  0.0000000000000D+00  0.0000000000000D+00
   354  3.5300000000000D+00  0.0000000000000D+00  0.0000000000000D+00
   355  3.5400000000000D+00  0.0000000000000D+00  0.0000000000000D+00
   356  3.5500000000000D+00  0.0000000000000D+00  0.0000000000000D+00
   357  3.5600000000000D+00  0.0000000000000D+00  0.0000000000000D+00
   358  3.5700000000000D+00  0.0000000000000D+00  0.0000000000000D+00
   359  3.5800000000000D+00  0.0000000000000D+00  0.0000000000000D+00
   360  3.5900000000000D+00  0.0000000000000D+00  0.0000000000000D+00
   361  3.6000000000000D+00  0.0000000000000D+00  0.0000000000000D+00
   362  3.6100000000000D+00  0.0000000000000D+00  0.0000000000000D+00
   363  3.6200000000000D+00  0.0000000000000D+00  0.0000000000000D+00
   364  3.6300000000000D+00  0.0000000000000D+00  0.0000000000000D+00
   365  3.6400000000000D+00  0.0000000000000D+00  0.0000000000000D+00
   366  3.6500000000000D+00  0.0000000000000D+00  0.0000000000000D+00
   367  3.6600000000000D+00  0.0000000000000D+00  0.0000000000000D+00
   368  3.6700000000000D+00  0.0000000000000D+00  0.0000000000000D+00
   369  3.6800000000000D+00  0.0000000000000D+00  0.0000000000000D+00
   370  3.6900000000000D+00  0.0000000000000D+00  0.0000000000000D+00
   371  3.7000000000000D+00  0.0000000000000D+00  0.0000000000000D+00
   372  3.7100000000000D+00  0.0000000000000D+00  0.0000000000000D+00
   373  3.7200000000000D+00  0.0000000000000D+00  0.0000000000000D+00
   374  3.7300000000000D+00  0.0000000000000D+00  0.0000000000000D+00
   375  3.7400000000000D+00  0.0000000000000D+00  0.0000000000000D+00
   376  3.7500000000000D+00  0.0000000000000D+00  0.0000000000000D+00
   377  3.7600000000000D+00  0.0000000000000D+00  0.0000000000000D+00
   378  3.7700000000000D+00  0.0000000000000D+00  0.0000000000000D+00
   379  3.7800000000000D+00  0.0000000000000D+00  0.0000000000000D+00
   380  3.7900000000000D+00  0.0000000000000D+00  0.0000000000000D+00
   381  3.8000000000000D+00  0.0000000000000D+00  0.0000000000000D+00
   382  3.8100000000000D+00  0.0000000000000D+00  0.0000000000000D+00
   383  3.8200000000000D+00  0.0000000000000D+00  0.0000000000000D+00
   384  3.8300000000000D+00  0.0000000000000D+00  0.0000000000000D+00
   385  3.8400000000000D+00  0.0000000000000D+00  0.0000000000000D+00
   386  3.8500000000000D+00  0.0000000000000D+00  0.0000000000000D+00
   387  3.8600000000000D+00  0.0000000000000D+00  0.0000000000000D+00
   388  3.8700000000000D+00  0.0000000000000D+00  0.0000000000000D+00
   389  3.8800000000000D+00  0.0000000000000D+00  0.0000000000000D+00
   390  3.8900000000000D+00  0.0000000000000D+00  0.0000000000000D+00
   391  3.9000000000000D+00  0.0000000000000D+00  0.0000000000000D+00
   392  3.9100000000000D+00  0.0000000000000D+00  0.0000000000000D+00
   393  3.9200000000000D+00  0.0000000000000D+00  0.0000000000000D+00
   394  3.9300000000000D+00  0.0000000000000D+00  0.0000000000000D+00
   395  3.9400000000000D+00  0.0000000000000D+00  0.0000000000000D+00
   396  3.9500000000000D+00  0.0000000000000D+00  0.0000000000000D+00
   397  3.9600000000000D+00  0.0000000000000D+00  0.0000000000000D+00
   398  3.9700000000000D+00  0.0000000000000D+00  0.0000000000000D+00
   399  3.9800000000000D+00  0.0000000000000D+00  0.0000000000000D+00
   400  3.9900000000000D+00  0.0000000000000D+00  0.0000000000000D+00
   401  4.0000000000000D+00  0.0000000000000D+00  0.0000000000000D+00
   402  4.0100000000000D+00  0.0000000000000D+00  0.0000000000000D+00
   403  4.0200000000000D+00  0.0000000000000D+00  0.0000000000000D+00
   404  4.0300000000000D+00  0.0000000000000D+00  0.0000000000000D+00
   405  4.0400000000000D+00  0.0000000000000D+00  0.0000000000000D+00
   406  4.0500000000000D+00  0.0000000000000D+00  0.0000000000000D+00
   407  4.0600000000000D+00  0.0000000000000D+00  0.0000000000000D+00
   408  4.0700000000000D+00  0.0000000000000D+00  0.0000000000000D+00
   409  4.0800000000000D+00  0.0000000000000D+00  0.0000000000000D+00
   410  4.0900000000000D+00  0.0000000000000D+00  0.0000000000000D+00
   411  4.1000000000000D+00  0.0000000000000D+00  0.0000000000000D+00
   412  4.1100000000000D+00  0.0000000000000D+00  0.0000000000000D+00
   413  4.1200000000000D+00  0.0000000000000D+00  0.0000000000000D+00
   414  4.1300000000000D+00  0.0000000000000D+00  0.0000000000000D+00
   415  4.1400000000000D+00  0.0000000000000D+00  0.0000000000000D+00
   416  4.1500000000000D+00  0.0000000000000D+00  0.0000000000000D+00
   417  4.1600000000000D+00  0.0000000000000D+00  0.0000000000000D+00
   418  4.1700000000000D+00  0.0000000000000D+00  0.0000000000000D+00
   419  4.1800000000000D+00  0.0000000000000D+00  0.0000000000000D+00
   420  4.1900000000000D+00  0.0000000000000D+00  0.0000000000000D+00
   421  4.2000000000000D+00  0.0000000000000D+00  0.0000000000000D+00
   422  4.2100000000000D+00  0.0000000000000D+00  0.0000000000000D+00
   423  4.2200000000000D+00  0.0000000000000D+00  0.0000000000000D+00