Ge    ONCVPSP  r_core=  1.91  1.82  1.91
32.0000     14.0000      161004    zatom,zion,pspd
8 -116133   2     4   600     0    pspcod,pspxc,lmax,lloc,mmax,r2well
5.99000000  5.00000000  0.00000000    rchrg fchrg qchrg
2     2     2     0     0    nproj
1                 extension_switch
0                         6.1969559543298D+00  5.5758305702591D-01
1  0.0000000000000D+00  9.4427243801931D-13 -2.0888374363537D-11
2  1.0000000000000D-02  3.1139014746077D-02 -1.0118638400201D-02
3  2.0000000000000D-02  6.2263602228127D-02 -2.0250040322137D-02
4  3.0000000000000D-02  9.3359319174415D-02 -3.0406780913801D-02
5  4.0000000000000D-02  1.2441169039283D-01 -4.0601059651547D-02
6  5.0000000000000D-02  1.5540619304807D-01 -5.0844515188576D-02
7  6.0000000000000D-02  1.8632824122302D-01 -6.1148043409806D-02
8  7.0000000000000D-02  2.1716317085791D-01 -7.1521619737328D-02
9  8.0000000000000D-02  2.4789622515992D-01 -8.1974126709767D-02
10  9.0000000000000D-02  2.7851254057468D-01 -9.2513187832824D-02
11  1.0000000000000D-01  3.0899713340976D-01 -1.0314500866749D-01
12  1.1000000000000D-01  3.3933488719838D-01 -1.1387422608665D-01
13  1.2000000000000D-01  3.6951054088994D-01 -1.2470376659055D-01
14  1.3000000000000D-01  3.9950867795170D-01 -1.3563471452688D-01
15  1.4000000000000D-01  4.2931371646341D-01 -1.4666619101226D-01
16  1.5000000000000D-01  4.5890990028454D-01 -1.5779524429905D-01
17  1.6000000000000D-01  4.8828129137047D-01 -1.6901675227465D-01
18  1.7000000000000D-01  5.1741176331122D-01 -1.8032333772042D-01
19  1.8000000000000D-01  5.4628499616306D-01 -1.9170529689378D-01
20  1.9000000000000D-01  5.7488447263970D-01 -2.0315054193123D-01
21  2.0000000000000D-01  6.0319347572625D-01 -2.1464455750069D-01
22  2.1000000000000D-01  6.3119508777498D-01 -2.2617037206088D-01
23  2.2000000000000D-01  6.5887219113827D-01 -2.3770854401229D-01
24  2.3000000000000D-01  6.8620747038924D-01 -2.4923716294954D-01
25  2.4000000000000D-01  7.1318341617649D-01 -2.6073186614945D-01
26  2.5000000000000D-01  7.3978233075458D-01 -2.7216587035223D-01
27  2.6000000000000D-01  7.6598633522683D-01 -2.8351001881580D-01
28  2.7000000000000D-01  7.9177737853224D-01 -2.9473284354647D-01
29  2.8000000000000D-01  8.1713724820285D-01 -3.0580064253153D-01
30  2.9000000000000D-01  8.4204758291258D-01 -3.1667757172302D-01
31  3.0000000000000D-01  8.6648988683312D-01 -3.2732575144663D-01
32  3.1000000000000D-01  8.9044554580650D-01 -3.3770538683508D-01
33  3.2000000000000D-01  9.1389584533845D-01 -3.4777490181299D-01
34  3.3000000000000D-01  9.3682199041027D-01 -3.5749108608992D-01
35  3.4000000000000D-01  9.5920512710137D-01 -3.6680925454993D-01
36  3.5000000000000D-01  9.8102636600788D-01 -3.7568341836064D-01
37  3.6000000000000D-01  1.0022668074369D+00 -3.8406646706270D-01
38  3.7000000000000D-01  1.0229075683491D+00 -3.9191036084126D-01
39  3.8000000000000D-01  1.0429298110167D+00 -3.9916633212576D-01
40  3.9000000000000D-01  1.0623147733558D+00 -4.0578509561308D-01
41  4.0000000000000D-01  1.0810438008881D+00 -4.1171706576144D-01
42  4.1000000000000D-01  1.0990983802770D+00 -4.1691258076005D-01
43  4.2000000000000D-01  1.1164601743794D+00 -4.2132213194076D-01
44  4.3000000000000D-01  1.1331110587469D+00 -4.2489659756479D-01
45  4.4000000000000D-01  1.1490331595025D+00 -4.2758747988934D-01
46  4.5000000000000D-01  1.1642088925143D+00 -4.2934714439514D-01
47  4.6000000000000D-01  1.1786210037789D+00 -4.3012906003857D-01
48  4.7000000000000D-01  1.1922526109235D+00 -4.2988803937894D-01
49  4.8000000000000D-01  1.2050872457262D+00 -4.2858047742441D-01
50  4.9000000000000D-01  1.2171088975512D+00 -4.2616458803879D-01
51  5.0000000000000D-01  1.2283020575863D+00 -4.2260063675476D-01
52  5.1000000000000D-01  1.2386517637662D+00 -4.1785116884897D-01
53  5.2000000000000D-01  1.2481436462592D+00 -4.1188123154915D-01
54  5.3000000000000D-01  1.2567639733885D+00 -4.0465858926390D-01
55  5.4000000000000D-01  1.2644996978548D+00 -3.9615393075155D-01
56  5.5000000000000D-01  1.2713385031211D+00 -3.8634106717540D-01
57  5.6000000000000D-01  1.2772688498169D+00 -3.7519712002918D-01
58  5.7000000000000D-01  1.2822800220136D+00 -3.6270269795733D-01
59  5.8000000000000D-01  1.2863621732194D+00 -3.4884206154059D-01
60  5.9000000000000D-01  1.2895063719370D+00 -3.3360327516874D-01
61  6.0000000000000D-01  1.2917046466268D+00 -3.1697834517593D-01
62  6.1000000000000D-01  1.2929500299116D+00 -2.9896334347411D-01
63  6.2000000000000D-01  1.2932366018588D+00 -2.7955851598234D-01
64  6.3000000000000D-01  1.2925595321743D+00 -2.5876837521649D-01
65  6.4000000000000D-01  1.2909151211376D+00 -2.3660177647289D-01
66  6.5000000000000D-01  1.2883008391112D+00 -2.1307197711277D-01
67  6.6000000000000D-01  1.2847153644512D+00 -1.8819667852850D-01
68  6.7000000000000D-01  1.2801586196522D+00 -1.6199805045094D-01
69  6.8000000000000D-01  1.2746318055538D+00 -1.3450273733527D-01
70  6.9000000000000D-01  1.2681374334426D+00 -1.0574184664422D-01
71  7.0000000000000D-01  1.2606793548806D+00 -7.5750918928232D-02
72  7.1000000000000D-01  1.2522627890984D+00 -4.4569879685905D-02
73  7.2000000000000D-01  1.2428943477880D+00 -1.2242973068852D-02
74  7.3000000000000D-01  1.2325820571406D+00  2.1181322420561D-02
75  7.4000000000000D-01  1.2213353769735D+00  5.5650396009565D-02
76  7.5000000000000D-01  1.2091652167983D+00  9.1107624202244D-02
77  7.6000000000000D-01  1.1960839486873D+00  1.2749250740327D-01
78  7.7000000000000D-01  1.1821054167998D+00  1.6474082314947D-01
79  7.8000000000000D-01  1.1672449434407D+00  2.0278479540423D-01
80  7.9000000000000D-01  1.1515193315270D+00  2.4155327929654D-01
81  8.0000000000000D-01  1.1349468633487D+00  2.8097196061528D-01
82  8.1000000000000D-01  1.1175472955198D+00  3.2096356930194D-01
83  8.2000000000000D-01  1.0993418500225D+00  3.6144810612053D-01
84  8.3000000000000D-01  1.0803532012602D+00  4.0234308162308D-01
85  8.4000000000000D-01  1.0606054590456D+00  4.4356376647283D-01
86  8.5000000000000D-01  1.0401241474586D+00  4.8502345213528D-01
87  8.6000000000000D-01  1.0189361795259D+00  5.2663372089939D-01
88  8.7000000000000D-01  9.9706982768201D-01  5.6830472414943D-01
89  8.8000000000000D-01  9.7455468998729D-01  6.0994546776980D-01
90  8.9000000000000D-01  9.5142165209135D-01  6.5146410353320D-01
91  9.0000000000000D-01  9.2770284494427D-01  6.9276822529536D-01
92  9.1000000000000D-01  9.0343159827252D-01  7.3376516879838D-01
93  9.2000000000000D-01  8.7864238985144D-01  7.7436231386853D-01
94  9.3000000000000D-01  8.5337079062117D-01  8.1446738778458D-01
95  9.4000000000000D-01  8.2765340570845D-01  8.5398876858802D-01
96  9.5000000000000D-01  8.0152781143236D-01  8.9283578710764D-01
97  9.6000000000000D-01  7.7503248838784D-01  9.3091902647810D-01
98  9.7000000000000D-01  7.4820675071677D-01  9.6815061794488D-01
99  9.8000000000000D-01  7.2109067169232D-01  1.0044445317656D+00
100  9.9000000000000D-01  6.9372500575860D-01  1.0397168620415D+00
101  1.0000000000000D+00  6.6615110718296D-01  1.0738861043421D+00
102  1.0100000000000D+00  6.3841084549437D-01  1.1068734250208D+00
103  1.0200000000000D+00  6.1054651789697D-01  1.1386029211550D+00
104  1.0300000000000D+00  5.8260075886279D-01  1.1690018700928D+00
105  1.0400000000000D+00  5.5461644712292D-01  1.1980009676344D+00
106  1.0500000000000D+00  5.2663661029047D-01  1.2255345539264D+00
107  1.0600000000000D+00  4.9870432736345D-01  1.2515408262109D+00
108  1.0700000000000D+00  4.7086262936784D-01  1.2759620376223D+00
109  1.0800000000000D+00  4.4315439841519D-01  1.2987446812949D+00
110  1.0900000000000D+00  4.1562226546083D-01  1.3198396591104D+00
111  1.1000000000000D+00  3.8830850705965D-01  1.3392024344799D+00
112  1.1100000000000D+00  3.6125494142788D-01  1.3567931686339D+00
113  1.1200000000000D+00  3.3450282412738D-01  1.3725768399536D+00
114  1.1300000000000D+00  3.0809274369958D-01  1.3865233459688D+00
115  1.1400000000000D+00  2.8206451758230D-01  1.3986075877116D+00
116  1.1500000000000D+00  2.5645708865025D-01  1.4088095362020D+00
117  1.1600000000000D+00  2.3130842272419D-01  1.4171142808992D+00
118  1.1700000000000D+00  2.0665540739968D-01  1.4235120600558D+00
119  1.1800000000000D+00  1.8253375254817D-01  1.4279982729723D+00
120  1.1900000000000D+00  1.5897789284502D-01  1.4305734742291D+00
121  1.2000000000000D+00  1.3602089268018D-01  1.4312433500400D+00
122  1.2100000000000D+00  1.1369435380605D-01  1.4300186769589D+00
123  1.2200000000000D+00  9.2028326073521D-02  1.4269152632442D+00
124  1.2300000000000D+00  7.1051221606687D-02  1.4219538732168D+00
125  1.2400000000000D+00  5.0789732758927D-02  1.4151601350662D+00
126  1.2500000000000D+00  3.1268754185790D-02  1.4065644325955D+00
127  1.2600000000000D+00  1.2511309366754D-02  1.3962017814410D+00
128  1.2700000000000D+00 -5.4615181044529D-03  1.3841116903862D+00
129  1.2800000000000D+00 -2.2630648155650D-02  1.3703380084384D+00
130  1.2900000000000D+00 -3.8979062495657D-02  1.3549287583577D+00
131  1.3000000000000D+00 -5.4491857213649D-02  1.3379359574004D+00
132  1.3100000000000D+00 -6.9156289457357D-02  1.3194154260797D+00
133  1.3200000000000D+00 -8.2961817925483D-02  1.2994265857458D+00
134  1.3300000000000D+00 -9.5900136942552D-02  1.2780322458619D+00
135  1.3400000000000D+00 -1.0796520391136D-01  1.2552983818568D+00
136  1.3500000000000D+00 -1.1915325991974D-01  1.2312939044397D+00
137  1.3600000000000D+00 -1.2946284334762D-01  1.2060904213172D+00
138  1.3700000000000D+00 -1.3889479631665D-01  1.1797619922230D+00
139  1.3800000000000D+00 -1.4745226382796D-01  1.1523848782042D+00
140  1.3900000000000D+00 -1.5514068551607D-01  1.1240372860917D+00
141  1.4000000000000D+00 -1.6196777990153D-01  1.0947991090863D+00
142  1.4100000000000D+00 -1.6794352109405D-01  1.0647516643910D+00
143  1.4200000000000D+00 -1.7308010793603D-01  1.0339774287665D+00
144  1.4300000000000D+00 -1.7739192552422D-01  1.0025597729502D+00
145  1.4400000000000D+00 -1.8089549919724D-01  9.7058269574554D-01
146  1.4500000000000D+00 -1.8360944097798D-01  9.3813055867161D-01
147  1.4600000000000D+00 -1.8555438857095D-01  9.0528782196769D-01
148  1.4700000000000D+00 -1.8675293703084D-01  8.7213878269375D-01
149  1.4800000000000D+00 -1.8722956317105D-01  8.3876731576484D-01
150  1.4900000000000D+00 -1.8701054296149D-01  8.0525661846715D-01
151  1.5000000000000D+00 -1.8612386198605D-01  7.7168895929711D-01
152  1.5100000000000D+00 -1.8459911927200D-01  7.3814543156298D-01
153  1.5200000000000D+00 -1.8246742465072D-01  7.0470571244023D-01
154  1.5300000000000D+00 -1.7976128994394D-01  6.7144782794782D-01
155  1.5400000000000D+00 -1.7651451426778D-01  6.3844792427893D-01
156  1.5500000000000D+00 -1.7276206371339D-01  6.0578004602924D-01
157  1.5600000000000D+00 -1.6853994582280D-01  5.7351592147119D-01
158  1.5700000000000D+00 -1.6388507909315D-01  5.4172475549151D-01
159  1.5800000000000D+00 -1.5883515802562D-01  5.1047303008455D-01
160  1.5900000000000D+00 -1.5342851396055D-01  4.7982431302121D-01
161  1.6000000000000D+00 -1.4770397225653D-01  4.4983907444850D-01
162  1.6100000000000D+00 -1.4170070611315D-01  4.2057451190492D-01
163  1.6200000000000D+00 -1.3545808758836D-01  3.9208438349363D-01
164  1.6300000000000D+00 -1.2901553618190D-01  3.6441884950469D-01
165  1.6400000000000D+00 -1.2241236552300D-01  3.3762432223783D-01
166  1.6500000000000D+00 -1.1568762858964D-01  3.1174332414112D-01
167  1.6600000000000D+00 -1.0887996199015D-01  2.8681435401690D-01
168  1.6700000000000D+00 -1.0202742977106D-01  2.6287176126936D-01
169  1.6800000000000D+00 -9.5167367279343D-02  2.3994562792899D-01
170  1.6900000000000D+00 -8.8336225561592D-02  2.1806165832829D-01
171  1.7000000000000D+00 -8.1569416302362D-02  1.9724107276070D-01
172  1.7100000000000D+00 -7.4901160736167D-02  1.7750052387061D-01
173  1.7200000000000D+00 -6.8364333600723D-02  1.5885197587023D-01
174  1.7300000000000D+00 -6.1990325248885D-02  1.4130268542244D-01
175  1.7400000000000D+00 -5.5808903804990D-02  1.2485517632508D-01
176  1.7500000000000D+00 -4.9848016274580D-02  1.0950680661035D-01
177  1.7600000000000D+00 -4.4133677837474D-02  9.5249867007679D-02
178  1.7700000000000D+00 -3.8690018887112D-02  8.2072696586282D-02
179  1.7800000000000D+00 -3.3539286980076D-02  6.9960441775654D-02
180  1.7900000000000D+00 -2.8701890991092D-02  5.8895922729905D-02
181  1.8000000000000D+00 -2.4196475473535D-02  4.8860686214646D-02
182  1.8100000000000D+00 -2.0039786165423D-02  3.9834659559358D-02
183  1.8200000000000D+00 -1.6246575259004D-02  3.1795989519927D-02
184  1.8300000000000D+00 -1.2829575054330D-02  2.4721344573673D-02
185  1.8400000000000D+00 -9.7994272513919D-03  1.8585867499907D-02
186  1.8500000000000D+00 -7.1660669634643D-03  1.3365352785080D-02
187  1.8600000000000D+00 -4.9328598425644D-03  9.0277109869605D-03
188  1.8700000000000D+00 -3.0983860769899D-03  5.5364094996534D-03
189  1.8800000000000D+00 -1.6744175359605D-03  2.8745900423545D-03
190  1.8900000000000D+00 -6.7901110631475D-04  1.0336116683316D-03
191  1.9000000000000D+00 -9.7003068125533D-05 -3.6632296908391D-05
192  1.9100000000000D+00  1.4365743249071D-04 -4.4964775972927D-04
193  1.9200000000000D+00  1.3630857183877D-04 -3.5536993041803D-04
194  1.9300000000000D+00  3.2067358174404D-05 -7.9586101704221D-05
195  1.9400000000000D+00 -2.8273186938555D-05  6.9199259737024D-05
196  1.9500000000000D+00 -2.0927890447985D-05  5.0473630233103D-05
197  1.9600000000000D+00  3.4761221261298D-06 -8.7965932423027D-06
198  1.9700000000000D+00  5.9965443294210D-06 -1.5059683969151D-05
199  1.9800000000000D+00 -1.2201187684651D-08  3.7864414004731D-08
200  1.9900000000000D+00 -4.0942213031125D-07  1.2705754099911D-06
201  2.0000000000000D+00 -1.7743997906868D-07  5.5065629691930D-07
202  2.0100000000000D+00  0.0000000000000D+00  0.0000000000000D+00
203  2.0200000000000D+00  0.0000000000000D+00  0.0000000000000D+00
204  2.0300000000000D+00  0.0000000000000D+00  0.0000000000000D+00
205  2.0400000000000D+00  0.0000000000000D+00  0.0000000000000D+00
206  2.0500000000000D+00  0.0000000000000D+00  0.0000000000000D+00
207  2.0600000000000D+00  0.0000000000000D+00  0.0000000000000D+00
208  2.0700000000000D+00  0.0000000000000D+00  0.0000000000000D+00
209  2.0800000000000D+00  0.0000000000000D+00  0.0000000000000D+00
210  2.0900000000000D+00  0.0000000000000D+00  0.0000000000000D+00
211  2.1000000000000D+00  0.0000000000000D+00  0.0000000000000D+00
212  2.1100000000000D+00  0.0000000000000D+00  0.0000000000000D+00
213  2.1200000000000D+00  0.0000000000000D+00  0.0000000000000D+00
214  2.1300000000000D+00  0.0000000000000D+00  0.0000000000000D+00
215  2.1400000000000D+00  0.0000000000000D+00  0.0000000000000D+00
216  2.1500000000000D+00  0.0000000000000D+00  0.0000000000000D+00
217  2.1600000000000D+00  0.0000000000000D+00  0.0000000000000D+00
218  2.1700000000000D+00  0.0000000000000D+00  0.0000000000000D+00
219  2.1800000000000D+00  0.0000000000000D+00  0.0000000000000D+00
220  2.1900000000000D+00  0.0000000000000D+00  0.0000000000000D+00
221  2.2000000000000D+00  0.0000000000000D+00  0.0000000000000D+00
222  2.2100000000000D+00  0.0000000000000D+00  0.0000000000000D+00
223  2.2200000000000D+00  0.0000000000000D+00  0.0000000000000D+00
224  2.2300000000000D+00  0.0000000000000D+00  0.0000000000000D+00
225  2.2400000000000D+00  0.0000000000000D+00  0.0000000000000D+00
226  2.2500000000000D+00  0.0000000000000D+00  0.0000000000000D+00
227  2.2600000000000D+00  0.0000000000000D+00  0.0000000000000D+00
228  2.2700000000000D+00  0.0000000000000D+00  0.0000000000000D+00
229  2.2800000000000D+00  0.0000000000000D+00  0.0000000000000D+00
230  2.2900000000000D+00  0.0000000000000D+00  0.0000000000000D+00
231  2.3000000000000D+00  0.0000000000000D+00  0.0000000000000D+00
232  2.3100000000000D+00  0.0000000000000D+00  0.0000000000000D+00
233  2.3200000000000D+00  0.0000000000000D+00  0.0000000000000D+00
234  2.3300000000000D+00  0.0000000000000D+00  0.0000000000000D+00
235  2.3400000000000D+00  0.0000000000000D+00  0.0000000000000D+00
236  2.3500000000000D+00  0.0000000000000D+00  0.0000000000000D+00
237  2.3600000000000D+00  0.0000000000000D+00  0.0000000000000D+00
238  2.3700000000000D+00  0.0000000000000D+00  0.0000000000000D+00
239  2.3800000000000D+00  0.0000000000000D+00  0.0000000000000D+00
240  2.3900000000000D+00  0.0000000000000D+00  0.0000000000000D+00
241  2.4000000000000D+00  0.0000000000000D+00  0.0000000000000D+00
242  2.4100000000000D+00  0.0000000000000D+00  0.0000000000000D+00
243  2.4200000000000D+00  0.0000000000000D+00  0.0000000000000D+00
244  2.4300000000000D+00  0.0000000000000D+00  0.0000000000000D+00
245  2.4400000000000D+00  0.0000000000000D+00  0.0000000000000D+00
246  2.4500000000000D+00  0.0000000000000D+00  0.0000000000000D+00
247  2.4600000000000D+00  0.0000000000000D+00  0.0000000000000D+00
248  2.4700000000000D+00  0.0000000000000D+00  0.0000000000000D+00
249  2.4800000000000D+00  0.0000000000000D+00  0.0000000000000D+00
250  2.4900000000000D+00  0.0000000000000D+00  0.0000000000000D+00
251  2.5000000000000D+00  0.0000000000000D+00  0.0000000000000D+00
252  2.5100000000000D+00  0.0000000000000D+00  0.0000000000000D+00
253  2.5200000000000D+00  0.0000000000000D+00  0.0000000000000D+00
254  2.5300000000000D+00  0.0000000000000D+00  0.0000000000000D+00
255  2.5400000000000D+00  0.0000000000000D+00  0.0000000000000D+00
256  2.5500000000000D+00  0.0000000000000D+00  0.0000000000000D+00
257  2.5600000000000D+00  0.0000000000000D+00  0.0000000000000D+00
258  2.5700000000000D+00  0.0000000000000D+00  0.0000000000000D+00
259  2.5800000000000D+00  0.0000000000000D+00  0.0000000000000D+00
260  2.5900000000000D+00  0.0000000000000D+00  0.0000000000000D+00
261  2.6000000000000D+00  0.0000000000000D+00  0.0000000000000D+00
262  2.6100000000000D+00  0.0000000000000D+00  0.0000000000000D+00
263  2.6200000000000D+00  0.0000000000000D+00  0.0000000000000D+00
264  2.6300000000000D+00  0.0000000000000D+00  0.0000000000000D+00
265  2.6400000000000D+00  0.0000000000000D+00  0.0000000000000D+00
266  2.6500000000000D+00  0.0000000000000D+00  0.0000000000000D+00
267  2.6600000000000D+00  0.0000000000000D+00  0.0000000000000D+00
268  2.6700000000000D+00  0.0000000000000D+00  0.0000000000000D+00
269  2.6800000000000D+00  0.0000000000000D+00  0.0000000000000D+00
270  2.6900000000000D+00  0.0000000000000D+00  0.0000000000000D+00
271  2.7000000000000D+00  0.0000000000000D+00  0.0000000000000D+00
272  2.7100000000000D+00  0.0000000000000D+00  0.0000000000000D+00
273  2.7200000000000D+00  0.0000000000000D+00  0.0000000000000D+00
274  2.7300000000000D+00  0.0000000000000D+00  0.0000000000000D+00
275  2.7400000000000D+00  0.0000000000000D+00  0.0000000000000D+00
276  2.7500000000000D+00  0.0000000000000D+00  0.0000000000000D+00
277  2.7600000000000D+00  0.0000000000000D+00  0.0000000000000D+00
278  2.7700000000000D+00  0.0000000000000D+00  0.0000000000000D+00
279  2.7800000000000D+00  0.0000000000000D+00  0.0000000000000D+00
280  2.7900000000000D+00  0.0000000000000D+00  0.0000000000000D+00
281  2.8000000000000D+00  0.0000000000000D+00  0.0000000000000D+00
282  2.8100000000000D+00  0.0000000000000D+00  0.0000000000000D+00
283  2.8200000000000D+00  0.0000000000000D+00  0.0000000000000D+00
284  2.8300000000000D+00  0.0000000000000D+00  0.0000000000000D+00
285  2.8400000000000D+00  0.0000000000000D+00  0.0000000000000D+00
286  2.8500000000000D+00  0.0000000000000D+00  0.0000000000000D+00
287  2.8600000000000D+00  0.0000000000000D+00  0.0000000000000D+00
288  2.8700000000000D+00  0.0000000000000D+00  0.0000000000000D+00
289  2.8800000000000D+00  0.0000000000000D+00  0.0000000000000D+00
290  2.8900000000000D+00  0.0000000000000D+00  0.0000000000000D+00
291  2.9000000000000D+00  0.0000000000000D+00  0.0000000000000D+00
292  2.9100000000000D+00  0.0000000000000D+00  0.0000000000000D+00
293  2.9200000000000D+00  0.0000000000000D+00  0.0000000000000D+00
294  2.9300000000000D+00  0.0000000000000D+00  0.0000000000000D+00
295  2.9400000000000D+00  0.0000000000000D+00  0.0000000000000D+00
296  2.9500000000000D+00  0.0000000000000D+00  0.0000000000000D+00
297  2.9600000000000D+00  0.0000000000000D+00  0.0000000000000D+00
298  2.9700000000000D+00  0.0000000000000D+00  0.0000000000000D+00
299  2.9800000000000D+00  0.0000000000000D+00  0.0000000000000D+00
300  2.9900000000000D+00  0.0000000000000D+00  0.0000000000000D+00
301  3.0000000000000D+00  0.0000000000000D+00  0.0000000000000D+00
302  3.0100000000000D+00  0.0000000000000D+00  0.0000000000000D+00
303  3.0200000000000D+00  0.0000000000000D+00  0.0000000000000D+00
304  3.0300000000000D+00  0.0000000000000D+00  0.0000000000000D+00
305  3.0400000000000D+00  0.0000000000000D+00  0.0000000000000D+00
306  3.0500000000000D+00  0.0000000000000D+00  0.0000000000000D+00
307  3.0600000000000D+00  0.0000000000000D+00  0.0000000000000D+00
308  3.0700000000000D+00  0.0000000000000D+00  0.0000000000000D+00
309  3.0800000000000D+00  0.0000000000000D+00  0.0000000000000D+00
310  3.0900000000000D+00  0.0000000000000D+00  0.0000000000000D+00
311  3.1000000000000D+00  0.0000000000000D+00  0.0000000000000D+00
312  3.1100000000000D+00  0.0000000000000D+00  0.0000000000000D+00
313  3.1200000000000D+00  0.0000000000000D+00  0.0000000000000D+00
314  3.1300000000000D+00  0.0000000000000D+00  0.0000000000000D+00
315  3.1400000000000D+00  0.0000000000000D+00  0.0000000000000D+00
316  3.1500000000000D+00  0.0000000000000D+00  0.0000000000000D+00
317  3.1600000000000D+00  0.0000000000000D+00  0.0000000000000D+00
318  3.1700000000000D+00  0.0000000000000D+00  0.0000000000000D+00
319  3.1800000000000D+00  0.0000000000000D+00  0.0000000000000D+00
320  3.1900000000000D+00  0.0000000000000D+00  0.0000000000000D+00
321  3.2000000000000D+00  0.0000000000000D+00  0.0000000000000D+00
322  3.2100000000000D+00  0.0000000000000D+00  0.0000000000000D+00
323  3.2200000000000D+00  0.0000000000000D+00  0.0000000000000D+00
324  3.2300000000000D+00  0.0000000000000D+00  0.0000000000000D+00
325  3.2400000000000D+00  0.0000000000000D+00  0.0000000000000D+00
326  3.2500000000000D+00  0.0000000000000D+00  0.0000000000000D+00
327  3.2600000000000D+00  0.0000000000000D+00  0.0000000000000D+00
328  3.2700000000000D+00  0.0000000000000D+00  0.0000000000000D+00
329  3.2800000000000D+00  0.0000000000000D+00  0.0000000000000D+00
330  3.2900000000000D+00  0.0000000000000D+00  0.0000000000000D+00
331  3.3000000000000D+00  0.0000000000000D+00  0.0000000000000D+00
332  3.3100000000000D+00  0.0000000000000D+00  0.0000000000000D+00
333  3.3200000000000D+00  0.0000000000000D+00  0.0000000000000D+00
334  3.3300000000000D+00  0.0000000000000D+00  0.0000000000000D+00
335  3.3400000000000D+00  0.0000000000000D+00  0.0000000000000D+00
336  3.3500000000000D+00  0.0000000000000D+00  0.0000000000000D+00
337  3.3600000000000D+00  0.0000000000000D+00  0.0000000000000D+00
338  3.3700000000000D+00  0.0000000000000D+00  0.0000000000000D+00
339  3.3800000000000D+00  0.0000000000000D+00  0.0000000000000D+00
340  3.3900000000000D+00  0.0000000000000D+00  0.0000000000000D+00
341  3.4000000000000D+00  0.0000000000000D+00  0.0000000000000D+00
342  3.4100000000000D+00  0.0000000000000D+00  0.0000000000000D+00
343  3.4200000000000D+00  0.0000000000000D+00  0.0000000000000D+00
344  3.4300000000000D+00  0.0000000000000D+00  0.0000000000000D+00
345  3.4400000000000D+00  0.0000000000000D+00  0.0000000000000D+00
346  3.4500000000000D+00  0.0000000000000D+00  0.0000000000000D+00
347  3.4600000000000D+00  0.0000000000000D+00  0.0000000000000D+00
348  3.4700000000000D+00  0.0000000000000D+00  0.0000000000000D+00
349  3.4800000000000D+00  0.0000000000000D+00  0.0000000000000D+00
350  3.4900000000000D+00  0.0000000000000D+00  0.0000000000000D+00
351  3.5000000000000D+00  0.0000000000000D+00  0.0000000000000D+00
352  3.5100000000000D+00  0.0000000000000D+00  0.0000000000000D+00
353  3.5200000000000D+00  0.0000000000000D+00  0.0000000000000D+00
354  3.5300000000000D+00  0.0000000000000D+00  0.0000000000000D+00
355  3.5400000000000D+00  0.0000000000000D+00  0.0000000000000D+00
356  3.5500000000000D+00  0.0000000000000D+00  0.0000000000000D+00
357  3.5600000000000D+00  0.0000000000000D+00  0.0000000000000D+00
358  3.5700000000000D+00  0.0000000000000D+00  0.0000000000000D+00
359  3.5800000000000D+00  0.0000000000000D+00  0.0000000000000D+00
360  3.5900000000000D+00  0.0000000000000D+00  0.0000000000000D+00
361  3.6000000000000D+00  0.0000000000000D+00  0.0000000000000D+00
362  3.6100000000000D+00  0.0000000000000D+00  0.0000000000000D+00
363  3.6200000000000D+00  0.0000000000000D+00  0.0000000000000D+00
364  3.6300000000000D+00  0.0000000000000D+00  0.0000000000000D+00
365  3.6400000000000D+00  0.0000000000000D+00  0.0000000000000D+00
366  3.6500000000000D+00  0.0000000000000D+00  0.0000000000000D+00
367  3.6600000000000D+00  0.0000000000000D+00  0.0000000000000D+00
368  3.6700000000000D+00  0.0000000000000D+00  0.0000000000000D+00
369  3.6800000000000D+00  0.0000000000000D+00  0.0000000000000D+00
370  3.6900000000000D+00  0.0000000000000D+00  0.0000000000000D+00
371  3.7000000000000D+00  0.0000000000000D+00  0.0000000000000D+00
372  3.7100000000000D+00  0.0000000000000D+00  0.0000000000000D+00
373  3.7200000000000D+00  0.0000000000000D+00  0.0000000000000D+00
374  3.7300000000000D+00  0.0000000000000D+00  0.0000000000000D+00
375  3.7400000000000D+00  0.0000000000000D+00  0.0000000000000D+00
376  3.7500000000000D+00  0.0000000000000D+00  0.0000000000000D+00
377  3.7600000000000D+00  0.0000000000000D+00  0.0000000000000D+00
378  3.7700000000000D+00  0.0000000000000D+00  0.0000000000000D+00
379  3.7800000000000D+00  0.0000000000000D+00  0.0000000000000D+00
380  3.7900000000000D+00  0.0000000000000D+00  0.0000000000000D+00
381  3.8000000000000D+00  0.0000000000000D+00  0.0000000000000D+00
382  3.8100000000000D+00  0.0000000000000D+00  0.0000000000000D+00
383  3.8200000000000D+00  0.0000000000000D+00  0.0000000000000D+00
384  3.8300000000000D+00  0.0000000000000D+00  0.0000000000000D+00
385  3.8400000000000D+00  0.0000000000000D+00  0.0000000000000D+00
386  3.8500000000000D+00  0.0000000000000D+00  0.0000000000000D+00
387  3.8600000000000D+00  0.0000000000000D+00  0.0000000000000D+00
388  3.8700000000000D+00  0.0000000000000D+00  0.0000000000000D+00
389  3.8800000000000D+00  0.0000000000000D+00  0.0000000000000D+00
390  3.8900000000000D+00  0.0000000000000D+00  0.0000000000000D+00
391  3.9000000000000D+00  0.0000000000000D+00  0.0000000000000D+00
392  3.9100000000000D+00  0.0000000000000D+00  0.0000000000000D+00
393  3.9200000000000D+00  0.0000000000000D+00  0.0000000000000D+00
394  3.9300000000000D+00  0.0000000000000D+00  0.0000000000000D+00
395  3.9400000000000D+00  0.0000000000000D+00  0.0000000000000D+00
396  3.9500000000000D+00  0.0000000000000D+00  0.0000000000000D+00
397  3.9600000000000D+00  0.0000000000000D+00  0.0000000000000D+00
398  3.9700000000000D+00  0.0000000000000D+00  0.0000000000000D+00
399  3.9800000000000D+00  0.0000000000000D+00  0.0000000000000D+00
400  3.9900000000000D+00  0.0000000000000D+00  0.0000000000000D+00
401  4.0000000000000D+00  0.0000000000000D+00  0.0000000000000D+00
402  4.0100000000000D+00  0.0000000000000D+00  0.0000000000000D+00
403  4.0200000000000D+00  0.0000000000000D+00  0.0000000000000D+00
404  4.0300000000000D+00  0.0000000000000D+00  0.0000000000000D+00
405  4.0400000000000D+00  0.0000000000000D+00  0.0000000000000D+00
406  4.0500000000000D+00  0.0000000000000D+00  0.0000000000000D+00
407  4.0600000000000D+00  0.0000000000000D+00  0.0000000000000D+00
408  4.0700000000000D+00  0.0000000000000D+00  0.0000000000000D+00
409  4.0800000000000D+00  0.0000000000000D+00  0.0000000000000D+00
410  4.0900000000000D+00  0.0000000000000D+00  0.0000000000000D+00
411  4.1000000000000D+00  0.0000000000000D+00  0.0000000000000D+00
412  4.1100000000000D+00  0.0000000000000D+00  0.0000000000000D+00
413  4.1200000000000D+00  0.0000000000000D+00  0.0000000000000D+00
414  4.1300000000000D+00  0.0000000000000D+00  0.0000000000000D+00
415  4.1400000000000D+00  0.0000000000000D+00  0.0000000000000D+00
416  4.1500000000000D+00  0.0000000000000D+00  0.0000000000000D+00
417  4.1600000000000D+00  0.0000000000000D+00  0.0000000000000D+00
418  4.1700000000000D+00  0.0000000000000D+00  0.0000000000000D+00
419  4.1800000000000D+00  0.0000000000000D+00  0.0000000000000D+00
420  4.1900000000000D+00  0.0000000000000D+00  0.0000000000000D+00
421  4.2000000000000D+00  0.0000000000000D+00  0.0000000000000D+00
422  4.2100000000000D+00  0.0000000000000D+00  0.0000000000000D+00
423  4.2200000000000D+00  0.0000000000000D+00  0.0000000000000D+00
424  4.2300000000000D+00  0.0000000000000D+00  0.0000000000000D+00
425  4.2400000000000D+00  0.0000000000000D+00  0.0000000000000D+00
426  4.2500000000000D+00  0.0000000000000D+00  0.0000000000000D+00
427  4.2600000000000D+00  0.0000000000000D+00  0.0000000000000D+00
428  4.2700000000000D+00  0.0000000000000D+00  0.0000000000000D+00
429  4.2800000000000D+00  0.0000000000000D+00  0.0000000000000D+00
430  4.2900000000000D+00  0.0000000000000D+00  0.0000000000000D+00
431  4.3000000000000D+00  0.0000000000000D+00  0.0000000000000D+00
432  4.3100000000000D+00  0.0000000000000D+00  0.0000000000000D+00
433  4.3200000000000D+00  0.0000000000000D+00  0.0000000000000D+00
434  4.3300000000000D+00  0.0000000000000D+00  0.0000000000000D+00
435  4.3400000000000D+00  0.0000000000000D+00  0.0000000000000D+00
436  4.3500000000000D+00  0.0000000000000D+00  0.0000000000000D+00
437  4.3600000000000D+00  0.0000000000000D+00  0.0000000000000D+00
438  4.3700000000000D+00  0.0000000000000D+00  0.0000000000000D+00
439  4.3800000000000D+00  0.0000000000000D+00  0.0000000000000D+00
440  4.3900000000000D+00  0.0000000000000D+00  0.0000000000000D+00
441  4.4000000000000D+00  0.0000000000000D+00  0.0000000000000D+00
442  4.4100000000000D+00  0.0000000000000D+00  0.0000000000000D+00
443  4.4200000000000D+00  0.0000000000000D+00  0.0000000000000D+00
444  4.4300000000000D+00  0.0000000000000D+00  0.0000000000000D+00