Sc    ONCVPSP  r_core=  1.36  1.36  1.66
21.0000     11.0000      160520    zatom,zion,pspd
8      11   2     4   600     0    pspcod,pspxc,lmax,lloc,mmax,r2well
5.99000000  5.00000000  0.00000000    rchrg fchrg qchrg
2     3     2     0    nproj
3                 extension_switch
4     3     0    nprojso
0                         9.2899568818266D-01  1.0755038400492D+01
1  0.0000000000000D+00 -1.8535959628307D-08  3.9705141396951D-09
2  1.0000000000000D-02 -2.0863685487724D-02  7.4232966211691D-02
3  2.0000000000000D-02 -4.1895409663757D-02  1.4836775214729D-01
4  3.0000000000000D-02 -6.3255262122450D-02  2.2230477994510D-01
5  4.0000000000000D-02 -8.5087639891935D-02  2.9594172011810D-01
6  5.0000000000000D-02 -1.0751391028843D-01  3.6917222355303D-01
7  6.0000000000000D-02 -1.3062567108305D-01  4.4188477995945D-01
8  7.0000000000000D-02 -1.5447878467268D-01  5.1396174011819D-01
9  8.0000000000000D-02 -1.7908834441071D-01  5.8527853530826D-01
10  9.0000000000000D-02 -2.0442470890836D-01  6.5570312250425D-01
11  1.0000000000000D-01 -2.3041071448631D-01  7.2509567844486D-01
12  1.1000000000000D-01 -2.5692014763724D-01  7.9330855960517D-01
13  1.2000000000000D-01 -2.8377752901734D-01  8.6018653860223D-01
14  1.3000000000000D-01 -3.1075922882851D-01  9.2556732077809D-01
15  1.4000000000000D-01 -3.3759590122676D-01  9.8928233779459D-01
16  1.5000000000000D-01 -3.6397619335367D-01  1.0511578082030D+00
17  1.6000000000000D-01 -3.8955165349163D-01  1.1110160482804D+00
18  1.7000000000000D-01 -4.1394273342417D-01  1.1686770101087D+00
19  1.8000000000000D-01 -4.3674575303872D-01  1.2239600180663D+00
20  1.9000000000000D-01 -4.5754067118197D-01  1.2766856697358D+00
21  2.0000000000000D-01 -4.7589948634542D-01  1.3266778628369D+00
22  2.1000000000000D-01 -4.9139507441219D-01  1.3737659062698D+00
23  2.2000000000000D-01 -5.0361025883490D-01  1.4177866707907D+00
24  2.3000000000000D-01 -5.1214690153578D-01  1.4585867333030D+00
25  2.4000000000000D-01 -5.1663480070866D-01  1.4960244682688D+00
26  2.5000000000000D-01 -5.1674018462834D-01  1.5299720403510D+00
27  2.6000000000000D-01 -5.1217359849074D-01  1.5603172540670D+00
28  2.7000000000000D-01 -5.0269699405176D-01  1.5869652189490D+00
29  2.8000000000000D-01 -4.8812984912996D-01  1.6098397923873D+00
30  2.9000000000000D-01 -4.6835416550145D-01  1.6288847669240D+00
31  3.0000000000000D-01 -4.4331821886452D-01  1.6440647741370D+00
32  3.1000000000000D-01 -4.1303896281489D-01  1.6553658833112D+00
33  3.2000000000000D-01 -3.7760301950284D-01  1.6627958796766D+00
34  3.3000000000000D-01 -3.3716622213687D-01  1.6663842139704D+00
35  3.4000000000000D-01 -2.9195170800075D-01  1.6661816222752D+00
36  3.5000000000000D-01 -2.4224659438512D-01  1.6622594223458D+00
37  3.6000000000000D-01 -1.8839730301218D-01  1.6547084997847D+00
38  3.7000000000000D-01 -1.3080363037188D-01  1.6436380043016D+00
39  3.8000000000000D-01 -6.9911691140401D-02  1.6291737827309D+00
40  3.9000000000000D-01 -6.2058888037321D-03  1.6114565813313D+00
41  4.0000000000000D-01  5.9799908883146D-02  1.5906400550169D+00
42  4.1000000000000D-01  1.2757179247972D-01  1.5668886254457D+00
43  4.2000000000000D-01  1.9656561937262D-01  1.5403752332163D+00
44  4.3000000000000D-01  2.6623698598827D-01  1.5112790317127D+00
45  4.4000000000000D-01  3.3605113650832D-01  1.4797830713358D+00
46  4.5000000000000D-01  4.0549258121667D-01  1.4460720229347D+00
47  4.6000000000000D-01  4.7407420325977D-01  1.4103299881868D+00
48  4.7000000000000D-01  5.4134564348137D-01  1.3727384425065D+00
49  4.8000000000000D-01  6.0690076888385D-01  1.3334743528160D+00
50  4.9000000000000D-01  6.7038405083429D-01  1.2927085082720D+00
51  5.0000000000000D-01  7.3149570392565D-01  1.2506040968976D+00
52  5.1000000000000D-01  7.8999546486978D-01  1.2073155551308D+00
53  5.2000000000000D-01  8.4570492231347D-01  1.1629877107147D+00
54  5.3000000000000D-01  8.9850834230977D-01  1.1177552322574D+00
55  5.4000000000000D-01  9.4835196953396D-01  1.0717423913621D+00
56  5.5000000000000D-01  9.9524182050123D-01  1.0250631356200D+00
57  5.6000000000000D-01  1.0392400210192D+00  9.7782146317159D-01
58  5.7000000000000D-01  1.0804597752005D+00  9.3011208214134D-01
59  5.8000000000000D-01  1.1190590866596D+00  8.8202133120592D-01
60  5.9000000000000D-01  1.1552333832247D+00  8.3362833106064D-01
61  6.0000000000000D-01  1.1892072239334D+00  7.8500633072473D-01
62  6.1000000000000D-01  1.2212252905041D+00  7.3622420764932D-01
63  6.2000000000000D-01  1.2515428843419D+00  6.8734807656474D-01
64  6.3000000000000D-01  1.2804161639818D+00  6.3844295903392D-01
65  6.4000000000000D-01  1.3080923662577D+00  5.8957446385511D-01
66  6.5000000000000D-01  1.3348002572579D+00  5.4081042781347D-01
67  6.6000000000000D-01  1.3607410560503D+00  4.9222246686961D-01
68  6.7000000000000D-01  1.3860800654328D+00  4.4388738965159D-01
69  6.8000000000000D-01  1.4109392294705D+00  3.9588842810885D-01
70  6.9000000000000D-01  1.4353908178555D+00  3.4831624428232D-01
71  7.0000000000000D-01  1.4594524124518D+00  3.0126967728336D-01
72  7.1000000000000D-01  1.4830833423135D+00  2.5485620063905D-01
73  7.2000000000000D-01  1.5061826805298D+00  2.0919206704194D-01
74  7.3000000000000D-01  1.5285888804042D+00  1.6440212503381D-01
75  7.4000000000000D-01  1.5500810902698D+00  1.2061930014418D-01
76  7.5000000000000D-01  1.5703821467033D+00  7.7983741272809D-02
77  7.6000000000000D-01  1.5891632059285D+00  3.6641641466430D-02
78  7.7000000000000D-01  1.6060499334660D+00 -3.2562494532610D-03
79  7.8000000000000D-01  1.6206301339758D+00 -4.1556394989424D-02
80  7.9000000000000D-01  1.6324626672047D+00 -7.8104491854003D-02
81  8.0000000000000D-01  1.6410874630952D+00 -1.1274769984251D-01
82  8.1000000000000D-01  1.6460364201545D+00 -1.4533703588174D-01
83  8.2000000000000D-01  1.6468449468384D+00 -1.7572988138483D-01
84  8.3000000000000D-01  1.6430638865975D+00 -2.0379254810723D-01
85  8.4000000000000D-01  1.6342715538430D+00 -2.2940284496702D-01
86  8.5000000000000D-01  1.6200856008088D+00 -2.5245258685341D-01
87  8.6000000000000D-01  1.6001744343334D+00 -2.7284998634589D-01
88  8.7000000000000D-01  1.5742679070665D+00 -2.9052187052456D-01
89  8.8000000000000D-01  1.5421670194571D+00 -3.0541566765610D-01
90  8.9000000000000D-01  1.5037523869137D+00 -3.1750111244857D-01
91  9.0000000000000D-01  1.4589912503936D+00 -3.2677162370801D-01
92  9.1000000000000D-01  1.4079428379038D+00 -3.3324531449876D-01
93  9.2000000000000D-01  1.3507619183760D+00 -3.3696560217994D-01
94  9.3000000000000D-01  1.2877004273877D+00 -3.3800139380818D-01
95  9.4000000000000D-01  1.2191070854363D+00 -3.3644683119001D-01
96  9.5000000000000D-01  1.1454249730215D+00 -3.3242058914314D-01
97  9.6000000000000D-01  1.0671870717011D+00 -3.2606473008322D-01
98  9.7000000000000D-01  9.8500982546021D-01 -3.1754312765568D-01
99  9.8000000000000D-01  8.9958482196216D-01 -3.0703948173956D-01
100  9.9000000000000D-01  8.1166873466653D-01 -2.9475495594029D-01
101  1.0000000000000D+00  7.2207170906600D-01 -2.8090547764918D-01
102  1.0100000000000D+00  6.3164441165209D-01 -2.6571874823531D-01
103  1.0200000000000D+00  5.4126399296637D-01 -2.4943101786071D-01
104  1.0300000000000D+00  4.5181924311577D-01 -2.3228368511333D-01
105  1.0400000000000D+00  3.6419523941055D-01 -2.1451978612873D-01
106  1.0500000000000D+00  2.7925780013147D-01 -1.9638044087294D-01
107  1.0600000000000D+00  1.9783806723280D-01 -1.7810132607572D-01
108  1.0700000000000D+00  1.2071754127301D-01 -1.5990924434827D-01
109  1.0800000000000D+00  4.8613885979753D-02 -1.4201885771237D-01
110  1.0900000000000D+00 -1.7832194245307D-02 -1.2462965070692D-01
111  1.1000000000000D+00 -7.8068719272118D-02 -1.0792318420718D-01
112  1.1100000000000D+00 -1.3164258213129D-01 -9.2060695479693D-02
113  1.1200000000000D+00 -1.7820785764084D-01 -7.7181092642072D-02
114  1.1300000000000D+00 -2.1753208296895D-01 -6.3399383901030D-02
115  1.1400000000000D+00 -2.4950036588164D-01 -5.0805572624345D-02
116  1.1500000000000D+00 -2.7411721521507D-01 -3.9464041006960D-02
117  1.1600000000000D+00 -2.9150604703745D-01 -2.9413432500636D-02
118  1.1700000000000D+00 -3.0190636415417D-01 -2.0667033739877D-02
119  1.1800000000000D+00 -3.0566865450084D-01 -1.3213646470330D-02
120  1.1900000000000D+00 -3.0324710421130D-01 -7.0189292603205D-03
121  1.2000000000000D+00 -2.9519027526104D-01 -2.0271772290948D-03
122  1.2100000000000D+00 -2.8212994073650D-01  1.8365011810974D-03
123  1.2200000000000D+00 -2.6476829676038D-01  4.6636569054781D-03
124  1.2300000000000D+00 -2.4386383319041D-01  6.5596824035777D-03
125  1.2400000000000D+00 -2.2021615876071D-01  7.6407661170394D-03
126  1.2500000000000D+00 -1.9465009929403D-01  8.0306870009502D-03
127  1.2600000000000D+00 -1.6799941921546D-01  7.8575236323313D-03
128  1.2700000000000D+00 -1.4109052757833D-01  7.2503545213520D-03
129  1.2800000000000D+00 -1.1472647171593D-01  6.3360152404566D-03
130  1.2900000000000D+00 -8.9671671307929D-02  5.2360062378478D-03
131  1.3000000000000D+00 -6.6637241296735D-02  4.0635294060212D-03
132  1.3100000000000D+00 -4.6272482915687D-02  2.9214387923057D-03
133  1.3200000000000D+00 -2.9147261814905D-02  1.8989163273113D-03
134  1.3300000000000D+00 -1.5637811571153D-02  1.0604852497900D-03
135  1.3400000000000D+00 -6.3144162464648D-03  4.7451001594877D-04
136  1.3500000000000D+00 -1.5364666839328D-03  1.8228232247649D-04
137  1.3600000000000D+00  1.0411789845543D-05  6.4660392925420D-05
138  1.3700000000000D+00  6.6062237006724D-05  8.5765774812591D-06
139  1.3800000000000D+00 -5.9946376260013D-05 -4.7017682475129D-06
140  1.3900000000000D+00  1.2669867711172D-06  2.0159405816888D-07
141  1.4000000000000D+00  8.5498058872852D-06  1.0996414425019D-06
142  1.4100000000000D+00  5.5952153132209D-07 -1.9928661451180D-07
143  1.4200000000000D+00  3.7564870861876D-07 -1.3379602963531D-07
144  1.4300000000000D+00  0.0000000000000D+00  0.0000000000000D+00
145  1.4400000000000D+00  0.0000000000000D+00  0.0000000000000D+00
146  1.4500000000000D+00  0.0000000000000D+00  0.0000000000000D+00
147  1.4600000000000D+00  0.0000000000000D+00  0.0000000000000D+00
148  1.4700000000000D+00  0.0000000000000D+00  0.0000000000000D+00
149  1.4800000000000D+00  0.0000000000000D+00  0.0000000000000D+00
150  1.4900000000000D+00  0.0000000000000D+00  0.0000000000000D+00
151  1.5000000000000D+00  0.0000000000000D+00  0.0000000000000D+00
152  1.5100000000000D+00  0.0000000000000D+00  0.0000000000000D+00
153  1.5200000000000D+00  0.0000000000000D+00  0.0000000000000D+00
154  1.5300000000000D+00  0.0000000000000D+00  0.0000000000000D+00
155  1.5400000000000D+00  0.0000000000000D+00  0.0000000000000D+00
156  1.5500000000000D+00  0.0000000000000D+00  0.0000000000000D+00
157  1.5600000000000D+00  0.0000000000000D+00  0.0000000000000D+00
158  1.5700000000000D+00  0.0000000000000D+00  0.0000000000000D+00
159  1.5800000000000D+00  0.0000000000000D+00  0.0000000000000D+00
160  1.5900000000000D+00  0.0000000000000D+00  0.0000000000000D+00
161  1.6000000000000D+00  0.0000000000000D+00  0.0000000000000D+00
162  1.6100000000000D+00  0.0000000000000D+00  0.0000000000000D+00
163  1.6200000000000D+00  0.0000000000000D+00  0.0000000000000D+00
164  1.6300000000000D+00  0.0000000000000D+00  0.0000000000000D+00
165  1.6400000000000D+00  0.0000000000000D+00  0.0000000000000D+00
166  1.6500000000000D+00  0.0000000000000D+00  0.0000000000000D+00
167  1.6600000000000D+00  0.0000000000000D+00  0.0000000000000D+00
168  1.6700000000000D+00  0.0000000000000D+00  0.0000000000000D+00
169  1.6800000000000D+00  0.0000000000000D+00  0.0000000000000D+00
170  1.6900000000000D+00  0.0000000000000D+00  0.0000000000000D+00
171  1.7000000000000D+00  0.0000000000000D+00  0.0000000000000D+00
172  1.7100000000000D+00  0.0000000000000D+00  0.0000000000000D+00
173  1.7200000000000D+00  0.0000000000000D+00  0.0000000000000D+00
174  1.7300000000000D+00  0.0000000000000D+00  0.0000000000000D+00
175  1.7400000000000D+00  0.0000000000000D+00  0.0000000000000D+00
176  1.7500000000000D+00  0.0000000000000D+00  0.0000000000000D+00
177  1.7600000000000D+00  0.0000000000000D+00  0.0000000000000D+00
178  1.7700000000000D+00  0.0000000000000D+00  0.0000000000000D+00
179  1.7800000000000D+00  0.0000000000000D+00  0.0000000000000D+00
180  1.7900000000000D+00  0.0000000000000D+00  0.0000000000000D+00
181  1.8000000000000D+00  0.0000000000000D+00  0.0000000000000D+00
182  1.8100000000000D+00  0.0000000000000D+00  0.0000000000000D+00
183  1.8200000000000D+00  0.0000000000000D+00  0.0000000000000D+00
184  1.8300000000000D+00  0.0000000000000D+00  0.0000000000000D+00
185  1.8400000000000D+00  0.0000000000000D+00  0.0000000000000D+00
186  1.8500000000000D+00  0.0000000000000D+00  0.0000000000000D+00
187  1.8600000000000D+00  0.0000000000000D+00  0.0000000000000D+00
188  1.8700000000000D+00  0.0000000000000D+00  0.0000000000000D+00
189  1.8800000000000D+00  0.0000000000000D+00  0.0000000000000D+00
190  1.8900000000000D+00  0.0000000000000D+00  0.0000000000000D+00
191  1.9000000000000D+00  0.0000000000000D+00  0.0000000000000D+00
192  1.9100000000000D+00  0.0000000000000D+00  0.0000000000000D+00
193  1.9200000000000D+00  0.0000000000000D+00  0.0000000000000D+00
194  1.9300000000000D+00  0.0000000000000D+00  0.0000000000000D+00
195  1.9400000000000D+00  0.0000000000000D+00  0.0000000000000D+00
196  1.9500000000000D+00  0.0000000000000D+00  0.0000000000000D+00
197  1.9600000000000D+00  0.0000000000000D+00  0.0000000000000D+00
198  1.9700000000000D+00  0.0000000000000D+00  0.0000000000000D+00
199  1.9800000000000D+00  0.0000000000000D+00  0.0000000000000D+00
200  1.9900000000000D+00  0.0000000000000D+00  0.0000000000000D+00
201  2.0000000000000D+00  0.0000000000000D+00  0.0000000000000D+00
202  2.0100000000000D+00  0.0000000000000D+00  0.0000000000000D+00
203  2.0200000000000D+00  0.0000000000000D+00  0.0000000000000D+00
204  2.0300000000000D+00  0.0000000000000D+00  0.0000000000000D+00
205  2.0400000000000D+00  0.0000000000000D+00  0.0000000000000D+00
206  2.0500000000000D+00  0.0000000000000D+00  0.0000000000000D+00
207  2.0600000000000D+00  0.0000000000000D+00  0.0000000000000D+00
208  2.0700000000000D+00  0.0000000000000D+00  0.0000000000000D+00
209  2.0800000000000D+00  0.0000000000000D+00  0.0000000000000D+00
210  2.0900000000000D+00  0.0000000000000D+00  0.0000000000000D+00
211  2.1000000000000D+00  0.0000000000000D+00  0.0000000000000D+00
212  2.1100000000000D+00  0.0000000000000D+00  0.0000000000000D+00
213  2.1200000000000D+00  0.0000000000000D+00  0.0000000000000D+00
214  2.1300000000000D+00  0.0000000000000D+00  0.0000000000000D+00
215  2.1400000000000D+00  0.0000000000000D+00  0.0000000000000D+00
216  2.1500000000000D+00  0.0000000000000D+00  0.0000000000000D+00
217  2.1600000000000D+00  0.0000000000000D+00  0.0000000000000D+00
218  2.1700000000000D+00  0.0000000000000D+00  0.0000000000000D+00
219  2.1800000000000D+00  0.0000000000000D+00  0.0000000000000D+00
220  2.1900000000000D+00  0.0000000000000D+00  0.0000000000000D+00
221  2.2000000000000D+00  0.0000000000000D+00  0.0000000000000D+00
222  2.2100000000000D+00  0.0000000000000D+00  0.0000000000000D+00
223  2.2200000000000D+00  0.0000000000000D+00  0.0000000000000D+00
224  2.2300000000000D+00  0.0000000000000D+00  0.0000000000000D+00
225  2.2400000000000D+00  0.0000000000000D+00  0.0000000000000D+00
226  2.2500000000000D+00  0.0000000000000D+00  0.0000000000000D+00
227  2.2600000000000D+00  0.0000000000000D+00  0.0000000000000D+00
228  2.2700000000000D+00  0.0000000000000D+00  0.0000000000000D+00
229  2.2800000000000D+00  0.0000000000000D+00  0.0000000000000D+00
230  2.2900000000000D+00  0.0000000000000D+00  0.0000000000000D+00
231  2.3000000000000D+00  0.0000000000000D+00  0.0000000000000D+00
232  2.3100000000000D+00  0.0000000000000D+00  0.0000000000000D+00
233  2.3200000000000D+00  0.0000000000000D+00  0.0000000000000D+00
234  2.3300000000000D+00  0.0000000000000D+00  0.0000000000000D+00
235  2.3400000000000D+00  0.0000000000000D+00  0.0000000000000D+00
236  2.3500000000000D+00  0.0000000000000D+00  0.0000000000000D+00
237  2.3600000000000D+00  0.0000000000000D+00  0.0000000000000D+00
238  2.3700000000000D+00  0.0000000000000D+00  0.0000000000000D+00
239  2.3800000000000D+00  0.0000000000000D+00  0.0000000000000D+00
240  2.3900000000000D+00  0.0000000000000D+00  0.0000000000000D+00
241  2.4000000000000D+00  0.0000000000000D+00  0.0000000000000D+00
242  2.4100000000000D+00  0.0000000000000D+00  0.0000000000000D+00
243  2.4200000000000D+00  0.0000000000000D+00  0.0000000000000D+00
244  2.4300000000000D+00  0.0000000000000D+00  0.0000000000000D+00
245  2.4400000000000D+00  0.0000000000000D+00  0.0000000000000D+00
246  2.4500000000000D+00  0.0000000000000D+00  0.0000000000000D+00
247  2.4600000000000D+00  0.0000000000000D+00  0.0000000000000D+00
248  2.4700000000000D+00  0.0000000000000D+00  0.0000000000000D+00
249  2.4800000000000D+00  0.0000000000000D+00  0.0000000000000D+00
250  2.4900000000000D+00  0.0000000000000D+00  0.0000000000000D+00
251  2.5000000000000D+00  0.0000000000000D+00  0.0000000000000D+00
252  2.5100000000000D+00  0.0000000000000D+00  0.0000000000000D+00
253  2.5200000000000D+00  0.0000000000000D+00  0.0000000000000D+00
254  2.5300000000000D+00  0.0000000000000D+00  0.0000000000000D+00
255  2.5400000000000D+00  0.0000000000000D+00  0.0000000000000D+00
256  2.5500000000000D+00  0.0000000000000D+00  0.0000000000000D+00
257  2.5600000000000D+00  0.0000000000000D+00  0.0000000000000D+00
258  2.5700000000000D+00  0.0000000000000D+00  0.0000000000000D+00
259  2.5800000000000D+00  0.0000000000000D+00  0.0000000000000D+00
260  2.5900000000000D+00  0.0000000000000D+00  0.0000000000000D+00
261  2.6000000000000D+00  0.0000000000000D+00  0.0000000000000D+00
262  2.6100000000000D+00  0.0000000000000D+00  0.0000000000000D+00
263  2.6200000000000D+00  0.0000000000000D+00  0.0000000000000D+00
264  2.6300000000000D+00  0.0000000000000D+00  0.0000000000000D+00
265  2.6400000000000D+00  0.0000000000000D+00  0.0000000000000D+00
266  2.6500000000000D+00  0.0000000000000D+00  0.0000000000000D+00
267  2.6600000000000D+00  0.0000000000000D+00  0.0000000000000D+00
268  2.6700000000000D+00  0.0000000000000D+00  0.0000000000000D+00
269  2.6800000000000D+00  0.0000000000000D+00  0.0000000000000D+00
270  2.6900000000000D+00  0.0000000000000D+00  0.0000000000000D+00
271  2.7000000000000D+00  0.0000000000000D+00  0.0000000000000D+00
272  2.7100000000000D+00  0.0000000000000D+00  0.0000000000000D+00
273  2.7200000000000D+00  0.0000000000000D+00  0.0000000000000D+00
274  2.7300000000000D+00  0.0000000000000D+00  0.0000000000000D+00
275  2.7400000000000D+00  0.0000000000000D+00  0.0000000000000D+00
276  2.7500000000000D+00  0.0000000000000D+00  0.0000000000000D+00
277  2.7600000000000D+00  0.0000000000000D+00  0.0000000000000D+00
278  2.7700000000000D+00  0.0000000000000D+00  0.0000000000000D+00
279  2.7800000000000D+00  0.0000000000000D+00  0.0000000000000D+00
280  2.7900000000000D+00  0.0000000000000D+00  0.0000000000000D+00
281  2.8000000000000D+00  0.0000000000000D+00  0.0000000000000D+00
282  2.8100000000000D+00  0.0000000000000D+00  0.0000000000000D+00
283  2.8200000000000D+00  0.0000000000000D+00  0.0000000000000D+00
284  2.8300000000000D+00  0.0000000000000D+00  0.0000000000000D+00
285  2.8400000000000D+00  0.0000000000000D+00  0.0000000000000D+00
286  2.8500000000000D+00  0.0000000000000D+00  0.0000000000000D+00
287  2.8600000000000D+00  0.0000000000000D+00  0.0000000000000D+00
288  2.8700000000000D+00  0.0000000000000D+00  0.0000000000000D+00
289  2.8800000000000D+00  0.0000000000000D+00  0.0000000000000D+00
290  2.8900000000000D+00  0.0000000000000D+00  0.0000000000000D+00
291  2.9000000000000D+00  0.0000000000000D+00  0.0000000000000D+00
292  2.9100000000000D+00  0.0000000000000D+00  0.0000000000000D+00
293  2.9200000000000D+00  0.0000000000000D+00  0.0000000000000D+00
294  2.9300000000000D+00  0.0000000000000D+00  0.0000000000000D+00
295  2.9400000000000D+00  0.0000000000000D+00  0.0000000000000D+00
296  2.9500000000000D+00  0.0000000000000D+00  0.0000000000000D+00
297  2.9600000000000D+00  0.0000000000000D+00  0.0000000000000D+00
298  2.9700000000000D+00  0.0000000000000D+00  0.0000000000000D+00
299  2.9800000000000D+00  0.0000000000000D+00  0.0000000000000D+00
300  2.9900000000000D+00  0.0000000000000D+00  0.0000000000000D+00
301  3.0000000000000D+00  0.0000000000000D+00  0.0000000000000D+00
302  3.0100000000000D+00  0.0000000000000D+00  0.0000000000000D+00
303  3.0200000000000D+00  0.0000000000000D+00  0.0000000000000D+00
304  3.0300000000000D+00  0.0000000000000D+00  0.0000000000000D+00
305  3.0400000000000D+00  0.0000000000000D+00  0.0000000000000D+00
306  3.0500000000000D+00  0.0000000000000D+00  0.0000000000000D+00
307  3.0600000000000D+00  0.0000000000000D+00  0.0000000000000D+00
308  3.0700000000000D+00  0.0000000000000D+00  0.0000000000000D+00
309  3.0800000000000D+00  0.0000000000000D+00  0.0000000000000D+00
310  3.0900000000000D+00  0.0000000000000D+00  0.0000000000000D+00
311  3.1000000000000D+00  0.0000000000000D+00  0.0000000000000D+00
312  3.1100000000000D+00  0.0000000000000D+00  0.0000000000000D+00
313  3.1200000000000D+00  0.0000000000000D+00  0.0000000000000D+00
314  3.1300000000000D+00  0.0000000000000D+00  0.0000000000000D+00
315  3.1400000000000D+00  0.0000000000000D+00  0.0000000000000D+00
316  3.1500000000000D+00  0.0000000000000D+00  0.0000000000000D+00
317  3.1600000000000D+00  0.0000000000000D+00  0.0000000000000D+00
318  3.1700000000000D+00  0.0000000000000D+00  0.0000000000000D+00
319  3.1800000000000D+00  0.0000000000000D+00  0.0000000000000D+00
320  3.1900000000000D+00  0.0000000000000D+00  0.0000000000000D+00
321  3.2000000000000D+00  0.0000000000000D+00  0.0000000000000D+00
322  3.2100000000000D+00  0.0000000000000D+00  0.0000000000000D+00
323  3.2200000000000D+00  0.0000000000000D+00  0.0000000000000D+00
324  3.2300000000000D+00  0.0000000000000D+00  0.0000000000000D+00
325  3.2400000000000D+00  0.0000000000000D+00  0.0000000000000D+00
326  3.2500000000000D+00  0.0000000000000D+00  0.0000000000000D+00
327  3.2600000000000D+00  0.0000000000000D+00  0.0000000000000D+00
328  3.2700000000000D+00  0.0000000000000D+00  0.0000000000000D+00
329  3.2800000000000D+00  0.0000000000000D+00  0.0000000000000D+00
330  3.2900000000000D+00  0.0000000000000D+00  0.0000000000000D+00
331  3.3000000000000D+00  0.0000000000000D+00  0.0000000000000D+00
332  3.3100000000000D+00  0.0000000000000D+00  0.0000000000000D+00
333  3.3200000000000D+00  0.0000000000000D+00  0.0000000000000D+00
334  3.3300000000000D+00  0.0000000000000D+00  0.0000000000000D+00
335  3.3400000000000D+00  0.0000000000000D+00  0.0000000000000D+00
336  3.3500000000000D+00  0.0000000000000D+00  0.0000000000000D+00
337  3.3600000000000D+00  0.0000000000000D+00  0.0000000000000D+00
338  3.3700000000000D+00  0.0000000000000D+00  0.0000000000000D+00
339  3.3800000000000D+00  0.0000000000000D+00  0.0000000000000D+00
340  3.3900000000000D+00  0.0000000000000D+00  0.0000000000000D+00
341  3.4000000000000D+00  0.0000000000000D+00  0.0000000000000D+00
342  3.4100000000000D+00  0.0000000000000D+00  0.0000000000000D+00
343  3.4200000000000D+00  0.0000000000000D+00  0.0000000000000D+00
344  3.4300000000000D+00  0.0000000000000D+00  0.0000000000000D+00
345  3.4400000000000D+00  0.0000000000000D+00  0.0000000000000D+00
346  3.4500000000000D+00  0.0000000000000D+00  0.0000000000000D+00
347  3.4600000000000D+00  0.0000000000000D+00  0.0000000000000D+00
348  3.4700000000000D+00  0.0000000000000D+00  0.0000000000000D+00
349  3.4800000000000D+00  0.0000000000000D+00  0.0000000000000D+00
350  3.4900000000000D+00  0.0000000000000D+00  0.0000000000000D+00
351  3.5000000000000D+00  0.0000000000000D+00  0.0000000000000D+00
352  3.5100000000000D+00  0.0000000000000D+00  0.0000000000000D+00
353  3.5200000000000D+00  0.0000000000000D+00  0.0000000000000D+00
354  3.5300000000000D+00  0.0000000000000D+00  0.0000000000000D+00
355  3.5400000000000D+00  0.0000000000000D+00  0.0000000000000D+00
356  3.5500000000000D+00  0.0000000000000D+00  0.0000000000000D+00
357  3.5600000000000D+00  0.0000000000000D+00  0.0000000000000D+00
358  3.5700000000000D+00  0.0000000000000D+00  0.0000000000000D+00
359  3.5800000000000D+00  0.0000000000000D+00  0.0000000000000D+00
360  3.5900000000000D+00  0.0000000000000D+00  0.0000000000000D+00
361  3.6000000000000D+00  0.0000000000000D+00  0.0000000000000D+00
362  3.6100000000000D+00  0.0000000000000D+00  0.0000000000000D+00
363  3.6200000000000D+00  0.0000000000000D+00  0.0000000000000D+00
364  3.6300000000000D+00  0.0000000000000D+00  0.0000000000000D+00
365  3.6400000000000D+00  0.0000000000000D+00  0.0000000000000D+00
366  3.6500000000000D+00  0.0000000000000D+00  0.0000000000000D+00
367  3.6600000000000D+00  0.0000000000000D+00  0.0000000000000D+00
368  3.6700000000000D+00  0.0000000000000D+00  0.0000000000000D+00
369  3.6800000000000D+00  0.0000000000000D+00  0.0000000000000D+00
370  3.6900000000000D+00  0.0000000000000D+00  0.0000000000000D+00
371  3.7000000000000D+00  0.0000000000000D+00  0.0000000000000D+00
372  3.7100000000000D+00  0.0000000000000D+00  0.0000000000000D+00
373  3.7200000000000D+00  0.0000000000000D+00  0.0000000000000D+00
374  3.7300000000000D+00  0.0000000000000D+00  0.0000000000000D+00
375  3.7400000000000D+00  0.0000000000000D+00  0.0000000000000D+00
376  3.7500000000000D+00  0.0000000000000D+00  0.0000000000000D+00
377  3.7600000000000D+00  0.0000000000000D+00  0.0000000000000D+00
378  3.7700000000000D+00  0.0000000000000D+00  0.0000000000000D+00
379  3.7800000000000D+00  0.0000000000000D+00  0.0000000000000D+00
380  3.7900000000000D+00  0.0000000000000D+00  0.0000000000000D+00
381  3.8000000000000D+00  0.0000000000000D+00  0.0000000000000D+00
382  3.8100000000000D+00  0.0000000000000D+00  0.0000000000000D+00
383  3.8200000000000D+00  0.0000000000000D+00  0.0000000000000D+00
384  3.8300000000000D+00  0.0000000000000D+00  0.0000000000000D+00
385  3.8400000000000D+00  0.0000000000000D+00  0.0000000000000D+00
386  3.8500000000000D+00  0.0000000000000D+00  0.0000000000000D+00
387  3.8600000000000D+00  0.0000000000000D+00  0.0000000000000D+00
388  3.8700000000000D+00  0.0000000000000D+00  0.0000000000000D+00
389  3.8800000000000D+00  0.0000000000000D+00  0.0000000000000D+00
390  3.8900000000000D+00  0.0000000000000D+00  0.0000000000000D+00
391  3.9000000000000D+00  0.0000000000000D+00  0.0000000000000D+00
392  3.9100000000000D+00  0.0000000000000D+00  0.0000000000000D+00
393  3.9200000000000D+00  0.0000000000000D+00  0.0000000000000D+00
394  3.9300000000000D+00  0.0000000000000D+00  0.0000000000000D+00
395  3.9400000000000D+00  0.0000000000000D+00  0.0000000000000D+00
396  3.9500000000000D+00  0.0000000000000D+00  0.0000000000000D+00
397  3.9600000000000D+00  0.0000000000000D+00  0.0000000000000D+00
398  3.9700000000000D+00  0.0000000000000D+00  0.0000000000000D+00
399  3.9800000000000D+00  0.0000000000000D+00  0.0000000000000D+00
400  3.9900000000000D+00  0.0000000000000D+00  0.0000000000000D+00
401  4.0000000000000D+00  0.0000000000000D+00  0.0000000000000D+00
402  4.0100000000000D+00  0.0000000000000D+00  0.0000000000000D+00
403  4.0200000000000D+00  0.0000000000000D+00  0.0000000000000D+00
404  4.0300000000000D+00  0.0000000000000D+00  0.0000000000000D+00
405  4.0400000000000D+00  0.0000000000000D+00  0.0000000000000D+00
406  4.0500000000000D+00  0.0000000000000D+00  0.0000000000000D+00
407  4.0600000000000D+00  0.0000000000000D+00  0.0000000000000D+00
408  4.0700000000000D+00  0.0000000000000D+00  0.0000000000000D+00
409  4.0800000000000D+00  0.0000000000000D+00  0.0000000000000D+00
410  4.0900000000000D+00  0.0000000000000D+00  0.0000000000000D+00
411  4.1000000000000D+00  0.0000000000000D+00  0.0000000000000D+00
412  4.1100000000000D+00  0.0000000000000D+00  0.0000000000000D+00
413  4.1200000000000D+00  0.0000000000000D+00  0.0000000000000D+00
414  4.1300000000000D+00  0.0000000000000D+00  0.0000000000000D+00
415  4.1400000000000D+00  0.0000000000000D+00  0.0000000000000D+00
416  4.1500000000000D+00  0.0000000000000D+00  0.0000000000000D+00
417  4.1600000000000D+00  0.0000000000000D+00  0.0000000000000D+00
418  4.1700000000000D+00  0.0000000000000D+00  0.0000000000000D+00
419  4.1800000000000D+00  0.0000000000000D+00  0.0000000000000D+00
420  4.1900000000000D+00  0.0000000000000D+00  0.0000000000000D+00
421  4.2000000000000D+00  0.0000000000000D+00  0.0000000000000D+00
422  4.2100000000000D+00  0.0000000000000D+00  0.0000000000000D+00
423  4.2200000000000D+00  0.0000000000000D+00  0.0000000000000D+00
424  4.2300000000000D+00  0.0000000000000D+00  0.0000000000000D+00
425  4.2400000000000D+00  0.0000000000000D+00  0.0000000000000D+00
426  4.2500000000000D+00  0.0000000000000D+00  0.0000000000000D+00
427  4.2600000000000D+00  0.0000000000000D+00  0.0000000000000D+00
428  4.2700000000000D+00  0.0000000000000D+00  0.0000000000000D+00
429  4.2800000000000D+00  0.0000000000000D+00  0.0000000000000D+00
430  4.2900000000000D+00  0.0000000000000D+00  0.0000000000000D+00
431  4.3000000000000D+00  0.0000000000000D+00  0.0000000000000D+00
432  4.3100000000000D+00  0.0000000000000D+00  0.0000000000000D+00
433  4.3200000000000D+00  0.0000000000000D+00  0.0000000000000D+00
434  4.3300000000000D+00  0.0000000000000D+00  0.0000000000000D+00
435  4.3400000000000D+00  0.0000000000000D+00  0.0000000000000D+00
436  4.3500000000000D+00  0.0000000000000D+00  0.0000000000000D+00
437  4.3600000000000D+00  0.0000000000000D+00  0.0000000000000D+00
438  4.3700000000000D+00  0.0000000000000D+00  0.0000000000000D+00
439  4.3800000000000D+00  0.0000000000000D+00  0.0000000000000D+00
440  4.3900000000000D+00  0.0000000000000D+00  0.0000000000000D+00
441  4.4000000000000D+00  0.0000000000000D+00  0.0000000000000D+00
442  4.4100000000000D+00  0.0000000000000D+00  0.0000000000000D+00
443  4.4200000000000D+00  0.0000000000000D+00  0.0000000000000D+00