In    ONCVPSP-3.2.3.1  r_core=   2.10853   2.37566   3.12562
49.0000      3.0000      171019    zatom,zion,pspd
8      11   2     4   600     0    pspcod,pspxc,lmax,lloc,mmax,r2well
5.99000000  5.00000000  0.00000000    rchrg fchrg qchrg
2     2     2     0     0    nproj
1     1           extension_switch
0                         1.3125229870579D+01  1.9086455058377D+00
1  0.0000000000000D+00 -1.9868084955021D-10  1.9915641358281D-10
2  1.0000000000000D-02  5.9217464219041D-02 -4.0417351204385D-02
3  2.0000000000000D-02  1.1815518429680D-01 -8.0562273211287D-02
4  3.0000000000000D-02  1.7653503025240D-01 -1.2016391754490D-01
5  4.0000000000000D-02  2.3408209124085D-01 -1.5895458809618D-01
6  5.0000000000000D-02  2.9052626220912D-01 -1.9667129466523D-01
7  6.0000000000000D-02  3.4560380319845D-01 -2.3305727947539D-01
8  7.0000000000000D-02  3.9905886240861D-01 -2.6786350788377D-01
9  8.0000000000000D-02  4.5064495433833D-01 -3.0085011471199D-01
10  9.0000000000000D-02  5.0012638456255D-01 -3.3178779786804D-01
11  1.0000000000000D-01  5.4727961300025D-01 -3.6045915122357D-01
12  1.1000000000000D-01  5.9189454786440D-01 -3.8665992904968D-01
13  1.2000000000000D-01  6.3377576286697D-01 -4.1020023469618D-01
14  1.3000000000000D-01  6.7274363067469D-01 -4.3090562662273D-01
15  1.4000000000000D-01  7.0863536607307D-01 -4.4861813535247D-01
16  1.5000000000000D-01  7.4130597279498D-01 -4.6319718541825D-01
17  1.6000000000000D-01  7.7062908850317D-01 -4.7452041690461D-01
18  1.7000000000000D-01  7.9649772298062D-01 -4.8248440175339D-01
19  1.8000000000000D-01  8.1882488517587D-01 -4.8700525059395D-01
20  1.9000000000000D-01  8.3754409536918D-01 -4.8801910647683D-01
21  2.0000000000000D-01  8.5260977936616D-01 -4.8548252253019D-01
22  2.1000000000000D-01  8.6399754228577D-01 -4.7937272121649D-01
23  2.2000000000000D-01  8.7170432018441D-01 -4.6968773354099D-01
24  2.3000000000000D-01  8.7574840844537D-01 -4.5644641724779D-01
25  2.4000000000000D-01  8.7616936655786D-01 -4.3968835373228D-01
26  2.5000000000000D-01  8.7302779960960D-01 -4.1947362409455D-01
27  2.6000000000000D-01  8.6640501751722D-01 -3.9588246545475D-01
28  2.7000000000000D-01  8.5640257371574D-01 -3.6901480934364D-01
29  2.8000000000000D-01  8.4314168571822D-01 -3.3898970466600D-01
30  2.9000000000000D-01  8.2676254063580D-01 -3.0594462840733D-01
31  3.0000000000000D-01  8.0742348941284D-01 -2.7003468791167D-01
32  3.1000000000000D-01  7.8530013417728D-01 -2.3143171919658D-01
33  3.2000000000000D-01  7.6058431373057D-01 -1.9032328638603D-01
34  3.3000000000000D-01  7.3348299279906D-01 -1.4691158793087D-01
35  3.4000000000000D-01  7.0421706123765D-01 -1.0141227584473D-01
36  3.5000000000000D-01  6.7302004991241D-01 -5.4053194708348D-02
37  3.6000000000000D-01  6.4013677048925D-01 -5.0730476834893D-03
38  3.7000000000000D-01  6.0582188681686D-01  4.5280002773484D-02
39  3.8000000000000D-01  5.7033842601193D-01  9.6749791402382D-02
40  3.9000000000000D-01  5.3395623772969D-01  1.4907365537708D-01
41  4.0000000000000D-01  4.9695041043104D-01  2.0198397952003D-01
42  4.1000000000000D-01  4.5959965373721D-01  2.5520977245879D-01
43  4.2000000000000D-01  4.2218465619055D-01  3.0847826447807D-01
44  4.3000000000000D-01  3.8498642791634D-01  3.6151651766126D-01
45  4.4000000000000D-01  3.4828463780162D-01  4.1405303881130D-01
46  4.5000000000000D-01  3.1235595487376D-01  4.6581938559102D-01
47  4.6000000000000D-01  2.7747240357185D-01  5.1655175633080D-01
48  4.7000000000000D-01  2.4389974255832D-01  5.6599255401440D-01
49  4.8000000000000D-01  2.1189587661551D-01  6.1389191507451D-01
50  4.9000000000000D-01  1.8170931101343D-01  6.6000919380603D-01
51  5.0000000000000D-01  1.5357765751998D-01  7.0411439343715D-01
52  5.1000000000000D-01  1.2772620095555D-01  7.4598953518573D-01
53  5.2000000000000D-01  1.0436653487024D-01  7.8542995696873D-01
54  5.3000000000000D-01  8.3695274545938D-02  8.2224553382482D-01
55  5.4000000000000D-01  6.5892855099681D-02  8.5626181255251D-01
56  5.5000000000000D-01  5.1122421989434D-02  8.8732105355597D-01
57  5.6000000000000D-01  3.9528820703153D-02  9.1528317342543D-01
58  5.7000000000000D-01  3.1237691848700D-02  9.4002658235566D-01
59  5.8000000000000D-01  2.6354677257491D-02  9.6144891112255D-01
60  5.9000000000000D-01  2.4964742075793D-02  9.7946762298769D-01
61  6.0000000000000D-01  2.7131617142532D-02  9.9402050658530D-01
62  6.1000000000000D-01  3.2897365250981D-02  1.0050660465552D+00
63  6.2000000000000D-01  4.2282074163269D-02  1.0125836694201D+00
64  6.3000000000000D-01  5.5283678496452D-02  1.0165738629612D+00
65  6.4000000000000D-01  7.1877911836480D-02  1.0170581681086D+00
66  6.5000000000000D-01  9.2018389655091D-02  1.0140790431492D+00
67  6.6000000000000D-01  1.1563682282186D-01  1.0076996008328D+00
68  6.7000000000000D-01  1.4264336071764D-01  9.9800321974054D-01
69  6.8000000000000D-01  1.7292706216733D-01  9.8509303206534D-01
70  6.9000000000000D-01  2.0635649163439D-01  9.6909129071788D-01
71  7.0000000000000D-01  2.4278043735391D-01  9.5013861943056D-01
72  7.1000000000000D-01  2.8202874733167D-01  9.2839315026761D-01
73  7.2000000000000D-01  3.2391327840913D-01  9.0402955366323D-01
74  7.3000000000000D-01  3.6822895289491D-01  8.7723796679209D-01
75  7.4000000000000D-01  4.1475491659256D-01  8.4822282672841D-01
76  7.5000000000000D-01  4.6325579142143D-01  8.1720161546194D-01
77  7.6000000000000D-01  5.1348301523212D-01  7.8440352441064D-01
78  7.7000000000000D-01  5.6517626086686D-01  7.5006804659605D-01
79  7.8000000000000D-01  6.1806492601226D-01  7.1444350512230D-01
80  7.9000000000000D-01  6.7186968493903D-01  6.7778552702329D-01
81  8.0000000000000D-01  7.2630409282456D-01  6.4035547190982D-01
82  8.1000000000000D-01  7.8107623301266D-01  6.0241882515680D-01
83  8.2000000000000D-01  8.3589039728269D-01  5.6424356561838D-01
84  8.3000000000000D-01  8.9044878897935D-01  5.2609851804314D-01
85  8.4000000000000D-01  9.4445323869743D-01  4.8825170048139D-01
86  8.5000000000000D-01  9.9760692212287D-01  4.5096867703054D-01
87  8.6000000000000D-01  1.0496160696047D+00  4.1451092625234D-01
88  8.7000000000000D-01  1.1001916570712D+00  3.7913423551588D-01
89  8.8000000000000D-01  1.1490510680093D+00  3.4508713137482D-01
90  8.9000000000000D-01  1.1959197163971D+00  3.1260935587459D-01
91  9.0000000000000D-01  1.2405326207148D+00  2.8193039840838D-01
92  9.1000000000000D-01  1.2826359194606D+00  2.5326809239987D-01
93  9.2000000000000D-01  1.3219883189591D+00  2.2682728568790D-01
94  9.3000000000000D-01  1.3583624646711D+00  2.0279859302688D-01
95  9.4000000000000D-01  1.3915462276936D+00  1.8135723859810D-01
96  9.5000000000000D-01  1.4213438986736D+00  1.6266199585564D-01
97  9.6000000000000D-01  1.4475772819404D+00  1.4685423140906D-01
98  9.7000000000000D-01  1.4700866832979D+00  1.3405705897972D-01
99  9.8000000000000D-01  1.4887317855952D+00  1.2437460874968D-01
100  9.9000000000000D-01  1.5033924068991D+00  1.1789141669478D-01
101  1.0000000000000D+00  1.5139691368501D+00  1.1467193769891D-01
102  1.0100000000000D+00  1.5203838475636D+00  1.1476018544658D-01
103  1.0200000000000D+00  1.5225800762335D+00  1.1817950126799D-01
104  1.0300000000000D+00  1.5205232774220D+00  1.2493245326742D-01
105  1.0400000000000D+00  1.5142009438590D+00  1.3500086620639D-01
106  1.0500000000000D+00  1.5036225954183D+00  1.4834598175830D-01
107  1.0600000000000D+00  1.4888196367530D+00  1.6490874792298D-01
108  1.0700000000000D+00  1.4698450849757D+00  1.8461023548329D-01
109  1.0800000000000D+00  1.4467731695479D+00  2.0735217860245D-01
110  1.0900000000000D+00  1.4196988073978D+00  2.3301763580675D-01
111  1.1000000000000D+00  1.3887369570626D+00  2.6147176682961D-01
112  1.1100000000000D+00  1.3540218564037D+00  2.9256272004608D-01
113  1.1200000000000D+00  1.3157061492515D+00  3.2612262443414D-01
114  1.1300000000000D+00  1.2739599069787D+00  3.6196867937523D-01
115  1.1400000000000D+00  1.2289695517150D+00  3.9990433491264D-01
116  1.1500000000000D+00  1.1809366884284D+00  4.3972055459667D-01
117  1.1600000000000D+00  1.1300768538281D+00  4.8119715235076D-01
118  1.1700000000000D+00  1.0766181904433D+00  5.2410419442439D-01
119  1.1800000000000D+00  1.0208000547100D+00  5.6820345705763D-01
120  1.1900000000000D+00  9.6287156828048D-01  6.1324993013436D-01
121  1.2000000000000D+00  9.0309012217342D-01  6.5899335675399D-01
122  1.2100000000000D+00  8.4171984357491D-01  7.0517979850398D-01
123  1.2200000000000D+00  7.7903003528930D-01  7.5155321605907D-01
124  1.2300000000000D+00  7.1529359806187D-01  7.9785705458783D-01
125  1.2400000000000D+00  6.5078544595209D-01  8.4383582354072D-01
126  1.2500000000000D+00  5.8578092496785D-01  8.8923666040386D-01
127  1.2600000000000D+00  5.2055424514700D-01  9.3381086809752D-01
128  1.2700000000000D+00  4.5537693598763D-01  9.7731541606278D-01
129  1.2800000000000D+00  3.9051633501906D-01  1.0195143952193D+00
130  1.2900000000000D+00  3.2623411909822D-01  1.0601804172576D+00
131  1.3000000000000D+00  2.6278488735351D-01  1.0990959494925D+00
132  1.3100000000000D+00  2.0041480465194D-01  1.1360545765588D+00
133  1.3200000000000D+00  1.3936031394361D-01  1.1708621808416D+00
134  1.3300000000000D+00  7.9846924808230D-02  1.2033380346713D+00
135  1.3400000000000D+00  2.2088085850401D-02  1.2333157969585D+00
136  1.3500000000000D+00 -3.3715852674372D-02  1.2606444083543D+00
137  1.3600000000000D+00 -8.7378580674611D-02  1.2851888801404D+00
138  1.3700000000000D+00 -1.3872866817898D-01  1.3068309710258D+00
139  1.3800000000000D+00 -1.8761030013288D-01  1.3254697492539D+00
140  1.3900000000000D+00 -2.3388390190537D-01  1.3410220365152D+00
141  1.4000000000000D+00 -2.7742665210297D-01  1.3534227309674D+00
142  1.4100000000000D+00 -3.1813288193511D-01  1.3626250094420D+00
143  1.4200000000000D+00 -3.5591435818282D-01  1.3686004066161D+00
144  1.4300000000000D+00 -3.9070045059335D-01  1.3713387728970D+00
145  1.4400000000000D+00 -4.2243818370740D-01  1.3708481118839D+00
146  1.4500000000000D+00 -4.5109217337360D-01  1.3671542985674D+00
147  1.4600000000000D+00 -4.7664445181395D-01  1.3603006831256D+00
148  1.4700000000000D+00 -4.9909418139729D-01  1.3503475813803D+00
149  1.4800000000000D+00 -5.1845726294958D-01  1.3373716587868D+00
150  1.4900000000000D+00 -5.3476584111111D-01  1.3214652114197D+00
151  1.5000000000000D+00 -5.4806771210656D-01  1.3027353503590D+00
152  1.5100000000000D+00 -5.5842563989898D-01  1.2813030964148D+00
153  1.5200000000000D+00 -5.6591658528303D-01  1.2573023908012D+00
154  1.5300000000000D+00 -5.7063085669797D-01  1.2308790314444D+00
155  1.5400000000000D+00 -5.7267118723585D-01  1.2021895404921D+00
156  1.5500000000000D+00 -5.7215174782945D-01  1.1713999738278D+00
157  1.5600000000000D+00 -5.6919710243393D-01  1.1386846794611D+00
158  1.5700000000000D+00 -5.6394111484428D-01  1.1042250152280D+00
159  1.5800000000000D+00 -5.5652581456197D-01  1.0682080341363D+00
160  1.5900000000000D+00 -5.4710023097042D-01  1.0308251474294D+00
161  1.6000000000000D+00 -5.3581920400218D-01  9.9227077425817D-01
162  1.6100000000000D+00 -5.2284218059705D-01  9.5274098813052D-01
163  1.6200000000000D+00 -5.0833200491300D-01  9.1243216852774D-01
164  1.6300000000000D+00 -4.9245371209241D-01  8.7153966844022D-01
165  1.6400000000000D+00 -4.7537333235763D-01  8.3025650469895D-01
166  1.6500000000000D+00 -4.5725671570060D-01  7.8877208093769D-01
167  1.6600000000000D+00 -4.3826838488160D-01  7.4727096061735D-01
168  1.6700000000000D+00 -4.1857041656276D-01  7.0593165283403D-01
169  1.6800000000000D+00 -3.9832138989449D-01  6.6492555972661D-01
170  1.6900000000000D+00 -3.7767534687578D-01  6.2441584449079D-01
171  1.7000000000000D+00 -3.5678079425436D-01  5.8455627510421D-01
172  1.7100000000000D+00 -3.3577989906069D-01  5.4549074257101D-01
173  1.7200000000000D+00 -3.1480772506789D-01  5.0735277237288D-01
174  1.7300000000000D+00 -2.9399159608623D-01  4.7026515453749D-01
175  1.7400000000000D+00 -2.7345057494924D-01  4.3433985214812D-01
176  1.7500000000000D+00 -2.5329491756291D-01  3.9967747866039D-01
177  1.7600000000000D+00 -2.3362560731874D-01  3.6636682849589D-01
178  1.7700000000000D+00 -2.1453400727035D-01  3.3448466458037D-01
179  1.7800000000000D+00 -1.9610158552162D-01  3.0409554504595D-01
180  1.7900000000000D+00 -1.7839973336160D-01  2.7525175358816D-01
181  1.8000000000000D+00 -1.6148966934770D-01  2.4799333040474D-01
182  1.8100000000000D+00 -1.4542243148734D-01  2.2234819779314D-01
183  1.8200000000000D+00 -1.3023895416352D-01  1.9833238000759D-01
184  1.8300000000000D+00 -1.1597022721433D-01  1.7595031325143D-01
185  1.8400000000000D+00 -1.0263753708405D-01  1.5519524517964D-01
186  1.8500000000000D+00 -9.0252780624349D-02  1.3604971332084D-01
187  1.8600000000000D+00 -7.8818856144351D-02  1.1848610671593D-01
188  1.8700000000000D+00 -6.8330115765319D-02  1.0246729335623D-01
189  1.8800000000000D+00 -5.8772886807213D-02  8.7947320913133D-02
190  1.8900000000000D+00 -5.0126043741046D-02  7.4872170822060D-02
191  1.9000000000000D+00 -4.2361635809989D-02  6.3180570319121D-02
192  1.9100000000000D+00 -3.5445555916006D-02  5.2804846880689D-02
193  1.9200000000000D+00 -2.9338248683725D-02  4.3671822087509D-02
194  1.9300000000000D+00 -2.3995449486615D-02  3.5703735811067D-02
195  1.9400000000000D+00 -1.9368946449124D-02  2.8819191767235D-02
196  1.9500000000000D+00 -1.5407360027946D-02  2.2934117980943D-02
197  1.9600000000000D+00 -1.2056931823382D-02  1.7962733326874D-02
198  1.9700000000000D+00 -9.2623144749401D-03  1.3818510323906D-02
199  1.9800000000000D+00 -6.9673585830324D-03  1.0415130253970D-02
200  1.9900000000000D+00 -5.1158848479903D-03  7.6674169378681D-03
201  2.0000000000000D+00 -3.6524386626080D-03  5.4922463011464D-03
202  2.0100000000000D+00 -2.5230193469476D-03  3.8094229914472D-03
203  2.0200000000000D+00 -1.6757725095914D-03  2.5425110715719D-03
204  2.0300000000000D+00 -1.0616523532211D-03  1.6196266002813D-03
205  2.0400000000000D+00 -6.3505714406692D-04  9.7418975091098D-04
206  2.0500000000000D+00 -3.5429605934970D-04  5.4550994900433D-04
207  2.0600000000000D+00 -1.8214637297333D-04  2.7944628420471D-04
208  2.0700000000000D+00 -8.6403795023345D-05  1.2905497257191D-04
209  2.0800000000000D+00 -4.0382289171680D-05  5.4953416372456D-05
210  2.0900000000000D+00 -2.3092053452994D-05  2.5863143747081D-05
211  2.1000000000000D+00 -1.8569095339551D-05  1.8144095462318D-05
212  2.1100000000000D+00 -1.6024221393463D-05  1.5771560350254D-05
213  2.1200000000000D+00 -9.8277061891939D-06  1.0002472000412D-05
214  2.1300000000000D+00 -2.4480787783964D-06  2.5743062512008D-06
215  2.1400000000000D+00  1.5446564693055D-06 -1.5495901829796D-06
216  2.1500000000000D+00  1.5595425186044D-06 -1.5814792865598D-06
217  2.1600000000000D+00 -3.1552559092553D-08  2.8710152114862D-08
218  2.1700000000000D+00 -3.5230510025886D-07  3.1881255814674D-07
219  2.1800000000000D+00 -1.9530812740689D-07  1.7595081042410D-07
220  2.1900000000000D+00  2.7920606429339D-08 -2.7384363543890D-08
221  2.2000000000000D+00  4.5706782070919D-08 -4.4828938075505D-08
222  2.2100000000000D+00  8.3578579169223D-09 -8.1973369820747D-09
223  2.2200000000000D+00  0.0000000000000D+00  0.0000000000000D+00
224  2.2300000000000D+00  0.0000000000000D+00  0.0000000000000D+00
225  2.2400000000000D+00  0.0000000000000D+00  0.0000000000000D+00
226  2.2500000000000D+00  0.0000000000000D+00  0.0000000000000D+00
227  2.2600000000000D+00  0.0000000000000D+00  0.0000000000000D+00
228  2.2700000000000D+00  0.0000000000000D+00  0.0000000000000D+00
229  2.2800000000000D+00  0.0000000000000D+00  0.0000000000000D+00
230  2.2900000000000D+00  0.0000000000000D+00  0.0000000000000D+00
231  2.3000000000000D+00  0.0000000000000D+00  0.0000000000000D+00
232  2.3100000000000D+00  0.0000000000000D+00  0.0000000000000D+00
233  2.3200000000000D+00  0.0000000000000D+00  0.0000000000000D+00
234  2.3300000000000D+00  0.0000000000000D+00  0.0000000000000D+00
235  2.3400000000000D+00  0.0000000000000D+00  0.0000000000000D+00
236  2.3500000000000D+00  0.0000000000000D+00  0.0000000000000D+00
237  2.3600000000000D+00  0.0000000000000D+00  0.0000000000000D+00
238  2.3700000000000D+00  0.0000000000000D+00  0.0000000000000D+00
239  2.3800000000000D+00  0.0000000000000D+00  0.0000000000000D+00
240  2.3900000000000D+00  0.0000000000000D+00  0.0000000000000D+00
241  2.4000000000000D+00  0.0000000000000D+00  0.0000000000000D+00
242  2.4100000000000D+00  0.0000000000000D+00  0.0000000000000D+00
243  2.4200000000000D+00  0.0000000000000D+00  0.0000000000000D+00
244  2.4300000000000D+00  0.0000000000000D+00  0.0000000000000D+00
245  2.4400000000000D+00  0.0000000000000D+00  0.0000000000000D+00
246  2.4500000000000D+00  0.0000000000000D+00  0.0000000000000D+00
247  2.4600000000000D+00  0.0000000000000D+00  0.0000000000000D+00
248  2.4700000000000D+00  0.0000000000000D+00  0.0000000000000D+00
249  2.4800000000000D+00  0.0000000000000D+00  0.0000000000000D+00
250  2.4900000000000D+00  0.0000000000000D+00  0.0000000000000D+00
251  2.5000000000000D+00  0.0000000000000D+00  0.0000000000000D+00
252  2.5100000000000D+00  0.0000000000000D+00  0.0000000000000D+00
253  2.5200000000000D+00  0.0000000000000D+00  0.0000000000000D+00
254  2.5300000000000D+00  0.0000000000000D+00  0.0000000000000D+00
255  2.5400000000000D+00  0.0000000000000D+00  0.0000000000000D+00
256  2.5500000000000D+00  0.0000000000000D+00  0.0000000000000D+00
257  2.5600000000000D+00  0.0000000000000D+00  0.0000000000000D+00
258  2.5700000000000D+00  0.0000000000000D+00  0.0000000000000D+00
259  2.5800000000000D+00  0.0000000000000D+00  0.0000000000000D+00
260  2.5900000000000D+00  0.0000000000000D+00  0.0000000000000D+00
261  2.6000000000000D+00  0.0000000000000D+00  0.0000000000000D+00
262  2.6100000000000D+00  0.0000000000000D+00  0.0000000000000D+00
263  2.6200000000000D+00  0.0000000000000D+00  0.0000000000000D+00
264  2.6300000000000D+00  0.0000000000000D+00  0.0000000000000D+00
265  2.6400000000000D+00  0.0000000000000D+00  0.0000000000000D+00
266  2.6500000000000D+00  0.0000000000000D+00  0.0000000000000D+00
267  2.6600000000000D+00  0.0000000000000D+00  0.0000000000000D+00
268  2.6700000000000D+00  0.0000000000000D+00  0.0000000000000D+00
269  2.6800000000000D+00  0.0000000000000D+00  0.0000000000000D+00
270  2.6900000000000D+00  0.0000000000000D+00  0.0000000000000D+00
271  2.7000000000000D+00  0.0000000000000D+00  0.0000000000000D+00
272  2.7100000000000D+00  0.0000000000000D+00  0.0000000000000D+00
273  2.7200000000000D+00  0.0000000000000D+00  0.0000000000000D+00
274  2.7300000000000D+00  0.0000000000000D+00  0.0000000000000D+00
275  2.7400000000000D+00  0.0000000000000D+00  0.0000000000000D+00
276  2.7500000000000D+00  0.0000000000000D+00  0.0000000000000D+00
277  2.7600000000000D+00  0.0000000000000D+00  0.0000000000000D+00
278  2.7700000000000D+00  0.0000000000000D+00  0.0000000000000D+00
279  2.7800000000000D+00  0.0000000000000D+00  0.0000000000000D+00
280  2.7900000000000D+00  0.0000000000000D+00  0.0000000000000D+00
281  2.8000000000000D+00  0.0000000000000D+00  0.0000000000000D+00
282  2.8100000000000D+00  0.0000000000000D+00  0.0000000000000D+00
283  2.8200000000000D+00  0.0000000000000D+00  0.0000000000000D+00
284  2.8300000000000D+00  0.0000000000000D+00  0.0000000000000D+00
285  2.8400000000000D+00  0.0000000000000D+00  0.0000000000000D+00
286  2.8500000000000D+00  0.0000000000000D+00  0.0000000000000D+00
287  2.8600000000000D+00  0.0000000000000D+00  0.0000000000000D+00
288  2.8700000000000D+00  0.0000000000000D+00  0.0000000000000D+00
289  2.8800000000000D+00  0.0000000000000D+00  0.0000000000000D+00
290  2.8900000000000D+00  0.0000000000000D+00  0.0000000000000D+00
291  2.9000000000000D+00  0.0000000000000D+00  0.0000000000000D+00
292  2.9100000000000D+00  0.0000000000000D+00  0.0000000000000D+00
293  2.9200000000000D+00  0.0000000000000D+00  0.0000000000000D+00
294  2.9300000000000D+00  0.0000000000000D+00  0.0000000000000D+00
295  2.9400000000000D+00  0.0000000000000D+00  0.0000000000000D+00
296  2.9500000000000D+00  0.0000000000000D+00  0.0000000000000D+00
297  2.9600000000000D+00  0.0000000000000D+00  0.0000000000000D+00
298  2.9700000000000D+00  0.0000000000000D+00  0.0000000000000D+00
299  2.9800000000000D+00  0.0000000000000D+00  0.0000000000000D+00
300  2.9900000000000D+00  0.0000000000000D+00  0.0000000000000D+00
301  3.0000000000000D+00  0.0000000000000D+00  0.0000000000000D+00
302  3.0100000000000D+00  0.0000000000000D+00  0.0000000000000D+00
303  3.0200000000000D+00  0.0000000000000D+00  0.0000000000000D+00
304  3.0300000000000D+00  0.0000000000000D+00  0.0000000000000D+00
305  3.0400000000000D+00  0.0000000000000D+00  0.0000000000000D+00
306  3.0500000000000D+00  0.0000000000000D+00  0.0000000000000D+00
307  3.0600000000000D+00  0.0000000000000D+00  0.0000000000000D+00
308  3.0700000000000D+00  0.0000000000000D+00  0.0000000000000D+00
309  3.0800000000000D+00  0.0000000000000D+00  0.0000000000000D+00
310  3.0900000000000D+00  0.0000000000000D+00  0.0000000000000D+00
311  3.1000000000000D+00  0.0000000000000D+00  0.0000000000000D+00
312  3.1100000000000D+00  0.0000000000000D+00  0.0000000000000D+00
313  3.1200000000000D+00  0.0000000000000D+00  0.0000000000000D+00
314  3.1300000000000D+00  0.0000000000000D+00  0.0000000000000D+00
315  3.1400000000000D+00  0.0000000000000D+00  0.0000000000000D+00
316  3.1500000000000D+00  0.0000000000000D+00  0.0000000000000D+00
317  3.1600000000000D+00  0.0000000000000D+00  0.0000000000000D+00
318  3.1700000000000D+00  0.0000000000000D+00  0.0000000000000D+00
319  3.1800000000000D+00  0.0000000000000D+00  0.0000000000000D+00
320  3.1900000000000D+00  0.0000000000000D+00  0.0000000000000D+00
321  3.2000000000000D+00  0.0000000000000D+00  0.0000000000000D+00
322  3.2100000000000D+00  0.0000000000000D+00  0.0000000000000D+00
323  3.2200000000000D+00  0.0000000000000D+00  0.0000000000000D+00
324  3.2300000000000D+00  0.0000000000000D+00  0.0000000000000D+00
325  3.2400000000000D+00  0.0000000000000D+00  0.0000000000000D+00
326  3.2500000000000D+00  0.0000000000000D+00  0.0000000000000D+00
327  3.2600000000000D+00  0.0000000000000D+00  0.0000000000000D+00
328  3.2700000000000D+00  0.0000000000000D+00  0.0000000000000D+00
329  3.2800000000000D+00  0.0000000000000D+00  0.0000000000000D+00
330  3.2900000000000D+00  0.0000000000000D+00  0.0000000000000D+00
331  3.3000000000000D+00  0.0000000000000D+00  0.0000000000000D+00
332  3.3100000000000D+00  0.0000000000000D+00  0.0000000000000D+00
333  3.3200000000000D+00  0.0000000000000D+00  0.0000000000000D+00
334  3.3300000000000D+00  0.0000000000000D+00  0.0000000000000D+00
335  3.3400000000000D+00  0.0000000000000D+00  0.0000000000000D+00
336  3.3500000000000D+00  0.0000000000000D+00  0.0000000000000D+00
337  3.3600000000000D+00  0.0000000000000D+00  0.0000000000000D+00
338  3.3700000000000D+00  0.0000000000000D+00  0.0000000000000D+00
339  3.3800000000000D+00  0.0000000000000D+00  0.0000000000000D+00
340  3.3900000000000D+00  0.0000000000000D+00  0.0000000000000D+00
341  3.4000000000000D+00  0.0000000000000D+00  0.0000000000000D+00
342  3.4100000000000D+00  0.0000000000000D+00  0.0000000000000D+00
343  3.4200000000000D+00  0.0000000000000D+00  0.0000000000000D+00
344  3.4300000000000D+00  0.0000000000000D+00  0.0000000000000D+00
345  3.4400000000000D+00  0.0000000000000D+00  0.0000000000000D+00
346  3.4500000000000D+00  0.0000000000000D+00  0.0000000000000D+00
347  3.4600000000000D+00  0.0000000000000D+00  0.0000000000000D+00
348  3.4700000000000D+00  0.0000000000000D+00  0.0000000000000D+00
349  3.4800000000000D+00  0.0000000000000D+00  0.0000000000000D+00
350  3.4900000000000D+00  0.0000000000000D+00  0.0000000000000D+00
351  3.5000000000000D+00  0.0000000000000D+00  0.0000000000000D+00
352  3.5100000000000D+00  0.0000000000000D+00  0.0000000000000D+00
353  3.5200000000000D+00  0.0000000000000D+00  0.0000000000000D+00
354  3.5300000000000D+00  0.0000000000000D+00  0.0000000000000D+00
355  3.5400000000000D+00  0.0000000000000D+00  0.0000000000000D+00
356  3.5500000000000D+00  0.0000000000000D+00  0.0000000000000D+00
357  3.5600000000000D+00  0.0000000000000D+00  0.0000000000000D+00
358  3.5700000000000D+00  0.0000000000000D+00  0.0000000000000D+00
359  3.5800000000000D+00  0.0000000000000D+00  0.0000000000000D+00
360  3.5900000000000D+00  0.0000000000000D+00  0.0000000000000D+00
361  3.6000000000000D+00  0.0000000000000D+00  0.0000000000000D+00
362  3.6100000000000D+00  0.0000000000000D+00  0.0000000000000D+00
363  3.6200000000000D+00  0.0000000000000D+00  0.0000000000000D+00
364  3.6300000000000D+00  0.0000000000000D+00  0.0000000000000D+00
365  3.6400000000000D+00  0.0000000000000D+00  0.0000000000000D+00
366  3.6500000000000D+00  0.0000000000000D+00  0.0000000000000D+00
367  3.6600000000000D+00  0.0000000000000D+00  0.0000000000000D+00
368  3.6700000000000D+00  0.0000000000000D+00  0.0000000000000D+00
369  3.6800000000000D+00  0.0000000000000D+00  0.0000000000000D+00
370  3.6900000000000D+00  0.0000000000000D+00  0.0000000000000D+00
371  3.7000000000000D+00  0.0000000000000D+00  0.0000000000000D+00
372  3.7100000000000D+00  0.0000000000000D+00  0.0000000000000D+00
373  3.7200000000000D+00  0.0000000000000D+00  0.0000000000000D+00
374  3.7300000000000D+00  0.0000000000000D+00  0.0000000000000D+00
375  3.7400000000000D+00  0.0000000000000D+00  0.0000000000000D+00
376  3.7500000000000D+00  0.0000000000000D+00  0.0000000000000D+00
377  3.7600000000000D+00  0.0000000000000D+00  0.0000000000000D+00
378  3.7700000000000D+00  0.0000000000000D+00  0.0000000000000D+00
379  3.7800000000000D+00  0.0000000000000D+00  0.0000000000000D+00
380  3.7900000000000D+00  0.0000000000000D+00  0.0000000000000D+00
381  3.8000000000000D+00  0.0000000000000D+00  0.0000000000000D+00
382  3.8100000000000D+00  0.0000000000000D+00  0.0000000000000D+00
383  3.8200000000000D+00  0.0000000000000D+00  0.0000000000000D+00
384  3.8300000000000D+00  0.0000000000000D+00  0.0000000000000D+00
385  3.8400000000000D+00  0.0000000000000D+00  0.0000000000000D+00
386  3.8500000000000D+00  0.0000000000000D+00  0.0000000000000D+00
387  3.8600000000000D+00  0.0000000000000D+00  0.0000000000000D+00
388  3.8700000000000D+00  0.0000000000000D+00  0.0000000000000D+00
389  3.8800000000000D+00  0.0000000000000D+00  0.0000000000000D+00
390  3.8900000000000D+00  0.0000000000000D+00  0.0000000000000D+00
391  3.9000000000000D+00  0.0000000000000D+00  0.0000000000000D+00
392  3.9100000000000D+00  0.0000000000000D+00  0.0000000000000D+00
393  3.9200000000000D+00  0.0000000000000D+00  0.0000000000000D+00
394  3.9300000000000D+00  0.0000000000000D+00  0.0000000000000D+00
395  3.9400000000000D+00  0.0000000000000D+00  0.0000000000000D+00
396  3.9500000000000D+00  0.0000000000000D+00  0.0000000000000D+00
397  3.9600000000000D+00  0.0000000000000D+00  0.0000000000000D+00
398  3.9700000000000D+00  0.0000000000000D+00  0.0000000000000D+00
399  3.9800000000000D+00  0.0000000000000D+00  0.0000000000000D+00
400  3.9900000000000D+00  0.0000000000000D+00  0.0000000000000D+00
401  4.0000000000000D+00  0.0000000000000D+00  0.0000000000000D+00
402  4.0100000000000D+00  0.0000000000000D+00  0.0000000000000D+00
403  4.0200000000000D+00  0.0000000000000D+00  0.0000000000000D+00
404  4.0300000000000D+00  0.0000000000000D+00  0.0000000000000D+00
405  4.0400000000000D+00  0.0000000000000D+00  0.0000000000000D+00
406  4.0500000000000D+00  0.0000000000000D+00  0.0000000000000D+00
407  4.0600000000000D+00  0.0000000000000D+00  0.0000000000000D+00
408  4.0700000000000D+00  0.0000000000000D+00  0.0000000000000D+00
409  4.0800000000000D+00  0.0000000000000D+00  0.0000000000000D+00
410  4.0900000000000D+00  0.0000000000000D+00  0.0000000000000D+00
411  4.1000000000000D+00  0.0000000000000D+00  0.0000000000000D+00
412  4.1100000000000D+00  0.0000000000000D+00  0.0000000000000D+00
413  4.1200000000000D+00  0.0000000000000D+00  0.0000000000000D+00
414  4.1300000000000D+00  0.0000000000000D+00  0.0000000000000D+00
415  4.1400000000000D+00  0.0000000000000D+00  0.0000000000000D+00
416  4.1500000000000D+00  0.0000000000000D+00  0.0000000000000D+00
417  4.1600000000000D+00  0.0000000000000D+00  0.0000000000000D+00
418  4.1700000000000D+00  0.0000000000000D+00  0.0000000000000D+00
419  4.1800000000000D+00  0.0000000000000D+00  0.0000000000000D+00
420  4.1900000000000D+00  0.0000000000000D+00  0.0000000000000D+00
421  4.2000000000000D+00  0.0000000000000D+00  0.0000000000000D+00
422  4.2100000000000D+00  0.0000000000000D+00  0.0000000000000D+00
423  4.2200000000000D+00  0.0000000000000D+00  0.0000000000000D+00
424  4.2300000000000D+00  0.0000000000000D+00  0.0000000000000D+00
425  4.2400000000000D+00  0.0000000000000D+00  0.0000000000000D+00
426  4.2500000000000D+00  0.0000000000000D+00  0.0000000000000D+00
427  4.2600000000000D+00  0.0000000000000D+00  0.0000000000000D+00
428  4.2700000000000D+00  0.0000000000000D+00  0.0000000000000D+00
429  4.2800000000000D+00  0.0000000000000D+00  0.0000000000000D+00
430  4.2900000000000D+00  0.0000000000000D+00  0.0000000000000D+00
431  4.3000000000000D+00  0.0000000000000D+00  0.0000000000000D+00
432  4.3100000000000D+00  0.0000000000000D+00  0.0000000000000D+00
433  4.3200000000000D+00  0.0000000000000D+00  0.0000000000000D+00
434  4.3300000000000D+00  0.0000000000000D+00  0.0000000000000D+00
435  4.3400000000000D+00  0.0000000000000D+00  0.0000000000000D+00
436  4.3500000000000D+00  0.0000000000000D+00  0.0000000000000D+00
437  4.3600000000000D+00  0.0000000000000D+00  0.0000000000000D+00
438  4.3700000000000D+00  0.0000000000000D+00  0.0000000000000D+00
439  4.3800000000000D+00  0.0000000000000D+00  0.0000000000000D+00
440  4.3900000000000D+00  0.0000000000000D+00  0.0000000000000D+00
441  4.4000000000000D+00  0.0000000000000D+00  0.0000000000000D+00
442  4.4100000000000D+00  0.0000000000000D+00  0.0000000000000D+00
443  4.4200000000000D+00  0.0000000000000D+00  0.0000000000000D+00