Sb    ONCVPSP-3.3.0  r_core=   1.90855   2.12485   1.81962
51.0000     15.0000      171103    zatom,zion,pspd
8   -1012   2     4   600     0    pspcod,pspxc,lmax,lloc,mmax,r2well
5.99000000  5.00000000  0.00000000    rchrg fchrg qchrg
2     2     2     0     0    nproj
1     1           extension_switch
0                         7.7907068088607D+00  1.0443563411193D+00
1  0.0000000000000D+00 -3.7949532405435D-11  6.6243011076494D-11
2  1.0000000000000D-02  3.6912402703130D-02 -4.5545022685583D-02
3  2.0000000000000D-02  7.3719405964100D-02 -9.0883199243372D-02
4  3.0000000000000D-02  1.1031613103851D-01 -1.3580865877901D-01
5  4.0000000000000D-02  1.4659873811886D-01 -1.8011747644315D-01
6  5.0000000000000D-02  1.8246493966591D-01 -2.2360863541579D-01
7  6.0000000000000D-02  2.1781450640228D-01 -2.6608497569150D-01
8  7.0000000000000D-02  2.5254976356672D-01 -3.0735412534300D-01
9  8.0000000000000D-02  2.8657607506537D-01 -3.4722941000726D-01
10  9.0000000000000D-02  3.1980231320383D-01 -3.8553073642040D-01
11  1.0000000000000D-01  3.5214131174032D-01 -4.2208544592687D-01
12  1.1000000000000D-01  3.8351030006578D-01 -4.5672913400292D-01
13  1.2000000000000D-01  4.1383131639194D-01 -4.8930643196533D-01
14  1.3000000000000D-01  4.4303159791156D-01 -5.1967174718249D-01
15  1.4000000000000D-01  4.7104394598770D-01 -5.4768995826663D-01
16  1.5000000000000D-01  4.9780706452962D-01 -5.7323706190277D-01
17  1.6000000000000D-01  5.2326586982205D-01 -5.9620076816106D-01
18  1.7000000000000D-01  5.4737177019167D-01 -6.1648104134487D-01
19  1.8000000000000D-01  5.7008291401959D-01 -6.3399058364626D-01
20  1.9000000000000D-01  5.9136440474080D-01 -6.4865525911301D-01
21  2.0000000000000D-01  6.1118848161110D-01 -6.6041445567665D-01
22  2.1000000000000D-01  6.2953466516783D-01 -6.6922138324813D-01
23  2.2000000000000D-01  6.4638986646330D-01 -6.7504330615639D-01
24  2.3000000000000D-01  6.6174845930763D-01 -6.7786170848446D-01
25  2.4000000000000D-01  6.7561231492147D-01 -6.7767239114610D-01
26  2.5000000000000D-01  6.8799079856702D-01 -6.7448549984445D-01
27  2.6000000000000D-01  6.9890072789851D-01 -6.6832548335903D-01
28  2.7000000000000D-01  7.0836629294898D-01 -6.5923098192044D-01
29  2.8000000000000D-01  7.1641893784971D-01 -6.4725464574991D-01
30  2.9000000000000D-01  7.2309720455962D-01 -6.3246288416349D-01
31  3.0000000000000D-01  7.2844653906503D-01 -6.1493554596698D-01
32  3.1000000000000D-01  7.3251906069387D-01 -5.9476553219525D-01
33  3.2000000000000D-01  7.3537329537242D-01 -5.7205834257834D-01
34  3.3000000000000D-01  7.3707387383524D-01 -5.4693155744438D-01
35  3.4000000000000D-01  7.3769119598098D-01 -5.1951425709498D-01
36  3.5000000000000D-01  7.3730106274520D-01 -4.8994638100998D-01
37  3.6000000000000D-01  7.3598427703719D-01 -4.5837802955496D-01
38  3.7000000000000D-01  7.3382621545924D-01 -4.2496871117392D-01
39  3.8000000000000D-01  7.3091637269255D-01 -3.8988653834992D-01
40  3.9000000000000D-01  7.2734788059472D-01 -3.5330737590706D-01
41  4.0000000000000D-01  7.2321700420618D-01 -3.1541394550485D-01
42  4.1000000000000D-01  7.1862261700847D-01 -2.7639489044122D-01
43  4.2000000000000D-01  7.1366565791346D-01 -2.3644380512905D-01
44  4.3000000000000D-01  7.0844857258894D-01 -1.9575823384419D-01
45  4.4000000000000D-01  7.0307474184222D-01 -1.5453864355616D-01
46  4.5000000000000D-01  6.9764789988738D-01 -1.1298737584677D-01
47  4.6000000000000D-01  6.9227154541414D-01 -7.1307583094019D-02
48  4.7000000000000D-01  6.8704834845520D-01 -2.9702154247707D-02
49  4.8000000000000D-01  6.8207955611393D-01  1.1627364352147D-02
50  4.9000000000000D-01  6.7746440026497D-01  5.2481847563823D-02
51  5.0000000000000D-01  6.7329951037573D-01  9.2665663817052D-02
52  5.1000000000000D-01  6.6967833461653D-01  1.3198773560400D-01
53  5.2000000000000D-01  6.6669057243040D-01  1.7026258240596D-01
54  5.3000000000000D-01  6.6442162172089D-01  2.0731134038764D-01
55  5.4000000000000D-01  6.6295204378573D-01  2.4296275323533D-01
56  5.5000000000000D-01  6.6235704907726D-01  2.7705412859028D-01
57  5.6000000000000D-01  6.6270600680577D-01  3.0943225463513D-01
58  5.7000000000000D-01  6.6406198132002D-01  3.3995427152788D-01
59  5.8000000000000D-01  6.6648129809967D-01  3.6848849254758D-01
60  5.9000000000000D-01  6.7001314207807D-01  3.9491517001442D-01
61  6.0000000000000D-01  6.7469919088011D-01  4.1912720127778D-01
62  6.1000000000000D-01  6.8057328540987D-01  4.4103077032541D-01
63  6.2000000000000D-01  6.8766114005642D-01  4.6054592085679D-01
64  6.3000000000000D-01  6.9598009460482D-01  4.7760705698018D-01
65  6.4000000000000D-01  7.0553890974218D-01  4.9216336803841D-01
66  6.5000000000000D-01  7.1633760783826D-01  5.0417917443799D-01
67  6.6000000000000D-01  7.2836736045683D-01  5.1363419174915D-01
68  6.7000000000000D-01  7.4161042381712D-01  5.2052371076263D-01
69  6.8000000000000D-01  7.5604012317822D-01  5.2485869162420D-01
70  6.9000000000000D-01  7.7162088686320D-01  5.2666577062189D-01
71  7.0000000000000D-01  7.8830833037321D-01  5.2598717867317D-01
72  7.1000000000000D-01  8.0604939077018D-01  5.2288057104176D-01
73  7.2000000000000D-01  8.2478251122819D-01  5.1741876830917D-01
74  7.3000000000000D-01  8.4443787537166D-01  5.0968940912824D-01
75  7.4000000000000D-01  8.6493769073338D-01  4.9979451579373D-01
76  7.5000000000000D-01  8.8619652037915D-01  4.8784997417664D-01
77  7.6000000000000D-01  9.0812166146112D-01  4.7398493007695D-01
78  7.7000000000000D-01  9.3061356917901D-01  4.5834110455598D-01
79  7.8000000000000D-01  9.5356632434974D-01  4.4107203130840D-01
80  7.9000000000000D-01  9.7686814251341D-01  4.2234221962253D-01
81  8.0000000000000D-01  1.0004019222384D+00  4.0232624695371D-01
82  8.1000000000000D-01  1.0240458300329D+00  3.8120778559348D-01
83  8.2000000000000D-01  1.0476739190265D+00  3.5917856835889D-01
84  8.3000000000000D-01  1.0711567783508D+00  3.3643729864231D-01
85  8.4000000000000D-01  1.0943622099349D+00  3.1318851055438D-01
86  8.5000000000000D-01  1.1171559292277D+00  2.8964138525651D-01
87  8.6000000000000D-01  1.1394022861741D+00  2.6600852991184D-01
88  8.7000000000000D-01  1.1609650026107D+00  2.4250472598258D-01
89  8.8000000000000D-01  1.1817079220986D+00  2.1934565386473D-01
90  8.9000000000000D-01  1.2014957680897D+00  1.9674660107606D-01
91  9.0000000000000D-01  1.2201949062202D+00  1.7492116139771D-01
92  9.1000000000000D-01  1.2376741064509D+00  1.5407993251225D-01
93  9.2000000000000D-01  1.2538053007173D+00  1.3442921978012D-01
94  9.3000000000000D-01  1.2684643317282D+00  1.1616975385002D-01
95  9.4000000000000D-01  1.2815316885472D+00  9.9495429807451D-02
96  9.5000000000000D-01  1.2928932246168D+00  8.4592075526156D-02
97  9.6000000000000D-01  1.3024408539342D+00  7.1636256801939D-02
98  9.7000000000000D-01  1.3100732211659D+00  6.0794126714805D-02
99  9.8000000000000D-01  1.3156963415898D+00  5.2220326484947D-02
100  9.9000000000000D-01  1.3192242068832D+00  4.6056944861031D-02
101  1.0000000000000D+00  1.3205793529298D+00  4.2432542806162D-02
102  1.0100000000000D+00  1.3196933860020D+00  4.1461249922345D-02
103  1.0200000000000D+00  1.3165074638676D+00  4.3241938710866D-02
104  1.0300000000000D+00  1.3109727286119D+00  4.7857482337187D-02
105  1.0400000000000D+00  1.3030506882063D+00  5.5374101143091D-02
106  1.0500000000000D+00  1.2927135441248D+00  6.5840802663049D-02
107  1.0600000000000D+00  1.2799444626091D+00  7.9288919374407D-02
108  1.0700000000000D+00  1.2647377874783D+00  9.5731747878664D-02
109  1.0800000000000D+00  1.2470991927040D+00  1.1516429263521D-01
110  1.0900000000000D+00  1.2270457733260D+00  1.3756311673577D-01
111  1.1000000000000D+00  1.2046060736108D+00  1.6288630161920D-01
112  1.1100000000000D+00  1.1798200517567D+00  1.9107351691875D-01
113  1.1200000000000D+00  1.1527389807471D+00  2.2204620109020D-01
114  1.1300000000000D+00  1.1234252854075D+00  2.5570785266634D-01
115  1.1400000000000D+00  1.0919523160529D+00  2.9194443138895D-01
116  1.1500000000000D+00  1.0584040595358D+00  3.3062486771065D-01
117  1.1600000000000D+00  1.0228747888033D+00  3.7160167862922D-01
118  1.1700000000000D+00  9.8546865253964D-01  4.1471168697775D-01
119  1.1800000000000D+00  9.4629920679401D-01  4.5977684071807D-01
120  1.1900000000000D+00  9.0548889089982D-01  5.0660512805982D-01
121  1.2000000000000D+00  8.6316845021500D-01  5.5499158382502D-01
122  1.2100000000000D+00  8.1947630873684D-01  6.0471938154696D-01
123  1.2200000000000D+00  7.7455789487018D-01  6.5556100538836D-01
124  1.2300000000000D+00  7.2856492388126D-01  7.0727949551239D-01
125  1.2400000000000D+00  6.8165464095714D-01  7.5962975984970D-01
126  1.2500000000000D+00  6.3398902904582D-01  8.1235994475114D-01
127  1.2600000000000D+00  5.8573398581452D-01  8.6521285672816D-01
128  1.2700000000000D+00  5.3705847433602D-01  9.1792742699861D-01
129  1.2800000000000D+00  4.8813365235529D-01  9.7024021012847D-01
130  1.2900000000000D+00  4.3913198503627D-01  1.0218869079781D+00
131  1.3000000000000D+00  3.9022634629973D-01  1.0726039097870D+00
132  1.3100000000000D+00  3.4158911398396D-01  1.1221298390277D+00
133  1.3200000000000D+00  2.9339126404272D-01  1.1702070976889D+00
134  1.3300000000000D+00  2.4580146914863D-01  1.2165833983820D+00
135  1.3400000000000D+00  1.9898520697142D-01  1.2610132748567D+00
136  1.3500000000000D+00  1.5310388345838D-01  1.3032595614025D+00
137  1.3600000000000D+00  1.0831397638802D-01  1.3430948317314D+00
138  1.3700000000000D+00  6.4766204199976D-02  1.3803027884309D+00
139  1.3800000000000D+00  2.2604725385815D-02  1.4146795935588D+00
140  1.3900000000000D+00 -1.8033626938712D-02  1.4460351321826D+00
141  1.4000000000000D+00 -5.7020070482223D-02  1.4741942003331D+00
142  1.4100000000000D+00 -9.4234554588425D-02  1.4989976091055D+00
143  1.4200000000000D+00 -1.2956639266950D-01  1.5203031983215D+00
144  1.4300000000000D+00 -1.6291484156459D-01  1.5379867514152D+00
145  1.4400000000000D+00 -1.9418962482380D-01  1.5519428063087D+00
146  1.4500000000000D+00 -2.2331139621207D-01  1.5620853557532D+00
147  1.4600000000000D+00 -2.5021214020563D-01  1.5683484314864D+00
148  1.4700000000000D+00 -2.7483550762319D-01  1.5706865690468D+00
149  1.4800000000000D+00 -2.9713708277212D-01  1.5690751468843D+00
150  1.4900000000000D+00 -3.1708458174652D-01  1.5635105993252D+00
151  1.5000000000000D+00 -3.3465797897756D-01  1.5540104983388D+00
152  1.5100000000000D+00 -3.4984956189017D-01  1.5406135040585D+00
153  1.5200000000000D+00 -3.6266391267829D-01  1.5233791824729D+00
154  1.5300000000000D+00 -3.7311781652651D-01  1.5023876892861D+00
155  1.5400000000000D+00 -3.8124009762970D-01  1.4777393225978D+00
156  1.5500000000000D+00 -3.8707138169680D-01  1.4495539422445D+00
157  1.5600000000000D+00 -3.9066378841116D-01  1.4179702615048D+00
158  1.5700000000000D+00 -3.9208055261460D-01  1.3831450118195D+00
159  1.5800000000000D+00 -3.9139557812850D-01  1.3452519820161D+00
160  1.5900000000000D+00 -3.8869292681750D-01  1.3044809522477D+00
161  1.6000000000000D+00 -3.8406624935674D-01  1.2610365785589D+00
162  1.6100000000000D+00 -3.7761812228238D-01  1.2151367804550D+00
163  1.6200000000000D+00 -3.6945938019203D-01  1.1670116039831D+00
164  1.6300000000000D+00 -3.5970843989851D-01  1.1169026907903D+00
165  1.6400000000000D+00 -3.4849060072817D-01  1.0650625112926D+00
166  1.6500000000000D+00 -3.3593736308254D-01  1.0117538856374D+00
167  1.6600000000000D+00 -3.2218566448498D-01  9.5724882833093D-01
168  1.6700000000000D+00 -3.0737705452931D-01  9.0182676532622D-01
169  1.6800000000000D+00 -2.9165686506891D-01  8.4577303909577D-01
170  1.6900000000000D+00 -2.7517335720397D-01  7.8937737263702D-01
171  1.7000000000000D+00 -2.5807685077604D-01  7.3293225197927D-01
172  1.7100000000000D+00 -2.4051884411981D-01  6.7673131513716D-01
173  1.7200000000000D+00 -2.2265112737315D-01  6.2106772190247D-01
174  1.7300000000000D+00 -2.0462489478977D-01  5.6623252479256D-01
175  1.7400000000000D+00 -1.8658986127409D-01  5.1251304867926D-01
176  1.7500000000000D+00 -1.6869338763314D-01  4.6019128724194D-01
177  1.7600000000000D+00 -1.5107961991948D-01  4.0954232597839D-01
178  1.7700000000000D+00 -1.3388864728835D-01  3.6083279978821D-01
179  1.7800000000000D+00 -1.1725568325710D-01  3.1431939398140D-01
180  1.7900000000000D+00 -1.0131027515661D-01  2.7024739739022D-01
181  1.8000000000000D+00 -8.6175545377283D-02  2.2884931411114D-01
182  1.8100000000000D+00 -7.1967470315881D-02  1.9034354457414D-01
183  1.8200000000000D+00 -5.8794198246621D-02  1.5493313816332D-01
184  1.8300000000000D+00 -4.6755414170714D-02  1.2280463197028D-01
185  1.8400000000000D+00 -3.5941749264065D-02  9.4126971386608D-02
186  1.8500000000000D+00 -2.6442154647004D-02  6.9071024141527D-02
187  1.8600000000000D+00 -1.8308723356558D-02  4.7718804562695D-02
188  1.8700000000000D+00 -1.1572104171917D-02  3.0103853218144D-02
189  1.8800000000000D+00 -6.3595062176214D-03  1.6516806032131D-02
190  1.8900000000000D+00 -2.8013950597852D-03  7.2641657551424D-03
191  1.9000000000000D+00 -7.9683286675954D-04  2.0612804964131D-03
192  1.9100000000000D+00  4.5359822538853D-05 -1.2023004852220D-04
193  1.9200000000000D+00  1.7957046134308D-04 -4.6601881631453D-04
194  1.9300000000000D+00  2.5535448300651D-05 -6.6165306965028D-05
195  1.9400000000000D+00 -5.8508295471811D-05  1.5180092213773D-04
196  1.9500000000000D+00 -3.1720530019029D-05  8.2266198766032D-05
197  1.9600000000000D+00  7.7868598921875D-06 -2.0266284380581D-05
198  1.9700000000000D+00  9.2425693977661D-06 -2.4051169098073D-05
199  1.9800000000000D+00  1.8864759592941D-08 -4.6403683925908D-08
200  1.9900000000000D+00  6.4064903860769D-08 -1.5758735407427D-07
201  2.0000000000000D+00  1.4450021111138D-08 -3.5544275508015D-08
202  2.0100000000000D+00  0.0000000000000D+00  0.0000000000000D+00
203  2.0200000000000D+00  0.0000000000000D+00  0.0000000000000D+00
204  2.0300000000000D+00  0.0000000000000D+00  0.0000000000000D+00
205  2.0400000000000D+00  0.0000000000000D+00  0.0000000000000D+00
206  2.0500000000000D+00  0.0000000000000D+00  0.0000000000000D+00
207  2.0600000000000D+00  0.0000000000000D+00  0.0000000000000D+00
208  2.0700000000000D+00  0.0000000000000D+00  0.0000000000000D+00
209  2.0800000000000D+00  0.0000000000000D+00  0.0000000000000D+00
210  2.0900000000000D+00  0.0000000000000D+00  0.0000000000000D+00
211  2.1000000000000D+00  0.0000000000000D+00  0.0000000000000D+00
212  2.1100000000000D+00  0.0000000000000D+00  0.0000000000000D+00
213  2.1200000000000D+00  0.0000000000000D+00  0.0000000000000D+00
214  2.1300000000000D+00  0.0000000000000D+00  0.0000000000000D+00
215  2.1400000000000D+00  0.0000000000000D+00  0.0000000000000D+00
216  2.1500000000000D+00  0.0000000000000D+00  0.0000000000000D+00
217  2.1600000000000D+00  0.0000000000000D+00  0.0000000000000D+00
218  2.1700000000000D+00  0.0000000000000D+00  0.0000000000000D+00
219  2.1800000000000D+00  0.0000000000000D+00  0.0000000000000D+00
220  2.1900000000000D+00  0.0000000000000D+00  0.0000000000000D+00
221  2.2000000000000D+00  0.0000000000000D+00  0.0000000000000D+00
222  2.2100000000000D+00  0.0000000000000D+00  0.0000000000000D+00
223  2.2200000000000D+00  0.0000000000000D+00  0.0000000000000D+00
224  2.2300000000000D+00  0.0000000000000D+00  0.0000000000000D+00
225  2.2400000000000D+00  0.0000000000000D+00  0.0000000000000D+00
226  2.2500000000000D+00  0.0000000000000D+00  0.0000000000000D+00
227  2.2600000000000D+00  0.0000000000000D+00  0.0000000000000D+00
228  2.2700000000000D+00  0.0000000000000D+00  0.0000000000000D+00
229  2.2800000000000D+00  0.0000000000000D+00  0.0000000000000D+00
230  2.2900000000000D+00  0.0000000000000D+00  0.0000000000000D+00
231  2.3000000000000D+00  0.0000000000000D+00  0.0000000000000D+00
232  2.3100000000000D+00  0.0000000000000D+00  0.0000000000000D+00
233  2.3200000000000D+00  0.0000000000000D+00  0.0000000000000D+00
234  2.3300000000000D+00  0.0000000000000D+00  0.0000000000000D+00
235  2.3400000000000D+00  0.0000000000000D+00  0.0000000000000D+00
236  2.3500000000000D+00  0.0000000000000D+00  0.0000000000000D+00
237  2.3600000000000D+00  0.0000000000000D+00  0.0000000000000D+00
238  2.3700000000000D+00  0.0000000000000D+00  0.0000000000000D+00
239  2.3800000000000D+00  0.0000000000000D+00  0.0000000000000D+00
240  2.3900000000000D+00  0.0000000000000D+00  0.0000000000000D+00
241  2.4000000000000D+00  0.0000000000000D+00  0.0000000000000D+00
242  2.4100000000000D+00  0.0000000000000D+00  0.0000000000000D+00
243  2.4200000000000D+00  0.0000000000000D+00  0.0000000000000D+00
244  2.4300000000000D+00  0.0000000000000D+00  0.0000000000000D+00
245  2.4400000000000D+00  0.0000000000000D+00  0.0000000000000D+00
246  2.4500000000000D+00  0.0000000000000D+00  0.0000000000000D+00
247  2.4600000000000D+00  0.0000000000000D+00  0.0000000000000D+00
248  2.4700000000000D+00  0.0000000000000D+00  0.0000000000000D+00
249  2.4800000000000D+00  0.0000000000000D+00  0.0000000000000D+00
250  2.4900000000000D+00  0.0000000000000D+00  0.0000000000000D+00
251  2.5000000000000D+00  0.0000000000000D+00  0.0000000000000D+00
252  2.5100000000000D+00  0.0000000000000D+00  0.0000000000000D+00
253  2.5200000000000D+00  0.0000000000000D+00  0.0000000000000D+00
254  2.5300000000000D+00  0.0000000000000D+00  0.0000000000000D+00
255  2.5400000000000D+00  0.0000000000000D+00  0.0000000000000D+00
256  2.5500000000000D+00  0.0000000000000D+00  0.0000000000000D+00
257  2.5600000000000D+00  0.0000000000000D+00  0.0000000000000D+00
258  2.5700000000000D+00  0.0000000000000D+00  0.0000000000000D+00
259  2.5800000000000D+00  0.0000000000000D+00  0.0000000000000D+00
260  2.5900000000000D+00  0.0000000000000D+00  0.0000000000000D+00
261  2.6000000000000D+00  0.0000000000000D+00  0.0000000000000D+00
262  2.6100000000000D+00  0.0000000000000D+00  0.0000000000000D+00
263  2.6200000000000D+00  0.0000000000000D+00  0.0000000000000D+00
264  2.6300000000000D+00  0.0000000000000D+00  0.0000000000000D+00
265  2.6400000000000D+00  0.0000000000000D+00  0.0000000000000D+00
266  2.6500000000000D+00  0.0000000000000D+00  0.0000000000000D+00
267  2.6600000000000D+00  0.0000000000000D+00  0.0000000000000D+00
268  2.6700000000000D+00  0.0000000000000D+00  0.0000000000000D+00
269  2.6800000000000D+00  0.0000000000000D+00  0.0000000000000D+00
270  2.6900000000000D+00  0.0000000000000D+00  0.0000000000000D+00
271  2.7000000000000D+00  0.0000000000000D+00  0.0000000000000D+00
272  2.7100000000000D+00  0.0000000000000D+00  0.0000000000000D+00
273  2.7200000000000D+00  0.0000000000000D+00  0.0000000000000D+00
274  2.7300000000000D+00  0.0000000000000D+00  0.0000000000000D+00
275  2.7400000000000D+00  0.0000000000000D+00  0.0000000000000D+00
276  2.7500000000000D+00  0.0000000000000D+00  0.0000000000000D+00
277  2.7600000000000D+00  0.0000000000000D+00  0.0000000000000D+00
278  2.7700000000000D+00  0.0000000000000D+00  0.0000000000000D+00
279  2.7800000000000D+00  0.0000000000000D+00  0.0000000000000D+00
280  2.7900000000000D+00  0.0000000000000D+00  0.0000000000000D+00
281  2.8000000000000D+00  0.0000000000000D+00  0.0000000000000D+00
282  2.8100000000000D+00  0.0000000000000D+00  0.0000000000000D+00
283  2.8200000000000D+00  0.0000000000000D+00  0.0000000000000D+00
284  2.8300000000000D+00  0.0000000000000D+00  0.0000000000000D+00
285  2.8400000000000D+00  0.0000000000000D+00  0.0000000000000D+00
286  2.8500000000000D+00  0.0000000000000D+00  0.0000000000000D+00
287  2.8600000000000D+00  0.0000000000000D+00  0.0000000000000D+00
288  2.8700000000000D+00  0.0000000000000D+00  0.0000000000000D+00
289  2.8800000000000D+00  0.0000000000000D+00  0.0000000000000D+00
290  2.8900000000000D+00  0.0000000000000D+00  0.0000000000000D+00
291  2.9000000000000D+00  0.0000000000000D+00  0.0000000000000D+00
292  2.9100000000000D+00  0.0000000000000D+00  0.0000000000000D+00
293  2.9200000000000D+00  0.0000000000000D+00  0.0000000000000D+00
294  2.9300000000000D+00  0.0000000000000D+00  0.0000000000000D+00
295  2.9400000000000D+00  0.0000000000000D+00  0.0000000000000D+00
296  2.9500000000000D+00  0.0000000000000D+00  0.0000000000000D+00
297  2.9600000000000D+00  0.0000000000000D+00  0.0000000000000D+00
298  2.9700000000000D+00  0.0000000000000D+00  0.0000000000000D+00
299  2.9800000000000D+00  0.0000000000000D+00  0.0000000000000D+00
300  2.9900000000000D+00  0.0000000000000D+00  0.0000000000000D+00
301  3.0000000000000D+00  0.0000000000000D+00  0.0000000000000D+00
302  3.0100000000000D+00  0.0000000000000D+00  0.0000000000000D+00
303  3.0200000000000D+00  0.0000000000000D+00  0.0000000000000D+00
304  3.0300000000000D+00  0.0000000000000D+00  0.0000000000000D+00
305  3.0400000000000D+00  0.0000000000000D+00  0.0000000000000D+00
306  3.0500000000000D+00  0.0000000000000D+00  0.0000000000000D+00
307  3.0600000000000D+00  0.0000000000000D+00  0.0000000000000D+00
308  3.0700000000000D+00  0.0000000000000D+00  0.0000000000000D+00
309  3.0800000000000D+00  0.0000000000000D+00  0.0000000000000D+00
310  3.0900000000000D+00  0.0000000000000D+00  0.0000000000000D+00
311  3.1000000000000D+00  0.0000000000000D+00  0.0000000000000D+00
312  3.1100000000000D+00  0.0000000000000D+00  0.0000000000000D+00
313  3.1200000000000D+00  0.0000000000000D+00  0.0000000000000D+00
314  3.1300000000000D+00  0.0000000000000D+00  0.0000000000000D+00
315  3.1400000000000D+00  0.0000000000000D+00  0.0000000000000D+00
316  3.1500000000000D+00  0.0000000000000D+00  0.0000000000000D+00
317  3.1600000000000D+00  0.0000000000000D+00  0.0000000000000D+00
318  3.1700000000000D+00  0.0000000000000D+00  0.0000000000000D+00
319  3.1800000000000D+00  0.0000000000000D+00  0.0000000000000D+00
320  3.1900000000000D+00  0.0000000000000D+00  0.0000000000000D+00
321  3.2000000000000D+00  0.0000000000000D+00  0.0000000000000D+00
322  3.2100000000000D+00  0.0000000000000D+00  0.0000000000000D+00
323  3.2200000000000D+00  0.0000000000000D+00  0.0000000000000D+00
324  3.2300000000000D+00  0.0000000000000D+00  0.0000000000000D+00
325  3.2400000000000D+00  0.0000000000000D+00  0.0000000000000D+00
326  3.2500000000000D+00  0.0000000000000D+00  0.0000000000000D+00
327  3.2600000000000D+00  0.0000000000000D+00  0.0000000000000D+00
328  3.2700000000000D+00  0.0000000000000D+00  0.0000000000000D+00
329  3.2800000000000D+00  0.0000000000000D+00  0.0000000000000D+00
330  3.2900000000000D+00  0.0000000000000D+00  0.0000000000000D+00
331  3.3000000000000D+00  0.0000000000000D+00  0.0000000000000D+00
332  3.3100000000000D+00  0.0000000000000D+00  0.0000000000000D+00
333  3.3200000000000D+00  0.0000000000000D+00  0.0000000000000D+00
334  3.3300000000000D+00  0.0000000000000D+00  0.0000000000000D+00
335  3.3400000000000D+00  0.0000000000000D+00  0.0000000000000D+00
336  3.3500000000000D+00  0.0000000000000D+00  0.0000000000000D+00
337  3.3600000000000D+00  0.0000000000000D+00  0.0000000000000D+00
338  3.3700000000000D+00  0.0000000000000D+00  0.0000000000000D+00
339  3.3800000000000D+00  0.0000000000000D+00  0.0000000000000D+00
340  3.3900000000000D+00  0.0000000000000D+00  0.0000000000000D+00
341  3.4000000000000D+00  0.0000000000000D+00  0.0000000000000D+00
342  3.4100000000000D+00  0.0000000000000D+00  0.0000000000000D+00
343  3.4200000000000D+00  0.0000000000000D+00  0.0000000000000D+00
344  3.4300000000000D+00  0.0000000000000D+00  0.0000000000000D+00
345  3.4400000000000D+00  0.0000000000000D+00  0.0000000000000D+00
346  3.4500000000000D+00  0.0000000000000D+00  0.0000000000000D+00
347  3.4600000000000D+00  0.0000000000000D+00  0.0000000000000D+00
348  3.4700000000000D+00  0.0000000000000D+00  0.0000000000000D+00
349  3.4800000000000D+00  0.0000000000000D+00  0.0000000000000D+00
350  3.4900000000000D+00  0.0000000000000D+00  0.0000000000000D+00
351  3.5000000000000D+00  0.0000000000000D+00  0.0000000000000D+00
352  3.5100000000000D+00  0.0000000000000D+00  0.0000000000000D+00
353  3.5200000000000D+00  0.0000000000000D+00  0.0000000000000D+00
354  3.5300000000000D+00  0.0000000000000D+00  0.0000000000000D+00
355  3.5400000000000D+00  0.0000000000000D+00  0.0000000000000D+00
356  3.5500000000000D+00  0.0000000000000D+00  0.0000000000000D+00
357  3.5600000000000D+00  0.0000000000000D+00  0.0000000000000D+00
358  3.5700000000000D+00  0.0000000000000D+00  0.0000000000000D+00
359  3.5800000000000D+00  0.0000000000000D+00  0.0000000000000D+00
360  3.5900000000000D+00  0.0000000000000D+00  0.0000000000000D+00
361  3.6000000000000D+00  0.0000000000000D+00  0.0000000000000D+00
362  3.6100000000000D+00  0.0000000000000D+00  0.0000000000000D+00
363  3.6200000000000D+00  0.0000000000000D+00  0.0000000000000D+00
364  3.6300000000000D+00  0.0000000000000D+00  0.0000000000000D+00
365  3.6400000000000D+00  0.0000000000000D+00  0.0000000000000D+00
366  3.6500000000000D+00  0.0000000000000D+00  0.0000000000000D+00
367  3.6600000000000D+00  0.0000000000000D+00  0.0000000000000D+00
368  3.6700000000000D+00  0.0000000000000D+00  0.0000000000000D+00
369  3.6800000000000D+00  0.0000000000000D+00  0.0000000000000D+00
370  3.6900000000000D+00  0.0000000000000D+00  0.0000000000000D+00
371  3.7000000000000D+00  0.0000000000000D+00  0.0000000000000D+00
372  3.7100000000000D+00  0.0000000000000D+00  0.0000000000000D+00
373  3.7200000000000D+00  0.0000000000000D+00  0.0000000000000D+00
374  3.7300000000000D+00  0.0000000000000D+00  0.0000000000000D+00
375  3.7400000000000D+00  0.0000000000000D+00  0.0000000000000D+00
376  3.7500000000000D+00  0.0000000000000D+00  0.0000000000000D+00
377  3.7600000000000D+00  0.0000000000000D+00  0.0000000000000D+00
378  3.7700000000000D+00  0.0000000000000D+00  0.0000000000000D+00
379  3.7800000000000D+00  0.0000000000000D+00  0.0000000000000D+00
380  3.7900000000000D+00  0.0000000000000D+00  0.0000000000000D+00
381  3.8000000000000D+00  0.0000000000000D+00  0.0000000000000D+00
382  3.8100000000000D+00  0.0000000000000D+00  0.0000000000000D+00
383  3.8200000000000D+00  0.0000000000000D+00  0.0000000000000D+00
384  3.8300000000000D+00  0.0000000000000D+00  0.0000000000000D+00
385  3.8400000000000D+00  0.0000000000000D+00  0.0000000000000D+00
386  3.8500000000000D+00  0.0000000000000D+00  0.0000000000000D+00
387  3.8600000000000D+00  0.0000000000000D+00  0.0000000000000D+00
388  3.8700000000000D+00  0.0000000000000D+00  0.0000000000000D+00
389  3.8800000000000D+00  0.0000000000000D+00  0.0000000000000D+00
390  3.8900000000000D+00  0.0000000000000D+00  0.0000000000000D+00
391  3.9000000000000D+00  0.0000000000000D+00  0.0000000000000D+00
392  3.9100000000000D+00  0.0000000000000D+00  0.0000000000000D+00
393  3.9200000000000D+00  0.0000000000000D+00  0.0000000000000D+00
394  3.9300000000000D+00  0.0000000000000D+00  0.0000000000000D+00
395  3.9400000000000D+00  0.0000000000000D+00  0.0000000000000D+00
396  3.9500000000000D+00  0.0000000000000D+00  0.0000000000000D+00
397  3.9600000000000D+00  0.0000000000000D+00  0.0000000000000D+00
398  3.9700000000000D+00  0.0000000000000D+00  0.0000000000000D+00
399  3.9800000000000D+00  0.0000000000000D+00  0.0000000000000D+00
400  3.9900000000000D+00  0.0000000000000D+00  0.0000000000000D+00
401  4.0000000000000D+00  0.0000000000000D+00  0.0000000000000D+00
402  4.0100000000000D+00  0.0000000000000D+00  0.0000000000000D+00
403  4.0200000000000D+00  0.0000000000000D+00  0.0000000000000D+00
404  4.0300000000000D+00  0.0000000000000D+00  0.0000000000000D+00
405  4.0400000000000D+00  0.0000000000000D+00  0.0000000000000D+00
406  4.0500000000000D+00  0.0000000000000D+00  0.0000000000000D+00
407  4.0600000000000D+00  0.0000000000000D+00  0.0000000000000D+00
408  4.0700000000000D+00  0.0000000000000D+00  0.0000000000000D+00
409  4.0800000000000D+00  0.0000000000000D+00  0.0000000000000D+00
410  4.0900000000000D+00  0.0000000000000D+00  0.0000000000000D+00
411  4.1000000000000D+00  0.0000000000000D+00  0.0000000000000D+00
412  4.1100000000000D+00  0.0000000000000D+00  0.0000000000000D+00
413  4.1200000000000D+00  0.0000000000000D+00  0.0000000000000D+00
414  4.1300000000000D+00  0.0000000000000D+00  0.0000000000000D+00
415  4.1400000000000D+00  0.0000000000000D+00  0.0000000000000D+00
416  4.1500000000000D+00  0.0000000000000D+00  0.0000000000000D+00
417  4.1600000000000D+00  0.0000000000000D+00  0.0000000000000D+00
418  4.1700000000000D+00  0.0000000000000D+00  0.0000000000000D+00
419  4.1800000000000D+00  0.0000000000000D+00  0.0000000000000D+00
420  4.1900000000000D+00  0.0000000000000D+00  0.0000000000000D+00
421  4.2000000000000D+00  0.0000000000000D+00  0.0000000000000D+00
422  4.2100000000000D+00  0.0000000000000D+00  0.0000000000000D+00
423  4.2200000000000D+00  0.0000000000000D+00  0.0000000000000D+00
424  4.2300000000000D+00  0.0000000000000D+00  0.0000000000000D+00
425  4.2400000000000D+00  0.0000000000000D+00  0.0000000000000D+00
426  4.2500000000000D+00  0.0000000000000D+00  0.0000000000000D+00
427  4.2600000000000D+00  0.0000000000000D+00  0.0000000000000D+00
428  4.2700000000000D+00  0.0000000000000D+00  0.0000000000000D+00
429  4.2800000000000D+00  0.0000000000000D+00  0.0000000000000D+00
430  4.2900000000000D+00  0.0000000000000D+00  0.0000000000000D+00
431  4.3000000000000D+00  0.0000000000000D+00  0.0000000000000D+00
432  4.3100000000000D+00  0.0000000000000D+00  0.0000000000000D+00
433  4.3200000000000D+00  0.0000000000000D+00  0.0000000000000D+00
434  4.3300000000000D+00  0.0000000000000D+00  0.0000000000000D+00
435  4.3400000000000D+00  0.0000000000000D+00  0.0000000000000D+00
436  4.3500000000000D+00  0.0000000000000D+00  0.0000000000000D+00
437  4.3600000000000D+00  0.0000000000000D+00  0.0000000000000D+00
438  4.3700000000000D+00  0.0000000000000D+00  0.0000000000000D+00
439  4.3800000000000D+00  0.0000000000000D+00  0.0000000000000D+00
440  4.3900000000000D+00  0.0000000000000D+00  0.0000000000000D+00
441  4.4000000000000D+00  0.0000000000000D+00  0.0000000000000D+00
442  4.4100000000000D+00  0.0000000000000D+00  0.0000000000000D+00
443  4.4200000000000D+00  0.0000000000000D+00  0.0000000000000D+00