Sb    ONCVPSP-3.3.0  r_core=   1.30295   1.30295   1.50346
51.0000     23.0000      171103    zatom,zion,pspd
8   -1012   2     4   600     0    pspcod,pspxc,lmax,lloc,mmax,r2well
5.99000000  5.00000000  0.00000000    rchrg fchrg qchrg
2     2     2     0     0    nproj
1     1           extension_switch
0                         9.5265970087386D+00 -4.9607241280407D-01
1  0.0000000000000D+00 -2.1248136583552D-10 -1.2236489155271D-08
2  1.0000000000000D-02  8.8207960277605D-02  7.6789930534793D-02
3  2.0000000000000D-02  1.7616968904866D-01  1.5280770152803D-01
4  3.0000000000000D-02  2.6363985497138D-01  2.2729174486759D-01
5  4.0000000000000D-02  3.5037492206642D-01  2.9950149662713D-01
6  5.0000000000000D-02  4.3613403503571D-01  3.6872745567616D-01
7  6.0000000000000D-02  5.2067988990098D-01  4.3430071901312D-01
8  7.0000000000000D-02  6.0377958532279D-01  4.9560183406370D-01
9  8.0000000000000D-02  6.8520545017354D-01  5.5206882042326D-01
10  9.0000000000000D-02  7.6473584319669D-01  6.0320422840431D-01
11  1.0000000000000D-01  8.4215592088484D-01  6.4858111901340D-01
12  1.1000000000000D-01  9.1725837004632D-01  6.8784786931833D-01
13  1.2000000000000D-01  9.8984410189845D-01  7.2073172823074D-01
14  1.3000000000000D-01  1.0597229049183D+00  7.4704107014524D-01
15  1.4000000000000D-01  1.1267140540925D+00  7.6666631724167D-01
16  1.5000000000000D-01  1.1906468746306D+00  7.7957952515335D-01
17  1.6000000000000D-01  1.2513612586316D+00  7.8583265070013D-01
18  1.7000000000000D-01  1.3087081336193D+00  7.8555454404881D-01
19  1.8000000000000D-01  1.3625498822723D+00  7.7894673056496D-01
20  1.9000000000000D-01  1.4127607130760D+00  7.6627806934421D-01
21  2.0000000000000D-01  1.4592269819964D+00  7.4787839555929D-01
22  2.1000000000000D-01  1.5018474656229D+00  7.2413127196236D-01
23  2.2000000000000D-01  1.5405335865398D+00  6.9546599080250D-01
24  2.3000000000000D-01  1.5752095919619D+00  6.6234898075814D-01
25  2.4000000000000D-01  1.6058126869030D+00  6.2527478399143D-01
26  2.5000000000000D-01  1.6322931233341D+00  5.8475677590264D-01
27  2.6000000000000D-01  1.6546142469324D+00  5.4131780444834D-01
28  2.7000000000000D-01  1.6727525031158D+00  4.9548092689549D-01
29  2.8000000000000D-01  1.6866974041100D+00  4.4776041957840D-01
30  2.9000000000000D-01  1.6964514587920D+00  3.9865323063683D-01
31  3.0000000000000D-01  1.7020300670209D+00  3.4863103692114D-01
32  3.1000000000000D-01  1.7034613800772D+00  2.9813305440366D-01
33  3.2000000000000D-01  1.7007861287197D+00  2.4755973673232D-01
34  3.3000000000000D-01  1.6940574202162D+00  1.9726747925800D-01
35  3.4000000000000D-01  1.6833405055262D+00  1.4756442626412D-01
36  3.5000000000000D-01  1.6687125176200D+00  9.8707457575810D-02
37  3.6000000000000D-01  1.6502621817049D+00  5.0900407609597D-02
38  3.7000000000000D-01  1.6280894979145D+00  4.2935456652185D-03
39  3.8000000000000D-01  1.6023053967979D+00 -4.1015678700177D-02
40  3.9000000000000D-01  1.5730313677391D+00 -8.4980646577832D-02
41  4.0000000000000D-01  1.5403990602430D+00 -1.2760238322893D-01
42  4.1000000000000D-01  1.5045498578553D+00 -1.6892524483435D-01
43  4.2000000000000D-01  1.4656344243391D+00 -2.0903157220081D-01
44  4.3000000000000D-01  1.4238122216301D+00 -2.4803542666312D-01
45  4.4000000000000D-01  1.3792509990245D+00 -2.8607554290808D-01
46  4.5000000000000D-01  1.3321262530372D+00 -3.2330765051820D-01
47  4.6000000000000D-01  1.2826206573998D+00 -3.5989633034356D-01
48  4.7000000000000D-01  1.2309234627520D+00 -3.9600658305922D-01
49  4.8000000000000D-01  1.1772298657200D+00 -4.3179529520347D-01
50  4.9000000000000D-01  1.1217403472713D+00 -4.6740279243013D-01
51  5.0000000000000D-01  1.0646599804834D+00 -5.0294467051762D-01
52  5.1000000000000D-01  1.0061977081683D+00 -5.3850409179497D-01
53  5.2000000000000D-01  9.4656559114739D-01 -5.7412472808455D-01
54  5.3000000000000D-01  8.8597802836750D-01 -6.0980452108043D-01
55  5.4000000000000D-01  8.2465095049139D-01 -6.4549041742843D-01
56  5.5000000000000D-01  7.6280098906367D-01 -6.8107421888872D-01
57  5.6000000000000D-01  7.0064462385403D-01 -7.1638966802382D-01
58  5.7000000000000D-01  6.3839731149288D-01 -7.5121086733568D-01
59  5.8000000000000D-01  5.7627259903844D-01 -7.8525210489992D-01
60  5.9000000000000D-01  5.1448122663457D-01 -8.1816913289796D-01
61  6.0000000000000D-01  4.5323022392750D-01 -8.4956191735078D-01
62  6.1000000000000D-01  3.9272200539400D-01 -8.7897884850392D-01
63  6.2000000000000D-01  3.3315347018598D-01 -9.0592237194360D-01
64  6.3000000000000D-01  2.7471511250097D-01 -9.2985597162156D-01
65  6.4000000000000D-01  2.1759014884168D-01 -9.5021240750911D-01
66  6.5000000000000D-01  1.6195366881273D-01 -9.6640308368548D-01
67  6.6000000000000D-01  1.0797181631623D-01 -9.7782839748789D-01
68  6.7000000000000D-01  5.5801008138768D-02 -9.8388889741860D-01
69  6.8000000000000D-01  5.5871969636166D-03 -9.8399705747934D-01
70  6.9000000000000D-01 -4.2534814210194D-02 -9.7758945877057D-01
71  7.0000000000000D-01 -8.8441999412999D-02 -9.6413915584224D-01
72  7.1000000000000D-01 -1.3202367223823D-01 -9.4316799595541D-01
73  7.2000000000000D-01 -1.7318197734662D-01 -9.1425865415005D-01
74  7.3000000000000D-01 -2.1183230518052D-01 -8.7706614606981D-01
75  7.4000000000000D-01 -2.4790362468746D-01 -8.3132858394773D-01
76  7.5000000000000D-01 -2.8133872950706D-01 -7.7687694905338D-01
77  7.6000000000000D-01 -3.1209439381841D-01 -7.1364366611900D-01
78  7.7000000000000D-01 -3.4014143487141D-01 -6.4166978170348D-01
79  7.8000000000000D-01 -3.6546468012399D-01 -5.6111056887015D-01
80  7.9000000000000D-01 -3.8806283786661D-01 -4.7223940464191D-01
81  8.0000000000000D-01 -4.0794827122630D-01 -3.7544979414716D-01
82  8.1000000000000D-01 -4.2514667648365D-01 -2.7125544552315D-01
83  8.2000000000000D-01 -4.3969666770688D-01 -1.6028833240686D-01
84  8.3000000000000D-01 -4.5164927077602D-01 -4.3294715207540D-02
85  8.4000000000000D-01 -4.6106733093275D-01  7.8870871961551D-02
86  8.5000000000000D-01 -4.6802483902714D-01  2.0525362554690D-01
87  8.6000000000000D-01 -4.7260618262520D-01  3.3480838865352D-01
88  8.7000000000000D-01 -4.7490532907568D-01  4.6641136410193D-01
89  8.8000000000000D-01 -4.7502494849456D-01  5.9887347540007D-01
90  8.9000000000000D-01 -4.7307548539760D-01  7.3095519440957D-01
91  9.0000000000000D-01 -4.6917418838000D-01  8.6138262490744D-01
92  9.1000000000000D-01 -4.6344410779740D-01  9.8886460482024D-01
93  9.2000000000000D-01 -4.5601307183052D-01  1.1121105671957D+00
94  9.3000000000000D-01 -4.4701265161078D-01  1.2298488814746D+00
95  9.4000000000000D-01 -4.3657712623808D-01  1.3408453824864D+00
96  9.5000000000000D-01 -4.2484245852780D-01  1.4439217855834D+00
97  9.6000000000000D-01 -4.1194529218200D-01  1.5379736822493D+00
98  9.7000000000000D-01 -3.9802198078838D-01  1.6219878117643D+00
99  9.8000000000000D-01 -3.8320765861159D-01  1.6950583110641D+00
100  9.9000000000000D-01 -3.6763536255996D-01  1.7564016567374D+00
101  1.0000000000000D+00 -3.5143521399302D-01  1.8053700300817D+00
102  1.0100000000000D+00 -3.3473366817430D-01  1.8414628585040D+00
103  1.0200000000000D+00 -3.1765283826124D-01  1.8643363116259D+00
104  1.0300000000000D+00 -3.0030989959407D-01  1.8738105630633D+00
105  1.0400000000000D+00 -2.8281657894259D-01  1.8698746619146D+00
106  1.0500000000000D+00 -2.6527873213445D-01  1.8526888959028D+00
107  1.0600000000000D+00 -2.4779601219002D-01  1.8225845690512D+00
108  1.0700000000000D+00 -2.3046162882277D-01  1.7800611574218D+00
109  1.0800000000000D+00 -2.1336219883673D-01  1.7257808496939D+00
110  1.0900000000000D+00 -1.9657768557925D-01  1.6605605249502D+00
111  1.1000000000000D+00 -1.8018142439431D-01  1.5853612607720D+00
112  1.1100000000000D+00 -1.6424022967743D-01  1.5012755104811D+00
113  1.1200000000000D+00 -1.4881457814523D-01  1.4095121222428D+00
114  1.1300000000000D+00 -1.3395886161362D-01  1.3113794185429D+00
115  1.1400000000000D+00 -1.1972170173449D-01  1.2082665842817D+00
116  1.1500000000000D+00 -1.0614631819669D-01  1.1016236452479D+00
117  1.1600000000000D+00 -9.3270941286984D-02  9.9294034053017D-01
118  1.1700000000000D+00 -8.1129258930956D-02  8.8372422063629D-01
119  1.1800000000000D+00 -6.9750888005305D-02  7.7547831544854D-01
120  1.1900000000000D+00 -5.9161859465590D-02  6.6967872588654D-01
121  1.2000000000000D+00 -4.9385106632032D-02  5.6775250083481D-01
122  1.2100000000000D+00 -4.0440946053704D-02  4.7105615961791D-01
123  1.2200000000000D+00 -3.2347540731280D-02  3.8085520816932D-01
124  1.2300000000000D+00 -2.5121335654740D-02  2.9830499148738D-01
125  1.2400000000000D+00 -1.8777456229045D-02  2.2443320417690D-01
126  1.2500000000000D+00 -1.3330061081644D-02  1.6012434875352D-01
127  1.2600000000000D+00 -8.7939253942865D-03  1.0612234716025D-01
128  1.2700000000000D+00 -5.1795342635231D-03  6.2955830007174D-02
129  1.2800000000000D+00 -2.4847832368442D-03  3.0811822667479D-02
130  1.2900000000000D+00 -7.8759341636089D-04  1.0781443705028D-02
131  1.3000000000000D+00 -4.2210045070869D-05  2.0685533021574D-03
132  1.3100000000000D+00  7.9765259104923D-05 -1.0158068598395D-04
133  1.3200000000000D+00 -8.0479575753742D-06  3.2145258798012D-05
134  1.3300000000000D+00 -1.5411232554404D-05  7.7274777215128D-05
135  1.3400000000000D+00  3.9546894326126D-06 -1.3166575511436D-05
136  1.3500000000000D+00  3.2330878656359D-07 -1.2249016077027D-06
137  1.3600000000000D+00 -1.0827251340136D-07 -2.6484011945311D-06
138  1.3700000000000D+00  0.0000000000000D+00  0.0000000000000D+00
139  1.3800000000000D+00  0.0000000000000D+00  0.0000000000000D+00
140  1.3900000000000D+00  0.0000000000000D+00  0.0000000000000D+00
141  1.4000000000000D+00  0.0000000000000D+00  0.0000000000000D+00
142  1.4100000000000D+00  0.0000000000000D+00  0.0000000000000D+00
143  1.4200000000000D+00  0.0000000000000D+00  0.0000000000000D+00
144  1.4300000000000D+00  0.0000000000000D+00  0.0000000000000D+00
145  1.4400000000000D+00  0.0000000000000D+00  0.0000000000000D+00
146  1.4500000000000D+00  0.0000000000000D+00  0.0000000000000D+00
147  1.4600000000000D+00  0.0000000000000D+00  0.0000000000000D+00
148  1.4700000000000D+00  0.0000000000000D+00  0.0000000000000D+00
149  1.4800000000000D+00  0.0000000000000D+00  0.0000000000000D+00
150  1.4900000000000D+00  0.0000000000000D+00  0.0000000000000D+00
151  1.5000000000000D+00  0.0000000000000D+00  0.0000000000000D+00
152  1.5100000000000D+00  0.0000000000000D+00  0.0000000000000D+00
153  1.5200000000000D+00  0.0000000000000D+00  0.0000000000000D+00
154  1.5300000000000D+00  0.0000000000000D+00  0.0000000000000D+00
155  1.5400000000000D+00  0.0000000000000D+00  0.0000000000000D+00
156  1.5500000000000D+00  0.0000000000000D+00  0.0000000000000D+00
157  1.5600000000000D+00  0.0000000000000D+00  0.0000000000000D+00
158  1.5700000000000D+00  0.0000000000000D+00  0.0000000000000D+00
159  1.5800000000000D+00  0.0000000000000D+00  0.0000000000000D+00
160  1.5900000000000D+00  0.0000000000000D+00  0.0000000000000D+00
161  1.6000000000000D+00  0.0000000000000D+00  0.0000000000000D+00
162  1.6100000000000D+00  0.0000000000000D+00  0.0000000000000D+00
163  1.6200000000000D+00  0.0000000000000D+00  0.0000000000000D+00
164  1.6300000000000D+00  0.0000000000000D+00  0.0000000000000D+00
165  1.6400000000000D+00  0.0000000000000D+00  0.0000000000000D+00
166  1.6500000000000D+00  0.0000000000000D+00  0.0000000000000D+00
167  1.6600000000000D+00  0.0000000000000D+00  0.0000000000000D+00
168  1.6700000000000D+00  0.0000000000000D+00  0.0000000000000D+00
169  1.6800000000000D+00  0.0000000000000D+00  0.0000000000000D+00
170  1.6900000000000D+00  0.0000000000000D+00  0.0000000000000D+00
171  1.7000000000000D+00  0.0000000000000D+00  0.0000000000000D+00
172  1.7100000000000D+00  0.0000000000000D+00  0.0000000000000D+00
173  1.7200000000000D+00  0.0000000000000D+00  0.0000000000000D+00
174  1.7300000000000D+00  0.0000000000000D+00  0.0000000000000D+00
175  1.7400000000000D+00  0.0000000000000D+00  0.0000000000000D+00
176  1.7500000000000D+00  0.0000000000000D+00  0.0000000000000D+00
177  1.7600000000000D+00  0.0000000000000D+00  0.0000000000000D+00
178  1.7700000000000D+00  0.0000000000000D+00  0.0000000000000D+00
179  1.7800000000000D+00  0.0000000000000D+00  0.0000000000000D+00
180  1.7900000000000D+00  0.0000000000000D+00  0.0000000000000D+00
181  1.8000000000000D+00  0.0000000000000D+00  0.0000000000000D+00
182  1.8100000000000D+00  0.0000000000000D+00  0.0000000000000D+00
183  1.8200000000000D+00  0.0000000000000D+00  0.0000000000000D+00
184  1.8300000000000D+00  0.0000000000000D+00  0.0000000000000D+00
185  1.8400000000000D+00  0.0000000000000D+00  0.0000000000000D+00
186  1.8500000000000D+00  0.0000000000000D+00  0.0000000000000D+00
187  1.8600000000000D+00  0.0000000000000D+00  0.0000000000000D+00
188  1.8700000000000D+00  0.0000000000000D+00  0.0000000000000D+00
189  1.8800000000000D+00  0.0000000000000D+00  0.0000000000000D+00
190  1.8900000000000D+00  0.0000000000000D+00  0.0000000000000D+00
191  1.9000000000000D+00  0.0000000000000D+00  0.0000000000000D+00
192  1.9100000000000D+00  0.0000000000000D+00  0.0000000000000D+00
193  1.9200000000000D+00  0.0000000000000D+00  0.0000000000000D+00
194  1.9300000000000D+00  0.0000000000000D+00  0.0000000000000D+00
195  1.9400000000000D+00  0.0000000000000D+00  0.0000000000000D+00
196  1.9500000000000D+00  0.0000000000000D+00  0.0000000000000D+00
197  1.9600000000000D+00  0.0000000000000D+00  0.0000000000000D+00
198  1.9700000000000D+00  0.0000000000000D+00  0.0000000000000D+00
199  1.9800000000000D+00  0.0000000000000D+00  0.0000000000000D+00
200  1.9900000000000D+00  0.0000000000000D+00  0.0000000000000D+00
201  2.0000000000000D+00  0.0000000000000D+00  0.0000000000000D+00
202  2.0100000000000D+00  0.0000000000000D+00  0.0000000000000D+00
203  2.0200000000000D+00  0.0000000000000D+00  0.0000000000000D+00
204  2.0300000000000D+00  0.0000000000000D+00  0.0000000000000D+00
205  2.0400000000000D+00  0.0000000000000D+00  0.0000000000000D+00
206  2.0500000000000D+00  0.0000000000000D+00  0.0000000000000D+00
207  2.0600000000000D+00  0.0000000000000D+00  0.0000000000000D+00
208  2.0700000000000D+00  0.0000000000000D+00  0.0000000000000D+00
209  2.0800000000000D+00  0.0000000000000D+00  0.0000000000000D+00
210  2.0900000000000D+00  0.0000000000000D+00  0.0000000000000D+00
211  2.1000000000000D+00  0.0000000000000D+00  0.0000000000000D+00
212  2.1100000000000D+00  0.0000000000000D+00  0.0000000000000D+00
213  2.1200000000000D+00  0.0000000000000D+00  0.0000000000000D+00
214  2.1300000000000D+00  0.0000000000000D+00  0.0000000000000D+00
215  2.1400000000000D+00  0.0000000000000D+00  0.0000000000000D+00
216  2.1500000000000D+00  0.0000000000000D+00  0.0000000000000D+00
217  2.1600000000000D+00  0.0000000000000D+00  0.0000000000000D+00
218  2.1700000000000D+00  0.0000000000000D+00  0.0000000000000D+00
219  2.1800000000000D+00  0.0000000000000D+00  0.0000000000000D+00
220  2.1900000000000D+00  0.0000000000000D+00  0.0000000000000D+00
221  2.2000000000000D+00  0.0000000000000D+00  0.0000000000000D+00
222  2.2100000000000D+00  0.0000000000000D+00  0.0000000000000D+00
223  2.2200000000000D+00  0.0000000000000D+00  0.0000000000000D+00
224  2.2300000000000D+00  0.0000000000000D+00  0.0000000000000D+00
225  2.2400000000000D+00  0.0000000000000D+00  0.0000000000000D+00
226  2.2500000000000D+00  0.0000000000000D+00  0.0000000000000D+00
227  2.2600000000000D+00  0.0000000000000D+00  0.0000000000000D+00
228  2.2700000000000D+00  0.0000000000000D+00  0.0000000000000D+00
229  2.2800000000000D+00  0.0000000000000D+00  0.0000000000000D+00
230  2.2900000000000D+00  0.0000000000000D+00  0.0000000000000D+00
231  2.3000000000000D+00  0.0000000000000D+00  0.0000000000000D+00
232  2.3100000000000D+00  0.0000000000000D+00  0.0000000000000D+00
233  2.3200000000000D+00  0.0000000000000D+00  0.0000000000000D+00
234  2.3300000000000D+00  0.0000000000000D+00  0.0000000000000D+00
235  2.3400000000000D+00  0.0000000000000D+00  0.0000000000000D+00
236  2.3500000000000D+00  0.0000000000000D+00  0.0000000000000D+00
237  2.3600000000000D+00  0.0000000000000D+00  0.0000000000000D+00
238  2.3700000000000D+00  0.0000000000000D+00  0.0000000000000D+00
239  2.3800000000000D+00  0.0000000000000D+00  0.0000000000000D+00
240  2.3900000000000D+00  0.0000000000000D+00  0.0000000000000D+00
241  2.4000000000000D+00  0.0000000000000D+00  0.0000000000000D+00
242  2.4100000000000D+00  0.0000000000000D+00  0.0000000000000D+00
243  2.4200000000000D+00  0.0000000000000D+00  0.0000000000000D+00
244  2.4300000000000D+00  0.0000000000000D+00  0.0000000000000D+00
245  2.4400000000000D+00  0.0000000000000D+00  0.0000000000000D+00
246  2.4500000000000D+00  0.0000000000000D+00  0.0000000000000D+00
247  2.4600000000000D+00  0.0000000000000D+00  0.0000000000000D+00
248  2.4700000000000D+00  0.0000000000000D+00  0.0000000000000D+00
249  2.4800000000000D+00  0.0000000000000D+00  0.0000000000000D+00
250  2.4900000000000D+00  0.0000000000000D+00  0.0000000000000D+00
251  2.5000000000000D+00  0.0000000000000D+00  0.0000000000000D+00
252  2.5100000000000D+00  0.0000000000000D+00  0.0000000000000D+00
253  2.5200000000000D+00  0.0000000000000D+00  0.0000000000000D+00
254  2.5300000000000D+00  0.0000000000000D+00  0.0000000000000D+00
255  2.5400000000000D+00  0.0000000000000D+00  0.0000000000000D+00
256  2.5500000000000D+00  0.0000000000000D+00  0.0000000000000D+00
257  2.5600000000000D+00  0.0000000000000D+00  0.0000000000000D+00
258  2.5700000000000D+00  0.0000000000000D+00  0.0000000000000D+00
259  2.5800000000000D+00  0.0000000000000D+00  0.0000000000000D+00
260  2.5900000000000D+00  0.0000000000000D+00  0.0000000000000D+00
261  2.6000000000000D+00  0.0000000000000D+00  0.0000000000000D+00
262  2.6100000000000D+00  0.0000000000000D+00  0.0000000000000D+00
263  2.6200000000000D+00  0.0000000000000D+00  0.0000000000000D+00
264  2.6300000000000D+00  0.0000000000000D+00  0.0000000000000D+00
265  2.6400000000000D+00  0.0000000000000D+00  0.0000000000000D+00
266  2.6500000000000D+00  0.0000000000000D+00  0.0000000000000D+00
267  2.6600000000000D+00  0.0000000000000D+00  0.0000000000000D+00
268  2.6700000000000D+00  0.0000000000000D+00  0.0000000000000D+00
269  2.6800000000000D+00  0.0000000000000D+00  0.0000000000000D+00
270  2.6900000000000D+00  0.0000000000000D+00  0.0000000000000D+00
271  2.7000000000000D+00  0.0000000000000D+00  0.0000000000000D+00
272  2.7100000000000D+00  0.0000000000000D+00  0.0000000000000D+00
273  2.7200000000000D+00  0.0000000000000D+00  0.0000000000000D+00
274  2.7300000000000D+00  0.0000000000000D+00  0.0000000000000D+00
275  2.7400000000000D+00  0.0000000000000D+00  0.0000000000000D+00
276  2.7500000000000D+00  0.0000000000000D+00  0.0000000000000D+00
277  2.7600000000000D+00  0.0000000000000D+00  0.0000000000000D+00
278  2.7700000000000D+00  0.0000000000000D+00  0.0000000000000D+00
279  2.7800000000000D+00  0.0000000000000D+00  0.0000000000000D+00
280  2.7900000000000D+00  0.0000000000000D+00  0.0000000000000D+00
281  2.8000000000000D+00  0.0000000000000D+00  0.0000000000000D+00
282  2.8100000000000D+00  0.0000000000000D+00  0.0000000000000D+00
283  2.8200000000000D+00  0.0000000000000D+00  0.0000000000000D+00
284  2.8300000000000D+00  0.0000000000000D+00  0.0000000000000D+00
285  2.8400000000000D+00  0.0000000000000D+00  0.0000000000000D+00
286  2.8500000000000D+00  0.0000000000000D+00  0.0000000000000D+00
287  2.8600000000000D+00  0.0000000000000D+00  0.0000000000000D+00
288  2.8700000000000D+00  0.0000000000000D+00  0.0000000000000D+00
289  2.8800000000000D+00  0.0000000000000D+00  0.0000000000000D+00
290  2.8900000000000D+00  0.0000000000000D+00  0.0000000000000D+00
291  2.9000000000000D+00  0.0000000000000D+00  0.0000000000000D+00
292  2.9100000000000D+00  0.0000000000000D+00  0.0000000000000D+00
293  2.9200000000000D+00  0.0000000000000D+00  0.0000000000000D+00
294  2.9300000000000D+00  0.0000000000000D+00  0.0000000000000D+00
295  2.9400000000000D+00  0.0000000000000D+00  0.0000000000000D+00
296  2.9500000000000D+00  0.0000000000000D+00  0.0000000000000D+00
297  2.9600000000000D+00  0.0000000000000D+00  0.0000000000000D+00
298  2.9700000000000D+00  0.0000000000000D+00  0.0000000000000D+00
299  2.9800000000000D+00  0.0000000000000D+00  0.0000000000000D+00
300  2.9900000000000D+00  0.0000000000000D+00  0.0000000000000D+00
301  3.0000000000000D+00  0.0000000000000D+00  0.0000000000000D+00
302  3.0100000000000D+00  0.0000000000000D+00  0.0000000000000D+00
303  3.0200000000000D+00  0.0000000000000D+00  0.0000000000000D+00
304  3.0300000000000D+00  0.0000000000000D+00  0.0000000000000D+00
305  3.0400000000000D+00  0.0000000000000D+00  0.0000000000000D+00
306  3.0500000000000D+00  0.0000000000000D+00  0.0000000000000D+00
307  3.0600000000000D+00  0.0000000000000D+00  0.0000000000000D+00
308  3.0700000000000D+00  0.0000000000000D+00  0.0000000000000D+00
309  3.0800000000000D+00  0.0000000000000D+00  0.0000000000000D+00
310  3.0900000000000D+00  0.0000000000000D+00  0.0000000000000D+00
311  3.1000000000000D+00  0.0000000000000D+00  0.0000000000000D+00
312  3.1100000000000D+00  0.0000000000000D+00  0.0000000000000D+00
313  3.1200000000000D+00  0.0000000000000D+00  0.0000000000000D+00
314  3.1300000000000D+00  0.0000000000000D+00  0.0000000000000D+00
315  3.1400000000000D+00  0.0000000000000D+00  0.0000000000000D+00
316  3.1500000000000D+00  0.0000000000000D+00  0.0000000000000D+00
317  3.1600000000000D+00  0.0000000000000D+00  0.0000000000000D+00
318  3.1700000000000D+00  0.0000000000000D+00  0.0000000000000D+00
319  3.1800000000000D+00  0.0000000000000D+00  0.0000000000000D+00
320  3.1900000000000D+00  0.0000000000000D+00  0.0000000000000D+00
321  3.2000000000000D+00  0.0000000000000D+00  0.0000000000000D+00
322  3.2100000000000D+00  0.0000000000000D+00  0.0000000000000D+00
323  3.2200000000000D+00  0.0000000000000D+00  0.0000000000000D+00
324  3.2300000000000D+00  0.0000000000000D+00  0.0000000000000D+00
325  3.2400000000000D+00  0.0000000000000D+00  0.0000000000000D+00
326  3.2500000000000D+00  0.0000000000000D+00  0.0000000000000D+00
327  3.2600000000000D+00  0.0000000000000D+00  0.0000000000000D+00
328  3.2700000000000D+00  0.0000000000000D+00  0.0000000000000D+00
329  3.2800000000000D+00  0.0000000000000D+00  0.0000000000000D+00
330  3.2900000000000D+00  0.0000000000000D+00  0.0000000000000D+00
331  3.3000000000000D+00  0.0000000000000D+00  0.0000000000000D+00
332  3.3100000000000D+00  0.0000000000000D+00  0.0000000000000D+00
333  3.3200000000000D+00  0.0000000000000D+00  0.0000000000000D+00
334  3.3300000000000D+00  0.0000000000000D+00  0.0000000000000D+00
335  3.3400000000000D+00  0.0000000000000D+00  0.0000000000000D+00
336  3.3500000000000D+00  0.0000000000000D+00  0.0000000000000D+00
337  3.3600000000000D+00  0.0000000000000D+00  0.0000000000000D+00
338  3.3700000000000D+00  0.0000000000000D+00  0.0000000000000D+00
339  3.3800000000000D+00  0.0000000000000D+00  0.0000000000000D+00
340  3.3900000000000D+00  0.0000000000000D+00  0.0000000000000D+00
341  3.4000000000000D+00  0.0000000000000D+00  0.0000000000000D+00
342  3.4100000000000D+00  0.0000000000000D+00  0.0000000000000D+00
343  3.4200000000000D+00  0.0000000000000D+00  0.0000000000000D+00
344  3.4300000000000D+00  0.0000000000000D+00  0.0000000000000D+00
345  3.4400000000000D+00  0.0000000000000D+00  0.0000000000000D+00
346  3.4500000000000D+00  0.0000000000000D+00  0.0000000000000D+00
347  3.4600000000000D+00  0.0000000000000D+00  0.0000000000000D+00
348  3.4700000000000D+00  0.0000000000000D+00  0.0000000000000D+00
349  3.4800000000000D+00  0.0000000000000D+00  0.0000000000000D+00
350  3.4900000000000D+00  0.0000000000000D+00  0.0000000000000D+00
351  3.5000000000000D+00  0.0000000000000D+00  0.0000000000000D+00
352  3.5100000000000D+00  0.0000000000000D+00  0.0000000000000D+00
353  3.5200000000000D+00  0.0000000000000D+00  0.0000000000000D+00
354  3.5300000000000D+00  0.0000000000000D+00  0.0000000000000D+00
355  3.5400000000000D+00  0.0000000000000D+00  0.0000000000000D+00
356  3.5500000000000D+00  0.0000000000000D+00  0.0000000000000D+00
357  3.5600000000000D+00  0.0000000000000D+00  0.0000000000000D+00
358  3.5700000000000D+00  0.0000000000000D+00  0.0000000000000D+00
359  3.5800000000000D+00  0.0000000000000D+00  0.0000000000000D+00
360  3.5900000000000D+00  0.0000000000000D+00  0.0000000000000D+00
361  3.6000000000000D+00  0.0000000000000D+00  0.0000000000000D+00
362  3.6100000000000D+00  0.0000000000000D+00  0.0000000000000D+00
363  3.6200000000000D+00  0.0000000000000D+00  0.0000000000000D+00
364  3.6300000000000D+00  0.0000000000000D+00  0.0000000000000D+00
365  3.6400000000000D+00  0.0000000000000D+00  0.0000000000000D+00
366  3.6500000000000D+00  0.0000000000000D+00  0.0000000000000D+00
367  3.6600000000000D+00  0.0000000000000D+00  0.0000000000000D+00
368  3.6700000000000D+00  0.0000000000000D+00  0.0000000000000D+00
369  3.6800000000000D+00  0.0000000000000D+00  0.0000000000000D+00
370  3.6900000000000D+00  0.0000000000000D+00  0.0000000000000D+00
371  3.7000000000000D+00  0.0000000000000D+00  0.0000000000000D+00
372  3.7100000000000D+00  0.0000000000000D+00  0.0000000000000D+00
373  3.7200000000000D+00  0.0000000000000D+00  0.0000000000000D+00
374  3.7300000000000D+00  0.0000000000000D+00  0.0000000000000D+00
375  3.7400000000000D+00  0.0000000000000D+00  0.0000000000000D+00
376  3.7500000000000D+00  0.0000000000000D+00  0.0000000000000D+00
377  3.7600000000000D+00  0.0000000000000D+00  0.0000000000000D+00
378  3.7700000000000D+00  0.0000000000000D+00  0.0000000000000D+00
379  3.7800000000000D+00  0.0000000000000D+00  0.0000000000000D+00
380  3.7900000000000D+00  0.0000000000000D+00  0.0000000000000D+00
381  3.8000000000000D+00  0.0000000000000D+00  0.0000000000000D+00
382  3.8100000000000D+00  0.0000000000000D+00  0.0000000000000D+00
383  3.8200000000000D+00  0.0000000000000D+00  0.0000000000000D+00
384  3.8300000000000D+00  0.0000000000000D+00  0.0000000000000D+00
385  3.8400000000000D+00  0.0000000000000D+00  0.0000000000000D+00
386  3.8500000000000D+00  0.0000000000000D+00  0.0000000000000D+00
387  3.8600000000000D+00  0.0000000000000D+00  0.0000000000000D+00
388  3.8700000000000D+00  0.0000000000000D+00  0.0000000000000D+00
389  3.8800000000000D+00  0.0000000000000D+00  0.0000000000000D+00
390  3.8900000000000D+00  0.0000000000000D+00  0.0000000000000D+00
391  3.9000000000000D+00  0.0000000000000D+00  0.0000000000000D+00
392  3.9100000000000D+00  0.0000000000000D+00  0.0000000000000D+00
393  3.9200000000000D+00  0.0000000000000D+00  0.0000000000000D+00
394  3.9300000000000D+00  0.0000000000000D+00  0.0000000000000D+00
395  3.9400000000000D+00  0.0000000000000D+00  0.0000000000000D+00
396  3.9500000000000D+00  0.0000000000000D+00  0.0000000000000D+00
397  3.9600000000000D+00  0.0000000000000D+00  0.0000000000000D+00
398  3.9700000000000D+00  0.0000000000000D+00  0.0000000000000D+00
399  3.9800000000000D+00  0.0000000000000D+00  0.0000000000000D+00
400  3.9900000000000D+00  0.0000000000000D+00  0.0000000000000D+00
401  4.0000000000000D+00  0.0000000000000D+00  0.0000000000000D+00
402  4.0100000000000D+00  0.0000000000000D+00  0.0000000000000D+00
403  4.0200000000000D+00  0.0000000000000D+00  0.0000000000000D+00
404  4.0300000000000D+00  0.0000000000000D+00  0.0000000000000D+00
405  4.0400000000000D+00  0.0000000000000D+00  0.0000000000000D+00
406  4.0500000000000D+00  0.0000000000000D+00  0.0000000000000D+00
407  4.0600000000000D+00  0.0000000000000D+00  0.0000000000000D+00
408  4.0700000000000D+00  0.0000000000000D+00  0.0000000000000D+00
409  4.0800000000000D+00  0.0000000000000D+00  0.0000000000000D+00
410  4.0900000000000D+00  0.0000000000000D+00  0.0000000000000D+00
411  4.1000000000000D+00  0.0000000000000D+00  0.0000000000000D+00
412  4.1100000000000D+00  0.0000000000000D+00  0.0000000000000D+00
413  4.1200000000000D+00  0.0000000000000D+00  0.0000000000000D+00
414  4.1300000000000D+00  0.0000000000000D+00  0.0000000000000D+00
415  4.1400000000000D+00  0.0000000000000D+00  0.0000000000000D+00
416  4.1500000000000D+00  0.0000000000000D+00  0.0000000000000D+00
417  4.1600000000000D+00  0.0000000000000D+00  0.0000000000000D+00
418  4.1700000000000D+00  0.0000000000000D+00  0.0000000000000D+00
419  4.1800000000000D+00  0.0000000000000D+00  0.0000000000000D+00
420  4.1900000000000D+00  0.0000000000000D+00  0.0000000000000D+00
421  4.2000000000000D+00  0.0000000000000D+00  0.0000000000000D+00
422  4.2100000000000D+00  0.0000000000000D+00  0.0000000000000D+00
423  4.2200000000000D+00  0.0000000000000D+00  0.0000000000000D+00
424  4.2300000000000D+00  0.0000000000000D+00  0.0000000000000D+00
425  4.2400000000000D+00  0.0000000000000D+00  0.0000000000000D+00
426  4.2500000000000D+00  0.0000000000000D+00  0.0000000000000D+00
427  4.2600000000000D+00  0.0000000000000D+00  0.0000000000000D+00
428  4.2700000000000D+00  0.0000000000000D+00  0.0000000000000D+00
429  4.2800000000000D+00  0.0000000000000D+00  0.0000000000000D+00
430  4.2900000000000D+00  0.0000000000000D+00  0.0000000000000D+00
431  4.3000000000000D+00  0.0000000000000D+00  0.0000000000000D+00
432  4.3100000000000D+00  0.0000000000000D+00  0.0000000000000D+00
433  4.3200000000000D+00  0.0000000000000D+00  0.0000000000000D+00
434  4.3300000000000D+00  0.0000000000000D+00  0.0000000000000D+00
435  4.3400000000000D+00  0.0000000000000D+00  0.0000000000000D+00
436  4.3500000000000D+00  0.0000000000000D+00  0.0000000000000D+00
437  4.3600000000000D+00  0.0000000000000D+00  0.0000000000000D+00
438  4.3700000000000D+00  0.0000000000000D+00  0.0000000000000D+00
439  4.3800000000000D+00  0.0000000000000D+00  0.0000000000000D+00
440  4.3900000000000D+00  0.0000000000000D+00  0.0000000000000D+00
441  4.4000000000000D+00  0.0000000000000D+00  0.0000000000000D+00
442  4.4100000000000D+00  0.0000000000000D+00  0.0000000000000D+00
443  4.4200000000000D+00  0.0000000000000D+00  0.0000000000000D+00