Sb    ONCVPSP-3.3.0  r_core=   2.51105   2.15035   2.60253
51.0000      5.0000      171103    zatom,zion,pspd
8   -1012   2     4   600     0    pspcod,pspxc,lmax,lloc,mmax,r2well
5.99000000  7.00000000  0.00000000    rchrg fchrg qchrg
2     2     2     0     0    nproj
1     1           extension_switch
0                         4.8593475427306D+00  5.7334280195478D-01
1  0.0000000000000D+00 -6.2496396946443D-12  3.2416777595579D-12
2  1.0000000000000D-02  2.2072970841667D-02 -6.7139050243702D-03
3  2.0000000000000D-02  4.4137536546005D-02 -1.3423574814053D-02
4  3.0000000000000D-02  6.6185315365273D-02 -2.0124782098252D-02
5  4.0000000000000D-02  8.8207972114044D-02 -2.6813315414122D-02
6  5.0000000000000D-02  1.1019724090984D-01 -3.3484986712020D-02
7  6.0000000000000D-02  1.3214494726952D-01 -4.0135638604561D-02
8  7.0000000000000D-02  1.5404302935416D-01 -4.6761151144582D-02
9  8.0000000000000D-02  1.7588355816113D-01 -5.3357448020330D-02
10  9.0000000000000D-02  1.9765875647019D-01 -5.9920502060271D-02
11  1.0000000000000D-01  2.1936101635927D-01 -6.6446339944628D-02
12  1.1000000000000D-01  2.4098291511626D-01 -7.2931046026382D-02
13  1.2000000000000D-01  2.6251722938514D-01 -7.9370765170675D-02
14  1.3000000000000D-01  2.8395694739766D-01 -8.5761704528457D-02
15  1.4000000000000D-01  3.0529527915615D-01 -9.2100134167933D-02
16  1.5000000000000D-01  3.2652566444829D-01 -9.8382386495365D-02
17  1.6000000000000D-01  3.4764177859096D-01 -1.0460485440585D-01
18  1.7000000000000D-01  3.6863753581735D-01 -1.1076398811368D-01
19  1.8000000000000D-01  3.8950709023939D-01 -1.1685629062200D-01
20  1.9000000000000D-01  4.1024483433604D-01 -1.2287831180157D-01
21  2.0000000000000D-01  4.3084539493677D-01 -1.2882664105899D-01
22  2.1000000000000D-01  4.5130362668928D-01 -1.3469789858606D-01
23  2.2000000000000D-01  4.7161460301961D-01 -1.4048872519264D-01
24  2.3000000000000D-01  4.9177360461287D-01 -1.4619577073752D-01
25  2.4000000000000D-01  5.1177610546245D-01 -1.5181568118282D-01
26  2.5000000000000D-01  5.3161775655487D-01 -1.5734508430957D-01
27  2.6000000000000D-01  5.5129436727706D-01 -1.6278057414386D-01
28  2.7000000000000D-01  5.7080188465157D-01 -1.6811869415443D-01
29  2.8000000000000D-01  5.9013637052332D-01 -1.7335591929460D-01
30  2.9000000000000D-01  6.0929397683978D-01 -1.7848863697269D-01
31  3.0000000000000D-01  6.2827091918269D-01 -1.8351312704643D-01
32  3.1000000000000D-01  6.4706344872587D-01 -1.8842554094793D-01
33  3.2000000000000D-01  6.6566782280866D-01 -1.9322188005626D-01
34  3.3000000000000D-01  6.8408027432810D-01 -1.9789797344521D-01
35  3.4000000000000D-01  7.0229698016606D-01 -2.0244945514310D-01
36  3.5000000000000D-01  7.2031402887856D-01 -2.0687174105118D-01
37  3.6000000000000D-01  7.3812738788470D-01 -2.1116000567543D-01
38  3.7000000000000D-01  7.5573287040098D-01 -2.1530915883465D-01
39  3.8000000000000D-01  7.7312610237393D-01 -2.1931382251478D-01
40  3.9000000000000D-01  7.9030248966917D-01 -2.2316830804597D-01
41  4.0000000000000D-01  8.0725718577892D-01 -2.2686659378449D-01
42  4.1000000000000D-01  8.2398506031188D-01 -2.3040230348595D-01
43  4.2000000000000D-01  8.4048066852985D-01 -2.3376868556060D-01
44  4.3000000000000D-01  8.5673822219404D-01 -2.3695859340370D-01
45  4.4000000000000D-01  8.7275156198082D-01 -2.3996446699615D-01
46  4.5000000000000D-01  8.8851413172201D-01 -2.4277831597102D-01
47  4.6000000000000D-01  9.0401895471783D-01 -2.4539170434122D-01
48  4.7000000000000D-01  9.1925861236283D-01 -2.4779573708248D-01
49  4.8000000000000D-01  9.3422522531488D-01 -2.4998104876245D-01
50  4.9000000000000D-01  9.4891043742568D-01 -2.5193779440373D-01
51  5.0000000000000D-01  9.6330540263854D-01 -2.5365564276327D-01
52  5.1000000000000D-01  9.7740077504401D-01 -2.5512377220443D-01
53  5.2000000000000D-01  9.9118670226842D-01 -2.5633086933111D-01
54  5.3000000000000D-01  1.0046528223529D+00 -2.5726513054456D-01
55  5.4000000000000D-01  1.0177882642613D+00 -2.5791426667406D-01
56  5.5000000000000D-01  1.0305816521373D+00 -2.5826551082194D-01
57  5.6000000000000D-01  1.0430211134077D+00 -2.5830562955168D-01
58  5.7000000000000D-01  1.0550942908101D+00 -2.5802093753468D-01
59  5.8000000000000D-01  1.0667883583979D+00 -2.5739731575768D-01
60  5.9000000000000D-01  1.0780900415559D+00 -2.5642023337762D-01
61  6.0000000000000D-01  1.0889856410319D+00 -2.5507477329499D-01
62  6.1000000000000D-01  1.0994610609695D+00 -2.5334566149988D-01
63  6.2000000000000D-01  1.1095018409008D+00 -2.5121730022731D-01
64  6.3000000000000D-01  1.1190931916351D+00 -2.4867380494002D-01
65  6.4000000000000D-01  1.1282200349526D+00 -2.4569904513803D-01
66  6.5000000000000D-01  1.1368670469918D+00 -2.4227668897407D-01
67  6.6000000000000D-01  1.1450187051925D+00 -2.3839025163441D-01
68  6.7000000000000D-01  1.1526593386338D+00 -2.3402314742334D-01
69  6.8000000000000D-01  1.1597731815854D+00 -2.2915874546886D-01
70  6.9000000000000D-01  1.1663444300663D+00 -2.2378042894563D-01
71  7.0000000000000D-01  1.1723573011857D+00 -2.1787165769004D-01
72  7.1000000000000D-01  1.1777960950200D+00 -2.1141603406019D-01
73  7.2000000000000D-01  1.1826452587619D+00 -2.0439737187284D-01
74  7.3000000000000D-01  1.1868894528600D+00 -1.9679976822744D-01
75  7.4000000000000D-01  1.1905136188496D+00 -1.8860767800657D-01
76  7.5000000000000D-01  1.1935030485637D+00 -1.7980599082147D-01
77  7.6000000000000D-01  1.1958434543980D+00 -1.7038011015121D-01
78  7.7000000000000D-01  1.1975210402929D+00 -1.6031603440415D-01
79  7.8000000000000D-01  1.1985225730867D+00 -1.4960043961228D-01
80  7.9000000000000D-01  1.1988354538861D+00 -1.3822076344988D-01
81  8.0000000000000D-01  1.1984477890944D+00 -1.2616529025231D-01
82  8.1000000000000D-01  1.1973484607328D+00 -1.1342323669341D-01
83  8.2000000000000D-01  1.1955271956917D+00 -9.9984837766262D-02
84  8.3000000000000D-01  1.1929746335455D+00 -8.5841432697831D-02
85  8.4000000000000D-01  1.1896823925676D+00 -7.0985550416287D-02
86  8.5000000000000D-01  1.1856431335885D+00 -5.5410994178865D-02
87  8.6000000000000D-01  1.1808506213443D+00 -3.9112924959207D-02
88  8.7000000000000D-01  1.1752997829703D+00 -2.2087943185552D-02
89  8.8000000000000D-01  1.1689867633077D+00 -4.3341684154663D-03
90  8.9000000000000D-01  1.1619089767005D+00  1.4148683471139D-02
91  9.0000000000000D-01  1.1540651549759D+00  3.3359225980956D-02
92  9.1000000000000D-01  1.1454553913153D+00  5.3294331038595D-02
93  9.2000000000000D-01  1.1360811797426D+00  7.3949061758814D-02
94  9.3000000000000D-01  1.1259454499742D+00  9.5316609374253D-02
95  9.4000000000000D-01  1.1150525973953D+00  1.1738823472755D-01
96  9.5000000000000D-01  1.1034085079522D+00  1.4015321472825D-01
97  9.6000000000000D-01  1.0910205777689D+00  1.6359879416532D-01
98  9.7000000000000D-01  1.0778977273251D+00  1.8771014325361D-01
99  9.8000000000000D-01  1.0640504100564D+00  2.1247032127816D-01
100  9.9000000000000D-01  1.0494906152635D+00  2.3786024668441D-01
101  1.0000000000000D+00  1.0342318652455D+00  2.6385867394342D-01
102  1.0100000000000D+00  1.0182892066005D+00  2.9044217750076D-01
103  1.0200000000000D+00  1.0016791956627D+00  3.1758514309656D-01
104  1.0300000000000D+00  9.8441987807694D-01  3.4525976671805D-01
105  1.0400000000000D+00  9.6653076253814D-01  3.7343606142152D-01
106  1.0500000000000D+00  9.4803278875224D-01  4.0208187223210D-01
107  1.0600000000000D+00  9.2894828970468D-01  4.3116289929998D-01
108  1.0700000000000D+00  9.0930094834924D-01  4.6064272946146D-01
109  1.0800000000000D+00  8.8911574885823D-01  4.9048287632127D-01
110  1.0900000000000D+00  8.6841892260276D-01  5.2064282893690D-01
111  1.1000000000000D+00  8.4723788905699D-01  5.5108010915306D-01
112  1.1100000000000D+00  8.2560119184700D-01  5.8175033759528D-01
113  1.1200000000000D+00  8.0353843018576D-01  6.1260730830092D-01
114  1.1300000000000D+00  7.8108018596279D-01  6.4360307192122D-01
115  1.1400000000000D+00  7.5825794677589D-01  6.7468802739478D-01
116  1.1500000000000D+00  7.3510402521441D-01  7.0581102194944D-01
117  1.1600000000000D+00  7.1165147471830D-01  7.3691945925977D-01
118  1.1700000000000D+00  6.8793400235861D-01  7.6795941553878D-01
119  1.1800000000000D+00  6.6398587889735D-01  7.9887576330912D-01
120  1.1900000000000D+00  6.3984184649908D-01  8.2961230255532D-01
121  1.2000000000000D+00  6.1553702447484D-01  8.6011189893531D-01
122  1.2100000000000D+00  5.9110681345320D-01  8.9031662867222D-01
123  1.2200000000000D+00  5.6658679837656D-01  9.2016792972134D-01
124  1.2300000000000D+00  5.4201265072617D-01  9.4960675877828D-01
125  1.2400000000000D+00  5.1742003038473D-01  9.7857375364985D-01
126  1.2500000000000D+00  4.9284448754363D-01  1.0070094004762D+00
127  1.2600000000000D+00  4.6832136506120D-01  1.0348542052723D+00
128  1.2700000000000D+00  4.4388570167797D-01  1.0620488692218D+00
129  1.2800000000000D+00  4.1957213648375D-01  1.0885344671216D+00
130  1.2900000000000D+00  3.9541481502797D-01  1.1142526283640D+00
131  1.3000000000000D+00  3.7144729745843D-01  1.1391457198161D+00
132  1.3100000000000D+00  3.4770246905071D-01  1.1631570299242D+00
133  1.3200000000000D+00  3.2421245348983D-01  1.1862309533727D+00
134  1.3300000000000D+00  3.0100852924956D-01  1.2083131755988D+00
135  1.3400000000000D+00  2.7812104937945D-01  1.2293508564503D+00
136  1.3500000000000D+00  2.5557936502464D-01  1.2492928122785D+00
137  1.3600000000000D+00  2.3341175295716D-01  1.2680896957325D+00
138  1.3700000000000D+00  2.1164534737002D-01  1.2856941725373D+00
139  1.3800000000000D+00  1.9030607621296D-01  1.3020610945191D+00
140  1.3900000000000D+00  1.6941860225099D-01  1.3171476681607D+00
141  1.4000000000000D+00  1.4900626906266D-01  1.3309136179688D+00
142  1.4100000000000D+00  1.2909105215933D-01  1.3433213439304D+00
143  1.4200000000000D+00  1.0969351532608D-01  1.3543360723948D+00
144  1.4300000000000D+00  9.0832772369271D-02  1.3639259996545D+00
145  1.4400000000000D+00  7.2526454299465D-02  1.3720624276073D+00
146  1.4500000000000D+00  5.4790682050396D-02  1.3787198908427D+00
147  1.4600000000000D+00  3.7640044779656D-02  1.3838762745148D+00
148  1.4700000000000D+00  2.1087583711253D-02  1.3875129224920D+00
149  1.4800000000000D+00  5.1447815921584D-03  1.3896147351106D+00
150  1.4900000000000D+00 -1.0178442378051D-02  1.3901702561520D+00
151  1.5000000000000D+00 -2.4873732120754D-02  1.3891717484349D+00
152  1.5100000000000D+00 -3.8934288907508D-02  1.3866152576642D+00
153  1.5200000000000D+00 -5.2354860334768D-02  1.3825006641152D+00
154  1.5300000000000D+00 -6.5131724167396D-02  1.3768317217376D+00
155  1.5400000000000D+00 -7.7262667262126D-02  1.3696160845159D+00
156  1.5500000000000D+00 -8.8746959666976D-02  1.3608653195878D+00
157  1.5600000000000D+00 -9.9585324204980D-02  1.3505949072271D+00
158  1.5700000000000D+00 -1.0977990163857D-01  1.3388242271546D+00
159  1.5800000000000D+00 -1.1933421176637D-01  1.3255765314600D+00
160  1.5900000000000D+00 -1.2825311059987D-01  1.3108789037178D+00
161  1.6000000000000D+00 -1.3654274396242D-01  1.2947622046089D+00
162  1.6100000000000D+00 -1.4421049772403D-01  1.2772610038540D+00
163  1.6200000000000D+00 -1.5126494499933D-01  1.2584134987558D+00
164  1.6300000000000D+00 -1.5771579056978D-01  1.2382614193959D+00
165  1.6400000000000D+00 -1.6357381285015D-01  1.2168499207676D+00
166  1.6500000000000D+00 -1.6885080368508D-01  1.1942274621221D+00
167  1.6600000000000D+00 -1.7355950629687D-01  1.1704456738074D+00
168  1.6700000000000D+00 -1.7771355167351D-01  1.1455592120812D+00
169  1.6800000000000D+00 -1.8132739372490D-01  1.1196256022046D+00
170  1.6900000000000D+00 -1.8441624348164D-01  1.0927050704602D+00
171  1.7000000000000D+00 -1.8699600267253D-01  1.0648603654602D+00
172  1.7100000000000D+00 -1.8908319692930D-01  1.0361565695047D+00
173  1.7200000000000D+00 -1.9069490895679D-01  1.0066609004495D+00
174  1.7300000000000D+00 -1.9184871188930D-01  9.7644250490512D-01
175  1.7400000000000D+00 -1.9256260315822D-01  9.4557224335861D-01
176  1.7500000000000D+00 -1.9285493907346D-01  9.1412246804516D-01
177  1.7600000000000D+00 -1.9274437040427D-01  8.8216679431992D-01
178  1.7700000000000D+00 -1.9224977916618D-01  8.4977986632394D-01
179  1.7800000000000D+00 -1.9139021682288D-01  8.1703711785488D-01
180  1.7900000000000D+00 -1.9018484414826D-01  7.8401452918930D-01
181  1.8000000000000D+00 -1.8865287283445D-01  7.5078838089625D-01
182  1.8100000000000D+00 -1.8681350917277D-01  7.1743500536783D-01
183  1.8200000000000D+00 -1.8468589971997D-01  6.8403053715217D-01
184  1.8300000000000D+00 -1.8228907940367D-01  6.5065066287687D-01
185  1.8400000000000D+00 -1.7964192176562D-01  6.1737037175068D-01
186  1.8500000000000D+00 -1.7676309192680D-01  5.8426370761863D-01
187  1.8600000000000D+00 -1.7367100183093D-01  5.5140352332564D-01
188  1.8700000000000D+00 -1.7038376831877D-01  5.1886123858816D-01
189  1.8800000000000D+00 -1.6691917365526D-01  4.8670660192683D-01
190  1.8900000000000D+00 -1.6329462884059D-01  4.5500745790805D-01
191  1.9000000000000D+00 -1.5952713953856D-01  4.2382952028972D-01
192  1.9100000000000D+00 -1.5563327463602D-01  3.9323615201183D-01
193  1.9200000000000D+00 -1.5162913753895D-01  3.6328815305740D-01
194  1.9300000000000D+00 -1.4753033988482D-01  3.3404355636416D-01
195  1.9400000000000D+00 -1.4335197801259D-01  3.0555743359936D-01
196  1.9500000000000D+00 -1.3910861167342D-01  2.7788171008596D-01
197  1.9600000000000D+00 -1.3481424532337D-01  2.5106499114851D-01
198  1.9700000000000D+00 -1.3048231158824D-01  2.2515239907290D-01
199  1.9800000000000D+00 -1.2612565697012D-01  2.0018542221310D-01
200  1.9900000000000D+00 -1.2175652966894D-01  1.7620177660627D-01
201  2.0000000000000D+00 -1.1738656929425D-01  1.5323527979566D-01
202  2.0100000000000D+00 -1.1302679852301D-01  1.3131573903709D-01
203  2.0200000000000D+00 -1.0868761638964D-01  1.1046885182833D-01
204  2.0300000000000D+00 -1.0437879321028D-01  9.0716121658437D-02
205  2.0400000000000D+00 -1.0010946694478D-01  7.2074787203172D-02
206  2.0500000000000D+00 -9.5888140867466D-02  5.4557766001179D-02
207  2.0600000000000D+00 -9.1722682401550D-02  3.8173613502655D-02
208  2.0700000000000D+00 -8.7620323055410D-02  2.2926495157887D-02
209  2.0800000000000D+00 -8.3587658488168D-02  8.8161720613020D-03
210  2.0900000000000D+00 -7.9630652363477D-02 -4.1619873406350D-03
211  2.1000000000000D+00 -7.5754637207750D-02 -1.6016996461070D-02
212  2.1100000000000D+00 -7.1964306496521D-02 -2.6762265266549D-02
213  2.1200000000000D+00 -6.8263755863104D-02 -3.6415392268845D-02
214  2.1300000000000D+00 -6.4656451760913D-02 -4.4998249971061D-02
215  2.1400000000000D+00 -6.1145201790667D-02 -5.2537069583986D-02
216  2.1500000000000D+00 -5.7732190480851D-02 -5.9062211370044D-02
217  2.1600000000000D+00 -5.4419085566627D-02 -6.4607611127130D-02
218  2.1700000000000D+00 -5.1207093718770D-02 -6.9210414196969D-02
219  2.1800000000000D+00 -4.8097041136107D-02 -7.2910569846066D-02
220  2.1900000000000D+00 -4.5089480313959D-02 -7.5750267784055D-02
221  2.2000000000000D+00 -4.2184773461396D-02 -7.7773480602944D-02
222  2.2100000000000D+00 -3.9383068382402D-02 -7.9025977021814D-02
223  2.2200000000000D+00 -3.6684301873212D-02 -7.9555221987520D-02
224  2.2300000000000D+00 -3.4088241163361D-02 -7.9410070340229D-02
225  2.2400000000000D+00 -3.1594507145239D-02 -7.8640539785792D-02
226  2.2500000000000D+00 -2.9202586512391D-02 -7.7297629070390D-02
227  2.2600000000000D+00 -2.6911854486921D-02 -7.5433074904500D-02
228  2.2700000000000D+00 -2.4721591024250D-02 -7.3099133983440D-02
229  2.2800000000000D+00 -2.2630996844152D-02 -7.0348358488061D-02
230  2.2900000000000D+00 -2.0639208076826D-02 -6.7233371434921D-02
231  2.3000000000000D+00 -1.8745310068072D-02 -6.3806642719556D-02
232  2.3100000000000D+00 -1.6948349727825D-02 -6.0120267171299D-02
233  2.3200000000000D+00 -1.5247346793020D-02 -5.6225745337882D-02
234  2.3300000000000D+00 -1.3641304221098D-02 -5.2173767184997D-02
235  2.3400000000000D+00 -1.2129217199678D-02 -4.8014001529471D-02
236  2.3500000000000D+00 -1.0710081353058D-02 -4.3794890075855D-02
237  2.3600000000000D+00 -9.3829000060458D-03 -3.9563447438542D-02
238  2.3700000000000D+00 -8.1466904316004D-03 -3.5365069739094D-02
239  2.3800000000000D+00 -7.0004893509567D-03 -3.1243349624845D-02
240  2.3900000000000D+00 -5.9433576389599D-03 -2.7239900497065D-02
241  2.4000000000000D+00 -4.9743843169500D-03 -2.3394191468279D-02
242  2.4100000000000D+00 -4.0926898456169D-03 -1.9743390296245D-02
243  2.4200000000000D+00 -3.2974288786353D-03 -1.6322218766399D-02
244  2.4300000000000D+00 -2.5881682891371D-03 -1.3165815522515D-02
245  2.4400000000000D+00 -1.9635710962184D-03 -1.0299109524038D-02
246  2.4500000000000D+00 -1.4224863661322D-03 -7.7453890408462D-03
247  2.4600000000000D+00 -9.6310482996600D-04 -5.5149239106206D-03
248  2.4700000000000D+00 -5.8775149972191D-04 -3.6596922373147D-03
249  2.4800000000000D+00 -2.9785007124938D-04 -2.2172302716996D-03
250  2.4900000000000D+00 -9.2385288040537D-05 -1.2221222781711D-03
251  2.5000000000000D+00  3.3407939631185D-05 -5.9818423898841D-04
252  2.5100000000000D+00  8.9036154790747D-05 -2.5473909315957D-04
253  2.5200000000000D+00  8.3648959046175D-05 -7.8886126875892D-05
254  2.5300000000000D+00  4.6649793944286D-05 -1.1641692353649D-05
255  2.5400000000000D+00  4.3158939037185D-06  2.9656703345280D-07
256  2.5500000000000D+00 -1.3685699004598D-05 -2.8994913349992D-06
257  2.5600000000000D+00 -1.3069910499224D-05 -4.7779171101257D-06
258  2.5700000000000D+00 -2.1286105228611D-06 -1.0075944846045D-06
259  2.5800000000000D+00  2.6243095977727D-06 -3.9005031711319D-07
260  2.5900000000000D+00  2.9523277866668D-06 -2.2639954821370D-07
261  2.6000000000000D+00  7.4213546819916D-07 -1.3249321975402D-08
262  2.6100000000000D+00 -1.9198257869833D-07  4.8559309796742D-07
263  2.6200000000000D+00 -2.4981721157650D-07  6.3187771785080D-07
264  2.6300000000000D+00 -9.0150194557333D-08  2.2802231616155D-07
265  2.6400000000000D+00  0.0000000000000D+00  0.0000000000000D+00
266  2.6500000000000D+00  0.0000000000000D+00  0.0000000000000D+00
267  2.6600000000000D+00  0.0000000000000D+00  0.0000000000000D+00
268  2.6700000000000D+00  0.0000000000000D+00  0.0000000000000D+00
269  2.6800000000000D+00  0.0000000000000D+00  0.0000000000000D+00
270  2.6900000000000D+00  0.0000000000000D+00  0.0000000000000D+00
271  2.7000000000000D+00  0.0000000000000D+00  0.0000000000000D+00
272  2.7100000000000D+00  0.0000000000000D+00  0.0000000000000D+00
273  2.7200000000000D+00  0.0000000000000D+00  0.0000000000000D+00
274  2.7300000000000D+00  0.0000000000000D+00  0.0000000000000D+00
275  2.7400000000000D+00  0.0000000000000D+00  0.0000000000000D+00
276  2.7500000000000D+00  0.0000000000000D+00  0.0000000000000D+00
277  2.7600000000000D+00  0.0000000000000D+00  0.0000000000000D+00
278  2.7700000000000D+00  0.0000000000000D+00  0.0000000000000D+00
279  2.7800000000000D+00  0.0000000000000D+00  0.0000000000000D+00
280  2.7900000000000D+00  0.0000000000000D+00  0.0000000000000D+00
281  2.8000000000000D+00  0.0000000000000D+00  0.0000000000000D+00
282  2.8100000000000D+00  0.0000000000000D+00  0.0000000000000D+00
283  2.8200000000000D+00  0.0000000000000D+00  0.0000000000000D+00
284  2.8300000000000D+00  0.0000000000000D+00  0.0000000000000D+00
285  2.8400000000000D+00  0.0000000000000D+00  0.0000000000000D+00
286  2.8500000000000D+00  0.0000000000000D+00  0.0000000000000D+00
287  2.8600000000000D+00  0.0000000000000D+00  0.0000000000000D+00
288  2.8700000000000D+00  0.0000000000000D+00  0.0000000000000D+00
289  2.8800000000000D+00  0.0000000000000D+00  0.0000000000000D+00
290  2.8900000000000D+00  0.0000000000000D+00  0.0000000000000D+00
291  2.9000000000000D+00  0.0000000000000D+00  0.0000000000000D+00
292  2.9100000000000D+00  0.0000000000000D+00  0.0000000000000D+00
293  2.9200000000000D+00  0.0000000000000D+00  0.0000000000000D+00
294  2.9300000000000D+00  0.0000000000000D+00  0.0000000000000D+00
295  2.9400000000000D+00  0.0000000000000D+00  0.0000000000000D+00
296  2.9500000000000D+00  0.0000000000000D+00  0.0000000000000D+00
297  2.9600000000000D+00  0.0000000000000D+00  0.0000000000000D+00
298  2.9700000000000D+00  0.0000000000000D+00  0.0000000000000D+00
299  2.9800000000000D+00  0.0000000000000D+00  0.0000000000000D+00
300  2.9900000000000D+00  0.0000000000000D+00  0.0000000000000D+00
301  3.0000000000000D+00  0.0000000000000D+00  0.0000000000000D+00
302  3.0100000000000D+00  0.0000000000000D+00  0.0000000000000D+00
303  3.0200000000000D+00  0.0000000000000D+00  0.0000000000000D+00
304  3.0300000000000D+00  0.0000000000000D+00  0.0000000000000D+00
305  3.0400000000000D+00  0.0000000000000D+00  0.0000000000000D+00
306  3.0500000000000D+00  0.0000000000000D+00  0.0000000000000D+00
307  3.0600000000000D+00  0.0000000000000D+00  0.0000000000000D+00
308  3.0700000000000D+00  0.0000000000000D+00  0.0000000000000D+00
309  3.0800000000000D+00  0.0000000000000D+00  0.0000000000000D+00
310  3.0900000000000D+00  0.0000000000000D+00  0.0000000000000D+00
311  3.1000000000000D+00  0.0000000000000D+00  0.0000000000000D+00
312  3.1100000000000D+00  0.0000000000000D+00  0.0000000000000D+00
313  3.1200000000000D+00  0.0000000000000D+00  0.0000000000000D+00
314  3.1300000000000D+00  0.0000000000000D+00  0.0000000000000D+00
315  3.1400000000000D+00  0.0000000000000D+00  0.0000000000000D+00
316  3.1500000000000D+00  0.0000000000000D+00  0.0000000000000D+00
317  3.1600000000000D+00  0.0000000000000D+00  0.0000000000000D+00
318  3.1700000000000D+00  0.0000000000000D+00  0.0000000000000D+00
319  3.1800000000000D+00  0.0000000000000D+00  0.0000000000000D+00
320  3.1900000000000D+00  0.0000000000000D+00  0.0000000000000D+00
321  3.2000000000000D+00  0.0000000000000D+00  0.0000000000000D+00
322  3.2100000000000D+00  0.0000000000000D+00  0.0000000000000D+00
323  3.2200000000000D+00  0.0000000000000D+00  0.0000000000000D+00
324  3.2300000000000D+00  0.0000000000000D+00  0.0000000000000D+00
325  3.2400000000000D+00  0.0000000000000D+00  0.0000000000000D+00
326  3.2500000000000D+00  0.0000000000000D+00  0.0000000000000D+00
327  3.2600000000000D+00  0.0000000000000D+00  0.0000000000000D+00
328  3.2700000000000D+00  0.0000000000000D+00  0.0000000000000D+00
329  3.2800000000000D+00  0.0000000000000D+00  0.0000000000000D+00
330  3.2900000000000D+00  0.0000000000000D+00  0.0000000000000D+00
331  3.3000000000000D+00  0.0000000000000D+00  0.0000000000000D+00
332  3.3100000000000D+00  0.0000000000000D+00  0.0000000000000D+00
333  3.3200000000000D+00  0.0000000000000D+00  0.0000000000000D+00
334  3.3300000000000D+00  0.0000000000000D+00  0.0000000000000D+00
335  3.3400000000000D+00  0.0000000000000D+00  0.0000000000000D+00
336  3.3500000000000D+00  0.0000000000000D+00  0.0000000000000D+00
337  3.3600000000000D+00  0.0000000000000D+00  0.0000000000000D+00
338  3.3700000000000D+00  0.0000000000000D+00  0.0000000000000D+00
339  3.3800000000000D+00  0.0000000000000D+00  0.0000000000000D+00
340  3.3900000000000D+00  0.0000000000000D+00  0.0000000000000D+00
341  3.4000000000000D+00  0.0000000000000D+00  0.0000000000000D+00
342  3.4100000000000D+00  0.0000000000000D+00  0.0000000000000D+00
343  3.4200000000000D+00  0.0000000000000D+00  0.0000000000000D+00
344  3.4300000000000D+00  0.0000000000000D+00  0.0000000000000D+00
345  3.4400000000000D+00  0.0000000000000D+00  0.0000000000000D+00
346  3.4500000000000D+00  0.0000000000000D+00  0.0000000000000D+00
347  3.4600000000000D+00  0.0000000000000D+00  0.0000000000000D+00
348  3.4700000000000D+00  0.0000000000000D+00  0.0000000000000D+00
349  3.4800000000000D+00  0.0000000000000D+00  0.0000000000000D+00
350  3.4900000000000D+00  0.0000000000000D+00  0.0000000000000D+00
351  3.5000000000000D+00  0.0000000000000D+00  0.0000000000000D+00
352  3.5100000000000D+00  0.0000000000000D+00  0.0000000000000D+00
353  3.5200000000000D+00  0.0000000000000D+00  0.0000000000000D+00
354  3.5300000000000D+00  0.0000000000000D+00  0.0000000000000D+00
355  3.5400000000000D+00  0.0000000000000D+00  0.0000000000000D+00
356  3.5500000000000D+00  0.0000000000000D+00  0.0000000000000D+00
357  3.5600000000000D+00  0.0000000000000D+00  0.0000000000000D+00
358  3.5700000000000D+00  0.0000000000000D+00  0.0000000000000D+00
359  3.5800000000000D+00  0.0000000000000D+00  0.0000000000000D+00
360  3.5900000000000D+00  0.0000000000000D+00  0.0000000000000D+00
361  3.6000000000000D+00  0.0000000000000D+00  0.0000000000000D+00
362  3.6100000000000D+00  0.0000000000000D+00  0.0000000000000D+00
363  3.6200000000000D+00  0.0000000000000D+00  0.0000000000000D+00
364  3.6300000000000D+00  0.0000000000000D+00  0.0000000000000D+00
365  3.6400000000000D+00  0.0000000000000D+00  0.0000000000000D+00
366  3.6500000000000D+00  0.0000000000000D+00  0.0000000000000D+00
367  3.6600000000000D+00  0.0000000000000D+00  0.0000000000000D+00
368  3.6700000000000D+00  0.0000000000000D+00  0.0000000000000D+00
369  3.6800000000000D+00  0.0000000000000D+00  0.0000000000000D+00
370  3.6900000000000D+00  0.0000000000000D+00  0.0000000000000D+00
371  3.7000000000000D+00  0.0000000000000D+00  0.0000000000000D+00
372  3.7100000000000D+00  0.0000000000000D+00  0.0000000000000D+00
373  3.7200000000000D+00  0.0000000000000D+00  0.0000000000000D+00
374  3.7300000000000D+00  0.0000000000000D+00  0.0000000000000D+00
375  3.7400000000000D+00  0.0000000000000D+00  0.0000000000000D+00
376  3.7500000000000D+00  0.0000000000000D+00  0.0000000000000D+00
377  3.7600000000000D+00  0.0000000000000D+00  0.0000000000000D+00
378  3.7700000000000D+00  0.0000000000000D+00  0.0000000000000D+00
379  3.7800000000000D+00  0.0000000000000D+00  0.0000000000000D+00
380  3.7900000000000D+00  0.0000000000000D+00  0.0000000000000D+00
381  3.8000000000000D+00  0.0000000000000D+00  0.0000000000000D+00
382  3.8100000000000D+00  0.0000000000000D+00  0.0000000000000D+00
383  3.8200000000000D+00  0.0000000000000D+00  0.0000000000000D+00
384  3.8300000000000D+00  0.0000000000000D+00  0.0000000000000D+00
385  3.8400000000000D+00  0.0000000000000D+00  0.0000000000000D+00
386  3.8500000000000D+00  0.0000000000000D+00  0.0000000000000D+00
387  3.8600000000000D+00  0.0000000000000D+00  0.0000000000000D+00
388  3.8700000000000D+00  0.0000000000000D+00  0.0000000000000D+00
389  3.8800000000000D+00  0.0000000000000D+00  0.0000000000000D+00
390  3.8900000000000D+00  0.0000000000000D+00  0.0000000000000D+00
391  3.9000000000000D+00  0.0000000000000D+00  0.0000000000000D+00
392  3.9100000000000D+00  0.0000000000000D+00  0.0000000000000D+00
393  3.9200000000000D+00  0.0000000000000D+00  0.0000000000000D+00
394  3.9300000000000D+00  0.0000000000000D+00  0.0000000000000D+00
395  3.9400000000000D+00  0.0000000000000D+00  0.0000000000000D+00
396  3.9500000000000D+00  0.0000000000000D+00  0.0000000000000D+00
397  3.9600000000000D+00  0.0000000000000D+00  0.0000000000000D+00
398  3.9700000000000D+00  0.0000000000000D+00  0.0000000000000D+00
399  3.9800000000000D+00  0.0000000000000D+00  0.0000000000000D+00
400  3.9900000000000D+00  0.0000000000000D+00  0.0000000000000D+00
401  4.0000000000000D+00  0.0000000000000D+00  0.0000000000000D+00
402  4.0100000000000D+00  0.0000000000000D+00  0.0000000000000D+00
403  4.0200000000000D+00  0.0000000000000D+00  0.0000000000000D+00
404  4.0300000000000D+00  0.0000000000000D+00  0.0000000000000D+00
405  4.0400000000000D+00  0.0000000000000D+00  0.0000000000000D+00
406  4.0500000000000D+00  0.0000000000000D+00  0.0000000000000D+00
407  4.0600000000000D+00  0.0000000000000D+00  0.0000000000000D+00
408  4.0700000000000D+00  0.0000000000000D+00  0.0000000000000D+00
409  4.0800000000000D+00  0.0000000000000D+00  0.0000000000000D+00
410  4.0900000000000D+00  0.0000000000000D+00  0.0000000000000D+00
411  4.1000000000000D+00  0.0000000000000D+00  0.0000000000000D+00
412  4.1100000000000D+00  0.0000000000000D+00  0.0000000000000D+00
413  4.1200000000000D+00  0.0000000000000D+00  0.0000000000000D+00
414  4.1300000000000D+00  0.0000000000000D+00  0.0000000000000D+00
415  4.1400000000000D+00  0.0000000000000D+00  0.0000000000000D+00
416  4.1500000000000D+00  0.0000000000000D+00  0.0000000000000D+00
417  4.1600000000000D+00  0.0000000000000D+00  0.0000000000000D+00
418  4.1700000000000D+00  0.0000000000000D+00  0.0000000000000D+00
419  4.1800000000000D+00  0.0000000000000D+00  0.0000000000000D+00
420  4.1900000000000D+00  0.0000000000000D+00  0.0000000000000D+00
421  4.2000000000000D+00  0.0000000000000D+00  0.0000000000000D+00
422  4.2100000000000D+00  0.0000000000000D+00  0.0000000000000D+00
423  4.2200000000000D+00  0.0000000000000D+00  0.0000000000000D+00
424  4.2300000000000D+00  0.0000000000000D+00  0.0000000000000D+00
425  4.2400000000000D+00  0.0000000000000D+00  0.0000000000000D+00
426  4.2500000000000D+00  0.0000000000000D+00  0.0000000000000D+00
427  4.2600000000000D+00  0.0000000000000D+00  0.0000000000000D+00
428  4.2700000000000D+00  0.0000000000000D+00  0.0000000000000D+00
429  4.2800000000000D+00  0.0000000000000D+00  0.0000000000000D+00
430  4.2900000000000D+00  0.0000000000000D+00  0.0000000000000D+00
431  4.3000000000000D+00  0.0000000000000D+00  0.0000000000000D+00
432  4.3100000000000D+00  0.0000000000000D+00  0.0000000000000D+00
433  4.3200000000000D+00  0.0000000000000D+00  0.0000000000000D+00
434  4.3300000000000D+00  0.0000000000000D+00  0.0000000000000D+00
435  4.3400000000000D+00  0.0000000000000D+00  0.0000000000000D+00
436  4.3500000000000D+00  0.0000000000000D+00  0.0000000000000D+00
437  4.3600000000000D+00  0.0000000000000D+00  0.0000000000000D+00
438  4.3700000000000D+00  0.0000000000000D+00  0.0000000000000D+00
439  4.3800000000000D+00  0.0000000000000D+00  0.0000000000000D+00
440  4.3900000000000D+00  0.0000000000000D+00  0.0000000000000D+00
441  4.4000000000000D+00  0.0000000000000D+00  0.0000000000000D+00
442  4.4100000000000D+00  0.0000000000000D+00  0.0000000000000D+00
443  4.4200000000000D+00  0.0000000000000D+00  0.0000000000000D+00