Na    ONCVPSP  r_core=  1.21  1.55
11.0000      9.0000      161003    zatom,zion,pspd
8 -116133   1     4   400     0    pspcod,pspxc,lmax,lloc,mmax,r2well
3.99000000  0.00000000  0.00000000    rchrg fchrg qchrg
2     2     0     0     0    nproj
1                 extension_switch
0                         2.4960651123489D+00 -6.7877683195584D-01
1  0.0000000000000D+00  4.2322663151850D-09  7.5274073085829D-10
2  1.0000000000000D-02  7.0177131184037D-02  1.7882922602966D-02
3  2.0000000000000D-02  1.4038371910755D-01  3.5876894559127D-02
4  3.0000000000000D-02  2.1064501369475D-01  5.4091636999888D-02
5  4.0000000000000D-02  2.8097792566597D-01  7.2634230114126D-02
6  5.0000000000000D-02  3.5138704190645D-01  9.1607831235170D-02
7  6.0000000000000D-02  4.2186085974744D-01  1.1111043865581D-01
8  7.0000000000000D-02  4.9236830808759D-01  1.3123371551847D-01
9  8.0000000000000D-02  5.6285561905068D-01  1.5206188737490D-01
10  9.0000000000000D-02  6.3324360869652D-01  1.7367072608734D-01
11  1.0000000000000D-01  7.0342541924784D-01  1.9612663166278D-01
12  1.1000000000000D-01  7.7326476845077D-01  2.1948582238763D-01
13  1.2000000000000D-01  8.4259474414595D-01  2.4379364227814D-01
14  1.3000000000000D-01  9.1121717399614D-01  2.6908399339883D-01
15  1.4000000000000D-01  9.7890259170728D-01  2.9537889904712D-01
16  1.5000000000000D-01  1.0453908121152D+00  3.2268820217591D-01
17  1.6000000000000D-01  1.1103921183137D+00  3.5100940174985D-01
18  1.7000000000000D-01  1.1735890547005D+00  3.8032762802525D-01
19  1.8000000000000D-01  1.2346388105494D+00  4.1061575603164D-01
20  1.9000000000000D-01  1.2931761696075D+00  4.4183465483580D-01
21  2.0000000000000D-01  1.3488169923949D+00  4.7393356850968D-01
22  2.1000000000000D-01  1.4011621894816D+00  5.0685062312200D-01
23  2.2000000000000D-01  1.4498021361474D+00  5.4051345255184D-01
24  2.3000000000000D-01  1.4943214716088D+00  5.7483993449923D-01
25  2.4000000000000D-01  1.5343042195356D+00  6.0973902676153D-01
26  2.5000000000000D-01  1.5693391609621D+00  6.4511169267279D-01
27  2.6000000000000D-01  1.5990253860188D+00  6.8085190357934D-01
28  2.7000000000000D-01  1.6229779472347D+00  7.1684770536368D-01
29  2.8000000000000D-01  1.6408335345472D+00  7.5298233534004D-01
30  2.9000000000000D-01  1.6522560906516D+00  7.8913537533717D-01
31  3.0000000000000D-01  1.6569422849550D+00  8.2518392646402D-01
32  3.1000000000000D-01  1.6546267651739D+00  8.6100379092539D-01
33  3.2000000000000D-01  1.6450871075441D+00  8.9647064631754D-01
34  3.3000000000000D-01  1.6281483896605D+00  9.3146119808884D-01
35  3.4000000000000D-01  1.6036873141117D+00  9.6585429629156D-01
36  3.5000000000000D-01  1.5716358162625D+00  9.9953200337315D-01
37  3.6000000000000D-01  1.5319840957056D+00  1.0323806005493D+00
38  3.7000000000000D-01  1.4847830179761D+00  1.0642915212550D+00
39  3.8000000000000D-01  1.4301458409993D+00  1.0951622012730D+00
40  3.9000000000000D-01  1.3682492293361D+00  1.1248968363703D+00
41  4.0000000000000D-01  1.2993335284674D+00  1.1534070396264D+00
42  4.1000000000000D-01  1.2237022810210D+00  1.1806123920779D+00
43  4.2000000000000D-01  1.1417209768384D+00  1.2064408818297D+00
44  4.3000000000000D-01  1.0538150389895D+00  1.2308292283592D+00
45  4.4000000000000D-01  9.6046705811829D-01  1.2537230903517D+00
46  4.5000000000000D-01  8.6221329770993D-01  1.2750771570303D+00
47  4.6000000000000D-01  7.5963950285994D-01  1.2948551245541D+00
48  4.7000000000000D-01  6.5337605477338D-01  1.3130295606431D+00
49  4.8000000000000D-01  5.4409252237575D-01  1.3295816621121D+00
50  4.9000000000000D-01  4.3249167096245D-01  1.3445009114476D+00
51  5.0000000000000D-01  3.1930299561818D-01  1.3577846399190D+00
52  5.1000000000000D-01  2.0527585409778D-01  1.3694375059576D+00
53  5.2000000000000D-01  9.1172279866898D-02  1.3794708986485D+00
54  5.3000000000000D-01 -2.2240439030641D-02  1.3879022771449D+00
55  5.4000000000000D-01 -1.3419732575510D-01  1.3947544576239D+00
56  5.5000000000000D-01 -2.4394333290065D-01  1.4000548600360D+00
57  5.6000000000000D-01 -3.5074091950953D-01  1.4038347273578D+00
58  5.7000000000000D-01 -4.5387749299548D-01  1.4061283303307D+00
59  5.8000000000000D-01 -5.5267262314573D-01  1.4069721707516D+00
60  5.9000000000000D-01 -6.4648493767676D-01  1.4064041962712D+00
61  6.0000000000000D-01 -7.3471861233655D-01  1.4044630393667D+00
62  6.1000000000000D-01 -8.1682937328799D-01  1.4011872926717D+00
63  6.2000000000000D-01 -8.9232993532689D-01  1.3966148321949D+00
64  6.3000000000000D-01 -9.6079480643704D-01  1.3907821991344D+00
65  6.4000000000000D-01 -1.0218643970420D+00  1.3837240500180D+00
66  6.5000000000000D-01 -1.0752483810664D+00  1.3754726837802D+00
67  6.6000000000000D-01 -1.1207282654493D+00  1.3660576531413D+00
68  6.7000000000000D-01 -1.1581591348663D+00  1.3555054663028D+00
69  6.8000000000000D-01 -1.1874705490413D+00  1.3438393835348D+00
70  6.9000000000000D-01 -1.2086665810376D+00  1.3310793117207D+00
71  7.0000000000000D-01 -1.2218249960812D+00  1.3172417983731D+00
72  7.1000000000000D-01 -1.2270955816918D+00  1.3023401250617D+00
73  7.2000000000000D-01 -1.2246976510369D+00  1.2863844986161D+00
74  7.3000000000000D-01 -1.2149167523013D+00  1.2693823369105D+00
75  7.4000000000000D-01 -1.1981006273063D+00  1.2513386445366D+00
76  7.5000000000000D-01 -1.1746544725321D+00  1.2322564722226D+00
77  7.6000000000000D-01 -1.1450355649173D+00  1.2121374525104D+00
78  7.7000000000000D-01 -1.1097473231724D+00  1.1909824029579D+00
79  7.8000000000000D-01 -1.0693328828358D+00  1.1687919870147D+00
80  7.9000000000000D-01 -1.0243682696713D+00  1.1455674217486D+00
81  8.0000000000000D-01 -9.7545526127959D-01  1.1213112207848D+00
82  8.1000000000000D-01 -9.2321403083414D-01  1.0960279601746D+00
83  8.2000000000000D-01 -8.6827566962038D-01  1.0697250544472D+00
84  8.3000000000000D-01 -8.1127468649660D-01  1.0424135298210D+00
85  8.4000000000000D-01 -7.5284158249419D-01  1.0141087814676D+00
86  8.5000000000000D-01 -6.9359559752017D-01  9.8483130183329D-01
87  8.6000000000000D-01 -6.3413772353199D-01  9.5460736732522D-01
88  8.7000000000000D-01 -5.7504407465588D-01  9.2346967116653D-01
89  8.8000000000000D-01 -5.1685969956439D-01  8.9145789089976D-01
90  8.9000000000000D-01 -4.6009291508625D-01  8.5861917987208D-01
91  9.0000000000000D-01 -4.0521023257576D-01  8.2500857304967D-01
92  9.1000000000000D-01 -3.5263194012216D-01  7.9068929867203D-01
93  9.2000000000000D-01 -3.0272839434674D-01  7.5573298855286D-01
94  9.3000000000000D-01 -2.5581706544526D-01  7.2021978124342D-01
95  9.4000000000000D-01 -2.1216036842521D-01  6.8423831377770D-01
96  9.5000000000000D-01 -1.7196430232821D-01  6.4788559929275D-01
97  9.6000000000000D-01 -1.3537790764516D-01  6.1126678945596D-01
98  9.7000000000000D-01 -1.0249354068324D-01  5.7449482225686D-01
99  9.8000000000000D-01 -7.3347951830941D-02  5.3768995740156D-01
100  9.9000000000000D-01 -4.7924143266951D-02  5.0097920317459D-01
101  1.0000000000000D+00 -2.6153970577949D-02  4.6449564021644D-01
102  1.0100000000000D+00 -7.9214420945806D-03  4.2837764919042D-01
103  1.0200000000000D+00  6.9333401916297D-03  3.9276805073852D-01
104  1.0300000000000D+00  1.8609663599794D-02  3.5781316746481D-01
105  1.0400000000000D+00  2.7341185013354D-02  3.2366181882343D-01
106  1.0500000000000D+00  3.3390489426837D-02  2.9046426088175D-01
107  1.0600000000000D+00  3.7043313721853D-02  2.5837108378092D-01
108  1.0700000000000D+00  3.8602527441056D-02  2.2753208040857D-01
109  1.0800000000000D+00  3.8381965945567D-02  1.9809510031566D-01
110  1.0900000000000D+00  3.6700213422805D-02  1.7020490320371D-01
111  1.1000000000000D+00  3.3874434290050D-02  1.4400202645745D-01
112  1.1100000000000D+00  3.0214350765145D-02  1.1962168107591D-01
113  1.1200000000000D+00  2.6016462508088D-02  9.7192690074887D-02
114  1.1300000000000D+00  2.1558600371105D-02  7.6836482859702D-02
115  1.1400000000000D+00  1.7094903082527D-02  5.8666158591309D-02
116  1.1500000000000D+00  1.2851298083067D-02  4.2785630446135D-02
117  1.1600000000000D+00  9.0215616378677D-03  2.9288861771185D-02
118  1.1700000000000D+00  5.7659600383608D-03  1.8264565966365D-02
119  1.1800000000000D+00  3.1950289634666D-03  9.7593843963346D-03
120  1.1900000000000D+00  1.3964731180153D-03  3.8530992951332D-03
121  1.2000000000000D+00  4.8559220179226D-04  7.6084053536568D-04
122  1.2100000000000D+00  1.5306049834222D-04 -1.4145238939681D-04
123  1.2200000000000D+00  1.1302184360131D-05 -3.4850208532824D-05
124  1.2300000000000D+00 -9.6043523010230D-06  4.3520048576306D-05
125  1.2400000000000D+00  2.4833023305359D-06 -6.7502630790422D-06
126  1.2500000000000D+00  5.7718887250015D-07 -1.8018053152677D-06
127  1.2600000000000D+00 -5.9444431471834D-07  9.7479318739298D-08
128  1.2700000000000D+00  0.0000000000000D+00  0.0000000000000D+00
129  1.2800000000000D+00  0.0000000000000D+00  0.0000000000000D+00
130  1.2900000000000D+00  0.0000000000000D+00  0.0000000000000D+00
131  1.3000000000000D+00  0.0000000000000D+00  0.0000000000000D+00
132  1.3100000000000D+00  0.0000000000000D+00  0.0000000000000D+00
133  1.3200000000000D+00  0.0000000000000D+00  0.0000000000000D+00
134  1.3300000000000D+00  0.0000000000000D+00  0.0000000000000D+00
135  1.3400000000000D+00  0.0000000000000D+00  0.0000000000000D+00
136  1.3500000000000D+00  0.0000000000000D+00  0.0000000000000D+00
137  1.3600000000000D+00  0.0000000000000D+00  0.0000000000000D+00
138  1.3700000000000D+00  0.0000000000000D+00  0.0000000000000D+00
139  1.3800000000000D+00  0.0000000000000D+00  0.0000000000000D+00
140  1.3900000000000D+00  0.0000000000000D+00  0.0000000000000D+00
141  1.4000000000000D+00  0.0000000000000D+00  0.0000000000000D+00
142  1.4100000000000D+00  0.0000000000000D+00  0.0000000000000D+00
143  1.4200000000000D+00  0.0000000000000D+00  0.0000000000000D+00
144  1.4300000000000D+00  0.0000000000000D+00  0.0000000000000D+00
145  1.4400000000000D+00  0.0000000000000D+00  0.0000000000000D+00
146  1.4500000000000D+00  0.0000000000000D+00  0.0000000000000D+00
147  1.4600000000000D+00  0.0000000000000D+00  0.0000000000000D+00
148  1.4700000000000D+00  0.0000000000000D+00  0.0000000000000D+00
149  1.4800000000000D+00  0.0000000000000D+00  0.0000000000000D+00
150  1.4900000000000D+00  0.0000000000000D+00  0.0000000000000D+00
151  1.5000000000000D+00  0.0000000000000D+00  0.0000000000000D+00
152  1.5100000000000D+00  0.0000000000000D+00  0.0000000000000D+00
153  1.5200000000000D+00  0.0000000000000D+00  0.0000000000000D+00
154  1.5300000000000D+00  0.0000000000000D+00  0.0000000000000D+00
155  1.5400000000000D+00  0.0000000000000D+00  0.0000000000000D+00
156  1.5500000000000D+00  0.0000000000000D+00  0.0000000000000D+00
157  1.5600000000000D+00  0.0000000000000D+00  0.0000000000000D+00
158  1.5700000000000D+00  0.0000000000000D+00  0.0000000000000D+00
159  1.5800000000000D+00  0.0000000000000D+00  0.0000000000000D+00
160  1.5900000000000D+00  0.0000000000000D+00  0.0000000000000D+00
161  1.6000000000000D+00  0.0000000000000D+00  0.0000000000000D+00
162  1.6100000000000D+00  0.0000000000000D+00  0.0000000000000D+00
163  1.6200000000000D+00  0.0000000000000D+00  0.0000000000000D+00
164  1.6300000000000D+00  0.0000000000000D+00  0.0000000000000D+00
165  1.6400000000000D+00  0.0000000000000D+00  0.0000000000000D+00
166  1.6500000000000D+00  0.0000000000000D+00  0.0000000000000D+00
167  1.6600000000000D+00  0.0000000000000D+00  0.0000000000000D+00
168  1.6700000000000D+00  0.0000000000000D+00  0.0000000000000D+00
169  1.6800000000000D+00  0.0000000000000D+00  0.0000000000000D+00
170  1.6900000000000D+00  0.0000000000000D+00  0.0000000000000D+00
171  1.7000000000000D+00  0.0000000000000D+00  0.0000000000000D+00
172  1.7100000000000D+00  0.0000000000000D+00  0.0000000000000D+00
173  1.7200000000000D+00  0.0000000000000D+00  0.0000000000000D+00
174  1.7300000000000D+00  0.0000000000000D+00  0.0000000000000D+00
175  1.7400000000000D+00  0.0000000000000D+00  0.0000000000000D+00
176  1.7500000000000D+00  0.0000000000000D+00  0.0000000000000D+00
177  1.7600000000000D+00  0.0000000000000D+00  0.0000000000000D+00
178  1.7700000000000D+00  0.0000000000000D+00  0.0000000000000D+00
179  1.7800000000000D+00  0.0000000000000D+00  0.0000000000000D+00
180  1.7900000000000D+00  0.0000000000000D+00  0.0000000000000D+00
181  1.8000000000000D+00  0.0000000000000D+00  0.0000000000000D+00
182  1.8100000000000D+00  0.0000000000000D+00  0.0000000000000D+00
183  1.8200000000000D+00  0.0000000000000D+00  0.0000000000000D+00
184  1.8300000000000D+00  0.0000000000000D+00  0.0000000000000D+00
185  1.8400000000000D+00  0.0000000000000D+00  0.0000000000000D+00
186  1.8500000000000D+00  0.0000000000000D+00  0.0000000000000D+00
187  1.8600000000000D+00  0.0000000000000D+00  0.0000000000000D+00
188  1.8700000000000D+00  0.0000000000000D+00  0.0000000000000D+00
189  1.8800000000000D+00  0.0000000000000D+00  0.0000000000000D+00
190  1.8900000000000D+00  0.0000000000000D+00  0.0000000000000D+00
191  1.9000000000000D+00  0.0000000000000D+00  0.0000000000000D+00
192  1.9100000000000D+00  0.0000000000000D+00  0.0000000000000D+00
193  1.9200000000000D+00  0.0000000000000D+00  0.0000000000000D+00
194  1.9300000000000D+00  0.0000000000000D+00  0.0000000000000D+00
195  1.9400000000000D+00  0.0000000000000D+00  0.0000000000000D+00
196  1.9500000000000D+00  0.0000000000000D+00  0.0000000000000D+00
197  1.9600000000000D+00  0.0000000000000D+00  0.0000000000000D+00
198  1.9700000000000D+00  0.0000000000000D+00  0.0000000000000D+00
199  1.9800000000000D+00  0.0000000000000D+00  0.0000000000000D+00
200  1.9900000000000D+00  0.0000000000000D+00  0.0000000000000D+00
201  2.0000000000000D+00  0.0000000000000D+00  0.0000000000000D+00
202  2.0100000000000D+00  0.0000000000000D+00  0.0000000000000D+00
203  2.0200000000000D+00  0.0000000000000D+00  0.0000000000000D+00
204  2.0300000000000D+00  0.0000000000000D+00  0.0000000000000D+00
205  2.0400000000000D+00  0.0000000000000D+00  0.0000000000000D+00
206  2.0500000000000D+00  0.0000000000000D+00  0.0000000000000D+00
207  2.0600000000000D+00  0.0000000000000D+00  0.0000000000000D+00
208  2.0700000000000D+00  0.0000000000000D+00  0.0000000000000D+00
209  2.0800000000000D+00  0.0000000000000D+00  0.0000000000000D+00
210  2.0900000000000D+00  0.0000000000000D+00  0.0000000000000D+00
211  2.1000000000000D+00  0.0000000000000D+00  0.0000000000000D+00
212  2.1100000000000D+00  0.0000000000000D+00  0.0000000000000D+00
213  2.1200000000000D+00  0.0000000000000D+00  0.0000000000000D+00
214  2.1300000000000D+00  0.0000000000000D+00  0.0000000000000D+00
215  2.1400000000000D+00  0.0000000000000D+00  0.0000000000000D+00
216  2.1500000000000D+00  0.0000000000000D+00  0.0000000000000D+00
217  2.1600000000000D+00  0.0000000000000D+00  0.0000000000000D+00
218  2.1700000000000D+00  0.0000000000000D+00  0.0000000000000D+00
219  2.1800000000000D+00  0.0000000000000D+00  0.0000000000000D+00
220  2.1900000000000D+00  0.0000000000000D+00  0.0000000000000D+00
221  2.2000000000000D+00  0.0000000000000D+00  0.0000000000000D+00
222  2.2100000000000D+00  0.0000000000000D+00  0.0000000000000D+00
223  2.2200000000000D+00  0.0000000000000D+00  0.0000000000000D+00
224  2.2300000000000D+00  0.0000000000000D+00  0.0000000000000D+00
225  2.2400000000000D+00  0.0000000000000D+00  0.0000000000000D+00
226  2.2500000000000D+00  0.0000000000000D+00  0.0000000000000D+00
227  2.2600000000000D+00  0.0000000000000D+00  0.0000000000000D+00
228  2.2700000000000D+00  0.0000000000000D+00  0.0000000000000D+00
229  2.2800000000000D+00  0.0000000000000D+00  0.0000000000000D+00
230  2.2900000000000D+00  0.0000000000000D+00  0.0000000000000D+00
231  2.3000000000000D+00  0.0000000000000D+00  0.0000000000000D+00
232  2.3100000000000D+00  0.0000000000000D+00  0.0000000000000D+00
233  2.3200000000000D+00  0.0000000000000D+00  0.0000000000000D+00
234  2.3300000000000D+00  0.0000000000000D+00  0.0000000000000D+00
235  2.3400000000000D+00  0.0000000000000D+00  0.0000000000000D+00
236  2.3500000000000D+00  0.0000000000000D+00  0.0000000000000D+00
237  2.3600000000000D+00  0.0000000000000D+00  0.0000000000000D+00
238  2.3700000000000D+00  0.0000000000000D+00  0.0000000000000D+00
239  2.3800000000000D+00  0.0000000000000D+00  0.0000000000000D+00
240  2.3900000000000D+00  0.0000000000000D+00  0.0000000000000D+00
241  2.4000000000000D+00  0.0000000000000D+00  0.0000000000000D+00
242  2.4100000000000D+00  0.0000000000000D+00  0.0000000000000D+00
243  2.4200000000000D+00  0.0000000000000D+00  0.0000000000000D+00
244  2.4300000000000D+00  0.0000000000000D+00  0.0000000000000D+00
245  2.4400000000000D+00  0.0000000000000D+00  0.0000000000000D+00
246  2.4500000000000D+00  0.0000000000000D+00  0.0000000000000D+00
247  2.4600000000000D+00  0.0000000000000D+00  0.0000000000000D+00
248  2.4700000000000D+00  0.0000000000000D+00  0.0000000000000D+00
249  2.4800000000000D+00  0.0000000000000D+00  0.0000000000000D+00
250  2.4900000000000D+00  0.0000000000000D+00  0.0000000000000D+00
251  2.5000000000000D+00  0.0000000000000D+00  0.0000000000000D+00
252  2.5100000000000D+00  0.0000000000000D+00  0.0000000000000D+00
253  2.5200000000000D+00  0.0000000000000D+00  0.0000000000000D+00
254  2.5300000000000D+00  0.0000000000000D+00  0.0000000000000D+00
255  2.5400000000000D+00  0.0000000000000D+00  0.0000000000000D+00
256  2.5500000000000D+00  0.0000000000000D+00  0.0000000000000D+00
257  2.5600000000000D+00  0.0000000000000D+00  0.0000000000000D+00
258  2.5700000000000D+00  0.0000000000000D+00  0.0000000000000D+00
259  2.5800000000000D+00  0.0000000000000D+00  0.0000000000000D+00
260  2.5900000000000D+00  0.0000000000000D+00  0.0000000000000D+00
261  2.6000000000000D+00  0.0000000000000D+00  0.0000000000000D+00
262  2.6100000000000D+00  0.0000000000000D+00  0.0000000000000D+00
263  2.6200000000000D+00  0.0000000000000D+00  0.0000000000000D+00
264  2.6300000000000D+00  0.0000000000000D+00  0.0000000000000D+00
265  2.6400000000000D+00  0.0000000000000D+00  0.0000000000000D+00
266  2.6500000000000D+00  0.0000000000000D+00  0.0000000000000D+00
267  2.6600000000000D+00  0.0000000000000D+00  0.0000000000000D+00
268  2.6700000000000D+00  0.0000000000000D+00  0.0000000000000D+00
269  2.6800000000000D+00  0.0000000000000D+00  0.0000000000000D+00
270  2.6900000000000D+00  0.0000000000000D+00  0.0000000000000D+00
271  2.7000000000000D+00  0.0000000000000D+00  0.0000000000000D+00
272  2.7100000000000D+00  0.0000000000000D+00  0.0000000000000D+00
273  2.7200000000000D+00  0.0000000000000D+00  0.0000000000000D+00
274  2.7300000000000D+00  0.0000000000000D+00  0.0000000000000D+00
275  2.7400000000000D+00  0.0000000000000D+00  0.0000000000000D+00
276  2.7500000000000D+00  0.0000000000000D+00  0.0000000000000D+00
277  2.7600000000000D+00  0.0000000000000D+00  0.0000000000000D+00
278  2.7700000000000D+00  0.0000000000000D+00  0.0000000000000D+00
279  2.7800000000000D+00  0.0000000000000D+00  0.0000000000000D+00
280  2.7900000000000D+00  0.0000000000000D+00  0.0000000000000D+00
281  2.8000000000000D+00  0.0000000000000D+00  0.0000000000000D+00
282  2.8100000000000D+00  0.0000000000000D+00  0.0000000000000D+00
283  2.8200000000000D+00  0.0000000000000D+00  0.0000000000000D+00
284  2.8300000000000D+00  0.0000000000000D+00  0.0000000000000D+00
285  2.8400000000000D+00  0.0000000000000D+00  0.0000000000000D+00
286  2.8500000000000D+00  0.0000000000000D+00  0.0000000000000D+00
287  2.8600000000000D+00  0.0000000000000D+00  0.0000000000000D+00
288  2.8700000000000D+00  0.0000000000000D+00  0.0000000000000D+00
289  2.8800000000000D+00  0.0000000000000D+00  0.0000000000000D+00
290  2.8900000000000D+00  0.0000000000000D+00  0.0000000000000D+00
291  2.9000000000000D+00  0.0000000000000D+00  0.0000000000000D+00
292  2.9100000000000D+00  0.0000000000000D+00  0.0000000000000D+00
293  2.9200000000000D+00  0.0000000000000D+00  0.0000000000000D+00
294  2.9300000000000D+00  0.0000000000000D+00  0.0000000000000D+00
295  2.9400000000000D+00  0.0000000000000D+00  0.0000000000000D+00
296  2.9500000000000D+00  0.0000000000000D+00  0.0000000000000D+00
297  2.9600000000000D+00  0.0000000000000D+00  0.0000000000000D+00
298  2.9700000000000D+00  0.0000000000000D+00  0.0000000000000D+00
299  2.9800000000000D+00  0.0000000000000D+00  0.0000000000000D+00
300  2.9900000000000D+00  0.0000000000000D+00  0.0000000000000D+00
301  3.0000000000000D+00  0.0000000000000D+00  0.0000000000000D+00
302  3.0100000000000D+00  0.0000000000000D+00  0.0000000000000D+00
303  3.0200000000000D+00  0.0000000000000D+00  0.0000000000000D+00
304  3.0300000000000D+00  0.0000000000000D+00  0.0000000000000D+00
305  3.0400000000000D+00  0.0000000000000D+00  0.0000000000000D+00
306  3.0500000000000D+00  0.0000000000000D+00  0.0000000000000D+00
307  3.0600000000000D+00  0.0000000000000D+00  0.0000000000000D+00
308  3.0700000000000D+00  0.0000000000000D+00  0.0000000000000D+00
309  3.0800000000000D+00  0.0000000000000D+00  0.0000000000000D+00
310  3.0900000000000D+00  0.0000000000000D+00  0.0000000000000D+00
311  3.1000000000000D+00  0.0000000000000D+00  0.0000000000000D+00
312  3.1100000000000D+00  0.0000000000000D+00  0.0000000000000D+00
313  3.1200000000000D+00  0.0000000000000D+00  0.0000000000000D+00
314  3.1300000000000D+00  0.0000000000000D+00  0.0000000000000D+00
315  3.1400000000000D+00  0.0000000000000D+00  0.0000000000000D+00
316  3.1500000000000D+00  0.0000000000000D+00  0.0000000000000D+00
317  3.1600000000000D+00  0.0000000000000D+00  0.0000000000000D+00
318  3.1700000000000D+00  0.0000000000000D+00  0.0000000000000D+00
319  3.1800000000000D+00  0.0000000000000D+00  0.0000000000000D+00
320  3.1900000000000D+00  0.0000000000000D+00  0.0000000000000D+00
321  3.2000000000000D+00  0.0000000000000D+00  0.0000000000000D+00
322  3.2100000000000D+00  0.0000000000000D+00  0.0000000000000D+00
323  3.2200000000000D+00  0.0000000000000D+00  0.0000000000000D+00
324  3.2300000000000D+00  0.0000000000000D+00  0.0000000000000D+00
325  3.2400000000000D+00  0.0000000000000D+00  0.0000000000000D+00
326  3.2500000000000D+00  0.0000000000000D+00  0.0000000000000D+00
327  3.2600000000000D+00  0.0000000000000D+00  0.0000000000000D+00
328  3.2700000000000D+00  0.0000000000000D+00  0.0000000000000D+00
329  3.2800000000000D+00  0.0000000000000D+00  0.0000000000000D+00
330  3.2900000000000D+00  0.0000000000000D+00  0.0000000000000D+00
331  3.3000000000000D+00  0.0000000000000D+00  0.0000000000000D+00
332  3.3100000000000D+00  0.0000000000000D+00  0.0000000000000D+00
333  3.3200000000000D+00  0.0000000000000D+00  0.0000000000000D+00
334  3.3300000000000D+00  0.0000000000000D+00  0.0000000000000D+00
335  3.3400000000000D+00  0.0000000000000D+00  0.0000000000000D+00
336  3.3500000000000D+00  0.0000000000000D+00  0.0000000000000D+00
337  3.3600000000000D+00  0.0000000000000D+00  0.0000000000000D+00
338  3.3700000000000D+00  0.0000000000000D+00  0.0000000000000D+00
339  3.3800000000000D+00  0.0000000000000D+00  0.0000000000000D+00
340  3.3900000000000D+00  0.0000000000000D+00  0.0000000000000D+00
341  3.4000000000000D+00  0.0000000000000D+00  0.0000000000000D+00
342  3.4100000000000D+00  0.0000000000000D+00  0.0000000000000D+00
343  3.4200000000000D+00  0.0000000000000D+00  0.0000000000000D+00
344  3.4300000000000D+00  0.0000000000000D+00  0.0000000000000D+00
345  3.4400000000000D+00  0.0000000000000D+00  0.0000000000000D+00
346  3.4500000000000D+00  0.0000000000000D+00  0.0000000000000D+00
347  3.4600000000000D+00  0.0000000000000D+00  0.0000000000000D+00
348  3.4700000000000D+00  0.0000000000000D+00  0.0000000000000D+00
349  3.4800000000000D+00  0.0000000000000D+00  0.0000000000000D+00
350  3.4900000000000D+00  0.0000000000000D+00  0.0000000000000D+00
351  3.5000000000000D+00  0.0000000000000D+00  0.0000000000000D+00
352  3.5100000000000D+00  0.0000000000000D+00  0.0000000000000D+00
353  3.5200000000000D+00  0.0000000000000D+00  0.0000000000000D+00
354  3.5300000000000D+00  0.0000000000000D+00  0.0000000000000D+00
355  3.5400000000000D+00  0.0000000000000D+00  0.0000000000000D+00
356  3.5500000000000D+00  0.0000000000000D+00  0.0000000000000D+00
357  3.5600000000000D+00  0.0000000000000D+00  0.0000000000000D+00
358  3.5700000000000D+00  0.0000000000000D+00  0.0000000000000D+00
359  3.5800000000000D+00  0.0000000000000D+00  0.0000000000000D+00
360  3.5900000000000D+00  0.0000000000000D+00  0.0000000000000D+00
361  3.6000000000000D+00  0.0000000000000D+00  0.0000000000000D+00
362  3.6100000000000D+00  0.0000000000000D+00  0.0000000000000D+00
363  3.6200000000000D+00  0.0000000000000D+00  0.0000000000000D+00
364  3.6300000000000D+00  0.0000000000000D+00  0.0000000000000D+00
365  3.6400000000000D+00  0.0000000000000D+00  0.0000000000000D+00
366  3.6500000000000D+00  0.0000000000000D+00  0.0000000000000D+00
367  3.6600000000000D+00  0.0000000000000D+00  0.0000000000000D+00
368  3.6700000000000D+00  0.0000000000000D+00  0.0000000000000D+00
369  3.6800000000000D+00  0.0000000000000D+00  0.0000000000000D+00
370  3.6900000000000D+00  0.0000000000000D+00  0.0000000000000D+00
371  3.7000000000000D+00  0.0000000000000D+00  0.0000000000000D+00
372  3.7100000000000D+00  0.0000000000000D+00  0.0000000000000D+00
373  3.7200000000000D+00  0.0000000000000D+00  0.0000000000000D+00
374  3.7300000000000D+00  0.0000000000000D+00  0.0000000000000D+00
375  3.7400000000000D+00  0.0000000000000D+00  0.0000000000000D+00
376  3.7500000000000D+00  0.0000000000000D+00  0.0000000000000D+00
377  3.7600000000000D+00  0.0000000000000D+00  0.0000000000000D+00
378  3.7700000000000D+00  0.0000000000000D+00  0.0000000000000D+00
379  3.7800000000000D+00  0.0000000000000D+00  0.0000000000000D+00
380  3.7900000000000D+00  0.0000000000000D+00  0.0000000000000D+00
381  3.8000000000000D+00  0.0000000000000D+00  0.0000000000000D+00
382  3.8100000000000D+00  0.0000000000000D+00  0.0000000000000D+00
383  3.8200000000000D+00  0.0000000000000D+00  0.0000000000000D+00
384  3.8300000000000D+00  0.0000000000000D+00  0.0000000000000D+00
385  3.8400000000000D+00  0.0000000000000D+00  0.0000000000000D+00
386  3.8500000000000D+00  0.0000000000000D+00  0.0000000000000D+00
387  3.8600000000000D+00  0.0000000000000D+00  0.0000000000000D+00
388  3.8700000000000D+00  0.0000000000000D+00  0.0000000000000D+00
389  3.8800000000000D+00  0.0000000000000D+00  0.0000000000000D+00
390  3.8900000000000D+00  0.0000000000000D+00  0.0000000000000D+00
391  3.9000000000000D+00  0.0000000000000D+00  0.0000000000000D+00
392  3.9100000000000D+00  0.0000000000000D+00  0.0000000000000D+00
393  3.9200000000000D+00  0.0000000000000D+00  0.0000000000000D+00
394  3.9300000000000D+00  0.0000000000000D+00  0.0000000000000D+00
395  3.9400000000000D+00  0.0000000000000D+00  0.0000000000000D+00
396  3.9500000000000D+00  0.0000000000000D+00  0.0000000000000D+00
397  3.9600000000000D+00  0.0000000000000D+00  0.0000000000000D+00
398  3.9700000000000D+00  0.0000000000000D+00  0.0000000000000D+00
399  3.9800000000000D+00  0.0000000000000D+00  0.0000000000000D+00
400  3.9900000000000D+00  0.0000000000000D+00  0.0000000000000D+00
1                        -6.8091424294169D+00 -2.4509004468984D+00
1  0.0000000000000D+00  6.1771990300663D-10 -8.2851663030237D-10
2  1.0000000000000D-02  2.2687119249869D-03 -1.0472200562901D-03
3  2.0000000000000D-02  9.0629123936320D-03 -4.1787388449270D-03
4  3.0000000000000D-02  2.0346857717987D-02 -9.3642018521929D-03
5  4.0000000000000D-02  3.6061182200911D-02 -1.6553249878108D-02
6  5.0000000000000D-02  5.6123207689657D-02 -2.5675865005096D-02
7  6.0000000000000D-02  8.0427374715079D-02 -3.6642851931635D-02
8  7.0000000000000D-02  1.0884579299283D-01 -4.9346451668699D-02
9  8.0000000000000D-02  1.4122890844520D-01 -6.3661083768248D-02
10  9.0000000000000D-02  1.7740628329740D-01 -7.9444212445774D-02
11  1.0000000000000D-01  2.1718748521331D-01 -9.6537331178223D-02
12  1.1000000000000D-01  2.6036308086544D-01 -1.1476705960830D-01
13  1.2000000000000D-01  3.0670572878523D-01 -1.3394634587122D-01
14  1.3000000000000D-01  3.5597136581501D-01 -1.5387576678413D-01
15  1.4000000000000D-01  4.0790048098525D-01 -1.7434491770607D-01
16  1.5000000000000D-01  4.6221947017202D-01 -1.9513388329085D-01
17  1.6000000000000D-01  5.1864206445257D-01 -2.1601477982096D-01
18  1.7000000000000D-01  5.7687082467451D-01 -2.3675335932977D-01
19  1.8000000000000D-01  6.3659869438708D-01 -2.5711066529665D-01
20  1.9000000000000D-01  6.9751060295541D-01 -2.7684472933599D-01
21  2.0000000000000D-01  7.5928511039081D-01 -2.9571229800099D-01
22  2.1000000000000D-01  8.2159608518490D-01 -3.1347057858724D-01
23  2.2000000000000D-01  8.8411440623370D-01 -3.2987899265232D-01
24  2.3000000000000D-01  9.4650967978231D-01 -3.4470092586680D-01
25  2.4000000000000D-01  1.0084519622109D+00 -3.5770546278092D-01
26  2.5000000000000D-01  1.0696134794221D+00 -3.6866909513034D-01
27  2.6000000000000D-01  1.1296703335756D+00 -3.7737739241359D-01
28  2.7000000000000D-01  1.1883041879562D+00 -3.8362662365470D-01
29  2.8000000000000D-01  1.2452039208416D+00 -3.8722531951444D-01
30  2.9000000000000D-01  1.3000672393813D+00 -3.8799576423385D-01
31  3.0000000000000D-01  1.3526022446761D+00 -3.8577540728152D-01
32  3.1000000000000D-01  1.4025289394908D+00 -3.8041818503090D-01
33  3.2000000000000D-01  1.4495806703121D+00 -3.7179574331220D-01
34  3.3000000000000D-01  1.4935054958021D+00 -3.5979855226467D-01
35  3.4000000000000D-01  1.5340674740728D+00 -3.4433690555408D-01
36  3.5000000000000D-01  1.5710478616373D+00 -3.2534179671549D-01
37  3.6000000000000D-01  1.6042462173574D+00 -3.0276566612796D-01
38  3.7000000000000D-01  1.6334814052229D+00 -2.7658301292219D-01
39  3.8000000000000D-01  1.6585924903431D+00 -2.4679086695957D-01
40  3.9000000000000D-01  1.6794395231202D+00 -2.1340911689651D-01
41  4.0000000000000D-01  1.6959042071933D+00 -1.7648069125655D-01
42  4.1000000000000D-01  1.7078904473905D+00 -1.3607159036910D-01
43  4.2000000000000D-01  1.7153247746061D+00 -9.2270767991151D-02