Sb    ONCVPSP-3.3.0  r_core=   1.81962   2.12485   1.81962
51.0000     15.0000      180112    zatom,zion,pspd
8 -116133   2     4   600     0    pspcod,pspxc,lmax,lloc,mmax,r2well
5.99000000  5.00000000  0.00000000    rchrg fchrg qchrg
2     2     2     0     0    nproj
1     1           extension_switch
0                         9.7278135027181D+00  1.4850317475905D+00
1  0.0000000000000D+00 -3.7791547669030D-11  4.1601083689002D-11
2  1.0000000000000D-02  2.9524554764611D-02 -1.9254048896668D-02
3  2.0000000000000D-02  5.8990471121411D-02 -3.8438102555027D-02
4  3.0000000000000D-02  8.8339446485194D-02 -5.7482537447369D-02
5  4.0000000000000D-02  1.1751384796094D-01 -7.6318471327743D-02
6  5.0000000000000D-02  1.4645704231087D-01 -9.4878128534685D-02
7  6.0000000000000D-02  1.7511372009438D-01 -1.1309519891742D-01
8  7.0000000000000D-02  2.0343021208278D-01 -1.3090518830862D-01
9  8.0000000000000D-02  2.3135479608846D-01 -1.4824575850840D-01
10  9.0000000000000D-02  2.5883799239477D-01 -1.6505705479578D-01
11  1.0000000000000D-01  2.8583284602955D-01 -1.8128201904557D-01
12  1.1000000000000D-01  3.1229519418922D-01 -1.9686668660005D-01
13  1.2000000000000D-01  3.3818391719483D-01 -2.1176046512576D-01
14  1.3000000000000D-01  3.6346117144265D-01 -2.2591639377632D-01
15  1.4000000000000D-01  3.8809260290263D-01 -2.3929138108121D-01
16  1.5000000000000D-01  4.1204753981554D-01 -2.5184642008898D-01
17  1.6000000000000D-01  4.3529916334553D-01 -2.6354677940937D-01
18  1.7000000000000D-01  4.5782465505707D-01 -2.7436216892361D-01
19  1.8000000000000D-01  4.7960532020487D-01 -2.8426687906379D-01
20  1.9000000000000D-01  5.0062668595075D-01 -2.9323989270111D-01
21  2.0000000000000D-01  5.2087857375307D-01 -3.0126496882860D-01
22  2.1000000000000D-01  5.4035514531066D-01 -3.0833069737450D-01
23  2.2000000000000D-01  5.5905492158511D-01 -3.1443052464024D-01
24  2.3000000000000D-01  5.7698077457023D-01 -3.1956274901722D-01
25  2.4000000000000D-01  5.9413989162727D-01 -3.2373048680288D-01
26  2.5000000000000D-01  6.1054371235572D-01 -3.2694160810473D-01
27  2.6000000000000D-01  6.2620783812445D-01 -3.2920864299247D-01
28  2.7000000000000D-01  6.4115191454299D-01 -3.3054865823118D-01
29  2.8000000000000D-01  6.5539948730961D-01 -3.3098310510239D-01
30  2.9000000000000D-01  6.6897783202907D-01 -3.3053763899398D-01
31  3.0000000000000D-01  6.8191775874854D-01 -3.2924191161253D-01
32  3.1000000000000D-01  6.9425339211443D-01 -3.2712933684341D-01
33  3.2000000000000D-01  7.0602192820406D-01 -3.2423683145219D-01
34  3.3000000000000D-01  7.1726336923479D-01 -3.2060453198581D-01
35  3.4000000000000D-01  7.2802023749738D-01 -3.1627548939271D-01
36  3.5000000000000D-01  7.3833726999929D-01 -3.1129534303486D-01
37  3.6000000000000D-01  7.4826109543747D-01 -3.0571197591346D-01
38  3.7000000000000D-01  7.5783989524648D-01 -2.9957515306979D-01
39  3.8000000000000D-01  7.6712305058754D-01 -2.9293614525528D-01
40  3.9000000000000D-01  7.7616077725425D-01 -2.8584734008591D-01
41  4.0000000000000D-01  7.8500375057325D-01 -2.7836184300937D-01
42  4.1000000000000D-01  7.9370272246913D-01 -2.7053307051219D-01
43  4.2000000000000D-01  8.0230813294447D-01 -2.6241433808354D-01
44  4.3000000000000D-01  8.1086971829551D-01 -2.5405844552621D-01
45  4.4000000000000D-01  8.1943611844126D-01 -2.4551726226719D-01
46  4.5000000000000D-01  8.2805448578923D-01 -2.3684131536617D-01
47  4.6000000000000D-01  8.3677009809240D-01 -2.2807938295184D-01
48  4.7000000000000D-01  8.4562597776989D-01 -2.1927809583065D-01
49  4.8000000000000D-01  8.5466252016780D-01 -2.1048155001209D-01
50  4.9000000000000D-01  8.6391713322568D-01 -2.0173093287629D-01
51  5.0000000000000D-01  8.7342389098831D-01 -1.9306416567443D-01
52  5.1000000000000D-01  8.8321320336215D-01 -1.8451556500057D-01
53  5.2000000000000D-01  8.9331150445933D-01 -1.7611552580254D-01
54  5.3000000000000D-01  9.0374096180167D-01 -1.6789022841295D-01
55  5.4000000000000D-01  9.1451920857032D-01 -1.5986137197519D-01
56  5.5000000000000D-01  9.2565910098599D-01 -1.5204593651802D-01
57  5.6000000000000D-01  9.3716850278833D-01 -1.4445597579176D-01
58  5.7000000000000D-01  9.4905009865343D-01 -1.3709844282470D-01
59  5.8000000000000D-01  9.6130123824336D-01 -1.2997504998490D-01
60  5.9000000000000D-01  9.7391381242533D-01 -1.2308216514692D-01
61  6.0000000000000D-01  9.8687416302684D-01 -1.1641074536038D-01
62  6.1000000000000D-01  1.0001630273123D+00 -1.0994630920300D-01
63  6.2000000000000D-01  1.0137555181724D+00 -1.0366894877182D-01
64  6.3000000000000D-01  1.0276211408151D+00 -9.7553382029473D-02
65  6.4000000000000D-01  1.0417238465362D+00 -9.1569045971093D-02
66  6.5000000000000D-01  1.0560221239237D+00 -8.5680230820914D-02
67  6.6000000000000D-01  1.0704691276284D+00 -7.9846255202972D-02
68  6.7000000000000D-01  1.0850128445975D+00 -7.4021681958431D-02
69  6.8000000000000D-01  1.0995962974331D+00 -6.8156574008494D-02
70  6.9000000000000D-01  1.1141577842997D+00 -6.2196789384561D-02
71  7.0000000000000D-01  1.1286311545630D+00 -5.6084314269579D-02
72  7.1000000000000D-01  1.1429461191058D+00 -4.9757632618515D-02
73  7.2000000000000D-01  1.1570285940255D+00 -4.3152130652771D-02
74  7.3000000000000D-01  1.1708010761890D+00 -3.6200534255309D-02
75  7.4000000000000D-01  1.1841830488861D+00 -2.8833377032861D-02
76  7.5000000000000D-01  1.1970914156054D+00 -2.0979496558339D-02
77  7.6000000000000D-01  1.2094409597415D+00 -1.2566556066530D-02
78  7.7000000000000D-01  1.2211448278349D+00 -3.5215886464771D-03
79  7.8000000000000D-01  1.2321150337615D+00  6.2284392390568D-03
80  7.9000000000000D-01  1.2422629810993D+00  1.6756048275588D-02
81  8.0000000000000D-01  1.2515000007434D+00  2.8132654407666D-02
82  8.1000000000000D-01  1.2597379006851D+00  4.0427968246502D-02
83  8.2000000000000D-01  1.2668895247418D+00  5.3709389621003D-02
84  8.3000000000000D-01  1.2728693169079D+00  6.8041401235673D-02
85  8.4000000000000D-01  1.2775938879043D+00  8.3484965490825D-02
86  8.5000000000000D-01  1.2809825804276D+00  1.0009692858778D-01
87  8.6000000000000D-01  1.2829580295483D+00  1.1792943608378D-01
88  8.7000000000000D-01  1.2834467146750D+00  1.3702936407495D-01
89  8.8000000000000D-01  1.2823794994940D+00  1.5743777017251D-01
90  8.9000000000000D-01  1.2796921563076D+00  1.7918936839647D-01
91  9.0000000000000D-01  1.2753258712314D+00  2.0231203204085D-01
92  9.1000000000000D-01  1.2692277267752D+00  2.2682632846600D-01
93  9.2000000000000D-01  1.2613511584138D+00  2.5274508964640D-01
94  9.3000000000000D-01  1.2516563818650D+00  2.8007302214845D-01
95  9.4000000000000D-01  1.2401107879235D+00  3.0880636002769D-01
96  9.5000000000000D-01  1.2266893018528D+00  3.3893256392669D-01
97  9.6000000000000D-01  1.2113747045159D+00  3.7043006941716D-01
98  9.7000000000000D-01  1.1941579126207D+00  4.0326808736951D-01
99  9.8000000000000D-01  1.1750382156773D+00  4.3740645884696D-01
100  9.9000000000000D-01  1.1540234674983D+00  4.7279556671417D-01
101  1.0000000000000D+00  1.1311302303313D+00  5.0937630582207D-01
102  1.0100000000000D+00  1.1063838699863D+00  5.4708011327803D-01
103  1.0200000000000D+00  1.0798186005959D+00  5.8582905996249D-01
104  1.0300000000000D+00  1.0514774779641D+00  6.2553600405167D-01
105  1.0400000000000D+00  1.0214123407552D+00  6.6610480693156D-01
106  1.0500000000000D+00  9.8968369910286D-01  7.0743061148218D-01
107  1.0600000000000D+00  9.5636057054974D-01  7.4940018229526D-01
108  1.0700000000000D+00  9.2152026355327D-01  7.9189230698797D-01
109  1.0800000000000D+00  8.8524810913100D-01  8.3477825735888D-01
110  1.0900000000000D+00  8.4763714157033D-01  8.7792230869959D-01
111  1.1000000000000D+00  8.0878772944509D-01  9.2118231518912D-01
112  1.1100000000000D+00  7.6880715854378D-01  9.6441033885736D-01
113  1.1200000000000D+00  7.2780916858642D-01  1.0074533292756D+00
114  1.1300000000000D+00  6.8591344599066D-01  1.0501538506705D+00
115  1.1400000000000D+00  6.4324507521528D-01  1.0923508528405D+00
116  1.1500000000000D+00  5.9993395153718D-01  1.1338804818649D+00
117  1.1600000000000D+00  5.5611415834132D-01  1.1745769263349D+00
118  1.1700000000000D+00  5.1192331233683D-01  1.2142732944449D+00
119  1.1800000000000D+00  4.6750188032077D-01  1.2528025170495D+00
120  1.1900000000000D+00  4.2299247135703D-01  1.2899982715099D+00
121  1.2000000000000D+00  3.7853910838061D-01  1.3256959209966D+00
122  1.2100000000000D+00  3.3428648351368D-01  1.3597334636145D+00
123  1.2200000000000D+00  2.9037920146537D-01  1.3919524856346D+00
124  1.2300000000000D+00  2.4696101550626D-01  1.4221991129956D+00
125  1.2400000000000D+00  2.0417406065506D-01  1.4503249550987D+00
126  1.2500000000000D+00  1.6215808875272D-01  1.4761880349101D+00
127  1.2600000000000D+00  1.2104971012449D-01  1.4996536993813D+00
128  1.2700000000000D+00  8.0981646586200D-02  1.5205955041665D+00
129  1.2800000000000D+00  4.2082000476726D-02  1.5388960667663D+00
130  1.2900000000000D+00  4.4735443601458D-03  1.5544478822915D+00
131  1.3000000000000D+00 -3.1726963978000D-02  1.5671540961081D+00
132  1.3100000000000D+00 -6.6409436874630D-02  1.5769292280150D+00
133  1.3200000000000D+00 -9.9471078113426D-02  1.5836998426165D+00
134  1.3300000000000D+00 -1.3081696603652D-01  1.5874051608161D+00
135  1.3400000000000D+00 -1.6036059470260D-01  1.5879976079944D+00
136  1.3500000000000D+00 -1.8802436915949D-01  1.5854432941684D+00
137  1.3600000000000D+00 -2.1374005147299D-01  1.5797224222486D+00
138  1.3700000000000D+00 -2.3744915456542D-01  1.5708296210589D+00
139  1.3800000000000D+00 -2.5910328050270D-01  1.5587741992330D+00
140  1.3900000000000D+00 -2.7866440123632D-01  1.5435803179653D+00
141  1.4000000000000D+00 -2.9610507931943D-01  1.5252870799208D+00
142  1.4100000000000D+00 -3.1140862659374D-01  1.5039485322744D+00
143  1.4200000000000D+00 -3.2456920004805D-01  1.4796335834400D+00
144  1.4300000000000D+00 -3.3559183279157D-01  1.4524258313900D+00
145  1.4400000000000D+00 -3.4449240040056D-01  1.4224233045335D+00
146  1.4500000000000D+00 -3.5129752184700D-01  1.3897381147248D+00
147  1.4600000000000D+00 -3.5604439501182D-01  1.3544960230379D+00
148  1.4700000000000D+00 -3.5878056812504D-01  1.3168359206706D+00
149  1.4800000000000D+00 -3.5956364673283D-01  1.2769092250945D+00
150  1.4900000000000D+00 -3.5846093908970D-01  1.2348791958331D+00
151  1.5000000000000D+00 -3.5554904032408D-01  1.1909201709547D+00
152  1.5100000000000D+00 -3.5091335845985D-01  1.1452167288983D+00
153  1.5200000000000D+00 -3.4464758440511D-01  1.0979627789800D+00
154  1.5300000000000D+00 -3.3685310854379D-01  1.0493605846294D+00
155  1.5400000000000D+00 -3.2763838792549D-01  9.9961972508739D-01
156  1.5500000000000D+00 -3.1711826627721D-01  9.4895599910731D-01
157  1.5600000000000D+00 -3.0541325222295D-01  8.9759027753015D-01
158  1.5700000000000D+00 -2.9264875830489D-01  8.4574731075078D-01
159  1.5800000000000D+00 -2.7895430597746D-01  7.9365449389788D-01
160  1.5900000000000D+00 -2.6446270264264D-01  7.4154060950748D-01
161  1.6000000000000D+00 -2.4930920071374D-01  6.8963459403248D-01
162  1.6100000000000D+00 -2.3363059294270D-01  6.3816398338716D-01
163  1.6200000000000D+00 -2.1756435938672D-01  5.8735379104800D-01
164  1.6300000000000D+00 -2.0124787547415D-01  5.3742593666210D-01
165  1.6400000000000D+00 -1.8481761890548D-01  4.8859852742494D-01
166  1.6500000000000D+00 -1.6840843521335D-01  4.4108540295113D-01
167  1.6600000000000D+00 -1.5215274321710D-01  3.9509521711543D-01
168  1.6700000000000D+00 -1.3617969726162D-01  3.5083008292447D-01
169  1.6800000000000D+00 -1.2061439808388D-01  3.0848450594246D-01
170  1.6900000000000D+00 -1.0557712128409D-01  2.6824434617077D-01
171  1.7000000000000D+00 -9.1182566594859D-02  2.3028577452505D-01
172  1.7100000000000D+00 -7.7539137620692D-02  1.9477429145031D-01
173  1.7200000000000D+00 -6.4748254076044D-02  1.6186378650705D-01
174  1.7300000000000D+00 -5.2903700399160D-02  1.3169565159985D-01
175  1.7400000000000D+00 -4.2091015348382D-02  1.0439795214542D-01
176  1.7500000000000D+00 -3.2386924972851D-02  8.0084659103265D-02
177  1.7600000000000D+00 -2.3862467391764D-02  5.8864008081809D-02
178  1.7700000000000D+00 -1.6570121411909D-02  4.0807031558844D-02
179  1.7800000000000D+00 -1.0534681786765D-02  2.5925264777072D-02
180  1.7900000000000D+00 -5.8156959717163D-03  1.4326628284538D-02
181  1.8000000000000D+00 -2.5289583012117D-03  6.2699668013318D-03
182  1.8100000000000D+00 -6.4783680587811D-04  1.6696942197305D-03
183  1.8200000000000D+00  1.3785620319456D-04 -2.6044866883787D-04
184  1.8300000000000D+00  2.1949479820892D-04 -4.9498068510176D-04
185  1.8400000000000D+00  2.8885751532091D-05 -6.6302863786323D-05
186  1.8500000000000D+00 -6.1629618836833D-05  1.4241484119931D-04
187  1.8600000000000D+00 -2.6318449849414D-05  6.1069153005714D-05
188  1.8700000000000D+00  1.0090130314252D-05 -2.3099747441921D-05
189  1.8800000000000D+00  8.3506591149774D-06 -1.9173259673677D-05
190  1.8900000000000D+00 -2.0994628091846D-07  3.8172990591570D-07
191  1.9000000000000D+00 -3.1534926266656D-07  5.7337640772520D-07
192  1.9100000000000D+00  0.0000000000000D+00  0.0000000000000D+00
193  1.9200000000000D+00  0.0000000000000D+00  0.0000000000000D+00
194  1.9300000000000D+00  0.0000000000000D+00  0.0000000000000D+00
195  1.9400000000000D+00  0.0000000000000D+00  0.0000000000000D+00
196  1.9500000000000D+00  0.0000000000000D+00  0.0000000000000D+00
197  1.9600000000000D+00  0.0000000000000D+00  0.0000000000000D+00
198  1.9700000000000D+00  0.0000000000000D+00  0.0000000000000D+00
199  1.9800000000000D+00  0.0000000000000D+00  0.0000000000000D+00
200  1.9900000000000D+00  0.0000000000000D+00  0.0000000000000D+00
201  2.0000000000000D+00  0.0000000000000D+00  0.0000000000000D+00
202  2.0100000000000D+00  0.0000000000000D+00  0.0000000000000D+00
203  2.0200000000000D+00  0.0000000000000D+00  0.0000000000000D+00
204  2.0300000000000D+00  0.0000000000000D+00  0.0000000000000D+00
205  2.0400000000000D+00  0.0000000000000D+00  0.0000000000000D+00
206  2.0500000000000D+00  0.0000000000000D+00  0.0000000000000D+00
207  2.0600000000000D+00  0.0000000000000D+00  0.0000000000000D+00
208  2.0700000000000D+00  0.0000000000000D+00  0.0000000000000D+00
209  2.0800000000000D+00  0.0000000000000D+00  0.0000000000000D+00
210  2.0900000000000D+00  0.0000000000000D+00  0.0000000000000D+00
211  2.1000000000000D+00  0.0000000000000D+00  0.0000000000000D+00
212  2.1100000000000D+00  0.0000000000000D+00  0.0000000000000D+00
213  2.1200000000000D+00  0.0000000000000D+00  0.0000000000000D+00
214  2.1300000000000D+00  0.0000000000000D+00  0.0000000000000D+00
215  2.1400000000000D+00  0.0000000000000D+00  0.0000000000000D+00
216  2.1500000000000D+00  0.0000000000000D+00  0.0000000000000D+00
217  2.1600000000000D+00  0.0000000000000D+00  0.0000000000000D+00
218  2.1700000000000D+00  0.0000000000000D+00  0.0000000000000D+00
219  2.1800000000000D+00  0.0000000000000D+00  0.0000000000000D+00
220  2.1900000000000D+00  0.0000000000000D+00  0.0000000000000D+00
221  2.2000000000000D+00  0.0000000000000D+00  0.0000000000000D+00
222  2.2100000000000D+00  0.0000000000000D+00  0.0000000000000D+00
223  2.2200000000000D+00  0.0000000000000D+00  0.0000000000000D+00
224  2.2300000000000D+00  0.0000000000000D+00  0.0000000000000D+00
225  2.2400000000000D+00  0.0000000000000D+00  0.0000000000000D+00
226  2.2500000000000D+00  0.0000000000000D+00  0.0000000000000D+00
227  2.2600000000000D+00  0.0000000000000D+00  0.0000000000000D+00
228  2.2700000000000D+00  0.0000000000000D+00  0.0000000000000D+00
229  2.2800000000000D+00  0.0000000000000D+00  0.0000000000000D+00
230  2.2900000000000D+00  0.0000000000000D+00  0.0000000000000D+00
231  2.3000000000000D+00  0.0000000000000D+00  0.0000000000000D+00
232  2.3100000000000D+00  0.0000000000000D+00  0.0000000000000D+00
233  2.3200000000000D+00  0.0000000000000D+00  0.0000000000000D+00
234  2.3300000000000D+00  0.0000000000000D+00  0.0000000000000D+00
235  2.3400000000000D+00  0.0000000000000D+00  0.0000000000000D+00
236  2.3500000000000D+00  0.0000000000000D+00  0.0000000000000D+00
237  2.3600000000000D+00  0.0000000000000D+00  0.0000000000000D+00
238  2.3700000000000D+00  0.0000000000000D+00  0.0000000000000D+00
239  2.3800000000000D+00  0.0000000000000D+00  0.0000000000000D+00
240  2.3900000000000D+00  0.0000000000000D+00  0.0000000000000D+00
241  2.4000000000000D+00  0.0000000000000D+00  0.0000000000000D+00
242  2.4100000000000D+00  0.0000000000000D+00  0.0000000000000D+00
243  2.4200000000000D+00  0.0000000000000D+00  0.0000000000000D+00
244  2.4300000000000D+00  0.0000000000000D+00  0.0000000000000D+00
245  2.4400000000000D+00  0.0000000000000D+00  0.0000000000000D+00
246  2.4500000000000D+00  0.0000000000000D+00  0.0000000000000D+00
247  2.4600000000000D+00  0.0000000000000D+00  0.0000000000000D+00
248  2.4700000000000D+00  0.0000000000000D+00  0.0000000000000D+00
249  2.4800000000000D+00  0.0000000000000D+00  0.0000000000000D+00
250  2.4900000000000D+00  0.0000000000000D+00  0.0000000000000D+00
251  2.5000000000000D+00  0.0000000000000D+00  0.0000000000000D+00
252  2.5100000000000D+00  0.0000000000000D+00  0.0000000000000D+00
253  2.5200000000000D+00  0.0000000000000D+00  0.0000000000000D+00
254  2.5300000000000D+00  0.0000000000000D+00  0.0000000000000D+00
255  2.5400000000000D+00  0.0000000000000D+00  0.0000000000000D+00
256  2.5500000000000D+00  0.0000000000000D+00  0.0000000000000D+00
257  2.5600000000000D+00  0.0000000000000D+00  0.0000000000000D+00
258  2.5700000000000D+00  0.0000000000000D+00  0.0000000000000D+00
259  2.5800000000000D+00  0.0000000000000D+00  0.0000000000000D+00
260  2.5900000000000D+00  0.0000000000000D+00  0.0000000000000D+00
261  2.6000000000000D+00  0.0000000000000D+00  0.0000000000000D+00
262  2.6100000000000D+00  0.0000000000000D+00  0.0000000000000D+00
263  2.6200000000000D+00  0.0000000000000D+00  0.0000000000000D+00
264  2.6300000000000D+00  0.0000000000000D+00  0.0000000000000D+00
265  2.6400000000000D+00  0.0000000000000D+00  0.0000000000000D+00
266  2.6500000000000D+00  0.0000000000000D+00  0.0000000000000D+00
267  2.6600000000000D+00  0.0000000000000D+00  0.0000000000000D+00
268  2.6700000000000D+00  0.0000000000000D+00  0.0000000000000D+00
269  2.6800000000000D+00  0.0000000000000D+00  0.0000000000000D+00
270  2.6900000000000D+00  0.0000000000000D+00  0.0000000000000D+00
271  2.7000000000000D+00  0.0000000000000D+00  0.0000000000000D+00
272  2.7100000000000D+00  0.0000000000000D+00  0.0000000000000D+00
273  2.7200000000000D+00  0.0000000000000D+00  0.0000000000000D+00
274  2.7300000000000D+00  0.0000000000000D+00  0.0000000000000D+00
275  2.7400000000000D+00  0.0000000000000D+00  0.0000000000000D+00
276  2.7500000000000D+00  0.0000000000000D+00  0.0000000000000D+00
277  2.7600000000000D+00  0.0000000000000D+00  0.0000000000000D+00
278  2.7700000000000D+00  0.0000000000000D+00  0.0000000000000D+00
279  2.7800000000000D+00  0.0000000000000D+00  0.0000000000000D+00
280  2.7900000000000D+00  0.0000000000000D+00  0.0000000000000D+00
281  2.8000000000000D+00  0.0000000000000D+00  0.0000000000000D+00
282  2.8100000000000D+00  0.0000000000000D+00  0.0000000000000D+00
283  2.8200000000000D+00  0.0000000000000D+00  0.0000000000000D+00
284  2.8300000000000D+00  0.0000000000000D+00  0.0000000000000D+00
285  2.8400000000000D+00  0.0000000000000D+00  0.0000000000000D+00
286  2.8500000000000D+00  0.0000000000000D+00  0.0000000000000D+00
287  2.8600000000000D+00  0.0000000000000D+00  0.0000000000000D+00
288  2.8700000000000D+00  0.0000000000000D+00  0.0000000000000D+00
289  2.8800000000000D+00  0.0000000000000D+00  0.0000000000000D+00
290  2.8900000000000D+00  0.0000000000000D+00  0.0000000000000D+00
291  2.9000000000000D+00  0.0000000000000D+00  0.0000000000000D+00
292  2.9100000000000D+00  0.0000000000000D+00  0.0000000000000D+00
293  2.9200000000000D+00  0.0000000000000D+00  0.0000000000000D+00
294  2.9300000000000D+00  0.0000000000000D+00  0.0000000000000D+00
295  2.9400000000000D+00  0.0000000000000D+00  0.0000000000000D+00
296  2.9500000000000D+00  0.0000000000000D+00  0.0000000000000D+00
297  2.9600000000000D+00  0.0000000000000D+00  0.0000000000000D+00
298  2.9700000000000D+00  0.0000000000000D+00  0.0000000000000D+00
299  2.9800000000000D+00  0.0000000000000D+00  0.0000000000000D+00
300  2.9900000000000D+00  0.0000000000000D+00  0.0000000000000D+00
301  3.0000000000000D+00  0.0000000000000D+00  0.0000000000000D+00
302  3.0100000000000D+00  0.0000000000000D+00  0.0000000000000D+00
303  3.0200000000000D+00  0.0000000000000D+00  0.0000000000000D+00
304  3.0300000000000D+00  0.0000000000000D+00  0.0000000000000D+00
305  3.0400000000000D+00  0.0000000000000D+00  0.0000000000000D+00
306  3.0500000000000D+00  0.0000000000000D+00  0.0000000000000D+00
307  3.0600000000000D+00  0.0000000000000D+00  0.0000000000000D+00
308  3.0700000000000D+00  0.0000000000000D+00  0.0000000000000D+00
309  3.0800000000000D+00  0.0000000000000D+00  0.0000000000000D+00
310  3.0900000000000D+00  0.0000000000000D+00  0.0000000000000D+00
311  3.1000000000000D+00  0.0000000000000D+00  0.0000000000000D+00
312  3.1100000000000D+00  0.0000000000000D+00  0.0000000000000D+00
313  3.1200000000000D+00  0.0000000000000D+00  0.0000000000000D+00
314  3.1300000000000D+00  0.0000000000000D+00  0.0000000000000D+00
315  3.1400000000000D+00  0.0000000000000D+00  0.0000000000000D+00
316  3.1500000000000D+00  0.0000000000000D+00  0.0000000000000D+00
317  3.1600000000000D+00  0.0000000000000D+00  0.0000000000000D+00
318  3.1700000000000D+00  0.0000000000000D+00  0.0000000000000D+00
319  3.1800000000000D+00  0.0000000000000D+00  0.0000000000000D+00
320  3.1900000000000D+00  0.0000000000000D+00  0.0000000000000D+00
321  3.2000000000000D+00  0.0000000000000D+00  0.0000000000000D+00
322  3.2100000000000D+00  0.0000000000000D+00  0.0000000000000D+00
323  3.2200000000000D+00  0.0000000000000D+00  0.0000000000000D+00
324  3.2300000000000D+00  0.0000000000000D+00  0.0000000000000D+00
325  3.2400000000000D+00  0.0000000000000D+00  0.0000000000000D+00
326  3.2500000000000D+00  0.0000000000000D+00  0.0000000000000D+00
327  3.2600000000000D+00  0.0000000000000D+00  0.0000000000000D+00
328  3.2700000000000D+00  0.0000000000000D+00  0.0000000000000D+00
329  3.2800000000000D+00  0.0000000000000D+00  0.0000000000000D+00
330  3.2900000000000D+00  0.0000000000000D+00  0.0000000000000D+00
331  3.3000000000000D+00  0.0000000000000D+00  0.0000000000000D+00
332  3.3100000000000D+00  0.0000000000000D+00  0.0000000000000D+00
333  3.3200000000000D+00  0.0000000000000D+00  0.0000000000000D+00
334  3.3300000000000D+00  0.0000000000000D+00  0.0000000000000D+00
335  3.3400000000000D+00  0.0000000000000D+00  0.0000000000000D+00
336  3.3500000000000D+00  0.0000000000000D+00  0.0000000000000D+00
337  3.3600000000000D+00  0.0000000000000D+00  0.0000000000000D+00
338  3.3700000000000D+00  0.0000000000000D+00  0.0000000000000D+00
339  3.3800000000000D+00  0.0000000000000D+00  0.0000000000000D+00
340  3.3900000000000D+00  0.0000000000000D+00  0.0000000000000D+00
341  3.4000000000000D+00  0.0000000000000D+00  0.0000000000000D+00
342  3.4100000000000D+00  0.0000000000000D+00  0.0000000000000D+00
343  3.4200000000000D+00  0.0000000000000D+00  0.0000000000000D+00
344  3.4300000000000D+00  0.0000000000000D+00  0.0000000000000D+00
345  3.4400000000000D+00  0.0000000000000D+00  0.0000000000000D+00
346  3.4500000000000D+00  0.0000000000000D+00  0.0000000000000D+00
347  3.4600000000000D+00  0.0000000000000D+00  0.0000000000000D+00
348  3.4700000000000D+00  0.0000000000000D+00  0.0000000000000D+00
349  3.4800000000000D+00  0.0000000000000D+00  0.0000000000000D+00
350  3.4900000000000D+00  0.0000000000000D+00  0.0000000000000D+00
351  3.5000000000000D+00  0.0000000000000D+00  0.0000000000000D+00
352  3.5100000000000D+00  0.0000000000000D+00  0.0000000000000D+00
353  3.5200000000000D+00  0.0000000000000D+00  0.0000000000000D+00
354  3.5300000000000D+00  0.0000000000000D+00  0.0000000000000D+00
355  3.5400000000000D+00  0.0000000000000D+00  0.0000000000000D+00
356  3.5500000000000D+00  0.0000000000000D+00  0.0000000000000D+00
357  3.5600000000000D+00  0.0000000000000D+00  0.0000000000000D+00
358  3.5700000000000D+00  0.0000000000000D+00  0.0000000000000D+00
359  3.5800000000000D+00  0.0000000000000D+00  0.0000000000000D+00
360  3.5900000000000D+00  0.0000000000000D+00  0.0000000000000D+00
361  3.6000000000000D+00  0.0000000000000D+00  0.0000000000000D+00
362  3.6100000000000D+00  0.0000000000000D+00  0.0000000000000D+00
363  3.6200000000000D+00  0.0000000000000D+00  0.0000000000000D+00
364  3.6300000000000D+00  0.0000000000000D+00  0.0000000000000D+00
365  3.6400000000000D+00  0.0000000000000D+00  0.0000000000000D+00
366  3.6500000000000D+00  0.0000000000000D+00  0.0000000000000D+00
367  3.6600000000000D+00  0.0000000000000D+00  0.0000000000000D+00
368  3.6700000000000D+00  0.0000000000000D+00  0.0000000000000D+00
369  3.6800000000000D+00  0.0000000000000D+00  0.0000000000000D+00
370  3.6900000000000D+00  0.0000000000000D+00  0.0000000000000D+00
371  3.7000000000000D+00  0.0000000000000D+00  0.0000000000000D+00
372  3.7100000000000D+00  0.0000000000000D+00  0.0000000000000D+00
373  3.7200000000000D+00  0.0000000000000D+00  0.0000000000000D+00
374  3.7300000000000D+00  0.0000000000000D+00  0.0000000000000D+00
375  3.7400000000000D+00  0.0000000000000D+00  0.0000000000000D+00
376  3.7500000000000D+00  0.0000000000000D+00  0.0000000000000D+00
377  3.7600000000000D+00  0.0000000000000D+00  0.0000000000000D+00
378  3.7700000000000D+00  0.0000000000000D+00  0.0000000000000D+00
379  3.7800000000000D+00  0.0000000000000D+00  0.0000000000000D+00
380  3.7900000000000D+00  0.0000000000000D+00  0.0000000000000D+00
381  3.8000000000000D+00  0.0000000000000D+00  0.0000000000000D+00
382  3.8100000000000D+00  0.0000000000000D+00  0.0000000000000D+00
383  3.8200000000000D+00  0.0000000000000D+00  0.0000000000000D+00
384  3.8300000000000D+00  0.0000000000000D+00  0.0000000000000D+00
385  3.8400000000000D+00  0.0000000000000D+00  0.0000000000000D+00
386  3.8500000000000D+00  0.0000000000000D+00  0.0000000000000D+00
387  3.8600000000000D+00  0.0000000000000D+00  0.0000000000000D+00
388  3.8700000000000D+00  0.0000000000000D+00  0.0000000000000D+00
389  3.8800000000000D+00  0.0000000000000D+00  0.0000000000000D+00
390  3.8900000000000D+00  0.0000000000000D+00  0.0000000000000D+00
391  3.9000000000000D+00  0.0000000000000D+00  0.0000000000000D+00
392  3.9100000000000D+00  0.0000000000000D+00  0.0000000000000D+00
393  3.9200000000000D+00  0.0000000000000D+00  0.0000000000000D+00
394  3.9300000000000D+00  0.0000000000000D+00  0.0000000000000D+00
395  3.9400000000000D+00  0.0000000000000D+00  0.0000000000000D+00
396  3.9500000000000D+00  0.0000000000000D+00  0.0000000000000D+00
397  3.9600000000000D+00  0.0000000000000D+00  0.0000000000000D+00
398  3.9700000000000D+00  0.0000000000000D+00  0.0000000000000D+00
399  3.9800000000000D+00  0.0000000000000D+00  0.0000000000000D+00
400  3.9900000000000D+00  0.0000000000000D+00  0.0000000000000D+00
401  4.0000000000000D+00  0.0000000000000D+00  0.0000000000000D+00
402  4.0100000000000D+00  0.0000000000000D+00  0.0000000000000D+00
403  4.0200000000000D+00  0.0000000000000D+00  0.0000000000000D+00
404  4.0300000000000D+00  0.0000000000000D+00  0.0000000000000D+00
405  4.0400000000000D+00  0.0000000000000D+00  0.0000000000000D+00
406  4.0500000000000D+00  0.0000000000000D+00  0.0000000000000D+00
407  4.0600000000000D+00  0.0000000000000D+00  0.0000000000000D+00
408  4.0700000000000D+00  0.0000000000000D+00  0.0000000000000D+00
409  4.0800000000000D+00  0.0000000000000D+00  0.0000000000000D+00
410  4.0900000000000D+00  0.0000000000000D+00  0.0000000000000D+00
411  4.1000000000000D+00  0.0000000000000D+00  0.0000000000000D+00
412  4.1100000000000D+00  0.0000000000000D+00  0.0000000000000D+00
413  4.1200000000000D+00  0.0000000000000D+00  0.0000000000000D+00
414  4.1300000000000D+00  0.0000000000000D+00  0.0000000000000D+00
415  4.1400000000000D+00  0.0000000000000D+00  0.0000000000000D+00
416  4.1500000000000D+00  0.0000000000000D+00  0.0000000000000D+00
417  4.1600000000000D+00  0.0000000000000D+00  0.0000000000000D+00
418  4.1700000000000D+00  0.0000000000000D+00  0.0000000000000D+00
419  4.1800000000000D+00  0.0000000000000D+00  0.0000000000000D+00
420  4.1900000000000D+00  0.0000000000000D+00  0.0000000000000D+00
421  4.2000000000000D+00  0.0000000000000D+00  0.0000000000000D+00
422  4.2100000000000D+00  0.0000000000000D+00  0.0000000000000D+00
423  4.2200000000000D+00  0.0000000000000D+00  0.0000000000000D+00
424  4.2300000000000D+00  0.0000000000000D+00  0.0000000000000D+00
425  4.2400000000000D+00  0.0000000000000D+00  0.0000000000000D+00
426  4.2500000000000D+00  0.0000000000000D+00  0.0000000000000D+00
427  4.2600000000000D+00  0.0000000000000D+00  0.0000000000000D+00
428  4.2700000000000D+00  0.0000000000000D+00  0.0000000000000D+00
429  4.2800000000000D+00  0.0000000000000D+00  0.0000000000000D+00
430  4.2900000000000D+00  0.0000000000000D+00  0.0000000000000D+00
431  4.3000000000000D+00  0.0000000000000D+00  0.0000000000000D+00
432  4.3100000000000D+00  0.0000000000000D+00  0.0000000000000D+00
433  4.3200000000000D+00  0.0000000000000D+00  0.0000000000000D+00
434  4.3300000000000D+00  0.0000000000000D+00  0.0000000000000D+00
435  4.3400000000000D+00  0.0000000000000D+00  0.0000000000000D+00
436  4.3500000000000D+00  0.0000000000000D+00  0.0000000000000D+00
437  4.3600000000000D+00  0.0000000000000D+00  0.0000000000000D+00
438  4.3700000000000D+00  0.0000000000000D+00  0.0000000000000D+00
439  4.3800000000000D+00  0.0000000000000D+00  0.0000000000000D+00
440  4.3900000000000D+00  0.0000000000000D+00  0.0000000000000D+00
441  4.4000000000000D+00  0.0000000000000D+00  0.0000000000000D+00
442  4.4100000000000D+00  0.0000000000000D+00  0.0000000000000D+00
443  4.4200000000000D+00  0.0000000000000D+00  0.0000000000000D+00