Sb    ONCVPSP-3.3.0  r_core=   1.30295   1.30295   1.50346
51.0000     23.0000      180112    zatom,zion,pspd
8 -116133   2     4   600     0    pspcod,pspxc,lmax,lloc,mmax,r2well
5.99000000  5.00000000  0.00000000    rchrg fchrg qchrg
2     2     2     0     0    nproj
1     1           extension_switch
0                         9.5196529321323D+00 -5.2880583288660D-01
1  0.0000000000000D+00 -1.5844292544642D-10 -1.2181003539169D-08
2  1.0000000000000D-02  8.7653186542674D-02  7.7487226416212D-02
3  2.0000000000000D-02  1.7506518161098D-01  1.5420045554986D-01
4  3.0000000000000D-02  2.6199563865991D-01  2.2937624672684D-01
5  4.0000000000000D-02  3.4820589686178D-01  3.0227209462425D-01
6  5.0000000000000D-02  4.3345981365272D-01  3.7217645546674D-01
7  6.0000000000000D-02  5.1752458501968D-01  4.3841825231003D-01
8  7.0000000000000D-02  6.0017154963109D-01  5.0037570037530D-01
9  8.0000000000000D-02  6.8117697307280D-01  5.5748430557912D-01
10  9.0000000000000D-02  7.6032280864389D-01  6.0924390421882D-01
11  1.0000000000000D-01  8.3739743139101D-01  6.5522462895782D-01
12  1.1000000000000D-01  9.1219634231161D-01  6.9507170550444D-01
13  1.2000000000000D-01  9.8452283993131D-01  7.2850900534676D-01
14  1.3000000000000D-01  1.0541886567541D+00  7.5534130222005D-01
15  1.4000000000000D-01  1.1210145583911D+00  7.7545520324313D-01
16  1.5000000000000D-01  1.1848309034908D+00  7.8881874944767D-01
17  1.6000000000000D-01  1.2454781629107D+00  7.9547970431142D-01
18  1.7000000000000D-01  1.3028073968919D+00  7.9556257246261D-01
19  1.8000000000000D-01  1.3566806893059D+00  7.8926441351945D-01
20  1.9000000000000D-01  1.4069715383456D+00  7.7684953765365D-01
21  2.0000000000000D-01  1.4535652033159D+00  7.5864318952250D-01
22  2.1000000000000D-01  1.4963590074414D+00  7.3502434533274D-01
23  2.2000000000000D-01  1.5352625968522D+00  7.0641776364580D-01
24  2.3000000000000D-01  1.5701981561186D+00  6.7328544381015D-01
25  2.4000000000000D-01  1.6011005808925D+00  6.3611765636288D-01
26  2.5000000000000D-01  1.6279176083623D+00  5.9542371717500D-01
27  2.6000000000000D-01  1.6506099063529D+00  5.5172268137640D-01
28  2.7000000000000D-01  1.6691511219831D+00  5.0553413409329D-01
29  2.8000000000000D-01  1.6835278908538D+00  4.5736925273005D-01
30  2.9000000000000D-01  1.6937398077584D+00  4.0772230995447D-01
31  3.0000000000000D-01  1.6997993599027D+00  3.5706277778481D-01
32  3.1000000000000D-01  1.7017318235844D+00  3.0582818137341D-01
33  3.2000000000000D-01  1.6995751252284D+00  2.5441783643376D-01
34  3.3000000000000D-01  1.6933796675883D+00  2.0318758702042D-01
35  3.4000000000000D-01  1.6832081218364D+00  1.5244564084468D-01
36  3.5000000000000D-01  1.6691351861504D+00  1.0244957784174D-01
37  3.6000000000000D-01  1.6512473112965D+00  5.3404584681563D-02
38  3.7000000000000D-01  1.6296423935909D+00  5.4629437524714D-03
39  3.8000000000000D-01  1.6044294355094D+00 -4.1275219714018D-02
40  3.9000000000000D-01  1.5757281741172D+00 -8.6759953808151D-02
41  4.0000000000000D-01  1.5436686773981D+00 -1.3098830570000D-01
42  4.1000000000000D-01  1.5083909085021D+00 -1.7400002746736D-01
43  4.2000000000000D-01  1.4700442578809D+00 -2.1587225549075D-01
44  4.3000000000000D-01  1.4287870432743D+00 -2.5671327832928D-01
45  4.4000000000000D-01  1.3847859775243D+00 -2.9665552739203D-01
46  4.5000000000000D-01  1.3382156042536D+00 -3.3584794171199D-01
47  4.6000000000000D-01  1.2892577015383D+00 -3.7444787237114D-01
48  4.7000000000000D-01  1.2381006538363D+00 -4.1261270331322D-01
49  4.8000000000000D-01  1.1849387926132D+00 -4.5049137316970D-01
50  4.9000000000000D-01  1.1299717063180D+00 -4.8821598712436D-01
51  5.0000000000000D-01  1.0734035206217D+00 -5.2589370862513D-01
52  5.1000000000000D-01  1.0154421501193D+00 -5.6359911785458D-01
53  5.2000000000000D-01  9.5629852302876D-01 -6.0136721730828D-01
54  5.3000000000000D-01  8.9618578077354D-01 -6.3918725465857D-01
55  5.4000000000000D-01  8.3531845472148D-01 -6.7699751944812D-01
56  5.5000000000000D-01  7.7391162275448D-01 -7.1468125330552D-01
57  5.6000000000000D-01  7.1218004876008D-01 -7.5206379347646D-01
58  5.7000000000000D-01  6.5033730855774D-01 -7.8891104699617D-01
59  5.8000000000000D-01  5.8859490619363D-01 -8.2492936801077D-01
60  5.9000000000000D-01  5.2716138494783D-01 -8.5976688417222D-01
61  6.0000000000000D-01  4.6624143779074D-01 -8.9301629000534D-01
62  6.1000000000000D-01  4.0603502239004D-01 -9.2421909636410D-01
63  6.2000000000000D-01  3.4673648610094D-01 -9.5287129580271D-01
64  6.3000000000000D-01  2.8853370665689D-01 -9.7843037486188D-01
65  6.4000000000000D-01  2.3160725451429D-01 -1.0003235758916D+00
66  6.5000000000000D-01  1.7612958297823D-01 -1.0179572841930D+00
67  6.6000000000000D-01  1.2226425234631D-01 -1.0307273911577D+00
68  6.7000000000000D-01  7.0165194344087D-02 -1.0380304612217D+00
69  6.8000000000000D-01  1.9976023084776D-02 -1.0392755104894D+00
70  6.9000000000000D-01 -2.8170601334615D-02 -1.0338961881107D+00
71  7.0000000000000D-01 -7.4153550695210D-02 -1.0213631381952D+00
72  7.1000000000000D-01 -1.1786374236093D-01 -1.0011963107662D+00
73  7.2000000000000D-01 -1.5920458358772D-01 -9.7297698502707D-01
74  7.3000000000000D-01 -1.9809234165851D-01 -9.3635926730262D-01
75  7.4000000000000D-01 -2.3445643560756D-01 -8.9108082948464D-01
76  7.5000000000000D-01 -2.6823964591697D-01 -8.3697266172609D-01
77  7.6000000000000D-01 -2.9939823925769D-01 -7.7396762534442D-01
78  7.7000000000000D-01 -3.2790200610192D-01 -7.0210760833442D-01
79  7.8000000000000D-01 -3.5373420984403D-01 -6.2154910629485D-01
80  7.9000000000000D-01 -3.7689144692316D-01 -5.3256707564290D-01
81  8.0000000000000D-01 -3.9738341833422D-01 -4.3555693341478D-01
82  8.1000000000000D-01 -4.1523261382597D-01 -3.3103460807407D-01
83  8.2000000000000D-01 -4.3047391101648D-01 -2.1963457847653D-01
84  8.3000000000000D-01 -4.4315409257908D-01 -1.0210587246620D-01
85  8.4000000000000D-01 -4.5333128556302D-01  2.0693967781393D-02
86  8.5000000000000D-01 -4.6107432779550D-01  1.4780691032953D-01
87  8.6000000000000D-01 -4.6646206715135D-01  2.7818436845397D-01
88  8.7000000000000D-01 -4.6958260026159D-01  4.1069893103778D-01
89  8.8000000000000D-01 -4.7053245794875D-01  5.4415773928426D-01
90  8.9000000000000D-01 -4.6941574531342D-01  6.7731732850774D-01
91  9.0000000000000D-01 -4.6634324494235D-01  8.0889972422486D-01
92  9.1000000000000D-01 -4.6143149215324D-01  9.3760955538112D-01
93  9.2000000000000D-01 -4.5480183152593D-01  1.0621519248676D+00
94  9.3000000000000D-01 -4.4657946418887D-01  1.1812507590101D+00
95  9.4000000000000D-01 -4.3689249542691D-01  1.2936673435962D+00
96  9.5000000000000D-01 -4.2587099214690D-01  1.3982187450181D+00
97  9.6000000000000D-01 -4.1364605958214D-01  1.4937958110411D+00
98  9.7000000000000D-01 -4.0034894633380D-01  1.5793804469654D+00
99  9.8000000000000D-01 -3.8611018643993D-01  1.6540618695066D+00
100  9.9000000000000D-01 -3.7105878663532D-01  1.7170515525265D+00
101  1.0000000000000D+00 -3.5532146632302D-01  1.7676965957154D+00
102  1.0100000000000D+00 -3.3902195701687D-01  1.8054912696846D+00
103  1.0200000000000D+00 -3.2228036721099D-01  1.8300865159850D+00
104  1.0300000000000D+00 -3.0521261764506D-01  1.8412972131661D+00
105  1.0400000000000D+00 -2.8792995097454D-01  1.8391070530261D+00
106  1.0500000000000D+00 -2.7053851878419D-01  1.8236709091015D+00
107  1.0600000000000D+00 -2.5313904776180D-01  1.7953146203501D+00
108  1.0700000000000D+00 -2.3582658575791D-01  1.7545321536071D+00
109  1.0800000000000D+00 -2.1869032731683D-01  1.7019801516215D+00
110  1.0900000000000D+00 -2.0181351708642D-01  1.6384699190391D+00
111  1.1000000000000D+00 -1.8527342847649D-01  1.5649569394151D+00
112  1.1100000000000D+00 -1.6914141378748D-01  1.4825280620480D+00
113  1.1200000000000D+00 -1.5348302118820D-01  1.3923865312881D+00
114  1.1300000000000D+00 -1.3835817279825D-01  1.2958350767507D+00
115  1.1400000000000D+00 -1.2382139741370D-01  1.1942573125793D+00
116  1.1500000000000D+00 -1.0992211061308D-01  1.0890977274112D+00
117  1.1600000000000D+00 -9.6704934463852D-02  9.8184056848873D-01
118  1.1700000000000D+00 -8.4210048392984D-02  8.7398795155420D-01
119  1.1800000000000D+00 -7.2473562509204D-02  7.6703754053465D-01
120  1.1900000000000D+00 -6.1527904457101D-02  6.6246015075847D-01
121  1.2000000000000D+00 -5.1402210714286D-02  5.6167763713685D-01
122  1.2100000000000D+00 -4.2122713312965D-02  4.6604142747635D-01
123  1.2200000000000D+00 -3.3713113274164D-02  3.7681204896396D-01
124  1.2300000000000D+00 -2.6194932194236D-02  2.9513999032053D-01
125  1.2400000000000D+00 -1.9587833949104D-02  2.2204822134106D-01
126  1.2500000000000D+00 -1.3909909263523D-02  1.5841665943946D-01
127  1.2600000000000D+00 -9.1792592438989D-03  1.0498460643271D-01
128  1.2700000000000D+00 -5.4088053155169D-03  6.2276774289062D-02
129  1.2800000000000D+00 -2.5975118141187D-03  3.0478247100864D-02
130  1.2900000000000D+00 -8.2763979339200D-04  1.0666490034022D-02
131  1.3000000000000D+00 -5.0625200261130D-05  2.0503742004866D-03
132  1.3100000000000D+00  7.9665115700237D-05 -9.7702014565923D-05
133  1.3200000000000D+00 -8.1296645971795D-06  3.1585782025971D-05
134  1.3300000000000D+00 -1.5633881271540D-05  7.6075593178084D-05
135  1.3400000000000D+00  3.9835867808446D-06 -1.2916595279676D-05
136  1.3500000000000D+00  3.2629507412812D-07 -1.2032846818257D-06
137  1.3600000000000D+00 -9.6422883041336D-08 -2.6313302777253D-06
138  1.3700000000000D+00  0.0000000000000D+00  0.0000000000000D+00
139  1.3800000000000D+00  0.0000000000000D+00  0.0000000000000D+00
140  1.3900000000000D+00  0.0000000000000D+00  0.0000000000000D+00
141  1.4000000000000D+00  0.0000000000000D+00  0.0000000000000D+00
142  1.4100000000000D+00  0.0000000000000D+00  0.0000000000000D+00
143  1.4200000000000D+00  0.0000000000000D+00  0.0000000000000D+00
144  1.4300000000000D+00  0.0000000000000D+00  0.0000000000000D+00
145  1.4400000000000D+00  0.0000000000000D+00  0.0000000000000D+00
146  1.4500000000000D+00  0.0000000000000D+00  0.0000000000000D+00
147  1.4600000000000D+00  0.0000000000000D+00  0.0000000000000D+00
148  1.4700000000000D+00  0.0000000000000D+00  0.0000000000000D+00
149  1.4800000000000D+00  0.0000000000000D+00  0.0000000000000D+00
150  1.4900000000000D+00  0.0000000000000D+00  0.0000000000000D+00
151  1.5000000000000D+00  0.0000000000000D+00  0.0000000000000D+00
152  1.5100000000000D+00  0.0000000000000D+00  0.0000000000000D+00
153  1.5200000000000D+00  0.0000000000000D+00  0.0000000000000D+00
154  1.5300000000000D+00  0.0000000000000D+00  0.0000000000000D+00
155  1.5400000000000D+00  0.0000000000000D+00  0.0000000000000D+00
156  1.5500000000000D+00  0.0000000000000D+00  0.0000000000000D+00
157  1.5600000000000D+00  0.0000000000000D+00  0.0000000000000D+00
158  1.5700000000000D+00  0.0000000000000D+00  0.0000000000000D+00
159  1.5800000000000D+00  0.0000000000000D+00  0.0000000000000D+00
160  1.5900000000000D+00  0.0000000000000D+00  0.0000000000000D+00
161  1.6000000000000D+00  0.0000000000000D+00  0.0000000000000D+00
162  1.6100000000000D+00  0.0000000000000D+00  0.0000000000000D+00
163  1.6200000000000D+00  0.0000000000000D+00  0.0000000000000D+00
164  1.6300000000000D+00  0.0000000000000D+00  0.0000000000000D+00
165  1.6400000000000D+00  0.0000000000000D+00  0.0000000000000D+00
166  1.6500000000000D+00  0.0000000000000D+00  0.0000000000000D+00
167  1.6600000000000D+00  0.0000000000000D+00  0.0000000000000D+00
168  1.6700000000000D+00  0.0000000000000D+00  0.0000000000000D+00
169  1.6800000000000D+00  0.0000000000000D+00  0.0000000000000D+00
170  1.6900000000000D+00  0.0000000000000D+00  0.0000000000000D+00
171  1.7000000000000D+00  0.0000000000000D+00  0.0000000000000D+00
172  1.7100000000000D+00  0.0000000000000D+00  0.0000000000000D+00
173  1.7200000000000D+00  0.0000000000000D+00  0.0000000000000D+00
174  1.7300000000000D+00  0.0000000000000D+00  0.0000000000000D+00
175  1.7400000000000D+00  0.0000000000000D+00  0.0000000000000D+00
176  1.7500000000000D+00  0.0000000000000D+00  0.0000000000000D+00
177  1.7600000000000D+00  0.0000000000000D+00  0.0000000000000D+00
178  1.7700000000000D+00  0.0000000000000D+00  0.0000000000000D+00
179  1.7800000000000D+00  0.0000000000000D+00  0.0000000000000D+00
180  1.7900000000000D+00  0.0000000000000D+00  0.0000000000000D+00
181  1.8000000000000D+00  0.0000000000000D+00  0.0000000000000D+00
182  1.8100000000000D+00  0.0000000000000D+00  0.0000000000000D+00
183  1.8200000000000D+00  0.0000000000000D+00  0.0000000000000D+00
184  1.8300000000000D+00  0.0000000000000D+00  0.0000000000000D+00
185  1.8400000000000D+00  0.0000000000000D+00  0.0000000000000D+00
186  1.8500000000000D+00  0.0000000000000D+00  0.0000000000000D+00
187  1.8600000000000D+00  0.0000000000000D+00  0.0000000000000D+00
188  1.8700000000000D+00  0.0000000000000D+00  0.0000000000000D+00
189  1.8800000000000D+00  0.0000000000000D+00  0.0000000000000D+00
190  1.8900000000000D+00  0.0000000000000D+00  0.0000000000000D+00
191  1.9000000000000D+00  0.0000000000000D+00  0.0000000000000D+00
192  1.9100000000000D+00  0.0000000000000D+00  0.0000000000000D+00
193  1.9200000000000D+00  0.0000000000000D+00  0.0000000000000D+00
194  1.9300000000000D+00  0.0000000000000D+00  0.0000000000000D+00
195  1.9400000000000D+00  0.0000000000000D+00  0.0000000000000D+00
196  1.9500000000000D+00  0.0000000000000D+00  0.0000000000000D+00
197  1.9600000000000D+00  0.0000000000000D+00  0.0000000000000D+00
198  1.9700000000000D+00  0.0000000000000D+00  0.0000000000000D+00
199  1.9800000000000D+00  0.0000000000000D+00  0.0000000000000D+00
200  1.9900000000000D+00  0.0000000000000D+00  0.0000000000000D+00
201  2.0000000000000D+00  0.0000000000000D+00  0.0000000000000D+00
202  2.0100000000000D+00  0.0000000000000D+00  0.0000000000000D+00
203  2.0200000000000D+00  0.0000000000000D+00  0.0000000000000D+00
204  2.0300000000000D+00  0.0000000000000D+00  0.0000000000000D+00
205  2.0400000000000D+00  0.0000000000000D+00  0.0000000000000D+00
206  2.0500000000000D+00  0.0000000000000D+00  0.0000000000000D+00
207  2.0600000000000D+00  0.0000000000000D+00  0.0000000000000D+00
208  2.0700000000000D+00  0.0000000000000D+00  0.0000000000000D+00
209  2.0800000000000D+00  0.0000000000000D+00  0.0000000000000D+00
210  2.0900000000000D+00  0.0000000000000D+00  0.0000000000000D+00
211  2.1000000000000D+00  0.0000000000000D+00  0.0000000000000D+00
212  2.1100000000000D+00  0.0000000000000D+00  0.0000000000000D+00
213  2.1200000000000D+00  0.0000000000000D+00  0.0000000000000D+00
214  2.1300000000000D+00  0.0000000000000D+00  0.0000000000000D+00
215  2.1400000000000D+00  0.0000000000000D+00  0.0000000000000D+00
216  2.1500000000000D+00  0.0000000000000D+00  0.0000000000000D+00
217  2.1600000000000D+00  0.0000000000000D+00  0.0000000000000D+00
218  2.1700000000000D+00  0.0000000000000D+00  0.0000000000000D+00
219  2.1800000000000D+00  0.0000000000000D+00  0.0000000000000D+00
220  2.1900000000000D+00  0.0000000000000D+00  0.0000000000000D+00
221  2.2000000000000D+00  0.0000000000000D+00  0.0000000000000D+00
222  2.2100000000000D+00  0.0000000000000D+00  0.0000000000000D+00
223  2.2200000000000D+00  0.0000000000000D+00  0.0000000000000D+00
224  2.2300000000000D+00  0.0000000000000D+00  0.0000000000000D+00
225  2.2400000000000D+00  0.0000000000000D+00  0.0000000000000D+00
226  2.2500000000000D+00  0.0000000000000D+00  0.0000000000000D+00
227  2.2600000000000D+00  0.0000000000000D+00  0.0000000000000D+00
228  2.2700000000000D+00  0.0000000000000D+00  0.0000000000000D+00
229  2.2800000000000D+00  0.0000000000000D+00  0.0000000000000D+00
230  2.2900000000000D+00  0.0000000000000D+00  0.0000000000000D+00
231  2.3000000000000D+00  0.0000000000000D+00  0.0000000000000D+00
232  2.3100000000000D+00  0.0000000000000D+00  0.0000000000000D+00
233  2.3200000000000D+00  0.0000000000000D+00  0.0000000000000D+00
234  2.3300000000000D+00  0.0000000000000D+00  0.0000000000000D+00
235  2.3400000000000D+00  0.0000000000000D+00  0.0000000000000D+00
236  2.3500000000000D+00  0.0000000000000D+00  0.0000000000000D+00
237  2.3600000000000D+00  0.0000000000000D+00  0.0000000000000D+00
238  2.3700000000000D+00  0.0000000000000D+00  0.0000000000000D+00
239  2.3800000000000D+00  0.0000000000000D+00  0.0000000000000D+00
240  2.3900000000000D+00  0.0000000000000D+00  0.0000000000000D+00
241  2.4000000000000D+00  0.0000000000000D+00  0.0000000000000D+00
242  2.4100000000000D+00  0.0000000000000D+00  0.0000000000000D+00
243  2.4200000000000D+00  0.0000000000000D+00  0.0000000000000D+00
244  2.4300000000000D+00  0.0000000000000D+00  0.0000000000000D+00
245  2.4400000000000D+00  0.0000000000000D+00  0.0000000000000D+00
246  2.4500000000000D+00  0.0000000000000D+00  0.0000000000000D+00
247  2.4600000000000D+00  0.0000000000000D+00  0.0000000000000D+00
248  2.4700000000000D+00  0.0000000000000D+00  0.0000000000000D+00
249  2.4800000000000D+00  0.0000000000000D+00  0.0000000000000D+00
250  2.4900000000000D+00  0.0000000000000D+00  0.0000000000000D+00
251  2.5000000000000D+00  0.0000000000000D+00  0.0000000000000D+00
252  2.5100000000000D+00  0.0000000000000D+00  0.0000000000000D+00
253  2.5200000000000D+00  0.0000000000000D+00  0.0000000000000D+00
254  2.5300000000000D+00  0.0000000000000D+00  0.0000000000000D+00
255  2.5400000000000D+00  0.0000000000000D+00  0.0000000000000D+00
256  2.5500000000000D+00  0.0000000000000D+00  0.0000000000000D+00
257  2.5600000000000D+00  0.0000000000000D+00  0.0000000000000D+00
258  2.5700000000000D+00  0.0000000000000D+00  0.0000000000000D+00
259  2.5800000000000D+00  0.0000000000000D+00  0.0000000000000D+00
260  2.5900000000000D+00  0.0000000000000D+00  0.0000000000000D+00
261  2.6000000000000D+00  0.0000000000000D+00  0.0000000000000D+00
262  2.6100000000000D+00  0.0000000000000D+00  0.0000000000000D+00
263  2.6200000000000D+00  0.0000000000000D+00  0.0000000000000D+00
264  2.6300000000000D+00  0.0000000000000D+00  0.0000000000000D+00
265  2.6400000000000D+00  0.0000000000000D+00  0.0000000000000D+00
266  2.6500000000000D+00  0.0000000000000D+00  0.0000000000000D+00
267  2.6600000000000D+00  0.0000000000000D+00  0.0000000000000D+00
268  2.6700000000000D+00  0.0000000000000D+00  0.0000000000000D+00
269  2.6800000000000D+00  0.0000000000000D+00  0.0000000000000D+00
270  2.6900000000000D+00  0.0000000000000D+00  0.0000000000000D+00
271  2.7000000000000D+00  0.0000000000000D+00  0.0000000000000D+00
272  2.7100000000000D+00  0.0000000000000D+00  0.0000000000000D+00
273  2.7200000000000D+00  0.0000000000000D+00  0.0000000000000D+00
274  2.7300000000000D+00  0.0000000000000D+00  0.0000000000000D+00
275  2.7400000000000D+00  0.0000000000000D+00  0.0000000000000D+00
276  2.7500000000000D+00  0.0000000000000D+00  0.0000000000000D+00
277  2.7600000000000D+00  0.0000000000000D+00  0.0000000000000D+00
278  2.7700000000000D+00  0.0000000000000D+00  0.0000000000000D+00
279  2.7800000000000D+00  0.0000000000000D+00  0.0000000000000D+00
280  2.7900000000000D+00  0.0000000000000D+00  0.0000000000000D+00
281  2.8000000000000D+00  0.0000000000000D+00  0.0000000000000D+00
282  2.8100000000000D+00  0.0000000000000D+00  0.0000000000000D+00
283  2.8200000000000D+00  0.0000000000000D+00  0.0000000000000D+00
284  2.8300000000000D+00  0.0000000000000D+00  0.0000000000000D+00
285  2.8400000000000D+00  0.0000000000000D+00  0.0000000000000D+00
286  2.8500000000000D+00  0.0000000000000D+00  0.0000000000000D+00
287  2.8600000000000D+00  0.0000000000000D+00  0.0000000000000D+00
288  2.8700000000000D+00  0.0000000000000D+00  0.0000000000000D+00
289  2.8800000000000D+00  0.0000000000000D+00  0.0000000000000D+00
290  2.8900000000000D+00  0.0000000000000D+00  0.0000000000000D+00
291  2.9000000000000D+00  0.0000000000000D+00  0.0000000000000D+00
292  2.9100000000000D+00  0.0000000000000D+00  0.0000000000000D+00
293  2.9200000000000D+00  0.0000000000000D+00  0.0000000000000D+00
294  2.9300000000000D+00  0.0000000000000D+00  0.0000000000000D+00
295  2.9400000000000D+00  0.0000000000000D+00  0.0000000000000D+00
296  2.9500000000000D+00  0.0000000000000D+00  0.0000000000000D+00
297  2.9600000000000D+00  0.0000000000000D+00  0.0000000000000D+00
298  2.9700000000000D+00  0.0000000000000D+00  0.0000000000000D+00
299  2.9800000000000D+00  0.0000000000000D+00  0.0000000000000D+00
300  2.9900000000000D+00  0.0000000000000D+00  0.0000000000000D+00
301  3.0000000000000D+00  0.0000000000000D+00  0.0000000000000D+00
302  3.0100000000000D+00  0.0000000000000D+00  0.0000000000000D+00
303  3.0200000000000D+00  0.0000000000000D+00  0.0000000000000D+00
304  3.0300000000000D+00  0.0000000000000D+00  0.0000000000000D+00
305  3.0400000000000D+00  0.0000000000000D+00  0.0000000000000D+00
306  3.0500000000000D+00  0.0000000000000D+00  0.0000000000000D+00
307  3.0600000000000D+00  0.0000000000000D+00  0.0000000000000D+00
308  3.0700000000000D+00  0.0000000000000D+00  0.0000000000000D+00
309  3.0800000000000D+00  0.0000000000000D+00  0.0000000000000D+00
310  3.0900000000000D+00  0.0000000000000D+00  0.0000000000000D+00
311  3.1000000000000D+00  0.0000000000000D+00  0.0000000000000D+00
312  3.1100000000000D+00  0.0000000000000D+00  0.0000000000000D+00
313  3.1200000000000D+00  0.0000000000000D+00  0.0000000000000D+00
314  3.1300000000000D+00  0.0000000000000D+00  0.0000000000000D+00
315  3.1400000000000D+00  0.0000000000000D+00  0.0000000000000D+00
316  3.1500000000000D+00  0.0000000000000D+00  0.0000000000000D+00
317  3.1600000000000D+00  0.0000000000000D+00  0.0000000000000D+00
318  3.1700000000000D+00  0.0000000000000D+00  0.0000000000000D+00
319  3.1800000000000D+00  0.0000000000000D+00  0.0000000000000D+00
320  3.1900000000000D+00  0.0000000000000D+00  0.0000000000000D+00
321  3.2000000000000D+00  0.0000000000000D+00  0.0000000000000D+00
322  3.2100000000000D+00  0.0000000000000D+00  0.0000000000000D+00
323  3.2200000000000D+00  0.0000000000000D+00  0.0000000000000D+00
324  3.2300000000000D+00  0.0000000000000D+00  0.0000000000000D+00
325  3.2400000000000D+00  0.0000000000000D+00  0.0000000000000D+00
326  3.2500000000000D+00  0.0000000000000D+00  0.0000000000000D+00
327  3.2600000000000D+00  0.0000000000000D+00  0.0000000000000D+00
328  3.2700000000000D+00  0.0000000000000D+00  0.0000000000000D+00
329  3.2800000000000D+00  0.0000000000000D+00  0.0000000000000D+00
330  3.2900000000000D+00  0.0000000000000D+00  0.0000000000000D+00
331  3.3000000000000D+00  0.0000000000000D+00  0.0000000000000D+00
332  3.3100000000000D+00  0.0000000000000D+00  0.0000000000000D+00
333  3.3200000000000D+00  0.0000000000000D+00  0.0000000000000D+00
334  3.3300000000000D+00  0.0000000000000D+00  0.0000000000000D+00
335  3.3400000000000D+00  0.0000000000000D+00  0.0000000000000D+00
336  3.3500000000000D+00  0.0000000000000D+00  0.0000000000000D+00
337  3.3600000000000D+00  0.0000000000000D+00  0.0000000000000D+00
338  3.3700000000000D+00  0.0000000000000D+00  0.0000000000000D+00
339  3.3800000000000D+00  0.0000000000000D+00  0.0000000000000D+00
340  3.3900000000000D+00  0.0000000000000D+00  0.0000000000000D+00
341  3.4000000000000D+00  0.0000000000000D+00  0.0000000000000D+00
342  3.4100000000000D+00  0.0000000000000D+00  0.0000000000000D+00
343  3.4200000000000D+00  0.0000000000000D+00  0.0000000000000D+00
344  3.4300000000000D+00  0.0000000000000D+00  0.0000000000000D+00
345  3.4400000000000D+00  0.0000000000000D+00  0.0000000000000D+00
346  3.4500000000000D+00  0.0000000000000D+00  0.0000000000000D+00
347  3.4600000000000D+00  0.0000000000000D+00  0.0000000000000D+00
348  3.4700000000000D+00  0.0000000000000D+00  0.0000000000000D+00
349  3.4800000000000D+00  0.0000000000000D+00  0.0000000000000D+00
350  3.4900000000000D+00  0.0000000000000D+00  0.0000000000000D+00
351  3.5000000000000D+00  0.0000000000000D+00  0.0000000000000D+00
352  3.5100000000000D+00  0.0000000000000D+00  0.0000000000000D+00
353  3.5200000000000D+00  0.0000000000000D+00  0.0000000000000D+00
354  3.5300000000000D+00  0.0000000000000D+00  0.0000000000000D+00
355  3.5400000000000D+00  0.0000000000000D+00  0.0000000000000D+00
356  3.5500000000000D+00  0.0000000000000D+00  0.0000000000000D+00
357  3.5600000000000D+00  0.0000000000000D+00  0.0000000000000D+00
358  3.5700000000000D+00  0.0000000000000D+00  0.0000000000000D+00
359  3.5800000000000D+00  0.0000000000000D+00  0.0000000000000D+00
360  3.5900000000000D+00  0.0000000000000D+00  0.0000000000000D+00
361  3.6000000000000D+00  0.0000000000000D+00  0.0000000000000D+00
362  3.6100000000000D+00  0.0000000000000D+00  0.0000000000000D+00
363  3.6200000000000D+00  0.0000000000000D+00  0.0000000000000D+00
364  3.6300000000000D+00  0.0000000000000D+00  0.0000000000000D+00
365  3.6400000000000D+00  0.0000000000000D+00  0.0000000000000D+00
366  3.6500000000000D+00  0.0000000000000D+00  0.0000000000000D+00
367  3.6600000000000D+00  0.0000000000000D+00  0.0000000000000D+00
368  3.6700000000000D+00  0.0000000000000D+00  0.0000000000000D+00
369  3.6800000000000D+00  0.0000000000000D+00  0.0000000000000D+00
370  3.6900000000000D+00  0.0000000000000D+00  0.0000000000000D+00
371  3.7000000000000D+00  0.0000000000000D+00  0.0000000000000D+00
372  3.7100000000000D+00  0.0000000000000D+00  0.0000000000000D+00
373  3.7200000000000D+00  0.0000000000000D+00  0.0000000000000D+00
374  3.7300000000000D+00  0.0000000000000D+00  0.0000000000000D+00
375  3.7400000000000D+00  0.0000000000000D+00  0.0000000000000D+00
376  3.7500000000000D+00  0.0000000000000D+00  0.0000000000000D+00
377  3.7600000000000D+00  0.0000000000000D+00  0.0000000000000D+00
378  3.7700000000000D+00  0.0000000000000D+00  0.0000000000000D+00
379  3.7800000000000D+00  0.0000000000000D+00  0.0000000000000D+00
380  3.7900000000000D+00  0.0000000000000D+00  0.0000000000000D+00
381  3.8000000000000D+00  0.0000000000000D+00  0.0000000000000D+00
382  3.8100000000000D+00  0.0000000000000D+00  0.0000000000000D+00
383  3.8200000000000D+00  0.0000000000000D+00  0.0000000000000D+00
384  3.8300000000000D+00  0.0000000000000D+00  0.0000000000000D+00
385  3.8400000000000D+00  0.0000000000000D+00  0.0000000000000D+00
386  3.8500000000000D+00  0.0000000000000D+00  0.0000000000000D+00
387  3.8600000000000D+00  0.0000000000000D+00  0.0000000000000D+00
388  3.8700000000000D+00  0.0000000000000D+00  0.0000000000000D+00
389  3.8800000000000D+00  0.0000000000000D+00  0.0000000000000D+00
390  3.8900000000000D+00  0.0000000000000D+00  0.0000000000000D+00
391  3.9000000000000D+00  0.0000000000000D+00  0.0000000000000D+00
392  3.9100000000000D+00  0.0000000000000D+00  0.0000000000000D+00
393  3.9200000000000D+00  0.0000000000000D+00  0.0000000000000D+00
394  3.9300000000000D+00  0.0000000000000D+00  0.0000000000000D+00
395  3.9400000000000D+00  0.0000000000000D+00  0.0000000000000D+00
396  3.9500000000000D+00  0.0000000000000D+00  0.0000000000000D+00
397  3.9600000000000D+00  0.0000000000000D+00  0.0000000000000D+00
398  3.9700000000000D+00  0.0000000000000D+00  0.0000000000000D+00
399  3.9800000000000D+00  0.0000000000000D+00  0.0000000000000D+00
400  3.9900000000000D+00  0.0000000000000D+00  0.0000000000000D+00
401  4.0000000000000D+00  0.0000000000000D+00  0.0000000000000D+00
402  4.0100000000000D+00  0.0000000000000D+00  0.0000000000000D+00
403  4.0200000000000D+00  0.0000000000000D+00  0.0000000000000D+00
404  4.0300000000000D+00  0.0000000000000D+00  0.0000000000000D+00
405  4.0400000000000D+00  0.0000000000000D+00  0.0000000000000D+00
406  4.0500000000000D+00  0.0000000000000D+00  0.0000000000000D+00
407  4.0600000000000D+00  0.0000000000000D+00  0.0000000000000D+00
408  4.0700000000000D+00  0.0000000000000D+00  0.0000000000000D+00
409  4.0800000000000D+00  0.0000000000000D+00  0.0000000000000D+00
410  4.0900000000000D+00  0.0000000000000D+00  0.0000000000000D+00
411  4.1000000000000D+00  0.0000000000000D+00  0.0000000000000D+00
412  4.1100000000000D+00  0.0000000000000D+00  0.0000000000000D+00
413  4.1200000000000D+00  0.0000000000000D+00  0.0000000000000D+00
414  4.1300000000000D+00  0.0000000000000D+00  0.0000000000000D+00
415  4.1400000000000D+00  0.0000000000000D+00  0.0000000000000D+00
416  4.1500000000000D+00  0.0000000000000D+00  0.0000000000000D+00
417  4.1600000000000D+00  0.0000000000000D+00  0.0000000000000D+00
418  4.1700000000000D+00  0.0000000000000D+00  0.0000000000000D+00
419  4.1800000000000D+00  0.0000000000000D+00  0.0000000000000D+00
420  4.1900000000000D+00  0.0000000000000D+00  0.0000000000000D+00
421  4.2000000000000D+00  0.0000000000000D+00  0.0000000000000D+00
422  4.2100000000000D+00  0.0000000000000D+00  0.0000000000000D+00
423  4.2200000000000D+00  0.0000000000000D+00  0.0000000000000D+00
424  4.2300000000000D+00  0.0000000000000D+00  0.0000000000000D+00
425  4.2400000000000D+00  0.0000000000000D+00  0.0000000000000D+00
426  4.2500000000000D+00  0.0000000000000D+00  0.0000000000000D+00
427  4.2600000000000D+00  0.0000000000000D+00  0.0000000000000D+00
428  4.2700000000000D+00  0.0000000000000D+00  0.0000000000000D+00
429  4.2800000000000D+00  0.0000000000000D+00  0.0000000000000D+00
430  4.2900000000000D+00  0.0000000000000D+00  0.0000000000000D+00
431  4.3000000000000D+00  0.0000000000000D+00  0.0000000000000D+00
432  4.3100000000000D+00  0.0000000000000D+00  0.0000000000000D+00
433  4.3200000000000D+00  0.0000000000000D+00  0.0000000000000D+00
434  4.3300000000000D+00  0.0000000000000D+00  0.0000000000000D+00
435  4.3400000000000D+00  0.0000000000000D+00  0.0000000000000D+00
436  4.3500000000000D+00  0.0000000000000D+00  0.0000000000000D+00
437  4.3600000000000D+00  0.0000000000000D+00  0.0000000000000D+00
438  4.3700000000000D+00  0.0000000000000D+00  0.0000000000000D+00
439  4.3800000000000D+00  0.0000000000000D+00  0.0000000000000D+00
440  4.3900000000000D+00  0.0000000000000D+00  0.0000000000000D+00
441  4.4000000000000D+00  0.0000000000000D+00  0.0000000000000D+00
442  4.4100000000000D+00  0.0000000000000D+00  0.0000000000000D+00
443  4.4200000000000D+00  0.0000000000000D+00  0.0000000000000D+00