Ce    ONCVPSP-3.3.0  r_core=   2.00703   1.60001   1.86840   1.65831
58.0000     12.0000      180112    zatom,zion,pspd
8 -116133   3     4   600     0    pspcod,pspxc,lmax,lloc,mmax,r2well
5.99000000  0.25000000  0.00000000    rchrg fchrg qchrg
2     2     2     2     0    nproj
1     1           extension_switch
0                         7.0643916916106D+00  6.0245100467405D-01
1  0.0000000000000D+00 -1.6581069850474D-11  1.1360862250953D-10
2  1.0000000000000D-02  3.3124944657170D-02 -1.3587888123953D-02
3  2.0000000000000D-02  6.6227303984746D-02 -2.7105590583707D-02
4  3.0000000000000D-02  9.9284537298433D-02 -4.0483429964983D-02
5  4.0000000000000D-02  1.3227419275966D-01 -5.3652741366365D-02
6  5.0000000000000D-02  1.6517395069041D-01 -6.6546368717126D-02
7  6.0000000000000D-02  1.9796166557031D-01 -7.9099149249321D-02
8  7.0000000000000D-02  2.3061540629608D-01 -9.1248382309321D-02
9  8.0000000000000D-02  2.6311349430048D-01 -1.0293427880757D-01
10  9.0000000000000D-02  2.9543453914778D-01 -1.1410038774591D-01
11  1.0000000000000D-01  3.2755747124774D-01 -1.2469399642872D-01
12  1.1000000000000D-01  3.5946157135724D-01 -1.3466650115588D-01
13  1.2000000000000D-01  3.9112649657050D-01 -1.4397374541147D-01
14  1.3000000000000D-01  4.2253230253273D-01 -1.5257632280026D-01
15  1.4000000000000D-01  4.5365946164969D-01 -1.6043984224364D-01
16  1.5000000000000D-01  4.8448887710512D-01 -1.6753515322466D-01
17  1.6000000000000D-01  5.1500189254047D-01 -1.7383852916855D-01
18  1.7000000000000D-01  5.4518029729507D-01 -1.7933180735629D-01
19  1.8000000000000D-01  5.7500632715102D-01 -1.8400248409393D-01
20  1.9000000000000D-01  6.0446266057365D-01 -1.8784376419716D-01
21  2.0000000000000D-01  6.3353241048641D-01 -1.9085456419558D-01
22  2.1000000000000D-01  6.6219911166738D-01 -1.9303946901401D-01
23  2.2000000000000D-01  6.9044670390278D-01 -1.9440864224395D-01
24  2.3000000000000D-01  7.1825951108114D-01 -1.9497769047740D-01
25  2.4000000000000D-01  7.4562221645874D-01 -1.9476748253241D-01
26  2.5000000000000D-01  7.7251983437337D-01 -1.9380392475420D-01
27  2.6000000000000D-01  7.9893767872755D-01 -1.9211769392457D-01
28  2.7000000000000D-01  8.2486132860529D-01 -1.8974392965206D-01
29  2.8000000000000D-01  8.5027659142600D-01 -1.8672188844518D-01
30  2.9000000000000D-01  8.7516946407678D-01 -1.8309456198632D-01
31  3.0000000000000D-01  8.9952609249809D-01 -1.7890826242433D-01
32  3.1000000000000D-01  9.2333273022826D-01 -1.7421217778550D-01
33  3.2000000000000D-01  9.4657569643874D-01 -1.6905790086343D-01
34  3.3000000000000D-01  9.6924133401415D-01 -1.6349893518719D-01
35  3.4000000000000D-01  9.9131596824886D-01 -1.5759018188051D-01
36  3.5000000000000D-01  1.0127858667444D+00 -1.5138741141156D-01
37  3.6000000000000D-01  1.0336372010995D+00 -1.4494672439122D-01
38  3.7000000000000D-01  1.0538560109881D+00 -1.3832400570630D-01
39  3.8000000000000D-01  1.0734281712142D+00 -1.3157437637042D-01
40  3.9000000000000D-01  1.0923393623285D+00 -1.2475164753960D-01
41  4.0000000000000D-01  1.1105750453729D+00 -1.1790778116983D-01
42  4.1000000000000D-01  1.1281204413007D+00 -1.1109236179009D-01
43  4.2000000000000D-01  1.1449605155936D+00 -1.0435208382479D-01
44  4.3000000000000D-01  1.1610799685665D+00 -9.7730258825947D-02
45  4.4000000000000D-01  1.1764632318109D+00 -9.1266346865927D-02
46  4.5000000000000D-01  1.1910944711871D+00 -8.4995516197492D-02
47  4.6000000000000D-01  1.2049575967276D+00 -7.8948235109361D-02
48  4.7000000000000D-01  1.2180362797591D+00 -7.3149899694024D-02
49  4.8000000000000D-01  1.2303139774944D+00 -6.7620501000314D-02
50  4.9000000000000D-01  1.2417739652850D+00 -6.2374334768057D-02
51  5.0000000000000D-01  1.2523993766551D+00 -5.7419756638775D-02
52  5.1000000000000D-01  1.2621732511732D+00 -5.2758985404450D-02
53  5.2000000000000D-01  1.2710785901426D+00 -4.8387956500886D-02
54  5.3000000000000D-01  1.2790984200195D+00 -4.4296227572862D-02
55  5.4000000000000D-01  1.2862158633879D+00 -4.0466937541244D-02
56  5.5000000000000D-01  1.2924142172493D+00 -3.6876820185683D-02
57  5.6000000000000D-01  1.2976770383005D+00 -3.3496272829495D-02
58  5.7000000000000D-01  1.3019882348011D+00 -3.0289480273756D-02
59  5.8000000000000D-01  1.3053321645526D+00 -2.7214593682358D-02
60  5.9000000000000D-01  1.3076937384380D+00 -2.4223963672111D-02
61  6.0000000000000D-01  1.3090585288982D+00 -2.1264426413105D-02
62  6.1000000000000D-01  1.3094128826521D+00 -1.8277641103385D-02
63  6.2000000000000D-01  1.3087440369035D+00 -1.5200476745697D-02
64  6.3000000000000D-01  1.3070402382177D+00 -1.1965445733455D-02
65  6.4000000000000D-01  1.3042908631953D+00 -8.5011813472383D-03
66  6.5000000000000D-01  1.3004865400224D+00 -4.7329558766828D-03
67  6.6000000000000D-01  1.2956192699377D+00 -5.8323572243382D-04
68  6.7000000000000D-01  1.2896825476182D+00  4.0277305019667D-03
69  6.8000000000000D-01  1.2826714794647D+00  9.1812951518146D-03
70  6.9000000000000D-01  1.2745828987469D+00  1.4959770568698D-02
71  7.0000000000000D-01  1.2654154765639D+00  2.1445768717507D-02
72  7.1000000000000D-01  1.2551698275731D+00  2.8721526419795D-02
73  7.2000000000000D-01  1.2438486094570D+00  3.6868221309861D-02
74  7.3000000000000D-01  1.2314566151139D+00  4.5965283745679D-02
75  7.4000000000000D-01  1.2180008565951D+00  5.6089709967692D-02
76  7.5000000000000D-01  1.2034906398494D+00  6.7315381811262D-02
77  7.6000000000000D-01  1.1879376293903D+00  7.9712398244870D-02
78  7.7000000000000D-01  1.1713559020626D+00  9.3346423923858D-02
79  7.8000000000000D-01  1.1537619891593D+00  1.0827805981972D-01
80  7.9000000000000D-01  1.1351749062168D+00  1.2456224080848D-01
81  8.0000000000000D-01  1.1156161699129D+00  1.4224766487936D-01
82  8.1000000000000D-01  1.0951098015860D+00  1.6137625835877D-01
83  8.2000000000000D-01  1.0736823170017D+00  1.8198268123672D-01
84  8.3000000000000D-01  1.0513627021083D+00  2.0409387633610D-01
85  8.4000000000000D-01  1.0281823746364D+00  2.2772866568285D-01
86  8.5000000000000D-01  1.0041751315273D+00  2.5289739702164D-01
87  8.6000000000000D-01  9.7937708229700D-01  2.7960164297862D-01
88  8.7000000000000D-01  9.5382656857414D-01  3.0783395491001D-01
89  8.8000000000000D-01  9.2756407018066D-01  3.3757767299097D-01
90  8.9000000000000D-01  9.0063209825302D-01  3.6880679360540D-01
91  9.0000000000000D-01  8.7307507603012D-01  4.0148589459475D-01
92  9.1000000000000D-01  8.4493920805888D-01  4.3557011842108D-01
93  9.2000000000000D-01  8.1627233868806D-01  4.7100521280198D-01
94  9.3000000000000D-01  7.8712380083431D-01  5.0772762788801D-01
95  9.4000000000000D-01  7.5754425610982D-01  5.4566466858510D-01
96  9.5000000000000D-01  7.2758552749667D-01  5.8473470017860D-01
97  9.6000000000000D-01  6.9730042583806D-01  6.2484740500058D-01
98  9.7000000000000D-01  6.6674257148891D-01  6.6590408750273D-01
99  9.8000000000000D-01  6.3596621252699D-01  7.0779802475934D-01
100  9.9000000000000D-01  6.0502604096927D-01  7.5041485913146D-01
101  1.0000000000000D+00  5.7397700846526D-01  7.9363302958950D-01
102  1.0100000000000D+00  5.4287414294982D-01  8.3732423800046D-01
103  1.0200000000000D+00  5.1177236772921D-01  8.8135394656605D-01
104  1.0300000000000D+00  4.8072632444737D-01  9.2558190253613D-01
105  1.0400000000000D+00  4.4979020133380D-01  9.6986268632341D-01
106  1.0500000000000D+00  4.1901756806520D-01  1.0140462792214D+00
107  1.0600000000000D+00  3.8846121849216D-01  1.0579786470560D+00
108  1.0700000000000D+00  3.5817302237456D-01  1.1015023363043D+00
109  1.0800000000000D+00  3.2820378714197D-01  1.1444570794922D+00
110  1.0900000000000D+00  2.9860313055771D-01  1.1866804069961D+00
111  1.1000000000000D+00  2.6941936499013D-01  1.2280082628011D+00
112  1.1100000000000D+00  2.4069939384448D-01  1.2682756221386D+00
113  1.1200000000000D+00  2.1248862048828D-01  1.3073171094885D+00
114  1.1300000000000D+00  1.8483086981249D-01  1.3449676159245D+00
115  1.1400000000000D+00  1.5776832233828D-01  1.3810629153853D+00
116  1.1500000000000D+00  1.3134146058393D-01  1.4154402799582D+00
117  1.1600000000000D+00  1.0558902715040D-01  1.4479390949283D+00
118  1.1700000000000D+00  8.0547993750964D-02  1.4784014749385D+00
119  1.1800000000000D+00  5.6253540159993D-02  1.5066728832191D+00
120  1.1900000000000D+00  3.2739041897171D-02  1.5326027562400D+00
121  1.2000000000000D+00  1.0036065143303D-02  1.5560451368892D+00
122  1.2100000000000D+00 -1.1825632780880D-02  1.5768593196090D+00
123  1.2200000000000D+00 -3.2818099225491D-02  1.5949105112679D+00
124  1.2300000000000D+00 -5.2915180347877D-02  1.6100705119157D+00
125  1.2400000000000D+00 -7.2092515804753D-02  1.6222184197694D+00
126  1.2500000000000D+00 -9.0327536287619D-02  1.6312413646244D+00
127  1.2600000000000D+00 -1.0759946630213D-01  1.6370352741087D+00
128  1.2700000000000D+00 -1.2388933468047D-01  1.6395056767112D+00
129  1.2800000000000D+00 -1.3917999519943D-01  1.6385685447203D+00
130  1.2900000000000D+00 -1.5345615979714D-01  1.6341511805583D+00
131  1.3000000000000D+00 -1.6670444664631D-01  1.6261931479523D+00
132  1.3100000000000D+00 -1.7891344508485D-01  1.6146472481760D+00
133  1.3200000000000D+00 -1.9007379956649D-01  1.5994805420746D+00
134  1.3300000000000D+00 -2.0017831394236D-01  1.5806754138839D+00
135  1.3400000000000D+00 -2.0922207723792D-01  1.5582306723676D+00
136  1.3500000000000D+00 -2.1720261205671D-01  1.5321626842129D+00
137  1.3600000000000D+00 -2.2412004501702D-01  1.5025065264064D+00
138  1.3700000000000D+00 -2.2997729928300D-01  1.4693171474846D+00
139  1.3800000000000D+00 -2.3478030797160D-01  1.4326705212398D+00
140  1.3900000000000D+00 -2.3853824496598D-01  1.3926647665845D+00
141  1.4000000000000D+00 -2.4126377217387D-01  1.3494212182736D+00
142  1.4100000000000D+00 -2.4297329659371D-01  1.3030854078844D+00
143  1.4200000000000D+00 -2.4368723267591D-01  1.2538279241181D+00
144  1.4300000000000D+00 -2.4343026401737D-01  1.2018451146848D+00
145  1.4400000000000D+00 -2.4223159218842D-01  1.1473595654713D+00
146  1.4500000000000D+00 -2.4012516808234D-01  1.0906203250339D+00
147  1.4600000000000D+00 -2.3714988769317D-01  1.0319027848314D+00
148  1.4700000000000D+00 -2.3334974227922D-01  9.7150816009874D-01
149  1.4800000000000D+00 -2.2877390577780D-01  9.0976248584112D-01
150  1.4900000000000D+00 -2.2347673703825D-01  8.4701502051251D-01
151  1.5000000000000D+00 -2.1751768389912D-01  7.8363598932347D-01
152  1.5100000000000D+00 -2.1096105195107D-01  7.2001349800927D-01
153  1.5200000000000D+00 -2.0387562655562D-01  6.5654955539100D-01
154  1.5300000000000D+00 -1.9633410177992D-01  5.9365499726471D-01
155  1.5400000000000D+00 -1.8841229494075D-01  5.3174320866818D-01
156  1.5500000000000D+00 -1.8018808666906D-01  4.7122233339902D-01
157  1.5600000000000D+00 -1.7174014143281D-01  4.1248648592649D-01
158  1.5700000000000D+00 -1.6314597102443D-01  3.5590295057573D-01
159  1.5800000000000D+00 -1.5448059358872D-01  3.0180423286053D-01
160  1.5900000000000D+00 -1.4581321613200D-01  2.5046770069655D-01
161  1.6000000000000D+00 -1.3720287181854D-01  2.0208724600583D-01
162  1.6100000000000D+00 -1.2869935784598D-01  1.5678669698046D-01
163  1.6200000000000D+00 -1.2034332211285D-01  1.1462792532091D-01
164  1.6300000000000D+00 -1.1216943286668D-01  7.5635519964605D-02
165  1.6400000000000D+00 -1.0421032171801D-01  3.9828096214481D-02
166  1.6500000000000D+00 -9.6495056062464D-02  7.2072008928608D-03
167  1.6600000000000D+00 -8.9048830260889D-02 -2.2245461128223D-02
168  1.6700000000000D+00 -8.1893453707946D-02 -4.8563665859411D-02
169  1.6800000000000D+00 -7.5047168300463D-02 -7.1798037908210D-02
170  1.6900000000000D+00 -6.8524785097212D-02 -9.2014924255773D-02
171  1.7000000000000D+00 -6.2337747286808D-02 -1.0929591144695D-01
172  1.7100000000000D+00 -5.6494232230445D-02 -1.2373710711559D-01
173  1.7200000000000D+00 -5.0999273236882D-02 -1.3544832943012D-01
174  1.7300000000000D+00 -4.5854901848211D-02 -1.4455220081339D-01
175  1.7400000000000D+00 -4.1060307523609D-02 -1.5118316145930D-01
176  1.7500000000000D+00 -3.6612015332269D-02 -1.5548639986657D-01
177  1.7600000000000D+00 -3.2504078221936D-02 -1.5761671743496D-01
178  1.7700000000000D+00 -2.8728284275798D-02 -1.5773732537487D-01
179  1.7800000000000D+00 -2.5274375396779D-02 -1.5601859152761D-01
180  1.7900000000000D+00 -2.2130277413667D-02 -1.5263673746003D-01
181  1.8000000000000D+00 -1.9282338347649D-02 -1.4777250188936D-01
182  1.8100000000000D+00 -1.6715574039199D-02 -1.4160977473067D-01
183  1.8200000000000D+00 -1.4413918546808D-02 -1.3433421449321D-01
184  1.8300000000000D+00 -1.2360477678458D-02 -1.2613185739792D-01
185  1.8400000000000D+00 -1.0537783727692D-02 -1.1718772770135D-01
186  1.8500000000000D+00 -8.9280491661535D-03 -1.0768446056425D-01
187  1.8600000000000D+00 -7.5134175833802D-03 -9.7800945961387D-02
188  1.8700000000000D+00 -6.2762099488494D-03 -8.7711003138263D-02
189  1.8800000000000D+00 -5.1991640466349D-03 -7.7582096358930D-02
190  1.8900000000000D+00 -4.2656660845714D-03 -6.7574096843430D-02
191  1.9000000000000D+00 -3.4599708522482D-03 -5.7838109146747D-02
192  1.9100000000000D+00 -2.7674116660130D-03 -4.8515355478510D-02
193  1.9200000000000D+00 -2.1745947652272D-03 -3.9736144782485D-02
194  1.9300000000000D+00 -1.6695803524391D-03 -3.1618915457786D-02
195  1.9400000000000D+00 -1.2421833538788D-03 -2.4272308987726D-02
196  1.9500000000000D+00 -8.8375444042802D-04 -1.7786568883145D-02
197  1.9600000000000D+00 -5.8703348903881D-04 -1.2226493252261D-02
198  1.9700000000000D+00 -3.4695129398091D-04 -7.6349246552715D-03
199  1.9800000000000D+00 -1.6378268357012D-04 -4.1527216691471D-03
200  1.9900000000000D+00 -3.7151099706197D-05 -1.8585017876800D-03
201  2.0000000000000D+00  3.3742751216126D-05 -5.9540460143960D-04
202  2.0100000000000D+00  5.2547501694064D-05 -5.9421325879099D-05
203  2.0200000000000D+00  3.2476020762801D-05  6.3548480126540D-05
204  2.0300000000000D+00  2.8357931737069D-06  8.6240236588784D-06
205  2.0400000000000D+00 -8.1290071292788D-06 -2.9520026358356D-05
206  2.0500000000000D+00 -4.6129274955695D-06 -1.8741891008895D-05
207  2.0600000000000D+00  1.0876680072346D-06  2.8352529034982D-06
208  2.0700000000000D+00  1.6177613717991D-06  4.6059650939059D-06
209  2.0800000000000D+00  2.9930556155358D-08  9.0828060507984D-08
210  2.0900000000000D+00 -1.4530441904433D-07  4.5632944020969D-07
211  2.1000000000000D+00 -8.4975209289420D-08  2.6686517823599D-07
212  2.1100000000000D+00  0.0000000000000D+00  0.0000000000000D+00
213  2.1200000000000D+00  0.0000000000000D+00  0.0000000000000D+00
214  2.1300000000000D+00  0.0000000000000D+00  0.0000000000000D+00
215  2.1400000000000D+00  0.0000000000000D+00  0.0000000000000D+00
216  2.1500000000000D+00  0.0000000000000D+00  0.0000000000000D+00
217  2.1600000000000D+00  0.0000000000000D+00  0.0000000000000D+00
218  2.1700000000000D+00  0.0000000000000D+00  0.0000000000000D+00
219  2.1800000000000D+00  0.0000000000000D+00  0.0000000000000D+00
220  2.1900000000000D+00  0.0000000000000D+00  0.0000000000000D+00
221  2.2000000000000D+00  0.0000000000000D+00  0.0000000000000D+00
222  2.2100000000000D+00  0.0000000000000D+00  0.0000000000000D+00
223  2.2200000000000D+00  0.0000000000000D+00  0.0000000000000D+00
224  2.2300000000000D+00  0.0000000000000D+00  0.0000000000000D+00
225  2.2400000000000D+00  0.0000000000000D+00  0.0000000000000D+00
226  2.2500000000000D+00  0.0000000000000D+00  0.0000000000000D+00
227  2.2600000000000D+00  0.0000000000000D+00  0.0000000000000D+00
228  2.2700000000000D+00  0.0000000000000D+00  0.0000000000000D+00
229  2.2800000000000D+00  0.0000000000000D+00  0.0000000000000D+00
230  2.2900000000000D+00  0.0000000000000D+00  0.0000000000000D+00
231  2.3000000000000D+00  0.0000000000000D+00  0.0000000000000D+00
232  2.3100000000000D+00  0.0000000000000D+00  0.0000000000000D+00
233  2.3200000000000D+00  0.0000000000000D+00  0.0000000000000D+00
234  2.3300000000000D+00  0.0000000000000D+00  0.0000000000000D+00
235  2.3400000000000D+00  0.0000000000000D+00  0.0000000000000D+00
236  2.3500000000000D+00  0.0000000000000D+00  0.0000000000000D+00
237  2.3600000000000D+00  0.0000000000000D+00  0.0000000000000D+00
238  2.3700000000000D+00  0.0000000000000D+00  0.0000000000000D+00
239  2.3800000000000D+00  0.0000000000000D+00  0.0000000000000D+00
240  2.3900000000000D+00  0.0000000000000D+00  0.0000000000000D+00
241  2.4000000000000D+00  0.0000000000000D+00  0.0000000000000D+00
242  2.4100000000000D+00  0.0000000000000D+00  0.0000000000000D+00
243  2.4200000000000D+00  0.0000000000000D+00  0.0000000000000D+00
244  2.4300000000000D+00  0.0000000000000D+00  0.0000000000000D+00
245  2.4400000000000D+00  0.0000000000000D+00  0.0000000000000D+00
246  2.4500000000000D+00  0.0000000000000D+00  0.0000000000000D+00
247  2.4600000000000D+00  0.0000000000000D+00  0.0000000000000D+00
248  2.4700000000000D+00  0.0000000000000D+00  0.0000000000000D+00
249  2.4800000000000D+00  0.0000000000000D+00  0.0000000000000D+00
250  2.4900000000000D+00  0.0000000000000D+00  0.0000000000000D+00
251  2.5000000000000D+00  0.0000000000000D+00  0.0000000000000D+00
252  2.5100000000000D+00  0.0000000000000D+00  0.0000000000000D+00
253  2.5200000000000D+00  0.0000000000000D+00  0.0000000000000D+00
254  2.5300000000000D+00  0.0000000000000D+00  0.0000000000000D+00
255  2.5400000000000D+00  0.0000000000000D+00  0.0000000000000D+00
256  2.5500000000000D+00  0.0000000000000D+00  0.0000000000000D+00
257  2.5600000000000D+00  0.0000000000000D+00  0.0000000000000D+00
258  2.5700000000000D+00  0.0000000000000D+00  0.0000000000000D+00
259  2.5800000000000D+00  0.0000000000000D+00  0.0000000000000D+00
260  2.5900000000000D+00  0.0000000000000D+00  0.0000000000000D+00
261  2.6000000000000D+00  0.0000000000000D+00  0.0000000000000D+00
262  2.6100000000000D+00  0.0000000000000D+00  0.0000000000000D+00
263  2.6200000000000D+00  0.0000000000000D+00  0.0000000000000D+00
264  2.6300000000000D+00  0.0000000000000D+00  0.0000000000000D+00
265  2.6400000000000D+00  0.0000000000000D+00  0.0000000000000D+00
266  2.6500000000000D+00  0.0000000000000D+00  0.0000000000000D+00
267  2.6600000000000D+00  0.0000000000000D+00  0.0000000000000D+00
268  2.6700000000000D+00  0.0000000000000D+00  0.0000000000000D+00
269  2.6800000000000D+00  0.0000000000000D+00  0.0000000000000D+00
270  2.6900000000000D+00  0.0000000000000D+00  0.0000000000000D+00
271  2.7000000000000D+00  0.0000000000000D+00  0.0000000000000D+00
272  2.7100000000000D+00  0.0000000000000D+00  0.0000000000000D+00
273  2.7200000000000D+00  0.0000000000000D+00  0.0000000000000D+00
274  2.7300000000000D+00  0.0000000000000D+00  0.0000000000000D+00
275  2.7400000000000D+00  0.0000000000000D+00  0.0000000000000D+00
276  2.7500000000000D+00  0.0000000000000D+00  0.0000000000000D+00
277  2.7600000000000D+00  0.0000000000000D+00  0.0000000000000D+00
278  2.7700000000000D+00  0.0000000000000D+00  0.0000000000000D+00
279  2.7800000000000D+00  0.0000000000000D+00  0.0000000000000D+00
280  2.7900000000000D+00  0.0000000000000D+00  0.0000000000000D+00
281  2.8000000000000D+00  0.0000000000000D+00  0.0000000000000D+00
282  2.8100000000000D+00  0.0000000000000D+00  0.0000000000000D+00
283  2.8200000000000D+00  0.0000000000000D+00  0.0000000000000D+00
284  2.8300000000000D+00  0.0000000000000D+00  0.0000000000000D+00
285  2.8400000000000D+00  0.0000000000000D+00  0.0000000000000D+00
286  2.8500000000000D+00  0.0000000000000D+00  0.0000000000000D+00
287  2.8600000000000D+00  0.0000000000000D+00  0.0000000000000D+00
288  2.8700000000000D+00  0.0000000000000D+00  0.0000000000000D+00
289  2.8800000000000D+00  0.0000000000000D+00  0.0000000000000D+00
290  2.8900000000000D+00  0.0000000000000D+00  0.0000000000000D+00
291  2.9000000000000D+00  0.0000000000000D+00  0.0000000000000D+00
292  2.9100000000000D+00  0.0000000000000D+00  0.0000000000000D+00
293  2.9200000000000D+00  0.0000000000000D+00  0.0000000000000D+00
294  2.9300000000000D+00  0.0000000000000D+00  0.0000000000000D+00
295  2.9400000000000D+00  0.0000000000000D+00  0.0000000000000D+00
296  2.9500000000000D+00  0.0000000000000D+00  0.0000000000000D+00
297  2.9600000000000D+00  0.0000000000000D+00  0.0000000000000D+00
298  2.9700000000000D+00  0.0000000000000D+00  0.0000000000000D+00
299  2.9800000000000D+00  0.0000000000000D+00  0.0000000000000D+00
300  2.9900000000000D+00  0.0000000000000D+00  0.0000000000000D+00
301  3.0000000000000D+00  0.0000000000000D+00  0.0000000000000D+00
302  3.0100000000000D+00  0.0000000000000D+00  0.0000000000000D+00
303  3.0200000000000D+00  0.0000000000000D+00  0.0000000000000D+00
304  3.0300000000000D+00  0.0000000000000D+00  0.0000000000000D+00
305  3.0400000000000D+00  0.0000000000000D+00  0.0000000000000D+00
306  3.0500000000000D+00  0.0000000000000D+00  0.0000000000000D+00
307  3.0600000000000D+00  0.0000000000000D+00  0.0000000000000D+00
308  3.0700000000000D+00  0.0000000000000D+00  0.0000000000000D+00
309  3.0800000000000D+00  0.0000000000000D+00  0.0000000000000D+00
310  3.0900000000000D+00  0.0000000000000D+00  0.0000000000000D+00
311  3.1000000000000D+00  0.0000000000000D+00  0.0000000000000D+00
312  3.1100000000000D+00  0.0000000000000D+00  0.0000000000000D+00
313  3.1200000000000D+00  0.0000000000000D+00  0.0000000000000D+00
314  3.1300000000000D+00  0.0000000000000D+00  0.0000000000000D+00
315  3.1400000000000D+00  0.0000000000000D+00  0.0000000000000D+00
316  3.1500000000000D+00  0.0000000000000D+00  0.0000000000000D+00
317  3.1600000000000D+00  0.0000000000000D+00  0.0000000000000D+00
318  3.1700000000000D+00  0.0000000000000D+00  0.0000000000000D+00
319  3.1800000000000D+00  0.0000000000000D+00  0.0000000000000D+00
320  3.1900000000000D+00  0.0000000000000D+00  0.0000000000000D+00
321  3.2000000000000D+00  0.0000000000000D+00  0.0000000000000D+00
322  3.2100000000000D+00  0.0000000000000D+00  0.0000000000000D+00
323  3.2200000000000D+00  0.0000000000000D+00  0.0000000000000D+00
324  3.2300000000000D+00  0.0000000000000D+00  0.0000000000000D+00
325  3.2400000000000D+00  0.0000000000000D+00  0.0000000000000D+00
326  3.2500000000000D+00  0.0000000000000D+00  0.0000000000000D+00
327  3.2600000000000D+00  0.0000000000000D+00  0.0000000000000D+00
328  3.2700000000000D+00  0.0000000000000D+00  0.0000000000000D+00
329  3.2800000000000D+00  0.0000000000000D+00  0.0000000000000D+00
330  3.2900000000000D+00  0.0000000000000D+00  0.0000000000000D+00
331  3.3000000000000D+00  0.0000000000000D+00  0.0000000000000D+00
332  3.3100000000000D+00  0.0000000000000D+00  0.0000000000000D+00
333  3.3200000000000D+00  0.0000000000000D+00  0.0000000000000D+00
334  3.3300000000000D+00  0.0000000000000D+00  0.0000000000000D+00
335  3.3400000000000D+00  0.0000000000000D+00  0.0000000000000D+00
336  3.3500000000000D+00  0.0000000000000D+00  0.0000000000000D+00
337  3.3600000000000D+00  0.0000000000000D+00  0.0000000000000D+00
338  3.3700000000000D+00  0.0000000000000D+00  0.0000000000000D+00
339  3.3800000000000D+00  0.0000000000000D+00  0.0000000000000D+00
340  3.3900000000000D+00  0.0000000000000D+00  0.0000000000000D+00
341  3.4000000000000D+00  0.0000000000000D+00  0.0000000000000D+00
342  3.4100000000000D+00  0.0000000000000D+00  0.0000000000000D+00
343  3.4200000000000D+00  0.0000000000000D+00  0.0000000000000D+00
344  3.4300000000000D+00  0.0000000000000D+00  0.0000000000000D+00
345  3.4400000000000D+00  0.0000000000000D+00  0.0000000000000D+00
346  3.4500000000000D+00  0.0000000000000D+00  0.0000000000000D+00
347  3.4600000000000D+00  0.0000000000000D+00  0.0000000000000D+00
348  3.4700000000000D+00  0.0000000000000D+00  0.0000000000000D+00
349  3.4800000000000D+00  0.0000000000000D+00  0.0000000000000D+00
350  3.4900000000000D+00  0.0000000000000D+00  0.0000000000000D+00
351  3.5000000000000D+00  0.0000000000000D+00  0.0000000000000D+00
352  3.5100000000000D+00  0.0000000000000D+00  0.0000000000000D+00
353  3.5200000000000D+00  0.0000000000000D+00  0.0000000000000D+00
354  3.5300000000000D+00  0.0000000000000D+00  0.0000000000000D+00
355  3.5400000000000D+00  0.0000000000000D+00  0.0000000000000D+00
356  3.5500000000000D+00  0.0000000000000D+00  0.0000000000000D+00
357  3.5600000000000D+00  0.0000000000000D+00  0.0000000000000D+00
358  3.5700000000000D+00  0.0000000000000D+00  0.0000000000000D+00
359  3.5800000000000D+00  0.0000000000000D+00  0.0000000000000D+00
360  3.5900000000000D+00  0.0000000000000D+00  0.0000000000000D+00
361  3.6000000000000D+00  0.0000000000000D+00  0.0000000000000D+00
362  3.6100000000000D+00  0.0000000000000D+00  0.0000000000000D+00
363  3.6200000000000D+00  0.0000000000000D+00  0.0000000000000D+00
364  3.6300000000000D+00  0.0000000000000D+00  0.0000000000000D+00
365  3.6400000000000D+00  0.0000000000000D+00  0.0000000000000D+00
366  3.6500000000000D+00  0.0000000000000D+00  0.0000000000000D+00
367  3.6600000000000D+00  0.0000000000000D+00  0.0000000000000D+00
368  3.6700000000000D+00  0.0000000000000D+00  0.0000000000000D+00
369  3.6800000000000D+00  0.0000000000000D+00  0.0000000000000D+00
370  3.6900000000000D+00  0.0000000000000D+00  0.0000000000000D+00
371  3.7000000000000D+00  0.0000000000000D+00  0.0000000000000D+00
372  3.7100000000000D+00  0.0000000000000D+00  0.0000000000000D+00
373  3.7200000000000D+00  0.0000000000000D+00  0.0000000000000D+00
374  3.7300000000000D+00  0.0000000000000D+00  0.0000000000000D+00
375  3.7400000000000D+00  0.0000000000000D+00  0.0000000000000D+00
376  3.7500000000000D+00  0.0000000000000D+00  0.0000000000000D+00
377  3.7600000000000D+00  0.0000000000000D+00  0.0000000000000D+00
378  3.7700000000000D+00  0.0000000000000D+00  0.0000000000000D+00
379  3.7800000000000D+00  0.0000000000000D+00  0.0000000000000D+00
380  3.7900000000000D+00  0.0000000000000D+00  0.0000000000000D+00
381  3.8000000000000D+00  0.0000000000000D+00  0.0000000000000D+00
382  3.8100000000000D+00  0.0000000000000D+00  0.0000000000000D+00
383  3.8200000000000D+00  0.0000000000000D+00  0.0000000000000D+00
384  3.8300000000000D+00  0.0000000000000D+00  0.0000000000000D+00
385  3.8400000000000D+00  0.0000000000000D+00  0.0000000000000D+00
386  3.8500000000000D+00  0.0000000000000D+00  0.0000000000000D+00
387  3.8600000000000D+00  0.0000000000000D+00  0.0000000000000D+00
388  3.8700000000000D+00  0.0000000000000D+00  0.0000000000000D+00
389  3.8800000000000D+00  0.0000000000000D+00  0.0000000000000D+00
390  3.8900000000000D+00  0.0000000000000D+00  0.0000000000000D+00
391  3.9000000000000D+00  0.0000000000000D+00  0.0000000000000D+00
392  3.9100000000000D+00  0.0000000000000D+00  0.0000000000000D+00
393  3.9200000000000D+00  0.0000000000000D+00  0.0000000000000D+00
394  3.9300000000000D+00  0.0000000000000D+00  0.0000000000000D+00
395  3.9400000000000D+00  0.0000000000000D+00  0.0000000000000D+00
396  3.9500000000000D+00  0.0000000000000D+00  0.0000000000000D+00
397  3.9600000000000D+00  0.0000000000000D+00  0.0000000000000D+00
398  3.9700000000000D+00  0.0000000000000D+00  0.0000000000000D+00
399  3.9800000000000D+00  0.0000000000000D+00  0.0000000000000D+00
400  3.9900000000000D+00  0.0000000000000D+00  0.0000000000000D+00
401  4.0000000000000D+00  0.0000000000000D+00  0.0000000000000D+00
402  4.0100000000000D+00  0.0000000000000D+00  0.0000000000000D+00
403  4.0200000000000D+00  0.0000000000000D+00  0.0000000000000D+00
404  4.0300000000000D+00  0.0000000000000D+00  0.0000000000000D+00
405  4.0400000000000D+00  0.0000000000000D+00  0.0000000000000D+00
406  4.0500000000000D+00  0.0000000000000D+00  0.0000000000000D+00
407  4.0600000000000D+00  0.0000000000000D+00  0.0000000000000D+00
408  4.0700000000000D+00  0.0000000000000D+00  0.0000000000000D+00
409  4.0800000000000D+00  0.0000000000000D+00  0.0000000000000D+00
410  4.0900000000000D+00  0.0000000000000D+00  0.0000000000000D+00
411  4.1000000000000D+00  0.0000000000000D+00  0.0000000000000D+00
412  4.1100000000000D+00  0.0000000000000D+00  0.0000000000000D+00
413  4.1200000000000D+00  0.0000000000000D+00  0.0000000000000D+00
414  4.1300000000000D+00  0.0000000000000D+00  0.0000000000000D+00
415  4.1400000000000D+00  0.0000000000000D+00  0.0000000000000D+00
416  4.1500000000000D+00  0.0000000000000D+00  0.0000000000000D+00
417  4.1600000000000D+00  0.0000000000000D+00  0.0000000000000D+00
418  4.1700000000000D+00  0.0000000000000D+00  0.0000000000000D+00
419  4.1800000000000D+00  0.0000000000000D+00  0.0000000000000D+00
420  4.1900000000000D+00  0.0000000000000D+00  0.0000000000000D+00
421  4.2000000000000D+00  0.0000000000000D+00  0.0000000000000D+00
422  4.2100000000000D+00  0.0000000000000D+00  0.0000000000000D+00
423  4.2200000000000D+00  0.0000000000000D+00  0.0000000000000D+00
424  4.2300000000000D+00  0.0000000000000D+00  0.0000000000000D+00
425  4.2400000000000D+00  0.0000000000000D+00  0.0000000000000D+00
426  4.2500000000000D+00  0.0000000000000D+00  0.0000000000000D+00
427  4.2600000000000D+00  0.0000000000000D+00  0.0000000000000D+00
428  4.2700000000000D+00  0.0000000000000D+00  0.0000000000000D+00
429  4.2800000000000D+00  0.0000000000000D+00  0.0000000000000D+00
430  4.2900000000000D+00  0.0000000000000D+00  0.0000000000000D+00
431  4.3000000000000D+00  0.0000000000000D+00  0.0000000000000D+00
432  4.3100000000000D+00  0.0000000000000D+00  0.0000000000000D+00
433  4.3200000000000D+00  0.0000000000000D+00  0.0000000000000D+00
434  4.3300000000000D+00  0.0000000000000D+00  0.0000000000000D+00
435  4.3400000000000D+00  0.0000000000000D+00  0.0000000000000D+00
436  4.3500000000000D+00  0.0000000000000D+00  0.0000000000000D+00
437  4.3600000000000D+00  0.0000000000000D+00  0.0000000000000D+00
438  4.3700000000000D+00  0.0000000000000D+00  0.0000000000000D+00
439  4.3800000000000D+00  0.0000000000000D+00  0.0000000000000D+00
440  4.3900000000000D+00  0.0000000000000D+00  0.0000000000000D+00
441  4.4000000000000D+00  0.0000000000000D+00  0.0000000000000D+00
442  4.4100000000000D+00  0.0000000000000D+00  0.0000000000000D+00
443  4.4200000000000D+00  0.0000000000000D+00  0.0000000000000D+00