Ce    ONCVPSP-3.3.0  r_core=   2.10511   1.91351   1.91351   2.51758
58.0000     11.0000      180112    zatom,zion,pspd
8 -116133   3     4   600     0    pspcod,pspxc,lmax,lloc,mmax,r2well
5.99000000  5.20000000  0.00000000    rchrg fchrg qchrg
2     2     2     1     0    nproj
1     1           extension_switch
0                         5.8129269339198D+00  4.9479376407685D-01
1  0.0000000000000D+00 -4.2579051395819D-11  1.6957779624960D-10
2  1.0000000000000D-02  4.2345539294153D-02 -2.0600181143159D-02
3  2.0000000000000D-02  8.4627299615020D-02 -4.1078991624750D-02
4  3.0000000000000D-02  1.2678175218475D-01 -6.1315878382689D-02
5  4.0000000000000D-02  1.6874586705163D-01 -8.1191917601676D-02
6  5.0000000000000D-02  2.1045735860210D-01 -1.0059061449930D-01
7  6.0000000000000D-02  2.5185492642182D-01 -1.1939868542799D-01
8  7.0000000000000D-02  2.9287849000567D-01 -1.3750681659818D-01
9  8.0000000000000D-02  3.3346941585915D-01 -1.5481039389766D-01
10  9.0000000000000D-02  3.7357073558638D-01 -1.7121019849165D-01
11  1.0000000000000D-01  4.1312735362223D-01 -1.8661306313682D-01
12  1.1000000000000D-01  4.5208624333771D-01 -2.0093248442696D-01
13  1.2000000000000D-01  4.9039663032818D-01 -2.1408918650833D-01
14  1.3000000000000D-01  5.2801016178267D-01 -2.2601163215453D-01
15  1.4000000000000D-01  5.6488106092831D-01 -2.3663647747299D-01
16  1.5000000000000D-01  6.0096626564747D-01 -2.4590896692425D-01
17  1.6000000000000D-01  6.3622555047389D-01 -2.5378326576845D-01
18  1.7000000000000D-01  6.7062163128883D-01 -2.6022272750790D-01
19  1.8000000000000D-01  7.0412025215752D-01 -2.6520009436660D-01
20  1.9000000000000D-01  7.3669025386874D-01 -2.6869762933388D-01
21  2.0000000000000D-01  7.6830362386638D-01 -2.7070717879686D-01
22  2.1000000000000D-01  7.9893552738933D-01 -2.7123016529057D-01
23  2.2000000000000D-01  8.2856431976497D-01 -2.7027751040302D-01
24  2.3000000000000D-01  8.5717153993042D-01 -2.6786948838042D-01
25  2.4000000000000D-01  8.8474188538400D-01 -2.6403551148224D-01
26  2.5000000000000D-01  9.1126316889597D-01 -2.5881384863292D-01
27  2.6000000000000D-01  9.3672625743176D-01 -2.5225127940330D-01
28  2.7000000000000D-01  9.6112499386158D-01 -2.4440268582674D-01
29  2.8000000000000D-01  9.8445610214694D-01 -2.3533058500893D-01
30  2.9000000000000D-01  1.0067190768060D+00 -2.2510460592394D-01
31  3.0000000000000D-01  1.0279160575657D+00 -2.1380091419768D-01
32  3.1000000000000D-01  1.0480516902071D+00 -2.0150158906227D-01
33  3.2000000000000D-01  1.0671329747032D+00 -1.8829395701731D-01
34  3.3000000000000D-01  1.0851691018326D+00 -1.7426988705374D-01
35  3.4000000000000D-01  1.1021712795265D+00 -1.5952505258193D-01
36  3.5000000000000D-01  1.1181525502763D+00 -1.4415816545434D-01
37  3.6000000000000D-01  1.1331276009831D+00 -1.2827018768410D-01
38  3.7000000000000D-01  1.1471125666806D+00 -1.1196352663107D-01
39  3.8000000000000D-01  1.1601248295995D+00 -9.5341219557424D-02
40  3.9000000000000D-01  1.1721828150680D+00 -7.8506113542068D-02
41  4.0000000000000D-01  1.1833057857612D+00 -6.1560046788472D-02
42  4.1000000000000D-01  1.1935136358162D+00 -4.4603037362968D-02
43  4.2000000000000D-01  1.2028266863285D+00 -2.7732485359411D-02
44  4.3000000000000D-01  1.2112654837251D+00 -1.1042394403211D-02
45  4.4000000000000D-01  1.2188506024894D+00  5.3773817181649D-03
46  4.5000000000000D-01  1.2256024536741D+00  2.1441861677672D-02
47  4.6000000000000D-01  1.2315411005917D+00  3.7071623070379D-02
48  4.7000000000000D-01  1.2366860830195D+00  5.2193447546037D-02
49  4.8000000000000D-01  1.2410562511889D+00  6.6740919726707D-02
50  4.9000000000000D-01  1.2446696107555D+00  8.0654975340578D-02
51  5.0000000000000D-01  1.2475431798648D+00  9.3884394353688D-02
52  5.1000000000000D-01  1.2496928593392D+00  1.0638623526104D-01
53  5.2000000000000D-01  1.2511333169133D+00  1.1812620710749D-01
54  5.3000000000000D-01  1.2518778863436D+00  1.2907897624104D-01
55  5.4000000000000D-01  1.2519384821089D+00  1.3922840525657D-01
56  5.5000000000000D-01  1.2513255303019D+00  1.4856772206132D-01
57  5.6000000000000D-01  1.2500479161985D+00  1.5709961748316D-01
58  5.7000000000000D-01  1.2481129488662D+00  1.6483627034284D-01
59  5.8000000000000D-01  1.2455263430512D+00  1.7179929942302D-01
60  5.9000000000000D-01  1.2422922184579D+00  1.7801964227965D-01
61  6.0000000000000D-01  1.2384131164069D+00  1.8353736136107D-01
62  6.1000000000000D-01  1.2338900337347D+00  1.8840137841152D-01
63  6.2000000000000D-01  1.2287224736684D+00  1.9266913864849D-01
64  6.3000000000000D-01  1.2229085132887D+00  1.9640620670163D-01
65  6.4000000000000D-01  1.2164448870728D+00  1.9968579678957D-01
66  6.5000000000000D-01  1.2093270858899D+00  2.0258824008470D-01
67  6.6000000000000D-01  1.2015494707110D+00  2.0520039266757D-01
68  6.7000000000000D-01  1.1931054001841D+00  2.0761498790575D-01
69  6.8000000000000D-01  1.1839873711263D+00  2.0992993749796D-01
70  6.9000000000000D-01  1.1741871708840D+00  2.1224758580361D-01
71  7.0000000000000D-01  1.1636960404291D+00  2.1467392242522D-01
72  7.1000000000000D-01  1.1525048469725D+00  2.1731775832895D-01
73  7.2000000000000D-01  1.1406042648057D+00  2.2028987106798D-01
74  7.3000000000000D-01  1.1279849630174D+00  2.2370212491799D-01
75  7.4000000000000D-01  1.1146377986748D+00  2.2766657193969D-01
76  7.5000000000000D-01  1.1005540140156D+00  2.3229454014878D-01
77  7.6000000000000D-01  1.0857254361600D+00  2.3769571509809D-01
78  7.7000000000000D-01  1.0701446778254D+00  2.4397722125939D-01
79  7.8000000000000D-01  1.0538053375132D+00  2.5124270963149D-01
80  7.9000000000000D-01  1.0367021976293D+00  2.5959145799778D-01
81  8.0000000000000D-01  1.0188314190086D+00  2.6911749021090D-01
82  8.1000000000000D-01  1.0001907303246D+00  2.7990872079108D-01
83  8.2000000000000D-01  9.8077961089784D-01  2.9204613099415D-01
84  8.3000000000000D-01  9.6059946544592D-01  3.0560298233119D-01
85  8.4000000000000D-01  9.3965378937036D-01  3.2064407330739D-01
86  8.5000000000000D-01  9.1794832322673D-01  3.3722504489458D-01
87  8.6000000000000D-01  8.9549119509223D-01  3.5539173996021D-01
88  8.7000000000000D-01  8.7229304961755D-01  3.7517962154873D-01
89  8.8000000000000D-01  8.4836716263280D-01  3.9661325454952D-01
90  8.9000000000000D-01  8.2372954026735D-01  4.1970585489328D-01
91  9.0000000000000D-01  7.9839900164100D-01  4.4445890999620D-01
92  9.1000000000000D-01  7.7239724428833D-01  4.7086187372271D-01
93  9.2000000000000D-01  7.4574889158829D-01  4.9889193866535D-01
94  9.3000000000000D-01  7.1848152158674D-01  5.2851388804684D-01
95  9.4000000000000D-01  6.9062567672015D-01  5.5968002903882D-01
96  9.5000000000000D-01  6.6221485407242D-01  5.9233020876665D-01
97  9.6000000000000D-01  6.3328547592413D-01  6.2639191373323D-01
98  9.7000000000000D-01  6.0387684048291D-01  6.6178045285108D-01
99  9.8000000000000D-01  5.7403105281386D-01  6.9839922372544D-01
100  9.9000000000000D-01  5.4379293612212D-01  7.3614006127504D-01
101  1.0000000000000D+00  5.1320992366696D-01  7.7488366724718D-01
102  1.0100000000000D+00  4.8233193172009D-01  8.1450011862925D-01
103  1.0200000000000D+00  4.5121121410775D-01  8.5484945243503D-01
104  1.0300000000000D+00  4.1990219900023D-01  8.9578232383023D-01
105  1.0400000000000D+00  3.8846130873438D-01  9.3714073406219D-01
106  1.0500000000000D+00  3.5694676357370D-01  9.7875882416988D-01
107  1.0600000000000D+00  3.2541837041721D-01  1.0204637300161D+00
108  1.0700000000000D+00  2.9393729757849D-01  1.0620764937355D+00
109  1.0800000000000D+00  2.6256583685543D-01  1.1034130262923D+00
110  1.0900000000000D+00  2.3136715419987D-01  1.1442851154851D+00
111  1.1000000000000D+00  2.0040503038544D-01  1.1845014733823D+00
112  1.1100000000000D+00  1.6974359313780D-01  1.2238688169088D+00
113  1.1200000000000D+00  1.3944704226896D-01  1.2621929750051D+00
114  1.1300000000000D+00  1.0957936940762D-01  1.2992800155845D+00
115  1.1400000000000D+00  8.0204073966255D-02  1.3349373853346D+00
116  1.1500000000000D+00  5.1383877018845D-02  1.3689750552858D+00
117  1.1600000000000D+00  2.3180434795013D-02  1.4012066649625D+00
118  1.1700000000000D+00 -4.3459464912542D-03  1.4314506579016D+00
119  1.1800000000000D+00 -3.1136592760173D-02  1.4595314013460D+00
120  1.1900000000000D+00 -5.7134739412271D-02  1.4852802829321D+00
121  1.2000000000000D+00 -8.2285802204347D-02  1.5085367773115D+00
122  1.2100000000000D+00 -1.0653763999038D-01  1.5291494758056D+00
123  1.2200000000000D+00 -1.2984080769949D-01  1.5469770723658D+00
124  1.2300000000000D+00 -1.5214879795949D-01  1.5618892992880D+00
125  1.2400000000000D+00 -1.7341826986022D-01  1.5737678065151D+00
126  1.2500000000000D+00 -1.9360926342130D-01  1.5825069786755D+00
127  1.2600000000000D+00 -2.1268539835693D-01  1.5880146841346D+00
128  1.2700000000000D+00 -2.3061405589503D-01  1.5902129510626D+00
129  1.2800000000000D+00 -2.4736654248992D-01  1.5890385658767D+00
130  1.2900000000000D+00 -2.6291823428256D-01  1.5844435894846D+00
131  1.3000000000000D+00 -2.7724870141918D-01  1.5763957878739D+00
132  1.3100000000000D+00 -2.9034181139659D-01  1.5648789738320D+00
133  1.3200000000000D+00 -3.0218581062862D-01  1.5498932567036D+00
134  1.3300000000000D+00 -3.1277338376778D-01  1.5314551985478D+00
135  1.3400000000000D+00 -3.2210169029460D-01  1.5095978749627D+00
136  1.3500000000000D+00 -3.3017237800044D-01  1.4843708393348D+00
137  1.3600000000000D+00 -3.3699157335150D-01  1.4558399908099D+00
138  1.3700000000000D+00 -3.4256984856976D-01  1.4240873456342D+00
139  1.3800000000000D+00 -3.4692216559585D-01  1.3892107129197D+00
140  1.3900000000000D+00 -3.5006779733151D-01  1.3513232768594D+00
141  1.4000000000000D+00 -3.5203022630495D-01  1.3105530863569D+00
142  1.4100000000000D+00 -3.5283702159873D-01  1.2670424559621D+00
143  1.4200000000000D+00 -3.5251969455494D-01  1.2209472806370D+00
144  1.4300000000000D+00 -3.5111353406753D-01  1.1724362681208D+00
145  1.4400000000000D+00 -3.4865742261677D-01  1.1216900940968D+00
146  1.4500000000000D+00 -3.4519363377768D-01  1.0689004836058D+00
147  1.4600000000000D+00 -3.4076761274788D-01  1.0142692255323D+00
148  1.4700000000000D+00 -3.3542774092202D-01  9.5800712483363D-01
149  1.4800000000000D+00 -3.2922508602449D-01  9.0033289919741D-01
150  1.4900000000000D+00 -3.2221313930670D-01  8.4147202676373D-01
151  1.5000000000000D+00 -3.1444754122490D-01  7.8165555121298D-01
152  1.5100000000000D+00 -3.0598579744551D-01  7.2111885222441D-01
153  1.5200000000000D+00 -2.9688698662045D-01  6.6010038772449D-01
154  1.5300000000000D+00 -2.8721146187955D-01  5.9884041631115D-01
155  1.5400000000000D+00 -2.7702054763997D-01  5.3757970689140D-01
156  1.5500000000000D+00 -2.6637623363114D-01  4.7655824371912D-01
157  1.5600000000000D+00 -2.5534086783124D-01  4.1601393419178D-01
158  1.5700000000000D+00 -2.4397685021471D-01  3.5618132761886D-01
159  1.5800000000000D+00 -2.3234632890693D-01  2.9729035180293D-01
160  1.5900000000000D+00 -2.2051090075151D-01  2.3956507612031D-01
161  1.6000000000000D+00 -2.0853131757529D-01  1.8322250652648D-01
162  1.6100000000000D+00 -1.9646720036505D-01  1.2847142208207D-01
163  1.6200000000000D+00 -1.8437676213984D-01  7.5511256206427D-02
164  1.6300000000000D+00 -1.7231654197886D-01  2.4531033309959D-02
165  1.6400000000000D+00 -1.6034115045849D-01 -2.4291638300422D-02
166  1.6500000000000D+00 -1.4850302902370D-01 -7.0791506343146D-02
167  1.6600000000000D+00 -1.3685222313975D-01 -1.1481654816925D-01
168  1.6700000000000D+00 -1.2543617166367D-01 -1.5622876756703D-01
169  1.6800000000000D+00 -1.1429951186568D-01 -1.9490491740315D-01
170  1.6900000000000D+00 -1.0348390243689D-01 -2.3073713809167D-01
171  1.7000000000000D+00 -9.3027863416955D-02 -2.6363351665792D-01
172  1.7100000000000D+00 -8.2966635319082D-02 -2.9351855667086D-01
173  1.7200000000000D+00 -7.3332055767922D-02 -3.2033356645892D-01
174  1.7300000000000D+00 -6.4152455966042D-02 -3.4403695574445D-01
175  1.7400000000000D+00 -5.5452574535939D-02 -3.6460445140024D-01
176  1.7500000000000D+00 -4.7253491223900D-02 -3.8202922175572D-01
177  1.7600000000000D+00 -3.9572577096707D-02 -3.9632192406995D-01
178  1.7700000000000D+00 -3.2423463989429D-02 -4.0751066345951D-01
179  1.7800000000000D+00 -2.5816028923422D-02 -4.1564088178367D-01
180  1.7900000000000D+00 -1.9756396320801D-02 -4.2077516451452D-01
181  1.8000000000000D+00 -1.4246953356956D-02 -4.2299298568118D-01
182  1.8100000000000D+00 -9.2863805696369D-03 -4.2239038197759D-01
183  1.8200000000000D+00 -4.8696935469231D-03 -4.1907957403510D-01
184  1.8300000000000D+00 -9.8829647984808D-04 -4.1318853167433D-01
185  1.8400000000000D+00  2.3699556576240D-03 -4.0486049709660D-01
186  1.8500000000000D+00  5.2206906261910D-03 -3.9425348622443D-01
187  1.8600000000000D+00  7.5829327213843D-03 -3.8153969477942D-01
188  1.8700000000000D+00  9.4790339624586D-03 -3.6690498161483D-01
189  1.8800000000000D+00  1.0934625467664D-02 -3.5054844512265D-01
190  1.8900000000000D+00  1.1978341155284D-02 -3.3268094178406D-01
191  1.9000000000000D+00  1.2641944837428D-02 -3.1352542663065D-01
192  1.9100000000000D+00  1.2960748520515D-02 -2.9331878002931D-01
193  1.9200000000000D+00  1.2972426319281D-02 -2.7230596728481D-01
194  1.9300000000000D+00  1.2716288011922D-02 -2.5073632948004D-01
195  1.9400000000000D+00  1.2232378532944D-02 -2.2885932445913D-01
196  1.9500000000000D+00  1.1560302214723D-02 -2.0691906220186D-01
197  1.9600000000000D+00  1.0738267804720D-02 -1.8514987608030D-01
198  1.9700000000000D+00  9.8031516246780D-03 -1.6377674379791D-01
199  1.9800000000000D+00  8.7904021944045D-03 -1.4301505231610D-01
200  1.9900000000000D+00  7.7334675042223D-03 -1.2306795579163D-01
201  2.0000000000000D+00  6.6636056236454D-03 -1.0412562283693D-01
202  2.0100000000000D+00  5.6096098557500D-03 -8.6364054591391D-02
203  2.0200000000000D+00  4.5975530807427D-03 -6.9943987127800D-02
204  2.0300000000000D+00  3.6505646508761D-03 -5.5009941704929D-02
205  2.0400000000000D+00  2.7894144430308D-03 -4.1701190315420D-02
206  2.0500000000000D+00  2.0290540753861D-03 -3.0101628368121D-02
207  2.0600000000000D+00  1.3800103303643D-03 -2.0267285277732D-02
208  2.0700000000000D+00  8.5583899397626D-04 -1.2325052301636D-02
209  2.0800000000000D+00  4.7155847091575D-04 -6.4515074312150D-03
210  2.0900000000000D+00  2.3454860080604D-04 -2.7261319433405D-03
211  2.1000000000000D+00  1.0645950432820D-04 -7.2521600836799D-04
212  2.1100000000000D+00  4.3276030090413D-05  6.7097697571204D-05
213  2.1200000000000D+00  1.2473731578495D-05  1.7112829101017D-04
214  2.1300000000000D+00  2.4420245017016D-07  6.8138479016938D-06
215  2.1400000000000D+00 -1.4295092234459D-06 -7.1648181895468D-05
216  2.1500000000000D+00 -5.0039698580075D-07 -4.5177479184619D-05
217  2.1600000000000D+00  3.3589491562975D-07  6.5312352165037D-06
218  2.1700000000000D+00  5.2296808636252D-07  1.2228978075792D-05
219  2.1800000000000D+00  9.5651301582157D-08  2.6093502086607D-06
220  2.1900000000000D+00 -1.7460904353624D-07  5.2157923124736D-07
221  2.2000000000000D+00 -1.5576109955744D-07  4.6527804585650D-07
222  2.2100000000000D+00  0.0000000000000D+00  0.0000000000000D+00
223  2.2200000000000D+00  0.0000000000000D+00  0.0000000000000D+00
224  2.2300000000000D+00  0.0000000000000D+00  0.0000000000000D+00
225  2.2400000000000D+00  0.0000000000000D+00  0.0000000000000D+00
226  2.2500000000000D+00  0.0000000000000D+00  0.0000000000000D+00
227  2.2600000000000D+00  0.0000000000000D+00  0.0000000000000D+00
228  2.2700000000000D+00  0.0000000000000D+00  0.0000000000000D+00
229  2.2800000000000D+00  0.0000000000000D+00  0.0000000000000D+00
230  2.2900000000000D+00  0.0000000000000D+00  0.0000000000000D+00
231  2.3000000000000D+00  0.0000000000000D+00  0.0000000000000D+00
232  2.3100000000000D+00  0.0000000000000D+00  0.0000000000000D+00
233  2.3200000000000D+00  0.0000000000000D+00  0.0000000000000D+00
234  2.3300000000000D+00  0.0000000000000D+00  0.0000000000000D+00
235  2.3400000000000D+00  0.0000000000000D+00  0.0000000000000D+00
236  2.3500000000000D+00  0.0000000000000D+00  0.0000000000000D+00
237  2.3600000000000D+00  0.0000000000000D+00  0.0000000000000D+00
238  2.3700000000000D+00  0.0000000000000D+00  0.0000000000000D+00
239  2.3800000000000D+00  0.0000000000000D+00  0.0000000000000D+00
240  2.3900000000000D+00  0.0000000000000D+00  0.0000000000000D+00
241  2.4000000000000D+00  0.0000000000000D+00  0.0000000000000D+00
242  2.4100000000000D+00  0.0000000000000D+00  0.0000000000000D+00
243  2.4200000000000D+00  0.0000000000000D+00  0.0000000000000D+00
244  2.4300000000000D+00  0.0000000000000D+00  0.0000000000000D+00
245  2.4400000000000D+00  0.0000000000000D+00  0.0000000000000D+00
246  2.4500000000000D+00  0.0000000000000D+00  0.0000000000000D+00
247  2.4600000000000D+00  0.0000000000000D+00  0.0000000000000D+00
248  2.4700000000000D+00  0.0000000000000D+00  0.0000000000000D+00
249  2.4800000000000D+00  0.0000000000000D+00  0.0000000000000D+00
250  2.4900000000000D+00  0.0000000000000D+00  0.0000000000000D+00
251  2.5000000000000D+00  0.0000000000000D+00  0.0000000000000D+00
252  2.5100000000000D+00  0.0000000000000D+00  0.0000000000000D+00
253  2.5200000000000D+00  0.0000000000000D+00  0.0000000000000D+00
254  2.5300000000000D+00  0.0000000000000D+00  0.0000000000000D+00
255  2.5400000000000D+00  0.0000000000000D+00  0.0000000000000D+00
256  2.5500000000000D+00  0.0000000000000D+00  0.0000000000000D+00
257  2.5600000000000D+00  0.0000000000000D+00  0.0000000000000D+00
258  2.5700000000000D+00  0.0000000000000D+00  0.0000000000000D+00
259  2.5800000000000D+00  0.0000000000000D+00  0.0000000000000D+00
260  2.5900000000000D+00  0.0000000000000D+00  0.0000000000000D+00
261  2.6000000000000D+00  0.0000000000000D+00  0.0000000000000D+00
262  2.6100000000000D+00  0.0000000000000D+00  0.0000000000000D+00
263  2.6200000000000D+00  0.0000000000000D+00  0.0000000000000D+00
264  2.6300000000000D+00  0.0000000000000D+00  0.0000000000000D+00
265  2.6400000000000D+00  0.0000000000000D+00  0.0000000000000D+00
266  2.6500000000000D+00  0.0000000000000D+00  0.0000000000000D+00
267  2.6600000000000D+00  0.0000000000000D+00  0.0000000000000D+00
268  2.6700000000000D+00  0.0000000000000D+00  0.0000000000000D+00
269  2.6800000000000D+00  0.0000000000000D+00  0.0000000000000D+00
270  2.6900000000000D+00  0.0000000000000D+00  0.0000000000000D+00
271  2.7000000000000D+00  0.0000000000000D+00  0.0000000000000D+00
272  2.7100000000000D+00  0.0000000000000D+00  0.0000000000000D+00
273  2.7200000000000D+00  0.0000000000000D+00  0.0000000000000D+00
274  2.7300000000000D+00  0.0000000000000D+00  0.0000000000000D+00
275  2.7400000000000D+00  0.0000000000000D+00  0.0000000000000D+00
276  2.7500000000000D+00  0.0000000000000D+00  0.0000000000000D+00
277  2.7600000000000D+00  0.0000000000000D+00  0.0000000000000D+00
278  2.7700000000000D+00  0.0000000000000D+00  0.0000000000000D+00
279  2.7800000000000D+00  0.0000000000000D+00  0.0000000000000D+00
280  2.7900000000000D+00  0.0000000000000D+00  0.0000000000000D+00
281  2.8000000000000D+00  0.0000000000000D+00  0.0000000000000D+00
282  2.8100000000000D+00  0.0000000000000D+00  0.0000000000000D+00
283  2.8200000000000D+00  0.0000000000000D+00  0.0000000000000D+00
284  2.8300000000000D+00  0.0000000000000D+00  0.0000000000000D+00
285  2.8400000000000D+00  0.0000000000000D+00  0.0000000000000D+00
286  2.8500000000000D+00  0.0000000000000D+00  0.0000000000000D+00
287  2.8600000000000D+00  0.0000000000000D+00  0.0000000000000D+00
288  2.8700000000000D+00  0.0000000000000D+00  0.0000000000000D+00
289  2.8800000000000D+00  0.0000000000000D+00  0.0000000000000D+00
290  2.8900000000000D+00  0.0000000000000D+00  0.0000000000000D+00
291  2.9000000000000D+00  0.0000000000000D+00  0.0000000000000D+00
292  2.9100000000000D+00  0.0000000000000D+00  0.0000000000000D+00
293  2.9200000000000D+00  0.0000000000000D+00  0.0000000000000D+00
294  2.9300000000000D+00  0.0000000000000D+00  0.0000000000000D+00
295  2.9400000000000D+00  0.0000000000000D+00  0.0000000000000D+00
296  2.9500000000000D+00  0.0000000000000D+00  0.0000000000000D+00
297  2.9600000000000D+00  0.0000000000000D+00  0.0000000000000D+00
298  2.9700000000000D+00  0.0000000000000D+00  0.0000000000000D+00
299  2.9800000000000D+00  0.0000000000000D+00  0.0000000000000D+00
300  2.9900000000000D+00  0.0000000000000D+00  0.0000000000000D+00
301  3.0000000000000D+00  0.0000000000000D+00  0.0000000000000D+00
302  3.0100000000000D+00  0.0000000000000D+00  0.0000000000000D+00
303  3.0200000000000D+00  0.0000000000000D+00  0.0000000000000D+00
304  3.0300000000000D+00  0.0000000000000D+00  0.0000000000000D+00
305  3.0400000000000D+00  0.0000000000000D+00  0.0000000000000D+00
306  3.0500000000000D+00  0.0000000000000D+00  0.0000000000000D+00
307  3.0600000000000D+00  0.0000000000000D+00  0.0000000000000D+00
308  3.0700000000000D+00  0.0000000000000D+00  0.0000000000000D+00
309  3.0800000000000D+00  0.0000000000000D+00  0.0000000000000D+00
310  3.0900000000000D+00  0.0000000000000D+00  0.0000000000000D+00
311  3.1000000000000D+00  0.0000000000000D+00  0.0000000000000D+00
312  3.1100000000000D+00  0.0000000000000D+00  0.0000000000000D+00
313  3.1200000000000D+00  0.0000000000000D+00  0.0000000000000D+00
314  3.1300000000000D+00  0.0000000000000D+00  0.0000000000000D+00
315  3.1400000000000D+00  0.0000000000000D+00  0.0000000000000D+00
316  3.1500000000000D+00  0.0000000000000D+00  0.0000000000000D+00
317  3.1600000000000D+00  0.0000000000000D+00  0.0000000000000D+00
318  3.1700000000000D+00  0.0000000000000D+00  0.0000000000000D+00
319  3.1800000000000D+00  0.0000000000000D+00  0.0000000000000D+00
320  3.1900000000000D+00  0.0000000000000D+00  0.0000000000000D+00
321  3.2000000000000D+00  0.0000000000000D+00  0.0000000000000D+00
322  3.2100000000000D+00  0.0000000000000D+00  0.0000000000000D+00
323  3.2200000000000D+00  0.0000000000000D+00  0.0000000000000D+00
324  3.2300000000000D+00  0.0000000000000D+00  0.0000000000000D+00
325  3.2400000000000D+00  0.0000000000000D+00  0.0000000000000D+00
326  3.2500000000000D+00  0.0000000000000D+00  0.0000000000000D+00
327  3.2600000000000D+00  0.0000000000000D+00  0.0000000000000D+00
328  3.2700000000000D+00  0.0000000000000D+00  0.0000000000000D+00
329  3.2800000000000D+00  0.0000000000000D+00  0.0000000000000D+00
330  3.2900000000000D+00  0.0000000000000D+00  0.0000000000000D+00
331  3.3000000000000D+00  0.0000000000000D+00  0.0000000000000D+00
332  3.3100000000000D+00  0.0000000000000D+00  0.0000000000000D+00
333  3.3200000000000D+00  0.0000000000000D+00  0.0000000000000D+00
334  3.3300000000000D+00  0.0000000000000D+00  0.0000000000000D+00
335  3.3400000000000D+00  0.0000000000000D+00  0.0000000000000D+00
336  3.3500000000000D+00  0.0000000000000D+00  0.0000000000000D+00
337  3.3600000000000D+00  0.0000000000000D+00  0.0000000000000D+00
338  3.3700000000000D+00  0.0000000000000D+00  0.0000000000000D+00
339  3.3800000000000D+00  0.0000000000000D+00  0.0000000000000D+00
340  3.3900000000000D+00  0.0000000000000D+00  0.0000000000000D+00
341  3.4000000000000D+00  0.0000000000000D+00  0.0000000000000D+00
342  3.4100000000000D+00  0.0000000000000D+00  0.0000000000000D+00
343  3.4200000000000D+00  0.0000000000000D+00  0.0000000000000D+00
344  3.4300000000000D+00  0.0000000000000D+00  0.0000000000000D+00
345  3.4400000000000D+00  0.0000000000000D+00  0.0000000000000D+00
346  3.4500000000000D+00  0.0000000000000D+00  0.0000000000000D+00
347  3.4600000000000D+00  0.0000000000000D+00  0.0000000000000D+00
348  3.4700000000000D+00  0.0000000000000D+00  0.0000000000000D+00
349  3.4800000000000D+00  0.0000000000000D+00  0.0000000000000D+00
350  3.4900000000000D+00  0.0000000000000D+00  0.0000000000000D+00
351  3.5000000000000D+00  0.0000000000000D+00  0.0000000000000D+00
352  3.5100000000000D+00  0.0000000000000D+00  0.0000000000000D+00
353  3.5200000000000D+00  0.0000000000000D+00  0.0000000000000D+00
354  3.5300000000000D+00  0.0000000000000D+00  0.0000000000000D+00
355  3.5400000000000D+00  0.0000000000000D+00  0.0000000000000D+00
356  3.5500000000000D+00  0.0000000000000D+00  0.0000000000000D+00
357  3.5600000000000D+00  0.0000000000000D+00  0.0000000000000D+00
358  3.5700000000000D+00  0.0000000000000D+00  0.0000000000000D+00
359  3.5800000000000D+00  0.0000000000000D+00  0.0000000000000D+00
360  3.5900000000000D+00  0.0000000000000D+00  0.0000000000000D+00
361  3.6000000000000D+00  0.0000000000000D+00  0.0000000000000D+00
362  3.6100000000000D+00  0.0000000000000D+00  0.0000000000000D+00
363  3.6200000000000D+00  0.0000000000000D+00  0.0000000000000D+00
364  3.6300000000000D+00  0.0000000000000D+00  0.0000000000000D+00
365  3.6400000000000D+00  0.0000000000000D+00  0.0000000000000D+00
366  3.6500000000000D+00  0.0000000000000D+00  0.0000000000000D+00
367  3.6600000000000D+00  0.0000000000000D+00  0.0000000000000D+00
368  3.6700000000000D+00  0.0000000000000D+00  0.0000000000000D+00
369  3.6800000000000D+00  0.0000000000000D+00  0.0000000000000D+00
370  3.6900000000000D+00  0.0000000000000D+00  0.0000000000000D+00
371  3.7000000000000D+00  0.0000000000000D+00  0.0000000000000D+00
372  3.7100000000000D+00  0.0000000000000D+00  0.0000000000000D+00
373  3.7200000000000D+00  0.0000000000000D+00  0.0000000000000D+00
374  3.7300000000000D+00  0.0000000000000D+00  0.0000000000000D+00
375  3.7400000000000D+00  0.0000000000000D+00  0.0000000000000D+00
376  3.7500000000000D+00  0.0000000000000D+00  0.0000000000000D+00
377  3.7600000000000D+00  0.0000000000000D+00  0.0000000000000D+00
378  3.7700000000000D+00  0.0000000000000D+00  0.0000000000000D+00
379  3.7800000000000D+00  0.0000000000000D+00  0.0000000000000D+00
380  3.7900000000000D+00  0.0000000000000D+00  0.0000000000000D+00
381  3.8000000000000D+00  0.0000000000000D+00  0.0000000000000D+00
382  3.8100000000000D+00  0.0000000000000D+00  0.0000000000000D+00
383  3.8200000000000D+00  0.0000000000000D+00  0.0000000000000D+00
384  3.8300000000000D+00  0.0000000000000D+00  0.0000000000000D+00
385  3.8400000000000D+00  0.0000000000000D+00  0.0000000000000D+00
386  3.8500000000000D+00  0.0000000000000D+00  0.0000000000000D+00
387  3.8600000000000D+00  0.0000000000000D+00  0.0000000000000D+00
388  3.8700000000000D+00  0.0000000000000D+00  0.0000000000000D+00
389  3.8800000000000D+00  0.0000000000000D+00  0.0000000000000D+00
390  3.8900000000000D+00  0.0000000000000D+00  0.0000000000000D+00
391  3.9000000000000D+00  0.0000000000000D+00  0.0000000000000D+00
392  3.9100000000000D+00  0.0000000000000D+00  0.0000000000000D+00
393  3.9200000000000D+00  0.0000000000000D+00  0.0000000000000D+00
394  3.9300000000000D+00  0.0000000000000D+00  0.0000000000000D+00
395  3.9400000000000D+00  0.0000000000000D+00  0.0000000000000D+00
396  3.9500000000000D+00  0.0000000000000D+00  0.0000000000000D+00
397  3.9600000000000D+00  0.0000000000000D+00  0.0000000000000D+00
398  3.9700000000000D+00  0.0000000000000D+00  0.0000000000000D+00
399  3.9800000000000D+00  0.0000000000000D+00  0.0000000000000D+00
400  3.9900000000000D+00  0.0000000000000D+00  0.0000000000000D+00
401  4.0000000000000D+00  0.0000000000000D+00  0.0000000000000D+00
402  4.0100000000000D+00  0.0000000000000D+00  0.0000000000000D+00
403  4.0200000000000D+00  0.0000000000000D+00  0.0000000000000D+00
404  4.0300000000000D+00  0.0000000000000D+00  0.0000000000000D+00
405  4.0400000000000D+00  0.0000000000000D+00  0.0000000000000D+00
406  4.0500000000000D+00  0.0000000000000D+00  0.0000000000000D+00
407  4.0600000000000D+00  0.0000000000000D+00  0.0000000000000D+00
408  4.0700000000000D+00  0.0000000000000D+00  0.0000000000000D+00
409  4.0800000000000D+00  0.0000000000000D+00  0.0000000000000D+00
410  4.0900000000000D+00  0.0000000000000D+00  0.0000000000000D+00
411  4.1000000000000D+00  0.0000000000000D+00  0.0000000000000D+00
412  4.1100000000000D+00  0.0000000000000D+00  0.0000000000000D+00
413  4.1200000000000D+00  0.0000000000000D+00  0.0000000000000D+00
414  4.1300000000000D+00  0.0000000000000D+00  0.0000000000000D+00
415  4.1400000000000D+00  0.0000000000000D+00  0.0000000000000D+00
416  4.1500000000000D+00  0.0000000000000D+00  0.0000000000000D+00
417  4.1600000000000D+00  0.0000000000000D+00  0.0000000000000D+00
418  4.1700000000000D+00  0.0000000000000D+00  0.0000000000000D+00
419  4.1800000000000D+00  0.0000000000000D+00  0.0000000000000D+00
420  4.1900000000000D+00  0.0000000000000D+00  0.0000000000000D+00
421  4.2000000000000D+00  0.0000000000000D+00  0.0000000000000D+00
422  4.2100000000000D+00  0.0000000000000D+00  0.0000000000000D+00
423  4.2200000000000D+00  0.0000000000000D+00  0.0000000000000D+00
424  4.2300000000000D+00  0.0000000000000D+00  0.0000000000000D+00
425  4.2400000000000D+00  0.0000000000000D+00  0.0000000000000D+00
426  4.2500000000000D+00  0.0000000000000D+00  0.0000000000000D+00
427  4.2600000000000D+00  0.0000000000000D+00  0.0000000000000D+00
428  4.2700000000000D+00  0.0000000000000D+00  0.0000000000000D+00
429  4.2800000000000D+00  0.0000000000000D+00  0.0000000000000D+00
430  4.2900000000000D+00  0.0000000000000D+00  0.0000000000000D+00
431  4.3000000000000D+00  0.0000000000000D+00  0.0000000000000D+00
432  4.3100000000000D+00  0.0000000000000D+00  0.0000000000000D+00
433  4.3200000000000D+00  0.0000000000000D+00  0.0000000000000D+00
434  4.3300000000000D+00  0.0000000000000D+00  0.0000000000000D+00
435  4.3400000000000D+00  0.0000000000000D+00  0.0000000000000D+00
436  4.3500000000000D+00  0.0000000000000D+00  0.0000000000000D+00
437  4.3600000000000D+00  0.0000000000000D+00  0.0000000000000D+00
438  4.3700000000000D+00  0.0000000000000D+00  0.0000000000000D+00
439  4.3800000000000D+00  0.0000000000000D+00  0.0000000000000D+00
440  4.3900000000000D+00  0.0000000000000D+00  0.0000000000000D+00
441  4.4000000000000D+00  0.0000000000000D+00  0.0000000000000D+00
442  4.4100000000000D+00  0.0000000000000D+00  0.0000000000000D+00
443  4.4200000000000D+00  0.0000000000000D+00  0.0000000000000D+00