Co    ONCVPSP  r_core=  1.26  1.32  1.66
27.0000     17.0000      161004    zatom,zion,pspd
8 -116133   2     4   600     0    pspcod,pspxc,lmax,lloc,mmax,r2well
5.99000000  6.00000000  0.00000000    rchrg fchrg qchrg
2     2     2     0     0    nproj
1                 extension_switch
0                         6.2915126865643D+00 -6.2708487931193D-01
1  0.0000000000000D+00  7.6730510834011D-11  4.2272240985408D-09
2  1.0000000000000D-02  9.2595390413303D-02  2.3526516368390D-02
3  2.0000000000000D-02  1.8491994767846D-01  4.7171698888275D-02
4  3.0000000000000D-02  2.7670369711553D-01  7.1049544038650D-02
5  4.0000000000000D-02  3.6767837948772D-01  9.5264787947282D-02
6  5.0000000000000D-02  4.5757830496973D-01  1.1990847260931D-01
7  6.0000000000000D-02  5.4614120255592D-01  1.4505374473977D-01
8  7.0000000000000D-02  6.3310906329586D-01  1.7075195977957D-01
9  8.0000000000000D-02  7.1822897566811D-01  1.9702915934735D-01
10  9.0000000000000D-02  8.0125395130998D-01  2.2388298524428D-01
11  1.0000000000000D-01  8.8194373921440D-01  2.5128008704042D-01
12  1.1000000000000D-01  9.6006562638574D-01  2.7915407337418D-01
13  1.2000000000000D-01  1.0353952228188D+00  3.0740404946823D-01
14  1.3000000000000D-01  1.1077172285305D+00  3.3589377509944D-01
15  1.4000000000000D-01  1.1768261802369D+00  3.6445146846362D-01
16  1.5000000000000D-01  1.2425271751295D+00  3.9287027215621D-01
17  1.6000000000000D-01  1.3046365690728D+00  4.2090938796663D-01
18  1.7000000000000D-01  1.3629826464169D+00  4.4829587747887D-01
19  1.8000000000000D-01  1.4174062585031D+00  4.7472711570605D-01
20  1.9000000000000D-01  1.4677614278403D+00  4.9987387529313D-01
21  2.0000000000000D-01  1.5139159148432D+00  5.2338400932187D-01
22  2.1000000000000D-01  1.5557517439636D+00  5.4488669157565D-01
23  2.2000000000000D-01  1.5931656860061D+00  5.6399716438814D-01
24  2.3000000000000D-01  1.6260696934077D+00  5.8032193602949D-01
25  2.4000000000000D-01  1.6543912852827D+00  5.9346436208924D-01
26  2.5000000000000D-01  1.6780738790829D+00  6.0303053860220D-01
27  2.6000000000000D-01  1.6970770658126D+00  6.0863542882760D-01
28  2.7000000000000D-01  1.7113768258571D+00  6.0990914072326D-01
29  2.8000000000000D-01  1.7209656826464D+00  6.0650326832844D-01
30  2.9000000000000D-01  1.7258527915737D+00  5.9809720754626D-01
31  3.0000000000000D-01  1.7260639618234D+00  5.8440435525174D-01
32  3.1000000000000D-01  1.7216416090413D+00  5.6517810027910D-01
33  3.2000000000000D-01  1.7126446370903D+00  5.4021751568607D-01
34  3.3000000000000D-01  1.6991482474862D+00  5.0937266376070D-01
35  3.4000000000000D-01  1.6812436754892D+00  4.7254942851891D-01
36  3.5000000000000D-01  1.6590378522459D+00  4.2971379491643D-01
37  3.6000000000000D-01  1.6326529928175D+00  3.8089549962634D-01
38  3.7000000000000D-01  1.6022261104049D+00  3.2619098495993D-01
39  3.8000000000000D-01  1.5679084575711D+00  2.6576559526466D-01
40  3.9000000000000D-01  1.5298648957753D+00  1.9985496383456D-01
41  4.0000000000000D-01  1.4882731950539D+00  1.2876554791925D-01
42  4.1000000000000D-01  1.4433232662198D+00  5.2874279708569D-02
43  4.2000000000000D-01  1.3952163284838D+00 -2.7372687920523D-02
44  4.3000000000000D-01  1.3441640159364D+00 -1.1146215071039D-01
45  4.4000000000000D-01  1.2903874268532D+00 -1.9881693545040D-01
46  4.5000000000000D-01  1.2341161202978D+00 -2.8879988164269D-01
47  4.6000000000000D-01  1.1755870649860D+00 -3.8071869652092D-01
48  4.7000000000000D-01  1.1150435458429D+00 -4.7383164563594D-01
49  4.8000000000000D-01  1.0527340341174D+00 -5.6735402958025D-01
50  4.9000000000000D-01  9.8891102731462D-01 -6.6046538619509D-01
51  5.0000000000000D-01  9.2382986556503D-01 -7.5231734694121D-01
52  5.1000000000000D-01  8.5774753135496D-01 -8.4204206616932D-01
53  5.2000000000000D-01  7.9092143980009D-01 -9.2876113293204D-01
54  5.3000000000000D-01  7.2360822684498D-01 -1.0115948668780D+00
55  5.4000000000000D-01  6.5606254291193D-01 -1.0896718927822D+00
56  5.5000000000000D-01  5.8853585960228D-01 -1.1621388824919D+00
57  5.6000000000000D-01  5.2127529706626D-01 -1.2281703486248D+00
58  5.7000000000000D-01  4.5452247960559D-01 -1.2869783713008D+00
59  5.8000000000000D-01  3.8851242695175D-01 -1.3378221376078D+00
60  5.9000000000000D-01  3.2347248847542D-01 -1.3800171734203D+00
61  6.0000000000000D-01  2.5962132732530D-01 -1.4129441486596D+00
62  6.1000000000000D-01  1.9716796117331D-01 -1.4360571400834D+00
63  6.2000000000000D-01  1.3631086585561D-01 -1.4488912402391D+00
64  6.3000000000000D-01  7.7237147750000D-02 -1.4510694072668D+00
65  6.4000000000000D-01  2.0121790225365D-02 -1.4423084576994D+00
66  6.5000000000000D-01 -3.4873021064376D-02 -1.4224241133180D+00
67  6.6000000000000D-01 -8.7598489877434D-02 -1.3913350232453D+00
68  6.7000000000000D-01 -1.3791971456075D-01 -1.3490656937783D+00
69  6.8000000000000D-01 -1.8571610388709D-01 -1.2957482708680D+00
70  6.9000000000000D-01 -2.3088170145412D-01 -1.2316231334235D+00
71  7.0000000000000D-01 -2.7332541729093D-01 -1.1570382696087D+00
72  7.1000000000000D-01 -3.1297116608052D-01 -1.0724474229493D+00
73  7.2000000000000D-01 -3.4975791217615D-01 -9.7840701004708D-01
74  7.3000000000000D-01 -3.8363962235888D-01 -8.7557182689863D-01
75  7.4000000000000D-01 -4.1458512804773D-01 -7.6468957606566D-01
76  7.5000000000000D-01 -4.4257789941813D-01 -6.4659426192912D-01
77  7.6000000000000D-01 -4.6761573461041D-01 -5.2219851597815D-01
78  7.7000000000000D-01 -4.8971036789986D-01 -3.9248492813244D-01
79  7.8000000000000D-01 -5.0888700135273D-01 -2.5849647341261D-01
80  7.9000000000000D-01 -5.2518376509842D-01 -1.2132613563672D-01
81  8.0000000000000D-01 -5.3865111190145D-01  1.7894158946951D-02
82  8.1000000000000D-01 -5.4935115221038D-01  1.5800517523676D-01
83  8.2000000000000D-01 -5.5735693629011D-01  2.9783243870087D-01
84  8.3000000000000D-01 -5.6275169040353D-01  4.3619860234201D-01
85  8.4000000000000D-01 -5.6562801429463D-01  5.7193596763305D-01
86  8.5000000000000D-01 -5.6608704743440D-01  7.0389901235653D-01
87  8.6000000000000D-01 -5.6423761162108D-01  8.3097677662029D-01
88  8.7000000000000D-01 -5.6019533757638D-01  9.5210495854206D-01
89  8.8000000000000D-01 -5.5408178314779D-01  1.0662775732187D+00
90  8.9000000000000D-01 -5.4602355061620D-01  1.1725580326164D+00
91  9.0000000000000D-01 -5.3615141041730D-01  1.2700895099044D+00
92  9.1000000000000D-01 -5.2459943831890D-01  1.3581044594591D+00
93  9.2000000000000D-01 -5.1150417275617D-01  1.4359331731950D+00
94  9.3000000000000D-01 -4.9700379861855D-01  1.5030112649477D+00
95  9.4000000000000D-01 -4.8123736330929D-01  1.5588859871978D+00
96  9.5000000000000D-01 -4.6434403036891D-01  1.6032212983498D+00
97  9.6000000000000D-01 -4.4646237537190D-01  1.6358016138886D+00
98  9.7000000000000D-01 -4.2772972818185D-01  1.6565341908307D+00
99  9.8000000000000D-01 -4.0828156498418D-01  1.6654501118963D+00
100  9.9000000000000D-01 -3.8825095283007D-01  1.6627038532350D+00
101  1.0000000000000D+00 -3.6776804872113D-01  1.6485714372796D+00
102  1.0100000000000D+00 -3.4695965452802D-01  1.6234471907091D+00
103  1.0200000000000D+00 -3.2594882832982D-01  1.5878391450363D+00
104  1.0300000000000D+00 -3.0485455203965D-01  1.5423631350675D+00
105  1.0400000000000D+00 -2.8379145448453D-01  1.4877356674692D+00
106  1.0500000000000D+00 -2.6286958841894D-01  1.4247656482121D+00
107  1.0600000000000D+00 -2.4219425935612D-01  1.3543450718072D+00
108  1.0700000000000D+00 -2.2186590343079D-01  1.2774387908619D+00
109  1.0800000000000D+00 -2.0198001100655D-01  1.1950734958185D+00
110  1.0900000000000D+00 -1.8262709221740D-01  1.1083260463258D+00
111  1.1000000000000D+00 -1.6389268019696D-01  1.0183113048108D+00
112  1.1100000000000D+00 -1.4585736739557D-01  9.2616962997370D-01
113  1.1200000000000D+00 -1.2859687003249D-01  8.3305419418583D-01
114  1.1300000000000D+00 -1.1218211553860D-01  7.4011829146296D-01
115  1.1400000000000D+00 -9.6679347677164D-02  6.4850280371232D-01
116  1.1500000000000D+00 -8.2150243939938D-02  5.5932399327582D-01
117  1.1600000000000D+00 -6.8652039802041D-02  4.7366178580860D-01
118  1.1700000000000D+00 -5.6237654777376D-02  3.9254871795150D-01
119  1.1800000000000D+00 -4.4955814442256D-02  3.1695968943797D-01
120  1.1900000000000D+00 -3.4851158314319D-02  2.4780221053695D-01
121  1.2000000000000D+00 -2.5964354176202D-02  1.8590917861874D-01
122  1.2100000000000D+00 -1.8332180902037D-02  1.3203159022836D-01
123  1.2200000000000D+00 -1.1988831273050D-02  8.6827592018924D-02
124  1.2300000000000D+00 -6.9597354747830D-03  5.0795129429855D-02
125  1.2400000000000D+00 -3.2481812449694D-03  2.4146898298560D-02
126  1.2500000000000D+00 -9.6994325584663D-04  7.8885048806066D-03
127  1.2600000000000D+00 -2.8010501155084D-05  1.1729739310219D-03
128  1.2700000000000D+00  8.8518424824420D-05 -1.9656685393128D-04
129  1.2800000000000D+00 -1.9184827685186D-05  6.5398716806888D-05
130  1.2900000000000D+00 -1.1479327092783D-05  4.4544619405073D-05
131  1.3000000000000D+00  5.3074477824362D-06 -1.5825849199156D-05
132  1.3100000000000D+00 -5.2303057781510D-08 -8.6162029297220D-07
133  1.3200000000000D+00 -6.9229754131767D-08 -1.1404641251872D-06
134  1.3300000000000D+00  0.0000000000000D+00  0.0000000000000D+00
135  1.3400000000000D+00  0.0000000000000D+00  0.0000000000000D+00
136  1.3500000000000D+00  0.0000000000000D+00  0.0000000000000D+00
137  1.3600000000000D+00  0.0000000000000D+00  0.0000000000000D+00
138  1.3700000000000D+00  0.0000000000000D+00  0.0000000000000D+00
139  1.3800000000000D+00  0.0000000000000D+00  0.0000000000000D+00
140  1.3900000000000D+00  0.0000000000000D+00  0.0000000000000D+00
141  1.4000000000000D+00  0.0000000000000D+00  0.0000000000000D+00
142  1.4100000000000D+00  0.0000000000000D+00  0.0000000000000D+00
143  1.4200000000000D+00  0.0000000000000D+00  0.0000000000000D+00
144  1.4300000000000D+00  0.0000000000000D+00  0.0000000000000D+00
145  1.4400000000000D+00  0.0000000000000D+00  0.0000000000000D+00
146  1.4500000000000D+00  0.0000000000000D+00  0.0000000000000D+00
147  1.4600000000000D+00  0.0000000000000D+00  0.0000000000000D+00
148  1.4700000000000D+00  0.0000000000000D+00  0.0000000000000D+00
149  1.4800000000000D+00  0.0000000000000D+00  0.0000000000000D+00
150  1.4900000000000D+00  0.0000000000000D+00  0.0000000000000D+00
151  1.5000000000000D+00  0.0000000000000D+00  0.0000000000000D+00
152  1.5100000000000D+00  0.0000000000000D+00  0.0000000000000D+00
153  1.5200000000000D+00  0.0000000000000D+00  0.0000000000000D+00
154  1.5300000000000D+00  0.0000000000000D+00  0.0000000000000D+00
155  1.5400000000000D+00  0.0000000000000D+00  0.0000000000000D+00
156  1.5500000000000D+00  0.0000000000000D+00  0.0000000000000D+00
157  1.5600000000000D+00  0.0000000000000D+00  0.0000000000000D+00
158  1.5700000000000D+00  0.0000000000000D+00  0.0000000000000D+00
159  1.5800000000000D+00  0.0000000000000D+00  0.0000000000000D+00
160  1.5900000000000D+00  0.0000000000000D+00  0.0000000000000D+00
161  1.6000000000000D+00  0.0000000000000D+00  0.0000000000000D+00
162  1.6100000000000D+00  0.0000000000000D+00  0.0000000000000D+00
163  1.6200000000000D+00  0.0000000000000D+00  0.0000000000000D+00
164  1.6300000000000D+00  0.0000000000000D+00  0.0000000000000D+00
165  1.6400000000000D+00  0.0000000000000D+00  0.0000000000000D+00
166  1.6500000000000D+00  0.0000000000000D+00  0.0000000000000D+00
167  1.6600000000000D+00  0.0000000000000D+00  0.0000000000000D+00
168  1.6700000000000D+00  0.0000000000000D+00  0.0000000000000D+00
169  1.6800000000000D+00  0.0000000000000D+00  0.0000000000000D+00
170  1.6900000000000D+00  0.0000000000000D+00  0.0000000000000D+00
171  1.7000000000000D+00  0.0000000000000D+00  0.0000000000000D+00
172  1.7100000000000D+00  0.0000000000000D+00  0.0000000000000D+00
173  1.7200000000000D+00  0.0000000000000D+00  0.0000000000000D+00
174  1.7300000000000D+00  0.0000000000000D+00  0.0000000000000D+00
175  1.7400000000000D+00  0.0000000000000D+00  0.0000000000000D+00
176  1.7500000000000D+00  0.0000000000000D+00  0.0000000000000D+00
177  1.7600000000000D+00  0.0000000000000D+00  0.0000000000000D+00
178  1.7700000000000D+00  0.0000000000000D+00  0.0000000000000D+00
179  1.7800000000000D+00  0.0000000000000D+00  0.0000000000000D+00
180  1.7900000000000D+00  0.0000000000000D+00  0.0000000000000D+00
181  1.8000000000000D+00  0.0000000000000D+00  0.0000000000000D+00
182  1.8100000000000D+00  0.0000000000000D+00  0.0000000000000D+00
183  1.8200000000000D+00  0.0000000000000D+00  0.0000000000000D+00
184  1.8300000000000D+00  0.0000000000000D+00  0.0000000000000D+00
185  1.8400000000000D+00  0.0000000000000D+00  0.0000000000000D+00
186  1.8500000000000D+00  0.0000000000000D+00  0.0000000000000D+00
187  1.8600000000000D+00  0.0000000000000D+00  0.0000000000000D+00
188  1.8700000000000D+00  0.0000000000000D+00  0.0000000000000D+00
189  1.8800000000000D+00  0.0000000000000D+00  0.0000000000000D+00
190  1.8900000000000D+00  0.0000000000000D+00  0.0000000000000D+00
191  1.9000000000000D+00  0.0000000000000D+00  0.0000000000000D+00
192  1.9100000000000D+00  0.0000000000000D+00  0.0000000000000D+00
193  1.9200000000000D+00  0.0000000000000D+00  0.0000000000000D+00
194  1.9300000000000D+00  0.0000000000000D+00  0.0000000000000D+00
195  1.9400000000000D+00  0.0000000000000D+00  0.0000000000000D+00
196  1.9500000000000D+00  0.0000000000000D+00  0.0000000000000D+00
197  1.9600000000000D+00  0.0000000000000D+00  0.0000000000000D+00
198  1.9700000000000D+00  0.0000000000000D+00  0.0000000000000D+00
199  1.9800000000000D+00  0.0000000000000D+00  0.0000000000000D+00
200  1.9900000000000D+00  0.0000000000000D+00  0.0000000000000D+00
201  2.0000000000000D+00  0.0000000000000D+00  0.0000000000000D+00
202  2.0100000000000D+00  0.0000000000000D+00  0.0000000000000D+00
203  2.0200000000000D+00  0.0000000000000D+00  0.0000000000000D+00
204  2.0300000000000D+00  0.0000000000000D+00  0.0000000000000D+00
205  2.0400000000000D+00  0.0000000000000D+00  0.0000000000000D+00
206  2.0500000000000D+00  0.0000000000000D+00  0.0000000000000D+00
207  2.0600000000000D+00  0.0000000000000D+00  0.0000000000000D+00
208  2.0700000000000D+00  0.0000000000000D+00  0.0000000000000D+00
209  2.0800000000000D+00  0.0000000000000D+00  0.0000000000000D+00
210  2.0900000000000D+00  0.0000000000000D+00  0.0000000000000D+00
211  2.1000000000000D+00  0.0000000000000D+00  0.0000000000000D+00
212  2.1100000000000D+00  0.0000000000000D+00  0.0000000000000D+00
213  2.1200000000000D+00  0.0000000000000D+00  0.0000000000000D+00
214  2.1300000000000D+00  0.0000000000000D+00  0.0000000000000D+00
215  2.1400000000000D+00  0.0000000000000D+00  0.0000000000000D+00
216  2.1500000000000D+00  0.0000000000000D+00  0.0000000000000D+00
217  2.1600000000000D+00  0.0000000000000D+00  0.0000000000000D+00
218  2.1700000000000D+00  0.0000000000000D+00  0.0000000000000D+00
219  2.1800000000000D+00  0.0000000000000D+00  0.0000000000000D+00
220  2.1900000000000D+00  0.0000000000000D+00  0.0000000000000D+00
221  2.2000000000000D+00  0.0000000000000D+00  0.0000000000000D+00
222  2.2100000000000D+00  0.0000000000000D+00  0.0000000000000D+00
223  2.2200000000000D+00  0.0000000000000D+00  0.0000000000000D+00
224  2.2300000000000D+00  0.0000000000000D+00  0.0000000000000D+00
225  2.2400000000000D+00  0.0000000000000D+00  0.0000000000000D+00
226  2.2500000000000D+00  0.0000000000000D+00  0.0000000000000D+00
227  2.2600000000000D+00  0.0000000000000D+00  0.0000000000000D+00
228  2.2700000000000D+00  0.0000000000000D+00  0.0000000000000D+00
229  2.2800000000000D+00  0.0000000000000D+00  0.0000000000000D+00
230  2.2900000000000D+00  0.0000000000000D+00  0.0000000000000D+00
231  2.3000000000000D+00  0.0000000000000D+00  0.0000000000000D+00
232  2.3100000000000D+00  0.0000000000000D+00  0.0000000000000D+00
233  2.3200000000000D+00  0.0000000000000D+00  0.0000000000000D+00
234  2.3300000000000D+00  0.0000000000000D+00  0.0000000000000D+00
235  2.3400000000000D+00  0.0000000000000D+00  0.0000000000000D+00
236  2.3500000000000D+00  0.0000000000000D+00  0.0000000000000D+00
237  2.3600000000000D+00  0.0000000000000D+00  0.0000000000000D+00
238  2.3700000000000D+00  0.0000000000000D+00  0.0000000000000D+00
239  2.3800000000000D+00  0.0000000000000D+00  0.0000000000000D+00
240  2.3900000000000D+00  0.0000000000000D+00  0.0000000000000D+00
241  2.4000000000000D+00  0.0000000000000D+00  0.0000000000000D+00
242  2.4100000000000D+00  0.0000000000000D+00  0.0000000000000D+00
243  2.4200000000000D+00  0.0000000000000D+00  0.0000000000000D+00
244  2.4300000000000D+00  0.0000000000000D+00  0.0000000000000D+00
245  2.4400000000000D+00  0.0000000000000D+00  0.0000000000000D+00
246  2.4500000000000D+00  0.0000000000000D+00  0.0000000000000D+00
247  2.4600000000000D+00  0.0000000000000D+00  0.0000000000000D+00
248  2.4700000000000D+00  0.0000000000000D+00  0.0000000000000D+00
249  2.4800000000000D+00  0.0000000000000D+00  0.0000000000000D+00
250  2.4900000000000D+00  0.0000000000000D+00  0.0000000000000D+00
251  2.5000000000000D+00  0.0000000000000D+00  0.0000000000000D+00
252  2.5100000000000D+00  0.0000000000000D+00  0.0000000000000D+00
253  2.5200000000000D+00  0.0000000000000D+00  0.0000000000000D+00
254  2.5300000000000D+00  0.0000000000000D+00  0.0000000000000D+00
255  2.5400000000000D+00  0.0000000000000D+00  0.0000000000000D+00
256  2.5500000000000D+00  0.0000000000000D+00  0.0000000000000D+00
257  2.5600000000000D+00  0.0000000000000D+00  0.0000000000000D+00
258  2.5700000000000D+00  0.0000000000000D+00  0.0000000000000D+00
259  2.5800000000000D+00  0.0000000000000D+00  0.0000000000000D+00
260  2.5900000000000D+00  0.0000000000000D+00  0.0000000000000D+00
261  2.6000000000000D+00  0.0000000000000D+00  0.0000000000000D+00
262  2.6100000000000D+00  0.0000000000000D+00  0.0000000000000D+00
263  2.6200000000000D+00  0.0000000000000D+00  0.0000000000000D+00
264  2.6300000000000D+00  0.0000000000000D+00  0.0000000000000D+00
265  2.6400000000000D+00  0.0000000000000D+00  0.0000000000000D+00
266  2.6500000000000D+00  0.0000000000000D+00  0.0000000000000D+00
267  2.6600000000000D+00  0.0000000000000D+00  0.0000000000000D+00
268  2.6700000000000D+00  0.0000000000000D+00  0.0000000000000D+00
269  2.6800000000000D+00  0.0000000000000D+00  0.0000000000000D+00
270  2.6900000000000D+00  0.0000000000000D+00  0.0000000000000D+00
271  2.7000000000000D+00  0.0000000000000D+00  0.0000000000000D+00
272  2.7100000000000D+00  0.0000000000000D+00  0.0000000000000D+00
273  2.7200000000000D+00  0.0000000000000D+00  0.0000000000000D+00
274  2.7300000000000D+00  0.0000000000000D+00  0.0000000000000D+00
275  2.7400000000000D+00  0.0000000000000D+00  0.0000000000000D+00
276  2.7500000000000D+00  0.0000000000000D+00  0.0000000000000D+00
277  2.7600000000000D+00  0.0000000000000D+00  0.0000000000000D+00
278  2.7700000000000D+00  0.0000000000000D+00  0.0000000000000D+00
279  2.7800000000000D+00  0.0000000000000D+00  0.0000000000000D+00
280  2.7900000000000D+00  0.0000000000000D+00  0.0000000000000D+00
281  2.8000000000000D+00  0.0000000000000D+00  0.0000000000000D+00
282  2.8100000000000D+00  0.0000000000000D+00  0.0000000000000D+00
283  2.8200000000000D+00  0.0000000000000D+00  0.0000000000000D+00
284  2.8300000000000D+00  0.0000000000000D+00  0.0000000000000D+00
285  2.8400000000000D+00  0.0000000000000D+00  0.0000000000000D+00
286  2.8500000000000D+00  0.0000000000000D+00  0.0000000000000D+00
287  2.8600000000000D+00  0.0000000000000D+00  0.0000000000000D+00
288  2.8700000000000D+00  0.0000000000000D+00  0.0000000000000D+00
289  2.8800000000000D+00  0.0000000000000D+00  0.0000000000000D+00
290  2.8900000000000D+00  0.0000000000000D+00  0.0000000000000D+00
291  2.9000000000000D+00  0.0000000000000D+00  0.0000000000000D+00
292  2.9100000000000D+00  0.0000000000000D+00  0.0000000000000D+00
293  2.9200000000000D+00  0.0000000000000D+00  0.0000000000000D+00
294  2.9300000000000D+00  0.0000000000000D+00  0.0000000000000D+00
295  2.9400000000000D+00  0.0000000000000D+00  0.0000000000000D+00
296  2.9500000000000D+00  0.0000000000000D+00  0.0000000000000D+00
297  2.9600000000000D+00  0.0000000000000D+00  0.0000000000000D+00
298  2.9700000000000D+00  0.0000000000000D+00  0.0000000000000D+00
299  2.9800000000000D+00  0.0000000000000D+00  0.0000000000000D+00
300  2.9900000000000D+00  0.0000000000000D+00  0.0000000000000D+00
301  3.0000000000000D+00  0.0000000000000D+00  0.0000000000000D+00
302  3.0100000000000D+00  0.0000000000000D+00  0.0000000000000D+00
303  3.0200000000000D+00  0.0000000000000D+00  0.0000000000000D+00
304  3.0300000000000D+00  0.0000000000000D+00  0.0000000000000D+00
305  3.0400000000000D+00  0.0000000000000D+00  0.0000000000000D+00
306  3.0500000000000D+00  0.0000000000000D+00  0.0000000000000D+00
307  3.0600000000000D+00  0.0000000000000D+00  0.0000000000000D+00
308  3.0700000000000D+00  0.0000000000000D+00  0.0000000000000D+00
309  3.0800000000000D+00  0.0000000000000D+00  0.0000000000000D+00
310  3.0900000000000D+00  0.0000000000000D+00  0.0000000000000D+00
311  3.1000000000000D+00  0.0000000000000D+00  0.0000000000000D+00
312  3.1100000000000D+00  0.0000000000000D+00  0.0000000000000D+00
313  3.1200000000000D+00  0.0000000000000D+00  0.0000000000000D+00
314  3.1300000000000D+00  0.0000000000000D+00  0.0000000000000D+00
315  3.1400000000000D+00  0.0000000000000D+00  0.0000000000000D+00
316  3.1500000000000D+00  0.0000000000000D+00  0.0000000000000D+00
317  3.1600000000000D+00  0.0000000000000D+00  0.0000000000000D+00
318  3.1700000000000D+00  0.0000000000000D+00  0.0000000000000D+00
319  3.1800000000000D+00  0.0000000000000D+00  0.0000000000000D+00
320  3.1900000000000D+00  0.0000000000000D+00  0.0000000000000D+00
321  3.2000000000000D+00  0.0000000000000D+00  0.0000000000000D+00
322  3.2100000000000D+00  0.0000000000000D+00  0.0000000000000D+00
323  3.2200000000000D+00  0.0000000000000D+00  0.0000000000000D+00
324  3.2300000000000D+00  0.0000000000000D+00  0.0000000000000D+00
325  3.2400000000000D+00  0.0000000000000D+00  0.0000000000000D+00
326  3.2500000000000D+00  0.0000000000000D+00  0.0000000000000D+00
327  3.2600000000000D+00  0.0000000000000D+00  0.0000000000000D+00
328  3.2700000000000D+00  0.0000000000000D+00  0.0000000000000D+00
329  3.2800000000000D+00  0.0000000000000D+00  0.0000000000000D+00
330  3.2900000000000D+00  0.0000000000000D+00  0.0000000000000D+00
331  3.3000000000000D+00  0.0000000000000D+00  0.0000000000000D+00
332  3.3100000000000D+00  0.0000000000000D+00  0.0000000000000D+00
333  3.3200000000000D+00  0.0000000000000D+00  0.0000000000000D+00
334  3.3300000000000D+00  0.0000000000000D+00  0.0000000000000D+00
335  3.3400000000000D+00  0.0000000000000D+00  0.0000000000000D+00
336  3.3500000000000D+00  0.0000000000000D+00  0.0000000000000D+00
337  3.3600000000000D+00  0.0000000000000D+00  0.0000000000000D+00
338  3.3700000000000D+00  0.0000000000000D+00  0.0000000000000D+00
339  3.3800000000000D+00  0.0000000000000D+00  0.0000000000000D+00
340  3.3900000000000D+00  0.0000000000000D+00  0.0000000000000D+00
341  3.4000000000000D+00  0.0000000000000D+00  0.0000000000000D+00
342  3.4100000000000D+00  0.0000000000000D+00  0.0000000000000D+00
343  3.4200000000000D+00  0.0000000000000D+00  0.0000000000000D+00
344  3.4300000000000D+00  0.0000000000000D+00  0.0000000000000D+00
345  3.4400000000000D+00  0.0000000000000D+00  0.0000000000000D+00
346  3.4500000000000D+00  0.0000000000000D+00  0.0000000000000D+00
347  3.4600000000000D+00  0.0000000000000D+00  0.0000000000000D+00
348  3.4700000000000D+00  0.0000000000000D+00  0.0000000000000D+00
349  3.4800000000000D+00  0.0000000000000D+00  0.0000000000000D+00
350  3.4900000000000D+00  0.0000000000000D+00  0.0000000000000D+00
351  3.5000000000000D+00  0.0000000000000D+00  0.0000000000000D+00
352  3.5100000000000D+00  0.0000000000000D+00  0.0000000000000D+00
353  3.5200000000000D+00  0.0000000000000D+00  0.0000000000000D+00
354  3.5300000000000D+00  0.0000000000000D+00  0.0000000000000D+00
355  3.5400000000000D+00  0.0000000000000D+00  0.0000000000000D+00
356  3.5500000000000D+00  0.0000000000000D+00  0.0000000000000D+00
357  3.5600000000000D+00  0.0000000000000D+00  0.0000000000000D+00
358  3.5700000000000D+00  0.0000000000000D+00  0.0000000000000D+00
359  3.5800000000000D+00  0.0000000000000D+00  0.0000000000000D+00
360  3.5900000000000D+00  0.0000000000000D+00  0.0000000000000D+00
361  3.6000000000000D+00  0.0000000000000D+00  0.0000000000000D+00
362  3.6100000000000D+00  0.0000000000000D+00  0.0000000000000D+00
363  3.6200000000000D+00  0.0000000000000D+00  0.0000000000000D+00
364  3.6300000000000D+00  0.0000000000000D+00  0.0000000000000D+00
365  3.6400000000000D+00  0.0000000000000D+00  0.0000000000000D+00
366  3.6500000000000D+00  0.0000000000000D+00  0.0000000000000D+00
367  3.6600000000000D+00  0.0000000000000D+00  0.0000000000000D+00
368  3.6700000000000D+00  0.0000000000000D+00  0.0000000000000D+00
369  3.6800000000000D+00  0.0000000000000D+00  0.0000000000000D+00
370  3.6900000000000D+00  0.0000000000000D+00  0.0000000000000D+00
371  3.7000000000000D+00  0.0000000000000D+00  0.0000000000000D+00
372  3.7100000000000D+00  0.0000000000000D+00  0.0000000000000D+00
373  3.7200000000000D+00  0.0000000000000D+00  0.0000000000000D+00
374  3.7300000000000D+00  0.0000000000000D+00  0.0000000000000D+00
375  3.7400000000000D+00  0.0000000000000D+00  0.0000000000000D+00
376  3.7500000000000D+00  0.0000000000000D+00  0.0000000000000D+00
377  3.7600000000000D+00  0.0000000000000D+00  0.0000000000000D+00
378  3.7700000000000D+00  0.0000000000000D+00  0.0000000000000D+00
379  3.7800000000000D+00  0.0000000000000D+00  0.0000000000000D+00
380  3.7900000000000D+00  0.0000000000000D+00  0.0000000000000D+00
381  3.8000000000000D+00  0.0000000000000D+00  0.0000000000000D+00
382  3.8100000000000D+00  0.0000000000000D+00  0.0000000000000D+00
383  3.8200000000000D+00  0.0000000000000D+00  0.0000000000000D+00
384  3.8300000000000D+00  0.0000000000000D+00  0.0000000000000D+00
385  3.8400000000000D+00  0.0000000000000D+00  0.0000000000000D+00
386  3.8500000000000D+00  0.0000000000000D+00  0.0000000000000D+00
387  3.8600000000000D+00  0.0000000000000D+00  0.0000000000000D+00
388  3.8700000000000D+00  0.0000000000000D+00  0.0000000000000D+00
389  3.8800000000000D+00  0.0000000000000D+00  0.0000000000000D+00
390  3.8900000000000D+00  0.0000000000000D+00  0.0000000000000D+00
391  3.9000000000000D+00  0.0000000000000D+00  0.0000000000000D+00
392  3.9100000000000D+00  0.0000000000000D+00  0.0000000000000D+00
393  3.9200000000000D+00  0.0000000000000D+00  0.0000000000000D+00
394  3.9300000000000D+00  0.0000000000000D+00  0.0000000000000D+00
395  3.9400000000000D+00  0.0000000000000D+00  0.0000000000000D+00
396  3.9500000000000D+00  0.0000000000000D+00  0.0000000000000D+00
397  3.9600000000000D+00  0.0000000000000D+00  0.0000000000000D+00
398  3.9700000000000D+00  0.0000000000000D+00  0.0000000000000D+00
399  3.9800000000000D+00  0.0000000000000D+00  0.0000000000000D+00
400  3.9900000000000D+00  0.0000000000000D+00  0.0000000000000D+00
401  4.0000000000000D+00  0.0000000000000D+00  0.0000000000000D+00
402  4.0100000000000D+00  0.0000000000000D+00  0.0000000000000D+00
403  4.0200000000000D+00  0.0000000000000D+00  0.0000000000000D+00
404  4.0300000000000D+00  0.0000000000000D+00  0.0000000000000D+00
405  4.0400000000000D+00  0.0000000000000D+00  0.0000000000000D+00
406  4.0500000000000D+00  0.0000000000000D+00  0.0000000000000D+00
407  4.0600000000000D+00  0.0000000000000D+00  0.0000000000000D+00
408  4.0700000000000D+00  0.0000000000000D+00  0.0000000000000D+00
409  4.0800000000000D+00  0.0000000000000D+00  0.0000000000000D+00
410  4.0900000000000D+00  0.0000000000000D+00  0.0000000000000D+00
411  4.1000000000000D+00  0.0000000000000D+00  0.0000000000000D+00
412  4.1100000000000D+00  0.0000000000000D+00  0.0000000000000D+00
413  4.1200000000000D+00  0.0000000000000D+00  0.0000000000000D+00
414  4.1300000000000D+00  0.0000000000000D+00  0.0000000000000D+00
415  4.1400000000000D+00  0.0000000000000D+00  0.0000000000000D+00
416  4.1500000000000D+00  0.0000000000000D+00  0.0000000000000D+00
417  4.1600000000000D+00  0.0000000000000D+00  0.0000000000000D+00
418  4.1700000000000D+00  0.0000000000000D+00  0.0000000000000D+00
419  4.1800000000000D+00  0.0000000000000D+00  0.0000000000000D+00
420  4.1900000000000D+00  0.0000000000000D+00  0.0000000000000D+00
421  4.2000000000000D+00  0.0000000000000D+00  0.0000000000000D+00
422  4.2100000000000D+00  0.0000000000000D+00  0.0000000000000D+00
423  4.2200000000000D+00  0.0000000000000D+00  0.0000000000000D+00
424  4.2300000000000D+00  0.0000000000000D+00  0.0000000000000D+00
425  4.2400000000000D+00  0.0000000000000D+00  0.0000000000000D+00
426  4.2500000000000D+00  0.0000000000000D+00  0.0000000000000D+00
427  4.2600000000000D+00  0.0000000000000D+00  0.0000000000000D+00
428  4.2700000000000D+00  0.0000000000000D+00  0.0000000000000D+00
429  4.2800000000000D+00  0.0000000000000D+00  0.0000000000000D+00
430  4.2900000000000D+00  0.0000000000000D+00  0.0000000000000D+00
431  4.3000000000000D+00  0.0000000000000D+00  0.0000000000000D+00
432  4.3100000000000D+00  0.0000000000000D+00  0.0000000000000D+00
433  4.3200000000000D+00  0.0000000000000D+00  0.0000000000000D+00
434  4.3300000000000D+00  0.0000000000000D+00  0.0000000000000D+00
435  4.3400000000000D+00  0.0000000000000D+00  0.0000000000000D+00
436  4.3500000000000D+00  0.0000000000000D+00  0.0000000000000D+00
437  4.3600000000000D+00  0.0000000000000D+00  0.0000000000000D+00
438  4.3700000000000D+00  0.0000000000000D+00  0.0000000000000D+00
439  4.3800000000000D+00  0.0000000000000D+00  0.0000000000000D+00
440  4.3900000000000D+00  0.0000000000000D+00  0.0000000000000D+00
441  4.4000000000000D+00  0.0000000000000D+00  0.0000000000000D+00
442  4.4100000000000D+00  0.0000000000000D+00  0.0000000000000D+00
443  4.4200000000000D+00  0.0000000000000D+00  0.0000000000000D+00
444  4.4300000000000D+00  0.0000000000000D+00  0.0000000000000D+00