Eu    ONCVPSP  r_core=  1.80  1.51  1.66  1.72
63.0000     17.0000      160625    zatom,zion,pspd
8      11   3     4   600     0    pspcod,pspxc,lmax,lloc,mmax,r2well
5.99000000  0.25000000  0.00000000    rchrg fchrg qchrg
2     2     2     2     0    nproj
1                 extension_switch
0                         8.7946583468843D+00  5.6203362110782D-01
1  0.0000000000000D+00 -4.3381520598018D-11  3.4024727479931D-10
2  1.0000000000000D-02  4.2338122163467D-02 -2.0120187617662D-02
3  2.0000000000000D-02  8.4634679441712D-02 -4.0126378821418D-02
4  3.0000000000000D-02  1.2684819864508D-01 -5.9905520462928D-02
5  4.0000000000000D-02  1.6893738904586D-01 -7.9346436707999D-02
6  5.0000000000000D-02  2.1086123129745D-01 -9.8340744738118D-02
7  6.0000000000000D-02  2.5257906361032D-01 -1.1678374314794D-01
8  7.0000000000000D-02  2.9405066432174D-01 -1.3457526433944D-01
9  8.0000000000000D-02  3.3523633003962D-01 -1.5162048255376D-01
10  9.0000000000000D-02  3.7609694859415D-01 -1.6783066960137D-01
11  1.0000000000000D-01  4.1659406609383D-01 -1.8312389084687D-01
12  1.1000000000000D-01  4.5668994745416D-01 -1.9742563457210D-01
13  1.2000000000000D-01  4.9634762984741D-01 -2.1066936847496D-01
14  1.3000000000000D-01  5.3553096860859D-01 -2.2279701775657D-01
15  1.4000000000000D-01  5.7420467522703D-01 -2.3375935999972D-01
16  1.5000000000000D-01  6.1233434715157D-01 -2.4351633283969D-01
17  1.6000000000000D-01  6.4988648924126D-01 -2.5203725126932D-01
18  1.7000000000000D-01  6.8682852680040D-01 -2.5930093229358D-01
19  1.8000000000000D-01  7.2312881024564D-01 -2.6529572554936D-01
20  1.9000000000000D-01  7.5875661156365D-01 -2.7001944942401D-01
21  2.0000000000000D-01  7.9368211282735D-01 -2.7347923313455D-01
22  2.1000000000000D-01  8.2787638714799D-01 -2.7569126615748D-01
23  2.2000000000000D-01  8.6131137254616D-01 -2.7668045732137D-01
24  2.3000000000000D-01  8.9395983932744D-01 -2.7648000677931D-01
25  2.4000000000000D-01  9.2579535164569D-01 -2.7513089495934D-01
26  2.5000000000000D-01  9.5679222402822D-01 -2.7268129343820D-01
27  2.6000000000000D-01  9.8692547372110D-01 -2.6918590349062D-01
28  2.7000000000000D-01  1.0161707697881D+00 -2.6470522882260D-01
29  2.8000000000000D-01  1.0445043799636D+00 -2.5930478969785D-01
30  2.9000000000000D-01  1.0719031163143D+00 -2.5305428630186D-01
31  3.0000000000000D-01  1.0983442808107D+00 -2.4602671975320D-01
32  3.1000000000000D-01  1.1238056119408D+00 -2.3829747965986D-01
33  3.2000000000000D-01  1.1482652335187D+00 -2.2994340752287D-01
34  3.3000000000000D-01  1.1717016068467D+00 -2.2104184560817D-01
35  3.4000000000000D-01  1.1940934873851D+00 -2.1166968113345D-01
36  3.5000000000000D-01  1.2154198870592D+00 -2.0190239574775D-01
37  3.6000000000000D-01  1.2356600433016D+00 -1.9181313031571D-01
38  3.7000000000000D-01  1.2547933958763D+00 -1.8147177495341D-01
39  3.8000000000000D-01  1.2727995724696D+00 -1.7094409409687D-01
40  3.9000000000000D-01  1.2896583839553D+00 -1.6029089612069D-01
41  4.0000000000000D-01  1.3053498301513D+00 -1.4956725666143D-01
42  4.1000000000000D-01  1.3198541167829D+00 -1.3882180434038D-01
43  4.2000000000000D-01  1.3331516842534D+00 -1.2809607703012D-01
44  4.3000000000000D-01  1.3452232486938D+00 -1.1742395616668D-01
45  4.4000000000000D-01  1.3560498556339D+00 -1.0683118588578D-01
46  4.5000000000000D-01  1.3656129464848D+00 -9.6334982958334D-02
47  4.6000000000000D-01  1.3738944378762D+00 -8.5943742627178D-02
48  4.7000000000000D-01  1.3808768137307D+00 -7.5656844509981D-02
49  4.8000000000000D-01  1.3865432297962D+00 -6.5464561742123D-02
50  4.9000000000000D-01  1.3908776301882D+00 -5.5348075495839D-02
51  5.0000000000000D-01  1.3938648753306D+00 -4.5279595939342D-02
52  5.1000000000000D-01  1.3954908805153D+00 -3.5222589601929D-02
53  5.2000000000000D-01  1.3957427641346D+00 -2.5132111998939D-02
54  5.3000000000000D-01  1.3946090044859D+00 -1.4955243254682D-02
55  5.4000000000000D-01  1.3920796038881D+00 -4.6316233563247D-03
56  5.5000000000000D-01  1.3881462587110D+00  5.9059174149915D-03
57  5.6000000000000D-01  1.3828025337771D+00  1.6730638383714D-02
58  5.7000000000000D-01  1.3760440394777D+00  2.7921085225749D-02
59  5.8000000000000D-01  1.3678686098321D+00  3.9560211033483D-02
60  5.9000000000000D-01  1.3582764796282D+00  5.1734430056556D-02
61  6.0000000000000D-01  1.3472704587024D+00  6.4532613289020D-02
62  6.1000000000000D-01  1.3348561013634D+00  7.8045035792423D-02
63  6.2000000000000D-01  1.3210418689221D+00  9.2362286272182D-02
64  6.3000000000000D-01  1.3058392832770D+00  1.0757414994395D-01
65  6.4000000000000D-01  1.2892630695062D+00  1.2376847613259D-01
66  6.5000000000000D-01  1.2713312854484D+00  1.4103004233503D-01
67  6.6000000000000D-01  1.2520654363048D+00  1.5943942663900D-01
68  6.7000000000000D-01  1.2314905723703D+00  1.7907190042336D-01
69  6.8000000000000D-01  1.2096353681005D+00  1.9999635316730D-01
70  6.9000000000000D-01  1.1865321808444D+00  2.2227426096238D-01
71  7.0000000000000D-01  1.1622170877170D+00  2.4595870995994D-01
72  7.1000000000000D-01  1.1367298992555D+00  2.7109348548805D-01
73  7.2000000000000D-01  1.1101141486889D+00  2.9771223695147D-01
74  7.3000000000000D-01  1.0824170558608D+00  3.2583772788245D-01
75  7.4000000000000D-01  1.0536894650733D+00  3.5548117964692D-01
76  7.5000000000000D-01  1.0239857563566D+00  3.8664171634814D-01
77  7.6000000000000D-01  9.9336372993308D-01  4.1930591739487D-01
78  7.7000000000000D-01  9.6188446390594D-01  4.5344748305342D-01
79  7.8000000000000D-01  9.2961214548267D-01  4.8902701707255D-01
80  7.9000000000000D-01  8.9661387632504D-01  5.2599192918199D-01
81  8.0000000000000D-01  8.6295945290214D-01  5.6427645893048D-01
82  8.1000000000000D-01  8.2872112300806D-01  6.0380182096601D-01
83  8.2000000000000D-01  7.9397331988655D-01  6.4447647048238D-01
84  8.3000000000000D-01  7.5879237567818D-01  6.8619648618426D-01
85  8.4000000000000D-01  7.2325621616788D-01  7.2884606677189D-01
86  8.5000000000000D-01  6.8744403905911D-01  7.7229813563611D-01
87  8.6000000000000D-01  6.5143597823014D-01  8.1641504720258D-01
88  8.7000000000000D-01  6.1531275663687D-01  8.6104938718921D-01
89  8.8000000000000D-01  5.7915533070966D-01  9.0604485795847D-01
90  8.9000000000000D-01  5.4304452924729D-01  9.5123723917724D-01
91  9.0000000000000D-01  5.0706068993534D-01  9.9645541315189D-01
92  9.1000000000000D-01  4.7128329670647D-01  1.0415224435057D+00
93  9.2000000000000D-01  4.3579062121443D-01  1.0862566953181D+00
94  9.3000000000000D-01  4.0065937170879D-01  1.1304729844648D+00
95  9.4000000000000D-01  3.6596435257297D-01  1.1739837436961D+00
96  9.5000000000000D-01  3.3177813772150D-01  1.2166001929701D+00
97  9.6000000000000D-01  2.9817076094389D-01  1.2581335017282D+00
98  9.7000000000000D-01  2.6520942613075D-01  1.2983959311672D+00
99  9.8000000000000D-01  2.3295824012333D-01  1.3372019451147D+00
100  9.9000000000000D-01  2.0147797068776D-01  1.3743692788817D+00
101  1.0000000000000D+00  1.7082583184791D-01  1.4097199563586D+00
102  1.0100000000000D+00  1.4105529848045D-01  1.4430812467894D+00
103  1.0200000000000D+00  1.1221595173208D-01  1.4742865538984D+00
104  1.0300000000000D+00  8.4353356428266D-02  1.5031762314951D+00
105  1.0400000000000D+00  5.7508971229818D-02  1.5295983212345D+00
106  1.0500000000000D+00  3.1720091828898D-02  1.5534092099756D+00
107  1.0600000000000D+00  7.0198270632374D-03  1.5744742057655D+00
108  1.0700000000000D+00 -1.6562892716807D-02  1.5926680335622D+00
109  1.0800000000000D+00 -3.9003276141013D-02  1.6078752535312D+00
110  1.0900000000000D+00 -6.0280601791426D-02  1.6199906066912D+00
111  1.1000000000000D+00 -8.0378121787399D-02  1.6289192946297D+00
112  1.1100000000000D+00 -9.9282940523791D-02  1.6345772015483D+00
113  1.1200000000000D+00 -1.1698587166980D-01  1.6368910689860D+00
114  1.1300000000000D+00 -1.3348127689220D-01  1.6357986348464D+00
115  1.1400000000000D+00 -1.4876689022374D-01  1.6312487499150D+00
116  1.1500000000000D+00 -1.6284363227779D-01  1.6232014859910D+00
117  1.1600000000000D+00 -1.7571541892127D-01  1.6116282509921D+00
118  1.1700000000000D+00 -1.8738896919747D-01  1.5965119267726D+00
119  1.1800000000000D+00 -1.9787361746531D-01  1.5778470455327D+00
120  1.1900000000000D+00 -2.0718113484299D-01  1.5556400208855D+00
121  1.2000000000000D+00 -2.1532556506622D-01  1.5299094488254D+00
122  1.2100000000000D+00 -2.2232307969853D-01  1.5006864924884D+00
123  1.2200000000000D+00 -2.2819185751723D-01  1.4680153634875D+00
124  1.2300000000000D+00 -2.3295199260515D-01  1.4319539103863D+00
125  1.2400000000000D+00 -2.3662543507715D-01  1.3925743211993D+00
126  1.2500000000000D+00 -2.3923596784924D-01  1.3499639437280D+00
127  1.2600000000000D+00 -2.4080922244399D-01  1.3042262249234D+00
128  1.2700000000000D+00 -2.4137273534165D-01  1.2554817621476D+00
129  1.2800000000000D+00 -2.4095604556264D-01  1.2038694547745D+00
130  1.2900000000000D+00 -2.3959083369025D-01  1.1495477417439D+00
131  1.3000000000000D+00 -2.3731109964281D-01  1.0926958951380D+00
132  1.3100000000000D+00 -2.3415337582341D-01  1.0335153363559D+00
133  1.3200000000000D+00 -2.3015697134771D-01  9.7223093631663D-01
134  1.3300000000000D+00 -2.2536423827809D-01  9.0909223619920D-01
135  1.3400000000000D+00 -2.1982085137671D-01  8.4437452833079D-01
136  1.3500000000000D+00 -2.1357608992712D-01  7.7837972122916D-01
137  1.3600000000000D+00 -2.0668310368780D-01  7.1143687943360D-01
138  1.3700000000000D+00 -1.9919914914032D-01  6.4390234982406D-01
139  1.3800000000000D+00 -1.9118577215177D-01  5.7615933433518D-01
140  1.3900000000000D+00 -1.8270891062701D-01  5.0861675606538D-01
141  1.4000000000000D+00 -1.7383889438593D-01  4.4170728441437D-01
142  1.4100000000000D+00 -1.6465030070645D-01  3.7588428856764D-01
143  1.4200000000000D+00 -1.5522163498263D-01  3.1161754506644D-01
144  1.4300000000000D+00 -1.4563479186327D-01  2.4938745303933D-01
145  1.4400000000000D+00 -1.3597424280000D-01  1.8967746227246D-01
146  1.4500000000000D+00 -1.2632591042253D-01  1.3296449364604D-01
147  1.4600000000000D+00 -1.1677563519652D-01  7.9706809573302D-02
148  1.4700000000000D+00 -1.0740728061094D-01  3.0329798966812D-02
149  1.4800000000000D+00 -9.8299989014342D-02 -1.4793824987508D-02
150  1.4900000000000D+00 -8.9525951072633D-02 -5.5359120914016D-02
151  1.5000000000000D+00 -8.1145718774608D-02 -9.1160755975630D-02
152  1.5100000000000D+00 -7.3201736100550D-02 -1.2213863400661D-01
153  1.5200000000000D+00 -6.5720453733596D-02 -1.4835326234546D-01
154  1.5300000000000D+00 -5.8714092136076D-02 -1.6996436601095D-01
155  1.5400000000000D+00 -5.2187351272562D-02 -1.8717719187887D-01
156  1.5500000000000D+00 -4.6142001486873D-02 -2.0020518941665D-01
157  1.5600000000000D+00 -4.0574928380231D-02 -2.0928612590049D-01
158  1.5700000000000D+00 -3.5478579148277D-02 -2.1467915465560D-01
159  1.5800000000000D+00 -3.0841580612888D-02 -2.1666008132394D-01
160  1.5900000000000D+00 -2.6649003894045D-02 -2.1551983138954D-01
161  1.6000000000000D+00 -2.2882803452432D-02 -2.1156152001525D-01
162  1.6100000000000D+00 -1.9522220269279D-02 -2.0509787326467D-01
163  1.6200000000000D+00 -1.6544212381615D-02 -1.9644847689457D-01
164  1.6300000000000D+00 -1.3923897152301D-02 -1.8593697198950D-01
165  1.6400000000000D+00 -1.1635000688217D-02 -1.7388822379091D-01
166  1.6500000000000D+00 -9.6503105819168D-03 -1.6062548599008D-01
167  1.6600000000000D+00 -7.9421280966671D-03 -1.4646758256885D-01
168  1.6700000000000D+00 -6.4827146095494D-03 -1.3172613774885D-01
169  1.6800000000000D+00 -5.2447293423264D-03 -1.1670287092570D-01
170  1.6900000000000D+00 -4.2016544160437D-03 -1.0168697831191D-01
171  1.7000000000000D+00 -3.3282046353814D-03 -8.6952616761781D-02
172  1.7100000000000D+00 -2.6007126256625D-03 -7.2756546426979D-02
173  1.7200000000000D+00 -1.9974915884901D-03 -5.9335916997457D-02
174  1.7300000000000D+00 -1.4991715613042D-03 -4.6906218573302D-02
175  1.7400000000000D+00 -1.0890078140657D-03 -3.5659407549079D-02
176  1.7500000000000D+00 -7.5336372784790D-04 -2.5771051257027D-02
177  1.7600000000000D+00 -4.8094723918126D-04 -1.7357670220816D-02
178  1.7700000000000D+00 -2.6423594195427D-04 -1.0496677063436D-02
179  1.7800000000000D+00 -1.0069524233767D-04 -5.4009155921875D-03
180  1.7900000000000D+00  1.1042939648024D-05 -2.2107804739024D-03
181  1.8000000000000D+00  6.6354025439402D-05 -6.1159400013983D-04
182  1.8100000000000D+00  6.1788726287499D-05 -2.9246834786689D-05
183  1.8200000000000D+00  2.2507453669530D-05  4.4051254768444D-05
184  1.8300000000000D+00 -6.9890051630769D-06 -2.0080356833657D-05
185  1.8400000000000D+00 -7.9858707123727D-06 -2.8455702454084D-05
186  1.8500000000000D+00  8.0876653669654D-07  1.5430428182276D-06
187  1.8600000000000D+00  2.0410694439661D-06  4.5506832563024D-06
188  1.8700000000000D+00 -3.1188198298036D-09  1.2222737074088D-08
189  1.8800000000000D+00 -2.0505525412188D-07  8.0361694280682D-07
190  1.8900000000000D+00 -6.2548820946587D-08  2.4513047705371D-07
191  1.9000000000000D+00  0.0000000000000D+00  0.0000000000000D+00
192  1.9100000000000D+00  0.0000000000000D+00  0.0000000000000D+00
193  1.9200000000000D+00  0.0000000000000D+00  0.0000000000000D+00
194  1.9300000000000D+00  0.0000000000000D+00  0.0000000000000D+00
195  1.9400000000000D+00  0.0000000000000D+00  0.0000000000000D+00
196  1.9500000000000D+00  0.0000000000000D+00  0.0000000000000D+00
197  1.9600000000000D+00  0.0000000000000D+00  0.0000000000000D+00
198  1.9700000000000D+00  0.0000000000000D+00  0.0000000000000D+00
199  1.9800000000000D+00  0.0000000000000D+00  0.0000000000000D+00
200  1.9900000000000D+00  0.0000000000000D+00  0.0000000000000D+00
201  2.0000000000000D+00  0.0000000000000D+00  0.0000000000000D+00
202  2.0100000000000D+00  0.0000000000000D+00  0.0000000000000D+00
203  2.0200000000000D+00  0.0000000000000D+00  0.0000000000000D+00
204  2.0300000000000D+00  0.0000000000000D+00  0.0000000000000D+00
205  2.0400000000000D+00  0.0000000000000D+00  0.0000000000000D+00
206  2.0500000000000D+00  0.0000000000000D+00  0.0000000000000D+00
207  2.0600000000000D+00  0.0000000000000D+00  0.0000000000000D+00
208  2.0700000000000D+00  0.0000000000000D+00  0.0000000000000D+00
209  2.0800000000000D+00  0.0000000000000D+00  0.0000000000000D+00
210  2.0900000000000D+00  0.0000000000000D+00  0.0000000000000D+00
211  2.1000000000000D+00  0.0000000000000D+00  0.0000000000000D+00
212  2.1100000000000D+00  0.0000000000000D+00  0.0000000000000D+00
213  2.1200000000000D+00  0.0000000000000D+00  0.0000000000000D+00
214  2.1300000000000D+00  0.0000000000000D+00  0.0000000000000D+00
215  2.1400000000000D+00  0.0000000000000D+00  0.0000000000000D+00
216  2.1500000000000D+00  0.0000000000000D+00  0.0000000000000D+00
217  2.1600000000000D+00  0.0000000000000D+00  0.0000000000000D+00
218  2.1700000000000D+00  0.0000000000000D+00  0.0000000000000D+00
219  2.1800000000000D+00  0.0000000000000D+00  0.0000000000000D+00
220  2.1900000000000D+00  0.0000000000000D+00  0.0000000000000D+00
221  2.2000000000000D+00  0.0000000000000D+00  0.0000000000000D+00
222  2.2100000000000D+00  0.0000000000000D+00  0.0000000000000D+00
223  2.2200000000000D+00  0.0000000000000D+00  0.0000000000000D+00
224  2.2300000000000D+00  0.0000000000000D+00  0.0000000000000D+00
225  2.2400000000000D+00  0.0000000000000D+00  0.0000000000000D+00
226  2.2500000000000D+00  0.0000000000000D+00  0.0000000000000D+00
227  2.2600000000000D+00  0.0000000000000D+00  0.0000000000000D+00
228  2.2700000000000D+00  0.0000000000000D+00  0.0000000000000D+00
229  2.2800000000000D+00  0.0000000000000D+00  0.0000000000000D+00
230  2.2900000000000D+00  0.0000000000000D+00  0.0000000000000D+00
231  2.3000000000000D+00  0.0000000000000D+00  0.0000000000000D+00
232  2.3100000000000D+00  0.0000000000000D+00  0.0000000000000D+00
233  2.3200000000000D+00  0.0000000000000D+00  0.0000000000000D+00
234  2.3300000000000D+00  0.0000000000000D+00  0.0000000000000D+00
235  2.3400000000000D+00  0.0000000000000D+00  0.0000000000000D+00
236  2.3500000000000D+00  0.0000000000000D+00  0.0000000000000D+00
237  2.3600000000000D+00  0.0000000000000D+00  0.0000000000000D+00
238  2.3700000000000D+00  0.0000000000000D+00  0.0000000000000D+00
239  2.3800000000000D+00  0.0000000000000D+00  0.0000000000000D+00
240  2.3900000000000D+00  0.0000000000000D+00  0.0000000000000D+00
241  2.4000000000000D+00  0.0000000000000D+00  0.0000000000000D+00
242  2.4100000000000D+00  0.0000000000000D+00  0.0000000000000D+00
243  2.4200000000000D+00  0.0000000000000D+00  0.0000000000000D+00
244  2.4300000000000D+00  0.0000000000000D+00  0.0000000000000D+00
245  2.4400000000000D+00  0.0000000000000D+00  0.0000000000000D+00
246  2.4500000000000D+00  0.0000000000000D+00  0.0000000000000D+00
247  2.4600000000000D+00  0.0000000000000D+00  0.0000000000000D+00
248  2.4700000000000D+00  0.0000000000000D+00  0.0000000000000D+00
249  2.4800000000000D+00  0.0000000000000D+00  0.0000000000000D+00
250  2.4900000000000D+00  0.0000000000000D+00  0.0000000000000D+00
251  2.5000000000000D+00  0.0000000000000D+00  0.0000000000000D+00
252  2.5100000000000D+00  0.0000000000000D+00  0.0000000000000D+00
253  2.5200000000000D+00  0.0000000000000D+00  0.0000000000000D+00
254  2.5300000000000D+00  0.0000000000000D+00  0.0000000000000D+00
255  2.5400000000000D+00  0.0000000000000D+00  0.0000000000000D+00
256  2.5500000000000D+00  0.0000000000000D+00  0.0000000000000D+00
257  2.5600000000000D+00  0.0000000000000D+00  0.0000000000000D+00
258  2.5700000000000D+00  0.0000000000000D+00  0.0000000000000D+00
259  2.5800000000000D+00  0.0000000000000D+00  0.0000000000000D+00
260  2.5900000000000D+00  0.0000000000000D+00  0.0000000000000D+00
261  2.6000000000000D+00  0.0000000000000D+00  0.0000000000000D+00
262  2.6100000000000D+00  0.0000000000000D+00  0.0000000000000D+00
263  2.6200000000000D+00  0.0000000000000D+00  0.0000000000000D+00
264  2.6300000000000D+00  0.0000000000000D+00  0.0000000000000D+00
265  2.6400000000000D+00  0.0000000000000D+00  0.0000000000000D+00
266  2.6500000000000D+00  0.0000000000000D+00  0.0000000000000D+00
267  2.6600000000000D+00  0.0000000000000D+00  0.0000000000000D+00
268  2.6700000000000D+00  0.0000000000000D+00  0.0000000000000D+00
269  2.6800000000000D+00  0.0000000000000D+00  0.0000000000000D+00
270  2.6900000000000D+00  0.0000000000000D+00  0.0000000000000D+00
271  2.7000000000000D+00  0.0000000000000D+00  0.0000000000000D+00
272  2.7100000000000D+00  0.0000000000000D+00  0.0000000000000D+00
273  2.7200000000000D+00  0.0000000000000D+00  0.0000000000000D+00
274  2.7300000000000D+00  0.0000000000000D+00  0.0000000000000D+00
275  2.7400000000000D+00  0.0000000000000D+00  0.0000000000000D+00
276  2.7500000000000D+00  0.0000000000000D+00  0.0000000000000D+00
277  2.7600000000000D+00  0.0000000000000D+00  0.0000000000000D+00
278  2.7700000000000D+00  0.0000000000000D+00  0.0000000000000D+00
279  2.7800000000000D+00  0.0000000000000D+00  0.0000000000000D+00
280  2.7900000000000D+00  0.0000000000000D+00  0.0000000000000D+00
281  2.8000000000000D+00  0.0000000000000D+00  0.0000000000000D+00
282  2.8100000000000D+00  0.0000000000000D+00  0.0000000000000D+00
283  2.8200000000000D+00  0.0000000000000D+00  0.0000000000000D+00
284  2.8300000000000D+00  0.0000000000000D+00  0.0000000000000D+00
285  2.8400000000000D+00  0.0000000000000D+00  0.0000000000000D+00
286  2.8500000000000D+00  0.0000000000000D+00  0.0000000000000D+00
287  2.8600000000000D+00  0.0000000000000D+00  0.0000000000000D+00
288  2.8700000000000D+00  0.0000000000000D+00  0.0000000000000D+00
289  2.8800000000000D+00  0.0000000000000D+00  0.0000000000000D+00
290  2.8900000000000D+00  0.0000000000000D+00  0.0000000000000D+00
291  2.9000000000000D+00  0.0000000000000D+00  0.0000000000000D+00
292  2.9100000000000D+00  0.0000000000000D+00  0.0000000000000D+00
293  2.9200000000000D+00  0.0000000000000D+00  0.0000000000000D+00
294  2.9300000000000D+00  0.0000000000000D+00  0.0000000000000D+00
295  2.9400000000000D+00  0.0000000000000D+00  0.0000000000000D+00
296  2.9500000000000D+00  0.0000000000000D+00  0.0000000000000D+00
297  2.9600000000000D+00  0.0000000000000D+00  0.0000000000000D+00
298  2.9700000000000D+00  0.0000000000000D+00  0.0000000000000D+00
299  2.9800000000000D+00  0.0000000000000D+00  0.0000000000000D+00
300  2.9900000000000D+00  0.0000000000000D+00  0.0000000000000D+00
301  3.0000000000000D+00  0.0000000000000D+00  0.0000000000000D+00
302  3.0100000000000D+00  0.0000000000000D+00  0.0000000000000D+00
303  3.0200000000000D+00  0.0000000000000D+00  0.0000000000000D+00
304  3.0300000000000D+00  0.0000000000000D+00  0.0000000000000D+00
305  3.0400000000000D+00  0.0000000000000D+00  0.0000000000000D+00
306  3.0500000000000D+00  0.0000000000000D+00  0.0000000000000D+00
307  3.0600000000000D+00  0.0000000000000D+00  0.0000000000000D+00
308  3.0700000000000D+00  0.0000000000000D+00  0.0000000000000D+00
309  3.0800000000000D+00  0.0000000000000D+00  0.0000000000000D+00
310  3.0900000000000D+00  0.0000000000000D+00  0.0000000000000D+00
311  3.1000000000000D+00  0.0000000000000D+00  0.0000000000000D+00
312  3.1100000000000D+00  0.0000000000000D+00  0.0000000000000D+00
313  3.1200000000000D+00  0.0000000000000D+00  0.0000000000000D+00
314  3.1300000000000D+00  0.0000000000000D+00  0.0000000000000D+00
315  3.1400000000000D+00  0.0000000000000D+00  0.0000000000000D+00
316  3.1500000000000D+00  0.0000000000000D+00  0.0000000000000D+00
317  3.1600000000000D+00  0.0000000000000D+00  0.0000000000000D+00
318  3.1700000000000D+00  0.0000000000000D+00  0.0000000000000D+00
319  3.1800000000000D+00  0.0000000000000D+00  0.0000000000000D+00
320  3.1900000000000D+00  0.0000000000000D+00  0.0000000000000D+00
321  3.2000000000000D+00  0.0000000000000D+00  0.0000000000000D+00
322  3.2100000000000D+00  0.0000000000000D+00  0.0000000000000D+00
323  3.2200000000000D+00  0.0000000000000D+00  0.0000000000000D+00
324  3.2300000000000D+00  0.0000000000000D+00  0.0000000000000D+00
325  3.2400000000000D+00  0.0000000000000D+00  0.0000000000000D+00
326  3.2500000000000D+00  0.0000000000000D+00  0.0000000000000D+00
327  3.2600000000000D+00  0.0000000000000D+00  0.0000000000000D+00
328  3.2700000000000D+00  0.0000000000000D+00  0.0000000000000D+00
329  3.2800000000000D+00  0.0000000000000D+00  0.0000000000000D+00
330  3.2900000000000D+00  0.0000000000000D+00  0.0000000000000D+00
331  3.3000000000000D+00  0.0000000000000D+00  0.0000000000000D+00
332  3.3100000000000D+00  0.0000000000000D+00  0.0000000000000D+00
333  3.3200000000000D+00  0.0000000000000D+00  0.0000000000000D+00
334  3.3300000000000D+00  0.0000000000000D+00  0.0000000000000D+00
335  3.3400000000000D+00  0.0000000000000D+00  0.0000000000000D+00
336  3.3500000000000D+00  0.0000000000000D+00  0.0000000000000D+00
337  3.3600000000000D+00  0.0000000000000D+00  0.0000000000000D+00
338  3.3700000000000D+00  0.0000000000000D+00  0.0000000000000D+00
339  3.3800000000000D+00  0.0000000000000D+00  0.0000000000000D+00
340  3.3900000000000D+00  0.0000000000000D+00  0.0000000000000D+00
341  3.4000000000000D+00  0.0000000000000D+00  0.0000000000000D+00
342  3.4100000000000D+00  0.0000000000000D+00  0.0000000000000D+00
343  3.4200000000000D+00  0.0000000000000D+00  0.0000000000000D+00
344  3.4300000000000D+00  0.0000000000000D+00  0.0000000000000D+00
345  3.4400000000000D+00  0.0000000000000D+00  0.0000000000000D+00
346  3.4500000000000D+00  0.0000000000000D+00  0.0000000000000D+00
347  3.4600000000000D+00  0.0000000000000D+00  0.0000000000000D+00
348  3.4700000000000D+00  0.0000000000000D+00  0.0000000000000D+00
349  3.4800000000000D+00  0.0000000000000D+00  0.0000000000000D+00
350  3.4900000000000D+00  0.0000000000000D+00  0.0000000000000D+00
351  3.5000000000000D+00  0.0000000000000D+00  0.0000000000000D+00
352  3.5100000000000D+00  0.0000000000000D+00  0.0000000000000D+00
353  3.5200000000000D+00  0.0000000000000D+00  0.0000000000000D+00
354  3.5300000000000D+00  0.0000000000000D+00  0.0000000000000D+00
355  3.5400000000000D+00  0.0000000000000D+00  0.0000000000000D+00
356  3.5500000000000D+00  0.0000000000000D+00  0.0000000000000D+00
357  3.5600000000000D+00  0.0000000000000D+00  0.0000000000000D+00
358  3.5700000000000D+00  0.0000000000000D+00  0.0000000000000D+00
359  3.5800000000000D+00  0.0000000000000D+00  0.0000000000000D+00
360  3.5900000000000D+00  0.0000000000000D+00  0.0000000000000D+00
361  3.6000000000000D+00  0.0000000000000D+00  0.0000000000000D+00
362  3.6100000000000D+00  0.0000000000000D+00  0.0000000000000D+00
363  3.6200000000000D+00  0.0000000000000D+00  0.0000000000000D+00
364  3.6300000000000D+00  0.0000000000000D+00  0.0000000000000D+00
365  3.6400000000000D+00  0.0000000000000D+00  0.0000000000000D+00
366  3.6500000000000D+00  0.0000000000000D+00  0.0000000000000D+00
367  3.6600000000000D+00  0.0000000000000D+00  0.0000000000000D+00
368  3.6700000000000D+00  0.0000000000000D+00  0.0000000000000D+00
369  3.6800000000000D+00  0.0000000000000D+00  0.0000000000000D+00
370  3.6900000000000D+00  0.0000000000000D+00  0.0000000000000D+00
371  3.7000000000000D+00  0.0000000000000D+00  0.0000000000000D+00
372  3.7100000000000D+00  0.0000000000000D+00  0.0000000000000D+00
373  3.7200000000000D+00  0.0000000000000D+00  0.0000000000000D+00
374  3.7300000000000D+00  0.0000000000000D+00  0.0000000000000D+00
375  3.7400000000000D+00  0.0000000000000D+00  0.0000000000000D+00
376  3.7500000000000D+00  0.0000000000000D+00  0.0000000000000D+00
377  3.7600000000000D+00  0.0000000000000D+00  0.0000000000000D+00
378  3.7700000000000D+00  0.0000000000000D+00  0.0000000000000D+00
379  3.7800000000000D+00  0.0000000000000D+00  0.0000000000000D+00
380  3.7900000000000D+00  0.0000000000000D+00  0.0000000000000D+00
381  3.8000000000000D+00  0.0000000000000D+00  0.0000000000000D+00
382  3.8100000000000D+00  0.0000000000000D+00  0.0000000000000D+00
383  3.8200000000000D+00  0.0000000000000D+00  0.0000000000000D+00
384  3.8300000000000D+00  0.0000000000000D+00  0.0000000000000D+00
385  3.8400000000000D+00  0.0000000000000D+00  0.0000000000000D+00
386  3.8500000000000D+00  0.0000000000000D+00  0.0000000000000D+00
387  3.8600000000000D+00  0.0000000000000D+00  0.0000000000000D+00
388  3.8700000000000D+00  0.0000000000000D+00  0.0000000000000D+00
389  3.8800000000000D+00  0.0000000000000D+00  0.0000000000000D+00
390  3.8900000000000D+00  0.0000000000000D+00  0.0000000000000D+00
391  3.9000000000000D+00  0.0000000000000D+00  0.0000000000000D+00
392  3.9100000000000D+00  0.0000000000000D+00  0.0000000000000D+00
393  3.9200000000000D+00  0.0000000000000D+00  0.0000000000000D+00
394  3.9300000000000D+00  0.0000000000000D+00  0.0000000000000D+00
395  3.9400000000000D+00  0.0000000000000D+00  0.0000000000000D+00
396  3.9500000000000D+00  0.0000000000000D+00  0.0000000000000D+00
397  3.9600000000000D+00  0.0000000000000D+00  0.0000000000000D+00
398  3.9700000000000D+00  0.0000000000000D+00  0.0000000000000D+00
399  3.9800000000000D+00  0.0000000000000D+00  0.0000000000000D+00
400  3.9900000000000D+00  0.0000000000000D+00  0.0000000000000D+00
401  4.0000000000000D+00  0.0000000000000D+00  0.0000000000000D+00
402  4.0100000000000D+00  0.0000000000000D+00  0.0000000000000D+00
403  4.0200000000000D+00  0.0000000000000D+00  0.0000000000000D+00
404  4.0300000000000D+00  0.0000000000000D+00  0.0000000000000D+00
405  4.0400000000000D+00  0.0000000000000D+00  0.0000000000000D+00
406  4.0500000000000D+00  0.0000000000000D+00  0.0000000000000D+00
407  4.0600000000000D+00  0.0000000000000D+00  0.0000000000000D+00
408  4.0700000000000D+00  0.0000000000000D+00  0.0000000000000D+00
409  4.0800000000000D+00  0.0000000000000D+00  0.0000000000000D+00
410  4.0900000000000D+00  0.0000000000000D+00  0.0000000000000D+00
411  4.1000000000000D+00  0.0000000000000D+00  0.0000000000000D+00
412  4.1100000000000D+00  0.0000000000000D+00  0.0000000000000D+00
413  4.1200000000000D+00  0.0000000000000D+00  0.0000000000000D+00
414  4.1300000000000D+00  0.0000000000000D+00  0.0000000000000D+00
415  4.1400000000000D+00  0.0000000000000D+00  0.0000000000000D+00
416  4.1500000000000D+00  0.0000000000000D+00  0.0000000000000D+00
417  4.1600000000000D+00  0.0000000000000D+00  0.0000000000000D+00
418  4.1700000000000D+00  0.0000000000000D+00  0.0000000000000D+00
419  4.1800000000000D+00  0.0000000000000D+00  0.0000000000000D+00
420  4.1900000000000D+00  0.0000000000000D+00  0.0000000000000D+00
421  4.2000000000000D+00  0.0000000000000D+00  0.0000000000000D+00
422  4.2100000000000D+00  0.0000000000000D+00  0.0000000000000D+00
423  4.2200000000000D+00  0.0000000000000D+00  0.0000000000000D+00
424  4.2300000000000D+00  0.0000000000000D+00  0.0000000000000D+00
425  4.2400000000000D+00  0.0000000000000D+00  0.0000000000000D+00
426  4.2500000000000D+00  0.0000000000000D+00  0.0000000000000D+00
427  4.2600000000000D+00  0.0000000000000D+00  0.0000000000000D+00
428  4.2700000000000D+00  0.0000000000000D+00  0.0000000000000D+00
429  4.2800000000000D+00  0.0000000000000D+00  0.0000000000000D+00
430  4.2900000000000D+00  0.0000000000000D+00  0.0000000000000D+00
431  4.3000000000000D+00  0.0000000000000D+00  0.0000000000000D+00
432  4.3100000000000D+00  0.0000000000000D+00  0.0000000000000D+00
433  4.3200000000000D+00  0.0000000000000D+00  0.0000000000000D+00
434  4.3300000000000D+00  0.0000000000000D+00  0.0000000000000D+00
435  4.3400000000000D+00  0.0000000000000D+00  0.0000000000000D+00
436  4.3500000000000D+00  0.0000000000000D+00  0.0000000000000D+00
437  4.3600000000000D+00  0.0000000000000D+00  0.0000000000000D+00
438  4.3700000000000D+00  0.0000000000000D+00  0.0000000000000D+00
439  4.3800000000000D+00  0.0000000000000D+00  0.0000000000000D+00
440  4.3900000000000D+00  0.0000000000000D+00  0.0000000000000D+00
441  4.4000000000000D+00  0.0000000000000D+00  0.0000000000000D+00
442  4.4100000000000D+00  0.0000000000000D+00  0.0000000000000D+00
443  4.4200000000000D+00  0.0000000000000D+00  0.0000000000000D+00