Eu    ONCVPSP-3.2.3  r_core=   2.05715   1.86991   1.80418   2.51961
63.0000     11.0000      170421    zatom,zion,pspd
8      11   3     4   600     0    pspcod,pspxc,lmax,lloc,mmax,r2well
5.99000000  0.25000000  0.00000000    rchrg fchrg qchrg
2     2     2     1     0    nproj
1     1           extension_switch
0                         5.3460452951572D+00  7.8824797342891D-01
1  0.0000000000000D+00 -1.2810114080608D-10  2.9277541502282D-10
2  1.0000000000000D-02  4.7237796217741D-02 -1.7704291898833D-02
3  2.0000000000000D-02  9.4366969226497D-02 -3.5238701081579D-02
4  3.0000000000000D-02  1.4127950198635D-01 -5.2434633013571D-02
5  4.0000000000000D-02  1.8786858542090D-01 -6.9126059675535D-02
6  5.0000000000000D-02  2.3402921149518D-01 -8.5150778277304D-02
7  6.0000000000000D-02  2.7965875329997D-01 -1.0035164072705D-01
8  7.0000000000000D-02  3.2465752796268D-01 -1.1457774445337D-01
9  8.0000000000000D-02  3.6892933833276D-01 -1.2768557547045D-01
10  9.0000000000000D-02  4.1238198954800D-01 -1.3954009493795D-01
11  1.0000000000000D-01  4.5492777677557D-01 -1.5001576089579D-01
12  1.1000000000000D-01  4.9648394063627D-01 -1.5899747734450D-01
13  1.2000000000000D-01  5.3697308706151D-01 -1.6638146339253D-01
14  1.3000000000000D-01  5.7632356859770D-01 -1.7207603579694D-01
15  1.4000000000000D-01  6.1446982445961D-01 -1.7600229888011D-01
16  1.5000000000000D-01  6.5135267694198D-01 -1.7809473650632D-01
17  1.6000000000000D-01  6.8691958212313D-01 -1.7830170154389D-01
18  1.7000000000000D-01  7.2112483313490D-01 -1.7658579901467D-01
19  1.8000000000000D-01  7.5392971462596D-01 -1.7292415993806D-01
20  1.9000000000000D-01  7.8530260740861D-01 -1.6730860370406D-01
21  2.0000000000000D-01  8.1521904264956D-01 -1.5974568765432D-01
22  2.1000000000000D-01  8.4366170534000D-01 -1.5025664340424D-01
23  2.2000000000000D-01  8.7062038715722D-01 -1.3887720029706D-01
24  2.3000000000000D-01  8.9609188920553D-01 -1.2565729723600D-01
25  2.4000000000000D-01  9.2007987549623D-01 -1.1066068498624D-01
26  2.5000000000000D-01  9.4259467839168D-01 -9.3964421868783D-02
27  2.6000000000000D-01  9.6365305759461D-01 -7.5658266576913D-02
28  2.7000000000000D-01  9.8327791460781D-01 -5.5843972626309D-02
29  2.8000000000000D-01  1.0014979649190D+00 -3.4634489697068D-02
30  2.9000000000000D-01  1.0183473704788D+00 -1.2153077833642D-02
31  3.0000000000000D-01  1.0338653353323D+00  1.1467658868096D-02
32  3.1000000000000D-01  1.0480956675383D+00  3.6086811843422D-02
33  3.2000000000000D-01  1.0610863107582D+00  6.1556273107786D-02
34  3.3000000000000D-01  1.0728888491206D+00  8.7721897467274D-02
35  3.4000000000000D-01  1.0835579891640D+00  1.1442471314519D-01
36  3.5000000000000D-01  1.0931510228312D+00  1.4150217170434D-01
37  3.6000000000000D-01  1.1017272756234D+00  1.6878942783712D-01
38  3.7000000000000D-01  1.1093475441379D+00  1.9612063935806D-01
39  3.8000000000000D-01  1.1160735272840D+00  2.2333027756725D-01
40  3.9000000000000D-01  1.1219672555237D+00  2.5025443806063D-01
41  4.0000000000000D-01  1.1270905224938D+00  2.7673214204293D-01
42  4.1000000000000D-01  1.1315043233512D+00  3.0260661825320D-01
43  4.2000000000000D-01  1.1352683041310D+00  3.2772655574024D-01
44  4.3000000000000D-01  1.1384402263267D+00  3.5194731792370D-01
45  4.4000000000000D-01  1.1410754507913D+00  3.7513210864728D-01
46  4.5000000000000D-01  1.1432264449121D+00  3.9715308126791D-01
47  4.6000000000000D-01  1.1449423168450D+00  4.1789238223012D-01
48  4.7000000000000D-01  1.1462683803931D+00  4.3724312104150D-01
49  4.8000000000000D-01  1.1472457538895D+00  4.5511025909309D-01
50  4.9000000000000D-01  1.1479109961959D+00  4.7141141035071D-01
51  5.0000000000000D-01  1.1482957826553D+00  4.8607754757844D-01
52  5.1000000000000D-01  1.1484266235446D+00  4.9905360843625D-01
53  5.2000000000000D-01  1.1483246272612D+00  5.1029899651717D-01
54  5.3000000000000D-01  1.1480053101507D+00  5.1978797314988D-01
55  5.4000000000000D-01  1.1474784545388D+00  5.2750993658293D-01
56  5.5000000000000D-01  1.1467480161799D+00  5.3346958598438D-01
57  5.6000000000000D-01  1.1458120819698D+00  5.3768696852680D-01
58  5.7000000000000D-01  1.1446628784038D+00  5.4019740867697D-01
59  5.8000000000000D-01  1.1432868308853D+00  5.4105131966897D-01
60  5.9000000000000D-01  1.1416646736212D+00  5.4031389799599D-01
61  6.0000000000000D-01  1.1397716094631D+00  5.3806470261349D-01
62  6.1000000000000D-01  1.1375775186886D+00  5.3439712138772D-01
63  6.2000000000000D-01  1.1350472153547D+00  5.2941772815211D-01
64  6.3000000000000D-01  1.1321407495032D+00  5.2324553453887D-01
65  6.4000000000000D-01  1.1288137531577D+00  5.1601114152747D-01
66  6.5000000000000D-01  1.1250178277255D+00  5.0785579639767D-01
67  6.6000000000000D-01  1.1207009701086D+00  4.9893036147575D-01
68  6.7000000000000D-01  1.1158080345370D+00  4.8939420172347D-01
69  6.8000000000000D-01  1.1102812268654D+00  4.7941399883170D-01
70  6.9000000000000D-01  1.1040606278278D+00  4.6916250003861D-01
71  7.0000000000000D-01  1.0970847415216D+00  4.5881721039384D-01
72  7.1000000000000D-01  1.0892910651919D+00  4.4855903763307D-01
73  7.2000000000000D-01  1.0806166762179D+00  4.3857089920573D-01
74  7.3000000000000D-01  1.0709988320610D+00  4.2903630131041D-01
75  7.4000000000000D-01  1.0603755788197D+00  4.2013790003804D-01
76  7.5000000000000D-01  1.0486863639536D+00  4.1205605489613D-01
77  7.6000000000000D-01  1.0358726486875D+00  4.0496738509196D-01
78  7.7000000000000D-01  1.0218785155834D+00  3.9904333898269D-01
79  7.8000000000000D-01  1.0066512667811D+00  3.9444878705982D-01
80  7.9000000000000D-01  9.9014200844545D-01  3.9134064872216D-01
81  8.0000000000000D-01  9.7230621703461D-01  3.8986656290652D-01
82  8.1000000000000D-01  9.5310428310307D-01  3.9016361239056D-01
83  8.2000000000000D-01  9.3250202848847D-01  3.9235711125840D-01
84  8.3000000000000D-01  9.1047119289117D-01  3.9655946462911D-01
85  8.4000000000000D-01  8.8698988604611D-01  4.0286910929372D-01
86  8.5000000000000D-01  8.6204300190292D-01  4.1136954339072D-01
87  8.6000000000000D-01  8.3562259147172D-01  4.2212845267639D-01
88  8.7000000000000D-01  8.0772819125806D-01  4.3519694031864D-01
89  8.8000000000000D-01  7.7836710449779D-01  4.5060886646531D-01
90  8.9000000000000D-01  7.4755463271091D-01  4.6838030311461D-01
91  9.0000000000000D-01  7.1531425541893D-01  4.8850910905122D-01
92  9.1000000000000D-01  6.8167775621280D-01  5.1097462881152D-01
93  9.2000000000000D-01  6.4668529371408D-01  5.3573751881083D-01
94  9.3000000000000D-01  6.1038541633936D-01  5.6273970290967D-01
95  9.4000000000000D-01  5.7283502015427D-01  5.9190445882089D-01
96  9.5000000000000D-01  5.3409924948660D-01  6.2313663587038D-01
97  9.6000000000000D-01  4.9425134035463D-01  6.5632300372707D-01
98  9.7000000000000D-01  4.5337240715548D-01  6.9133273082000D-01
99  9.8000000000000D-01  4.1155117344570D-01  7.2801799026438D-01
100  9.9000000000000D-01  3.6888364803338D-01  7.6621469022740D-01
101  1.0000000000000D+00  3.2547274796728D-01  8.0574332482093D-01
102  1.0100000000000D+00  2.8142787039424D-01  8.4640994072353D-01
103  1.0200000000000D+00  2.3686441560077D-01  8.8800721394409D-01
104  1.0300000000000D+00  1.9190326390404D-01  9.3031563034155D-01
105  1.0400000000000D+00  1.4667020938307D-01  9.7310476277313D-01
106  1.0500000000000D+00  1.0129535376142D-01  1.0161346370153D+00
107  1.0600000000000D+00  5.5912464015196D-02  1.0591571780078D+00
108  1.0700000000000D+00  1.0658297583194D-02  1.1019177272884D+00
109  1.0800000000000D+00 -3.4328100726355D-02  1.1441566219962D+00
110  1.0900000000000D+00 -7.8906125812004D-02  1.1856108253227D+00
111  1.1000000000000D+00 -1.2293435882460D-01  1.2260155978586D+00
112  1.1100000000000D+00 -1.6627132852556D-01  1.2651061989749D+00
113  1.1200000000000D+00 -2.0877628264200D-01  1.3026196070365D+00
114  1.1300000000000D+00 -2.5030996432637D-01  1.3382962470853D+00
115  1.1400000000000D+00 -2.9073538875444D-01  1.3718817144925D+00
116  1.1500000000000D+00 -3.2991861486061D-01  1.4031284830141D+00
117  1.1600000000000D+00 -3.6772950720177D-01  1.4317975857029D+00
118  1.1700000000000D+00 -4.0404248297946D-01  1.4576602572374D+00
119  1.1800000000000D+00 -4.3873723933273D-01  1.4804995264551D+00
120  1.1900000000000D+00 -4.7169945605668D-01  1.5001117479921D+00
121  1.2000000000000D+00 -5.0282146909184D-01  1.5163080624111D+00
122  1.2100000000000D+00 -5.3200291028635D-01  1.5289157745860D+00
123  1.2200000000000D+00 -5.5915130907719D-01  1.5377796404685D+00
124  1.2300000000000D+00 -5.8418265198781D-01  1.5427630529762D+00
125  1.2400000000000D+00 -6.0702189614079D-01  1.5437491184670D+00
126  1.2500000000000D+00 -6.2760343320912D-01  1.5406416158097D+00
127  1.2600000000000D+00 -6.4587150046395D-01  1.5333658306218D+00
128  1.2700000000000D+00 -6.6178053610333D-01  1.5218692585072D+00
129  1.2800000000000D+00 -6.7529547626403D-01  1.5061221716380D+00
130  1.2900000000000D+00 -6.8639199134910D-01  1.4861180435833D+00
131  1.3000000000000D+00 -6.9505666006274D-01  1.4618738290779D+00
132  1.3100000000000D+00 -7.0128707964111D-01  1.4334300956575D+00
133  1.3200000000000D+00 -7.0509191110194D-01  1.4008510048754D+00
134  1.3300000000000D+00 -7.0649085924247D-01  1.3642241429525D+00
135  1.3400000000000D+00 -7.0551458695924D-01  1.3236602003405D+00
136  1.3500000000000D+00 -7.0220456413040D-01  1.2792925012514D+00
137  1.3600000000000D+00 -6.9661285212161D-01  1.2312763861188D+00
138  1.3700000000000D+00 -6.8880182448253D-01  1.1797884488061D+00
139  1.3800000000000D+00 -6.7884382578756D-01  1.1250256336130D+00
140  1.3900000000000D+00 -6.6682077058465D-01  1.0672041971453D+00
141  1.4000000000000D+00 -6.5282368434291D-01  1.0065585399531D+00
142  1.4100000000000D+00 -6.3695218983744D-01  9.4333991642252D-01
143  1.4200000000000D+00 -6.1931394145184D-01  8.7781502918545D-01
144  1.4300000000000D+00 -6.0002401116404D-01  8.1026451728902D-01
145  1.4400000000000D+00 -5.7920423011935D-01  7.4098134765338D-01
146  1.4500000000000D+00 -5.5698248935605D-01  6.7026911860483D-01
147  1.4600000000000D+00 -5.3349200474553D-01  5.9844028764419D-01
148  1.4700000000000D+00 -5.0887055003885D-01  5.2581433297528D-01
149  1.4800000000000D+00 -4.8325966333456D-01  4.5271586152075D-01
150  1.4900000000000D+00 -4.5680383165515D-01  3.7947267470714D-01
151  1.5000000000000D+00 -4.2964965881565D-01  3.0641380447115D-01
152  1.5100000000000D+00 -4.0194502182852D-01  2.3386753191822D-01
153  1.5200000000000D+00 -3.7383822106615D-01  1.6215940121368D-01
154  1.5300000000000D+00 -3.4547712945828D-01  9.1610241084147D-02
155  1.5400000000000D+00 -3.1700834610810D-01  2.2534206852579D-02
156  1.5500000000000D+00 -2.8857635939838D-01 -4.4763145136767D-02
157  1.5600000000000D+00 -2.6032272482056D-01 -1.0998673826475D-01
158  1.5700000000000D+00 -2.3238526257242D-01 -1.7285379973410D-01
159  1.5800000000000D+00 -2.0489727941966D-01 -2.3309561747926D-01
160  1.5900000000000D+00 -1.7798682014295D-01 -2.9045921737962D-01
161  1.6000000000000D+00 -1.5177595173081D-01 -3.4470895354751D-01
162  1.6100000000000D+00 -1.2638008618731D-01 -3.9562799785687D-01
163  1.6200000000000D+00 -1.0190734326981D-01 -4.4301972598355D-01
164  1.6300000000000D+00 -7.8457959755529D-02 -4.8670898437926D-01
165  1.6400000000000D+00 -5.6123744334949D-02 -5.2654324080603D-01
166  1.6500000000000D+00 -3.4987585518217D-02 -5.6239360099189D-01
167  1.6600000000000D+00 -1.5123009262901D-02 -5.9415569976686D-01
168  1.6700000000000D+00  3.4062056933035D-03 -6.2175044785225D-01
169  1.6800000000000D+00  2.0546360217033D-02 -6.4512464774101D-01
170  1.6900000000000D+00  3.6254106893852D-02 -6.6425145989059D-01
171  1.7000000000000D+00  5.0496669006333D-02 -6.7913073671519D-01
172  1.7100000000000D+00  6.3251998628568D-02 -6.8978920623477D-01
173  1.7200000000000D+00  7.4508882749802D-02 -6.9628052706200D-01
174  1.7300000000000D+00  8.4266989811895D-02 -6.9868519696466D-01
175  1.7400000000000D+00  9.2536867365632D-02 -6.9711034089025D-01
176  1.7500000000000D+00  9.9339892279297D-02 -6.9168938519746D-01
177  1.7600000000000D+00  1.0470812712402D-01 -6.8258148864423D-01
178  1.7700000000000D+00  1.0868429820663D-01 -6.6997131325814D-01
179  1.7800000000000D+00  1.1132128304566D-01 -6.5406749644941D-01
180  1.7900000000000D+00  1.1268211678388D-01 -6.3510249306394D-01
181  1.8000000000000D+00  1.1284034658532D-01 -6.1333343163824D-01
182  1.8100000000000D+00  1.1187858619095D-01 -5.8903805955811D-01
183  1.8200000000000D+00  1.0988685915387D-01 -5.6251008219969D-01
184  1.8300000000000D+00  1.0696098520100D-01 -5.3405482627495D-01
185  1.8400000000000D+00  1.0320041546797D-01 -5.0398353174124D-01
186  1.8500000000000D+00  9.8706648200229D-02 -4.7260922509189D-01
187  1.8600000000000D+00  9.3582965005500D-02 -4.4024624693530D-01
188  1.8700000000000D+00  8.7933777533584D-02 -4.0720875963214D-01
189  1.8800000000000D+00  8.1863501422471D-02 -3.7380789723923D-01
190  1.8900000000000D+00  7.5475862542032D-02 -3.4035014242336D-01
191  1.9000000000000D+00  6.8873030745278D-02 -3.0713521973377D-01
192  1.9100000000000D+00  6.2154824811680D-02 -2.7445418510468D-01
193  1.9200000000000D+00  5.5417931428595D-02 -2.4258754860128D-01
194  1.9300000000000D+00  4.8755150187360D-02 -2.1180346289794D-01
195  1.9400000000000D+00  4.2254670334080D-02 -1.8235599049440D-01
196  1.9500000000000D+00  3.5999383780656D-02 -1.5448346012538D-01
197  1.9600000000000D+00  3.0066236657781D-02 -1.2840691797523D-01
198  1.9700000000000D+00  2.4525639434383D-02 -1.0432872220593D-01
199  1.9800000000000D+00  1.9440921869795D-02 -8.2431247410526D-02
200  1.9900000000000D+00  1.4870338508376D-02 -6.2886321060540D-02
201  2.0000000000000D+00  1.0858183275327D-02 -4.5818314107436D-02
202  2.0100000000000D+00  7.4350919676347D-03 -3.1306525318425D-02
203  2.0200000000000D+00  4.6268213466718D-03 -1.9423487231736D-02
204  2.0300000000000D+00  2.5070785809135D-03 -1.0452602456953D-02
205  2.0400000000000D+00  1.1136130934401D-03 -4.5361488668745D-03
206  2.0500000000000D+00  3.4297090965861D-04 -1.2590390995684D-03
207  2.0600000000000D+00  1.6519937829111D-05  9.8395054574962D-05
208  2.0700000000000D+00 -5.2822765813182D-05  3.1538644076227D-04
209  2.0800000000000D+00 -1.0367295552551D-05  5.5764741407241D-05
210  2.0900000000000D+00  2.0499708063813D-05 -1.0598588415389D-04
211  2.1000000000000D+00  1.5726634324863D-05 -7.9571821183022D-05
212  2.1100000000000D+00 -1.6023019844887D-06  8.8530114004710D-06
213  2.1200000000000D+00 -3.7010701619326D-06  2.0053973251403D-05
214  2.1300000000000D+00 -9.2619232718071D-07  4.9502964565662D-06
215  2.1400000000000D+00 -1.9163863703007D-07  3.5551915751819D-07
216  2.1500000000000D+00 -1.7009595068589D-07  3.1555415975754D-07
217  2.1600000000000D+00  0.0000000000000D+00  0.0000000000000D+00
218  2.1700000000000D+00  0.0000000000000D+00  0.0000000000000D+00
219  2.1800000000000D+00  0.0000000000000D+00  0.0000000000000D+00
220  2.1900000000000D+00  0.0000000000000D+00  0.0000000000000D+00
221  2.2000000000000D+00  0.0000000000000D+00  0.0000000000000D+00
222  2.2100000000000D+00  0.0000000000000D+00  0.0000000000000D+00
223  2.2200000000000D+00  0.0000000000000D+00  0.0000000000000D+00
224  2.2300000000000D+00  0.0000000000000D+00  0.0000000000000D+00
225  2.2400000000000D+00  0.0000000000000D+00  0.0000000000000D+00
226  2.2500000000000D+00  0.0000000000000D+00  0.0000000000000D+00
227  2.2600000000000D+00  0.0000000000000D+00  0.0000000000000D+00
228  2.2700000000000D+00  0.0000000000000D+00  0.0000000000000D+00
229  2.2800000000000D+00  0.0000000000000D+00  0.0000000000000D+00
230  2.2900000000000D+00  0.0000000000000D+00  0.0000000000000D+00
231  2.3000000000000D+00  0.0000000000000D+00  0.0000000000000D+00
232  2.3100000000000D+00  0.0000000000000D+00  0.0000000000000D+00
233  2.3200000000000D+00  0.0000000000000D+00  0.0000000000000D+00
234  2.3300000000000D+00  0.0000000000000D+00  0.0000000000000D+00
235  2.3400000000000D+00  0.0000000000000D+00  0.0000000000000D+00
236  2.3500000000000D+00  0.0000000000000D+00  0.0000000000000D+00
237  2.3600000000000D+00  0.0000000000000D+00  0.0000000000000D+00
238  2.3700000000000D+00  0.0000000000000D+00  0.0000000000000D+00
239  2.3800000000000D+00  0.0000000000000D+00  0.0000000000000D+00
240  2.3900000000000D+00  0.0000000000000D+00  0.0000000000000D+00
241  2.4000000000000D+00  0.0000000000000D+00  0.0000000000000D+00
242  2.4100000000000D+00  0.0000000000000D+00  0.0000000000000D+00
243  2.4200000000000D+00  0.0000000000000D+00  0.0000000000000D+00
244  2.4300000000000D+00  0.0000000000000D+00  0.0000000000000D+00
245  2.4400000000000D+00  0.0000000000000D+00  0.0000000000000D+00
246  2.4500000000000D+00  0.0000000000000D+00  0.0000000000000D+00
247  2.4600000000000D+00  0.0000000000000D+00  0.0000000000000D+00
248  2.4700000000000D+00  0.0000000000000D+00  0.0000000000000D+00
249  2.4800000000000D+00  0.0000000000000D+00  0.0000000000000D+00
250  2.4900000000000D+00  0.0000000000000D+00  0.0000000000000D+00
251  2.5000000000000D+00  0.0000000000000D+00  0.0000000000000D+00
252  2.5100000000000D+00  0.0000000000000D+00  0.0000000000000D+00
253  2.5200000000000D+00  0.0000000000000D+00  0.0000000000000D+00
254  2.5300000000000D+00  0.0000000000000D+00  0.0000000000000D+00
255  2.5400000000000D+00  0.0000000000000D+00  0.0000000000000D+00
256  2.5500000000000D+00  0.0000000000000D+00  0.0000000000000D+00
257  2.5600000000000D+00  0.0000000000000D+00  0.0000000000000D+00
258  2.5700000000000D+00  0.0000000000000D+00  0.0000000000000D+00
259  2.5800000000000D+00  0.0000000000000D+00  0.0000000000000D+00
260  2.5900000000000D+00  0.0000000000000D+00  0.0000000000000D+00
261  2.6000000000000D+00  0.0000000000000D+00  0.0000000000000D+00
262  2.6100000000000D+00  0.0000000000000D+00  0.0000000000000D+00
263  2.6200000000000D+00  0.0000000000000D+00  0.0000000000000D+00
264  2.6300000000000D+00  0.0000000000000D+00  0.0000000000000D+00
265  2.6400000000000D+00  0.0000000000000D+00  0.0000000000000D+00
266  2.6500000000000D+00  0.0000000000000D+00  0.0000000000000D+00
267  2.6600000000000D+00  0.0000000000000D+00  0.0000000000000D+00
268  2.6700000000000D+00  0.0000000000000D+00  0.0000000000000D+00
269  2.6800000000000D+00  0.0000000000000D+00  0.0000000000000D+00
270  2.6900000000000D+00  0.0000000000000D+00  0.0000000000000D+00
271  2.7000000000000D+00  0.0000000000000D+00  0.0000000000000D+00
272  2.7100000000000D+00  0.0000000000000D+00  0.0000000000000D+00
273  2.7200000000000D+00  0.0000000000000D+00  0.0000000000000D+00
274  2.7300000000000D+00  0.0000000000000D+00  0.0000000000000D+00
275  2.7400000000000D+00  0.0000000000000D+00  0.0000000000000D+00
276  2.7500000000000D+00  0.0000000000000D+00  0.0000000000000D+00
277  2.7600000000000D+00  0.0000000000000D+00  0.0000000000000D+00
278  2.7700000000000D+00  0.0000000000000D+00  0.0000000000000D+00
279  2.7800000000000D+00  0.0000000000000D+00  0.0000000000000D+00
280  2.7900000000000D+00  0.0000000000000D+00  0.0000000000000D+00
281  2.8000000000000D+00  0.0000000000000D+00  0.0000000000000D+00
282  2.8100000000000D+00  0.0000000000000D+00  0.0000000000000D+00
283  2.8200000000000D+00  0.0000000000000D+00  0.0000000000000D+00
284  2.8300000000000D+00  0.0000000000000D+00  0.0000000000000D+00
285  2.8400000000000D+00  0.0000000000000D+00  0.0000000000000D+00
286  2.8500000000000D+00  0.0000000000000D+00  0.0000000000000D+00
287  2.8600000000000D+00  0.0000000000000D+00  0.0000000000000D+00
288  2.8700000000000D+00  0.0000000000000D+00  0.0000000000000D+00
289  2.8800000000000D+00  0.0000000000000D+00  0.0000000000000D+00
290  2.8900000000000D+00  0.0000000000000D+00  0.0000000000000D+00
291  2.9000000000000D+00  0.0000000000000D+00  0.0000000000000D+00
292  2.9100000000000D+00  0.0000000000000D+00  0.0000000000000D+00
293  2.9200000000000D+00  0.0000000000000D+00  0.0000000000000D+00
294  2.9300000000000D+00  0.0000000000000D+00  0.0000000000000D+00
295  2.9400000000000D+00  0.0000000000000D+00  0.0000000000000D+00
296  2.9500000000000D+00  0.0000000000000D+00  0.0000000000000D+00
297  2.9600000000000D+00  0.0000000000000D+00  0.0000000000000D+00
298  2.9700000000000D+00  0.0000000000000D+00  0.0000000000000D+00
299  2.9800000000000D+00  0.0000000000000D+00  0.0000000000000D+00
300  2.9900000000000D+00  0.0000000000000D+00  0.0000000000000D+00
301  3.0000000000000D+00  0.0000000000000D+00  0.0000000000000D+00
302  3.0100000000000D+00  0.0000000000000D+00  0.0000000000000D+00
303  3.0200000000000D+00  0.0000000000000D+00  0.0000000000000D+00
304  3.0300000000000D+00  0.0000000000000D+00  0.0000000000000D+00
305  3.0400000000000D+00  0.0000000000000D+00  0.0000000000000D+00
306  3.0500000000000D+00  0.0000000000000D+00  0.0000000000000D+00
307  3.0600000000000D+00  0.0000000000000D+00  0.0000000000000D+00
308  3.0700000000000D+00  0.0000000000000D+00  0.0000000000000D+00
309  3.0800000000000D+00  0.0000000000000D+00  0.0000000000000D+00
310  3.0900000000000D+00  0.0000000000000D+00  0.0000000000000D+00
311  3.1000000000000D+00  0.0000000000000D+00  0.0000000000000D+00
312  3.1100000000000D+00  0.0000000000000D+00  0.0000000000000D+00
313  3.1200000000000D+00  0.0000000000000D+00  0.0000000000000D+00
314  3.1300000000000D+00  0.0000000000000D+00  0.0000000000000D+00
315  3.1400000000000D+00  0.0000000000000D+00  0.0000000000000D+00
316  3.1500000000000D+00  0.0000000000000D+00  0.0000000000000D+00
317  3.1600000000000D+00  0.0000000000000D+00  0.0000000000000D+00
318  3.1700000000000D+00  0.0000000000000D+00  0.0000000000000D+00
319  3.1800000000000D+00  0.0000000000000D+00  0.0000000000000D+00
320  3.1900000000000D+00  0.0000000000000D+00  0.0000000000000D+00
321  3.2000000000000D+00  0.0000000000000D+00  0.0000000000000D+00
322  3.2100000000000D+00  0.0000000000000D+00  0.0000000000000D+00
323  3.2200000000000D+00  0.0000000000000D+00  0.0000000000000D+00
324  3.2300000000000D+00  0.0000000000000D+00  0.0000000000000D+00
325  3.2400000000000D+00  0.0000000000000D+00  0.0000000000000D+00
326  3.2500000000000D+00  0.0000000000000D+00  0.0000000000000D+00
327  3.2600000000000D+00  0.0000000000000D+00  0.0000000000000D+00
328  3.2700000000000D+00  0.0000000000000D+00  0.0000000000000D+00
329  3.2800000000000D+00  0.0000000000000D+00  0.0000000000000D+00
330  3.2900000000000D+00  0.0000000000000D+00  0.0000000000000D+00
331  3.3000000000000D+00  0.0000000000000D+00  0.0000000000000D+00
332  3.3100000000000D+00  0.0000000000000D+00  0.0000000000000D+00
333  3.3200000000000D+00  0.0000000000000D+00  0.0000000000000D+00
334  3.3300000000000D+00  0.0000000000000D+00  0.0000000000000D+00
335  3.3400000000000D+00  0.0000000000000D+00  0.0000000000000D+00
336  3.3500000000000D+00  0.0000000000000D+00  0.0000000000000D+00
337  3.3600000000000D+00  0.0000000000000D+00  0.0000000000000D+00
338  3.3700000000000D+00  0.0000000000000D+00  0.0000000000000D+00
339  3.3800000000000D+00  0.0000000000000D+00  0.0000000000000D+00
340  3.3900000000000D+00  0.0000000000000D+00  0.0000000000000D+00
341  3.4000000000000D+00  0.0000000000000D+00  0.0000000000000D+00
342  3.4100000000000D+00  0.0000000000000D+00  0.0000000000000D+00
343  3.4200000000000D+00  0.0000000000000D+00  0.0000000000000D+00
344  3.4300000000000D+00  0.0000000000000D+00  0.0000000000000D+00
345  3.4400000000000D+00  0.0000000000000D+00  0.0000000000000D+00
346  3.4500000000000D+00  0.0000000000000D+00  0.0000000000000D+00
347  3.4600000000000D+00  0.0000000000000D+00  0.0000000000000D+00
348  3.4700000000000D+00  0.0000000000000D+00  0.0000000000000D+00
349  3.4800000000000D+00  0.0000000000000D+00  0.0000000000000D+00
350  3.4900000000000D+00  0.0000000000000D+00  0.0000000000000D+00
351  3.5000000000000D+00  0.0000000000000D+00  0.0000000000000D+00
352  3.5100000000000D+00  0.0000000000000D+00  0.0000000000000D+00
353  3.5200000000000D+00  0.0000000000000D+00  0.0000000000000D+00
354  3.5300000000000D+00  0.0000000000000D+00  0.0000000000000D+00
355  3.5400000000000D+00  0.0000000000000D+00  0.0000000000000D+00
356  3.5500000000000D+00  0.0000000000000D+00  0.0000000000000D+00
357  3.5600000000000D+00  0.0000000000000D+00  0.0000000000000D+00
358  3.5700000000000D+00  0.0000000000000D+00  0.0000000000000D+00
359  3.5800000000000D+00  0.0000000000000D+00  0.0000000000000D+00
360  3.5900000000000D+00  0.0000000000000D+00  0.0000000000000D+00
361  3.6000000000000D+00  0.0000000000000D+00  0.0000000000000D+00
362  3.6100000000000D+00  0.0000000000000D+00  0.0000000000000D+00
363  3.6200000000000D+00  0.0000000000000D+00  0.0000000000000D+00
364  3.6300000000000D+00  0.0000000000000D+00  0.0000000000000D+00
365  3.6400000000000D+00  0.0000000000000D+00  0.0000000000000D+00
366  3.6500000000000D+00  0.0000000000000D+00  0.0000000000000D+00
367  3.6600000000000D+00  0.0000000000000D+00  0.0000000000000D+00
368  3.6700000000000D+00  0.0000000000000D+00  0.0000000000000D+00
369  3.6800000000000D+00  0.0000000000000D+00  0.0000000000000D+00
370  3.6900000000000D+00  0.0000000000000D+00  0.0000000000000D+00
371  3.7000000000000D+00  0.0000000000000D+00  0.0000000000000D+00
372  3.7100000000000D+00  0.0000000000000D+00  0.0000000000000D+00
373  3.7200000000000D+00  0.0000000000000D+00  0.0000000000000D+00
374  3.7300000000000D+00  0.0000000000000D+00  0.0000000000000D+00
375  3.7400000000000D+00  0.0000000000000D+00  0.0000000000000D+00
376  3.7500000000000D+00  0.0000000000000D+00  0.0000000000000D+00
377  3.7600000000000D+00  0.0000000000000D+00  0.0000000000000D+00
378  3.7700000000000D+00  0.0000000000000D+00  0.0000000000000D+00
379  3.7800000000000D+00  0.0000000000000D+00  0.0000000000000D+00
380  3.7900000000000D+00  0.0000000000000D+00  0.0000000000000D+00
381  3.8000000000000D+00  0.0000000000000D+00  0.0000000000000D+00
382  3.8100000000000D+00  0.0000000000000D+00  0.0000000000000D+00
383  3.8200000000000D+00  0.0000000000000D+00  0.0000000000000D+00
384  3.8300000000000D+00  0.0000000000000D+00  0.0000000000000D+00
385  3.8400000000000D+00  0.0000000000000D+00  0.0000000000000D+00
386  3.8500000000000D+00  0.0000000000000D+00  0.0000000000000D+00
387  3.8600000000000D+00  0.0000000000000D+00  0.0000000000000D+00
388  3.8700000000000D+00  0.0000000000000D+00  0.0000000000000D+00
389  3.8800000000000D+00  0.0000000000000D+00  0.0000000000000D+00
390  3.8900000000000D+00  0.0000000000000D+00  0.0000000000000D+00
391  3.9000000000000D+00  0.0000000000000D+00  0.0000000000000D+00
392  3.9100000000000D+00  0.0000000000000D+00  0.0000000000000D+00
393  3.9200000000000D+00  0.0000000000000D+00  0.0000000000000D+00
394  3.9300000000000D+00  0.0000000000000D+00  0.0000000000000D+00
395  3.9400000000000D+00  0.0000000000000D+00  0.0000000000000D+00
396  3.9500000000000D+00  0.0000000000000D+00  0.0000000000000D+00
397  3.9600000000000D+00  0.0000000000000D+00  0.0000000000000D+00
398  3.9700000000000D+00  0.0000000000000D+00  0.0000000000000D+00
399  3.9800000000000D+00  0.0000000000000D+00  0.0000000000000D+00
400  3.9900000000000D+00  0.0000000000000D+00  0.0000000000000D+00
401  4.0000000000000D+00  0.0000000000000D+00  0.0000000000000D+00
402  4.0100000000000D+00  0.0000000000000D+00  0.0000000000000D+00
403  4.0200000000000D+00  0.0000000000000D+00  0.0000000000000D+00
404  4.0300000000000D+00  0.0000000000000D+00  0.0000000000000D+00
405  4.0400000000000D+00  0.0000000000000D+00  0.0000000000000D+00
406  4.0500000000000D+00  0.0000000000000D+00  0.0000000000000D+00
407  4.0600000000000D+00  0.0000000000000D+00  0.0000000000000D+00
408  4.0700000000000D+00  0.0000000000000D+00  0.0000000000000D+00
409  4.0800000000000D+00  0.0000000000000D+00  0.0000000000000D+00
410  4.0900000000000D+00  0.0000000000000D+00  0.0000000000000D+00
411  4.1000000000000D+00  0.0000000000000D+00  0.0000000000000D+00
412  4.1100000000000D+00  0.0000000000000D+00  0.0000000000000D+00
413  4.1200000000000D+00  0.0000000000000D+00  0.0000000000000D+00
414  4.1300000000000D+00  0.0000000000000D+00  0.0000000000000D+00
415  4.1400000000000D+00  0.0000000000000D+00  0.0000000000000D+00
416  4.1500000000000D+00  0.0000000000000D+00  0.0000000000000D+00
417  4.1600000000000D+00  0.0000000000000D+00  0.0000000000000D+00
418  4.1700000000000D+00  0.0000000000000D+00  0.0000000000000D+00
419  4.1800000000000D+00  0.0000000000000D+00  0.0000000000000D+00
420  4.1900000000000D+00  0.0000000000000D+00  0.0000000000000D+00
421  4.2000000000000D+00  0.0000000000000D+00  0.0000000000000D+00
422  4.2100000000000D+00  0.0000000000000D+00  0.0000000000000D+00
423  4.2200000000000D+00  0.0000000000000D+00  0.0000000000000D+00
424  4.2300000000000D+00  0.0000000000000D+00  0.0000000000000D+00
425  4.2400000000000D+00  0.0000000000000D+00  0.0000000000000D+00
426  4.2500000000000D+00  0.0000000000000D+00  0.0000000000000D+00
427  4.2600000000000D+00  0.0000000000000D+00  0.0000000000000D+00
428  4.2700000000000D+00  0.0000000000000D+00  0.0000000000000D+00
429  4.2800000000000D+00  0.0000000000000D+00  0.0000000000000D+00
430  4.2900000000000D+00  0.0000000000000D+00  0.0000000000000D+00
431  4.3000000000000D+00  0.0000000000000D+00  0.0000000000000D+00
432  4.3100000000000D+00  0.0000000000000D+00  0.0000000000000D+00
433  4.3200000000000D+00  0.0000000000000D+00  0.0000000000000D+00
434  4.3300000000000D+00  0.0000000000000D+00  0.0000000000000D+00
435  4.3400000000000D+00  0.0000000000000D+00  0.0000000000000D+00
436  4.3500000000000D+00  0.0000000000000D+00  0.0000000000000D+00
437  4.3600000000000D+00  0.0000000000000D+00  0.0000000000000D+00
438  4.3700000000000D+00  0.0000000000000D+00  0.0000000000000D+00
439  4.3800000000000D+00  0.0000000000000D+00  0.0000000000000D+00
440  4.3900000000000D+00  0.0000000000000D+00  0.0000000000000D+00
441  4.4000000000000D+00  0.0000000000000D+00  0.0000000000000D+00
442  4.4100000000000D+00  0.0000000000000D+00  0.0000000000000D+00
443  4.4200000000000D+00  0.0000000000000D+00  0.0000000000000D+00