Co    ONCVPSP  r_core=  1.36  1.51  1.80
27.0000     17.0000      140907    zatom,zion,pspd
8    11     2     4   601     0    pspcod,pspxc,lmax,lloc,mmax,r2well
6.00000000  0.07000000  0.00000000    rchrg fchrg qchrg
2     2     2     0     0    nproj
0                 extension_switch
0                         4.5928413532216D+00 -3.3116899631060D-01
1  0.0000000000000D+00 -0.0000000000000D+00  0.0000000000000D+00
2  1.0000000000000D-02 -9.5500602128887D-02  3.1012251684260D-02
3  2.0000000000000D-02 -1.9061187048694D-01  6.1641317282000D-02
4  3.0000000000000D-02 -2.8494762643595D-01  9.1511350129263D-02
5  4.0000000000000D-02 -3.7812795955408D-01  1.2026105330243D-01
6  5.0000000000000D-02 -4.6978225728401D-01  1.4755063390418D-01
7  6.0000000000000D-02 -5.5955211107216D-01  1.7306837871238D-01
8  7.0000000000000D-02 -6.4709406086858D-01  1.9653673497648D-01
9  8.0000000000000D-02 -7.3208214240369D-01  2.1771778851517D-01
10  9.0000000000000D-02 -8.1421020473778D-01  2.3641804141496D-01
11  1.0000000000000D-01 -8.9319396924274D-01  2.5249240359697D-01
12  1.1000000000000D-01 -9.6877280513803D-01  2.6584732564178D-01
13  1.2000000000000D-01 -1.0407112012462D+00  2.7644301503916D-01
14  1.3000000000000D-01 -1.1087999182680D+00  2.8429469340860D-01
15  1.4000000000000D-01 -1.1728568111042D+00  2.8947286887122D-01
16  1.5000000000000D-01 -1.2327273154029D+00  2.9210261400024D-01
17  1.6000000000000D-01 -1.2882845984358D+00  2.9236185740151D-01
18  1.7000000000000D-01 -1.3394293787846D+00  2.9047871381247D-01
19  1.8000000000000D-01 -1.3860894253238D+00  2.8672789385573D-01
20  1.9000000000000D-01 -1.4282187498592D+00  2.8142624919057D-01
21  2.0000000000000D-01 -1.4657965135037D+00  2.7492752944005D-01
22  2.1000000000000D-01 -1.4988256701955D+00  2.6761643110623D-01
23  2.2000000000000D-01 -1.5273313759341D+00  2.5990204402320D-01
24  2.3000000000000D-01 -1.5513591934340D+00  2.5221079570277D-01
25  2.4000000000000D-01 -1.5709731284573D+00  2.4497902316865D-01
26  2.5000000000000D-01 -1.5862535339851D+00  2.3864529451871D-01
27  2.6000000000000D-01 -1.5972949147912D+00  2.3364258992952D-01
28  2.7000000000000D-01 -1.6042036822397D+00  2.3039051788061D-01
29  2.8000000000000D-01 -1.6070958924081D+00  2.2928767306922D-01
30  2.9000000000000D-01 -1.6060950042208D+00  2.3070425984351D-01
31  3.0000000000000D-01 -1.6013297009904D+00  2.3497512901487D-01
32  3.1000000000000D-01 -1.5929318104871D+00  2.4239334382756D-01
33  3.2000000000000D-01 -1.5810343604305D+00  2.5320439714613D-01
34  3.3000000000000D-01 -1.5657698160518D+00  2.6760122954663D-01
35  3.4000000000000D-01 -1.5472684417984D+00  2.8571986509791D-01
36  3.5000000000000D-01 -1.5256570135819D+00  3.0763638851665D-01
37  3.6000000000000D-01 -1.5010576025254D+00  3.3336438000060D-01
38  3.7000000000000D-01 -1.4735867830548D+00  3.6285390080465D-01
39  3.8000000000000D-01 -1.4433549760600D+00  3.9599114683268D-01
40  3.9000000000000D-01 -1.4104661216800D+00  4.3259935656212D-01
41  4.0000000000000D-01 -1.3750176362822D+00  4.7244080958404D-01
42  4.1000000000000D-01 -1.3371006100770D+00  5.1521979957314D-01
43  4.2000000000000D-01 -1.2968002741070D+00  5.6058664366996D-01
44  4.3000000000000D-01 -1.2541967127384D+00  6.0814264350773D-01
45  4.4000000000000D-01 -1.2093658021242D+00  6.5744592246255D-01
46  4.5000000000000D-01 -1.1623803511314D+00  7.0801804982472D-01
47  4.6000000000000D-01 -1.1133114173778D+00  7.5935134869616D-01
48  4.7000000000000D-01 -1.0622297671025D+00  8.1091676966514D-01
49  4.8000000000000D-01 -1.0092074408618D+00  8.6217217479359D-01
50  4.9000000000000D-01 -9.5431937104509D-01  9.1257079111514D-01
51  5.0000000000000D-01 -8.9764512438548D-01  9.6157048437475D-01
52  5.1000000000000D-01 -8.3927052711441D-01  1.0086421446693D+00
53  5.2000000000000D-01 -7.7928922144163D-01  1.0532779350222D+00
54  5.3000000000000D-01 -7.1780440137976D-01  1.0950009318808D+00
55  5.4000000000000D-01 -6.5493005424241D-01  1.1333718911285D+00
56  5.5000000000000D-01 -5.9079226300425D-01  1.1679969288294D+00
57  5.6000000000000D-01 -5.2553041966843D-01  1.1985351497211D+00
58  5.7000000000000D-01 -4.5929779302913D-01  1.2247027641815D+00
59  5.8000000000000D-01 -3.9226248925953D-01  1.2462804862093D+00
60  5.9000000000000D-01 -3.2460741136920D-01  1.2631151207711D+00
61  6.0000000000000D-01 -2.5653056958352D-01  1.2751244388818D+00
62  6.1000000000000D-01 -1.8824468867969D-01  1.2822982060341D+00
63  6.2000000000000D-01 -1.1997651787821D-01  1.2846978721628D+00
64  6.3000000000000D-01 -5.1966195393279D-02  1.2824585711609D+00
65  6.4000000000000D-01  1.5534256128996D-02  1.2757846445101D+00
66  6.5000000000000D-01  8.2262308234101D-02  1.2649478380880D+00
67  6.6000000000000D-01  1.4794678407400D-01  1.2502840386937D+00
68  6.7000000000000D-01  2.1230997705014D-01  1.2321867273197D+00
69  6.8000000000000D-01  2.7506985283052D-01  1.2111013306745D+00
70  6.9000000000000D-01  3.3594281907367D-01  1.1875185458879D+00
71  7.0000000000000D-01  3.9464639931755D-01  1.1619659468988D+00
72  7.1000000000000D-01  4.5090203485351D-01  1.1349995259095D+00
73  7.2000000000000D-01  5.0443809635630D-01  1.1071946695446D+00
74  7.3000000000000D-01  5.5499271482967D-01  1.0791370709337D+00
75  7.4000000000000D-01  6.0231738925384D-01  1.0514119795294D+00
76  7.5000000000000D-01  6.4617964558747D-01  1.0245948698062D+00
77  7.6000000000000D-01  6.8636592423801D-01  9.9924182693648D-01
78  7.7000000000000D-01  7.2268444389090D-01  9.7587990795147D-01
79  7.8000000000000D-01  7.5496782288546D-01  9.5499800856642D-01
80  7.9000000000000D-01  7.8307547648519D-01  9.3703828126970D-01
81  8.0000000000000D-01  8.0689574755139D-01  9.2238825323700D-01
82  8.1000000000000D-01  8.2634773174574D-01  9.1137378165757D-01
83  8.2000000000000D-01  8.4138276267204D-01  9.0425297077055D-01
84  8.3000000000000D-01  8.5198552723359D-01  9.0121115959293D-01
85  8.4000000000000D-01  8.5817478683844D-01  9.0235707228191D-01
86  8.5000000000000D-01  8.6000368584190D-01  9.0772020461443D-01
87  8.6000000000000D-01  8.5755963468940D-01  9.1724950047227D-01
88  8.7000000000000D-01  8.5096376153817D-01  9.3081335175054D-01
89  8.8000000000000D-01  8.4036993262666D-01  9.4820093399101D-01
90  8.9000000000000D-01  8.2596334826718D-01  9.6912486848031D-01
91  9.0000000000000D-01  8.0795872800573D-01  9.9322517973442D-01
92  9.1000000000000D-01  7.8659810516512D-01  1.0200744954083D+00
93  9.2000000000000D-01  7.6214825759248D-01  1.0491844139525D+00
94  9.3000000000000D-01  7.3489780787652D-01  1.0800129440906D+00
95  9.4000000000000D-01  7.0515403245380D-01  1.1119728998187D+00
96  9.5000000000000D-01  6.7323942471106D-01  1.1444411157019D+00
97  9.6000000000000D-01  6.3948806218359D-01  1.1767683304720D+00
98  9.7000000000000D-01  6.0424207290963D-01  1.2082890563598D+00
99  9.8000000000000D-01  5.6784765978068D-01  1.2383323694030D+00
100  9.9000000000000D-01  5.3065036710865D-01  1.2662348801270D+00
101  1.0000000000000D+00  4.9299200195608D-01  1.2913499511052D+00
102  1.0100000000000D+00  4.5520656964941D-01  1.3130589222766D+00
103  1.0200000000000D+00  4.1761659930229D-01  1.3307814792772D+00
104  1.0300000000000D+00  3.8052993866582D-01  1.3439847644596D+00
105  1.0400000000000D+00  3.4423780894877D-01  1.3521891262616D+00
106  1.0500000000000D+00  3.0900625638158D-01  1.3549908120828D+00
107  1.0600000000000D+00  2.7507887312082D-01  1.3520556321203D+00
108  1.0700000000000D+00  2.4267299338296D-01  1.3431290183264D+00
109  1.0800000000000D+00  2.1197864391344D-01  1.3280388904200D+00
110  1.0900000000000D+00  1.8315735740060D-01  1.3066987801113D+00
111  1.1000000000000D+00  1.5633457315630D-01  1.2791271644407D+00
112  1.1100000000000D+00  1.3160700369542D-01  1.2454278721051D+00
113  1.1200000000000D+00  1.0904017136011D-01  1.2057957503003D+00
114  1.1300000000000D+00  8.8672131900720D-02  1.1605068346126D+00
115  1.1400000000000D+00  7.0502077713550D-02  1.1099450626086D+00
116  1.1500000000000D+00  5.4504207370867D-02  1.0545659729348D+00
117  1.1600000000000D+00  4.0626339387362D-02  9.9489890015051D-01
118  1.1700000000000D+00  2.8791048298352D-02  9.3154311640093D-01
119  1.1800000000000D+00  1.8893394788986D-02  8.6516779307315D-01
120  1.1900000000000D+00  1.0811436603408D-02  7.9648612681772D-01
121  1.2000000000000D+00  4.4065501595888D-03  7.2625433730533D-01
122  1.2100000000000D+00 -4.7696040335958D-04  6.5526387994908D-01
123  1.2200000000000D+00 -4.0037564102138D-03  5.8432068252677D-01
124  1.2300000000000D+00 -6.3460502923526D-03  5.1424374368027D-01
125  1.2400000000000D+00 -7.6812175061498D-03  4.4585128174147D-01
126  1.2500000000000D+00 -8.1842153774130D-03  3.7993463171598D-01
127  1.2600000000000D+00 -8.0291017560212D-03  3.1727141886073D-01
128  1.2700000000000D+00 -7.3847858233079D-03  2.5860575748699D-01
129  1.2800000000000D+00 -6.4047537203240D-03  2.0461067480147D-01
130  1.2900000000000D+00 -5.2361235379671D-03  1.5592853727430D-01
131  1.3000000000000D+00 -4.0100692497604D-03  1.1313175273114D-01
132  1.3100000000000D+00 -2.8334232905988D-03  7.6693072987955D-02
133  1.3200000000000D+00 -1.8041859889900D-03  4.7046904106381D-02
134  1.3300000000000D+00 -9.8954253734517D-04  2.4502598080925D-02
135  1.3400000000000D+00 -4.3021482538398D-04  9.3081345315514D-03
136  1.3500000000000D+00 -1.7175715680440D-04  2.0485232737686D-03
137  1.3600000000000D+00 -5.6196386987661D-05 -3.4257870071366D-04
138  1.3700000000000D+00 -3.6076932937255D-06 -1.5239098796656D-04
139  1.3800000000000D+00  6.7670544283262D-06 -2.0187214060385D-05
140  1.3900000000000D+00  0.0000000000000D+00  0.0000000000000D+00
141  1.4000000000000D+00  0.0000000000000D+00  0.0000000000000D+00
142  1.4100000000000D+00  0.0000000000000D+00  0.0000000000000D+00
143  1.4200000000000D+00  0.0000000000000D+00  0.0000000000000D+00
144  1.4300000000000D+00  0.0000000000000D+00  0.0000000000000D+00
145  1.4400000000000D+00  0.0000000000000D+00  0.0000000000000D+00
146  1.4500000000000D+00  0.0000000000000D+00  0.0000000000000D+00
147  1.4600000000000D+00  0.0000000000000D+00  0.0000000000000D+00
148  1.4700000000000D+00  0.0000000000000D+00  0.0000000000000D+00
149  1.4800000000000D+00  0.0000000000000D+00  0.0000000000000D+00
150  1.4900000000000D+00  0.0000000000000D+00  0.0000000000000D+00
151  1.5000000000000D+00  0.0000000000000D+00  0.0000000000000D+00
152  1.5100000000000D+00  0.0000000000000D+00  0.0000000000000D+00
153  1.5200000000000D+00  0.0000000000000D+00  0.0000000000000D+00
154  1.5300000000000D+00  0.0000000000000D+00  0.0000000000000D+00
155  1.5400000000000D+00  0.0000000000000D+00  0.0000000000000D+00
156  1.5500000000000D+00  0.0000000000000D+00  0.0000000000000D+00
157  1.5600000000000D+00  0.0000000000000D+00  0.0000000000000D+00
158  1.5700000000000D+00  0.0000000000000D+00  0.0000000000000D+00
159  1.5800000000000D+00  0.0000000000000D+00  0.0000000000000D+00
160  1.5900000000000D+00  0.0000000000000D+00  0.0000000000000D+00
161  1.6000000000000D+00  0.0000000000000D+00  0.0000000000000D+00
162  1.6100000000000D+00  0.0000000000000D+00  0.0000000000000D+00
163  1.6200000000000D+00  0.0000000000000D+00  0.0000000000000D+00
164  1.6300000000000D+00  0.0000000000000D+00  0.0000000000000D+00
165  1.6400000000000D+00  0.0000000000000D+00  0.0000000000000D+00
166  1.6500000000000D+00  0.0000000000000D+00  0.0000000000000D+00
167  1.6600000000000D+00  0.0000000000000D+00  0.0000000000000D+00
168  1.6700000000000D+00  0.0000000000000D+00  0.0000000000000D+00
169  1.6800000000000D+00  0.0000000000000D+00  0.0000000000000D+00
170  1.6900000000000D+00  0.0000000000000D+00  0.0000000000000D+00
171  1.7000000000000D+00  0.0000000000000D+00  0.0000000000000D+00
172  1.7100000000000D+00  0.0000000000000D+00  0.0000000000000D+00
173  1.7200000000000D+00  0.0000000000000D+00  0.0000000000000D+00
174  1.7300000000000D+00  0.0000000000000D+00  0.0000000000000D+00
175  1.7400000000000D+00  0.0000000000000D+00  0.0000000000000D+00
176  1.7500000000000D+00  0.0000000000000D+00  0.0000000000000D+00
177  1.7600000000000D+00  0.0000000000000D+00  0.0000000000000D+00
178  1.7700000000000D+00  0.0000000000000D+00  0.0000000000000D+00
179  1.7800000000000D+00  0.0000000000000D+00  0.0000000000000D+00
180  1.7900000000000D+00  0.0000000000000D+00  0.0000000000000D+00
181  1.8000000000000D+00  0.0000000000000D+00  0.0000000000000D+00
182  1.8100000000000D+00  0.0000000000000D+00  0.0000000000000D+00
183  1.8200000000000D+00  0.0000000000000D+00  0.0000000000000D+00
184  1.8300000000000D+00  0.0000000000000D+00  0.0000000000000D+00
185  1.8400000000000D+00  0.0000000000000D+00  0.0000000000000D+00
186  1.8500000000000D+00  0.0000000000000D+00  0.0000000000000D+00
187  1.8600000000000D+00  0.0000000000000D+00  0.0000000000000D+00
188  1.8700000000000D+00  0.0000000000000D+00  0.0000000000000D+00
189  1.8800000000000D+00  0.0000000000000D+00  0.0000000000000D+00
190  1.8900000000000D+00  0.0000000000000D+00  0.0000000000000D+00
191  1.9000000000000D+00  0.0000000000000D+00  0.0000000000000D+00
192  1.9100000000000D+00  0.0000000000000D+00  0.0000000000000D+00
193  1.9200000000000D+00  0.0000000000000D+00  0.0000000000000D+00
194  1.9300000000000D+00  0.0000000000000D+00  0.0000000000000D+00
195  1.9400000000000D+00  0.0000000000000D+00  0.0000000000000D+00
196  1.9500000000000D+00  0.0000000000000D+00  0.0000000000000D+00
197  1.9600000000000D+00  0.0000000000000D+00  0.0000000000000D+00
198  1.9700000000000D+00  0.0000000000000D+00  0.0000000000000D+00
199  1.9800000000000D+00  0.0000000000000D+00  0.0000000000000D+00
200  1.9900000000000D+00  0.0000000000000D+00  0.0000000000000D+00
201  2.0000000000000D+00  0.0000000000000D+00  0.0000000000000D+00
202  2.0100000000000D+00  0.0000000000000D+00  0.0000000000000D+00
203  2.0200000000000D+00  0.0000000000000D+00  0.0000000000000D+00
204  2.0300000000000D+00  0.0000000000000D+00  0.0000000000000D+00
205  2.0400000000000D+00  0.0000000000000D+00  0.0000000000000D+00
206  2.0500000000000D+00  0.0000000000000D+00  0.0000000000000D+00
207  2.0600000000000D+00  0.0000000000000D+00  0.0000000000000D+00
208  2.0700000000000D+00  0.0000000000000D+00  0.0000000000000D+00
209  2.0800000000000D+00  0.0000000000000D+00  0.0000000000000D+00
210  2.0900000000000D+00  0.0000000000000D+00  0.0000000000000D+00
211  2.1000000000000D+00  0.0000000000000D+00  0.0000000000000D+00
212  2.1100000000000D+00  0.0000000000000D+00  0.0000000000000D+00
213  2.1200000000000D+00  0.0000000000000D+00  0.0000000000000D+00
214  2.1300000000000D+00  0.0000000000000D+00  0.0000000000000D+00
215  2.1400000000000D+00  0.0000000000000D+00  0.0000000000000D+00
216  2.1500000000000D+00  0.0000000000000D+00  0.0000000000000D+00
217  2.1600000000000D+00  0.0000000000000D+00  0.0000000000000D+00
218  2.1700000000000D+00  0.0000000000000D+00  0.0000000000000D+00
219  2.1800000000000D+00  0.0000000000000D+00  0.0000000000000D+00
220  2.1900000000000D+00  0.0000000000000D+00  0.0000000000000D+00
221  2.2000000000000D+00  0.0000000000000D+00  0.0000000000000D+00
222  2.2100000000000D+00  0.0000000000000D+00  0.0000000000000D+00
223  2.2200000000000D+00  0.0000000000000D+00  0.0000000000000D+00
224  2.2300000000000D+00  0.0000000000000D+00  0.0000000000000D+00
225  2.2400000000000D+00  0.0000000000000D+00  0.0000000000000D+00
226  2.2500000000000D+00  0.0000000000000D+00  0.0000000000000D+00
227  2.2600000000000D+00  0.0000000000000D+00  0.0000000000000D+00
228  2.2700000000000D+00  0.0000000000000D+00  0.0000000000000D+00
229  2.2800000000000D+00  0.0000000000000D+00  0.0000000000000D+00
230  2.2900000000000D+00  0.0000000000000D+00  0.0000000000000D+00
231  2.3000000000000D+00  0.0000000000000D+00  0.0000000000000D+00
232  2.3100000000000D+00  0.0000000000000D+00  0.0000000000000D+00
233  2.3200000000000D+00  0.0000000000000D+00  0.0000000000000D+00
234  2.3300000000000D+00  0.0000000000000D+00  0.0000000000000D+00
235  2.3400000000000D+00  0.0000000000000D+00  0.0000000000000D+00
236  2.3500000000000D+00  0.0000000000000D+00  0.0000000000000D+00
237  2.3600000000000D+00  0.0000000000000D+00  0.0000000000000D+00
238  2.3700000000000D+00  0.0000000000000D+00  0.0000000000000D+00
239  2.3800000000000D+00  0.0000000000000D+00  0.0000000000000D+00
240  2.3900000000000D+00  0.0000000000000D+00  0.0000000000000D+00
241  2.4000000000000D+00  0.0000000000000D+00  0.0000000000000D+00
242  2.4100000000000D+00  0.0000000000000D+00  0.0000000000000D+00
243  2.4200000000000D+00  0.0000000000000D+00  0.0000000000000D+00
244  2.4300000000000D+00  0.0000000000000D+00  0.0000000000000D+00
245  2.4400000000000D+00  0.0000000000000D+00  0.0000000000000D+00
246  2.4500000000000D+00  0.0000000000000D+00  0.0000000000000D+00
247  2.4600000000000D+00  0.0000000000000D+00  0.0000000000000D+00
248  2.4700000000000D+00  0.0000000000000D+00  0.0000000000000D+00
249  2.4800000000000D+00  0.0000000000000D+00  0.0000000000000D+00
250  2.4900000000000D+00  0.0000000000000D+00  0.0000000000000D+00
251  2.5000000000000D+00  0.0000000000000D+00  0.0000000000000D+00
252  2.5100000000000D+00  0.0000000000000D+00  0.0000000000000D+00
253  2.5200000000000D+00  0.0000000000000D+00  0.0000000000000D+00
254  2.5300000000000D+00  0.0000000000000D+00  0.0000000000000D+00
255  2.5400000000000D+00  0.0000000000000D+00  0.0000000000000D+00
256  2.5500000000000D+00  0.0000000000000D+00  0.0000000000000D+00
257  2.5600000000000D+00  0.0000000000000D+00  0.0000000000000D+00
258  2.5700000000000D+00  0.0000000000000D+00  0.0000000000000D+00
259  2.5800000000000D+00  0.0000000000000D+00  0.0000000000000D+00
260  2.5900000000000D+00  0.0000000000000D+00  0.0000000000000D+00
261  2.6000000000000D+00  0.0000000000000D+00  0.0000000000000D+00
262  2.6100000000000D+00  0.0000000000000D+00  0.0000000000000D+00
263  2.6200000000000D+00  0.0000000000000D+00  0.0000000000000D+00
264  2.6300000000000D+00  0.0000000000000D+00  0.0000000000000D+00
265  2.6400000000000D+00  0.0000000000000D+00  0.0000000000000D+00
266  2.6500000000000D+00  0.0000000000000D+00  0.0000000000000D+00
267  2.6600000000000D+00  0.0000000000000D+00  0.0000000000000D+00
268  2.6700000000000D+00  0.0000000000000D+00  0.0000000000000D+00
269  2.6800000000000D+00  0.0000000000000D+00  0.0000000000000D+00
270  2.6900000000000D+00  0.0000000000000D+00  0.0000000000000D+00
271  2.7000000000000D+00  0.0000000000000D+00  0.0000000000000D+00
272  2.7100000000000D+00  0.0000000000000D+00  0.0000000000000D+00
273  2.7200000000000D+00  0.0000000000000D+00  0.0000000000000D+00
274  2.7300000000000D+00  0.0000000000000D+00  0.0000000000000D+00
275  2.7400000000000D+00  0.0000000000000D+00  0.0000000000000D+00
276  2.7500000000000D+00  0.0000000000000D+00  0.0000000000000D+00
277  2.7600000000000D+00  0.0000000000000D+00  0.0000000000000D+00
278  2.7700000000000D+00  0.0000000000000D+00  0.0000000000000D+00
279  2.7800000000000D+00  0.0000000000000D+00  0.0000000000000D+00
280  2.7900000000000D+00  0.0000000000000D+00  0.0000000000000D+00
281  2.8000000000000D+00  0.0000000000000D+00  0.0000000000000D+00
282  2.8100000000000D+00  0.0000000000000D+00  0.0000000000000D+00
283  2.8200000000000D+00  0.0000000000000D+00  0.0000000000000D+00
284  2.8300000000000D+00  0.0000000000000D+00  0.0000000000000D+00
285  2.8400000000000D+00  0.0000000000000D+00  0.0000000000000D+00
286  2.8500000000000D+00  0.0000000000000D+00  0.0000000000000D+00
287  2.8600000000000D+00  0.0000000000000D+00  0.0000000000000D+00
288  2.8700000000000D+00  0.0000000000000D+00  0.0000000000000D+00
289  2.8800000000000D+00  0.0000000000000D+00  0.0000000000000D+00
290  2.8900000000000D+00  0.0000000000000D+00  0.0000000000000D+00
291  2.9000000000000D+00  0.0000000000000D+00  0.0000000000000D+00
292  2.9100000000000D+00  0.0000000000000D+00  0.0000000000000D+00
293  2.9200000000000D+00  0.0000000000000D+00  0.0000000000000D+00
294  2.9300000000000D+00  0.0000000000000D+00  0.0000000000000D+00
295  2.9400000000000D+00  0.0000000000000D+00  0.0000000000000D+00
296  2.9500000000000D+00  0.0000000000000D+00  0.0000000000000D+00
297  2.9600000000000D+00  0.0000000000000D+00  0.0000000000000D+00
298  2.9700000000000D+00  0.0000000000000D+00  0.0000000000000D+00
299  2.9800000000000D+00  0.0000000000000D+00  0.0000000000000D+00
300  2.9900000000000D+00  0.0000000000000D+00  0.0000000000000D+00
301  3.0000000000000D+00  0.0000000000000D+00  0.0000000000000D+00
302  3.0100000000000D+00  0.0000000000000D+00  0.0000000000000D+00
303  3.0200000000000D+00  0.0000000000000D+00  0.0000000000000D+00
304  3.0300000000000D+00  0.0000000000000D+00  0.0000000000000D+00
305  3.0400000000000D+00  0.0000000000000D+00  0.0000000000000D+00
306  3.0500000000000D+00  0.0000000000000D+00  0.0000000000000D+00
307  3.0600000000000D+00  0.0000000000000D+00  0.0000000000000D+00
308  3.0700000000000D+00  0.0000000000000D+00  0.0000000000000D+00
309  3.0800000000000D+00  0.0000000000000D+00  0.0000000000000D+00
310  3.0900000000000D+00  0.0000000000000D+00  0.0000000000000D+00
311  3.1000000000000D+00  0.0000000000000D+00  0.0000000000000D+00
312  3.1100000000000D+00  0.0000000000000D+00  0.0000000000000D+00
313  3.1200000000000D+00  0.0000000000000D+00  0.0000000000000D+00
314  3.1300000000000D+00  0.0000000000000D+00  0.0000000000000D+00
315  3.1400000000000D+00  0.0000000000000D+00  0.0000000000000D+00
316  3.1500000000000D+00  0.0000000000000D+00  0.0000000000000D+00
317  3.1600000000000D+00  0.0000000000000D+00  0.0000000000000D+00
318  3.1700000000000D+00  0.0000000000000D+00  0.0000000000000D+00
319  3.1800000000000D+00  0.0000000000000D+00  0.0000000000000D+00
320  3.1900000000000D+00  0.0000000000000D+00  0.0000000000000D+00
321  3.2000000000000D+00  0.0000000000000D+00  0.0000000000000D+00
322  3.2100000000000D+00  0.0000000000000D+00  0.0000000000000D+00
323  3.2200000000000D+00  0.0000000000000D+00  0.0000000000000D+00
324  3.2300000000000D+00  0.0000000000000D+00  0.0000000000000D+00
325  3.2400000000000D+00  0.0000000000000D+00  0.0000000000000D+00
326  3.2500000000000D+00  0.0000000000000D+00  0.0000000000000D+00
327  3.2600000000000D+00  0.0000000000000D+00  0.0000000000000D+00
328  3.2700000000000D+00  0.0000000000000D+00  0.0000000000000D+00
329  3.2800000000000D+00  0.0000000000000D+00  0.0000000000000D+00
330  3.2900000000000D+00  0.0000000000000D+00  0.0000000000000D+00
331  3.3000000000000D+00  0.0000000000000D+00  0.0000000000000D+00
332  3.3100000000000D+00  0.0000000000000D+00  0.0000000000000D+00
333  3.3200000000000D+00  0.0000000000000D+00  0.0000000000000D+00
334  3.3300000000000D+00  0.0000000000000D+00  0.0000000000000D+00
335  3.3400000000000D+00  0.0000000000000D+00  0.0000000000000D+00
336  3.3500000000000D+00  0.0000000000000D+00  0.0000000000000D+00
337  3.3600000000000D+00  0.0000000000000D+00  0.0000000000000D+00
338  3.3700000000000D+00  0.0000000000000D+00  0.0000000000000D+00
339  3.3800000000000D+00  0.0000000000000D+00  0.0000000000000D+00
340  3.3900000000000D+00  0.0000000000000D+00  0.0000000000000D+00
341  3.4000000000000D+00  0.0000000000000D+00  0.0000000000000D+00
342  3.4100000000000D+00  0.0000000000000D+00  0.0000000000000D+00
343  3.4200000000000D+00  0.0000000000000D+00  0.0000000000000D+00
344  3.4300000000000D+00  0.0000000000000D+00  0.0000000000000D+00
345  3.4400000000000D+00  0.0000000000000D+00  0.0000000000000D+00
346  3.4500000000000D+00  0.0000000000000D+00  0.0000000000000D+00
347  3.4600000000000D+00  0.0000000000000D+00  0.0000000000000D+00
348  3.4700000000000D+00  0.0000000000000D+00  0.0000000000000D+00
349  3.4800000000000D+00  0.0000000000000D+00  0.0000000000000D+00
350  3.4900000000000D+00  0.0000000000000D+00  0.0000000000000D+00
351  3.5000000000000D+00  0.0000000000000D+00  0.0000000000000D+00
352  3.5100000000000D+00  0.0000000000000D+00  0.0000000000000D+00
353  3.5200000000000D+00  0.0000000000000D+00  0.0000000000000D+00
354  3.5300000000000D+00  0.0000000000000D+00  0.0000000000000D+00
355  3.5400000000000D+00  0.0000000000000D+00  0.0000000000000D+00
356  3.5500000000000D+00  0.0000000000000D+00  0.0000000000000D+00
357  3.5600000000000D+00  0.0000000000000D+00  0.0000000000000D+00
358  3.5700000000000D+00  0.0000000000000D+00  0.0000000000000D+00
359  3.5800000000000D+00  0.0000000000000D+00  0.0000000000000D+00
360  3.5900000000000D+00  0.0000000000000D+00  0.0000000000000D+00
361  3.6000000000000D+00  0.0000000000000D+00  0.0000000000000D+00
362  3.6100000000000D+00  0.0000000000000D+00  0.0000000000000D+00
363  3.6200000000000D+00  0.0000000000000D+00  0.0000000000000D+00
364  3.6300000000000D+00  0.0000000000000D+00  0.0000000000000D+00
365  3.6400000000000D+00  0.0000000000000D+00  0.0000000000000D+00
366  3.6500000000000D+00  0.0000000000000D+00  0.0000000000000D+00
367  3.6600000000000D+00  0.0000000000000D+00  0.0000000000000D+00
368  3.6700000000000D+00  0.0000000000000D+00  0.0000000000000D+00
369  3.6800000000000D+00  0.0000000000000D+00  0.0000000000000D+00
370  3.6900000000000D+00  0.0000000000000D+00  0.0000000000000D+00
371  3.7000000000000D+00  0.0000000000000D+00  0.0000000000000D+00
372  3.7100000000000D+00  0.0000000000000D+00  0.0000000000000D+00
373  3.7200000000000D+00  0.0000000000000D+00  0.0000000000000D+00
374  3.7300000000000D+00  0.0000000000000D+00  0.0000000000000D+00
375  3.7400000000000D+00  0.0000000000000D+00  0.0000000000000D+00
376  3.7500000000000D+00  0.0000000000000D+00  0.0000000000000D+00
377  3.7600000000000D+00  0.0000000000000D+00  0.0000000000000D+00
378  3.7700000000000D+00  0.0000000000000D+00  0.0000000000000D+00
379  3.7800000000000D+00  0.0000000000000D+00  0.0000000000000D+00
380  3.7900000000000D+00  0.0000000000000D+00  0.0000000000000D+00
381  3.8000000000000D+00  0.0000000000000D+00  0.0000000000000D+00
382  3.8100000000000D+00  0.0000000000000D+00  0.0000000000000D+00
383  3.8200000000000D+00  0.0000000000000D+00  0.0000000000000D+00
384  3.8300000000000D+00  0.0000000000000D+00  0.0000000000000D+00
385  3.8400000000000D+00  0.0000000000000D+00  0.0000000000000D+00
386  3.8500000000000D+00  0.0000000000000D+00  0.0000000000000D+00
387  3.8600000000000D+00  0.0000000000000D+00  0.0000000000000D+00
388  3.8700000000000D+00  0.0000000000000D+00  0.0000000000000D+00
389  3.8800000000000D+00  0.0000000000000D+00  0.0000000000000D+00
390  3.8900000000000D+00  0.0000000000000D+00  0.0000000000000D+00
391  3.9000000000000D+00  0.0000000000000D+00  0.0000000000000D+00
392  3.9100000000000D+00  0.0000000000000D+00  0.0000000000000D+00
393  3.9200000000000D+00  0.0000000000000D+00  0.0000000000000D+00
394  3.9300000000000D+00  0.0000000000000D+00  0.0000000000000D+00
395  3.9400000000000D+00  0.0000000000000D+00  0.0000000000000D+00
396  3.9500000000000D+00  0.0000000000000D+00  0.0000000000000D+00
397  3.9600000000000D+00  0.0000000000000D+00  0.0000000000000D+00
398  3.9700000000000D+00  0.0000000000000D+00  0.0000000000000D+00
399  3.9800000000000D+00  0.0000000000000D+00  0.0000000000000D+00
400  3.9900000000000D+00  0.0000000000000D+00  0.0000000000000D+00
401  4.0000000000000D+00  0.0000000000000D+00  0.0000000000000D+00
402  4.0100000000000D+00  0.0000000000000D+00  0.0000000000000D+00
403  4.0200000000000D+00  0.0000000000000D+00  0.0000000000000D+00
404  4.0300000000000D+00  0.0000000000000D+00  0.0000000000000D+00
405  4.0400000000000D+00  0.0000000000000D+00  0.0000000000000D+00
406  4.0500000000000D+00  0.0000000000000D+00  0.0000000000000D+00
407  4.0600000000000D+00  0.0000000000000D+00  0.0000000000000D+00
408  4.0700000000000D+00  0.0000000000000D+00  0.0000000000000D+00
409  4.0800000000000D+00  0.0000000000000D+00  0.0000000000000D+00
410  4.0900000000000D+00  0.0000000000000D+00  0.0000000000000D+00
411  4.1000000000000D+00  0.0000000000000D+00  0.0000000000000D+00
412  4.1100000000000D+00  0.0000000000000D+00  0.0000000000000D+00
413  4.1200000000000D+00  0.0000000000000D+00  0.0000000000000D+00
414  4.1300000000000D+00  0.0000000000000D+00  0.0000000000000D+00
415  4.1400000000000D+00  0.0000000000000D+00  0.0000000000000D+00
416  4.1500000000000D+00  0.0000000000000D+00  0.0000000000000D+00
417  4.1600000000000D+00  0.0000000000000D+00  0.0000000000000D+00
418  4.1700000000000D+00  0.0000000000000D+00  0.0000000000000D+00
419  4.1800000000000D+00  0.0000000000000D+00  0.0000000000000D+00
420  4.1900000000000D+00  0.0000000000000D+00  0.0000000000000D+00
421  4.2000000000000D+00  0.0000000000000D+00  0.0000000000000D+00
422  4.2100000000000D+00  0.0000000000000D+00  0.0000000000000D+00
423  4.2200000000000D+00  0.0000000000000D+00  0.0000000000000D+00
424  4.2300000000000D+00  0.0000000000000D+00  0.0000000000000D+00
425  4.2400000000000D+00  0.0000000000000D+00  0.0000000000000D+00
426  4.2500000000000D+00  0.0000000000000D+00  0.0000000000000D+00
427  4.2600000000000D+00  0.0000000000000D+00  0.0000000000000D+00
428  4.2700000000000D+00  0.0000000000000D+00  0.0000000000000D+00
429  4.2800000000000D+00  0.0000000000000D+00  0.0000000000000D+00
430  4.2900000000000D+00  0.0000000000000D+00  0.0000000000000D+00
431  4.3000000000000D+00  0.0000000000000D+00  0.0000000000000D+00
432  4.3100000000000D+00  0.0000000000000D+00  0.0000000000000D+00
433  4.3200000000000D+00  0.0000000000000D+00  0.0000000000000D+00
434  4.3300000000000D+00  0.0000000000000D+00  0.0000000000000D+00
435  4.3400000000000D+00  0.0000000000000D+00  0.0000000000000D+00
436  4.3500000000000D+00  0.0000000000000D+00  0.0000000000000D+00
437  4.3600000000000D+00  0.0000000000000D+00  0.0000000000000D+00
438  4.3700000000000D+00  0.0000000000000D+00  0.0000000000000D+00
439  4.3800000000000D+00  0.0000000000000D+00  0.0000000000000D+00
440  4.3900000000000D+00  0.0000000000000D+00  0.0000000000000D+00
441  4.4000000000000D+00  0.0000000000000D+00  0.0000000000000D+00
442  4.4100000000000D+00  0.0000000000000D+00  0.0000000000000D+00
443  4.4200000000000D+00  0.0000000000000D+00  0.0000000000000D+00
444  4.4300000000000D+00  0.0000000000000D+00  0.0000000000000D+00