Co    ONCVPSP  r_core=  1.36  1.51  1.80
27.0000     17.0000      140905    zatom,zion,pspd
8    11     2     4   601     0    pspcod,pspxc,lmax,lloc,mmax,r2well
6.00000000  0.07000000  0.00000000    rchrg fchrg qchrg
2     2     2     0     0    nproj
0                 extension_switch
0                         5.4255324169773D+00 -3.5236129616004D-01
1  0.0000000000000D+00 -0.0000000000000D+00  0.0000000000000D+00
2  1.0000000000000D-02 -9.6319697738255D-02  1.9229240877942D-02
3  2.0000000000000D-02 -1.9233805522117D-01  3.8465187570700D-02
4  3.0000000000000D-02 -2.8775467520165D-01  5.7714023499825D-02
5  4.0000000000000D-02 -3.8227104544116D-01  7.6980896471717D-02
6  5.0000000000000D-02 -4.7559147866296D-01  9.6269423675658D-02
7  6.0000000000000D-02 -5.6742404935718D-01  1.1558122370593D-01
8  7.0000000000000D-02 -6.5748152624481D-01  1.3491548404939D-01
9  8.0000000000000D-02 -7.4548229908981D-01  1.5426857200199D-01
10  9.0000000000000D-02 -8.3115129839451D-01  1.7363369639426D-01
11  1.0000000000000D-01 -9.1422090636719D-01  1.9300062680981D-01
12  1.1000000000000D-01 -9.9443185732354D-01  2.1235547621215D-01
13  1.2000000000000D-01 -1.0715341255193D+00  2.3168055201357D-01
14  1.3000000000000D-01 -1.1452877981276D+00  2.5095427969141D-01
15  1.4000000000000D-01 -1.2154639310107D+00  2.7015120203232D-01
16  1.5000000000000D-01 -1.2818453843407D+00  2.8924205606282D-01
17  1.6000000000000D-01 -1.3442276354940D+00  3.0819392859670D-01
18  1.7000000000000D-01 -1.4024195654922D+00  3.2697049019090D-01
19  1.8000000000000D-01 -1.4562442162216D+00  3.4553230622360D-01
20  1.9000000000000D-01 -1.5055395147340D+00  3.6383722276833D-01
21  2.0000000000000D-01 -1.5501589598958D+00  3.8184082333833D-01
22  2.1000000000000D-01 -1.5899722690743D+00  3.9949695237879D-01
23  2.2000000000000D-01 -1.6248659790871D+00  4.1675829919017D-01
24  2.3000000000000D-01 -1.6547439988416D+00  4.3357703641357D-01
25  2.4000000000000D-01 -1.6795281077455D+00  4.4990550449306D-01
26  2.5000000000000D-01 -1.6991583965191D+00  4.6569693394927D-01
27  2.6000000000000D-01 -1.7135936474755D+00  4.8090619826141D-01
28  2.7000000000000D-01 -1.7228116465533D+00  4.9549058362849D-01
29  2.8000000000000D-01 -1.7268094257607D+00  5.0941056776220D-01
30  2.9000000000000D-01 -1.7256034322499D+00  5.2263059785260D-01
31  3.0000000000000D-01 -1.7192296188726D+00  5.3511985488798D-01
32  3.1000000000000D-01 -1.7077434533059D+00  5.4685299381569D-01
33  3.2000000000000D-01 -1.6912198423642D+00  5.5781084757119D-01
34  3.3000000000000D-01 -1.6697529688229D+00  5.6798107849383D-01
35  3.4000000000000D-01 -1.6434560417755D+00  5.7735879780950D-01
36  3.5000000000000D-01 -1.6124609501902D+00  5.8594706948237D-01
37  3.6000000000000D-01 -1.5769178272348D+00  5.9375739792551D-01
38  3.7000000000000D-01 -1.5369945222250D+00  6.0081006679876D-01
39  3.8000000000000D-01 -1.4928759754835D+00  6.0713443142243D-01
40  3.9000000000000D-01 -1.4447634995388D+00  6.1276908776164D-01
41  4.0000000000000D-01 -1.3928739739072D+00  6.1776192826130D-01
42  4.1000000000000D-01 -1.3374389450073D+00  6.2217009461204D-01
43  4.2000000000000D-01 -1.2787036393499D+00  6.2605980898760D-01
44  4.3000000000000D-01 -1.2169258923971D+00  6.2950608469414D-01
45  4.4000000000000D-01 -1.1523749970143D+00  6.3259231514816D-01
46  4.5000000000000D-01 -1.0853304761054D+00  6.3540974136029D-01
47  4.6000000000000D-01 -1.0160807848837D+00  6.3805679948992D-01
48  4.7000000000000D-01 -9.4492194941632D-01  6.4063835170443D-01
49  4.8000000000000D-01 -8.7215615497289D-01  6.4326480745424D-01
50  4.9000000000000D-01 -7.9809031299185D-01  6.4605115340171D-01
51  5.0000000000000D-01 -7.2303443388648D-01  6.4911582686462D-01
52  5.1000000000000D-01 -6.4730018937201D-01  6.5257957178155D-01
53  5.2000000000000D-01 -5.7119942876955D-01  6.5656424089614D-01
54  5.3000000000000D-01 -4.9504232782183D-01  6.6119134055526D-01
55  5.4000000000000D-01 -4.1913606898766D-01  6.6658078487519D-01
56  5.5000000000000D-01 -3.4378320669921D-01  6.7284946813097D-01
57  5.6000000000000D-01 -2.6927990970292D-01  6.8010968956524D-01
58  5.7000000000000D-01 -1.9591483288692D-01  6.8846797425977D-01
59  5.8000000000000D-01 -1.2396708274331D-01  6.9802325675329D-01
60  5.9000000000000D-01 -5.3705339434105D-02  7.0886585973053D-01
61  6.0000000000000D-01  1.4613994227006D-02  7.2107577067085D-01
62  6.1000000000000D-01  8.0747925678690D-02  7.3472144503646D-01
63  6.2000000000000D-01  1.4446782145136D-01  7.4985877910874D-01
64  6.3000000000000D-01  2.0556132928757D-01  7.6652932089118D-01
65  6.4000000000000D-01  2.6383259483000D-01  7.8475987038128D-01
66  6.5000000000000D-01  3.1910350561071D-01  8.0456129351719D-01
67  6.6000000000000D-01  3.7121495495216D-01  8.2592733960052D-01
68  6.7000000000000D-01  4.2002695140463D-01  8.4883446948488D-01
69  6.8000000000000D-01  4.6541924382225D-01  8.7324130641533D-01
70  6.9000000000000D-01  5.0729227941722D-01  8.9908786200032D-01
71  7.0000000000000D-01  5.4556719351783D-01  9.2629564020529D-01
72  7.1000000000000D-01  5.8018592524259D-01  9.5476769908266D-01
73  7.2000000000000D-01  6.1111134178150D-01  9.8438877638755D-01
74  7.3000000000000D-01  6.3832703533972D-01  1.0150257477779D+00
75  7.4000000000000D-01  6.6183742144725D-01  1.0465279571184D+00
76  7.5000000000000D-01  6.8166708089635D-01  1.0787282087208D+00
77  7.6000000000000D-01  6.9786025436820D-01  1.1114437161873D+00
78  7.7000000000000D-01  7.1048023737368D-01  1.1444772189286D+00
79  7.8000000000000D-01  7.1960860648013D-01  1.1776183081229D+00
80  7.9000000000000D-01  7.2534432312035D-01  1.2106449234736D+00
81  8.0000000000000D-01  7.2780272242635D-01  1.2433250096859D+00
82  8.1000000000000D-01  7.2711439553155D-01  1.2754183196696D+00
83  8.2000000000000D-01  7.2342397470130D-01  1.3066783496915D+00
84  8.3000000000000D-01  7.1688883147840D-01  1.3368543900594D+00
85  8.4000000000000D-01  7.0767769876557D-01  1.3656936734373D+00
86  8.5000000000000D-01  6.9596922841224D-01  1.3929436015630D+00
87  8.6000000000000D-01  6.8195049642899D-01  1.4183540299786D+00
88  8.7000000000000D-01  6.6581546842383D-01  1.4416795893840D+00
89  8.8000000000000D-01  6.4776343824120D-01  1.4626820213871D+00
90  8.9000000000000D-01  6.2799745308791D-01  1.4811325057639D+00
91  9.0000000000000D-01  6.0672273864733D-01  1.4968139558565D+00
92  9.1000000000000D-01  5.8414513780645D-01  1.5095232584571D+00
93  9.2000000000000D-01  5.6046957663644D-01  1.5190734344763D+00
94  9.3000000000000D-01  5.3589857115661D-01  1.5252956969110D+00
95  9.4000000000000D-01  5.1063078814731D-01  1.5280413831795D+00
96  9.5000000000000D-01  4.8485967282674D-01  1.5271837398248D+00
97  9.6000000000000D-01  4.5877215553247D-01  1.5226195389861D+00
98  9.7000000000000D-01  4.3254770527854D-01  1.5142701094600D+00
99  9.8000000000000D-01  4.0635688477121D-01  1.5020831341505D+00
100  9.9000000000000D-01  3.8035981625744D-01  1.4860344388791D+00
101  1.0000000000000D+00  3.5470620755070D-01  1.4661273533849D+00
102  1.0100000000000D+00  3.2953425590350D-01  1.4423937834369D+00
103  1.0200000000000D+00  3.0497002102006D-01  1.4148944920305D+00
104  1.0300000000000D+00  2.8112706546360D-01  1.3837189534527D+00
105  1.0400000000000D+00  2.5810661684847D-01  1.3489845389294D+00
106  1.0500000000000D+00  2.3599469138592D-01  1.3108393875198D+00
107  1.0600000000000D+00  2.1486483373896D-01  1.2694578867042D+00
108  1.0700000000000D+00  1.9477727939938D-01  1.2250408821716D+00
109  1.0800000000000D+00  1.7577940512852D-01  1.1778142068696D+00
110  1.0900000000000D+00  1.5790598424597D-01  1.1280275256359D+00
111  1.1000000000000D+00  1.4117747871630D-01  1.0759542654136D+00
112  1.1100000000000D+00  1.2560344520936D-01  1.0218869489083D+00
113  1.1200000000000D+00  1.1118222490626D-01  9.6613615886556D-01
114  1.1300000000000D+00  9.7902462225682D-02  9.0902870981427D-01
115  1.1400000000000D+00  8.5740752355343D-02  8.5090537618298D-01
116  1.1500000000000D+00  7.4666122785635D-02  7.9211707840190D-01
117  1.1600000000000D+00  6.4639955071660D-02  7.3302334956486D-01
118  1.1700000000000D+00  5.5616611124166D-02  6.7399076729384D-01
119  1.1800000000000D+00  4.7544051974321D-02  6.1538604375958D-01
120  1.1900000000000D+00  4.0366313370580D-02  5.5757650761712D-01
121  1.2000000000000D+00  3.4023609769416D-02  5.0092990002617D-01
122  1.2100000000000D+00  2.8453641353056D-02  4.4580472004038D-01
123  1.2200000000000D+00  2.3593362810418D-02  3.9255036421105D-01
124  1.2300000000000D+00  1.9378922845662D-02  3.4150963335456D-01
125  1.2400000000000D+00  1.5747273734049D-02  2.9301061833018D-01
126  1.2500000000000D+00  1.2638501465335D-02  2.4736045066148D-01
127  1.2600000000000D+00  9.9941548162719D-03  2.0485515251017D-01
128  1.2700000000000D+00  7.7592918359987D-03  1.6577064961673D-01
129  1.2800000000000D+00  5.8856676274298D-03  1.3035273203430D-01
130  1.2900000000000D+00  4.3276810517239D-03  9.8834187856409D-02
131  1.3000000000000D+00  3.0460072724875D-03  7.1420838785257D-02
132  1.3100000000000D+00  2.0097733591261D-03  4.8285143473250D-02
133  1.3200000000000D+00  1.1913595283879D-03  2.9585024559998D-02
134  1.3300000000000D+00  5.7459594161420D-04  1.5432676319326D-02
135  1.3400000000000D+00  1.5615127302412D-04  5.9277155131002D-03
136  1.3500000000000D+00 -5.4456399507560D-05  1.3940709301866D-03
137  1.3600000000000D+00 -8.9507835701250D-05 -1.3305002677082D-04
138  1.3700000000000D+00 -1.4940210106827D-05 -8.4465319248198D-05
139  1.3800000000000D+00  6.4464081691357D-06 -1.9751483573906D-05
140  1.3900000000000D+00  0.0000000000000D+00  0.0000000000000D+00
141  1.4000000000000D+00  0.0000000000000D+00  0.0000000000000D+00
142  1.4100000000000D+00  0.0000000000000D+00  0.0000000000000D+00
143  1.4200000000000D+00  0.0000000000000D+00  0.0000000000000D+00
144  1.4300000000000D+00  0.0000000000000D+00  0.0000000000000D+00
145  1.4400000000000D+00  0.0000000000000D+00  0.0000000000000D+00
146  1.4500000000000D+00  0.0000000000000D+00  0.0000000000000D+00
147  1.4600000000000D+00  0.0000000000000D+00  0.0000000000000D+00
148  1.4700000000000D+00  0.0000000000000D+00  0.0000000000000D+00
149  1.4800000000000D+00  0.0000000000000D+00  0.0000000000000D+00
150  1.4900000000000D+00  0.0000000000000D+00  0.0000000000000D+00
151  1.5000000000000D+00  0.0000000000000D+00  0.0000000000000D+00
152  1.5100000000000D+00  0.0000000000000D+00  0.0000000000000D+00
153  1.5200000000000D+00  0.0000000000000D+00  0.0000000000000D+00
154  1.5300000000000D+00  0.0000000000000D+00  0.0000000000000D+00
155  1.5400000000000D+00  0.0000000000000D+00  0.0000000000000D+00
156  1.5500000000000D+00  0.0000000000000D+00  0.0000000000000D+00
157  1.5600000000000D+00  0.0000000000000D+00  0.0000000000000D+00
158  1.5700000000000D+00  0.0000000000000D+00  0.0000000000000D+00
159  1.5800000000000D+00  0.0000000000000D+00  0.0000000000000D+00
160  1.5900000000000D+00  0.0000000000000D+00  0.0000000000000D+00
161  1.6000000000000D+00  0.0000000000000D+00  0.0000000000000D+00
162  1.6100000000000D+00  0.0000000000000D+00  0.0000000000000D+00
163  1.6200000000000D+00  0.0000000000000D+00  0.0000000000000D+00
164  1.6300000000000D+00  0.0000000000000D+00  0.0000000000000D+00
165  1.6400000000000D+00  0.0000000000000D+00  0.0000000000000D+00
166  1.6500000000000D+00  0.0000000000000D+00  0.0000000000000D+00
167  1.6600000000000D+00  0.0000000000000D+00  0.0000000000000D+00
168  1.6700000000000D+00  0.0000000000000D+00  0.0000000000000D+00
169  1.6800000000000D+00  0.0000000000000D+00  0.0000000000000D+00
170  1.6900000000000D+00  0.0000000000000D+00  0.0000000000000D+00
171  1.7000000000000D+00  0.0000000000000D+00  0.0000000000000D+00
172  1.7100000000000D+00  0.0000000000000D+00  0.0000000000000D+00
173  1.7200000000000D+00  0.0000000000000D+00  0.0000000000000D+00
174  1.7300000000000D+00  0.0000000000000D+00  0.0000000000000D+00
175  1.7400000000000D+00  0.0000000000000D+00  0.0000000000000D+00
176  1.7500000000000D+00  0.0000000000000D+00  0.0000000000000D+00
177  1.7600000000000D+00  0.0000000000000D+00  0.0000000000000D+00
178  1.7700000000000D+00  0.0000000000000D+00  0.0000000000000D+00
179  1.7800000000000D+00  0.0000000000000D+00  0.0000000000000D+00
180  1.7900000000000D+00  0.0000000000000D+00  0.0000000000000D+00
181  1.8000000000000D+00  0.0000000000000D+00  0.0000000000000D+00
182  1.8100000000000D+00  0.0000000000000D+00  0.0000000000000D+00
183  1.8200000000000D+00  0.0000000000000D+00  0.0000000000000D+00
184  1.8300000000000D+00  0.0000000000000D+00  0.0000000000000D+00
185  1.8400000000000D+00  0.0000000000000D+00  0.0000000000000D+00
186  1.8500000000000D+00  0.0000000000000D+00  0.0000000000000D+00
187  1.8600000000000D+00  0.0000000000000D+00  0.0000000000000D+00
188  1.8700000000000D+00  0.0000000000000D+00  0.0000000000000D+00
189  1.8800000000000D+00  0.0000000000000D+00  0.0000000000000D+00
190  1.8900000000000D+00  0.0000000000000D+00  0.0000000000000D+00
191  1.9000000000000D+00  0.0000000000000D+00  0.0000000000000D+00
192  1.9100000000000D+00  0.0000000000000D+00  0.0000000000000D+00
193  1.9200000000000D+00  0.0000000000000D+00  0.0000000000000D+00
194  1.9300000000000D+00  0.0000000000000D+00  0.0000000000000D+00
195  1.9400000000000D+00  0.0000000000000D+00  0.0000000000000D+00
196  1.9500000000000D+00  0.0000000000000D+00  0.0000000000000D+00
197  1.9600000000000D+00  0.0000000000000D+00  0.0000000000000D+00
198  1.9700000000000D+00  0.0000000000000D+00  0.0000000000000D+00
199  1.9800000000000D+00  0.0000000000000D+00  0.0000000000000D+00
200  1.9900000000000D+00  0.0000000000000D+00  0.0000000000000D+00
201  2.0000000000000D+00  0.0000000000000D+00  0.0000000000000D+00
202  2.0100000000000D+00  0.0000000000000D+00  0.0000000000000D+00
203  2.0200000000000D+00  0.0000000000000D+00  0.0000000000000D+00
204  2.0300000000000D+00  0.0000000000000D+00  0.0000000000000D+00
205  2.0400000000000D+00  0.0000000000000D+00  0.0000000000000D+00
206  2.0500000000000D+00  0.0000000000000D+00  0.0000000000000D+00
207  2.0600000000000D+00  0.0000000000000D+00  0.0000000000000D+00
208  2.0700000000000D+00  0.0000000000000D+00  0.0000000000000D+00
209  2.0800000000000D+00  0.0000000000000D+00  0.0000000000000D+00
210  2.0900000000000D+00  0.0000000000000D+00  0.0000000000000D+00
211  2.1000000000000D+00  0.0000000000000D+00  0.0000000000000D+00
212  2.1100000000000D+00  0.0000000000000D+00  0.0000000000000D+00
213  2.1200000000000D+00  0.0000000000000D+00  0.0000000000000D+00
214  2.1300000000000D+00  0.0000000000000D+00  0.0000000000000D+00
215  2.1400000000000D+00  0.0000000000000D+00  0.0000000000000D+00
216  2.1500000000000D+00  0.0000000000000D+00  0.0000000000000D+00
217  2.1600000000000D+00  0.0000000000000D+00  0.0000000000000D+00
218  2.1700000000000D+00  0.0000000000000D+00  0.0000000000000D+00
219  2.1800000000000D+00  0.0000000000000D+00  0.0000000000000D+00
220  2.1900000000000D+00  0.0000000000000D+00  0.0000000000000D+00
221  2.2000000000000D+00  0.0000000000000D+00  0.0000000000000D+00
222  2.2100000000000D+00  0.0000000000000D+00  0.0000000000000D+00
223  2.2200000000000D+00  0.0000000000000D+00  0.0000000000000D+00
224  2.2300000000000D+00  0.0000000000000D+00  0.0000000000000D+00
225  2.2400000000000D+00  0.0000000000000D+00  0.0000000000000D+00
226  2.2500000000000D+00  0.0000000000000D+00  0.0000000000000D+00
227  2.2600000000000D+00  0.0000000000000D+00  0.0000000000000D+00
228  2.2700000000000D+00  0.0000000000000D+00  0.0000000000000D+00
229  2.2800000000000D+00  0.0000000000000D+00  0.0000000000000D+00
230  2.2900000000000D+00  0.0000000000000D+00  0.0000000000000D+00
231  2.3000000000000D+00  0.0000000000000D+00  0.0000000000000D+00
232  2.3100000000000D+00  0.0000000000000D+00  0.0000000000000D+00
233  2.3200000000000D+00  0.0000000000000D+00  0.0000000000000D+00
234  2.3300000000000D+00  0.0000000000000D+00  0.0000000000000D+00
235  2.3400000000000D+00  0.0000000000000D+00  0.0000000000000D+00
236  2.3500000000000D+00  0.0000000000000D+00  0.0000000000000D+00
237  2.3600000000000D+00  0.0000000000000D+00  0.0000000000000D+00
238  2.3700000000000D+00  0.0000000000000D+00  0.0000000000000D+00
239  2.3800000000000D+00  0.0000000000000D+00  0.0000000000000D+00
240  2.3900000000000D+00  0.0000000000000D+00  0.0000000000000D+00
241  2.4000000000000D+00  0.0000000000000D+00  0.0000000000000D+00
242  2.4100000000000D+00  0.0000000000000D+00  0.0000000000000D+00
243  2.4200000000000D+00  0.0000000000000D+00  0.0000000000000D+00
244  2.4300000000000D+00  0.0000000000000D+00  0.0000000000000D+00
245  2.4400000000000D+00  0.0000000000000D+00  0.0000000000000D+00
246  2.4500000000000D+00  0.0000000000000D+00  0.0000000000000D+00
247  2.4600000000000D+00  0.0000000000000D+00  0.0000000000000D+00
248  2.4700000000000D+00  0.0000000000000D+00  0.0000000000000D+00
249  2.4800000000000D+00  0.0000000000000D+00  0.0000000000000D+00
250  2.4900000000000D+00  0.0000000000000D+00  0.0000000000000D+00
251  2.5000000000000D+00  0.0000000000000D+00  0.0000000000000D+00
252  2.5100000000000D+00  0.0000000000000D+00  0.0000000000000D+00
253  2.5200000000000D+00  0.0000000000000D+00  0.0000000000000D+00
254  2.5300000000000D+00  0.0000000000000D+00  0.0000000000000D+00
255  2.5400000000000D+00  0.0000000000000D+00  0.0000000000000D+00
256  2.5500000000000D+00  0.0000000000000D+00  0.0000000000000D+00
257  2.5600000000000D+00  0.0000000000000D+00  0.0000000000000D+00
258  2.5700000000000D+00  0.0000000000000D+00  0.0000000000000D+00
259  2.5800000000000D+00  0.0000000000000D+00  0.0000000000000D+00
260  2.5900000000000D+00  0.0000000000000D+00  0.0000000000000D+00
261  2.6000000000000D+00  0.0000000000000D+00  0.0000000000000D+00
262  2.6100000000000D+00  0.0000000000000D+00  0.0000000000000D+00
263  2.6200000000000D+00  0.0000000000000D+00  0.0000000000000D+00
264  2.6300000000000D+00  0.0000000000000D+00  0.0000000000000D+00
265  2.6400000000000D+00  0.0000000000000D+00  0.0000000000000D+00
266  2.6500000000000D+00  0.0000000000000D+00  0.0000000000000D+00
267  2.6600000000000D+00  0.0000000000000D+00  0.0000000000000D+00
268  2.6700000000000D+00  0.0000000000000D+00  0.0000000000000D+00
269  2.6800000000000D+00  0.0000000000000D+00  0.0000000000000D+00
270  2.6900000000000D+00  0.0000000000000D+00  0.0000000000000D+00
271  2.7000000000000D+00  0.0000000000000D+00  0.0000000000000D+00
272  2.7100000000000D+00  0.0000000000000D+00  0.0000000000000D+00
273  2.7200000000000D+00  0.0000000000000D+00  0.0000000000000D+00
274  2.7300000000000D+00  0.0000000000000D+00  0.0000000000000D+00
275  2.7400000000000D+00  0.0000000000000D+00  0.0000000000000D+00
276  2.7500000000000D+00  0.0000000000000D+00  0.0000000000000D+00
277  2.7600000000000D+00  0.0000000000000D+00  0.0000000000000D+00
278  2.7700000000000D+00  0.0000000000000D+00  0.0000000000000D+00
279  2.7800000000000D+00  0.0000000000000D+00  0.0000000000000D+00
280  2.7900000000000D+00  0.0000000000000D+00  0.0000000000000D+00
281  2.8000000000000D+00  0.0000000000000D+00  0.0000000000000D+00
282  2.8100000000000D+00  0.0000000000000D+00  0.0000000000000D+00
283  2.8200000000000D+00  0.0000000000000D+00  0.0000000000000D+00
284  2.8300000000000D+00  0.0000000000000D+00  0.0000000000000D+00
285  2.8400000000000D+00  0.0000000000000D+00  0.0000000000000D+00
286  2.8500000000000D+00  0.0000000000000D+00  0.0000000000000D+00
287  2.8600000000000D+00  0.0000000000000D+00  0.0000000000000D+00
288  2.8700000000000D+00  0.0000000000000D+00  0.0000000000000D+00
289  2.8800000000000D+00  0.0000000000000D+00  0.0000000000000D+00
290  2.8900000000000D+00  0.0000000000000D+00  0.0000000000000D+00
291  2.9000000000000D+00  0.0000000000000D+00  0.0000000000000D+00
292  2.9100000000000D+00  0.0000000000000D+00  0.0000000000000D+00
293  2.9200000000000D+00  0.0000000000000D+00  0.0000000000000D+00
294  2.9300000000000D+00  0.0000000000000D+00  0.0000000000000D+00
295  2.9400000000000D+00  0.0000000000000D+00  0.0000000000000D+00
296  2.9500000000000D+00  0.0000000000000D+00  0.0000000000000D+00
297  2.9600000000000D+00  0.0000000000000D+00  0.0000000000000D+00
298  2.9700000000000D+00  0.0000000000000D+00  0.0000000000000D+00
299  2.9800000000000D+00  0.0000000000000D+00  0.0000000000000D+00
300  2.9900000000000D+00  0.0000000000000D+00  0.0000000000000D+00
301  3.0000000000000D+00  0.0000000000000D+00  0.0000000000000D+00
302  3.0100000000000D+00  0.0000000000000D+00  0.0000000000000D+00
303  3.0200000000000D+00  0.0000000000000D+00  0.0000000000000D+00
304  3.0300000000000D+00  0.0000000000000D+00  0.0000000000000D+00
305  3.0400000000000D+00  0.0000000000000D+00  0.0000000000000D+00
306  3.0500000000000D+00  0.0000000000000D+00  0.0000000000000D+00
307  3.0600000000000D+00  0.0000000000000D+00  0.0000000000000D+00
308  3.0700000000000D+00  0.0000000000000D+00  0.0000000000000D+00
309  3.0800000000000D+00  0.0000000000000D+00  0.0000000000000D+00
310  3.0900000000000D+00  0.0000000000000D+00  0.0000000000000D+00
311  3.1000000000000D+00  0.0000000000000D+00  0.0000000000000D+00
312  3.1100000000000D+00  0.0000000000000D+00  0.0000000000000D+00
313  3.1200000000000D+00  0.0000000000000D+00  0.0000000000000D+00
314  3.1300000000000D+00  0.0000000000000D+00  0.0000000000000D+00
315  3.1400000000000D+00  0.0000000000000D+00  0.0000000000000D+00
316  3.1500000000000D+00  0.0000000000000D+00  0.0000000000000D+00
317  3.1600000000000D+00  0.0000000000000D+00  0.0000000000000D+00
318  3.1700000000000D+00  0.0000000000000D+00  0.0000000000000D+00
319  3.1800000000000D+00  0.0000000000000D+00  0.0000000000000D+00
320  3.1900000000000D+00  0.0000000000000D+00  0.0000000000000D+00
321  3.2000000000000D+00  0.0000000000000D+00  0.0000000000000D+00
322  3.2100000000000D+00  0.0000000000000D+00  0.0000000000000D+00
323  3.2200000000000D+00  0.0000000000000D+00  0.0000000000000D+00
324  3.2300000000000D+00  0.0000000000000D+00  0.0000000000000D+00
325  3.2400000000000D+00  0.0000000000000D+00  0.0000000000000D+00
326  3.2500000000000D+00  0.0000000000000D+00  0.0000000000000D+00
327  3.2600000000000D+00  0.0000000000000D+00  0.0000000000000D+00
328  3.2700000000000D+00  0.0000000000000D+00  0.0000000000000D+00
329  3.2800000000000D+00  0.0000000000000D+00  0.0000000000000D+00
330  3.2900000000000D+00  0.0000000000000D+00  0.0000000000000D+00
331  3.3000000000000D+00  0.0000000000000D+00  0.0000000000000D+00
332  3.3100000000000D+00  0.0000000000000D+00  0.0000000000000D+00
333  3.3200000000000D+00  0.0000000000000D+00  0.0000000000000D+00
334  3.3300000000000D+00  0.0000000000000D+00  0.0000000000000D+00
335  3.3400000000000D+00  0.0000000000000D+00  0.0000000000000D+00
336  3.3500000000000D+00  0.0000000000000D+00  0.0000000000000D+00
337  3.3600000000000D+00  0.0000000000000D+00  0.0000000000000D+00
338  3.3700000000000D+00  0.0000000000000D+00  0.0000000000000D+00
339  3.3800000000000D+00  0.0000000000000D+00  0.0000000000000D+00
340  3.3900000000000D+00  0.0000000000000D+00  0.0000000000000D+00
341  3.4000000000000D+00  0.0000000000000D+00  0.0000000000000D+00
342  3.4100000000000D+00  0.0000000000000D+00  0.0000000000000D+00
343  3.4200000000000D+00  0.0000000000000D+00  0.0000000000000D+00
344  3.4300000000000D+00  0.0000000000000D+00  0.0000000000000D+00
345  3.4400000000000D+00  0.0000000000000D+00  0.0000000000000D+00
346  3.4500000000000D+00  0.0000000000000D+00  0.0000000000000D+00
347  3.4600000000000D+00  0.0000000000000D+00  0.0000000000000D+00
348  3.4700000000000D+00  0.0000000000000D+00  0.0000000000000D+00
349  3.4800000000000D+00  0.0000000000000D+00  0.0000000000000D+00
350  3.4900000000000D+00  0.0000000000000D+00  0.0000000000000D+00
351  3.5000000000000D+00  0.0000000000000D+00  0.0000000000000D+00
352  3.5100000000000D+00  0.0000000000000D+00  0.0000000000000D+00
353  3.5200000000000D+00  0.0000000000000D+00  0.0000000000000D+00
354  3.5300000000000D+00  0.0000000000000D+00  0.0000000000000D+00
355  3.5400000000000D+00  0.0000000000000D+00  0.0000000000000D+00
356  3.5500000000000D+00  0.0000000000000D+00  0.0000000000000D+00
357  3.5600000000000D+00  0.0000000000000D+00  0.0000000000000D+00
358  3.5700000000000D+00  0.0000000000000D+00  0.0000000000000D+00
359  3.5800000000000D+00  0.0000000000000D+00  0.0000000000000D+00
360  3.5900000000000D+00  0.0000000000000D+00  0.0000000000000D+00
361  3.6000000000000D+00  0.0000000000000D+00  0.0000000000000D+00
362  3.6100000000000D+00  0.0000000000000D+00  0.0000000000000D+00
363  3.6200000000000D+00  0.0000000000000D+00  0.0000000000000D+00
364  3.6300000000000D+00  0.0000000000000D+00  0.0000000000000D+00
365  3.6400000000000D+00  0.0000000000000D+00  0.0000000000000D+00
366  3.6500000000000D+00  0.0000000000000D+00  0.0000000000000D+00
367  3.6600000000000D+00  0.0000000000000D+00  0.0000000000000D+00
368  3.6700000000000D+00  0.0000000000000D+00  0.0000000000000D+00
369  3.6800000000000D+00  0.0000000000000D+00  0.0000000000000D+00
370  3.6900000000000D+00  0.0000000000000D+00  0.0000000000000D+00
371  3.7000000000000D+00  0.0000000000000D+00  0.0000000000000D+00
372  3.7100000000000D+00  0.0000000000000D+00  0.0000000000000D+00
373  3.7200000000000D+00  0.0000000000000D+00  0.0000000000000D+00
374  3.7300000000000D+00  0.0000000000000D+00  0.0000000000000D+00
375  3.7400000000000D+00  0.0000000000000D+00  0.0000000000000D+00
376  3.7500000000000D+00  0.0000000000000D+00  0.0000000000000D+00
377  3.7600000000000D+00  0.0000000000000D+00  0.0000000000000D+00
378  3.7700000000000D+00  0.0000000000000D+00  0.0000000000000D+00
379  3.7800000000000D+00  0.0000000000000D+00  0.0000000000000D+00
380  3.7900000000000D+00  0.0000000000000D+00  0.0000000000000D+00
381  3.8000000000000D+00  0.0000000000000D+00  0.0000000000000D+00
382  3.8100000000000D+00  0.0000000000000D+00  0.0000000000000D+00
383  3.8200000000000D+00  0.0000000000000D+00  0.0000000000000D+00
384  3.8300000000000D+00  0.0000000000000D+00  0.0000000000000D+00
385  3.8400000000000D+00  0.0000000000000D+00  0.0000000000000D+00
386  3.8500000000000D+00  0.0000000000000D+00  0.0000000000000D+00
387  3.8600000000000D+00  0.0000000000000D+00  0.0000000000000D+00
388  3.8700000000000D+00  0.0000000000000D+00  0.0000000000000D+00
389  3.8800000000000D+00  0.0000000000000D+00  0.0000000000000D+00
390  3.8900000000000D+00  0.0000000000000D+00  0.0000000000000D+00
391  3.9000000000000D+00  0.0000000000000D+00  0.0000000000000D+00
392  3.9100000000000D+00  0.0000000000000D+00  0.0000000000000D+00
393  3.9200000000000D+00  0.0000000000000D+00  0.0000000000000D+00
394  3.9300000000000D+00  0.0000000000000D+00  0.0000000000000D+00
395  3.9400000000000D+00  0.0000000000000D+00  0.0000000000000D+00
396  3.9500000000000D+00  0.0000000000000D+00  0.0000000000000D+00
397  3.9600000000000D+00  0.0000000000000D+00  0.0000000000000D+00
398  3.9700000000000D+00  0.0000000000000D+00  0.0000000000000D+00
399  3.9800000000000D+00  0.0000000000000D+00  0.0000000000000D+00
400  3.9900000000000D+00  0.0000000000000D+00  0.0000000000000D+00
401  4.0000000000000D+00  0.0000000000000D+00  0.0000000000000D+00
402  4.0100000000000D+00  0.0000000000000D+00  0.0000000000000D+00
403  4.0200000000000D+00  0.0000000000000D+00  0.0000000000000D+00
404  4.0300000000000D+00  0.0000000000000D+00  0.0000000000000D+00
405  4.0400000000000D+00  0.0000000000000D+00  0.0000000000000D+00
406  4.0500000000000D+00  0.0000000000000D+00  0.0000000000000D+00
407  4.0600000000000D+00  0.0000000000000D+00  0.0000000000000D+00
408  4.0700000000000D+00  0.0000000000000D+00  0.0000000000000D+00
409  4.0800000000000D+00  0.0000000000000D+00  0.0000000000000D+00
410  4.0900000000000D+00  0.0000000000000D+00  0.0000000000000D+00
411  4.1000000000000D+00  0.0000000000000D+00  0.0000000000000D+00
412  4.1100000000000D+00  0.0000000000000D+00  0.0000000000000D+00
413  4.1200000000000D+00  0.0000000000000D+00  0.0000000000000D+00
414  4.1300000000000D+00  0.0000000000000D+00  0.0000000000000D+00
415  4.1400000000000D+00  0.0000000000000D+00  0.0000000000000D+00
416  4.1500000000000D+00  0.0000000000000D+00  0.0000000000000D+00
417  4.1600000000000D+00  0.0000000000000D+00  0.0000000000000D+00
418  4.1700000000000D+00  0.0000000000000D+00  0.0000000000000D+00
419  4.1800000000000D+00  0.0000000000000D+00  0.0000000000000D+00
420  4.1900000000000D+00  0.0000000000000D+00  0.0000000000000D+00
421  4.2000000000000D+00  0.0000000000000D+00  0.0000000000000D+00
422  4.2100000000000D+00  0.0000000000000D+00  0.0000000000000D+00
423  4.2200000000000D+00  0.0000000000000D+00  0.0000000000000D+00
424  4.2300000000000D+00  0.0000000000000D+00  0.0000000000000D+00
425  4.2400000000000D+00  0.0000000000000D+00  0.0000000000000D+00
426  4.2500000000000D+00  0.0000000000000D+00  0.0000000000000D+00
427  4.2600000000000D+00  0.0000000000000D+00  0.0000000000000D+00
428  4.2700000000000D+00  0.0000000000000D+00  0.0000000000000D+00
429  4.2800000000000D+00  0.0000000000000D+00  0.0000000000000D+00
430  4.2900000000000D+00  0.0000000000000D+00  0.0000000000000D+00
431  4.3000000000000D+00  0.0000000000000D+00  0.0000000000000D+00
432  4.3100000000000D+00  0.0000000000000D+00  0.0000000000000D+00
433  4.3200000000000D+00  0.0000000000000D+00  0.0000000000000D+00
434  4.3300000000000D+00  0.0000000000000D+00  0.0000000000000D+00
435  4.3400000000000D+00  0.0000000000000D+00  0.0000000000000D+00
436  4.3500000000000D+00  0.0000000000000D+00  0.0000000000000D+00
437  4.3600000000000D+00  0.0000000000000D+00  0.0000000000000D+00
438  4.3700000000000D+00  0.0000000000000D+00  0.0000000000000D+00
439  4.3800000000000D+00  0.0000000000000D+00  0.0000000000000D+00
440  4.3900000000000D+00  0.0000000000000D+00  0.0000000000000D+00
441  4.4000000000000D+00  0.0000000000000D+00  0.0000000000000D+00
442  4.4100000000000D+00  0.0000000000000D+00  0.0000000000000D+00
443  4.4200000000000D+00  0.0000000000000D+00  0.0000000000000D+00
444  4.4300000000000D+00  0.0000000000000D+00  0.0000000000000D+00