Co    ONCVPSP  r_core=  2.21  2.21  1.92
27.0000      9.0000      140824    zatom,zion,pspd
8    11     2     4   601     0    pspcod,pspxc,lmax,lloc,mmax,r2well
6.00000000  1.50000000  0.00000000    rchrg fchrg qchrg
2     2     2     0     0    nproj
0                 extension_switch
0                         5.5045735981581D+00  8.4454721667340D-01
1  0.0000000000000D+00 -0.0000000000000D+00  0.0000000000000D+00
2  1.0000000000000D-02 -2.0129333519854D-02  6.2952027894737D-04
3  2.0000000000000D-02 -4.0259983563925D-02  1.2232380863733D-03
4  3.0000000000000D-02 -6.0393238632009D-02  1.7455274363523D-03
5  4.0000000000000D-02 -8.0530331248283D-02  2.1611146615960D-03
6  5.0000000000000D-02 -1.0067241015644D-01  2.4352529435142D-03
7  6.0000000000000D-02 -1.2082051273399D-01  2.5338948931563D-03
8  7.0000000000000D-02 -1.4097553769815D-01  2.4238625432047D-03
9  8.0000000000000D-02 -1.6113821817534D-01  2.0730141200050D-03
10  9.0000000000000D-02 -1.8130909520560D-01  1.4504069737171D-03
11  1.0000000000000D-01 -2.0148849175211D-01  5.2645606125469D-04
12  1.1000000000000D-01 -2.2167648728608D-01 -7.2691261528701D-04
13  1.2000000000000D-01 -2.4187289301496D-01 -2.3361141880447D-03
14  1.3000000000000D-01 -2.6207722782260D-01 -4.3257632861109D-03
15  1.4000000000000D-01 -2.8228869498431D-01 -6.7185390997522D-03
16  1.5000000000000D-01 -3.0250615972806D-01 -9.5350577003792D-03
17  1.6000000000000D-01 -3.2272812769506D-01 -1.2793752050111D-02
18  1.7000000000000D-01 -3.4295272437657D-01 -1.6510760252978D-02
19  1.8000000000000D-01 -3.6317767556971D-01 -2.0699822389785D-02
20  1.9000000000000D-01 -3.8340028891343D-01 -2.5372186368220D-02
21  2.0000000000000D-01 -4.0361743658521D-01 -3.0536523298415D-02
22  2.1000000000000D-01 -4.2382553916936D-01 -3.6198852510363D-02
23  2.2000000000000D-01 -4.4402055079268D-01 -4.2362476762496D-02
24  2.3000000000000D-01 -4.6419794553491D-01 -4.9027927708765D-02
25  2.4000000000000D-01 -4.8435270520356D-01 -5.6192922081305D-02
26  2.5000000000000D-01 -5.0447930849374D-01 -6.3852328668617D-02
27  2.6000000000000D-01 -5.2457172154165D-01 -7.1998146151252D-02
28  2.7000000000000D-01 -5.4462338999859D-01 -8.0619492285305D-02
29  2.8000000000000D-01 -5.6462723259292D-01 -8.9702604224447D-02
30  2.9000000000000D-01 -5.8457563620919D-01 -9.9230850059623D-02
31  3.0000000000000D-01 -6.0446045255053D-01 -1.0918475173098D-01
32  3.1000000000000D-01 -6.2427299639755D-01 -1.1954201924092D-01
33  3.2000000000000D-01 -6.4400404549475D-01 -1.3027759611035D-01
34  3.3000000000000D-01 -6.6364384210005D-01 -1.4136371570744D-01
35  3.4000000000000D-01 -6.8318209605656D-01 -1.5276996930208D-01
36  3.5000000000000D-01 -7.0260798978507D-01 -1.6446338346031D-01
37  3.6000000000000D-01 -7.2191018470191D-01 -1.7640851042914D-01
38  3.7000000000000D-01 -7.4107682950179D-01 -1.8856752570020D-01
39  3.8000000000000D-01 -7.6009557004286D-01 -2.0090033846934D-01
40  3.9000000000000D-01 -7.7895356099630D-01 -2.1336471087475D-01
41  4.0000000000000D-01 -7.9763747910242D-01 -2.2591638550046D-01
42  4.1000000000000D-01 -8.1613353815546D-01 -2.3850922306460D-01
43  4.2000000000000D-01 -8.3442750565363D-01 -2.5109534830189D-01
44  4.3000000000000D-01 -8.5250472110345D-01 -2.6362530388051D-01
45  4.4000000000000D-01 -8.7035011596052D-01 -2.7604821187708D-01
46  4.5000000000000D-01 -8.8794823518632D-01 -2.8831194230464D-01
47  4.6000000000000D-01 -9.0528326039492D-01 -3.0036328813529D-01
48  4.7000000000000D-01 -9.2233903455110D-01 -3.1214814616548D-01
49  4.8000000000000D-01 -9.3909908806752D-01 -3.2361170216820D-01
50  4.9000000000000D-01 -9.5554666586134D-01 -3.3469861681952D-01
51  5.0000000000000D-01 -9.7166475856906D-01 -3.4535323723522D-01
52  5.1000000000000D-01 -9.8743613125713D-01 -3.5551977987375D-01
53  5.2000000000000D-01 -1.0028433536731D+00 -3.6514252033846D-01
54  5.3000000000000D-01 -1.0178688384314D+00 -3.7416603344922D-01
55  5.4000000000000D-01 -1.0324948705004D+00 -3.8253536052886D-01
56  5.5000000000000D-01 -1.0467036436313D+00 -3.9019622194603D-01
57  5.6000000000000D-01 -1.0604773010334D+00 -3.9709524770837D-01
58  5.7000000000000D-01 -1.0737979646749D+00 -4.0318012584187D-01
59  5.8000000000000D-01 -1.0866477851432D+00 -4.0839987670991D-01
60  5.9000000000000D-01 -1.0990089689536D+00 -4.1270497500750D-01
61  6.0000000000000D-01 -1.1108638289190D+00 -4.1604760845050D-01
62  6.1000000000000D-01 -1.1221948211016D+00 -4.1838184464550D-01
63  6.2000000000000D-01 -1.1329845792105D+00 -4.1966377797346D-01
64  6.3000000000000D-01 -1.1432159756849D+00 -4.1985181901705D-01
65  6.4000000000000D-01 -1.1528721435161D+00 -4.1890675393791D-01
66  6.5000000000000D-01 -1.1619365259486D+00 -4.1679195418059D-01
67  6.6000000000000D-01 -1.1703929321881D+00 -4.1347360229713D-01
68  6.7000000000000D-01 -1.1782255638515D+00 -4.0892075830197D-01
69  6.8000000000000D-01 -1.1854190577726D+00 -4.0310550726792D-01
70  6.9000000000000D-01 -1.1919585459053D+00 -3.9600317472406D-01
71  7.0000000000000D-01 -1.1978296883515D+00 -3.8759240362136D-01
72  7.1000000000000D-01 -1.2030187133186D+00 -3.7785525902042D-01
73  7.2000000000000D-01 -1.2075124621467D+00 -3.6677734671990D-01
74  7.3000000000000D-01 -1.2112984253015D+00 -3.5434788574422D-01
75  7.4000000000000D-01 -1.2143648006351D+00 -3.4055985875911D-01
76  7.5000000000000D-01 -1.2167005214894D+00 -3.2541003188505D-01
77  7.6000000000000D-01 -1.2182952959597D+00 -3.0889901348576D-01
78  7.7000000000000D-01 -1.2191396477053D+00 -2.9103130905287D-01
79  7.8000000000000D-01 -1.2192249536767D+00 -2.7181535527085D-01
80  7.9000000000000D-01 -1.2185434806325D+00 -2.5126354096164D-01
81  8.0000000000000D-01 -1.2170884203328D+00 -2.2939221477315D-01
82  8.1000000000000D-01 -1.2148539233032D+00 -2.0622167952304D-01
83  8.2000000000000D-01 -1.2118351310583D+00 -1.8177617315430D-01
84  8.3000000000000D-01 -1.2080282066806D+00 -1.5608383630374D-01
85  8.4000000000000D-01 -1.2034303636506D+00 -1.2917666652696D-01
86  8.5000000000000D-01 -1.1980398928250D+00 -1.0109045926583D-01
87  8.6000000000000D-01 -1.1918561874624D+00 -7.1864735685304D-02
88  8.7000000000000D-01 -1.1848797661960D+00 -4.1542657548898D-02
89  8.8000000000000D-01 -1.1771122938564D+00 -1.0170929343964D-02
90  8.9000000000000D-01 -1.1685566000480D+00  2.2200312086630D-02
91  9.0000000000000D-01 -1.1592166953835D+00  5.5517620102672D-02
92  9.1000000000000D-01 -1.1490977852862D+00  8.9724372658719D-02
93  9.2000000000000D-01 -1.1382062812726D+00  1.2476091811705D-01
94  9.3000000000000D-01 -1.1265498096304D+00  1.6056473200516D-01
95  9.4000000000000D-01 -1.1141372174188D+00  1.9707058417103D-01
96  9.5000000000000D-01 -1.1009785757227D+00  2.3421071571174D-01
97  9.6000000000000D-01 -1.0870851801080D+00  2.7191502496660D-01
98  9.7000000000000D-01 -1.0724695418113D+00  3.1011124589313D-01
99  9.8000000000000D-01 -1.0571453932874D+00  3.4872515995753D-01
100  9.9000000000000D-01 -1.0411276899146D+00  3.8768085405761D-01
101  1.0000000000000D+00 -1.0244325758214D+00  4.2690088292390D-01
102  1.0100000000000D+00 -1.0070773789782D+00  4.6630650864858D-01
103  1.0200000000000D+00 -9.8908059402918D-01  5.0581792708778D-01
104  1.0300000000000D+00 -9.7046186043627D-01  5.4535447960189D-01
105  1.0400000000000D+00 -9.5124193554366D-01  5.8483479338564D-01
106  1.0500000000000D+00 -9.3144270132516D-01  6.2417738494890D-01
107  1.0600000000000D+00 -9.1108709359700D-01  6.6330055525483D-01
108  1.0700000000000D+00 -8.9019908453930D-01  7.0212272686084D-01
109  1.0800000000000D+00 -8.6880364824561D-01  7.4056261411960D-01
110  1.0900000000000D+00 -8.4692673143323D-01  7.7853940205656D-01
111  1.1000000000000D+00 -8.2459520612811D-01  8.1597355499931D-01
112  1.1100000000000D+00 -8.0183681863274D-01  8.5278642927519D-01
113  1.1200000000000D+00 -7.7868015052969D-01  8.8890067784848D-01
114  1.1300000000000D+00 -7.5515460360673D-01  9.2424001309462D-01
115  1.1400000000000D+00 -7.3129027049311D-01  9.5873086169282D-01
116  1.1500000000000D+00 -7.0711793584014D-01  9.9230126055351D-01
117  1.1600000000000D+00 -6.8266902661431D-01  1.0248812771538D+00
118  1.1700000000000D+00 -6.5797558059571D-01  1.0564031148655D+00
119  1.1800000000000D+00 -6.3307004551683D-01  1.0868025597765D+00
120  1.1900000000000D+00 -6.0798535310066D-01  1.1160177193935D+00
121  1.2000000000000D+00 -5.8275491471293D-01  1.1439890258485D+00
122  1.2100000000000D+00 -5.5741234062990D-01  1.1706610526821D+00
123  1.2200000000000D+00 -5.3199147414084D-01  1.1959816659486D+00
124  1.2300000000000D+00 -5.0652646721426D-01  1.2199014246452D+00
125  1.2400000000000D+00 -4.8105154533624D-01  1.2423748733991D+00
126  1.2500000000000D+00 -4.5560081968465D-01  1.2633610416166D+00
127  1.2600000000000D+00 -4.3020857246187D-01  1.2828217453602D+00
128  1.2700000000000D+00 -4.0490898816033D-01  1.3007229004387D+00
129  1.2800000000000D+00 -3.7973580275398D-01  1.3170355911035D+00
130  1.2900000000000D+00 -3.5472282339297D-01  1.3317336340617D+00
131  1.3000000000000D+00 -3.2990346962128D-01  1.3447954570205D+00
132  1.3100000000000D+00 -3.0531046911251D-01  1.3562046828779D+00
133  1.3200000000000D+00 -2.8097657314987D-01  1.3659475032526D+00
134  1.3300000000000D+00 -2.5693364662550D-01  1.3740156613298D+00
135  1.3400000000000D+00 -2.3321281698696D-01  1.3804053727061D+00
136  1.3500000000000D+00 -2.0984523045953D-01  1.3851152737738D+00
137  1.3600000000000D+00 -1.8686035825661D-01  1.3881507662136D+00
138  1.3700000000000D+00 -1.6428737465558D-01  1.3895199609374D+00
139  1.3800000000000D+00 -1.4215478863086D-01  1.3892348552184D+00
140  1.3900000000000D+00 -1.2048934508099D-01  1.3873131549296D+00
141  1.4000000000000D+00 -9.9317824976199D-02  1.3837745099202D+00
142  1.4100000000000D+00 -7.8665050631067D-02  1.3786442474563D+00
143  1.4200000000000D+00 -5.8555025614842D-02  1.3719507560868D+00
144  1.4300000000000D+00 -3.9011041704872D-02  1.3637256541054D+00
145  1.4400000000000D+00 -2.0054025262632D-02  1.3540055047364D+00
146  1.4500000000000D+00 -1.7050912777213D-03  1.3428285578174D+00
147  1.4600000000000D+00  1.6017425677104D-02  1.3302379820495D+00
148  1.4700000000000D+00  3.3095609405759D-02  1.3162789554889D+00
149  1.4800000000000D+00  4.9513204400224D-02  1.3010000573817D+00
150  1.4900000000000D+00  6.5255891820810D-02  1.2844526543803D+00
151  1.5000000000000D+00  8.0309647806647D-02  1.2666903788813D+00
152  1.5100000000000D+00  9.4663717837076D-02  1.2477696377074D+00
153  1.5200000000000D+00  1.0830684572351D-01  1.2277487245713D+00
154  1.5300000000000D+00  1.2123135779355D-01  1.2066879952088D+00
155  1.5400000000000D+00  1.3342949124679D-01  1.1846495979346D+00
156  1.5500000000000D+00  1.4489621922391D-01  1.1616971126000D+00
157  1.5600000000000D+00  1.5562746628345D-01  1.1378954206262D+00
158  1.5700000000000D+00  1.6562092273432D-01  1.1133107113606D+00
159  1.5800000000000D+00  1.7487615024495D-01  1.0880094223787D+00
160  1.5900000000000D+00  1.8339362953227D-01  1.0620596777507D+00
161  1.6000000000000D+00  1.9117644321869D-01  1.0355283311061D+00
162  1.6100000000000D+00  1.9822792074143D-01  1.0084846958532D+00
163  1.6200000000000D+00  2.0455449849238D-01  9.8099496731433D-01
164  1.6300000000000D+00  2.1016238484635D-01  9.5312883529129D-01
165  1.6400000000000D+00  2.1506116297333D-01  9.2495084626069D-01
166  1.6500000000000D+00  2.1925991350324D-01  8.9653019623247D-01
167  1.6600000000000D+00  2.2277112777800D-01  8.6792888896473D-01
168  1.6700000000000D+00  2.2560670973356D-01  8.3921471136787D-01
169  1.6800000000000D+00  2.2778179501850D-01  8.1044633929169D-01
170  1.6900000000000D+00  2.2931101631704D-01  7.8168920013395D-01
171  1.7000000000000D+00  2.3021187053962D-01  7.5299797906450D-01
172  1.7100000000000D+00  2.3050157598016D-01  7.2443476465245D-01
173  1.7200000000000D+00  2.3019969602602D-01  6.9604972666749D-01
174  1.7300000000000D+00  2.2932583869724D-01  6.6790060984519D-01
175  1.7400000000000D+00  2.2790133747318D-01  6.4003269704720D-01
176  1.7500000000000D+00  2.2594793504891D-01  6.1249836206621D-01
177  1.7600000000000D+00  2.2348845047294D-01  5.8533779253811D-01
178  1.7700000000000D+00  2.2054643808023D-01  5.5859695151205D-01
179  1.7800000000000D+00  2.1714594608035D-01  5.3231088467207D-01
180  1.7900000000000D+00  2.1331193225862D-01  5.0651806645526D-01
181  1.8000000000000D+00  2.0906947608992D-01  4.8124858384769D-01
182  1.8100000000000D+00  2.0444440800830D-01  4.5653218272507D-01
183  1.8200000000000D+00  1.9946278531905D-01  4.3239479732275D-01
184  1.8300000000000D+00  1.9415102133513D-01  4.0885842682270D-01
185  1.8400000000000D+00  1.8853612286706D-01  3.8594540499261D-01
186  1.8500000000000D+00  1.8264486881760D-01  3.6367157414481D-01
187  1.8600000000000D+00  1.7650525065489D-01  3.4205627147955D-01
188  1.8700000000000D+00  1.7014396933482D-01  3.2110941870716D-01
189  1.8800000000000D+00  1.6358980955587D-01  3.0084673066200D-01
190  1.8900000000000D+00  1.5686935965629D-01  2.8127394745484D-01
191  1.9000000000000D+00  1.5001128831117D-01  2.6240099578635D-01
192  1.9100000000000D+00  1.4304257131070D-01  2.4423180625512D-01
193  1.9200000000000D+00  1.3599097210390D-01  2.2677015155027D-01
194  1.9300000000000D+00  1.2888402608528D-01  2.1001834020478D-01
195  1.9400000000000D+00  1.2174789859420D-01  1.9397468011917D-01
196  1.9500000000000D+00  1.1461085843112D-01  1.7863971756338D-01
197  1.9600000000000D+00  1.0749726515079D-01  1.6400778238922D-01
198  1.9700000000000D+00  1.0043489923794D-01  1.5007606774234D-01
199  1.9800000000000D+00  9.3447563652602D-02  1.3683739969565D-01
200  1.9900000000000D+00  8.6560709245687D-02  1.2428490691842D-01
201  2.0000000000000D+00  7.9798745162861D-02  1.1241066421713D-01
202  2.0100000000000D+00  7.3183680679114D-02  1.0120475747006D-01
203  2.0200000000000D+00  6.6740853573409D-02  9.0657938795479D-02
204  2.0300000000000D+00  6.0489228886401D-02  8.0758867604771D-02
205  2.0400000000000D+00  5.4452013496043D-02  7.1496283407253D-02
206  2.0500000000000D+00  4.8648289062336D-02  6.2858483775294D-02
207  2.0600000000000D+00  4.3096761162224D-02  5.4833190670609D-02
208  2.0700000000000D+00  3.7817728136071D-02  4.7407624728930D-02
209  2.0800000000000D+00  3.2825369708189D-02  4.0569870918867D-02
210  2.0900000000000D+00  2.8138629995523D-02  3.4306275339294D-02
211  2.1000000000000D+00  2.3770536799177D-02  2.8605036311424D-02
212  2.1100000000000D+00  1.9734784995748D-02  2.3453644996932D-02
213  2.1200000000000D+00  1.6046082660084D-02  1.8838874643640D-02
214  2.1300000000000D+00  1.2712557393167D-02  1.4750503308588D-02
215  2.1400000000000D+00  9.7473572534800D-03  1.1175192918541D-02
216  2.1500000000000D+00  7.1574305910663D-03  8.1030675016969D-03
217  2.1600000000000D+00  4.9496298656012D-03  5.5239541209431D-03
218  2.1700000000000D+00  3.1331512441328D-03  3.4258489435137D-03
219  2.1800000000000D+00  1.7089708583267D-03  1.8020422977984D-03
220  2.1900000000000D+00  7.2250296836425D-04  6.8123331090561D-04
221  2.2000000000000D+00  1.3144895268371D-04  1.2415225018742D-05
222  2.2100000000000D+00 -1.6265959434203D-04 -3.0655377941115D-04
223  2.2200000000000D+00 -2.0404455511159D-04 -3.1024732500737D-04
224  2.2300000000000D+00 -1.0430272854255D-04 -1.4866125145544D-04
225  2.2400000000000D+00  5.4023173303287D-06  9.9156674386918D-06
226  2.2500000000000D+00  1.1371286079069D-05  2.0871393554997D-05
227  2.2600000000000D+00  4.3591852191718D-06  8.0010536764117D-06
228  2.2700000000000D+00  0.0000000000000D+00  0.0000000000000D+00
229  2.2800000000000D+00  0.0000000000000D+00  0.0000000000000D+00
230  2.2900000000000D+00  0.0000000000000D+00  0.0000000000000D+00
231  2.3000000000000D+00  0.0000000000000D+00  0.0000000000000D+00
232  2.3100000000000D+00  0.0000000000000D+00  0.0000000000000D+00
233  2.3200000000000D+00  0.0000000000000D+00  0.0000000000000D+00
234  2.3300000000000D+00  0.0000000000000D+00  0.0000000000000D+00
235  2.3400000000000D+00  0.0000000000000D+00  0.0000000000000D+00
236  2.3500000000000D+00  0.0000000000000D+00  0.0000000000000D+00
237  2.3600000000000D+00  0.0000000000000D+00  0.0000000000000D+00
238  2.3700000000000D+00  0.0000000000000D+00  0.0000000000000D+00
239  2.3800000000000D+00  0.0000000000000D+00  0.0000000000000D+00
240  2.3900000000000D+00  0.0000000000000D+00  0.0000000000000D+00
241  2.4000000000000D+00  0.0000000000000D+00  0.0000000000000D+00
242  2.4100000000000D+00  0.0000000000000D+00  0.0000000000000D+00
243  2.4200000000000D+00  0.0000000000000D+00  0.0000000000000D+00
244  2.4300000000000D+00  0.0000000000000D+00  0.0000000000000D+00
245  2.4400000000000D+00  0.0000000000000D+00  0.0000000000000D+00
246  2.4500000000000D+00  0.0000000000000D+00  0.0000000000000D+00
247  2.4600000000000D+00  0.0000000000000D+00  0.0000000000000D+00
248  2.4700000000000D+00  0.0000000000000D+00  0.0000000000000D+00
249  2.4800000000000D+00  0.0000000000000D+00  0.0000000000000D+00
250  2.4900000000000D+00  0.0000000000000D+00  0.0000000000000D+00
251  2.5000000000000D+00  0.0000000000000D+00  0.0000000000000D+00
252  2.5100000000000D+00  0.0000000000000D+00  0.0000000000000D+00
253  2.5200000000000D+00  0.0000000000000D+00  0.0000000000000D+00
254  2.5300000000000D+00  0.0000000000000D+00  0.0000000000000D+00
255  2.5400000000000D+00  0.0000000000000D+00  0.0000000000000D+00
256  2.5500000000000D+00  0.0000000000000D+00  0.0000000000000D+00
257  2.5600000000000D+00  0.0000000000000D+00  0.0000000000000D+00
258  2.5700000000000D+00  0.0000000000000D+00  0.0000000000000D+00
259  2.5800000000000D+00  0.0000000000000D+00  0.0000000000000D+00
260  2.5900000000000D+00  0.0000000000000D+00  0.0000000000000D+00
261  2.6000000000000D+00  0.0000000000000D+00  0.0000000000000D+00
262  2.6100000000000D+00  0.0000000000000D+00  0.0000000000000D+00
263  2.6200000000000D+00  0.0000000000000D+00  0.0000000000000D+00
264  2.6300000000000D+00  0.0000000000000D+00  0.0000000000000D+00
265  2.6400000000000D+00  0.0000000000000D+00  0.0000000000000D+00
266  2.6500000000000D+00  0.0000000000000D+00  0.0000000000000D+00
267  2.6600000000000D+00  0.0000000000000D+00  0.0000000000000D+00
268  2.6700000000000D+00  0.0000000000000D+00  0.0000000000000D+00
269  2.6800000000000D+00  0.0000000000000D+00  0.0000000000000D+00
270  2.6900000000000D+00  0.0000000000000D+00  0.0000000000000D+00
271  2.7000000000000D+00  0.0000000000000D+00  0.0000000000000D+00
272  2.7100000000000D+00  0.0000000000000D+00  0.0000000000000D+00
273  2.7200000000000D+00  0.0000000000000D+00  0.0000000000000D+00
274  2.7300000000000D+00  0.0000000000000D+00  0.0000000000000D+00
275  2.7400000000000D+00  0.0000000000000D+00  0.0000000000000D+00
276  2.7500000000000D+00  0.0000000000000D+00  0.0000000000000D+00
277  2.7600000000000D+00  0.0000000000000D+00  0.0000000000000D+00
278  2.7700000000000D+00  0.0000000000000D+00  0.0000000000000D+00
279  2.7800000000000D+00  0.0000000000000D+00  0.0000000000000D+00
280  2.7900000000000D+00  0.0000000000000D+00  0.0000000000000D+00
281  2.8000000000000D+00  0.0000000000000D+00  0.0000000000000D+00
282  2.8100000000000D+00  0.0000000000000D+00  0.0000000000000D+00
283  2.8200000000000D+00  0.0000000000000D+00  0.0000000000000D+00
284  2.8300000000000D+00  0.0000000000000D+00  0.0000000000000D+00
285  2.8400000000000D+00  0.0000000000000D+00  0.0000000000000D+00
286  2.8500000000000D+00  0.0000000000000D+00  0.0000000000000D+00
287  2.8600000000000D+00  0.0000000000000D+00  0.0000000000000D+00
288  2.8700000000000D+00  0.0000000000000D+00  0.0000000000000D+00
289  2.8800000000000D+00  0.0000000000000D+00  0.0000000000000D+00
290  2.8900000000000D+00  0.0000000000000D+00  0.0000000000000D+00
291  2.9000000000000D+00  0.0000000000000D+00  0.0000000000000D+00
292  2.9100000000000D+00  0.0000000000000D+00  0.0000000000000D+00
293  2.9200000000000D+00  0.0000000000000D+00  0.0000000000000D+00
294  2.9300000000000D+00  0.0000000000000D+00  0.0000000000000D+00
295  2.9400000000000D+00  0.0000000000000D+00  0.0000000000000D+00
296  2.9500000000000D+00  0.0000000000000D+00  0.0000000000000D+00
297  2.9600000000000D+00  0.0000000000000D+00  0.0000000000000D+00
298  2.9700000000000D+00  0.0000000000000D+00  0.0000000000000D+00
299  2.9800000000000D+00  0.0000000000000D+00  0.0000000000000D+00
300  2.9900000000000D+00  0.0000000000000D+00  0.0000000000000D+00
301  3.0000000000000D+00  0.0000000000000D+00  0.0000000000000D+00
302  3.0100000000000D+00  0.0000000000000D+00  0.0000000000000D+00
303  3.0200000000000D+00  0.0000000000000D+00  0.0000000000000D+00
304  3.0300000000000D+00  0.0000000000000D+00  0.0000000000000D+00
305  3.0400000000000D+00  0.0000000000000D+00  0.0000000000000D+00
306  3.0500000000000D+00  0.0000000000000D+00  0.0000000000000D+00
307  3.0600000000000D+00  0.0000000000000D+00  0.0000000000000D+00
308  3.0700000000000D+00  0.0000000000000D+00  0.0000000000000D+00
309  3.0800000000000D+00  0.0000000000000D+00  0.0000000000000D+00
310  3.0900000000000D+00  0.0000000000000D+00  0.0000000000000D+00
311  3.1000000000000D+00  0.0000000000000D+00  0.0000000000000D+00
312  3.1100000000000D+00  0.0000000000000D+00  0.0000000000000D+00
313  3.1200000000000D+00  0.0000000000000D+00  0.0000000000000D+00
314  3.1300000000000D+00  0.0000000000000D+00  0.0000000000000D+00
315  3.1400000000000D+00  0.0000000000000D+00  0.0000000000000D+00
316  3.1500000000000D+00  0.0000000000000D+00  0.0000000000000D+00
317  3.1600000000000D+00  0.0000000000000D+00  0.0000000000000D+00
318  3.1700000000000D+00  0.0000000000000D+00  0.0000000000000D+00
319  3.1800000000000D+00  0.0000000000000D+00  0.0000000000000D+00
320  3.1900000000000D+00  0.0000000000000D+00  0.0000000000000D+00
321  3.2000000000000D+00  0.0000000000000D+00  0.0000000000000D+00
322  3.2100000000000D+00  0.0000000000000D+00  0.0000000000000D+00
323  3.2200000000000D+00  0.0000000000000D+00  0.0000000000000D+00
324  3.2300000000000D+00  0.0000000000000D+00  0.0000000000000D+00
325  3.2400000000000D+00  0.0000000000000D+00  0.0000000000000D+00
326  3.2500000000000D+00  0.0000000000000D+00  0.0000000000000D+00
327  3.2600000000000D+00  0.0000000000000D+00  0.0000000000000D+00
328  3.2700000000000D+00  0.0000000000000D+00  0.0000000000000D+00
329  3.2800000000000D+00  0.0000000000000D+00  0.0000000000000D+00
330  3.2900000000000D+00  0.0000000000000D+00  0.0000000000000D+00
331  3.3000000000000D+00  0.0000000000000D+00  0.0000000000000D+00
332  3.3100000000000D+00  0.0000000000000D+00  0.0000000000000D+00
333  3.3200000000000D+00  0.0000000000000D+00  0.0000000000000D+00
334  3.3300000000000D+00  0.0000000000000D+00  0.0000000000000D+00
335  3.3400000000000D+00  0.0000000000000D+00  0.0000000000000D+00
336  3.3500000000000D+00  0.0000000000000D+00  0.0000000000000D+00
337  3.3600000000000D+00  0.0000000000000D+00  0.0000000000000D+00
338  3.3700000000000D+00  0.0000000000000D+00  0.0000000000000D+00
339  3.3800000000000D+00  0.0000000000000D+00  0.0000000000000D+00
340  3.3900000000000D+00  0.0000000000000D+00  0.0000000000000D+00
341  3.4000000000000D+00  0.0000000000000D+00  0.0000000000000D+00
342  3.4100000000000D+00  0.0000000000000D+00  0.0000000000000D+00
343  3.4200000000000D+00  0.0000000000000D+00  0.0000000000000D+00
344  3.4300000000000D+00  0.0000000000000D+00  0.0000000000000D+00
345  3.4400000000000D+00  0.0000000000000D+00  0.0000000000000D+00
346  3.4500000000000D+00  0.0000000000000D+00  0.0000000000000D+00
347  3.4600000000000D+00  0.0000000000000D+00  0.0000000000000D+00
348  3.4700000000000D+00  0.0000000000000D+00  0.0000000000000D+00
349  3.4800000000000D+00  0.0000000000000D+00  0.0000000000000D+00
350  3.4900000000000D+00  0.0000000000000D+00  0.0000000000000D+00
351  3.5000000000000D+00  0.0000000000000D+00  0.0000000000000D+00
352  3.5100000000000D+00  0.0000000000000D+00  0.0000000000000D+00
353  3.5200000000000D+00  0.0000000000000D+00  0.0000000000000D+00
354  3.5300000000000D+00  0.0000000000000D+00  0.0000000000000D+00
355  3.5400000000000D+00  0.0000000000000D+00  0.0000000000000D+00
356  3.5500000000000D+00  0.0000000000000D+00  0.0000000000000D+00
357  3.5600000000000D+00  0.0000000000000D+00  0.0000000000000D+00
358  3.5700000000000D+00  0.0000000000000D+00  0.0000000000000D+00
359  3.5800000000000D+00  0.0000000000000D+00  0.0000000000000D+00
360  3.5900000000000D+00  0.0000000000000D+00  0.0000000000000D+00
361  3.6000000000000D+00  0.0000000000000D+00  0.0000000000000D+00
362  3.6100000000000D+00  0.0000000000000D+00  0.0000000000000D+00
363  3.6200000000000D+00  0.0000000000000D+00  0.0000000000000D+00
364  3.6300000000000D+00  0.0000000000000D+00  0.0000000000000D+00
365  3.6400000000000D+00  0.0000000000000D+00  0.0000000000000D+00
366  3.6500000000000D+00  0.0000000000000D+00  0.0000000000000D+00
367  3.6600000000000D+00  0.0000000000000D+00  0.0000000000000D+00
368  3.6700000000000D+00  0.0000000000000D+00  0.0000000000000D+00
369  3.6800000000000D+00  0.0000000000000D+00  0.0000000000000D+00
370  3.6900000000000D+00  0.0000000000000D+00  0.0000000000000D+00
371  3.7000000000000D+00  0.0000000000000D+00  0.0000000000000D+00
372  3.7100000000000D+00  0.0000000000000D+00  0.0000000000000D+00
373  3.7200000000000D+00  0.0000000000000D+00  0.0000000000000D+00
374  3.7300000000000D+00  0.0000000000000D+00  0.0000000000000D+00
375  3.7400000000000D+00  0.0000000000000D+00  0.0000000000000D+00
376  3.7500000000000D+00  0.0000000000000D+00  0.0000000000000D+00
377  3.7600000000000D+00  0.0000000000000D+00  0.0000000000000D+00
378  3.7700000000000D+00  0.0000000000000D+00  0.0000000000000D+00
379  3.7800000000000D+00  0.0000000000000D+00  0.0000000000000D+00
380  3.7900000000000D+00  0.0000000000000D+00  0.0000000000000D+00
381  3.8000000000000D+00  0.0000000000000D+00  0.0000000000000D+00
382  3.8100000000000D+00  0.0000000000000D+00  0.0000000000000D+00
383  3.8200000000000D+00  0.0000000000000D+00  0.0000000000000D+00
384  3.8300000000000D+00  0.0000000000000D+00  0.0000000000000D+00
385  3.8400000000000D+00  0.0000000000000D+00  0.0000000000000D+00
386  3.8500000000000D+00  0.0000000000000D+00  0.0000000000000D+00
387  3.8600000000000D+00  0.0000000000000D+00  0.0000000000000D+00
388  3.8700000000000D+00  0.0000000000000D+00  0.0000000000000D+00
389  3.8800000000000D+00  0.0000000000000D+00  0.0000000000000D+00
390  3.8900000000000D+00  0.0000000000000D+00  0.0000000000000D+00
391  3.9000000000000D+00  0.0000000000000D+00  0.0000000000000D+00
392  3.9100000000000D+00  0.0000000000000D+00  0.0000000000000D+00
393  3.9200000000000D+00  0.0000000000000D+00  0.0000000000000D+00
394  3.9300000000000D+00  0.0000000000000D+00  0.0000000000000D+00
395  3.9400000000000D+00  0.0000000000000D+00  0.0000000000000D+00
396  3.9500000000000D+00  0.0000000000000D+00  0.0000000000000D+00
397  3.9600000000000D+00  0.0000000000000D+00  0.0000000000000D+00
398  3.9700000000000D+00  0.0000000000000D+00  0.0000000000000D+00
399  3.9800000000000D+00  0.0000000000000D+00  0.0000000000000D+00
400  3.9900000000000D+00  0.0000000000000D+00  0.0000000000000D+00
401  4.0000000000000D+00  0.0000000000000D+00  0.0000000000000D+00
402  4.0100000000000D+00  0.0000000000000D+00  0.0000000000000D+00
403  4.0200000000000D+00  0.0000000000000D+00  0.0000000000000D+00
404  4.0300000000000D+00  0.0000000000000D+00  0.0000000000000D+00
405  4.0400000000000D+00  0.0000000000000D+00  0.0000000000000D+00
406  4.0500000000000D+00  0.0000000000000D+00  0.0000000000000D+00
407  4.0600000000000D+00  0.0000000000000D+00  0.0000000000000D+00
408  4.0700000000000D+00  0.0000000000000D+00  0.0000000000000D+00
409  4.0800000000000D+00  0.0000000000000D+00  0.0000000000000D+00
410  4.0900000000000D+00  0.0000000000000D+00  0.0000000000000D+00
411  4.1000000000000D+00  0.0000000000000D+00  0.0000000000000D+00
412  4.1100000000000D+00  0.0000000000000D+00  0.0000000000000D+00
413  4.1200000000000D+00  0.0000000000000D+00  0.0000000000000D+00
414  4.1300000000000D+00  0.0000000000000D+00  0.0000000000000D+00
415  4.1400000000000D+00  0.0000000000000D+00  0.0000000000000D+00
416  4.1500000000000D+00  0.0000000000000D+00  0.0000000000000D+00
417  4.1600000000000D+00  0.0000000000000D+00  0.0000000000000D+00
418  4.1700000000000D+00  0.0000000000000D+00  0.0000000000000D+00
419  4.1800000000000D+00  0.0000000000000D+00  0.0000000000000D+00
420  4.1900000000000D+00  0.0000000000000D+00  0.0000000000000D+00
421  4.2000000000000D+00  0.0000000000000D+00  0.0000000000000D+00
422  4.2100000000000D+00  0.0000000000000D+00  0.0000000000000D+00
423  4.2200000000000D+00  0.0000000000000D+00  0.0000000000000D+00
424  4.2300000000000D+00  0.0000000000000D+00  0.0000000000000D+00
425  4.2400000000000D+00  0.0000000000000D+00  0.0000000000000D+00
426  4.2500000000000D+00  0.0000000000000D+00  0.0000000000000D+00
427  4.2600000000000D+00  0.0000000000000D+00  0.0000000000000D+00
428  4.2700000000000D+00  0.0000000000000D+00  0.0000000000000D+00
429  4.2800000000000D+00  0.0000000000000D+00  0.0000000000000D+00
430  4.2900000000000D+00  0.0000000000000D+00  0.0000000000000D+00
431  4.3000000000000D+00  0.0000000000000D+00  0.0000000000000D+00
432  4.3100000000000D+00  0.0000000000000D+00  0.0000000000000D+00
433  4.3200000000000D+00  0.0000000000000D+00  0.0000000000000D+00
434  4.3300000000000D+00  0.0000000000000D+00  0.0000000000000D+00
435  4.3400000000000D+00  0.0000000000000D+00  0.0000000000000D+00
436  4.3500000000000D+00  0.0000000000000D+00  0.0000000000000D+00
437  4.3600000000000D+00  0.0000000000000D+00  0.0000000000000D+00
438  4.3700000000000D+00  0.0000000000000D+00  0.0000000000000D+00
439  4.3800000000000D+00  0.0000000000000D+00  0.0000000000000D+00
440  4.3900000000000D+00  0.0000000000000D+00  0.0000000000000D+00
441  4.4000000000000D+00  0.0000000000000D+00  0.0000000000000D+00
442  4.4100000000000D+00  0.0000000000000D+00  0.0000000000000D+00
443  4.4200000000000D+00  0.0000000000000D+00  0.0000000000000D+00
444  4.4300000000000D+00  0.0000000000000D+00  0.0000000000000D+00