Co    ONCVPSP  r_core=  2.21  2.21  1.87
27.0000      9.0000      140820    zatom,zion,pspd
8    11     2     4   601     0    pspcod,pspxc,lmax,lloc,mmax,r2well
6.00000000  1.20000000  0.00000000    rchrg fchrg qchrg
2     2     2     0     0    nproj
0                 extension_switch
0                         4.8208915556422D+00  6.3261458752932D-01
1  0.0000000000000D+00 -0.0000000000000D+00 -0.0000000000000D+00
2  1.0000000000000D-02 -2.5408961734454D-02 -1.4156243314875D-02
3  2.0000000000000D-02 -5.0795872894345D-02 -2.8301358217794D-02
4  3.0000000000000D-02 -7.6138744680774D-02 -4.2424208089508D-02
5  4.0000000000000D-02 -1.0141571160261D-01 -5.6513639959347D-02
6  5.0000000000000D-02 -1.2660509252230D-01 -7.0558476487119D-02
7  6.0000000000000D-02 -1.5168545097449D-01 -8.4547508133372D-02
8  7.0000000000000D-02 -1.7663565451906D-01 -9.8469485579523D-02
9  8.0000000000000D-02 -2.0143493289371D-01 -1.1231311245821D-01
10  9.0000000000000D-02 -2.2606293473534D-01 -1.2606703845298D-01
11  1.0000000000000D-01 -2.5049978264544D-01 -1.3971985282461D-01
12  1.1000000000000D-01 -2.7472612637911D-01 -1.5326007841984D-01
13  1.2000000000000D-01 -2.9872319394599D-01 -1.6667616621565D-01
14  1.3000000000000D-01 -3.2247284041581D-01 -1.7995649045082D-01
15  1.4000000000000D-01 -3.4595759423852D-01 -1.9308934439242D-01
16  1.5000000000000D-01 -3.6916070087823D-01 -2.0606293678465D-01
17  1.6000000000000D-01 -3.9206616360304D-01 -2.1886538902115D-01
18  1.7000000000000D-01 -4.1465878123410D-01 -2.3148473308326D-01
19  1.8000000000000D-01 -4.3692418273092D-01 -2.4390891027819D-01
20  1.9000000000000D-01 -4.5884885846110D-01 -2.5612577081202D-01
21  2.0000000000000D-01 -4.8042018797874D-01 -2.6812307422936D-01
22  2.1000000000000D-01 -5.0162646427082D-01 -2.7988849074223D-01
23  2.2000000000000D-01 -5.2245691428767D-01 -2.9140960347452D-01
24  2.3000000000000D-01 -5.4290171573731D-01 -3.0267391164018D-01
25  2.4000000000000D-01 -5.6295200999709D-01 -3.1366883467052D-01
26  2.5000000000000D-01 -5.8259991112475D-01 -3.2438171729964D-01
27  2.6000000000000D-01 -6.0183851095370D-01 -3.3479983562979D-01
28  2.7000000000000D-01 -6.2066188013168D-01 -3.4491040416094D-01
29  2.8000000000000D-01 -6.3906506518463D-01 -3.5470058379468D-01
30  2.9000000000000D-01 -6.5704408159596D-01 -3.6415749082021D-01
31  3.0000000000000D-01 -6.7459590287659D-01 -3.7326820686594D-01
32  3.1000000000000D-01 -6.9171844567346D-01 -3.8201978981255D-01
33  3.2000000000000D-01 -7.0841055096786D-01 -3.9039928564675D-01
34  3.3000000000000D-01 -7.2467196154578D-01 -3.9839374115047D-01
35  3.4000000000000D-01 -7.4050329534721D-01 -4.0599021786578D-01
36  3.5000000000000D-01 -7.5590601586047D-01 -4.1317580625135D-01
37  3.6000000000000D-01 -7.7088239787367D-01 -4.1993764166056D-01
38  3.7000000000000D-01 -7.8543549117243D-01 -4.2626292010347D-01
39  3.8000000000000D-01 -7.9956907975235D-01 -4.3213891568816D-01
40  3.9000000000000D-01 -8.1328763832650D-01 -4.3755299850647D-01
41  4.0000000000000D-01 -8.2659628629142D-01 -4.4249265307623D-01
42  4.1000000000000D-01 -8.3950073844738D-01 -4.4694549776531D-01
43  4.2000000000000D-01 -8.5200725328607D-01 -4.5089930481051D-01
44  4.3000000000000D-01 -8.6412257893474D-01 -4.5434202096892D-01
45  4.4000000000000D-01 -8.7585389697276D-01 -4.5726178876684D-01
46  4.5000000000000D-01 -8.8720876434851D-01 -4.5964696830849D-01
47  4.6000000000000D-01 -8.9819505364444D-01 -4.6148615960198D-01
48  4.7000000000000D-01 -9.0882089197113D-01 -4.6276822534983D-01
49  4.8000000000000D-01 -9.1909459908230D-01 -4.6348231403031D-01
50  4.9000000000000D-01 -9.2902462594566D-01 -4.6361788285048D-01
51  5.0000000000000D-01 -9.3861948531787D-01 -4.6316472399282D-01
52  5.1000000000000D-01 -9.4788769310714D-01 -4.6211298672051D-01
53  5.2000000000000D-01 -9.5683770802283D-01 -4.6045320046814D-01
54  5.3000000000000D-01 -9.6547785535723D-01 -4.5817630450097D-01
55  5.4000000000000D-01 -9.7381627631464D-01 -4.5527366786949D-01
56  5.5000000000000D-01 -9.8186086295667D-01 -4.5173711550018D-01
57  5.6000000000000D-01 -9.8961918876310D-01 -4.4755895660639D-01
58  5.7000000000000D-01 -9.9709846679298D-01 -4.4273200265664D-01
59  5.8000000000000D-01 -1.0043054687227D+00 -4.3724960175492D-01
60  5.9000000000000D-01 -1.0112464936174D+00 -4.3110565367421D-01
61  6.0000000000000D-01 -1.0179272949559D+00 -4.2429464272593D-01
62  6.1000000000000D-01 -1.0243530378942D+00 -4.1681165918591D-01
63  6.2000000000000D-01 -1.0305282635767D+00 -4.0865241851219D-01
64  6.3000000000000D-01 -1.0364568124979D+00 -3.9981329933573D-01
65  6.4000000000000D-01 -1.0421418180523D+00 -3.9029135229278D-01
66  6.5000000000000D-01 -1.0475856566537D+00 -3.8008432867449D-01
67  6.6000000000000D-01 -1.0527898963706D+00 -3.6919071192084D-01
68  6.7000000000000D-01 -1.0577552922359D+00 -3.5760972881793D-01
69  6.8000000000000D-01 -1.0624817594557D+00 -3.4534137174231D-01
70  6.9000000000000D-01 -1.0669683317741D+00 -3.3238643090230D-01
71  7.0000000000000D-01 -1.0712131588757D+00 -3.1874650877383D-01
72  7.1000000000000D-01 -1.0752134977370D+00 -3.0442403880758D-01
73  7.2000000000000D-01 -1.0789657026669D+00 -2.8942230681364D-01
74  7.3000000000000D-01 -1.0824652283489D+00 -2.7374546656480D-01
75  7.4000000000000D-01 -1.0857066186712D+00 -2.5739856774184D-01
76  7.5000000000000D-01 -1.0886835273098D+00 -2.4038756586932D-01
77  7.6000000000000D-01 -1.0913887312703D+00 -2.2271933853335D-01
78  7.7000000000000D-01 -1.0938141480961D+00 -2.0440170198594D-01
79  7.8000000000000D-01 -1.0959508600609D+00 -1.8544342555237D-01
80  7.9000000000000D-01 -1.0977891435756D+00 -1.6585424493246D-01
81  8.0000000000000D-01 -1.0993185037493D+00 -1.4564487433599D-01
82  8.1000000000000D-01 -1.1005277140219D+00 -1.2482701739120D-01
83  8.2000000000000D-01 -1.1014048607617D+00 -1.0341337676412D-01
84  8.3000000000000D-01 -1.1019373926990D+00 -8.1417662424487D-02
85  8.4000000000000D-01 -1.1021121750489D+00 -5.8854598492653D-02
86  8.5000000000000D-01 -1.1019155481496D+00 -3.5739928600042D-02
87  8.6000000000000D-01 -1.1013333904271D+00 -1.2090419693273D-02
88  8.7000000000000D-01 -1.1003511854726D+00  1.2076135788607D-02
89  8.8000000000000D-01 -1.0989540929989D+00  3.6740919437620D-02
90  8.9000000000000D-01 -1.0971270234198D+00  6.1884088174723D-02
91  9.0000000000000D-01 -1.0948547157724D+00  8.7484777398224D-02
92  9.1000000000000D-01 -1.0921218186786D+00  1.1352110605809D-01
93  9.2000000000000D-01 -1.0889129740158D+00  1.3997018373138D-01
94  9.3000000000000D-01 -1.0852129029393D+00  1.6680811977192D-01
95  9.4000000000000D-01 -1.0810064938704D+00  1.9401003460315D-01
96  9.5000000000000D-01 -1.0762788920368D+00  2.2155007321685D-01
97  9.6000000000000D-01 -1.0710155901211D+00  2.4940142093073D-01
98  9.7000000000000D-01 -1.0652025049094D+00  2.7753632206373D-01
99  9.8000000000000D-01 -1.0588260854531D+00  3.0592609762858D-01
100  9.9000000000000D-01 -1.0518734388105D+00  3.3454116953826D-01
101  1.0000000000000D+00 -1.0443323703393D+00  3.6335108861702D-01
102  1.0100000000000D+00 -1.0361914925614D+00  3.9232456121602D-01
103  1.0200000000000D+00 -1.0274403138802D+00  4.2142947977061D-01
104  1.0300000000000D+00 -1.0180693147212D+00  4.5063295451551D-01
105  1.0400000000000D+00 -1.0080699838983D+00  4.7990133987835D-01
106  1.0500000000000D+00 -9.9743511106525D-01  5.0920030155410D-01
107  1.0600000000000D+00 -9.8615865673315D-01  5.3849483573944D-01
108  1.0700000000000D+00 -9.7423589048773D-01  5.6774931841999D-01
109  1.0800000000000D+00 -9.6166343090717D-01  5.9692754333290D-01
110  1.0900000000000D+00 -9.4843929531627D-01  6.2599275894950D-01
111  1.1000000000000D+00 -9.3456322261370D-01  6.5490779517279D-01
112  1.1100000000000D+00 -9.2003643047850D-01  6.8363504576982D-01
113  1.1200000000000D+00 -9.0486175737580D-01  7.1213654361324D-01
114  1.1300000000000D+00 -8.8904353314827D-01  7.4037394059017D-01
115  1.1400000000000D+00 -8.7258819522540D-01  7.6830879915884D-01
116  1.1500000000000D+00 -8.5550377081399D-01  7.9590245921497D-01
117  1.1600000000000D+00 -8.3780001127233D-01  8.2311612672892D-01
118  1.1700000000000D+00 -8.1948840169850D-01  8.4991091019099D-01
119  1.1800000000000D+00 -8.0058258442316D-01  8.7624815127411D-01
120  1.1900000000000D+00 -7.8109785719296D-01  9.0208922362504D-01
121  1.2000000000000D+00 -7.6105116887207D-01  9.2739553723517D-01
122  1.2100000000000D+00 -7.4046161091709D-01  9.5212898511932D-01
123  1.2200000000000D+00 -7.1935005629690D-01  9.7625182788862D-01
124  1.2300000000000D+00 -6.9773897407321D-01  9.9972656320784D-01
125  1.2400000000000D+00 -6.7565272987851D-01  1.0225162806751D+00
126  1.2500000000000D+00 -6.5311756679050D-01  1.0445849010988D+00
127  1.2600000000000D+00 -6.3016117800054D-01  1.0658967345974D+00
128  1.2700000000000D+00 -6.0681296980954D-01  1.0864168740483D+00
129  1.2800000000000D+00 -5.8310408827052D-01  1.1061116626313D+00
130  1.2900000000000D+00 -5.5906696131381D-01  1.1249479402915D+00
131  1.3000000000000D+00 -5.3473556911076D-01  1.1428936905624D+00
132  1.3100000000000D+00 -5.1014529588752D-01  1.1599184291126D+00
133  1.3200000000000D+00 -4.8533265836823D-01  1.1759922134587D+00
134  1.3300000000000D+00 -4.6033547339462D-01  1.1910868823592D+00
135  1.3400000000000D+00 -4.3519253584680D-01  1.2051758220015D+00
136  1.3500000000000D+00 -4.0994369266035D-01  1.2182329576577D+00
137  1.3600000000000D+00 -3.8462955138690D-01  1.2302350005762D+00
138  1.3700000000000D+00 -3.5929145625636D-01  1.2411595952188D+00
139  1.3800000000000D+00 -3.3397154120988D-01  1.2509858186625D+00
140  1.3900000000000D+00 -3.0871204107816D-01  1.2596955934340D+00
141  1.4000000000000D+00 -2.8355602920574D-01  1.2672713376701D+00
142  1.4100000000000D+00 -2.5854638020985D-01  1.2736985494483D+00
143  1.4200000000000D+00 -2.3372612081443D-01  1.2789643076979D+00
144  1.4300000000000D+00 -2.0913867003714D-01  1.2830571511207D+00
145  1.4400000000000D+00 -1.8482628869187D-01  1.2859691545992D+00
146  1.4500000000000D+00 -1.6083216935098D-01  1.2876926927603D+00
147  1.4600000000000D+00 -1.3719772995440D-01  1.2882241728527D+00
148  1.4700000000000D+00 -1.1396459929133D-01  1.2875610450276D+00
149  1.4800000000000D+00 -9.1173503569389D-02  1.2857033678934D+00
150  1.4900000000000D+00 -6.8863564620744D-02  1.2826540942149D+00
151  1.5000000000000D+00 -4.7074419689797D-02  1.2784170915138D+00
152  1.5100000000000D+00 -2.5842169081630D-02  1.2730006915123D+00
153  1.5200000000000D+00 -5.2043947850673D-03  1.2664131728558D+00
154  1.5300000000000D+00  1.4805654327502D-02  1.2586675823735D+00
155  1.5400000000000D+00  3.4153888055308D-02  1.2497773881739D+00
156  1.5500000000000D+00  5.2809628044679D-02  1.2397597668816D+00
157  1.5600000000000D+00  7.0743088037579D-02  1.2286334806405D+00
158  1.5700000000000D+00  8.7926550480932D-02  1.2164198440048D+00
159  1.5800000000000D+00  1.0433500864429D-01  1.2031427001319D+00
160  1.5900000000000D+00  1.1994412398870D-01  1.1888274950268D+00
161  1.6000000000000D+00  1.3473402021039D-01  1.1735028377142D+00
162  1.6100000000000D+00  1.4868416169017D-01  1.1571982589357D+00
163  1.6200000000000D+00  1.6178003567585D-01  1.1399467349132D+00
164  1.6300000000000D+00  1.7400531678525D-01  1.1217817746938D+00
165  1.6400000000000D+00  1.8535097839491D-01  1.1027402537333D+00
166  1.6500000000000D+00  1.9580527645716D-01  1.0828594791993D+00
167  1.6600000000000D+00  2.0536468829346D-01  1.0621796996899D+00
168  1.6700000000000D+00  2.1402237034818D-01  1.0407417562809D+00
169  1.6800000000000D+00  2.2178022104020D-01  1.0185886967681D+00
170  1.6900000000000D+00  2.2863655237773D-01  9.9576453894395D-01
171  1.7000000000000D+00  2.3459850407874D-01  9.7231452012315D-01
172  1.7100000000000D+00  2.3966972428153D-01  9.4828537423542D-01
173  1.7200000000000D+00  2.4386232320871D-01  9.2372389943772D-01
174  1.7300000000000D+00  2.4718537952459D-01  8.9867896744342D-01
175  1.7400000000000D+00  2.4965562376298D-01  8.7319831306074D-01
176  1.7500000000000D+00  2.5128755704938D-01  8.4733222982353D-01
177  1.7600000000000D+00  2.5210212118076D-01  8.2112880033698D-01
178  1.7700000000000D+00  2.5211910553210D-01  7.9463886157471D-01
179  1.7800000000000D+00  2.5136322681328D-01  7.6791032682539D-01
180  1.7900000000000D+00  2.4985926393554D-01  7.4099345166016D-01
181  1.8000000000000D+00  2.4763529883224D-01  7.1393567935265D-01
182  1.8100000000000D+00  2.4472057036859D-01  6.8678508545022D-01
183  1.8200000000000D+00  2.4114625829550D-01  6.5958912737740D-01
184  1.8300000000000D+00  2.3694559602128D-01  6.3239446718723D-01
185  1.8400000000000D+00  2.3215266908861D-01  6.0524886846954D-01
186  1.8500000000000D+00  2.2680417397049D-01  5.7819877919658D-01
187  1.8600000000000D+00  2.2093704417056D-01  5.5129280131471D-01
188  1.8700000000000D+00  2.1459048762357D-01  5.2457619851597D-01
189  1.8800000000000D+00  2.0780429811671D-01  4.9809809774484D-01
190  1.8900000000000D+00  2.0061925969578D-01  4.7190258532141D-01
191  1.9000000000000D+00  1.9307752941372D-01  4.4603750129136D-01
192  1.9100000000000D+00  1.8522115739146D-01  4.2054682597514D-01
193  1.9200000000000D+00  1.7709348323365D-01  3.9547563237791D-01
194  1.9300000000000D+00  1.6873802719386D-01  3.7086812373711D-01
195  1.9400000000000D+00  1.6019777244884D-01  3.4676536290960D-01
196  1.9500000000000D+00  1.5151807979704D-01  3.2321209119073D-01
197  1.9600000000000D+00  1.4274047835197D-01  3.0024506037272D-01
198  1.9700000000000D+00  1.3391084543128D-01  2.7790718804073D-01
199  1.9800000000000D+00  1.2507018851599D-01  2.5623337723902D-01
200  1.9900000000000D+00  1.1626206639375D-01  2.3526125365787D-01
201  2.0000000000000D+00  1.0752860428127D-01  2.1502607828523D-01
202  2.0100000000000D+00  9.8908606278510D-02  1.9555816534515D-01
203  2.0200000000000D+00  9.0446159421886D-02  1.7689370605744D-01
204  2.0300000000000D+00  8.2175194695889D-02  1.5905652622141D-01
205  2.0400000000000D+00  7.4136802178687D-02  1.4207800385441D-01
206  2.0500000000000D+00  6.6364986913649D-02  1.2598142749396D-01
207  2.0600000000000D+00  5.8893235247193D-02  1.1078898692291D-01
208  2.0700000000000D+00  5.1757890871618D-02  9.6525451397654D-02
209  2.0800000000000D+00  4.4984103490371D-02  8.3203844207085D-02
210  2.0900000000000D+00  3.8605997015657D-02  7.0845626252673D-02
211  2.1000000000000D+00  3.2646358892154D-02  5.9460940313030D-02
212  2.1100000000000D+00  2.7129331636254D-02  4.9060769865416D-02
213  2.1200000000000D+00  2.2081018586390D-02  3.9657585350553D-02
214  2.1300000000000D+00  1.7514461891812D-02  3.1251363120174D-02
215  2.1400000000000D+00  1.3452805805487D-02  2.3850916388937D-02
216  2.1500000000000D+00  9.9065704183005D-03  1.7453310674712D-02
217  2.1600000000000D+00  6.8861029078028D-03  1.2055047838965D-02
218  2.1700000000000D+00  4.4065691466799D-03  7.6565329502675D-03
219  2.1800000000000D+00  2.4661087268079D-03  4.2427815840483D-03
220  2.1900000000000D+00  1.1308327203800D-03  1.9040895722121D-03
221  2.2000000000000D+00  3.3593473722483D-04  5.1850327138325D-04
222  2.2100000000000D+00 -6.7235388208522D-05 -1.7198264155992D-04
223  2.2200000000000D+00 -1.7564752205393D-04 -3.4127469192296D-04
224  2.2300000000000D+00 -1.0209739881250D-04 -1.9148664757889D-04
225  2.2400000000000D+00  2.5410149641846D-06  6.1166146511019D-06
226  2.2500000000000D+00  5.3485580950091D-06  1.2874803677790D-05
227  2.2600000000000D+00  2.0503710160421D-06  4.9355590477376D-06
228  2.2700000000000D+00  0.0000000000000D+00  0.0000000000000D+00
229  2.2800000000000D+00  0.0000000000000D+00  0.0000000000000D+00
230  2.2900000000000D+00  0.0000000000000D+00  0.0000000000000D+00
231  2.3000000000000D+00  0.0000000000000D+00  0.0000000000000D+00
232  2.3100000000000D+00  0.0000000000000D+00  0.0000000000000D+00
233  2.3200000000000D+00  0.0000000000000D+00  0.0000000000000D+00
234  2.3300000000000D+00  0.0000000000000D+00  0.0000000000000D+00
235  2.3400000000000D+00  0.0000000000000D+00  0.0000000000000D+00
236  2.3500000000000D+00  0.0000000000000D+00  0.0000000000000D+00
237  2.3600000000000D+00  0.0000000000000D+00  0.0000000000000D+00
238  2.3700000000000D+00  0.0000000000000D+00  0.0000000000000D+00
239  2.3800000000000D+00  0.0000000000000D+00  0.0000000000000D+00
240  2.3900000000000D+00  0.0000000000000D+00  0.0000000000000D+00
241  2.4000000000000D+00  0.0000000000000D+00  0.0000000000000D+00
242  2.4100000000000D+00  0.0000000000000D+00  0.0000000000000D+00
243  2.4200000000000D+00  0.0000000000000D+00  0.0000000000000D+00
244  2.4300000000000D+00  0.0000000000000D+00  0.0000000000000D+00
245  2.4400000000000D+00  0.0000000000000D+00  0.0000000000000D+00
246  2.4500000000000D+00  0.0000000000000D+00  0.0000000000000D+00
247  2.4600000000000D+00  0.0000000000000D+00  0.0000000000000D+00
248  2.4700000000000D+00  0.0000000000000D+00  0.0000000000000D+00
249  2.4800000000000D+00  0.0000000000000D+00  0.0000000000000D+00
250  2.4900000000000D+00  0.0000000000000D+00  0.0000000000000D+00
251  2.5000000000000D+00  0.0000000000000D+00  0.0000000000000D+00
252  2.5100000000000D+00  0.0000000000000D+00  0.0000000000000D+00
253  2.5200000000000D+00  0.0000000000000D+00  0.0000000000000D+00
254  2.5300000000000D+00  0.0000000000000D+00  0.0000000000000D+00
255  2.5400000000000D+00  0.0000000000000D+00  0.0000000000000D+00
256  2.5500000000000D+00  0.0000000000000D+00  0.0000000000000D+00
257  2.5600000000000D+00  0.0000000000000D+00  0.0000000000000D+00
258  2.5700000000000D+00  0.0000000000000D+00  0.0000000000000D+00
259  2.5800000000000D+00  0.0000000000000D+00  0.0000000000000D+00
260  2.5900000000000D+00  0.0000000000000D+00  0.0000000000000D+00
261  2.6000000000000D+00  0.0000000000000D+00  0.0000000000000D+00
262  2.6100000000000D+00  0.0000000000000D+00  0.0000000000000D+00
263  2.6200000000000D+00  0.0000000000000D+00  0.0000000000000D+00
264  2.6300000000000D+00  0.0000000000000D+00  0.0000000000000D+00
265  2.6400000000000D+00  0.0000000000000D+00  0.0000000000000D+00
266  2.6500000000000D+00  0.0000000000000D+00  0.0000000000000D+00
267  2.6600000000000D+00  0.0000000000000D+00  0.0000000000000D+00
268  2.6700000000000D+00  0.0000000000000D+00  0.0000000000000D+00
269  2.6800000000000D+00  0.0000000000000D+00  0.0000000000000D+00
270  2.6900000000000D+00  0.0000000000000D+00  0.0000000000000D+00
271  2.7000000000000D+00  0.0000000000000D+00  0.0000000000000D+00
272  2.7100000000000D+00  0.0000000000000D+00  0.0000000000000D+00
273  2.7200000000000D+00  0.0000000000000D+00  0.0000000000000D+00
274  2.7300000000000D+00  0.0000000000000D+00  0.0000000000000D+00
275  2.7400000000000D+00  0.0000000000000D+00  0.0000000000000D+00
276  2.7500000000000D+00  0.0000000000000D+00  0.0000000000000D+00
277  2.7600000000000D+00  0.0000000000000D+00  0.0000000000000D+00
278  2.7700000000000D+00  0.0000000000000D+00  0.0000000000000D+00
279  2.7800000000000D+00  0.0000000000000D+00  0.0000000000000D+00
280  2.7900000000000D+00  0.0000000000000D+00  0.0000000000000D+00
281  2.8000000000000D+00  0.0000000000000D+00  0.0000000000000D+00
282  2.8100000000000D+00  0.0000000000000D+00  0.0000000000000D+00
283  2.8200000000000D+00  0.0000000000000D+00  0.0000000000000D+00
284  2.8300000000000D+00  0.0000000000000D+00  0.0000000000000D+00
285  2.8400000000000D+00  0.0000000000000D+00  0.0000000000000D+00
286  2.8500000000000D+00  0.0000000000000D+00  0.0000000000000D+00
287  2.8600000000000D+00  0.0000000000000D+00  0.0000000000000D+00
288  2.8700000000000D+00  0.0000000000000D+00  0.0000000000000D+00
289  2.8800000000000D+00  0.0000000000000D+00  0.0000000000000D+00
290  2.8900000000000D+00  0.0000000000000D+00  0.0000000000000D+00
291  2.9000000000000D+00  0.0000000000000D+00  0.0000000000000D+00
292  2.9100000000000D+00  0.0000000000000D+00  0.0000000000000D+00
293  2.9200000000000D+00  0.0000000000000D+00  0.0000000000000D+00
294  2.9300000000000D+00  0.0000000000000D+00  0.0000000000000D+00
295  2.9400000000000D+00  0.0000000000000D+00  0.0000000000000D+00
296  2.9500000000000D+00  0.0000000000000D+00  0.0000000000000D+00
297  2.9600000000000D+00  0.0000000000000D+00  0.0000000000000D+00
298  2.9700000000000D+00  0.0000000000000D+00  0.0000000000000D+00
299  2.9800000000000D+00  0.0000000000000D+00  0.0000000000000D+00
300  2.9900000000000D+00  0.0000000000000D+00  0.0000000000000D+00
301  3.0000000000000D+00  0.0000000000000D+00  0.0000000000000D+00
302  3.0100000000000D+00  0.0000000000000D+00  0.0000000000000D+00
303  3.0200000000000D+00  0.0000000000000D+00  0.0000000000000D+00
304  3.0300000000000D+00  0.0000000000000D+00  0.0000000000000D+00
305  3.0400000000000D+00  0.0000000000000D+00  0.0000000000000D+00
306  3.0500000000000D+00  0.0000000000000D+00  0.0000000000000D+00
307  3.0600000000000D+00  0.0000000000000D+00  0.0000000000000D+00
308  3.0700000000000D+00  0.0000000000000D+00  0.0000000000000D+00
309  3.0800000000000D+00  0.0000000000000D+00  0.0000000000000D+00
310  3.0900000000000D+00  0.0000000000000D+00  0.0000000000000D+00
311  3.1000000000000D+00  0.0000000000000D+00  0.0000000000000D+00
312  3.1100000000000D+00  0.0000000000000D+00  0.0000000000000D+00
313  3.1200000000000D+00  0.0000000000000D+00  0.0000000000000D+00
314  3.1300000000000D+00  0.0000000000000D+00  0.0000000000000D+00
315  3.1400000000000D+00  0.0000000000000D+00  0.0000000000000D+00
316  3.1500000000000D+00  0.0000000000000D+00  0.0000000000000D+00
317  3.1600000000000D+00  0.0000000000000D+00  0.0000000000000D+00
318  3.1700000000000D+00  0.0000000000000D+00  0.0000000000000D+00
319  3.1800000000000D+00  0.0000000000000D+00  0.0000000000000D+00
320  3.1900000000000D+00  0.0000000000000D+00  0.0000000000000D+00
321  3.2000000000000D+00  0.0000000000000D+00  0.0000000000000D+00
322  3.2100000000000D+00  0.0000000000000D+00  0.0000000000000D+00
323  3.2200000000000D+00  0.0000000000000D+00  0.0000000000000D+00
324  3.2300000000000D+00  0.0000000000000D+00  0.0000000000000D+00
325  3.2400000000000D+00  0.0000000000000D+00  0.0000000000000D+00
326  3.2500000000000D+00  0.0000000000000D+00  0.0000000000000D+00
327  3.2600000000000D+00  0.0000000000000D+00  0.0000000000000D+00
328  3.2700000000000D+00  0.0000000000000D+00  0.0000000000000D+00
329  3.2800000000000D+00  0.0000000000000D+00  0.0000000000000D+00
330  3.2900000000000D+00  0.0000000000000D+00  0.0000000000000D+00
331  3.3000000000000D+00  0.0000000000000D+00  0.0000000000000D+00
332  3.3100000000000D+00  0.0000000000000D+00  0.0000000000000D+00
333  3.3200000000000D+00  0.0000000000000D+00  0.0000000000000D+00
334  3.3300000000000D+00  0.0000000000000D+00  0.0000000000000D+00
335  3.3400000000000D+00  0.0000000000000D+00  0.0000000000000D+00
336  3.3500000000000D+00  0.0000000000000D+00  0.0000000000000D+00
337  3.3600000000000D+00  0.0000000000000D+00  0.0000000000000D+00
338  3.3700000000000D+00  0.0000000000000D+00  0.0000000000000D+00
339  3.3800000000000D+00  0.0000000000000D+00  0.0000000000000D+00
340  3.3900000000000D+00  0.0000000000000D+00  0.0000000000000D+00
341  3.4000000000000D+00  0.0000000000000D+00  0.0000000000000D+00
342  3.4100000000000D+00  0.0000000000000D+00  0.0000000000000D+00
343  3.4200000000000D+00  0.0000000000000D+00  0.0000000000000D+00
344  3.4300000000000D+00  0.0000000000000D+00  0.0000000000000D+00
345  3.4400000000000D+00  0.0000000000000D+00  0.0000000000000D+00
346  3.4500000000000D+00  0.0000000000000D+00  0.0000000000000D+00
347  3.4600000000000D+00  0.0000000000000D+00  0.0000000000000D+00
348  3.4700000000000D+00  0.0000000000000D+00  0.0000000000000D+00
349  3.4800000000000D+00  0.0000000000000D+00  0.0000000000000D+00
350  3.4900000000000D+00  0.0000000000000D+00  0.0000000000000D+00
351  3.5000000000000D+00  0.0000000000000D+00  0.0000000000000D+00
352  3.5100000000000D+00  0.0000000000000D+00  0.0000000000000D+00
353  3.5200000000000D+00  0.0000000000000D+00  0.0000000000000D+00
354  3.5300000000000D+00  0.0000000000000D+00  0.0000000000000D+00
355  3.5400000000000D+00  0.0000000000000D+00  0.0000000000000D+00
356  3.5500000000000D+00  0.0000000000000D+00  0.0000000000000D+00
357  3.5600000000000D+00  0.0000000000000D+00  0.0000000000000D+00
358  3.5700000000000D+00  0.0000000000000D+00  0.0000000000000D+00
359  3.5800000000000D+00  0.0000000000000D+00  0.0000000000000D+00
360  3.5900000000000D+00  0.0000000000000D+00  0.0000000000000D+00
361  3.6000000000000D+00  0.0000000000000D+00  0.0000000000000D+00
362  3.6100000000000D+00  0.0000000000000D+00  0.0000000000000D+00
363  3.6200000000000D+00  0.0000000000000D+00  0.0000000000000D+00
364  3.6300000000000D+00  0.0000000000000D+00  0.0000000000000D+00
365  3.6400000000000D+00  0.0000000000000D+00  0.0000000000000D+00
366  3.6500000000000D+00  0.0000000000000D+00  0.0000000000000D+00
367  3.6600000000000D+00  0.0000000000000D+00  0.0000000000000D+00
368  3.6700000000000D+00  0.0000000000000D+00  0.0000000000000D+00
369  3.6800000000000D+00  0.0000000000000D+00  0.0000000000000D+00
370  3.6900000000000D+00  0.0000000000000D+00  0.0000000000000D+00
371  3.7000000000000D+00  0.0000000000000D+00  0.0000000000000D+00
372  3.7100000000000D+00  0.0000000000000D+00  0.0000000000000D+00
373  3.7200000000000D+00  0.0000000000000D+00  0.0000000000000D+00
374  3.7300000000000D+00  0.0000000000000D+00  0.0000000000000D+00
375  3.7400000000000D+00  0.0000000000000D+00  0.0000000000000D+00
376  3.7500000000000D+00  0.0000000000000D+00  0.0000000000000D+00
377  3.7600000000000D+00  0.0000000000000D+00  0.0000000000000D+00
378  3.7700000000000D+00  0.0000000000000D+00  0.0000000000000D+00
379  3.7800000000000D+00  0.0000000000000D+00  0.0000000000000D+00
380  3.7900000000000D+00  0.0000000000000D+00  0.0000000000000D+00
381  3.8000000000000D+00  0.0000000000000D+00  0.0000000000000D+00
382  3.8100000000000D+00  0.0000000000000D+00  0.0000000000000D+00
383  3.8200000000000D+00  0.0000000000000D+00  0.0000000000000D+00
384  3.8300000000000D+00  0.0000000000000D+00  0.0000000000000D+00
385  3.8400000000000D+00  0.0000000000000D+00  0.0000000000000D+00
386  3.8500000000000D+00  0.0000000000000D+00  0.0000000000000D+00
387  3.8600000000000D+00  0.0000000000000D+00  0.0000000000000D+00
388  3.8700000000000D+00  0.0000000000000D+00  0.0000000000000D+00
389  3.8800000000000D+00  0.0000000000000D+00  0.0000000000000D+00
390  3.8900000000000D+00  0.0000000000000D+00  0.0000000000000D+00
391  3.9000000000000D+00  0.0000000000000D+00  0.0000000000000D+00
392  3.9100000000000D+00  0.0000000000000D+00  0.0000000000000D+00
393  3.9200000000000D+00  0.0000000000000D+00  0.0000000000000D+00
394  3.9300000000000D+00  0.0000000000000D+00  0.0000000000000D+00
395  3.9400000000000D+00  0.0000000000000D+00  0.0000000000000D+00
396  3.9500000000000D+00  0.0000000000000D+00  0.0000000000000D+00
397  3.9600000000000D+00  0.0000000000000D+00  0.0000000000000D+00
398  3.9700000000000D+00  0.0000000000000D+00  0.0000000000000D+00
399  3.9800000000000D+00  0.0000000000000D+00  0.0000000000000D+00
400  3.9900000000000D+00  0.0000000000000D+00  0.0000000000000D+00
401  4.0000000000000D+00  0.0000000000000D+00  0.0000000000000D+00
402  4.0100000000000D+00  0.0000000000000D+00  0.0000000000000D+00
403  4.0200000000000D+00  0.0000000000000D+00  0.0000000000000D+00
404  4.0300000000000D+00  0.0000000000000D+00  0.0000000000000D+00
405  4.0400000000000D+00  0.0000000000000D+00  0.0000000000000D+00
406  4.0500000000000D+00  0.0000000000000D+00  0.0000000000000D+00
407  4.0600000000000D+00  0.0000000000000D+00  0.0000000000000D+00
408  4.0700000000000D+00  0.0000000000000D+00  0.0000000000000D+00
409  4.0800000000000D+00  0.0000000000000D+00  0.0000000000000D+00
410  4.0900000000000D+00  0.0000000000000D+00  0.0000000000000D+00
411  4.1000000000000D+00  0.0000000000000D+00  0.0000000000000D+00
412  4.1100000000000D+00  0.0000000000000D+00  0.0000000000000D+00
413  4.1200000000000D+00  0.0000000000000D+00  0.0000000000000D+00
414  4.1300000000000D+00  0.0000000000000D+00  0.0000000000000D+00
415  4.1400000000000D+00  0.0000000000000D+00  0.0000000000000D+00
416  4.1500000000000D+00  0.0000000000000D+00  0.0000000000000D+00
417  4.1600000000000D+00  0.0000000000000D+00  0.0000000000000D+00
418  4.1700000000000D+00  0.0000000000000D+00  0.0000000000000D+00
419  4.1800000000000D+00  0.0000000000000D+00  0.0000000000000D+00
420  4.1900000000000D+00  0.0000000000000D+00  0.0000000000000D+00
421  4.2000000000000D+00  0.0000000000000D+00  0.0000000000000D+00
422  4.2100000000000D+00  0.0000000000000D+00  0.0000000000000D+00
423  4.2200000000000D+00  0.0000000000000D+00  0.0000000000000D+00
424  4.2300000000000D+00  0.0000000000000D+00  0.0000000000000D+00
425  4.2400000000000D+00  0.0000000000000D+00  0.0000000000000D+00
426  4.2500000000000D+00  0.0000000000000D+00  0.0000000000000D+00
427  4.2600000000000D+00  0.0000000000000D+00  0.0000000000000D+00
428  4.2700000000000D+00  0.0000000000000D+00  0.0000000000000D+00
429  4.2800000000000D+00  0.0000000000000D+00  0.0000000000000D+00
430  4.2900000000000D+00  0.0000000000000D+00  0.0000000000000D+00
431  4.3000000000000D+00  0.0000000000000D+00  0.0000000000000D+00
432  4.3100000000000D+00  0.0000000000000D+00  0.0000000000000D+00
433  4.3200000000000D+00  0.0000000000000D+00  0.0000000000000D+00
434  4.3300000000000D+00  0.0000000000000D+00  0.0000000000000D+00
435  4.3400000000000D+00  0.0000000000000D+00  0.0000000000000D+00
436  4.3500000000000D+00  0.0000000000000D+00  0.0000000000000D+00
437  4.3600000000000D+00  0.0000000000000D+00  0.0000000000000D+00
438  4.3700000000000D+00  0.0000000000000D+00  0.0000000000000D+00
439  4.3800000000000D+00  0.0000000000000D+00  0.0000000000000D+00
440  4.3900000000000D+00  0.0000000000000D+00  0.0000000000000D+00
441  4.4000000000000D+00  0.0000000000000D+00  0.0000000000000D+00
442  4.4100000000000D+00  0.0000000000000D+00  0.0000000000000D+00
443  4.4200000000000D+00  0.0000000000000D+00  0.0000000000000D+00
444  4.4300000000000D+00  0.0000000000000D+00  0.0000000000000D+00