<?xml version="1.0" encoding="UTF-8" ?>
<psml version="1.1" energy_unit="hartree" length_unit="bohr"
 uuid="f70cbf00-3439-11eb-49a2-d344fbfd438c"
 xmlns="http://esl.cecam.org/PSML/ns/1.1">
<provenance creator="ONCVPSP-3.3.1+psml-3.3.1-75 (scalar-relativistic)"
 date="2020-12-02">
<annotation action="semilocal-pseudopotential-generation"
 action-cont="projectors-generation" />
<input-file name="oncvpsp-input">
<![CDATA[# atsym z nc nv iexc psfile
F 9 1 2 -001012 both
# n l f
1 0 2.0
2 0 2.0
2 1 5.0
# lmax
2
# l rc ep ncon nbas qcut
0 1.3 0.0 4 8 8.6
1 1.45 0.0 4 8 9.0
2 1.6 0.2 4 8 5.8
# lloc lpopt rc5 dvloc0
4 5 0.95 0.0
# l nproj debl
0 2 1.5
1 2 1.5
2 1 2.0
# icmod fcfact rcfact
3 2.5 1.85
# epsh1 epsh2 depsh
-12.0 12.0 0.02
# rlmax drl
6.0 0.01
 0
]]>
</input-file>
</provenance>
<pseudo-atom-spec atomic-label="F" atomic-number="9" z-pseudo="7"
 flavor="Hamann&apos;s oncvpsp" relativity="scalar" spin-dft="no"
 core-corrections="yes">
<annotation pseudo-energy="-23.8537920147" cutoff_hint_low="36"
 cutoff_hint_normal="38" cutoff_hint_high="40" />
<exchange-correlation>
<annotation oncvpsp-xc-code="-1012" oncvpsp-xc-type="libxc-interface" />
<libxc-info number-of-functionals="2">
<functional name="Slater exchange (LDA)" type="exchange" id="1" />
<functional name="Perdew &amp; Wang (LDA)" type="correlation" id="12" />
</libxc-info>
</exchange-correlation>
<valence-configuration total-valence-charge="7">
<shell n="2" l="s" occupation="2" />
<shell n="2" l="p" occupation="5" />
</valence-configuration>
</pseudo-atom-spec>
<grid npts="457">
<annotation type="sampled from oncvpsp log grid"
 recipe="r(i:1..N) = r1*exp(a*(i-1)) + r=0; resampled"
 recipe-cont="r1: scale; a: step" scale="0.555555555556E-04"
 step="0.119285708653E-01" delta="0.500000000000E-02" rmax="44.1907361906" />
<grid-data>
  0.000000000000E+00  5.046162377637E-03  1.007931334073E-02  1.512057726285E-02
  2.013263740199E-02  2.525401356072E-02  3.056459245980E-02  3.569153875685E-02
  4.069592361693E-02  4.585176253312E-02  5.104822514639E-02  5.615969585203E-02
  6.178297931314E-02  6.716336310323E-02  7.301229875098E-02  7.842943695036E-02
  8.424849902796E-02  8.942619137815E-02  9.492209115497E-02  1.007557545544E-01
  1.069479396451E-01  1.121745852098E-01  1.176566618182E-01  1.234066526239E-01
  1.294376508434E-01  1.357633895713E-01  1.423982730511E-01  1.475863729991E-01
  1.529634947694E-01  1.585365251318E-01  1.643126017665E-01  1.702991224063E-01
  1.765037543106E-01  1.829344440862E-01  1.895994278638E-01  1.965072418476E-01
  2.036667332471E-01  2.110870716089E-01  2.161835578658E-01  2.214030936869E-01
  2.267486499809E-01  2.322232693860E-01  2.378300680021E-01  2.435722371639E-01
  2.494530452580E-01  2.554758395827E-01  2.616440482536E-01  2.679611821546E-01
  2.744308369366E-01  2.810566950636E-01  2.878425279092E-01  2.947921979030E-01
  3.019096607292E-01  3.091989675778E-01  3.166642674510E-01  3.243098095244E-01
  3.321399455655E-01  3.401591324113E-01  3.483719345042E-01  3.567830264909E-01
  3.653971958825E-01  3.742193457798E-01  3.832544976644E-01  3.925077942560E-01
  4.019845024405E-01  4.116900162674E-01  4.216298600202E-01  4.266894183404E-01
  4.318096913605E-01  4.369914076568E-01  4.422353045487E-01  4.475421282033E-01
  4.529126337417E-01  4.583475853466E-01  4.638477563708E-01  4.694139294472E-01
  4.750468966006E-01  4.807474593598E-01  4.865164288721E-01  4.923546260186E-01
  4.982628815308E-01  5.042420361092E-01  5.102929405425E-01  5.164164558290E-01
  5.226134532990E-01  5.288848147385E-01  5.352314325154E-01  5.416542097056E-01
  5.481540602221E-01  5.547319089447E-01  5.613886918521E-01  5.681253561543E-01
  5.749428604281E-01  5.818421747533E-01  5.888242808503E-01  5.958901722205E-01
  6.030408542872E-01  6.102773445386E-01  6.176006726731E-01  6.250118807451E-01
  6.325120233141E-01  6.401021675939E-01  6.477833936050E-01  6.555567943282E-01
  6.634234758602E-01  6.713845575705E-01  6.794411722613E-01  6.875944663285E-01
  6.958455999244E-01  7.041957471235E-01  7.126460960890E-01  7.211978492421E-01
  7.298522234330E-01  7.386104501142E-01  7.474737755155E-01  7.564434608217E-01
  7.655207823516E-01  7.747070317398E-01  7.840035161207E-01  7.934115583141E-01
  8.029324970139E-01  8.125676869781E-01  8.223184992218E-01  8.321863212125E-01
  8.421725570670E-01  8.522786277518E-01  8.625059712848E-01  8.728560429403E-01
  8.833303154555E-01  8.939302792410E-01  9.046574425919E-01  9.155133319030E-01
  9.264994918858E-01  9.376174857885E-01  9.488688956179E-01  9.602553223653E-01
  9.717783862337E-01  9.834397268685E-01  9.952410035910E-01  1.007183895634E+00
  1.019270102382E+00  1.031501343610E+00  1.043879359734E+00  1.056405912050E+00
  1.069082782995E+00  1.081911776391E+00  1.094894717708E+00  1.108033454320E+00
  1.121329855772E+00  1.134785814041E+00  1.148403243810E+00  1.162184082735E+00
  1.176130291728E+00  1.190243855229E+00  1.204526781492E+00  1.218981102870E+00
  1.233608876104E+00  1.248412182617E+00  1.263393128809E+00  1.278553846354E+00
  1.293896492511E+00  1.309423250421E+00  1.325136329426E+00  1.341037965379E+00
  1.357130420963E+00  1.373415986015E+00  1.389896977847E+00  1.406575741581E+00
  1.423454650480E+00  1.440536106286E+00  1.457822539562E+00  1.475316410036E+00
  1.493020206957E+00  1.510936449440E+00  1.529067686834E+00  1.547416499076E+00
  1.565985497064E+00  1.584777323029E+00  1.603794650906E+00  1.623040186716E+00
  1.642516668957E+00  1.662226868985E+00  1.682173591412E+00  1.702359674509E+00
  1.722787990603E+00  1.743461446491E+00  1.764382983849E+00  1.785555579655E+00
  1.806982246611E+00  1.828666033570E+00  1.850610025973E+00  1.872817346284E+00
  1.895291154440E+00  1.918034648293E+00  1.941051064073E+00  1.964343676841E+00
  1.987915800964E+00  2.011770790575E+00  2.035912040062E+00  2.060342984543E+00
  2.085067100357E+00  2.110087905562E+00  2.135408960428E+00  2.161033867953E+00
  2.186966274369E+00  2.213209869661E+00  2.239768388097E+00  2.266645608754E+00
  2.293845356059E+00  2.321371500332E+00  2.349227958336E+00  2.377418693836E+00
  2.405947718162E+00  2.434819090780E+00  2.464036919870E+00  2.493605362908E+00
  2.523528627263E+00  2.553810970790E+00  2.584456702440E+00  2.615470182869E+00
  2.646855825063E+00  2.678618094964E+00  2.710761512104E+00  2.743290650249E+00
  2.776210138052E+00  2.809524659708E+00  2.843238955625E+00  2.877357823092E+00
  2.911886116969E+00  2.946828750373E+00  2.982190695378E+00  3.017976983722E+00
  3.054192707527E+00  3.090843020017E+00  3.127933136257E+00  3.165468333892E+00
  3.203453953899E+00  3.241895401346E+00  3.280798146162E+00  3.320167723916E+00
  3.360009736603E+00  3.400329853442E+00  3.441133811684E+00  3.482427417424E+00
  3.524216546433E+00  3.566507144990E+00  3.609305230730E+00  3.652616893499E+00
  3.696448296221E+00  3.740805675775E+00  3.785695343885E+00  3.831123688011E+00
  3.877097172267E+00  3.923622338335E+00  3.970705806395E+00  4.018354276071E+00
  4.066574527384E+00  4.115373421713E+00  4.164757902773E+00  4.214734997607E+00
  4.265311817578E+00  4.316495559389E+00  4.368293506101E+00  4.420713028175E+00
  4.473761584513E+00  4.527446723527E+00  4.581776084209E+00  4.636757397220E+00
  4.692398485986E+00  4.748707267818E+00  4.805691755032E+00  4.863360056092E+00
  4.921720376766E+00  4.980781021287E+00  5.040550393542E+00  5.101036998265E+00
  5.162249442244E+00  5.224196435551E+00  5.286886792777E+00  5.350329434291E+00
  5.414533387502E+00  5.479507788152E+00  5.545261881610E+00  5.611805024189E+00
  5.679146684480E+00  5.747296444693E+00  5.816264002030E+00  5.886059170054E+00
  5.956691880095E+00  6.028172182656E+00  6.100510248848E+00  6.173716371834E+00
  6.247800968296E+00  6.322774579916E+00  6.398647874875E+00  6.475431649373E+00
  6.553136829165E+00  6.631774471115E+00  6.711355764769E+00  6.791892033946E+00
  6.873394738353E+00  6.955875475214E+00  7.039345980916E+00  7.123818132687E+00
  7.209303950279E+00  7.295815597683E+00  7.383365384855E+00  7.471965769473E+00
  7.561629358707E+00  7.652368911011E+00  7.744197337944E+00  7.837127705999E+00
  7.931173238471E+00  8.026347317333E+00  8.122663485141E+00  8.220135446962E+00
  8.318777072326E+00  8.418602397194E+00  8.519625625960E+00  8.621861133472E+00
  8.725323467073E+00  8.830027348678E+00  8.935987676862E+00  9.043219528985E+00
  9.151738163332E+00  9.261559021292E+00  9.372697729548E+00  9.485170102302E+00
  9.598992143530E+00  9.714180049252E+00  9.830750209843E+00  9.948719212362E+00
  1.006810384291E+01  1.018892108902E+01  1.031118814209E+01  1.043492239980E+01
  1.056014146860E+01  1.068686316622E+01  1.081510552421E+01  1.094488679050E+01
  1.107622543199E+01  1.120914013717E+01  1.134364981882E+01  1.147977361665E+01
  1.161753090005E+01  1.175694127085E+01  1.189802456610E+01  1.204080086089E+01
  1.218529047122E+01  1.233151395687E+01  1.247949212436E+01  1.262924602985E+01
  1.278079698221E+01  1.293416654599E+01  1.308937654455E+01  1.324644906308E+01
  1.340540645184E+01  1.356627132926E+01  1.372906658521E+01  1.389381538423E+01
  1.406054116884E+01  1.422926766287E+01  1.440001887482E+01  1.457281910132E+01
  1.474769293054E+01  1.492466524571E+01  1.510376122865E+01  1.528500636340E+01
  1.546842643976E+01  1.565404755704E+01  1.584189612772E+01  1.603199888125E+01
  1.622438286783E+01  1.641907546224E+01  1.661610436779E+01  1.681549762020E+01
  1.701728359164E+01  1.722149099474E+01  1.742814888668E+01  1.763728667332E+01
  1.784893411340E+01  1.806312132276E+01  1.827987877863E+01  1.849923732398E+01
  1.872122817187E+01  1.894588290993E+01  1.917323350485E+01  1.940331230691E+01
  1.963615205459E+01  1.987178587924E+01  2.011024730979E+01  2.035157027751E+01
  2.059578912084E+01  2.084293859029E+01  2.109305385338E+01  2.134617049962E+01
  2.160232454561E+01  2.186155244016E+01  2.212389106944E+01  2.238937776227E+01
  2.265805029542E+01  2.292994689897E+01  2.320510626175E+01  2.348356753690E+01
  2.376537034734E+01  2.405055479151E+01  2.433916144900E+01  2.463123138639E+01
  2.492680616303E+01  2.522592783699E+01  2.552863897103E+01  2.583498263868E+01
  2.614500243035E+01  2.645874245951E+01  2.677624736902E+01  2.709756233745E+01
  2.742273308550E+01  2.775180588253E+01  2.808482755312E+01  2.842184548376E+01
  2.876290762956E+01  2.910806252112E+01  2.945735927137E+01  2.981084758263E+01
  3.016857775362E+01  3.053060068666E+01  3.089696789490E+01  3.126773150964E+01
  3.164294428775E+01  3.202265961921E+01  3.240693153464E+01  3.279581471305E+01
  3.318936448961E+01  3.358763686349E+01  3.399068850585E+01  3.439857676792E+01
  3.481135968913E+01  3.522909600540E+01  3.565184515747E+01  3.607966729936E+01
  3.651262330695E+01  3.695077478663E+01  3.739418408407E+01  3.784291429308E+01
  3.829702926460E+01  3.875659361577E+01  3.922167273916E+01  3.969233281203E+01
  4.016864080578E+01  4.065066449545E+01  4.113847246939E+01  4.163213413902E+01
  4.213171974869E+01  4.263730038568E+01  4.314894799030E+01  4.366673536619E+01
  4.419073619058E+01
</grid-data>
</grid>
<valence-charge total-charge="7" is-unscreening-charge="yes"
 rescaled-to-z-pseudo="no">
<radfunc>
<data npts="457">
  6.704190187892E+00  6.707751521515E+00  6.718393928323E+00  6.736137174291E+00
  6.760781570792E+00  6.793142466303E+00  6.834313819001E+00  6.881359269893E+00
  6.934130276800E+00  6.995500484101E+00  7.064457011865E+00  7.139145890434E+00
  7.229047464945E+00  7.322515114190E+00  7.432215483447E+00  7.541168140286E+00
  7.665880737882E+00  7.783355123007E+00  7.914559830437E+00  8.060933581757E+00
  8.224020452014E+00  8.367624904078E+00  8.523859351023E+00  8.693638251815E+00
  8.877899661634E+00  9.077595101190E+00  9.293676344775E+00  9.467054212507E+00
  9.650557606633E+00  9.844550379453E+00  1.004937149722E+01  1.026532693397E+01
  1.049268037279E+01  1.073164261158E+01  1.098235957486E+01  1.124489884202E+01
  1.151923461766E+01  1.180523109087E+01  1.200224902084E+01  1.220422117661E+01
  1.241100155203E+01  1.262240918847E+01  1.283822513612E+01  1.305818931066E+01
  1.328199726304E+01  1.350929688476E+01  1.373968507595E+01  1.397270440937E+01
  1.420783982941E+01  1.444451543190E+01  1.468209137795E+01  1.491986100262E+01
  1.515704818747E+01  1.539280507449E+01  1.562621020760E+01  1.585626719655E+01
  1.608190400667E+01  1.630197298568E+01  1.651525174619E+01  1.672044502845E+01
  1.691618767210E+01  1.710104882813E+01  1.727353754156E+01  1.743210983127E+01
  1.757517738590E+01  1.770111798156E+01  1.780828770923E+01  1.785431727751E+01
  1.789503507540E+01  1.793023610724E+01  1.795971700836E+01  1.798327664864E+01
  1.800071676445E+01  1.801184261790E+01  1.801646368246E+01  1.801439435331E+01
  1.800545468088E+01  1.798947112562E+01  1.796627733158E+01  1.793571491648E+01
  1.789763427525E+01  1.785189539387E+01  1.779836867010E+01  1.773693573722E+01
  1.766749028665E+01  1.758993888501E+01  1.750420178099E+01  1.741021369673E+01
  1.730792459877E+01  1.719730044268E+01  1.707832388585E+01  1.695099496233E+01
  1.681533171368E+01  1.667137076957E+01  1.651916787184E+01  1.635879833578E+01
  1.619035744228E+01  1.601396075480E+01  1.582974435508E+01  1.563786499199E+01
  1.543850013802E+01  1.523184794840E+01  1.501812711841E+01  1.479757663475E+01
  1.457045541771E+01  1.433704185144E+01  1.409763320056E+01  1.385254491190E+01
  1.360210980153E+01  1.334667712771E+01  1.308661155193E+01  1.282229199085E+01
  1.255411036322E+01  1.228247023714E+01  1.200778538379E+01  1.173047824517E+01
  1.145097832425E+01  1.116972050715E+01  1.088714332769E+01  1.060368718590E+01
  1.031979253236E+01  1.003589803144E+01  9.752438716754E+00  9.469844152526E+00
  9.188536614973E+00  8.908929307812E+00  8.631424625895E+00  8.356412480735E+00
  8.084268701232E+00  7.815353522321E+00  7.550010173432E+00  7.288563577746E+00
  7.031319172129E+00  6.778561856420E+00  6.530555079397E+00  6.287540067405E+00
  6.049735200102E+00  5.817335536339E+00  5.590512491727E+00  5.369413667949E+00
  5.154162832567E+00  4.944860046707E+00  4.741581936904E+00  4.544382106331E+00
  4.353291679787E+00  4.168319976123E+00  3.989455301274E+00  3.816665854707E+00
  3.649900741905E+00  3.489091085433E+00  3.334151227135E+00  3.184980014119E+00
  3.041462161178E+00  2.903469682311E+00  2.770863383830E+00  2.643494411149E+00
  2.521205840697E+00  2.403834307414E+00  2.291211656927E+00  2.183166609759E+00
  2.079526422821E+00  1.980118531024E+00  1.884772325973E+00  1.793321577424E+00
  1.705607181868E+00  1.621478274468E+00  1.540793167881E+00  1.463420083819E+00
  1.389237656104E+00  1.318135183358E+00  1.250012613424E+00  1.184779565276E+00
  1.122351416855E+00  1.062643813869E+00  1.005572845535E+00  9.510551382614E-01
  8.990079900634E-01  8.493494962135E-01  8.019986662171E-01  7.568755322374E-01
  7.139012491140E-01  6.729981861418E-01  6.340900107974E-01  5.971017646174E-01
  5.619599314486E-01  5.285924983058E-01  4.969290090829E-01  4.669006113747E-01
  4.384400966766E-01  4.114819342325E-01  3.859622988131E-01  3.618190927039E-01
  3.389919621904E-01  3.174223088262E-01  2.970532957712E-01  2.778298494851E-01
  2.596986570608E-01  2.426081594767E-01  2.265085410466E-01  2.113517153361E-01
  1.970913078152E-01  1.836826355029E-01  1.710826838610E-01  1.592500811795E-01
  1.481450706935E-01  1.377294806609E-01  1.279666926218E-01  1.188216080520E-01
  1.102606136144E-01  1.022515452028E-01  9.476365096233E-02  8.776755346282E-02
  8.123521119127E-02  7.513987952075E-02  6.945607130318E-02  6.415951722504E-02
  5.922712605535E-02  5.463694490702E-02  5.036811962346E-02  4.640085539422E-02
  4.271637769499E-02  3.929689363943E-02  3.612555382232E-02  3.318641472637E-02
  3.046440175748E-02  2.794527296664E-02  2.561558350987E-02  2.346265089136E-02
  2.147452102901E-02  1.963993517575E-02  1.794829772490E-02  1.638964492249E-02
  1.495461450484E-02  1.363441627525E-02  1.242080362946E-02  1.130604603561E-02
  1.028290247099E-02  9.344595814441E-03  8.484788190209E-03  7.697557256476E-03
  6.977373428999E-03  6.319078028213E-03  5.717862335999E-03  5.169247546523E-03
  4.669065593930E-03  4.213440838250E-03  3.798772589655E-03  3.421718450132E-03
  3.079178450793E-03  2.768279962264E-03  2.486363355053E-03  2.230968386339E-03
  1.999821289286E-03  1.790822540814E-03  1.602035283623E-03  1.431674378304E-03
  1.278096061409E-03  1.139788185571E-03  1.015361017951E-03  9.035385736281E-04
  8.031504608941E-04  7.131242158046E-04  6.324781038211E-04  5.603143668440E-04
  4.958128944648E-04  4.382252988173E-04  3.868693729713E-04  3.411239134060E-04
  3.004238877003E-04  2.642559291895E-04  2.321541409591E-04  2.036961921691E-04
  1.784996903284E-04  1.562188137629E-04  1.365411891413E-04  1.191849995419E-04
  1.038963091486E-04  9.044659127090E-05  7.863044696934E-05  6.826350215419E-05
  5.918047159044E-05  5.123337880181E-05  4.428992140918E-05  3.823197196919E-05
  3.295420489376E-05  2.836284053238E-05  2.437449798395E-05  2.091514867498E-05
  1.791916319494E-05  1.532844431786E-05  1.309163956101E-05  1.116342703812E-05
  9.503868753923E-06  8.077825861121E-06  6.854430758528E-06  5.806611251275E-06
  4.910662320210E-06  4.145861358382E-06  3.494123028021E-06  2.939690171750E-06
  2.468857477466E-06  2.069724847476E-06  1.731977659534E-06  1.446691330757E-06
  1.206157805326E-06  1.003731783871E-06  8.336946969282E-07  6.911345971798E-07
  5.718403059999E-07  4.722082993590E-07  3.891609570726E-07  3.200749280662E-07
  2.627184833152E-07  2.151968378730E-07  1.759045244200E-07  1.434839935245E-07
  1.167897007889E-07  9.485701873067E-08  7.687538207333E-08  6.216513955446E-08
  5.015764382686E-08  4.037816396105E-08  3.243125285781E-08  2.598824493943E-08
  2.077659818096E-08  1.657082922308E-08  1.318482131379E-08  1.046531247440E-08
  8.286395876871E-09  6.544886234863E-09  5.156425312064E-09  4.052216683806E-09
  3.176294877154E-09  2.483247170661E-09  1.936317850399E-09  1.505834770606E-09
  1.167906817149E-09  9.033484672607E-10  6.967942135388E-10  5.359712949204E-10
  4.111040614193E-10  3.144274908363E-10  2.397909621370E-10  1.823364500279E-10
  1.382379080162E-10  1.044908145562E-10  7.874272309122E-11  5.915723164776E-11
  4.430509050795E-11  3.307740561243E-11  2.461623786822E-11  1.826037932838E-11
  1.350153544428E-11  9.950061058758E-12  7.308361180881E-12  5.349923059070E-12
  3.902936279121E-12  2.837478826762E-12  2.055664231381E-12  1.483989307699E-12
  1.067452320355E-12  7.650409096681E-13  5.462831096542E-13  3.886195319909E-13
  0.000000000000E+00  0.000000000000E+00  0.000000000000E+00  0.000000000000E+00
  0.000000000000E+00  0.000000000000E+00  0.000000000000E+00  0.000000000000E+00
  0.000000000000E+00  0.000000000000E+00  0.000000000000E+00  0.000000000000E+00
  0.000000000000E+00  0.000000000000E+00  0.000000000000E+00  0.000000000000E+00
  0.000000000000E+00  0.000000000000E+00  0.000000000000E+00  0.000000000000E+00
  0.000000000000E+00  0.000000000000E+00  0.000000000000E+00  0.000000000000E+00
  0.000000000000E+00  0.000000000000E+00  0.000000000000E+00  0.000000000000E+00
  0.000000000000E+00  0.000000000000E+00  0.000000000000E+00  0.000000000000E+00
  0.000000000000E+00  0.000000000000E+00  0.000000000000E+00  0.000000000000E+00
  0.000000000000E+00  0.000000000000E+00  0.000000000000E+00  0.000000000000E+00
  0.000000000000E+00  0.000000000000E+00  0.000000000000E+00  0.000000000000E+00
  0.000000000000E+00  0.000000000000E+00  0.000000000000E+00  0.000000000000E+00
  0.000000000000E+00  0.000000000000E+00  0.000000000000E+00  0.000000000000E+00
  0.000000000000E+00  0.000000000000E+00  0.000000000000E+00  0.000000000000E+00
  0.000000000000E+00  0.000000000000E+00  0.000000000000E+00  0.000000000000E+00
  0.000000000000E+00  0.000000000000E+00  0.000000000000E+00  0.000000000000E+00
  0.000000000000E+00  0.000000000000E+00  0.000000000000E+00  0.000000000000E+00
  0.000000000000E+00  0.000000000000E+00  0.000000000000E+00  0.000000000000E+00
  0.000000000000E+00  0.000000000000E+00  0.000000000000E+00  0.000000000000E+00
  0.000000000000E+00  0.000000000000E+00  0.000000000000E+00  0.000000000000E+00
  0.000000000000E+00  0.000000000000E+00  0.000000000000E+00  0.000000000000E+00
  0.000000000000E+00  0.000000000000E+00  0.000000000000E+00  0.000000000000E+00
  0.000000000000E+00  0.000000000000E+00  0.000000000000E+00  0.000000000000E+00
  0.000000000000E+00
</data>
</radfunc>
</valence-charge>
<pseudocore-charge matching-radius="0.336125624912"
 number-of-continuous-derivatives="4">
<annotation model-charge-form="Teter function with specified parameters" />
<radfunc>
<data npts="290">
  4.091463209871E+01  4.090612019577E+01  4.088068211003E+01  4.083826550163E+01
  4.077933934045E+01  4.070194163858E+01  4.060343735113E+01  4.049083129470E+01
  4.036445970866E+01  4.021741349266E+01  4.005208374279E+01  3.987288168675E+01
  3.965699997568E+01  3.943234374317E+01  3.916839142505E+01  3.890593370761E+01
  3.860513135009E+01  3.832140799579E+01  3.800407815383E+01  3.764949263800E+01
  3.725369477297E+01  3.690452761024E+01  3.652393743153E+01  3.610948316025E+01
  3.565861517707E+01  3.516868911415E+01  3.463698501446E+01  3.420912477122E+01
  3.375502993717E+01  3.327352785274E+01  3.276346121197E+01  3.222370127997E+01
  3.165316317336E+01  3.105082336917E+01  3.041573959401E+01  2.974707322349E+01
  2.904411428843E+01  2.830630913820E+01  2.779489012816E+01  2.726776030228E+01
  2.672491158910E+01  2.616638860787E+01  2.559229362225E+01  2.500279163408E+01
  2.439811558119E+01  2.377857159565E+01  2.314454427046E+01  2.249650187332E+01
  2.183500143642E+01  2.116069364064E+01  2.047432740178E+01  1.977675405507E+01
  1.906893102286E+01  1.835192483949E+01  1.762691339626E+01  1.689518725992E+01
  1.615814990960E+01  1.541731673046E+01  1.467431259850E+01  1.393086789011E+01
  1.318881275323E+01  1.245006948517E+01  1.171664287565E+01  1.099060839455E+01
  1.027409813091E+01  9.569284426666E+00  8.878361192593E+00  8.538794883931E+00
  8.203522948979E+00  7.872816002816E+00  7.546941696721E+00  7.226163890144E+00
  6.910741797935E+00  6.600929115727E+00  6.296973126761E+00  5.999113793817E+00
  5.707582840270E+00  5.422602824739E+00  5.144386214106E+00  4.873134460116E+00
  4.609037085110E+00  4.352270782786E+00  4.102998540222E+00  3.861368787689E+00
  3.627514583035E+00  3.401552837667E+00  3.183583591302E+00  2.973689342796E+00
  2.771934444429E+00  2.578364566969E+00  2.393006242813E+00  2.215866494265E+00
  2.046932553812E+00  1.886171682856E+00  1.733531094937E+00  1.588937988913E+00
  1.452299696883E+00  1.323503950891E+00  1.202419271542E+00  1.088895480682E+00
  9.827643391919E-01  8.838403097518E-01  7.919214431569E-01  7.067903853851E-01
  6.282155011996E-01  5.559521085746E-01  4.897438167225E-01  4.293239589650E-01
  3.744171101723E-01  3.247406770094E-01  2.800065478085E-01  2.399227875588E-01
  2.041953622987E-01  1.725298761508E-01  1.446333033764E-01  1.202156971819E-01
  9.899185661738E-02  8.068293278324E-02  6.501795574268E-02  5.173526403429E-02
  4.058381951110E-02  3.132439140620E-02  2.373059504260E-02  1.758977245795E-02
  1.270370438945E-02  8.889145533843E-03  5.978177728198E-03  3.818378643725E-03
  2.272806694117E-03  1.219806067520E-03  5.526390270257E-04  1.789558103816E-04
  2.011551283439E-05  1.037417242484E-05  9.595880909367E-05  2.340483148846E-04
  3.916837753738E-04  5.446319543239E-04  6.762262389282E-04  7.762092818942E-04
  8.396008675057E-04  8.656131711231E-04  8.566335975863E-04  8.172928198053E-04
  7.536325646419E-04  6.723842022526E-04  5.803654016390E-04  4.839981510965E-04
  3.889474525793E-04  2.998761361415E-04  2.203076579069E-04  1.525855893577E-04
  9.791590997557E-05  5.647629060504E-05  2.757538378562E-05  9.844767290079E-06
  1.446626343741E-06  2.814744851293E-07  4.182126376434E-06  1.108263163930E-05
  1.915380559797E-05  2.690017216322E-05  3.321637063217E-05  3.740417187814E-05
  3.915400894510E-05  3.849718352848E-05  3.573652962795E-05  3.136421157162E-05
  2.597547281749E-05  2.018656012372E-05  1.456380845221E-05  9.569121229903E-06
  5.524995935324E-06  2.600030708018E-06  8.137165187794E-07  5.747249316301E-08
  1.274888772092E-07  7.641234457796E-07  1.692411199191E-06  2.658683019127E-06
  3.459266771088E-06  3.958623918901E-06  4.095871306062E-06  3.880244085724E-06
  3.377467749597E-06  2.690050174017E-06  1.935056728440E-06  1.222940716928E-06
  6.404932293495E-07  2.400506971907E-07  3.591487655044E-08  0.000000000000E+00
  0.000000000000E+00  0.000000000000E+00  0.000000000000E+00  0.000000000000E+00
  0.000000000000E+00  0.000000000000E+00  0.000000000000E+00  0.000000000000E+00
  0.000000000000E+00  0.000000000000E+00  0.000000000000E+00  0.000000000000E+00
  0.000000000000E+00  0.000000000000E+00  0.000000000000E+00  0.000000000000E+00
  0.000000000000E+00  0.000000000000E+00  0.000000000000E+00  0.000000000000E+00
  0.000000000000E+00  0.000000000000E+00  0.000000000000E+00  0.000000000000E+00
  0.000000000000E+00  0.000000000000E+00  0.000000000000E+00  0.000000000000E+00
  0.000000000000E+00  0.000000000000E+00  0.000000000000E+00  0.000000000000E+00
  0.000000000000E+00  0.000000000000E+00  0.000000000000E+00  0.000000000000E+00
  0.000000000000E+00  0.000000000000E+00  0.000000000000E+00  0.000000000000E+00
  0.000000000000E+00  0.000000000000E+00  0.000000000000E+00  0.000000000000E+00
  0.000000000000E+00  0.000000000000E+00  0.000000000000E+00  0.000000000000E+00
  0.000000000000E+00  0.000000000000E+00  0.000000000000E+00  0.000000000000E+00
  0.000000000000E+00  0.000000000000E+00  0.000000000000E+00  0.000000000000E+00
  0.000000000000E+00  0.000000000000E+00  0.000000000000E+00  0.000000000000E+00
  0.000000000000E+00  0.000000000000E+00  0.000000000000E+00  0.000000000000E+00
  0.000000000000E+00  0.000000000000E+00  0.000000000000E+00  0.000000000000E+00
  0.000000000000E+00  0.000000000000E+00  0.000000000000E+00  0.000000000000E+00
  0.000000000000E+00  0.000000000000E+00  0.000000000000E+00  0.000000000000E+00
  0.000000000000E+00  0.000000000000E+00  0.000000000000E+00  0.000000000000E+00
  0.000000000000E+00  0.000000000000E+00  0.000000000000E+00  0.000000000000E+00
  0.000000000000E+00  0.000000000000E+00  0.000000000000E+00  0.000000000000E+00
  0.000000000000E+00  0.000000000000E+00  0.000000000000E+00  0.000000000000E+00
  0.000000000000E+00  0.000000000000E+00  0.000000000000E+00  0.000000000000E+00
  0.000000000000E+00  0.000000000000E+00
</data>
</radfunc>
</pseudocore-charge>
<semilocal-potentials set="scalar_relativistic">
<slps n="2" l="s" rc="1.30942325042" eref="-1.08958277261">
<radfunc>
<data npts="290">
 -8.899500724848E+00 -8.899684845680E+00 -8.900235153913E+00 -8.901152990064E+00
 -8.902428544749E+00 -8.904104786048E+00 -8.906239521797E+00 -8.908681754837E+00
 -8.911424940104E+00 -8.914620111552E+00 -8.918216669975E+00 -8.922119907655E+00
 -8.926828841761E+00 -8.931737019264E+00 -8.937513935635E+00 -8.943269073807E+00
 -8.949878416414E+00 -8.956125576277E+00 -8.963127718385E+00 -8.970970654693E+00
 -8.979748417584E+00 -8.987512345044E+00 -8.995996588743E+00 -9.005261270966E+00
 -9.015370016909E+00 -9.026389781237E+00 -9.038390549957E+00 -9.048078480910E+00
 -9.058390361104E+00 -9.069357957261E+00 -9.081013187588E+00 -9.093387804964E+00
 -9.106513010071E+00 -9.120418983371E+00 -9.135134323508E+00 -9.150685378298E+00
 -9.167095453051E+00 -9.184383879494E+00 -9.196404762239E+00 -9.208825218769E+00
 -9.221646538593E+00 -9.234868371012E+00 -9.248488499157E+00 -9.262502593086E+00
 -9.276903940760E+00 -9.291683155756E+00 -9.306827860724E+00 -9.322322345654E+00
 -9.338147200262E+00 -9.354278919994E+00 -9.370689485463E+00 -9.387345915497E+00
 -9.404209794405E+00 -9.421236774625E+00 -9.438376056534E+00 -9.455569847948E+00
 -9.472752806691E+00 -9.489851470593E+00 -9.506783680367E+00 -9.523458002061E+00
 -9.539773157116E+00 -9.555617469527E+00 -9.570868341191E+00 -9.585391768121E+00
 -9.599041911956E+00 -9.611660742800E+00 -9.623077771140E+00 -9.628278882590E+00
 -9.633109888010E+00 -9.637545921831E+00 -9.641561333922E+00 -9.645129697187E+00
 -9.648223818009E+00 -9.650815749740E+00 -9.652876809393E+00 -9.654377597702E+00
 -9.655288022718E+00 -9.655577327074E+00 -9.655214119069E+00 -9.654166407704E+00
 -9.652401641766E+00 -9.649886753061E+00 -9.646588203870E+00 -9.642472038675E+00
 -9.637503940167E+00 -9.631649289541E+00 -9.624873231021E+00 -9.617140740533E+00
 -9.608416698420E+00 -9.598665966000E+00 -9.587853465785E+00 -9.575944265057E+00
 -9.562903662511E+00 -9.548697277554E+00 -9.533291141831E+00 -9.516651792473E+00
 -9.498746366486E+00 -9.479542695659E+00 -9.459009401270E+00 -9.437115987853E+00
 -9.413832935176E+00 -9.389131787562E+00 -9.362985239628E+00 -9.335367217459E+00
 -9.306252954227E+00 -9.275619059233E+00 -9.243443579370E+00 -9.209706051999E+00
 -9.174387548310E+00 -9.137470706291E+00 -9.098939752548E+00 -9.058780512357E+00
 -9.016980407534E+00 -8.973528441921E+00 -8.928415174587E+00 -8.881632681198E+00
 -8.833174504377E+00 -8.783035594382E+00 -8.731212241944E+00 -8.677702005693E+00
 -8.622503637304E+00 -8.565617008178E+00 -8.507043042301E+00 -8.446783660731E+00
 -8.384841744056E+00 -8.321221120063E+00 -8.255926584736E+00 -8.188963965598E+00
 -8.120340237213E+00 -8.050063699366E+00 -7.978144229042E+00 -7.904593617671E+00
 -7.829426005250E+00 -7.752658422720E+00 -7.674311453415E+00 -7.594410023300E+00
 -7.512984328081E+00 -7.430070903032E+00 -7.345713838373E+00 -7.259966139267E+00
 -7.172891224891E+00 -7.084564555486E+00 -6.995075369924E+00 -6.904528508939E+00
 -6.813046291113E+00 -6.720770399839E+00 -6.627863730152E+00 -6.534512134794E+00
 -6.440925999438E+00 -6.347341568209E+00 -6.254021932992E+00 -6.161257594231E+00
 -6.069366497767E+00 -5.978693452440E+00 -5.889608837760E+00 -5.802506520540E+00
 -5.717800914833E+00 -5.635923141414E+00 -5.557316271500E+00 -5.482429674491E+00