F     ONCVPSP-3.3.1  r_core=   1.30942   1.45782   1.60379
      9.0000      7.0000      201202    zatom,zion,pspd
     8   -1012   2     4   600     0    pspcod,pspxc,lmax,lloc,mmax,r2well
  5.99000000  2.50000000  0.00000000    rchrg fchrg qchrg
     2     2     1     0     0    nproj
     1     1           extension_switch
   0                         6.4870515044894D+00  1.0618474222737D+00
     1  0.0000000000000D+00 -2.2588336756613D-09  5.6854621566238D-09
     2  1.0000000000000D-02  9.9834189088874D-02 -3.9465927257471D-02
     3  2.0000000000000D-02  1.9928781019727D-01 -7.8463804274475D-02
     4  3.0000000000000D-02  2.9798305749370D-01 -1.1653115996282D-01
     5  4.0000000000000D-02  3.9554761361746D-01 -1.5321659473467D-01
     6  5.0000000000000D-02  4.9161730493555D-01 -1.8808510072628D-01
     7  6.0000000000000D-02  5.8583865166598D-01 -2.2072312751979D-01
     8  7.0000000000000D-02  6.7787128052725D-01 -2.5074331533676D-01
     9  8.0000000000000D-02  7.6739016983285D-01 -2.7778882336252D-01
    10  9.0000000000000D-02  8.5408769969985D-01 -3.0153718778293D-01
    11  1.0000000000000D-01  9.3767548323649D-01 -3.2170365215660D-01
    12  1.1000000000000D-01  1.0178859581596D+00 -3.3804392176794D-01
    13  1.2000000000000D-01  1.0944737222076D+00 -3.5035630345541D-01
    14  1.3000000000000D-01  1.1672165998933D+00 -3.5848320291497D-01
    15  1.4000000000000D-01  1.2359164325064D+00 -3.6231196246099D-01
    16  1.5000000000000D-01  1.3003995877632D+00 -3.6177503349516D-01
    17  1.6000000000000D-01  1.3605171900185D+00 -3.5684948929369D-01
    18  1.7000000000000D-01  1.4161450764409D+00 -3.4755589497662D-01
    19  1.8000000000000D-01  1.4671834889153D+00 -3.3395656247372D-01
    20  1.9000000000000D-01  1.5135565156100D+00 -3.1615322875757D-01
    21  2.0000000000000D-01  1.5552113000491D+00 -2.9428420539194D-01
    22  2.1000000000000D-01  1.5921170391051D+00 -2.6852105636777D-01
    23  2.2000000000000D-01  1.6242637944972D+00 -2.3906486911200D-01
    24  2.3000000000000D-01  1.6516611451029D+00 -2.0614219031284D-01
    25  2.4000000000000D-01  1.6743367096052D+00 -1.7000070368416D-01
    26  2.5000000000000D-01  1.6923345706745D+00 -1.3090473089132D-01
    27  2.6000000000000D-01  1.7057136329833D+00 -8.9130639501649D-02
    28  2.7000000000000D-01  1.7145459478582D+00 -4.4962242951046D-02
    29  2.8000000000000D-01  1.7189150372769D+00  1.3137228926371D-03
    30  2.9000000000000D-01  1.7189142492109D+00  4.9411963938734D-02
    31  3.0000000000000D-01  1.7146451750217D+00  9.9052753688841D-02
    32  3.1000000000000D-01  1.7062161577440D+00  1.4996574641273D-01
    33  3.2000000000000D-01  1.6937409176816D+00  2.0189340974201D-01
    34  3.3000000000000D-01  1.6773373188315D+00  2.5459401631236D-01
    35  3.4000000000000D-01  1.6571262962959D+00  3.0784414280577D-01
    36  3.5000000000000D-01  1.6332309610959D+00  3.6144063445685D-01
    37  3.6000000000000D-01  1.6057758947381D+00  4.1520200362610D-01
    38  3.7000000000000D-01  1.5748866415706D+00  4.6896924221923D-01
    39  3.8000000000000D-01  1.5406894024888D+00  5.2260603934612D-01
    40  3.9000000000000D-01  1.5033109289829D+00  5.7599840745825D-01
    41  4.0000000000000D-01  1.4628786119579D+00  6.2905373205910D-01
    42  4.1000000000000D-01  1.4195207552771D+00  6.8169927173573D-01
    43  4.2000000000000D-01  1.3733670196739D+00  7.3388014648703D-01
    44  4.3000000000000D-01  1.3245490186278D+00  7.8555686291899D-01
    45  4.4000000000000D-01  1.2732010440844D+00  8.3670243463243D-01
    46  4.5000000000000D-01  1.2194608965954D+00  8.8729916485442D-01
    47  4.6000000000000D-01  1.1634707916291D+00  9.3733516588750D-01
    48  4.7000000000000D-01  1.1053783115142D+00  9.8680069611546D-01
    49  4.8000000000000D-01  1.0453373707820D+00  1.0356843999784D+00
    50  4.9000000000000D-01  9.8350916160921D-01  1.0839695394080D+00
    51  5.0000000000000D-01  9.2006304565513D-01  1.1316303066159D+00
    52  5.1000000000000D-01  8.5517735886437D-01  1.1786283078054D+00
    53  5.2000000000000D-01  7.8904009676542D-01  1.2249093053130D+00
    54  5.3000000000000D-01  7.2184944943503D-01  1.2704003018854D+00
    55  5.4000000000000D-01  6.5381415759464D-01  1.3150070453268D+00
    56  5.5000000000000D-01  5.8515366423524D-01  1.3586120246486D+00
    57  5.6000000000000D-01  5.1609803967283D-01  1.4010730202772D+00
    58  5.7000000000000D-01  4.4688766197803D-01  1.4422222609098D+00
    59  5.8000000000000D-01  3.7777263922440D-01  1.4818662284540D+00
    60  5.9000000000000D-01  3.0901196488610D-01  1.5197861403182D+00
    61  6.0000000000000D-01  2.4087240290838D-01  1.5557391253360D+00
    62  6.1000000000000D-01  1.7362710437814D-01  1.5894600960537D+00
    63  6.2000000000000D-01  1.0755396323140D-01  1.6206643062306D+00
    64  6.3000000000000D-01  4.2933723986490D-02  1.6490505683806D+00
    65  6.4000000000000D-01 -1.9952140089248D-02  1.6743050924364D+00
    66  6.5000000000000D-01 -8.0823754688946D-02  1.6961058931678D+00
    67  6.6000000000000D-01 -1.3940534940305D-01  1.7141277013001D+00
    68  6.7000000000000D-01 -1.9542790666565D-01  1.7280473015247D+00
    69  6.8000000000000D-01 -2.4863191736663D-01  1.7375492098993D+00
    70  6.9000000000000D-01 -2.9877020225931D-01  1.7423315939096D+00
    71  7.0000000000000D-01 -3.4561075538346D-01  1.7421123307361D+00
    72  7.1000000000000D-01 -3.8893956352086D-01  1.7366350932828D+00
    73  7.2000000000000D-01 -4.2856335424633D-01  1.7256753493770D+00
    74  7.3000000000000D-01 -4.6431222448637D-01  1.7090461573873D+00
    75  7.4000000000000D-01 -4.9604210165919D-01  1.6866036413552D+00
    76  7.5000000000000D-01 -5.2363699047098D-01  1.6582520306660D+00
    77  7.6000000000000D-01 -5.4701096025510D-01  1.6239481532333D+00
    78  7.7000000000000D-01 -5.6610983039119D-01  1.5837052772067D+00
    79  7.8000000000000D-01 -5.8091251473989D-01  1.5375962041162D+00
    80  7.9000000000000D-01 -5.9143199017146D-01  1.4857555261402D+00
    81  8.0000000000000D-01 -5.9771585906997D-01  1.4283809716065D+00
    82  8.1000000000000D-01 -5.9984648109020D-01  1.3657337757626D+00
    83  8.2000000000000D-01 -5.9794065534455D-01  1.2981380280461D+00
    84  8.3000000000000D-01 -5.9214884050480D-01  1.2259789623310D+00
    85  8.4000000000000D-01 -5.8265390691390D-01  1.1497001726433D+00
    86  8.5000000000000D-01 -5.6966942160324D-01  1.0697997533703D+00
    87  8.6000000000000D-01 -5.5343747398419D-01  9.8682537972668D-01
    88  8.7000000000000D-01 -5.3422605681024D-01  9.0136836090759D-01
    89  8.8000000000000D-01 -5.1232602366637D-01  8.1405671464197D-01
    90  8.9000000000000D-01 -4.8804765061850D-01  7.2554732747759D-01
    91  9.0000000000000D-01 -4.6171683563255D-01  6.3651727978963D-01
    92  9.1000000000000D-01 -4.3367097484138D-01  5.4765442794229D-01
    93  9.2000000000000D-01 -4.0425455959912D-01  4.5964734799768D-01
    94  9.3000000000000D-01 -3.7381454136714D-01  3.7317475151240D-01
    95  9.4000000000000D-01 -3.4269551778460D-01  2.8889450472573D-01
    96  9.5000000000000D-01 -3.1123482125551D-01  2.0743248003219D-01
    97  9.6000000000000D-01 -2.7975741440515D-01  1.2937080277486D-01
    98  9.7000000000000D-01 -2.4857131255676D-01  5.5238186835976D-02
    99  9.8000000000000D-01 -2.1796659917670D-01 -1.4486083480455D-02
   100  9.9000000000000D-01 -1.8821553961083D-01 -7.9365697637918D-02
   101  1.0000000000000D+00 -1.5957021726306D-01 -1.3901169400518D-01
   102  1.0100000000000D+00 -1.3225970306653D-01 -1.9308920508435D-01
   103  1.0200000000000D+00 -1.0648771221457D-01 -2.4132272764803D-01
   104  1.0300000000000D+00 -8.2430575761886D-02 -2.8350070806809D-01
   105  1.0400000000000D+00 -6.0235592805396D-02 -3.1947921715439D-01
   106  1.0500000000000D+00 -4.0019794557398D-02 -3.4918463216825D-01
   107  1.0600000000000D+00 -2.1869139849341D-02 -3.7261527933655D-01
   108  1.0700000000000D+00 -5.8381564828392D-03 -3.8984200036073D-01
   109  1.0800000000000D+00  8.0499639517409D-03 -4.0100762312591D-01
   110  1.0900000000000D+00  1.9802817665050D-02 -4.0632533527485D-01
   111  1.1000000000000D+00  2.9457793006627D-02 -4.0607597524432D-01
   112  1.1100000000000D+00  3.7080641677257D-02 -4.0060427457413D-01
   113  1.1200000000000D+00  4.2763637651816D-02 -3.9031410187542D-01
   114  1.1300000000000D+00  4.6623351329814D-02 -3.7566277536329D-01
   115  1.1400000000000D+00  4.8798072445588D-02 -3.5715452574256D-01
   116  1.1500000000000D+00  4.9444920950817D-02 -3.3533320530154D-01
   117  1.1600000000000D+00  4.8736690789000D-02 -3.1077435322106D-01
   118  1.1700000000000D+00  4.6858475363259D-02 -2.8407673674743D-01
   119  1.1800000000000D+00  4.4004126888806D-02 -2.5585349630275D-01
   120  1.1900000000000D+00  4.0372605310342D-02 -2.2672303129289D-01
   121  1.2000000000000D+00  3.6164274147815D-02 -1.9729976759841D-01
   122  1.2100000000000D+00  3.1577201055159D-02 -1.6818494884065D-01
   123  1.2200000000000D+00  2.6803521928001D-02 -1.3995759614828D-01
   124  1.2300000000000D+00  2.2025926039370D-02 -1.1316577789957D-01
   125  1.2400000000000D+00  1.7414316965338D-02 -8.8318324239028D-02
   126  1.2500000000000D+00  1.3122703469301D-02 -6.5877119740138D-02
   127  1.2600000000000D+00  9.2863694852966D-03 -4.6250095244631D-02
   128  1.2700000000000D+00  6.0213793117525D-03 -2.9794840108019D-02
   129  1.2800000000000D+00  3.4089040437526D-03 -1.6747979924564D-02
   130  1.2900000000000D+00  1.5196025225911D-03 -7.3469237902300D-03
   131  1.3000000000000D+00  4.5648112172504D-04 -2.0247751722641D-03
   132  1.3100000000000D+00  6.1227938224467D-05 -6.9389926804674D-05
   133  1.3200000000000D+00 -9.0672446331715D-06  1.2265058920802D-04
   134  1.3300000000000D+00  5.8174669145238D-06 -5.3330517831196D-05
   135  1.3400000000000D+00  1.3232762054938D-06 -1.0782978476291D-05
   136  1.3500000000000D+00 -8.9159021474520D-07  1.0018254625566D-05
   137  1.3600000000000D+00 -1.2075522578818D-07  1.9900855446591D-07
   138  1.3700000000000D+00 -1.1932367630008D-07  1.9664931417289D-07
   139  1.3800000000000D+00  0.0000000000000D+00  0.0000000000000D+00
   140  1.3900000000000D+00  0.0000000000000D+00  0.0000000000000D+00
   141  1.4000000000000D+00  0.0000000000000D+00  0.0000000000000D+00
   142  1.4100000000000D+00  0.0000000000000D+00  0.0000000000000D+00
   143  1.4200000000000D+00  0.0000000000000D+00  0.0000000000000D+00
   144  1.4300000000000D+00  0.0000000000000D+00  0.0000000000000D+00
   145  1.4400000000000D+00  0.0000000000000D+00  0.0000000000000D+00
   146  1.4500000000000D+00  0.0000000000000D+00  0.0000000000000D+00
   147  1.4600000000000D+00  0.0000000000000D+00  0.0000000000000D+00
   148  1.4700000000000D+00  0.0000000000000D+00  0.0000000000000D+00
   149  1.4800000000000D+00  0.0000000000000D+00  0.0000000000000D+00
   150  1.4900000000000D+00  0.0000000000000D+00  0.0000000000000D+00
   151  1.5000000000000D+00  0.0000000000000D+00  0.0000000000000D+00
   152  1.5100000000000D+00  0.0000000000000D+00  0.0000000000000D+00
   153  1.5200000000000D+00  0.0000000000000D+00  0.0000000000000D+00
   154  1.5300000000000D+00  0.0000000000000D+00  0.0000000000000D+00
   155  1.5400000000000D+00  0.0000000000000D+00  0.0000000000000D+00
   156  1.5500000000000D+00  0.0000000000000D+00  0.0000000000000D+00
   157  1.5600000000000D+00  0.0000000000000D+00  0.0000000000000D+00
   158  1.5700000000000D+00  0.0000000000000D+00  0.0000000000000D+00
   159  1.5800000000000D+00  0.0000000000000D+00  0.0000000000000D+00
   160  1.5900000000000D+00  0.0000000000000D+00  0.0000000000000D+00
   161  1.6000000000000D+00  0.0000000000000D+00  0.0000000000000D+00
   162  1.6100000000000D+00  0.0000000000000D+00  0.0000000000000D+00
   163  1.6200000000000D+00  0.0000000000000D+00  0.0000000000000D+00
   164  1.6300000000000D+00  0.0000000000000D+00  0.0000000000000D+00
   165  1.6400000000000D+00  0.0000000000000D+00  0.0000000000000D+00
   166  1.6500000000000D+00  0.0000000000000D+00  0.0000000000000D+00
   167  1.6600000000000D+00  0.0000000000000D+00  0.0000000000000D+00
   168  1.6700000000000D+00  0.0000000000000D+00  0.0000000000000D+00
   169  1.6800000000000D+00  0.0000000000000D+00  0.0000000000000D+00
   170  1.6900000000000D+00  0.0000000000000D+00  0.0000000000000D+00
   171  1.7000000000000D+00  0.0000000000000D+00  0.0000000000000D+00
   172  1.7100000000000D+00  0.0000000000000D+00  0.0000000000000D+00
   173  1.7200000000000D+00  0.0000000000000D+00  0.0000000000000D+00
   174  1.7300000000000D+00  0.0000000000000D+00  0.0000000000000D+00
   175  1.7400000000000D+00  0.0000000000000D+00  0.0000000000000D+00
   176  1.7500000000000D+00  0.0000000000000D+00  0.0000000000000D+00
   177  1.7600000000000D+00  0.0000000000000D+00  0.0000000000000D+00
   178  1.7700000000000D+00  0.0000000000000D+00  0.0000000000000D+00
   179  1.7800000000000D+00  0.0000000000000D+00  0.0000000000000D+00
   180  1.7900000000000D+00  0.0000000000000D+00  0.0000000000000D+00
   181  1.8000000000000D+00  0.0000000000000D+00  0.0000000000000D+00
   182  1.8100000000000D+00  0.0000000000000D+00  0.0000000000000D+00
   183  1.8200000000000D+00  0.0000000000000D+00  0.0000000000000D+00
   184  1.8300000000000D+00  0.0000000000000D+00  0.0000000000000D+00
   185  1.8400000000000D+00  0.0000000000000D+00  0.0000000000000D+00
   186  1.8500000000000D+00  0.0000000000000D+00  0.0000000000000D+00
   187  1.8600000000000D+00  0.0000000000000D+00  0.0000000000000D+00
   188  1.8700000000000D+00  0.0000000000000D+00  0.0000000000000D+00
   189  1.8800000000000D+00  0.0000000000000D+00  0.0000000000000D+00
   190  1.8900000000000D+00  0.0000000000000D+00  0.0000000000000D+00
   191  1.9000000000000D+00  0.0000000000000D+00  0.0000000000000D+00
   192  1.9100000000000D+00  0.0000000000000D+00  0.0000000000000D+00
   193  1.9200000000000D+00  0.0000000000000D+00  0.0000000000000D+00
   194  1.9300000000000D+00  0.0000000000000D+00  0.0000000000000D+00
   195  1.9400000000000D+00  0.0000000000000D+00  0.0000000000000D+00
   196  1.9500000000000D+00  0.0000000000000D+00  0.0000000000000D+00
   197  1.9600000000000D+00  0.0000000000000D+00  0.0000000000000D+00
   198  1.9700000000000D+00  0.0000000000000D+00  0.0000000000000D+00
   199  1.9800000000000D+00  0.0000000000000D+00  0.0000000000000D+00
   200  1.9900000000000D+00  0.0000000000000D+00  0.0000000000000D+00
   201  2.0000000000000D+00  0.0000000000000D+00  0.0000000000000D+00
   202  2.0100000000000D+00  0.0000000000000D+00  0.0000000000000D+00
   203  2.0200000000000D+00  0.0000000000000D+00  0.0000000000000D+00
   204  2.0300000000000D+00  0.0000000000000D+00  0.0000000000000D+00
   205  2.0400000000000D+00  0.0000000000000D+00  0.0000000000000D+00
   206  2.0500000000000D+00  0.0000000000000D+00  0.0000000000000D+00
   207  2.0600000000000D+00  0.0000000000000D+00  0.0000000000000D+00
   208  2.0700000000000D+00  0.0000000000000D+00  0.0000000000000D+00
   209  2.0800000000000D+00  0.0000000000000D+00  0.0000000000000D+00
   210  2.0900000000000D+00  0.0000000000000D+00  0.0000000000000D+00
   211  2.1000000000000D+00  0.0000000000000D+00  0.0000000000000D+00
   212  2.1100000000000D+00  0.0000000000000D+00  0.0000000000000D+00
   213  2.1200000000000D+00  0.0000000000000D+00  0.0000000000000D+00
   214  2.1300000000000D+00  0.0000000000000D+00  0.0000000000000D+00
   215  2.1400000000000D+00  0.0000000000000D+00  0.0000000000000D+00
   216  2.1500000000000D+00  0.0000000000000D+00  0.0000000000000D+00
   217  2.1600000000000D+00  0.0000000000000D+00  0.0000000000000D+00
   218  2.1700000000000D+00  0.0000000000000D+00  0.0000000000000D+00
   219  2.1800000000000D+00  0.0000000000000D+00  0.0000000000000D+00
   220  2.1900000000000D+00  0.0000000000000D+00  0.0000000000000D+00
   221  2.2000000000000D+00  0.0000000000000D+00  0.0000000000000D+00
   222  2.2100000000000D+00  0.0000000000000D+00  0.0000000000000D+00
   223  2.2200000000000D+00  0.0000000000000D+00  0.0000000000000D+00
   224  2.2300000000000D+00  0.0000000000000D+00  0.0000000000000D+00
   225  2.2400000000000D+00  0.0000000000000D+00  0.0000000000000D+00
   226  2.2500000000000D+00  0.0000000000000D+00  0.0000000000000D+00
   227  2.2600000000000D+00  0.0000000000000D+00  0.0000000000000D+00
   228  2.2700000000000D+00  0.0000000000000D+00  0.0000000000000D+00
   229  2.2800000000000D+00  0.0000000000000D+00  0.0000000000000D+00
   230  2.2900000000000D+00  0.0000000000000D+00  0.0000000000000D+00
   231  2.3000000000000D+00  0.0000000000000D+00  0.0000000000000D+00
   232  2.3100000000000D+00  0.0000000000000D+00  0.0000000000000D+00
   233  2.3200000000000D+00  0.0000000000000D+00  0.0000000000000D+00
   234  2.3300000000000D+00  0.0000000000000D+00  0.0000000000000D+00
   235  2.3400000000000D+00  0.0000000000000D+00  0.0000000000000D+00
   236  2.3500000000000D+00  0.0000000000000D+00  0.0000000000000D+00
   237  2.3600000000000D+00  0.0000000000000D+00  0.0000000000000D+00
   238  2.3700000000000D+00  0.0000000000000D+00  0.0000000000000D+00
   239  2.3800000000000D+00  0.0000000000000D+00  0.0000000000000D+00
   240  2.3900000000000D+00  0.0000000000000D+00  0.0000000000000D+00
   241  2.4000000000000D+00  0.0000000000000D+00  0.0000000000000D+00
   242  2.4100000000000D+00  0.0000000000000D+00  0.0000000000000D+00
   243  2.4200000000000D+00  0.0000000000000D+00  0.0000000000000D+00
   244  2.4300000000000D+00  0.0000000000000D+00  0.0000000000000D+00
   245  2.4400000000000D+00  0.0000000000000D+00  0.0000000000000D+00
   246  2.4500000000000D+00  0.0000000000000D+00  0.0000000000000D+00
   247  2.4600000000000D+00  0.0000000000000D+00  0.0000000000000D+00
   248  2.4700000000000D+00  0.0000000000000D+00  0.0000000000000D+00
   249  2.4800000000000D+00  0.0000000000000D+00  0.0000000000000D+00
   250  2.4900000000000D+00  0.0000000000000D+00  0.0000000000000D+00
   251  2.5000000000000D+00  0.0000000000000D+00  0.0000000000000D+00
   252  2.5100000000000D+00  0.0000000000000D+00  0.0000000000000D+00
   253  2.5200000000000D+00  0.0000000000000D+00  0.0000000000000D+00
   254  2.5300000000000D+00  0.0000000000000D+00  0.0000000000000D+00
   255  2.5400000000000D+00  0.0000000000000D+00  0.0000000000000D+00
   256  2.5500000000000D+00  0.0000000000000D+00  0.0000000000000D+00
   257  2.5600000000000D+00  0.0000000000000D+00  0.0000000000000D+00
   258  2.5700000000000D+00  0.0000000000000D+00  0.0000000000000D+00
   259  2.5800000000000D+00  0.0000000000000D+00  0.0000000000000D+00
   260  2.5900000000000D+00  0.0000000000000D+00  0.0000000000000D+00
   261  2.6000000000000D+00  0.0000000000000D+00  0.0000000000000D+00
   262  2.6100000000000D+00  0.0000000000000D+00  0.0000000000000D+00
   263  2.6200000000000D+00  0.0000000000000D+00  0.0000000000000D+00
   264  2.6300000000000D+00  0.0000000000000D+00  0.0000000000000D+00
   265  2.6400000000000D+00  0.0000000000000D+00  0.0000000000000D+00
   266  2.6500000000000D+00  0.0000000000000D+00  0.0000000000000D+00
   267  2.6600000000000D+00  0.0000000000000D+00  0.0000000000000D+00
   268  2.6700000000000D+00  0.0000000000000D+00  0.0000000000000D+00
   269  2.6800000000000D+00  0.0000000000000D+00  0.0000000000000D+00
   270  2.6900000000000D+00  0.0000000000000D+00  0.0000000000000D+00
   271  2.7000000000000D+00  0.0000000000000D+00  0.0000000000000D+00
   272  2.7100000000000D+00  0.0000000000000D+00  0.0000000000000D+00
   273  2.7200000000000D+00  0.0000000000000D+00  0.0000000000000D+00
   274  2.7300000000000D+00  0.0000000000000D+00  0.0000000000000D+00
   275  2.7400000000000D+00  0.0000000000000D+00  0.0000000000000D+00
   276  2.7500000000000D+00  0.0000000000000D+00  0.0000000000000D+00
   277  2.7600000000000D+00  0.0000000000000D+00  0.0000000000000D+00
   278  2.7700000000000D+00  0.0000000000000D+00  0.0000000000000D+00
   279  2.7800000000000D+00  0.0000000000000D+00  0.0000000000000D+00
   280  2.7900000000000D+00  0.0000000000000D+00  0.0000000000000D+00
   281  2.8000000000000D+00  0.0000000000000D+00  0.0000000000000D+00
   282  2.8100000000000D+00  0.0000000000000D+00  0.0000000000000D+00
   283  2.8200000000000D+00  0.0000000000000D+00  0.0000000000000D+00
   284  2.8300000000000D+00  0.0000000000000D+00  0.0000000000000D+00
   285  2.8400000000000D+00  0.0000000000000D+00  0.0000000000000D+00
   286  2.8500000000000D+00  0.0000000000000D+00  0.0000000000000D+00
   287  2.8600000000000D+00  0.0000000000000D+00  0.0000000000000D+00
   288  2.8700000000000D+00  0.0000000000000D+00  0.0000000000000D+00
   289  2.8800000000000D+00  0.0000000000000D+00  0.0000000000000D+00
   290  2.8900000000000D+00  0.0000000000000D+00  0.0000000000000D+00
   291  2.9000000000000D+00  0.0000000000000D+00  0.0000000000000D+00
   292  2.9100000000000D+00  0.0000000000000D+00  0.0000000000000D+00
   293  2.9200000000000D+00  0.0000000000000D+00  0.0000000000000D+00
   294  2.9300000000000D+00  0.0000000000000D+00  0.0000000000000D+00
   295  2.9400000000000D+00  0.0000000000000D+00  0.0000000000000D+00
   296  2.9500000000000D+00  0.0000000000000D+00  0.0000000000000D+00
   297  2.9600000000000D+00  0.0000000000000D+00  0.0000000000000D+00
   298  2.9700000000000D+00  0.0000000000000D+00  0.0000000000000D+00
   299  2.9800000000000D+00  0.0000000000000D+00  0.0000000000000D+00
   300  2.9900000000000D+00  0.0000000000000D+00  0.0000000000000D+00
   301  3.0000000000000D+00  0.0000000000000D+00  0.0000000000000D+00
   302  3.0100000000000D+00  0.0000000000000D+00  0.0000000000000D+00
   303  3.0200000000000D+00  0.0000000000000D+00  0.0000000000000D+00
   304  3.0300000000000D+00  0.0000000000000D+00  0.0000000000000D+00
   305  3.0400000000000D+00  0.0000000000000D+00  0.0000000000000D+00
   306  3.0500000000000D+00  0.0000000000000D+00  0.0000000000000D+00
   307  3.0600000000000D+00  0.0000000000000D+00  0.0000000000000D+00
   308  3.0700000000000D+00  0.0000000000000D+00  0.0000000000000D+00
   309  3.0800000000000D+00  0.0000000000000D+00  0.0000000000000D+00
   310  3.0900000000000D+00  0.0000000000000D+00  0.0000000000000D+00
   311  3.1000000000000D+00  0.0000000000000D+00  0.0000000000000D+00
   312  3.1100000000000D+00  0.0000000000000D+00  0.0000000000000D+00
   313  3.1200000000000D+00  0.0000000000000D+00  0.0000000000000D+00
   314  3.1300000000000D+00  0.0000000000000D+00  0.0000000000000D+00
   315  3.1400000000000D+00  0.0000000000000D+00  0.0000000000000D+00
   316  3.1500000000000D+00  0.0000000000000D+00  0.0000000000000D+00
   317  3.1600000000000D+00  0.0000000000000D+00  0.0000000000000D+00
   318  3.1700000000000D+00  0.0000000000000D+00  0.0000000000000D+00
   319  3.1800000000000D+00  0.0000000000000D+00  0.0000000000000D+00
   320  3.1900000000000D+00  0.0000000000000D+00  0.0000000000000D+00
   321  3.2000000000000D+00  0.0000000000000D+00  0.0000000000000D+00
   322  3.2100000000000D+00  0.0000000000000D+00  0.0000000000000D+00
   323  3.2200000000000D+00  0.0000000000000D+00  0.0000000000000D+00
   324  3.2300000000000D+00  0.0000000000000D+00  0.0000000000000D+00
   325  3.2400000000000D+00  0.0000000000000D+00  0.0000000000000D+00
   326  3.2500000000000D+00  0.0000000000000D+00  0.0000000000000D+00
   327  3.2600000000000D+00  0.0000000000000D+00  0.0000000000000D+00
   328  3.2700000000000D+00  0.0000000000000D+00  0.0000000000000D+00
   329  3.2800000000000D+00  0.0000000000000D+00  0.0000000000000D+00
   330  3.2900000000000D+00  0.0000000000000D+00  0.0000000000000D+00
   331  3.3000000000000D+00  0.0000000000000D+00  0.0000000000000D+00
   332  3.3100000000000D+00  0.0000000000000D+00  0.0000000000000D+00
   333  3.3200000000000D+00  0.0000000000000D+00  0.0000000000000D+00
   334  3.3300000000000D+00  0.0000000000000D+00  0.0000000000000D+00
   335  3.3400000000000D+00  0.0000000000000D+00  0.0000000000000D+00
   336  3.3500000000000D+00  0.0000000000000D+00  0.0000000000000D+00
   337  3.3600000000000D+00  0.0000000000000D+00  0.0000000000000D+00
   338  3.3700000000000D+00  0.0000000000000D+00  0.0000000000000D+00
   339  3.3800000000000D+00  0.0000000000000D+00  0.0000000000000D+00
   340  3.3900000000000D+00  0.0000000000000D+00  0.0000000000000D+00
   341  3.4000000000000D+00  0.0000000000000D+00  0.0000000000000D+00
   342  3.4100000000000D+00  0.0000000000000D+00  0.0000000000000D+00
   343  3.4200000000000D+00  0.0000000000000D+00  0.0000000000000D+00
   344  3.4300000000000D+00  0.0000000000000D+00  0.0000000000000D+00
   345  3.4400000000000D+00  0.0000000000000D+00  0.0000000000000D+00
   346  3.4500000000000D+00  0.0000000000000D+00  0.0000000000000D+00
   347  3.4600000000000D+00  0.0000000000000D+00  0.0000000000000D+00
   348  3.4700000000000D+00  0.0000000000000D+00  0.0000000000000D+00
   349  3.4800000000000D+00  0.0000000000000D+00  0.0000000000000D+00
   350  3.4900000000000D+00  0.0000000000000D+00  0.0000000000000D+00
   351  3.5000000000000D+00  0.0000000000000D+00  0.0000000000000D+00
   352  3.5100000000000D+00  0.0000000000000D+00  0.0000000000000D+00
   353  3.5200000000000D+00  0.0000000000000D+00  0.0000000000000D+00
   354  3.5300000000000D+00  0.0000000000000D+00  0.0000000000000D+00
   355  3.5400000000000D+00  0.0000000000000D+00  0.0000000000000D+00
   356  3.5500000000000D+00  0.0000000000000D+00  0.0000000000000D+00
   357  3.5600000000000D+00  0.0000000000000D+00  0.0000000000000D+00
   358  3.5700000000000D+00  0.0000000000000D+00  0.0000000000000D+00
   359  3.5800000000000D+00  0.0000000000000D+00  0.0000000000000D+00
   360  3.5900000000000D+00  0.0000000000000D+00  0.0000000000000D+00
   361  3.6000000000000D+00  0.0000000000000D+00  0.0000000000000D+00
   362  3.6100000000000D+00  0.0000000000000D+00  0.0000000000000D+00
   363  3.6200000000000D+00  0.0000000000000D+00  0.0000000000000D+00
   364  3.6300000000000D+00  0.0000000000000D+00  0.0000000000000D+00
   365  3.6400000000000D+00  0.0000000000000D+00  0.0000000000000D+00
   366  3.6500000000000D+00  0.0000000000000D+00  0.0000000000000D+00
   367  3.6600000000000D+00  0.0000000000000D+00  0.0000000000000D+00
   368  3.6700000000000D+00  0.0000000000000D+00  0.0000000000000D+00
   369  3.6800000000000D+00  0.0000000000000D+00  0.0000000000000D+00
   370  3.6900000000000D+00  0.0000000000000D+00  0.0000000000000D+00
   371  3.7000000000000D+00  0.0000000000000D+00  0.0000000000000D+00
   372  3.7100000000000D+00  0.0000000000000D+00  0.0000000000000D+00
   373  3.7200000000000D+00  0.0000000000000D+00  0.0000000000000D+00
   374  3.7300000000000D+00  0.0000000000000D+00  0.0000000000000D+00
   375  3.7400000000000D+00  0.0000000000000D+00  0.0000000000000D+00
   376  3.7500000000000D+00  0.0000000000000D+00  0.0000000000000D+00
   377  3.7600000000000D+00  0.0000000000000D+00  0.0000000000000D+00
   378  3.7700000000000D+00  0.0000000000000D+00  0.0000000000000D+00
   379  3.7800000000000D+00  0.0000000000000D+00  0.0000000000000D+00
   380  3.7900000000000D+00  0.0000000000000D+00  0.0000000000000D+00
   381  3.8000000000000D+00  0.0000000000000D+00  0.0000000000000D+00
   382  3.8100000000000D+00  0.0000000000000D+00  0.0000000000000D+00
   383  3.8200000000000D+00  0.0000000000000D+00  0.0000000000000D+00
   384  3.8300000000000D+00  0.0000000000000D+00  0.0000000000000D+00
   385  3.8400000000000D+00  0.0000000000000D+00  0.0000000000000D+00
   386  3.8500000000000D+00  0.0000000000000D+00  0.0000000000000D+00
   387  3.8600000000000D+00  0.0000000000000D+00  0.0000000000000D+00
   388  3.8700000000000D+00  0.0000000000000D+00  0.0000000000000D+00
   389  3.8800000000000D+00  0.0000000000000D+00  0.0000000000000D+00
   390  3.8900000000000D+00  0.0000000000000D+00  0.0000000000000D+00
   391  3.9000000000000D+00  0.0000000000000D+00  0.0000000000000D+00
   392  3.9100000000000D+00  0.0000000000000D+00  0.0000000000000D+00
   393  3.9200000000000D+00  0.0000000000000D+00  0.0000000000000D+00
   394  3.9300000000000D+00  0.0000000000000D+00  0.0000000000000D+00
   395  3.9400000000000D+00  0.0000000000000D+00  0.0000000000000D+00
   396  3.9500000000000D+00  0.0000000000000D+00  0.0000000000000D+00
   397  3.9600000000000D+00  0.0000000000000D+00  0.0000000000000D+00
   398  3.9700000000000D+00  0.0000000000000D+00  0.0000000000000D+00
   399  3.9800000000000D+00  0.0000000000000D+00  0.0000000000000D+00
   400  3.9900000000000D+00  0.0000000000000D+00  0.0000000000000D+00
   401  4.0000000000000D+00  0.0000000000000D+00  0.0000000000000D+00
   402  4.0100000000000D+00  0.0000000000000D+00  0.0000000000000D+00
   403  4.0200000000000D+00  0.0000000000000D+00  0.0000000000000D+00
   404  4.0300000000000D+00  0.0000000000000D+00  0.0000000000000D+00
   405  4.0400000000000D+00  0.0000000000000D+00  0.0000000000000D+00
   406  4.0500000000000D+00  0.0000000000000D+00  0.0000000000000D+00
   407  4.0600000000000D+00  0.0000000000000D+00  0.0000000000000D+00
   408  4.0700000000000D+00  0.0000000000000D+00  0.0000000000000D+00
   409  4.0800000000000D+00  0.0000000000000D+00  0.0000000000000D+00
   410  4.0900000000000D+00  0.0000000000000D+00  0.0000000000000D+00
   411  4.1000000000000D+00  0.0000000000000D+00  0.0000000000000D+00
   412  4.1100000000000D+00  0.0000000000000D+00  0.0000000000000D+00
   413  4.1200000000000D+00  0.0000000000000D+00  0.0000000000000D+00
   414  4.1300000000000D+00  0.0000000000000D+00  0.0000000000000D+00
   415  4.1400000000000D+00  0.0000000000000D+00  0.0000000000000D+00
   416  4.1500000000000D+00  0.0000000000000D+00  0.0000000000000D+00
   417  4.1600000000000D+00  0.0000000000000D+00  0.0000000000000D+00
   418  4.1700000000000D+00  0.0000000000000D+00  0.0000000000000D+00
   419  4.1800000000000D+00  0.0000000000000D+00  0.0000000000000D+00
   420  4.1900000000000D+00  0.0000000000000D+00  0.0000000000000D+00
   421  4.2000000000000D+00  0.0000000000000D+00  0.0000000000000D+00
   422  4.2100000000000D+00  0.0000000000000D+00  0.0000000000000D+00