Cd    ONCVPSP  r_core=  1.91  2.10  1.72
48.0000     12.0000      161004    zatom,zion,pspd
8 -116133   2     4   600     0    pspcod,pspxc,lmax,lloc,mmax,r2well
5.99000000  5.00000000  0.00000000    rchrg fchrg qchrg
2     2     2     0     0    nproj
1                 extension_switch
0                         1.0662601304015D+01  1.8298541637724D+00
1  0.0000000000000D+00 -5.8946736380960D-11  6.8510336292960D-11
2  1.0000000000000D-02  4.4191353318606D-02 -2.9140342390926D-02
3  2.0000000000000D-02  8.8240585520232D-02 -5.8124747184706D-02
4  3.0000000000000D-02  1.3200628242422D-01 -8.6798069672157D-02
5  4.0000000000000D-02  1.7534844028506D-01 -1.1500674701095D-01
6  5.0000000000000D-02  2.1812916243098D-01 -1.4259957940360D-01
7  6.0000000000000D-02  2.6021334564931D-01 -1.6942849961724D-01
8  7.0000000000000D-02  3.0146935296980D-01 -1.9534932703935D-01
9  8.0000000000000D-02  3.4176966955595D-01 -2.2022250253201D-01
10  9.0000000000000D-02  3.8099153848779D-01 -2.4391380043271D-01
11  1.0000000000000D-01  4.1901757330659D-01 -2.6629501415080D-01
12  1.1000000000000D-01  4.5573634429344D-01 -2.8724461192669D-01
13  1.2000000000000D-01  4.9104293556817D-01 -3.0664835945392D-01
14  1.3000000000000D-01  5.2483947022300D-01 -3.2439990621280D-01
15  1.4000000000000D-01  5.5703560084569D-01 -3.4040133252724D-01
16  1.5000000000000D-01  5.8754896294007D-01 -3.5456365453390D-01
17  1.6000000000000D-01  6.1630558891575D-01 -3.6680728444310D-01
18  1.7000000000000D-01  6.4324028049537D-01 -3.7706244367491D-01
19  1.8000000000000D-01  6.6829693757244D-01 -3.8526952666864D-01
20  1.9000000000000D-01  6.9142884175102D-01 -3.9137941339186D-01
21  2.0000000000000D-01  7.1259889300120D-01 -3.9535372881079D-01
22  2.1000000000000D-01  7.3177979808047D-01 -3.9716504783227D-01
23  2.2000000000000D-01  7.4895420959013D-01 -3.9679704448116D-01
24  2.3000000000000D-01  7.6411481476574D-01 -3.9424458434135D-01
25  2.4000000000000D-01  7.7726437333354D-01 -3.8951375955680D-01
26  2.5000000000000D-01  7.8841570400411D-01 -3.8262186596447D-01
27  2.6000000000000D-01  7.9759161941744D-01 -3.7359732220981D-01
28  2.7000000000000D-01  8.0482480960001D-01 -3.6247953097806D-01
29  2.8000000000000D-01  8.1015767424196D-01 -3.4931868275815D-01
30  2.9000000000000D-01  8.1364210435229D-01 -3.3417550284177D-01
31  3.0000000000000D-01  8.1533921409843D-01 -3.1712094254368D-01
32  3.1000000000000D-01  8.1531902388444D-01 -2.9823581591215D-01
33  3.2000000000000D-01  8.1366009596806D-01 -2.7761038347792D-01
34  3.3000000000000D-01  8.1044912415789D-01 -2.5534388486430D-01
35  3.4000000000000D-01  8.0578047937065D-01 -2.3154402235086D-01
36  3.5000000000000D-01  7.9975571305870D-01 -2.0632639774395D-01
37  3.6000000000000D-01  7.9248302074430D-01 -1.7981390516218D-01
38  3.7000000000000D-01  7.8407666811228D-01 -1.5213608258683D-01
39  3.8000000000000D-01  7.7465638232146D-01 -1.2342842526130D-01
40  3.9000000000000D-01  7.6434671139174D-01 -9.3831664242872D-02
41  4.0000000000000D-01  7.5327635470916D-01 -6.3491013616475D-02
42  4.1000000000000D-01  7.4157746786608D-01 -3.2555390073180D-02
43  4.2000000000000D-01  7.2938494521061D-01 -1.1766087294248D-03
44  4.3000000000000D-01  7.1683568362738D-01  3.0491440776132D-02
45  4.4000000000000D-01  7.0406783119954D-01  6.2293633732553D-02
46  4.5000000000000D-01  6.9122002451571D-01  9.4074461056059D-02
47  4.6000000000000D-01  6.7843061848134D-01  1.2567888684119D-01
48  4.7000000000000D-01  6.6583691257294D-01  1.5695320828491D-01
49  4.8000000000000D-01  6.5357437753051D-01  1.8774591344895D-01
50  4.9000000000000D-01  6.4177588652667D-01  2.1790853228679D-01
51  5.0000000000000D-01  6.3057095486751D-01  2.4729647635240D-01
52  5.1000000000000D-01  6.2008499228284D-01  2.7576986261530D-01
53  5.2000000000000D-01  6.1043857183997D-01  3.0319431684400D-01
54  5.3000000000000D-01  6.0174671947490D-01  3.2944175207617D-01
55  5.4000000000000D-01  5.9411822807057D-01  3.5439111777793D-01
56  5.5000000000000D-01  5.8765499992771D-01  3.7792911540141D-01
57  5.6000000000000D-01  5.8245142136911D-01  3.9995087617979D-01
58  5.7000000000000D-01  5.7859377308942D-01  4.2036059715594D-01
59  5.8000000000000D-01  5.7615967971927D-01  4.3907213161555D-01
60  5.9000000000000D-01  5.7521760190198D-01  4.5600953029945D-01
61  6.0000000000000D-01  5.7582637399460D-01  4.7110752999200D-01
62  6.1000000000000D-01  5.7803479030186D-01  4.8431198632504D-01
63  6.2000000000000D-01  5.8188124252262D-01  4.9558024790507D-01
64  6.3000000000000D-01  5.8739341085178D-01  5.0488146915110D-01
65  6.4000000000000D-01  5.9458801091819D-01  5.1219685953686D-01
66  6.5000000000000D-01  6.0347059846827D-01  5.1751986724725D-01
67  6.6000000000000D-01  6.1403543341757D-01  5.2085629559337D-01
68  6.7000000000000D-01  6.2626540459113D-01  5.2222435087971D-01
69  6.8000000000000D-01  6.4013201616267D-01  5.2165462077607D-01
70  6.9000000000000D-01  6.5559543648212D-01  5.1918998261676D-01
71  7.0000000000000D-01  6.7260460965093D-01  5.1488544142857D-01
72  7.1000000000000D-01  6.9109742986811D-01  5.0880789787469D-01
73  7.2000000000000D-01  7.1100097823141D-01  5.0103584668943D-01
74  7.3000000000000D-01  7.3223182133137D-01  4.9165900657279D-01
75  7.4000000000000D-01  7.5469637063571D-01  4.8077788290187D-01
76  7.5000000000000D-01  7.7829130131297D-01  4.6850326501020D-01
77  7.6000000000000D-01  8.0290402880723D-01  4.5495566016802D-01
78  7.7000000000000D-01  8.2841324113865D-01  4.4026466677576D-01
79  7.8000000000000D-01  8.5468948457302D-01  4.2456828965499D-01
80  7.9000000000000D-01  8.8159579998741D-01  4.0801220067586D-01
81  8.0000000000000D-01  9.0898840694370D-01  3.9074894830985D-01
82  8.1000000000000D-01  9.3671743218988D-01  3.7293712002210D-01
83  8.2000000000000D-01  9.6462767902118D-01  3.5474046173351D-01
84  8.3000000000000D-01  9.9255943367072D-01  3.3632695887254D-01
85  8.4000000000000D-01  1.0203493046484D+00  3.1786788380859D-01
86  8.5000000000000D-01  1.0478310907199D+00  2.9953681470548D-01
87  8.6000000000000D-01  1.0748366730090D+00  2.8150863105499D-01
88  8.7000000000000D-01  1.1011969265238D+00  2.6395849134560D-01
89  8.8000000000000D-01  1.1267426462476D+00  2.4706079848577D-01
90  8.9000000000000D-01  1.1513054827983D+00  2.3098815873999D-01
91  9.0000000000000D-01  1.1747188825583D+00  2.1591034003510D-01
92  9.1000000000000D-01  1.1968190270907D+00  2.0199323557356D-01
93  9.2000000000000D-01  1.2174457666117D+00  1.8939783872230D-01
94  9.3000000000000D-01  1.2364435422649D+00  1.7827923515564D-01
95  9.4000000000000D-01  1.2536622919529D+00  1.6878561819843D-01
96  9.5000000000000D-01  1.2689583345176D+00  1.6105733325323D-01
97  9.6000000000000D-01  1.2821952271319D+00  1.5522595709447D-01
98  9.7000000000000D-01  1.2932445908637D+00  1.5141341767882D-01
99  9.8000000000000D-01  1.3019868995023D+00  1.4973115995378D-01
100  9.9000000000000D-01  1.3083122268945D+00  1.5027936294347D-01
101  1.0000000000000D+00  1.3121209482338D+00  1.5314621314967D-01
102  1.0100000000000D+00  1.3133243909507D+00  1.5840723905007D-01
103  1.0200000000000D+00  1.3118454311062D+00  1.6612471116523D-01
104  1.0300000000000D+00  1.3076190314605D+00  1.7634711184069D-01
105  1.0400000000000D+00  1.3005927176804D+00  1.8910867853514D-01
106  1.0500000000000D+00  1.2907269894711D+00  2.0442902402409D-01
107  1.0600000000000D+00  1.2779956637742D+00  2.2231283649991D-01
108  1.0700000000000D+00  1.2623861474970D+00  2.4274966216709D-01
109  1.0800000000000D+00  1.2438996376671D+00  2.6571377242547D-01
110  1.0900000000000D+00  1.2225512472703D+00  2.9116411730123D-01
111  1.1000000000000D+00  1.1983700554554D+00  3.1904436629143D-01
112  1.1100000000000D+00  1.1713990812238D+00  3.4928303727537D-01
113  1.1200000000000D+00  1.1416951800956D+00  3.8179371371057D-01
114  1.1300000000000D+00  1.1093288637732D+00  4.1647534971768D-01
115  1.1400000000000D+00  1.0743840431946D+00  4.5321266222565D-01
116  1.1500000000000D+00  1.0369576958817D+00  4.9187660875635D-01
117  1.1600000000000D+00  9.9715945880831D-01  5.3232494906081D-01
118  1.1700000000000D+00  9.5511114861594D-01  5.7440288812204D-01
119  1.1800000000000D+00  9.1094621134164D-01  6.1794379765890D-01
120  1.1900000000000D+00  8.6480910426367D-01  6.6277001275863D-01
121  1.2000000000000D+00  8.1685461285108D-01  7.0869369983341D-01
122  1.2100000000000D+00  7.6724710629218D-01  7.5551779154184D-01
123  1.2200000000000D+00  7.1615973543556D-01  8.0303698391337D-01
124  1.2300000000000D+00  6.6377357718463D-01  8.5103879067952D-01
125  1.2400000000000D+00  6.1027672997778D-01  8.9930464915340D-01
126  1.2500000000000D+00  5.5586336517587D-01  9.4761107179400D-01
127  1.2600000000000D+00  5.0073273938663D-01  9.9573083735916D-01
128  1.2700000000000D+00  4.4508817318173D-01  1.0434342150840D+00
129  1.2800000000000D+00  3.8913600184563D-01  1.0904902151307D+00
130  1.2900000000000D+00  3.3308450388611D-01  1.1366678584576D+00
131  1.3000000000000D+00  2.7714281336387D-01  1.1817374589049D+00
132  1.3100000000000D+00  2.2151982216342D-01  1.2254719102543D+00
133  1.3200000000000D+00  1.6642307836677D-01  1.2676479709638D+00
134  1.3300000000000D+00  1.1205768709406D-01  1.3080475390976D+00
135  1.3400000000000D+00  5.8625220035975D-02  1.3464589101583D+00
136  1.3500000000000D+00  6.3226400525494D-03  1.3826780103356D+00
137  1.3600000000000D+00 -4.4658752947849D-02  1.4165095979592D+00
138  1.3700000000000D+00 -9.4134348758928D-02  1.4477684260708D+00
139  1.3800000000000D+00 -1.4192722001398D-01  1.4762803588712D+00
140  1.3900000000000D+00 -1.8786907613083D-01  1.5018834356454D+00
141  1.4000000000000D+00 -2.3180117212532D-01  1.5244288753060D+00
142  1.4100000000000D+00 -2.7357516689084D-01  1.5437820153921D+00
143  1.4200000000000D+00 -3.1305392608492D-01  1.5598231800188D+00
144  1.4300000000000D+00 -3.5011226404592D-01  1.5724484703990D+00
145  1.4400000000000D+00 -3.8463762105987D-01  1.5815704738890D+00
146  1.4500000000000D+00 -4.1653067102055D-01  1.5871188859420D+00
147  1.4600000000000D+00 -4.4570585601883D-01  1.5890410411844D+00
148  1.4700000000000D+00 -4.7209184473503D-01  1.5873023502224D+00
149  1.4800000000000D+00 -4.9563191066248D-01  1.5818866377825D+00
150  1.4900000000000D+00 -5.1628422928623D-01  1.5727963815025D+00
151  1.5000000000000D+00 -5.3402209013139D-01  1.5600528468444D+00
152  1.5100000000000D+00 -5.4883402407143D-01  1.5436961189595D+00
153  1.5200000000000D+00 -5.6072384334910D-01  1.5237850288195D+00
154  1.5300000000000D+00 -5.6971059443318D-01  1.5003969741217D+00
155  1.5400000000000D+00 -5.7582842379036D-01  1.4736276354060D+00
156  1.5500000000000D+00 -5.7912635595089D-01  1.4435905870121D+00
157  1.5600000000000D+00 -5.7966798675135D-01  1.4104168066269D+00
158  1.5700000000000D+00 -5.7753109041493D-01  1.3742540822102D+00
159  1.5800000000000D+00 -5.7280714587628D-01  1.3352663230119D+00
160  1.5900000000000D+00 -5.6560078087965D-01  1.2936327733266D+00
161  1.6000000000000D+00 -5.5602914066182D-01  1.2495471373304D+00
162  1.6100000000000D+00 -5.4422118095951D-01  1.2032166150793D+00
163  1.6200000000000D+00 -5.3031689225255D-01  1.1548608581114D+00
164  1.6300000000000D+00 -5.1446645679410D-01  1.1047108468571D+00
165  1.6400000000000D+00 -4.9682934520224D-01  1.0530076981243D+00
166  1.6500000000000D+00 -4.7757335576807D-01  1.0000014067292D+00
167  1.6600000000000D+00 -4.5687360300768D-01  9.4594952839367D-01
168  1.6700000000000D+00 -4.3491146097712D-01  8.9111581545547D-01
169  1.6800000000000D+00 -4.1187346429990D-01  8.3576879395996D-01
170  1.6900000000000D+00 -3.8795018263259D-01  7.8018033847056D-01
171  1.7000000000000D+00 -3.6333506420348D-01  7.2462420608032D-01
172  1.7100000000000D+00 -3.3822323142242D-01  6.6937440072604D-01
173  1.7200000000000D+00 -3.1281030982774D-01  6.1470377201917D-01
174  1.7300000000000D+00 -2.8729129571619D-01  5.6088289360104D-01
175  1.7400000000000D+00 -2.6185942005790D-01  5.0817885072295D-01
176  1.7500000000000D+00 -2.3670505854081D-01  4.5685414851163D-01
177  1.7600000000000D+00 -2.1201463561586D-01  4.0716554675655D-01
178  1.7700000000000D+00 -1.8796948554029D-01  3.5936254062166D-01
179  1.7800000000000D+00 -1.6474475946531D-01  3.1368597783339D-01
180  1.7900000000000D+00 -1.4250837550721D-01  2.7036681170517D-01
181  1.8000000000000D+00 -1.2141999241639D-01  2.2962481258737D-01
182  1.8100000000000D+00 -1.0163003338167D-01  1.9166737083815D-01
183  1.8200000000000D+00 -8.3278752576561D-02  1.5668834408287D-01
184  1.8300000000000D+00 -6.6495358802577D-02  1.2486697658379D-01
185  1.8400000000000D+00 -5.1397192410175D-02  9.6366884501513D-02
186  1.8500000000000D+00 -3.8097936126453D-02  7.1352073117173D-02
187  1.8600000000000D+00 -2.6670911656181D-02  4.9918016189418D-02
188  1.8700000000000D+00 -1.7155698552387D-02  3.2104717889009D-02
189  1.8800000000000D+00 -9.6786571660099D-03  1.8124405612741D-02
190  1.8900000000000D+00 -4.4239156502475D-03  8.3071456500527D-03
191  1.9000000000000D+00 -1.3493517343360D-03  2.5652175056968D-03
192  1.9100000000000D+00  3.0428204863160D-05 -1.7269962279598D-05
193  1.9200000000000D+00  3.0886740750043D-04 -5.5388058257816D-04
194  1.9300000000000D+00  9.2765998475395D-05 -1.6843831444440D-04
195  1.9400000000000D+00 -7.9721798000796D-05  1.4515314255810D-04
196  1.9500000000000D+00 -6.4365410942315D-05  1.1747591857196D-04
197  1.9600000000000D+00  8.5438679196245D-06 -1.5470471884401D-05
198  1.9700000000000D+00  1.6072033366474D-05 -2.9151799523429D-05
199  1.9800000000000D+00  5.6142643362266D-08 -1.0195830226419D-07
200  1.9900000000000D+00 -1.6778249634749D-07  2.0395083964693D-07
201  2.0000000000000D+00 -7.7038755267212D-08  9.3645756644130D-08
202  2.0100000000000D+00  0.0000000000000D+00  0.0000000000000D+00
203  2.0200000000000D+00  0.0000000000000D+00  0.0000000000000D+00
204  2.0300000000000D+00  0.0000000000000D+00  0.0000000000000D+00
205  2.0400000000000D+00  0.0000000000000D+00  0.0000000000000D+00
206  2.0500000000000D+00  0.0000000000000D+00  0.0000000000000D+00
207  2.0600000000000D+00  0.0000000000000D+00  0.0000000000000D+00
208  2.0700000000000D+00  0.0000000000000D+00  0.0000000000000D+00
209  2.0800000000000D+00  0.0000000000000D+00  0.0000000000000D+00
210  2.0900000000000D+00  0.0000000000000D+00  0.0000000000000D+00
211  2.1000000000000D+00  0.0000000000000D+00  0.0000000000000D+00
212  2.1100000000000D+00  0.0000000000000D+00  0.0000000000000D+00
213  2.1200000000000D+00  0.0000000000000D+00  0.0000000000000D+00
214  2.1300000000000D+00  0.0000000000000D+00  0.0000000000000D+00
215  2.1400000000000D+00  0.0000000000000D+00  0.0000000000000D+00
216  2.1500000000000D+00  0.0000000000000D+00  0.0000000000000D+00
217  2.1600000000000D+00  0.0000000000000D+00  0.0000000000000D+00
218  2.1700000000000D+00  0.0000000000000D+00  0.0000000000000D+00
219  2.1800000000000D+00  0.0000000000000D+00  0.0000000000000D+00
220  2.1900000000000D+00  0.0000000000000D+00  0.0000000000000D+00
221  2.2000000000000D+00  0.0000000000000D+00  0.0000000000000D+00
222  2.2100000000000D+00  0.0000000000000D+00  0.0000000000000D+00
223  2.2200000000000D+00  0.0000000000000D+00  0.0000000000000D+00
224  2.2300000000000D+00  0.0000000000000D+00  0.0000000000000D+00
225  2.2400000000000D+00  0.0000000000000D+00  0.0000000000000D+00
226  2.2500000000000D+00  0.0000000000000D+00  0.0000000000000D+00
227  2.2600000000000D+00  0.0000000000000D+00  0.0000000000000D+00
228  2.2700000000000D+00  0.0000000000000D+00  0.0000000000000D+00
229  2.2800000000000D+00  0.0000000000000D+00  0.0000000000000D+00
230  2.2900000000000D+00  0.0000000000000D+00  0.0000000000000D+00
231  2.3000000000000D+00  0.0000000000000D+00  0.0000000000000D+00
232  2.3100000000000D+00  0.0000000000000D+00  0.0000000000000D+00
233  2.3200000000000D+00  0.0000000000000D+00  0.0000000000000D+00
234  2.3300000000000D+00  0.0000000000000D+00  0.0000000000000D+00
235  2.3400000000000D+00  0.0000000000000D+00  0.0000000000000D+00
236  2.3500000000000D+00  0.0000000000000D+00  0.0000000000000D+00
237  2.3600000000000D+00  0.0000000000000D+00  0.0000000000000D+00
238  2.3700000000000D+00  0.0000000000000D+00  0.0000000000000D+00
239  2.3800000000000D+00  0.0000000000000D+00  0.0000000000000D+00
240  2.3900000000000D+00  0.0000000000000D+00  0.0000000000000D+00
241  2.4000000000000D+00  0.0000000000000D+00  0.0000000000000D+00
242  2.4100000000000D+00  0.0000000000000D+00  0.0000000000000D+00
243  2.4200000000000D+00  0.0000000000000D+00  0.0000000000000D+00
244  2.4300000000000D+00  0.0000000000000D+00  0.0000000000000D+00
245  2.4400000000000D+00  0.0000000000000D+00  0.0000000000000D+00
246  2.4500000000000D+00  0.0000000000000D+00  0.0000000000000D+00
247  2.4600000000000D+00  0.0000000000000D+00  0.0000000000000D+00
248  2.4700000000000D+00  0.0000000000000D+00  0.0000000000000D+00
249  2.4800000000000D+00  0.0000000000000D+00  0.0000000000000D+00
250  2.4900000000000D+00  0.0000000000000D+00  0.0000000000000D+00
251  2.5000000000000D+00  0.0000000000000D+00  0.0000000000000D+00
252  2.5100000000000D+00  0.0000000000000D+00  0.0000000000000D+00
253  2.5200000000000D+00  0.0000000000000D+00  0.0000000000000D+00
254  2.5300000000000D+00  0.0000000000000D+00  0.0000000000000D+00
255  2.5400000000000D+00  0.0000000000000D+00  0.0000000000000D+00
256  2.5500000000000D+00  0.0000000000000D+00  0.0000000000000D+00
257  2.5600000000000D+00  0.0000000000000D+00  0.0000000000000D+00
258  2.5700000000000D+00  0.0000000000000D+00  0.0000000000000D+00
259  2.5800000000000D+00  0.0000000000000D+00  0.0000000000000D+00
260  2.5900000000000D+00  0.0000000000000D+00  0.0000000000000D+00
261  2.6000000000000D+00  0.0000000000000D+00  0.0000000000000D+00
262  2.6100000000000D+00  0.0000000000000D+00  0.0000000000000D+00
263  2.6200000000000D+00  0.0000000000000D+00  0.0000000000000D+00
264  2.6300000000000D+00  0.0000000000000D+00  0.0000000000000D+00
265  2.6400000000000D+00  0.0000000000000D+00  0.0000000000000D+00
266  2.6500000000000D+00  0.0000000000000D+00  0.0000000000000D+00
267  2.6600000000000D+00  0.0000000000000D+00  0.0000000000000D+00
268  2.6700000000000D+00  0.0000000000000D+00  0.0000000000000D+00
269  2.6800000000000D+00  0.0000000000000D+00  0.0000000000000D+00
270  2.6900000000000D+00  0.0000000000000D+00  0.0000000000000D+00
271  2.7000000000000D+00  0.0000000000000D+00  0.0000000000000D+00
272  2.7100000000000D+00  0.0000000000000D+00  0.0000000000000D+00
273  2.7200000000000D+00  0.0000000000000D+00  0.0000000000000D+00
274  2.7300000000000D+00  0.0000000000000D+00  0.0000000000000D+00
275  2.7400000000000D+00  0.0000000000000D+00  0.0000000000000D+00
276  2.7500000000000D+00  0.0000000000000D+00  0.0000000000000D+00
277  2.7600000000000D+00  0.0000000000000D+00  0.0000000000000D+00
278  2.7700000000000D+00  0.0000000000000D+00  0.0000000000000D+00
279  2.7800000000000D+00  0.0000000000000D+00  0.0000000000000D+00
280  2.7900000000000D+00  0.0000000000000D+00  0.0000000000000D+00
281  2.8000000000000D+00  0.0000000000000D+00  0.0000000000000D+00
282  2.8100000000000D+00  0.0000000000000D+00  0.0000000000000D+00
283  2.8200000000000D+00  0.0000000000000D+00  0.0000000000000D+00
284  2.8300000000000D+00  0.0000000000000D+00  0.0000000000000D+00
285  2.8400000000000D+00  0.0000000000000D+00  0.0000000000000D+00
286  2.8500000000000D+00  0.0000000000000D+00  0.0000000000000D+00
287  2.8600000000000D+00  0.0000000000000D+00  0.0000000000000D+00
288  2.8700000000000D+00  0.0000000000000D+00  0.0000000000000D+00
289  2.8800000000000D+00  0.0000000000000D+00  0.0000000000000D+00
290  2.8900000000000D+00  0.0000000000000D+00  0.0000000000000D+00
291  2.9000000000000D+00  0.0000000000000D+00  0.0000000000000D+00
292  2.9100000000000D+00  0.0000000000000D+00  0.0000000000000D+00
293  2.9200000000000D+00  0.0000000000000D+00  0.0000000000000D+00
294  2.9300000000000D+00  0.0000000000000D+00  0.0000000000000D+00
295  2.9400000000000D+00  0.0000000000000D+00  0.0000000000000D+00
296  2.9500000000000D+00  0.0000000000000D+00  0.0000000000000D+00
297  2.9600000000000D+00  0.0000000000000D+00  0.0000000000000D+00
298  2.9700000000000D+00  0.0000000000000D+00  0.0000000000000D+00
299  2.9800000000000D+00  0.0000000000000D+00  0.0000000000000D+00
300  2.9900000000000D+00  0.0000000000000D+00  0.0000000000000D+00
301  3.0000000000000D+00  0.0000000000000D+00  0.0000000000000D+00
302  3.0100000000000D+00  0.0000000000000D+00  0.0000000000000D+00
303  3.0200000000000D+00  0.0000000000000D+00  0.0000000000000D+00
304  3.0300000000000D+00  0.0000000000000D+00  0.0000000000000D+00
305  3.0400000000000D+00  0.0000000000000D+00  0.0000000000000D+00
306  3.0500000000000D+00  0.0000000000000D+00  0.0000000000000D+00
307  3.0600000000000D+00  0.0000000000000D+00  0.0000000000000D+00
308  3.0700000000000D+00  0.0000000000000D+00  0.0000000000000D+00
309  3.0800000000000D+00  0.0000000000000D+00  0.0000000000000D+00
310  3.0900000000000D+00  0.0000000000000D+00  0.0000000000000D+00
311  3.1000000000000D+00  0.0000000000000D+00  0.0000000000000D+00
312  3.1100000000000D+00  0.0000000000000D+00  0.0000000000000D+00
313  3.1200000000000D+00  0.0000000000000D+00  0.0000000000000D+00
314  3.1300000000000D+00  0.0000000000000D+00  0.0000000000000D+00
315  3.1400000000000D+00  0.0000000000000D+00  0.0000000000000D+00
316  3.1500000000000D+00  0.0000000000000D+00  0.0000000000000D+00
317  3.1600000000000D+00  0.0000000000000D+00  0.0000000000000D+00
318  3.1700000000000D+00  0.0000000000000D+00  0.0000000000000D+00
319  3.1800000000000D+00  0.0000000000000D+00  0.0000000000000D+00
320  3.1900000000000D+00  0.0000000000000D+00  0.0000000000000D+00
321  3.2000000000000D+00  0.0000000000000D+00  0.0000000000000D+00
322  3.2100000000000D+00  0.0000000000000D+00  0.0000000000000D+00
323  3.2200000000000D+00  0.0000000000000D+00  0.0000000000000D+00
324  3.2300000000000D+00  0.0000000000000D+00  0.0000000000000D+00
325  3.2400000000000D+00  0.0000000000000D+00  0.0000000000000D+00
326  3.2500000000000D+00  0.0000000000000D+00  0.0000000000000D+00
327  3.2600000000000D+00  0.0000000000000D+00  0.0000000000000D+00
328  3.2700000000000D+00  0.0000000000000D+00  0.0000000000000D+00
329  3.2800000000000D+00  0.0000000000000D+00  0.0000000000000D+00
330  3.2900000000000D+00  0.0000000000000D+00  0.0000000000000D+00
331  3.3000000000000D+00  0.0000000000000D+00  0.0000000000000D+00
332  3.3100000000000D+00  0.0000000000000D+00  0.0000000000000D+00
333  3.3200000000000D+00  0.0000000000000D+00  0.0000000000000D+00
334  3.3300000000000D+00  0.0000000000000D+00  0.0000000000000D+00
335  3.3400000000000D+00  0.0000000000000D+00  0.0000000000000D+00
336  3.3500000000000D+00  0.0000000000000D+00  0.0000000000000D+00
337  3.3600000000000D+00  0.0000000000000D+00  0.0000000000000D+00
338  3.3700000000000D+00  0.0000000000000D+00  0.0000000000000D+00
339  3.3800000000000D+00  0.0000000000000D+00  0.0000000000000D+00
340  3.3900000000000D+00  0.0000000000000D+00  0.0000000000000D+00
341  3.4000000000000D+00  0.0000000000000D+00  0.0000000000000D+00
342  3.4100000000000D+00  0.0000000000000D+00  0.0000000000000D+00
343  3.4200000000000D+00  0.0000000000000D+00  0.0000000000000D+00
344  3.4300000000000D+00  0.0000000000000D+00  0.0000000000000D+00
345  3.4400000000000D+00  0.0000000000000D+00  0.0000000000000D+00
346  3.4500000000000D+00  0.0000000000000D+00  0.0000000000000D+00
347  3.4600000000000D+00  0.0000000000000D+00  0.0000000000000D+00
348  3.4700000000000D+00  0.0000000000000D+00  0.0000000000000D+00
349  3.4800000000000D+00  0.0000000000000D+00  0.0000000000000D+00
350  3.4900000000000D+00  0.0000000000000D+00  0.0000000000000D+00
351  3.5000000000000D+00  0.0000000000000D+00  0.0000000000000D+00
352  3.5100000000000D+00  0.0000000000000D+00  0.0000000000000D+00
353  3.5200000000000D+00  0.0000000000000D+00  0.0000000000000D+00
354  3.5300000000000D+00  0.0000000000000D+00  0.0000000000000D+00
355  3.5400000000000D+00  0.0000000000000D+00  0.0000000000000D+00
356  3.5500000000000D+00  0.0000000000000D+00  0.0000000000000D+00
357  3.5600000000000D+00  0.0000000000000D+00  0.0000000000000D+00
358  3.5700000000000D+00  0.0000000000000D+00  0.0000000000000D+00
359  3.5800000000000D+00  0.0000000000000D+00  0.0000000000000D+00
360  3.5900000000000D+00  0.0000000000000D+00  0.0000000000000D+00
361  3.6000000000000D+00  0.0000000000000D+00  0.0000000000000D+00
362  3.6100000000000D+00  0.0000000000000D+00  0.0000000000000D+00
363  3.6200000000000D+00  0.0000000000000D+00  0.0000000000000D+00
364  3.6300000000000D+00  0.0000000000000D+00  0.0000000000000D+00
365  3.6400000000000D+00  0.0000000000000D+00  0.0000000000000D+00
366  3.6500000000000D+00  0.0000000000000D+00  0.0000000000000D+00
367  3.6600000000000D+00  0.0000000000000D+00  0.0000000000000D+00
368  3.6700000000000D+00  0.0000000000000D+00  0.0000000000000D+00
369  3.6800000000000D+00  0.0000000000000D+00  0.0000000000000D+00
370  3.6900000000000D+00  0.0000000000000D+00  0.0000000000000D+00
371  3.7000000000000D+00  0.0000000000000D+00  0.0000000000000D+00
372  3.7100000000000D+00  0.0000000000000D+00  0.0000000000000D+00
373  3.7200000000000D+00  0.0000000000000D+00  0.0000000000000D+00
374  3.7300000000000D+00  0.0000000000000D+00  0.0000000000000D+00
375  3.7400000000000D+00  0.0000000000000D+00  0.0000000000000D+00
376  3.7500000000000D+00  0.0000000000000D+00  0.0000000000000D+00
377  3.7600000000000D+00  0.0000000000000D+00  0.0000000000000D+00
378  3.7700000000000D+00  0.0000000000000D+00  0.0000000000000D+00
379  3.7800000000000D+00  0.0000000000000D+00  0.0000000000000D+00
380  3.7900000000000D+00  0.0000000000000D+00  0.0000000000000D+00
381  3.8000000000000D+00  0.0000000000000D+00  0.0000000000000D+00
382  3.8100000000000D+00  0.0000000000000D+00  0.0000000000000D+00
383  3.8200000000000D+00  0.0000000000000D+00  0.0000000000000D+00
384  3.8300000000000D+00  0.0000000000000D+00  0.0000000000000D+00
385  3.8400000000000D+00  0.0000000000000D+00  0.0000000000000D+00
386  3.8500000000000D+00  0.0000000000000D+00  0.0000000000000D+00
387  3.8600000000000D+00  0.0000000000000D+00  0.0000000000000D+00
388  3.8700000000000D+00  0.0000000000000D+00  0.0000000000000D+00
389  3.8800000000000D+00  0.0000000000000D+00  0.0000000000000D+00
390  3.8900000000000D+00  0.0000000000000D+00  0.0000000000000D+00
391  3.9000000000000D+00  0.0000000000000D+00  0.0000000000000D+00
392  3.9100000000000D+00  0.0000000000000D+00  0.0000000000000D+00
393  3.9200000000000D+00  0.0000000000000D+00  0.0000000000000D+00
394  3.9300000000000D+00  0.0000000000000D+00  0.0000000000000D+00
395  3.9400000000000D+00  0.0000000000000D+00  0.0000000000000D+00
396  3.9500000000000D+00  0.0000000000000D+00  0.0000000000000D+00
397  3.9600000000000D+00  0.0000000000000D+00  0.0000000000000D+00
398  3.9700000000000D+00  0.0000000000000D+00  0.0000000000000D+00
399  3.9800000000000D+00  0.0000000000000D+00  0.0000000000000D+00
400  3.9900000000000D+00  0.0000000000000D+00  0.0000000000000D+00
401  4.0000000000000D+00  0.0000000000000D+00  0.0000000000000D+00
402  4.0100000000000D+00  0.0000000000000D+00  0.0000000000000D+00
403  4.0200000000000D+00  0.0000000000000D+00  0.0000000000000D+00
404  4.0300000000000D+00  0.0000000000000D+00  0.0000000000000D+00
405  4.0400000000000D+00  0.0000000000000D+00  0.0000000000000D+00
406  4.0500000000000D+00  0.0000000000000D+00  0.0000000000000D+00
407  4.0600000000000D+00  0.0000000000000D+00  0.0000000000000D+00
408  4.0700000000000D+00  0.0000000000000D+00  0.0000000000000D+00
409  4.0800000000000D+00  0.0000000000000D+00  0.0000000000000D+00
410  4.0900000000000D+00  0.0000000000000D+00  0.0000000000000D+00
411  4.1000000000000D+00  0.0000000000000D+00  0.0000000000000D+00
412  4.1100000000000D+00  0.0000000000000D+00  0.0000000000000D+00
413  4.1200000000000D+00  0.0000000000000D+00  0.0000000000000D+00
414  4.1300000000000D+00  0.0000000000000D+00  0.0000000000000D+00
415  4.1400000000000D+00  0.0000000000000D+00  0.0000000000000D+00
416  4.1500000000000D+00  0.0000000000000D+00  0.0000000000000D+00
417  4.1600000000000D+00  0.0000000000000D+00  0.0000000000000D+00
418  4.1700000000000D+00  0.0000000000000D+00  0.0000000000000D+00
419  4.1800000000000D+00  0.0000000000000D+00  0.0000000000000D+00
420  4.1900000000000D+00  0.0000000000000D+00  0.0000000000000D+00
421  4.2000000000000D+00  0.0000000000000D+00  0.0000000000000D+00
422  4.2100000000000D+00  0.0000000000000D+00  0.0000000000000D+00
423  4.2200000000000D+00  0.0000000000000D+00  0.0000000000000D+00
424  4.2300000000000D+00  0.0000000000000D+00  0.0000000000000D+00
425  4.2400000000000D+00  0.0000000000000D+00  0.0000000000000D+00
426  4.2500000000000D+00  0.0000000000000D+00  0.0000000000000D+00
427  4.2600000000000D+00  0.0000000000000D+00  0.0000000000000D+00
428  4.2700000000000D+00  0.0000000000000D+00  0.0000000000000D+00
429  4.2800000000000D+00  0.0000000000000D+00  0.0000000000000D+00
430  4.2900000000000D+00  0.0000000000000D+00  0.0000000000000D+00
431  4.3000000000000D+00  0.0000000000000D+00  0.0000000000000D+00
432  4.3100000000000D+00  0.0000000000000D+00  0.0000000000000D+00
433  4.3200000000000D+00  0.0000000000000D+00  0.0000000000000D+00
434  4.3300000000000D+00  0.0000000000000D+00  0.0000000000000D+00
435  4.3400000000000D+00  0.0000000000000D+00  0.0000000000000D+00
436  4.3500000000000D+00  0.0000000000000D+00  0.0000000000000D+00
437  4.3600000000000D+00  0.0000000000000D+00  0.0000000000000D+00
438  4.3700000000000D+00  0.0000000000000D+00  0.0000000000000D+00
439  4.3800000000000D+00  0.0000000000000D+00  0.0000000000000D+00
440  4.3900000000000D+00  0.0000000000000D+00  0.0000000000000D+00
441  4.4000000000000D+00  0.0000000000000D+00  0.0000000000000D+00
442  4.4100000000000D+00  0.0000000000000D+00  0.0000000000000D+00
443  4.4200000000000D+00  0.0000000000000D+00  0.0000000000000D+00
444  4.4300000000000D+00  0.0000000000000D+00  0.0000000000000D+00