Fe    ONCVPSP  r_core=  1.85  2.06  1.57
26.0000      8.0000      141231    zatom,zion,pspd
8    11     2     4  1001     0    pspcod,pspxc,lmax,lloc,mmax,r2well
10.00000000  1.20000000  0.00000000    rchrg fchrg qchrg
2     2     2     0     0    nproj
0                 extension_switch
0                         1.3780790632738D+02  1.8075672182063D+00
1  0.0000000000000D+00 -0.0000000000000D+00  0.0000000000000D+00
2  1.0000000000000D-02 -1.4367367038415D-02  2.7088206001503D-02
3  2.0000000000000D-02 -2.8664978249201D-02  5.4124130490196D-02
4  3.0000000000000D-02 -4.2823199303152D-02  8.1055604983339D-02
5  4.0000000000000D-02 -5.6772639102835D-02  1.0783068698833D-01
6  5.0000000000000D-02 -7.0444271983124D-02  1.3439777282244D-01
7  6.0000000000000D-02 -8.3769560601782D-02  1.6070571021774D-01
8  7.0000000000000D-02 -9.6680579734883D-02  1.8670391063607D-01
9  8.0000000000000D-02 -1.0911014117549D-01  2.1234246121213D-01
10  9.0000000000000D-02 -1.2099191991753D-01  2.3757223623912D-01
11  1.0000000000000D-01 -1.3226058178537D-01  2.6234500810410D-01
12  1.1000000000000D-01 -1.4285191264310D-01  2.8661355757083D-01
13  1.2000000000000D-01 -1.5270294929554D-01  3.1033178330454D-01
14  1.3000000000000D-01 -1.6175211216216D-01  3.3345481052305D-01
15  1.4000000000000D-01 -1.6993933975366D-01  3.5593909863263D-01
16  1.5000000000000D-01 -1.7720622499498D-01  3.7774254773902D-01
17  1.6000000000000D-01 -1.8349615331771D-01  3.9882460384206D-01
18  1.7000000000000D-01 -1.8875444251585D-01  4.1914636260316D-01
19  1.8000000000000D-01 -1.9292848417882D-01  4.3867067144959D-01
20  1.9000000000000D-01 -1.9596788669258D-01  4.5736222993850D-01
21  2.0000000000000D-01 -1.9782461929037D-01  4.7518768794314D-01
22  2.1000000000000D-01 -1.9845315751458D-01  4.9211574188714D-01
23  2.2000000000000D-01 -1.9781062900158D-01  5.0811722822494D-01
24  2.3000000000000D-01 -1.9585695999726D-01  5.2316521445931D-01
25  2.4000000000000D-01 -1.9255502155253D-01  5.3723508698494D-01
26  2.5000000000000D-01 -1.8787077600560D-01  5.5030463617002D-01
27  2.6000000000000D-01 -1.8177342142475D-01  5.6235413721031D-01
28  2.7000000000000D-01 -1.7423553621034D-01  5.7336642818619D-01
29  2.8000000000000D-01 -1.6523322018561D-01  5.8332698308591D-01
30  2.9000000000000D-01 -1.5474623415042D-01  5.9222398108049D-01
31  3.0000000000000D-01 -1.4275813598455D-01  6.0004837094255D-01
32  3.1000000000000D-01 -1.2925641286895D-01  6.0679393043705D-01
33  3.2000000000000D-01 -1.1423260827361D-01  6.1245732004424D-01
34  3.3000000000000D-01 -9.7682445112949D-02  6.1703813178091D-01
35  3.4000000000000D-01 -7.9605942123431D-02  6.2053893158030D-01
36  3.5000000000000D-01 -6.0007520795555D-02  6.2296529420497D-01
37  3.6000000000000D-01 -3.8896110663909D-02  6.2432583420693D-01
38  3.7000000000000D-01 -1.6285239656073D-02  6.2463222692523D-01
39  3.8000000000000D-01  7.8068834752958D-03  6.2389922297590D-01
40  3.9000000000000D-01  3.3357291150944D-02  6.2214465715671D-01
41  4.0000000000000D-01  6.0338198676908D-02  6.1938944600407D-01
42  4.1000000000000D-01  8.8716952758333D-02  6.1565757905032D-01
43  4.2000000000000D-01  1.1845599374218D-01  6.1097610104385D-01
44  4.3000000000000D-01  1.4951283155738D-01  6.0537508521368D-01
45  4.4000000000000D-01  1.8184003604865D-01  5.9888759735064D-01
46  4.5000000000000D-01  2.1538524246050D-01  5.9154965046767D-01
47  4.6000000000000D-01  2.5009117282075D-01  5.8340014981795D-01
48  4.7000000000000D-01  2.8589567393512D-01  5.7448082808862D-01
49  4.8000000000000D-01  3.2273177296569D-01  5.6483617165304D-01
50  4.9000000000000D-01  3.6052774812223D-01  5.5451333394982D-01
51  5.0000000000000D-01  3.9920722248684D-01  5.4356204073867D-01
52  5.1000000000000D-01  4.3868927310386D-01  5.3203448661414D-01
53  5.2000000000000D-01  4.7888855809780D-01  5.1998521989613D-01
54  5.3000000000000D-01  5.1971547122685D-01  5.0747100847160D-01
55  5.4000000000000D-01  5.6107629961395D-01  4.9455072025162D-01
56  5.5000000000000D-01  6.0287342579370D-01  4.8128515670058D-01
57  5.6000000000000D-01  6.4500552267923D-01  4.6773691463010D-01
58  5.7000000000000D-01  6.8736779153459D-01  4.5397020762253D-01
59  5.8000000000000D-01  7.2985220113760D-01  4.4005070037202D-01
60  5.9000000000000D-01  7.7234777050277D-01  4.2604530925075D-01
61  6.0000000000000D-01  8.1474081942692D-01  4.1202204016742D-01
62  6.1000000000000D-01  8.5691534187557D-01  3.9804972958136D-01
63  6.2000000000000D-01  8.9875323066707D-01  3.8419791417899D-01
64  6.3000000000000D-01  9.4013471950341D-01  3.7053653343558D-01
65  6.4000000000000D-01  9.8093869303092D-01  3.5713574296111D-01
66  6.5000000000000D-01  1.0210430048060D+00  3.4406572232463D-01
67  6.6000000000000D-01  1.0603249854514D+00  3.3139635211707D-01
68  6.7000000000000D-01  1.0986617747641D+00  3.1919702325571D-01
69  6.8000000000000D-01  1.1359307205889D+00  3.0753640097875D-01
70  6.9000000000000D-01  1.1720097592670D+00  2.9648220380954D-01
71  7.0000000000000D-01  1.2067780402942D+00  2.8610082650239D-01
72  7.1000000000000D-01  1.2401161844495D+00  2.7645720963743D-01
73  7.2000000000000D-01  1.2719067856518D+00  2.6761454994000D-01
74  7.3000000000000D-01  1.3020348648010D+00  2.5963404630017D-01
75  7.4000000000000D-01  1.3303882809716D+00  2.5257467497944D-01
76  7.5000000000000D-01  1.3568583042653D+00  2.4649286808010D-01
77  7.6000000000000D-01  1.3813400045829D+00  2.4144230953937D-01
78  7.7000000000000D-01  1.4037326776081D+00  2.3747370918123D-01
79  7.8000000000000D-01  1.4239403136101D+00  2.3463455321957D-01
80  7.9000000000000D-01  1.4418720373417D+00  2.3296887485953D-01
81  8.0000000000000D-01  1.4574425383326D+00  2.3251703284313D-01
82  8.1000000000000D-01  1.4705724894192D+00  2.3331549904664D-01
83  8.2000000000000D-01  1.4811889513579D+00  2.3539665622501D-01
84  8.3000000000000D-01  1.4892257613588D+00  2.3878860699997D-01
85  8.4000000000000D-01  1.4946239034081D+00  2.4351499515894D-01
86  8.5000000000000D-01  1.4973318582806D+00  2.4959484030314D-01
87  8.6000000000000D-01  1.4973059311484D+00  2.5704238687984D-01
88  8.7000000000000D-01  1.4945105547527D+00  2.6586696858834D-01
89  8.8000000000000D-01  1.4889185661409D+00  2.7607288912412D-01
90  8.9000000000000D-01  1.4805114550252D+00  2.8765932018970D-01
91  9.0000000000000D-01  1.4692795819072D+00  3.0062021764026D-01
92  9.1000000000000D-01  1.4552223641730D+00  3.1494425659746D-01
93  9.2000000000000D-01  1.4383484284851D+00  3.3061478628648D-01
94  9.3000000000000D-01  1.4186757279399D+00  3.4760980526387D-01
95  9.4000000000000D-01  1.3962316226200D+00  3.6590195760715D-01
96  9.5000000000000D-01  1.3710529223897D+00  3.8545855050971D-01
97  9.6000000000000D-01  1.3431857784676D+00  4.0624164683520D-01
98  9.7000000000000D-01  1.3126859497011D+00  4.2820798001203D-01
99  9.8000000000000D-01  1.2796185375232D+00  4.5130913354391D-01
100  9.9000000000000D-01  1.2440578290685D+00  4.7549166500937D-01
101  1.0000000000000D+00  1.2060871856090D+00  5.0069721241010D-01
102  1.0100000000000D+00  1.1657988433402D+00  5.2686264512487D-01
103  1.0200000000000D+00  1.1232936706065D+00  5.5392023723246D-01
104  1.0300000000000D+00  1.0786807842843D+00  5.8179788690149D-01
105  1.0400000000000D+00  1.0320776715030D+00  6.1041918766531D-01
106  1.0500000000000D+00  9.8360932566500D-01  6.3970385112432D-01
107  1.0600000000000D+00  9.3340801626341D-01  6.6956789697557D-01
108  1.0700000000000D+00  8.8161286029004D-01  6.9992392351184D-01
109  1.0800000000000D+00  8.2836943105055D-01  7.3068130101713D-01
110  1.0900000000000D+00  7.7382920304454D-01  7.6174668001830D-01
111  1.1000000000000D+00  7.1814890752235D-01  7.9302422323629D-01
112  1.1100000000000D+00  6.6149004019670D-01  8.2441594364139D-01
113  1.1200000000000D+00  6.0401854462767D-01  8.5582185400380D-01
114  1.1300000000000D+00  5.4590373058451D-01  8.8714072492357D-01
115  1.1400000000000D+00  4.8731761450673D-01  9.1827040549720D-01
116  1.1500000000000D+00  4.2843455473130D-01  9.4910799817813D-01
117  1.1600000000000D+00  3.6943122522264D-01  9.7954983768072D-01
118  1.1700000000000D+00  3.1048412437758D-01  1.0094931163366D+00
119  1.1800000000000D+00  2.5176993910474D-01  1.0388355121538D+00
120  1.1900000000000D+00  1.9346538461999D-01  1.0674752598289D+00
121  1.2000000000000D+00  1.3574636881582D-01  1.0953116640902D+00
122  1.2100000000000D+00  7.8784863717835D-02  1.1222469942570D+00
123  1.2200000000000D+00  2.2751001207253D-02  1.1481850914877D+00
124  1.2300000000000D+00 -3.2186317713908D-02  1.1730310031179D+00
125  1.2400000000000D+00 -8.5866429643118D-02  1.1966952154761D+00
126  1.2500000000000D+00 -1.3813196517210D-01  1.2190905485167D+00
127  1.2600000000000D+00 -1.8882836572886D-01  1.2401318896408D+00
128  1.2700000000000D+00 -2.3781184098559D-01  1.2597408970274D+00
129  1.2800000000000D+00 -2.8494417923982D-01  1.2778428214906D+00
130  1.2900000000000D+00 -3.3009076649186D-01  1.2943653681499D+00
131  1.3000000000000D+00 -3.7313130988185D-01  1.3092449156120D+00
132  1.3100000000000D+00 -4.1395158188236D-01  1.3224216199589D+00
133  1.3200000000000D+00 -4.5244259779995D-01  1.3338389838485D+00
134  1.3300000000000D+00 -4.8851285258591D-01  1.3434507994740D+00
135  1.3400000000000D+00 -5.2207538080033D-01  1.3512136939308D+00
136  1.3500000000000D+00 -5.5305365057477D-01  1.3570905106809D+00
137  1.3600000000000D+00 -5.8138720244147D-01  1.3610533693479D+00
138  1.3700000000000D+00 -6.0701932885320D-01  1.3630767623530D+00
139  1.3800000000000D+00 -6.2991099038474D-01  1.3631452742871D+00
140  1.3900000000000D+00 -6.5003336386512D-01  1.3612493374079D+00
141  1.4000000000000D+00 -6.6736437734025D-01  1.3573834035373D+00
142  1.4100000000000D+00 -6.8190309840713D-01  1.3515536275008D+00
143  1.4200000000000D+00 -6.9365128124526D-01  1.3437678853050D+00
144  1.4300000000000D+00 -7.0262866694602D-01  1.3340439521160D+00
145  1.4400000000000D+00 -7.0886527520381D-01  1.3224052402689D+00
146  1.4500000000000D+00 -7.1239905450788D-01  1.3088796852889D+00
147  1.4600000000000D+00 -7.1328697867486D-01  1.2935052197160D+00
148  1.4700000000000D+00 -7.1158769898644D-01  1.2763210245694D+00
149  1.4800000000000D+00 -7.0737976109935D-01  1.2573764858370D+00
150  1.4900000000000D+00 -7.0074557760278D-01  1.2367231924732D+00
151  1.5000000000000D+00 -6.9178065544082D-01  1.2144194382654D+00
152  1.5100000000000D+00 -6.8058973185609D-01  1.1905279982662D+00
153  1.5200000000000D+00 -6.6728436681390D-01  1.1651153821566D+00
154  1.5300000000000D+00 -6.5198809658646D-01  1.1382532373380D+00
155  1.5400000000000D+00 -6.3482750158950D-01  1.1100154884754D+00
156  1.5500000000000D+00 -6.1594065645444D-01  1.0804800825027D+00
157  1.5600000000000D+00 -5.9546822806407D-01  1.0497271417397D+00
158  1.5700000000000D+00 -5.7355838992828D-01  1.0178385440253D+00
159  1.5800000000000D+00 -5.5036279978102D-01  9.8489852622696D-01
160  1.5900000000000D+00 -5.2603739230139D-01  9.5099247792523D-01
161  1.6000000000000D+00 -5.0074114007457D-01  9.1620773423766D-01
162  1.6100000000000D+00 -4.7463585088902D-01  8.8063305327767D-01
163  1.6200000000000D+00 -4.4788445894134D-01  8.4435781638782D-01
164  1.6300000000000D+00 -4.2065237494149D-01  8.0747273397288D-01
165  1.6400000000000D+00 -3.9310321010827D-01  7.7006749840406D-01
166  1.6500000000000D+00 -3.6540342571031D-01  7.3223335419896D-01
167  1.6600000000000D+00 -3.3771419331641D-01  6.9405861148360D-01
168  1.6700000000000D+00 -3.1020020797405D-01  6.5563351243775D-01
169  1.6800000000000D+00 -2.8301734502061D-01  6.1704343409401D-01
170  1.6900000000000D+00 -2.5632546305370D-01  5.7837594230555D-01
171  1.7000000000000D+00 -2.3027262150119D-01  5.3971211244819D-01
172  1.7100000000000D+00 -2.0501054112037D-01  5.0113503328120D-01
173  1.7200000000000D+00 -1.8067735110675D-01  4.6272032834908D-01
174  1.7300000000000D+00 -1.5741313400405D-01  4.2454469761774D-01
175  1.7400000000000D+00 -1.3534443301269D-01  3.8667740964556D-01
176  1.7500000000000D+00 -1.1459604428804D-01  3.4918677895074D-01
177  1.7600000000000D+00 -9.5281751476886D-02  3.1213507628855D-01
178  1.7700000000000D+00 -7.7507354431379D-02  2.7558019401794D-01
179  1.7800000000000D+00 -6.1373159897636D-02  2.3957700951821D-01
180  1.7900000000000D+00 -4.6962340678082D-02  2.0417099115112D-01
181  1.8000000000000D+00 -3.4361367806021D-02  1.6940942273732D-01
182  1.8100000000000D+00 -2.3627450277854D-02  1.3532349742919D-01
183  1.8200000000000D+00 -1.4833035860585D-02  1.0195279976561D-01
184  1.8300000000000D+00 -8.0067757879070D-03  6.9312792519792D-02
185  1.8400000000000D+00 -3.3348439506987D-03  3.3655136688423D-02
186  1.8500000000000D+00 -4.9202548476319D-04  4.6207320018163D-03
187  1.8600000000000D+00  4.3562607895389D-04 -4.4732944737120D-03
188  1.8700000000000D+00  2.3231455730280D-04 -2.2177850129285D-03
189  1.8800000000000D+00  6.8856201850506D-06 -4.3856316186691D-06
190  1.8900000000000D+00  5.7158822566657D-06 -3.6405949325882D-06
191  1.9000000000000D+00  0.0000000000000D+00  0.0000000000000D+00
192  1.9100000000000D+00  0.0000000000000D+00  0.0000000000000D+00
193  1.9200000000000D+00  0.0000000000000D+00  0.0000000000000D+00
194  1.9300000000000D+00  0.0000000000000D+00  0.0000000000000D+00
195  1.9400000000000D+00  0.0000000000000D+00  0.0000000000000D+00
196  1.9500000000000D+00  0.0000000000000D+00  0.0000000000000D+00
197  1.9600000000000D+00  0.0000000000000D+00  0.0000000000000D+00
198  1.9700000000000D+00  0.0000000000000D+00  0.0000000000000D+00
199  1.9800000000000D+00  0.0000000000000D+00  0.0000000000000D+00
200  1.9900000000000D+00  0.0000000000000D+00  0.0000000000000D+00
201  2.0000000000000D+00  0.0000000000000D+00  0.0000000000000D+00
202  2.0100000000000D+00  0.0000000000000D+00  0.0000000000000D+00
203  2.0200000000000D+00  0.0000000000000D+00  0.0000000000000D+00
204  2.0300000000000D+00  0.0000000000000D+00  0.0000000000000D+00
205  2.0400000000000D+00  0.0000000000000D+00  0.0000000000000D+00
206  2.0500000000000D+00  0.0000000000000D+00  0.0000000000000D+00
207  2.0600000000000D+00  0.0000000000000D+00  0.0000000000000D+00
208  2.0700000000000D+00  0.0000000000000D+00  0.0000000000000D+00
209  2.0800000000000D+00  0.0000000000000D+00  0.0000000000000D+00
210  2.0900000000000D+00  0.0000000000000D+00  0.0000000000000D+00
211  2.1000000000000D+00  0.0000000000000D+00  0.0000000000000D+00
212  2.1100000000000D+00  0.0000000000000D+00  0.0000000000000D+00
213  2.1200000000000D+00  0.0000000000000D+00  0.0000000000000D+00
214  2.1300000000000D+00  0.0000000000000D+00  0.0000000000000D+00
215  2.1400000000000D+00  0.0000000000000D+00  0.0000000000000D+00
216  2.1500000000000D+00  0.0000000000000D+00  0.0000000000000D+00
217  2.1600000000000D+00  0.0000000000000D+00  0.0000000000000D+00
218  2.1700000000000D+00  0.0000000000000D+00  0.0000000000000D+00
219  2.1800000000000D+00  0.0000000000000D+00  0.0000000000000D+00
220  2.1900000000000D+00  0.0000000000000D+00  0.0000000000000D+00
221  2.2000000000000D+00  0.0000000000000D+00  0.0000000000000D+00
222  2.2100000000000D+00  0.0000000000000D+00  0.0000000000000D+00
223  2.2200000000000D+00  0.0000000000000D+00  0.0000000000000D+00
224  2.2300000000000D+00  0.0000000000000D+00  0.0000000000000D+00
225  2.2400000000000D+00  0.0000000000000D+00  0.0000000000000D+00
226  2.2500000000000D+00  0.0000000000000D+00  0.0000000000000D+00
227  2.2600000000000D+00  0.0000000000000D+00  0.0000000000000D+00
228  2.2700000000000D+00  0.0000000000000D+00  0.0000000000000D+00
229  2.2800000000000D+00  0.0000000000000D+00  0.0000000000000D+00
230  2.2900000000000D+00  0.0000000000000D+00  0.0000000000000D+00
231  2.3000000000000D+00  0.0000000000000D+00  0.0000000000000D+00
232  2.3100000000000D+00  0.0000000000000D+00  0.0000000000000D+00
233  2.3200000000000D+00  0.0000000000000D+00  0.0000000000000D+00
234  2.3300000000000D+00  0.0000000000000D+00  0.0000000000000D+00
235  2.3400000000000D+00  0.0000000000000D+00  0.0000000000000D+00
236  2.3500000000000D+00  0.0000000000000D+00  0.0000000000000D+00
237  2.3600000000000D+00  0.0000000000000D+00  0.0000000000000D+00
238  2.3700000000000D+00  0.0000000000000D+00  0.0000000000000D+00
239  2.3800000000000D+00  0.0000000000000D+00  0.0000000000000D+00
240  2.3900000000000D+00  0.0000000000000D+00  0.0000000000000D+00
241  2.4000000000000D+00  0.0000000000000D+00  0.0000000000000D+00
242  2.4100000000000D+00  0.0000000000000D+00  0.0000000000000D+00
243  2.4200000000000D+00  0.0000000000000D+00  0.0000000000000D+00
244  2.4300000000000D+00  0.0000000000000D+00  0.0000000000000D+00
245  2.4400000000000D+00  0.0000000000000D+00  0.0000000000000D+00
246  2.4500000000000D+00  0.0000000000000D+00  0.0000000000000D+00
247  2.4600000000000D+00  0.0000000000000D+00  0.0000000000000D+00
248  2.4700000000000D+00  0.0000000000000D+00  0.0000000000000D+00
249  2.4800000000000D+00  0.0000000000000D+00  0.0000000000000D+00
250  2.4900000000000D+00  0.0000000000000D+00  0.0000000000000D+00
251  2.5000000000000D+00  0.0000000000000D+00  0.0000000000000D+00
252  2.5100000000000D+00  0.0000000000000D+00  0.0000000000000D+00
253  2.5200000000000D+00  0.0000000000000D+00  0.0000000000000D+00
254  2.5300000000000D+00  0.0000000000000D+00  0.0000000000000D+00
255  2.5400000000000D+00  0.0000000000000D+00  0.0000000000000D+00
256  2.5500000000000D+00  0.0000000000000D+00  0.0000000000000D+00
257  2.5600000000000D+00  0.0000000000000D+00  0.0000000000000D+00
258  2.5700000000000D+00  0.0000000000000D+00  0.0000000000000D+00
259  2.5800000000000D+00  0.0000000000000D+00  0.0000000000000D+00
260  2.5900000000000D+00  0.0000000000000D+00  0.0000000000000D+00
261  2.6000000000000D+00  0.0000000000000D+00  0.0000000000000D+00
262  2.6100000000000D+00  0.0000000000000D+00  0.0000000000000D+00
263  2.6200000000000D+00  0.0000000000000D+00  0.0000000000000D+00
264  2.6300000000000D+00  0.0000000000000D+00  0.0000000000000D+00
265  2.6400000000000D+00  0.0000000000000D+00  0.0000000000000D+00
266  2.6500000000000D+00  0.0000000000000D+00  0.0000000000000D+00
267  2.6600000000000D+00  0.0000000000000D+00  0.0000000000000D+00
268  2.6700000000000D+00  0.0000000000000D+00  0.0000000000000D+00
269  2.6800000000000D+00  0.0000000000000D+00  0.0000000000000D+00
270  2.6900000000000D+00  0.0000000000000D+00  0.0000000000000D+00
271  2.7000000000000D+00  0.0000000000000D+00  0.0000000000000D+00
272  2.7100000000000D+00  0.0000000000000D+00  0.0000000000000D+00
273  2.7200000000000D+00  0.0000000000000D+00  0.0000000000000D+00
274  2.7300000000000D+00  0.0000000000000D+00  0.0000000000000D+00
275  2.7400000000000D+00  0.0000000000000D+00  0.0000000000000D+00
276  2.7500000000000D+00  0.0000000000000D+00  0.0000000000000D+00
277  2.7600000000000D+00  0.0000000000000D+00  0.0000000000000D+00
278  2.7700000000000D+00  0.0000000000000D+00  0.0000000000000D+00
279  2.7800000000000D+00  0.0000000000000D+00  0.0000000000000D+00
280  2.7900000000000D+00  0.0000000000000D+00  0.0000000000000D+00
281  2.8000000000000D+00  0.0000000000000D+00  0.0000000000000D+00
282  2.8100000000000D+00  0.0000000000000D+00  0.0000000000000D+00
283  2.8200000000000D+00  0.0000000000000D+00  0.0000000000000D+00
284  2.8300000000000D+00  0.0000000000000D+00  0.0000000000000D+00
285  2.8400000000000D+00  0.0000000000000D+00  0.0000000000000D+00
286  2.8500000000000D+00  0.0000000000000D+00  0.0000000000000D+00
287  2.8600000000000D+00  0.0000000000000D+00  0.0000000000000D+00
288  2.8700000000000D+00  0.0000000000000D+00  0.0000000000000D+00
289  2.8800000000000D+00  0.0000000000000D+00  0.0000000000000D+00
290  2.8900000000000D+00  0.0000000000000D+00  0.0000000000000D+00
291  2.9000000000000D+00  0.0000000000000D+00  0.0000000000000D+00
292  2.9100000000000D+00  0.0000000000000D+00  0.0000000000000D+00
293  2.9200000000000D+00  0.0000000000000D+00  0.0000000000000D+00
294  2.9300000000000D+00  0.0000000000000D+00  0.0000000000000D+00
295  2.9400000000000D+00  0.0000000000000D+00  0.0000000000000D+00
296  2.9500000000000D+00  0.0000000000000D+00  0.0000000000000D+00
297  2.9600000000000D+00  0.0000000000000D+00  0.0000000000000D+00
298  2.9700000000000D+00  0.0000000000000D+00  0.0000000000000D+00
299  2.9800000000000D+00  0.0000000000000D+00  0.0000000000000D+00
300  2.9900000000000D+00  0.0000000000000D+00  0.0000000000000D+00
301  3.0000000000000D+00  0.0000000000000D+00  0.0000000000000D+00
302  3.0100000000000D+00  0.0000000000000D+00  0.0000000000000D+00
303  3.0200000000000D+00  0.0000000000000D+00  0.0000000000000D+00
304  3.0300000000000D+00  0.0000000000000D+00  0.0000000000000D+00
305  3.0400000000000D+00  0.0000000000000D+00  0.0000000000000D+00
306  3.0500000000000D+00  0.0000000000000D+00  0.0000000000000D+00
307  3.0600000000000D+00  0.0000000000000D+00  0.0000000000000D+00
308  3.0700000000000D+00  0.0000000000000D+00  0.0000000000000D+00
309  3.0800000000000D+00  0.0000000000000D+00  0.0000000000000D+00
310  3.0900000000000D+00  0.0000000000000D+00  0.0000000000000D+00
311  3.1000000000000D+00  0.0000000000000D+00  0.0000000000000D+00
312  3.1100000000000D+00  0.0000000000000D+00  0.0000000000000D+00
313  3.1200000000000D+00  0.0000000000000D+00  0.0000000000000D+00
314  3.1300000000000D+00  0.0000000000000D+00  0.0000000000000D+00
315  3.1400000000000D+00  0.0000000000000D+00  0.0000000000000D+00
316  3.1500000000000D+00  0.0000000000000D+00  0.0000000000000D+00
317  3.1600000000000D+00  0.0000000000000D+00  0.0000000000000D+00
318  3.1700000000000D+00  0.0000000000000D+00  0.0000000000000D+00
319  3.1800000000000D+00  0.0000000000000D+00  0.0000000000000D+00
320  3.1900000000000D+00  0.0000000000000D+00  0.0000000000000D+00
321  3.2000000000000D+00  0.0000000000000D+00  0.0000000000000D+00
322  3.2100000000000D+00  0.0000000000000D+00  0.0000000000000D+00
323  3.2200000000000D+00  0.0000000000000D+00  0.0000000000000D+00
324  3.2300000000000D+00  0.0000000000000D+00  0.0000000000000D+00
325  3.2400000000000D+00  0.0000000000000D+00  0.0000000000000D+00
326  3.2500000000000D+00  0.0000000000000D+00  0.0000000000000D+00
327  3.2600000000000D+00  0.0000000000000D+00  0.0000000000000D+00
328  3.2700000000000D+00  0.0000000000000D+00  0.0000000000000D+00
329  3.2800000000000D+00  0.0000000000000D+00  0.0000000000000D+00
330  3.2900000000000D+00  0.0000000000000D+00  0.0000000000000D+00
331  3.3000000000000D+00  0.0000000000000D+00  0.0000000000000D+00
332  3.3100000000000D+00  0.0000000000000D+00  0.0000000000000D+00
333  3.3200000000000D+00  0.0000000000000D+00  0.0000000000000D+00
334  3.3300000000000D+00  0.0000000000000D+00  0.0000000000000D+00
335  3.3400000000000D+00  0.0000000000000D+00  0.0000000000000D+00
336  3.3500000000000D+00  0.0000000000000D+00  0.0000000000000D+00
337  3.3600000000000D+00  0.0000000000000D+00  0.0000000000000D+00
338  3.3700000000000D+00  0.0000000000000D+00  0.0000000000000D+00
339  3.3800000000000D+00  0.0000000000000D+00  0.0000000000000D+00
340  3.3900000000000D+00  0.0000000000000D+00  0.0000000000000D+00
341  3.4000000000000D+00  0.0000000000000D+00  0.0000000000000D+00
342  3.4100000000000D+00  0.0000000000000D+00  0.0000000000000D+00
343  3.4200000000000D+00  0.0000000000000D+00  0.0000000000000D+00
344  3.4300000000000D+00  0.0000000000000D+00  0.0000000000000D+00
345  3.4400000000000D+00  0.0000000000000D+00  0.0000000000000D+00
346  3.4500000000000D+00  0.0000000000000D+00  0.0000000000000D+00
347  3.4600000000000D+00  0.0000000000000D+00  0.0000000000000D+00
348  3.4700000000000D+00  0.0000000000000D+00  0.0000000000000D+00
349  3.4800000000000D+00  0.0000000000000D+00  0.0000000000000D+00
350  3.4900000000000D+00  0.0000000000000D+00  0.0000000000000D+00
351  3.5000000000000D+00  0.0000000000000D+00  0.0000000000000D+00
352  3.5100000000000D+00  0.0000000000000D+00  0.0000000000000D+00
353  3.5200000000000D+00  0.0000000000000D+00  0.0000000000000D+00
354  3.5300000000000D+00  0.0000000000000D+00  0.0000000000000D+00
355  3.5400000000000D+00  0.0000000000000D+00  0.0000000000000D+00
356  3.5500000000000D+00  0.0000000000000D+00  0.0000000000000D+00
357  3.5600000000000D+00  0.0000000000000D+00  0.0000000000000D+00
358  3.5700000000000D+00  0.0000000000000D+00  0.0000000000000D+00
359  3.5800000000000D+00  0.0000000000000D+00  0.0000000000000D+00
360  3.5900000000000D+00  0.0000000000000D+00  0.0000000000000D+00
361  3.6000000000000D+00  0.0000000000000D+00  0.0000000000000D+00
362  3.6100000000000D+00  0.0000000000000D+00  0.0000000000000D+00
363  3.6200000000000D+00  0.0000000000000D+00  0.0000000000000D+00
364  3.6300000000000D+00  0.0000000000000D+00  0.0000000000000D+00
365  3.6400000000000D+00  0.0000000000000D+00  0.0000000000000D+00
366  3.6500000000000D+00  0.0000000000000D+00  0.0000000000000D+00
367  3.6600000000000D+00  0.0000000000000D+00  0.0000000000000D+00
368  3.6700000000000D+00  0.0000000000000D+00  0.0000000000000D+00
369  3.6800000000000D+00  0.0000000000000D+00  0.0000000000000D+00
370  3.6900000000000D+00  0.0000000000000D+00  0.0000000000000D+00
371  3.7000000000000D+00  0.0000000000000D+00  0.0000000000000D+00
372  3.7100000000000D+00  0.0000000000000D+00  0.0000000000000D+00
373  3.7200000000000D+00  0.0000000000000D+00  0.0000000000000D+00
374  3.7300000000000D+00  0.0000000000000D+00  0.0000000000000D+00
375  3.7400000000000D+00  0.0000000000000D+00  0.0000000000000D+00
376  3.7500000000000D+00  0.0000000000000D+00  0.0000000000000D+00
377  3.7600000000000D+00  0.0000000000000D+00  0.0000000000000D+00
378  3.7700000000000D+00  0.0000000000000D+00  0.0000000000000D+00
379  3.7800000000000D+00  0.0000000000000D+00  0.0000000000000D+00
380  3.7900000000000D+00  0.0000000000000D+00  0.0000000000000D+00
381  3.8000000000000D+00  0.0000000000000D+00  0.0000000000000D+00
382  3.8100000000000D+00  0.0000000000000D+00  0.0000000000000D+00
383  3.8200000000000D+00  0.0000000000000D+00  0.0000000000000D+00
384  3.8300000000000D+00  0.0000000000000D+00  0.0000000000000D+00
385  3.8400000000000D+00  0.0000000000000D+00  0.0000000000000D+00
386  3.8500000000000D+00  0.0000000000000D+00  0.0000000000000D+00
387  3.8600000000000D+00  0.0000000000000D+00  0.0000000000000D+00
388  3.8700000000000D+00  0.0000000000000D+00  0.0000000000000D+00
389  3.8800000000000D+00  0.0000000000000D+00  0.0000000000000D+00
390  3.8900000000000D+00  0.0000000000000D+00  0.0000000000000D+00
391  3.9000000000000D+00  0.0000000000000D+00  0.0000000000000D+00
392  3.9100000000000D+00  0.0000000000000D+00  0.0000000000000D+00
393  3.9200000000000D+00  0.0000000000000D+00  0.0000000000000D+00
394  3.9300000000000D+00  0.0000000000000D+00  0.0000000000000D+00
395  3.9400000000000D+00  0.0000000000000D+00  0.0000000000000D+00
396  3.9500000000000D+00  0.0000000000000D+00  0.0000000000000D+00
397  3.9600000000000D+00  0.0000000000000D+00  0.0000000000000D+00
398  3.9700000000000D+00  0.0000000000000D+00  0.0000000000000D+00
399  3.9800000000000D+00  0.0000000000000D+00  0.0000000000000D+00
400  3.9900000000000D+00  0.0000000000000D+00  0.0000000000000D+00
401  4.0000000000000D+00  0.0000000000000D+00  0.0000000000000D+00
402  4.0100000000000D+00  0.0000000000000D+00  0.0000000000000D+00
403  4.0200000000000D+00  0.0000000000000D+00  0.0000000000000D+00
404  4.0300000000000D+00  0.0000000000000D+00  0.0000000000000D+00
405  4.0400000000000D+00  0.0000000000000D+00  0.0000000000000D+00
406  4.0500000000000D+00  0.0000000000000D+00  0.0000000000000D+00
407  4.0600000000000D+00  0.0000000000000D+00  0.0000000000000D+00
408  4.0700000000000D+00  0.0000000000000D+00  0.0000000000000D+00
409  4.0800000000000D+00  0.0000000000000D+00  0.0000000000000D+00
410  4.0900000000000D+00  0.0000000000000D+00  0.0000000000000D+00
411  4.1000000000000D+00  0.0000000000000D+00  0.0000000000000D+00
412  4.1100000000000D+00  0.0000000000000D+00  0.0000000000000D+00
413  4.1200000000000D+00  0.0000000000000D+00  0.0000000000000D+00
414  4.1300000000000D+00  0.0000000000000D+00  0.0000000000000D+00
415  4.1400000000000D+00  0.0000000000000D+00  0.0000000000000D+00
416  4.1500000000000D+00  0.0000000000000D+00  0.0000000000000D+00
417  4.1600000000000D+00  0.0000000000000D+00  0.0000000000000D+00
418  4.1700000000000D+00  0.0000000000000D+00  0.0000000000000D+00
419  4.1800000000000D+00  0.0000000000000D+00  0.0000000000000D+00
420  4.1900000000000D+00  0.0000000000000D+00  0.0000000000000D+00
421  4.2000000000000D+00  0.0000000000000D+00  0.0000000000000D+00
422  4.2100000000000D+00  0.0000000000000D+00  0.0000000000000D+00
423  4.2200000000000D+00  0.0000000000000D+00  0.0000000000000D+00
424  4.2300000000000D+00  0.0000000000000D+00  0.0000000000000D+00
425  4.2400000000000D+00  0.0000000000000D+00  0.0000000000000D+00
426  4.2500000000000D+00  0.0000000000000D+00  0.0000000000000D+00
427  4.2600000000000D+00  0.0000000000000D+00  0.0000000000000D+00
428  4.2700000000000D+00  0.0000000000000D+00  0.0000000000000D+00
429  4.2800000000000D+00  0.0000000000000D+00  0.0000000000000D+00
430  4.2900000000000D+00  0.0000000000000D+00  0.0000000000000D+00
431  4.3000000000000D+00  0.0000000000000D+00  0.0000000000000D+00
432  4.3100000000000D+00  0.0000000000000D+00  0.0000000000000D+00
433  4.3200000000000D+00  0.0000000000000D+00  0.0000000000000D+00
434  4.3300000000000D+00  0.0000000000000D+00  0.0000000000000D+00
435  4.3400000000000D+00  0.0000000000000D+00  0.0000000000000D+00
436  4.3500000000000D+00  0.0000000000000D+00  0.0000000000000D+00
437  4.3600000000000D+00  0.0000000000000D+00  0.0000000000000D+00
438  4.3700000000000D+00  0.0000000000000D+00  0.0000000000000D+00
439  4.3800000000000D+00  0.0000000000000D+00  0.0000000000000D+00
440  4.3900000000000D+00  0.0000000000000D+00  0.0000000000000D+00
441  4.4000000000000D+00  0.0000000000000D+00  0.0000000000000D+00
442  4.4100000000000D+00  0.0000000000000D+00  0.0000000000000D+00
443  4.4200000000000D+00  0.0000000000000D+00  0.0000000000000D+00
444  4.4300000000000D+00  0.0000000000000D+00  0.0000000000000D+00