Pm    ONCVPSP-3.3.0  r_core=   2.12459   1.90832   1.90832   2.51075
61.0000     11.0000      180112    zatom,zion,pspd
8 -116133   3     4   600     0    pspcod,pspxc,lmax,lloc,mmax,r2well
5.99000000  5.40000000  0.00000000    rchrg fchrg qchrg
2     2     2     1     0    nproj
1     1           extension_switch
0                         9.2088755172639D+00  9.5241852690583D-01
1  0.0000000000000D+00 -8.6029849910574D-11  1.5045231727129D-10
2  1.0000000000000D-02  4.9145405753809D-02 -1.0089566813589D-02
3  2.0000000000000D-02  9.8188586355361D-02 -2.0070569606670D-02
4  3.0000000000000D-02  1.4702779502826D-01 -2.9835189714312D-02
5  4.0000000000000D-02  1.9556223861568D-01 -3.9277093838723D-02
6  5.0000000000000D-02  2.4369254658177D-01 -4.8292163411109D-02
7  6.0000000000000D-02  2.9132123070400D-01 -5.6779208074432D-02
8  7.0000000000000D-02  3.3835313245516D-01 -6.4640658171528D-02
9  8.0000000000000D-02  3.8469585515931D-01 -7.1783231273509D-02
10  9.0000000000000D-02  4.3026017811285D-01 -7.8118567969432D-02
11  1.0000000000000D-01  4.7496044998744D-01 -8.3563832358579D-02
12  1.1000000000000D-01  5.1871495897670D-01 -8.8042272939685D-02
13  1.2000000000000D-01  5.6144627731063D-01 -9.1483739875341D-02
14  1.3000000000000D-01  6.0308157794096D-01 -9.3825154922512D-02
15  1.4000000000000D-01  6.4355292139476D-01 -9.5010930659477D-02
16  1.5000000000000D-01  6.8279751100164D-01 -9.4993336002972D-02
17  1.6000000000000D-01  7.2075791492088D-01 -9.3732805394386D-02
18  1.7000000000000D-01  7.5738225362571D-01 -9.1198189437911D-02
19  1.8000000000000D-01  7.9262435174307D-01 -8.7366945193223D-02
20  1.9000000000000D-01  8.2644385339528D-01 -8.2225264758304D-02
21  2.0000000000000D-01  8.5880630044397D-01 -7.5768141220607D-02
22  2.1000000000000D-01  8.8968317329474D-01 -6.7999371504145D-02
23  2.2000000000000D-01  9.1905189418126D-01 -5.8931496093164D-02
24  2.3000000000000D-01  9.4689579310790D-01 -4.8585676066113D-02
25  2.4000000000000D-01  9.7320403688933D-01 -3.6991508324067D-02
26  2.5000000000000D-01  9.9797152198104D-01 -2.4186780341774D-02
27  2.6000000000000D-01  1.0211987320457D+00 -1.0217166204532D-02
28  2.7000000000000D-01  1.0428915614441D+00  4.8641338835373D-03
29  2.8000000000000D-01  1.0630611060742D+00  2.0996808026951D-02
30  2.9000000000000D-01  1.0817234232085D+00  3.8113898020478D-02
31  3.0000000000000D-01  1.0988992621914D+00  5.6142312335207D-02
32  3.1000000000000D-01  1.1146137680593D+00  7.5003383015310D-02
33  3.2000000000000D-01  1.1288961603322D+00  9.4613462473182D-02
34  3.3000000000000D-01  1.1417793893953D+00  1.1488455588098D-01
35  3.4000000000000D-01  1.1532997730388D+00  1.3572498459667D-01
36  3.5000000000000D-01  1.1634966158640D+00  1.5704007583528D-01
37  3.6000000000000D-01  1.1724118143729D+00  1.7873287360222D-01
38  3.7000000000000D-01  1.1800894506597D+00  2.0070486574716D-01
39  3.8000000000000D-01  1.1865753776925D+00  2.2285672187413D-01
40  3.9000000000000D-01  1.1919167992323D+00  2.4508903675860D-01
41  4.0000000000000D-01  1.1961618474655D+00  2.6730307387448D-01
42  4.1000000000000D-01  1.1993591614384D+00  2.8940150362445D-01
43  4.2000000000000D-01  1.2015574693725D+00  3.1128913089572D-01
44  4.3000000000000D-01  1.2028051779057D+00  3.3287360662947D-01
45  4.4000000000000D-01  1.2031499712529D+00  3.5406611819649D-01
46  4.5000000000000D-01  1.2026384232028D+00  3.7478205351207D-01
47  4.6000000000000D-01  1.2013156247764D+00  3.9494163399941D-01
48  4.7000000000000D-01  1.1992248302542D+00  4.1447051172238D-01
49  4.8000000000000D-01  1.1964071241490D+00  4.3330032625191D-01
50  4.9000000000000D-01  1.1929011115487D+00  4.5136921710634D-01
51  5.0000000000000D-01  1.1887426340846D+00  4.6862228791099D-01
52  5.1000000000000D-01  1.1839645135970D+00  4.8501201875466D-01
53  5.2000000000000D-01  1.1785963253721D+00  5.0049862357854D-01
54  5.3000000000000D-01  1.1726642026107D+00  5.1505034981348D-01
55  5.4000000000000D-01  1.1661906735682D+00  5.2864371788206D-01
56  5.5000000000000D-01  1.1591945325692D+00  5.4126369859954D-01
57  5.6000000000000D-01  1.1516907458585D+00  5.5290382694096D-01
58  5.7000000000000D-01  1.1436903930045D+00  5.6356625108452D-01
59  5.8000000000000D-01  1.1352006443105D+00  5.7326171609520D-01
60  5.9000000000000D-01  1.1262247744372D+00  5.8200948206937D-01
61  6.0000000000000D-01  1.1167622121785D+00  5.8983717702293D-01
62  6.1000000000000D-01  1.1068086260712D+00  5.9678058526330D-01
63  6.2000000000000D-01  1.0963560452654D+00  6.0288337244391D-01
64  6.3000000000000D-01  1.0853930148242D+00  6.0819674894540D-01
65  6.4000000000000D-01  1.0739047843769D+00  6.1277907366967D-01
66  6.5000000000000D-01  1.0618735288036D+00  6.1669540075659D-01
67  6.6000000000000D-01  1.0492785993994D+00  6.2001697214350D-01
68  6.7000000000000D-01  1.0360968037413D+00  6.2282065927944D-01
69  6.8000000000000D-01  1.0223027122695D+00  6.2518835767585D-01
70  6.9000000000000D-01  1.0078689893985D+00  6.2720633832023D-01
71  7.0000000000000D-01  9.9276674678602D-01  6.2896456030136D-01
72  7.1000000000000D-01  9.7696591622338D-01  6.3055594928446D-01
73  7.2000000000000D-01  9.6043563945583D-01  6.3207564673667D-01
74  7.3000000000000D-01  9.4314467211129D-01  6.3362023503203D-01
75  7.4000000000000D-01  9.2506179879863D-01  6.3528694376022D-01
76  7.5000000000000D-01  9.0615625634267D-01  6.3717284272411D-01
77  7.6000000000000D-01  8.8639816204785D-01  6.3937402723443D-01
78  7.7000000000000D-01  8.6575894382819D-01  6.4198480139720D-01
79  7.8000000000000D-01  8.4421176900860D-01  6.4509686513777D-01
80  7.9000000000000D-01  8.2173196859026D-01  6.4879851071725D-01
81  8.0000000000000D-01  7.9829745378364D-01  6.5317383446804D-01
82  8.1000000000000D-01  7.7388912164334D-01  6.5830196941049D-01
83  8.2000000000000D-01  7.4849124669252D-01  6.6425634430791D-01
84  8.3000000000000D-01  7.2209185549833D-01  6.7110397457572D-01
85  8.4000000000000D-01  6.9468308125428D-01  6.7890479028323D-01
86  8.5000000000000D-01  6.6626149554060D-01  6.8771100627200D-01
87  8.6000000000000D-01  6.3682841456728D-01  6.9756653916729D-01
88  8.7000000000000D-01  6.0639017735785D-01  7.0850647577819D-01
89  8.8000000000000D-01  5.7495839350181D-01  7.2055659707033D-01
90  8.9000000000000D-01  5.4255015829110D-01  7.3373296155340D-01
91  9.0000000000000D-01  5.0918823325828D-01  7.4804155155825D-01
92  9.1000000000000D-01  4.7490119035089D-01  7.6347798548491D-01
93  9.2000000000000D-01  4.3972351820699D-01  7.8002729868555D-01
94  9.3000000000000D-01  4.0369568923536D-01  7.9766379521631D-01
95  9.4000000000000D-01  3.6686418645838D-01  8.1635097223242D-01
96  9.5000000000000D-01  3.2928148933247D-01  8.3604151833937D-01
97  9.6000000000000D-01  2.9100601802806D-01  8.5667738673260D-01
98  9.7000000000000D-01  2.5210203592205D-01  8.7818994347198D-01
99  9.8000000000000D-01  2.1263951033050D-01  9.0050019074552D-01
100  9.9000000000000D-01  1.7269393178507D-01  9.2351906448282D-01
101  1.0000000000000D+00  1.3234609243281D-01  9.4714780518583D-01
102  1.0100000000000D+00  9.1681824417007D-02  9.7127840034829D-01
103  1.0200000000000D+00  5.0791699354641D-02  9.9579409637590D-01
104  1.0300000000000D+00  9.7706903091489D-03  1.0205699774155D+00
105  1.0400000000000D+00 -3.1282202098548D-02  1.0454736080676D+00
106  1.0500000000000D+00 -7.2264357543886D-02  1.0703657365072D+00
107  1.0600000000000D+00 -1.1306997567912D-01  1.0951010541088D+00
108  1.0700000000000D+00 -1.5359054528075D-01  1.1195290072831D+00
109  1.0800000000000D+00 -1.9371534029188D-01  1.1434946568554D+00
110  1.0900000000000D+00 -2.3333193997836D-01  1.1668395799512D+00
111  1.1000000000000D+00 -2.7232677024863D-01  1.1894028090560D+00
112  1.1100000000000D+00 -3.1058566300974D-01  1.2110218026089D+00
113  1.1200000000000D+00 -3.4799443030661D-01  1.2315334412686D+00
114  1.1300000000000D+00 -3.8443944984059D-01  1.2507750437333D+00
115  1.1400000000000D+00 -4.1980825837347D-01  1.2685853958387D+00
116  1.1500000000000D+00 -4.5399014943414D-01  1.2848057865118D+00
117  1.1600000000000D+00 -4.8687677169087D-01  1.2992810440652D+00
118  1.1700000000000D+00 -5.1836272429845D-01  1.3118605662342D+00
119  1.1800000000000D+00 -5.4834614552268D-01  1.3223993373528D+00
120  1.1900000000000D+00 -5.7672929096320D-01  1.3307589261089D+00
121  1.2000000000000D+00 -6.0341909769470D-01  1.3368084573239D+00
122  1.2100000000000D+00 -6.2832773072895D-01  1.3404255513615D+00
123  1.2200000000000D+00 -6.5137310828280D-01  1.3414972249272D+00
124  1.2300000000000D+00 -6.7247940240363D-01  1.3399207471447D+00
125  1.2400000000000D+00 -6.9157751164105D-01  1.3356044450532D+00
126  1.2500000000000D+00 -7.0860550263795D-01  1.3284684530090D+00
127  1.2600000000000D+00 -7.2350901762895D-01  1.3184454006838D+00
128  1.2700000000000D+00 -7.3624164499313D-01  1.3054810346491D+00
129  1.2800000000000D+00 -7.4676525034084D-01  1.2895347691398D+00
130  1.2900000000000D+00 -7.5505026571671D-01  1.2705801617776D+00
131  1.3000000000000D+00 -7.6107593470334D-01  1.2486053104042D+00
132  1.3100000000000D+00 -7.6483051169551D-01  1.2236131680542D+00
133  1.3200000000000D+00 -7.6631141361447D-01  1.1956217730975D+00
134  1.3300000000000D+00 -7.6552532268037D-01  1.1646643922118D+00
135  1.3400000000000D+00 -7.6248823942538D-01  1.1307895748651D+00
136  1.3500000000000D+00 -7.5722548492141D-01  1.0940611176121D+00
137  1.3600000000000D+00 -7.4977165190952D-01  1.0545579377942D+00
138  1.3700000000000D+00 -7.4017050490911D-01  1.0123738569352D+00
139  1.3800000000000D+00 -7.2847482900393D-01  9.6761729344113D-01
140  1.3900000000000D+00 -7.1474622834337D-01  9.2041086662153D-01
141  1.4000000000000D+00 -6.9905487488898D-01  8.7089091313561D-01
142  1.4100000000000D+00 -6.8147920843090D-01  8.1920691785630D-01
143  1.4200000000000D+00 -6.6210558979554D-01  7.6552086274623D-01
144  1.4300000000000D+00 -6.4102790826992D-01  7.1000649574079D-01
145  1.4400000000000D+00 -6.1834714592289D-01  6.5284852458797D-01
146  1.4500000000000D+00 -5.9417090075699D-01  5.9424173925924D-01
147  1.4600000000000D+00 -5.6861287120446D-01  5.3439006758525D-01
148  1.4700000000000D+00 -5.4179230521758D-01  4.7350557006981D-01
149  1.4800000000000D+00 -5.1383341627066D-01  4.1180737818907D-01
150  1.4900000000000D+00 -4.8486477032069D-01  3.4952058353884D-01
151  1.5000000000000D+00 -4.5501864648822D-01  2.8687508292210D-01
152  1.5100000000000D+00 -4.2443037552419D-01  2.2410438677097D-01
153  1.5200000000000D+00 -3.9323765959134D-01  1.6144439733926D-01
154  1.5300000000000D+00 -3.6157987727224D-01  9.9132163793800D-02
155  1.5400000000000D+00 -3.2959737785244D-01  3.7404621529817D-02
156  1.5500000000000D+00 -2.9743076880484D-01 -2.3502677122338D-02
157  1.5600000000000D+00 -2.6522020061712D-01 -8.3356833351418D-02
158  1.5700000000000D+00 -2.3310465309378D-01 -1.4192886594068D-01
159  1.5800000000000D+00 -2.0122122705229D-01 -1.9899496194288D-01
160  1.5900000000000D+00 -1.6970444569173D-01 -2.5433770617479D-01
161  1.6000000000000D+00 -1.3868556930611D-01 -3.0774728295695D-01
162  1.6100000000000D+00 -1.0829192746667D-01 -3.5902264263470D-01
163  1.6200000000000D+00 -7.8646272219293D-02 -4.0797262652922D-01
164  1.6300000000000D+00 -4.9866155911229D-02 -4.5441704381233D-01
165  1.6400000000000D+00 -2.2063337188535D-02 -4.9818769395930D-01
166  1.6500000000000D+00  4.6567820410611D-03 -5.3912932978474D-01
167  1.6600000000000D+00  3.0195685080861D-02 -5.7710055461198D-01
168  1.6700000000000D+00  5.4462232592908D-02 -6.1197465047365D-01
169  1.6800000000000D+00  7.7373114795010D-02 -6.4364033084969D-01
170  1.6900000000000D+00  9.8853263065561D-02 -6.7200241687926D-01
171  1.7000000000000D+00  1.1883621745331D-01 -6.9698243078260D-01
172  1.7100000000000D+00  1.3726445049725D-01 -7.1851910733002D-01
173  1.7200000000000D+00  1.5408964426283D-01 -7.3656881784473D-01
174  1.7300000000000D+00  1.6927292179888D-01 -7.5110590902308D-01
175  1.7400000000000D+00  1.8278503076003D-01 -7.6212295258807D-01
176  1.7500000000000D+00  1.9460648077393D-01 -7.6963090873482D-01
177  1.7600000000000D+00  2.0472763369498D-01 -7.7365920192084D-01
178  1.7700000000000D+00  2.1314874812552D-01 -7.7425571159798D-01
179  1.7800000000000D+00  2.1987997937833D-01 -7.7148668011928D-01
180  1.7900000000000D+00  2.2494133541652D-01 -7.6543653888963D-01
181  1.8000000000000D+00  2.2836259258225D-01 -7.5620765976002D-01
182  1.8100000000000D+00  2.3018317022258D-01 -7.4392003016009D-01
183  1.8200000000000D+00  2.3045197106748D-01 -7.2871086445455D-01
184  1.8300000000000D+00  2.2922718472297D-01 -7.1073414688421D-01
185  1.8400000000000D+00  2.2657606411024D-01 -6.9016012392078D-01
186  1.8500000000000D+00  2.2257468612661D-01 -6.6717476828103D-01
187  1.8600000000000D+00  2.1730761037134D-01 -6.4197904794747D-01
188  1.8700000000000D+00  2.1086777817640D-01 -6.1478865530120D-01
189  1.8800000000000D+00  2.0335578373188D-01 -5.8583254301164D-01
190  1.8900000000000D+00  1.9487975239747D-01 -5.5535260323664D-01
191  1.9000000000000D+00  1.8555578759362D-01 -5.2360445494109D-01
192  1.9100000000000D+00  1.7550714690447D-01 -4.9085579417373D-01
193  1.9200000000000D+00  1.6486154610030D-01 -4.5738112885981D-01
194  1.9300000000000D+00  1.5374926929435D-01 -4.2345806462615D-01
195  1.9400000000000D+00  1.4230112146801D-01 -3.8936346880948D-01
196  1.9500000000000D+00  1.3064493074341D-01 -3.5536679816811D-01
197  1.9600000000000D+00  1.1890554751265D-01 -3.2173018022342D-01
198  1.9700000000000D+00  1.0720443727077D-01 -2.8870774832058D-01
199  1.9800000000000D+00  9.5658887386245D-02 -2.5654421116653D-01
200  1.9900000000000D+00  8.4381053501972D-02 -2.2547309919202D-01
201  2.0000000000000D+00  7.3477414322029D-02 -1.9571581056216D-01
202  2.0100000000000D+00  6.3048044195370D-02 -1.6748029631297D-01
203  2.0200000000000D+00  5.3186003858550D-02 -1.4095997148569D-01
204  2.0300000000000D+00  4.3976764412688D-02 -1.1633268457967D-01
205  2.0400000000000D+00  3.5497673773806D-02 -9.3759764384600D-02
206  2.0500000000000D+00  2.7817549409451D-02 -7.3385358210008D-02
207  2.0600000000000D+00  2.1002325592245D-02 -5.5351741577148D-02
208  2.0700000000000D+00  1.5087457393752D-02 -3.9726630572903D-02
209  2.0800000000000D+00  1.0094759635444D-02 -2.6548987835466D-02
210  2.0900000000000D+00  6.0931703729407D-03 -1.5986704760819D-02
211  2.1000000000000D+00  3.1624984417424D-03 -8.2420788547030D-03
212  2.1100000000000D+00  1.3225877246545D-03 -3.3641684905828D-03
213  2.1200000000000D+00  3.4545361846918D-04 -7.7582688268707D-04
214  2.1300000000000D+00 -3.6417018060893D-05  2.0541382524037D-04
215  2.1400000000000D+00 -8.2743130055348D-05  2.7191611569452D-04
216  2.1500000000000D+00 -7.9274626769669D-07  2.4713139679052D-06
217  2.1600000000000D+00  3.6268023979878D-05 -1.1021119880609D-04
218  2.1700000000000D+00  2.2442460135698D-05 -6.7274157795922D-05
219  2.1800000000000D+00 -3.2785589344512D-06  1.0450966180402D-05
220  2.1900000000000D+00 -6.1518386691126D-06  1.9356244988062D-05
221  2.2000000000000D+00 -1.4355446394697D-06  4.4751265567576D-06
222  2.2100000000000D+00 -2.8372183843608D-07  4.2773543201628D-07
223  2.2200000000000D+00 -2.6578527342447D-07  4.0069449492657D-07
224  2.2300000000000D+00  0.0000000000000D+00  0.0000000000000D+00
225  2.2400000000000D+00  0.0000000000000D+00  0.0000000000000D+00
226  2.2500000000000D+00  0.0000000000000D+00  0.0000000000000D+00
227  2.2600000000000D+00  0.0000000000000D+00  0.0000000000000D+00
228  2.2700000000000D+00  0.0000000000000D+00  0.0000000000000D+00
229  2.2800000000000D+00  0.0000000000000D+00  0.0000000000000D+00
230  2.2900000000000D+00  0.0000000000000D+00  0.0000000000000D+00
231  2.3000000000000D+00  0.0000000000000D+00  0.0000000000000D+00
232  2.3100000000000D+00  0.0000000000000D+00  0.0000000000000D+00
233  2.3200000000000D+00  0.0000000000000D+00  0.0000000000000D+00
234  2.3300000000000D+00  0.0000000000000D+00  0.0000000000000D+00
235  2.3400000000000D+00  0.0000000000000D+00  0.0000000000000D+00
236  2.3500000000000D+00  0.0000000000000D+00  0.0000000000000D+00
237  2.3600000000000D+00  0.0000000000000D+00  0.0000000000000D+00
238  2.3700000000000D+00  0.0000000000000D+00  0.0000000000000D+00
239  2.3800000000000D+00  0.0000000000000D+00  0.0000000000000D+00
240  2.3900000000000D+00  0.0000000000000D+00  0.0000000000000D+00
241  2.4000000000000D+00  0.0000000000000D+00  0.0000000000000D+00
242  2.4100000000000D+00  0.0000000000000D+00  0.0000000000000D+00
243  2.4200000000000D+00  0.0000000000000D+00  0.0000000000000D+00
244  2.4300000000000D+00  0.0000000000000D+00  0.0000000000000D+00
245  2.4400000000000D+00  0.0000000000000D+00  0.0000000000000D+00
246  2.4500000000000D+00  0.0000000000000D+00  0.0000000000000D+00
247  2.4600000000000D+00  0.0000000000000D+00  0.0000000000000D+00
248  2.4700000000000D+00  0.0000000000000D+00  0.0000000000000D+00
249  2.4800000000000D+00  0.0000000000000D+00  0.0000000000000D+00
250  2.4900000000000D+00  0.0000000000000D+00  0.0000000000000D+00
251  2.5000000000000D+00  0.0000000000000D+00  0.0000000000000D+00
252  2.5100000000000D+00  0.0000000000000D+00  0.0000000000000D+00
253  2.5200000000000D+00  0.0000000000000D+00  0.0000000000000D+00
254  2.5300000000000D+00  0.0000000000000D+00  0.0000000000000D+00
255  2.5400000000000D+00  0.0000000000000D+00  0.0000000000000D+00
256  2.5500000000000D+00  0.0000000000000D+00  0.0000000000000D+00
257  2.5600000000000D+00  0.0000000000000D+00  0.0000000000000D+00
258  2.5700000000000D+00  0.0000000000000D+00  0.0000000000000D+00
259  2.5800000000000D+00  0.0000000000000D+00  0.0000000000000D+00
260  2.5900000000000D+00  0.0000000000000D+00  0.0000000000000D+00
261  2.6000000000000D+00  0.0000000000000D+00  0.0000000000000D+00
262  2.6100000000000D+00  0.0000000000000D+00  0.0000000000000D+00
263  2.6200000000000D+00  0.0000000000000D+00  0.0000000000000D+00
264  2.6300000000000D+00  0.0000000000000D+00  0.0000000000000D+00
265  2.6400000000000D+00  0.0000000000000D+00  0.0000000000000D+00
266  2.6500000000000D+00  0.0000000000000D+00  0.0000000000000D+00
267  2.6600000000000D+00  0.0000000000000D+00  0.0000000000000D+00
268  2.6700000000000D+00  0.0000000000000D+00  0.0000000000000D+00
269  2.6800000000000D+00  0.0000000000000D+00  0.0000000000000D+00
270  2.6900000000000D+00  0.0000000000000D+00  0.0000000000000D+00
271  2.7000000000000D+00  0.0000000000000D+00  0.0000000000000D+00
272  2.7100000000000D+00  0.0000000000000D+00  0.0000000000000D+00
273  2.7200000000000D+00  0.0000000000000D+00  0.0000000000000D+00
274  2.7300000000000D+00  0.0000000000000D+00  0.0000000000000D+00
275  2.7400000000000D+00  0.0000000000000D+00  0.0000000000000D+00
276  2.7500000000000D+00  0.0000000000000D+00  0.0000000000000D+00
277  2.7600000000000D+00  0.0000000000000D+00  0.0000000000000D+00
278  2.7700000000000D+00  0.0000000000000D+00  0.0000000000000D+00
279  2.7800000000000D+00  0.0000000000000D+00  0.0000000000000D+00
280  2.7900000000000D+00  0.0000000000000D+00  0.0000000000000D+00
281  2.8000000000000D+00  0.0000000000000D+00  0.0000000000000D+00
282  2.8100000000000D+00  0.0000000000000D+00  0.0000000000000D+00
283  2.8200000000000D+00  0.0000000000000D+00  0.0000000000000D+00
284  2.8300000000000D+00  0.0000000000000D+00  0.0000000000000D+00
285  2.8400000000000D+00  0.0000000000000D+00  0.0000000000000D+00
286  2.8500000000000D+00  0.0000000000000D+00  0.0000000000000D+00
287  2.8600000000000D+00  0.0000000000000D+00  0.0000000000000D+00
288  2.8700000000000D+00  0.0000000000000D+00  0.0000000000000D+00
289  2.8800000000000D+00  0.0000000000000D+00  0.0000000000000D+00
290  2.8900000000000D+00  0.0000000000000D+00  0.0000000000000D+00
291  2.9000000000000D+00  0.0000000000000D+00  0.0000000000000D+00
292  2.9100000000000D+00  0.0000000000000D+00  0.0000000000000D+00
293  2.9200000000000D+00  0.0000000000000D+00  0.0000000000000D+00
294  2.9300000000000D+00  0.0000000000000D+00  0.0000000000000D+00
295  2.9400000000000D+00  0.0000000000000D+00  0.0000000000000D+00
296  2.9500000000000D+00  0.0000000000000D+00  0.0000000000000D+00
297  2.9600000000000D+00  0.0000000000000D+00  0.0000000000000D+00
298  2.9700000000000D+00  0.0000000000000D+00  0.0000000000000D+00
299  2.9800000000000D+00  0.0000000000000D+00  0.0000000000000D+00
300  2.9900000000000D+00  0.0000000000000D+00  0.0000000000000D+00
301  3.0000000000000D+00  0.0000000000000D+00  0.0000000000000D+00
302  3.0100000000000D+00  0.0000000000000D+00  0.0000000000000D+00
303  3.0200000000000D+00  0.0000000000000D+00  0.0000000000000D+00
304  3.0300000000000D+00  0.0000000000000D+00  0.0000000000000D+00
305  3.0400000000000D+00  0.0000000000000D+00  0.0000000000000D+00
306  3.0500000000000D+00  0.0000000000000D+00  0.0000000000000D+00
307  3.0600000000000D+00  0.0000000000000D+00  0.0000000000000D+00
308  3.0700000000000D+00  0.0000000000000D+00  0.0000000000000D+00
309  3.0800000000000D+00  0.0000000000000D+00  0.0000000000000D+00
310  3.0900000000000D+00  0.0000000000000D+00  0.0000000000000D+00
311  3.1000000000000D+00  0.0000000000000D+00  0.0000000000000D+00
312  3.1100000000000D+00  0.0000000000000D+00  0.0000000000000D+00
313  3.1200000000000D+00  0.0000000000000D+00  0.0000000000000D+00
314  3.1300000000000D+00  0.0000000000000D+00  0.0000000000000D+00
315  3.1400000000000D+00  0.0000000000000D+00  0.0000000000000D+00
316  3.1500000000000D+00  0.0000000000000D+00  0.0000000000000D+00
317  3.1600000000000D+00  0.0000000000000D+00  0.0000000000000D+00
318  3.1700000000000D+00  0.0000000000000D+00  0.0000000000000D+00
319  3.1800000000000D+00  0.0000000000000D+00  0.0000000000000D+00
320  3.1900000000000D+00  0.0000000000000D+00  0.0000000000000D+00
321  3.2000000000000D+00  0.0000000000000D+00  0.0000000000000D+00
322  3.2100000000000D+00  0.0000000000000D+00  0.0000000000000D+00
323  3.2200000000000D+00  0.0000000000000D+00  0.0000000000000D+00
324  3.2300000000000D+00  0.0000000000000D+00  0.0000000000000D+00
325  3.2400000000000D+00  0.0000000000000D+00  0.0000000000000D+00
326  3.2500000000000D+00  0.0000000000000D+00  0.0000000000000D+00
327  3.2600000000000D+00  0.0000000000000D+00  0.0000000000000D+00
328  3.2700000000000D+00  0.0000000000000D+00  0.0000000000000D+00
329  3.2800000000000D+00  0.0000000000000D+00  0.0000000000000D+00
330  3.2900000000000D+00  0.0000000000000D+00  0.0000000000000D+00
331  3.3000000000000D+00  0.0000000000000D+00  0.0000000000000D+00
332  3.3100000000000D+00  0.0000000000000D+00  0.0000000000000D+00
333  3.3200000000000D+00  0.0000000000000D+00  0.0000000000000D+00
334  3.3300000000000D+00  0.0000000000000D+00  0.0000000000000D+00
335  3.3400000000000D+00  0.0000000000000D+00  0.0000000000000D+00
336  3.3500000000000D+00  0.0000000000000D+00  0.0000000000000D+00
337  3.3600000000000D+00  0.0000000000000D+00  0.0000000000000D+00
338  3.3700000000000D+00  0.0000000000000D+00  0.0000000000000D+00
339  3.3800000000000D+00  0.0000000000000D+00  0.0000000000000D+00
340  3.3900000000000D+00  0.0000000000000D+00  0.0000000000000D+00
341  3.4000000000000D+00  0.0000000000000D+00  0.0000000000000D+00
342  3.4100000000000D+00  0.0000000000000D+00  0.0000000000000D+00
343  3.4200000000000D+00  0.0000000000000D+00  0.0000000000000D+00
344  3.4300000000000D+00  0.0000000000000D+00  0.0000000000000D+00
345  3.4400000000000D+00  0.0000000000000D+00  0.0000000000000D+00
346  3.4500000000000D+00  0.0000000000000D+00  0.0000000000000D+00
347  3.4600000000000D+00  0.0000000000000D+00  0.0000000000000D+00
348  3.4700000000000D+00  0.0000000000000D+00  0.0000000000000D+00
349  3.4800000000000D+00  0.0000000000000D+00  0.0000000000000D+00
350  3.4900000000000D+00  0.0000000000000D+00  0.0000000000000D+00
351  3.5000000000000D+00  0.0000000000000D+00  0.0000000000000D+00
352  3.5100000000000D+00  0.0000000000000D+00  0.0000000000000D+00
353  3.5200000000000D+00  0.0000000000000D+00  0.0000000000000D+00
354  3.5300000000000D+00  0.0000000000000D+00  0.0000000000000D+00
355  3.5400000000000D+00  0.0000000000000D+00  0.0000000000000D+00
356  3.5500000000000D+00  0.0000000000000D+00  0.0000000000000D+00
357  3.5600000000000D+00  0.0000000000000D+00  0.0000000000000D+00
358  3.5700000000000D+00  0.0000000000000D+00  0.0000000000000D+00
359  3.5800000000000D+00  0.0000000000000D+00  0.0000000000000D+00
360  3.5900000000000D+00  0.0000000000000D+00  0.0000000000000D+00
361  3.6000000000000D+00  0.0000000000000D+00  0.0000000000000D+00
362  3.6100000000000D+00  0.0000000000000D+00  0.0000000000000D+00
363  3.6200000000000D+00  0.0000000000000D+00  0.0000000000000D+00
364  3.6300000000000D+00  0.0000000000000D+00  0.0000000000000D+00
365  3.6400000000000D+00  0.0000000000000D+00  0.0000000000000D+00
366  3.6500000000000D+00  0.0000000000000D+00  0.0000000000000D+00
367  3.6600000000000D+00  0.0000000000000D+00  0.0000000000000D+00
368  3.6700000000000D+00  0.0000000000000D+00  0.0000000000000D+00
369  3.6800000000000D+00  0.0000000000000D+00  0.0000000000000D+00
370  3.6900000000000D+00  0.0000000000000D+00  0.0000000000000D+00
371  3.7000000000000D+00  0.0000000000000D+00  0.0000000000000D+00
372  3.7100000000000D+00  0.0000000000000D+00  0.0000000000000D+00
373  3.7200000000000D+00  0.0000000000000D+00  0.0000000000000D+00
374  3.7300000000000D+00  0.0000000000000D+00  0.0000000000000D+00
375  3.7400000000000D+00  0.0000000000000D+00  0.0000000000000D+00
376  3.7500000000000D+00  0.0000000000000D+00  0.0000000000000D+00
377  3.7600000000000D+00  0.0000000000000D+00  0.0000000000000D+00
378  3.7700000000000D+00  0.0000000000000D+00  0.0000000000000D+00
379  3.7800000000000D+00  0.0000000000000D+00  0.0000000000000D+00
380  3.7900000000000D+00  0.0000000000000D+00  0.0000000000000D+00
381  3.8000000000000D+00  0.0000000000000D+00  0.0000000000000D+00
382  3.8100000000000D+00  0.0000000000000D+00  0.0000000000000D+00
383  3.8200000000000D+00  0.0000000000000D+00  0.0000000000000D+00
384  3.8300000000000D+00  0.0000000000000D+00  0.0000000000000D+00
385  3.8400000000000D+00  0.0000000000000D+00  0.0000000000000D+00
386  3.8500000000000D+00  0.0000000000000D+00  0.0000000000000D+00
387  3.8600000000000D+00  0.0000000000000D+00  0.0000000000000D+00
388  3.8700000000000D+00  0.0000000000000D+00  0.0000000000000D+00
389  3.8800000000000D+00  0.0000000000000D+00  0.0000000000000D+00
390  3.8900000000000D+00  0.0000000000000D+00  0.0000000000000D+00
391  3.9000000000000D+00  0.0000000000000D+00  0.0000000000000D+00
392  3.9100000000000D+00  0.0000000000000D+00  0.0000000000000D+00
393  3.9200000000000D+00  0.0000000000000D+00  0.0000000000000D+00
394  3.9300000000000D+00  0.0000000000000D+00  0.0000000000000D+00
395  3.9400000000000D+00  0.0000000000000D+00  0.0000000000000D+00
396  3.9500000000000D+00  0.0000000000000D+00  0.0000000000000D+00
397  3.9600000000000D+00  0.0000000000000D+00  0.0000000000000D+00
398  3.9700000000000D+00  0.0000000000000D+00  0.0000000000000D+00
399  3.9800000000000D+00  0.0000000000000D+00  0.0000000000000D+00
400  3.9900000000000D+00  0.0000000000000D+00  0.0000000000000D+00
401  4.0000000000000D+00  0.0000000000000D+00  0.0000000000000D+00
402  4.0100000000000D+00  0.0000000000000D+00  0.0000000000000D+00
403  4.0200000000000D+00  0.0000000000000D+00  0.0000000000000D+00
404  4.0300000000000D+00  0.0000000000000D+00  0.0000000000000D+00
405  4.0400000000000D+00  0.0000000000000D+00  0.0000000000000D+00
406  4.0500000000000D+00  0.0000000000000D+00  0.0000000000000D+00
407  4.0600000000000D+00  0.0000000000000D+00  0.0000000000000D+00
408  4.0700000000000D+00  0.0000000000000D+00  0.0000000000000D+00
409  4.0800000000000D+00  0.0000000000000D+00  0.0000000000000D+00
410  4.0900000000000D+00  0.0000000000000D+00  0.0000000000000D+00
411  4.1000000000000D+00  0.0000000000000D+00  0.0000000000000D+00
412  4.1100000000000D+00  0.0000000000000D+00  0.0000000000000D+00
413  4.1200000000000D+00  0.0000000000000D+00  0.0000000000000D+00
414  4.1300000000000D+00  0.0000000000000D+00  0.0000000000000D+00
415  4.1400000000000D+00  0.0000000000000D+00  0.0000000000000D+00
416  4.1500000000000D+00  0.0000000000000D+00  0.0000000000000D+00
417  4.1600000000000D+00  0.0000000000000D+00  0.0000000000000D+00
418  4.1700000000000D+00  0.0000000000000D+00  0.0000000000000D+00
419  4.1800000000000D+00  0.0000000000000D+00  0.0000000000000D+00
420  4.1900000000000D+00  0.0000000000000D+00  0.0000000000000D+00
421  4.2000000000000D+00  0.0000000000000D+00  0.0000000000000D+00
422  4.2100000000000D+00  0.0000000000000D+00  0.0000000000000D+00
423  4.2200000000000D+00  0.0000000000000D+00  0.0000000000000D+00
424  4.2300000000000D+00  0.0000000000000D+00  0.0000000000000D+00
425  4.2400000000000D+00  0.0000000000000D+00  0.0000000000000D+00
426  4.2500000000000D+00  0.0000000000000D+00  0.0000000000000D+00
427  4.2600000000000D+00  0.0000000000000D+00  0.0000000000000D+00
428  4.2700000000000D+00  0.0000000000000D+00  0.0000000000000D+00
429  4.2800000000000D+00  0.0000000000000D+00  0.0000000000000D+00
430  4.2900000000000D+00  0.0000000000000D+00  0.0000000000000D+00
431  4.3000000000000D+00  0.0000000000000D+00  0.0000000000000D+00
432  4.3100000000000D+00  0.0000000000000D+00  0.0000000000000D+00
433  4.3200000000000D+00  0.0000000000000D+00  0.0000000000000D+00
434  4.3300000000000D+00  0.0000000000000D+00  0.0000000000000D+00
435  4.3400000000000D+00  0.0000000000000D+00  0.0000000000000D+00
436  4.3500000000000D+00  0.0000000000000D+00  0.0000000000000D+00
437  4.3600000000000D+00  0.0000000000000D+00  0.0000000000000D+00
438  4.3700000000000D+00  0.0000000000000D+00  0.0000000000000D+00
439  4.3800000000000D+00  0.0000000000000D+00  0.0000000000000D+00
440  4.3900000000000D+00  0.0000000000000D+00  0.0000000000000D+00
441  4.4000000000000D+00  0.0000000000000D+00  0.0000000000000D+00
442  4.4100000000000D+00  0.0000000000000D+00  0.0000000000000D+00
443  4.4200000000000D+00  0.0000000000000D+00  0.0000000000000D+00