Rb    ONCVPSP  r_core=  1.71  1.75  1.91
37.0000      9.0000      161022    zatom,zion,pspd
8 -116133   2     4   600     0    pspcod,pspxc,lmax,lloc,mmax,r2well
5.99000000  7.00000000  0.00000000    rchrg fchrg qchrg
2     2     2     0     0    nproj
1                 extension_switch
0                         7.3965555706378D+00 -5.0733026075346D-01
1  0.0000000000000D+00  8.4676904377190D-10  2.7731791307772D-09
2  1.0000000000000D-02  5.2880021055349D-02 -1.9575814762453D-02
3  2.0000000000000D-02  1.0574323580168D-01 -3.8921761486131D-02
4  3.0000000000000D-02  1.5857195045504D-01 -5.7811243424064D-02
5  4.0000000000000D-02  2.1134671126045D-01 -7.6024157448712D-02
6  5.0000000000000D-02  2.6404546173426D-01 -9.3350019170186D-02
7  6.0000000000000D-02  3.1664274396853D-01 -1.0959094402743D-01
8  7.0000000000000D-02  3.6910895767520D-01 -1.2456443965029D-01
9  8.0000000000000D-02  4.2140968980120D-01 -1.3810596756369D-01
10  9.0000000000000D-02  4.7350512650997D-01 -1.5007123569559D-01
11  1.0000000000000D-01  5.2534955811520D-01 -1.6033818711014D-01
12  1.1000000000000D-01  5.7689098618677D-01 -1.6880865485813D-01
13  1.2000000000000D-01  6.2807084054483D-01 -1.7540965775493D-01
14  1.3000000000000D-01  6.7882381223958D-01 -1.8009431718983D-01
15  1.4000000000000D-01  7.2907780690204D-01 -1.8284238066423D-01
16  1.5000000000000D-01  7.7875402107211D-01 -1.8366034356768D-01
17  1.6000000000000D-01  8.2776714228794D-01 -1.8258116664682D-01
18  1.7000000000000D-01  8.7602567188244D-01 -1.7966359261641D-01
19  1.8000000000000D-01  9.2343236760460D-01 -1.7499107131622D-01
20  1.9000000000000D-01  9.6988480139165D-01 -1.6867030864715D-01
21  2.0000000000000D-01  1.0152760258886D+00 -1.6082946013798D-01
22  2.1000000000000D-01  1.0594953416693D+00 -1.5161599531978D-01
23  2.2000000000000D-01  1.1024291555830D+00 -1.4119426403959D-01
24  2.3000000000000D-01  1.1439619192507D+00 -1.2974280035560D-01
25  2.4000000000000D-01  1.1839771354929D+00 -1.1745140365632D-01
26  2.5000000000000D-01  1.2223584193978D+00 -1.0451804007629D-01
27  2.6000000000000D-01  1.2589905998527D+00 -9.1145610090114D-02
28  2.7000000000000D-01  1.2937608466800D+00 -7.7538630311197D-02
29  2.8000000000000D-01  1.3265598080419D+00 -6.3899878970088D-02
30  2.9000000000000D-01  1.3572827425297D+00 -5.0427055275120D-02
31  3.0000000000000D-01  1.3858306303143D+00 -3.7309502853216D-02
32  3.1000000000000D-01  1.4121112479316D+00 -2.4725046728781D-02
33  3.2000000000000D-01  1.4360401916875D+00 -1.2836991831887D-02
34  3.3000000000000D-01  1.4575418352955D+00 -1.7913288522717D-03
35  3.4000000000000D-01  1.4765502081978D+00  8.2858095979592D-03
36  3.5000000000000D-01  1.4930097820542D+00  1.7290403042985D-02
37  3.6000000000000D-01  1.5068761540964D+00  2.5142472038153D-02
38  3.7000000000000D-01  1.5181166174264D+00  3.1787651134636D-02
39  3.8000000000000D-01  1.5267106098639D+00  3.7198380235274D-02
40  3.9000000000000D-01  1.5326500345947D+00  4.1374694148146D-02
41  4.0000000000000D-01  1.5359394476276D+00  4.4344595948172D-02
42  4.1000000000000D-01  1.5365961088880D+00  4.6164005797323D-02
43  4.2000000000000D-01  1.5346498956596D+00  4.6916283062465D-02
44  4.3000000000000D-01  1.5301430789796D+00  4.6711325819617D-02
45  4.4000000000000D-01  1.5231299654944D+00  4.5684258050977D-02
46  4.5000000000000D-01  1.5136764091434D+00  4.3993720938673D-02
47  4.6000000000000D-01  1.5018591988474D+00  4.1819790545884D-02
48  4.7000000000000D-01  1.4877653301017D+00  3.9361549766120D-02
49  4.8000000000000D-01  1.4714911699832D+00  3.6834347632107D-02
50  4.9000000000000D-01  1.4531415265662D+00  3.4466783829499D-02
51  5.0000000000000D-01  1.4328286350647D+00  3.2497460486696D-02
52  5.1000000000000D-01  1.4106710741712D+00  3.1171546945594D-02
53  5.2000000000000D-01  1.3867926270234D+00  3.0737206203783D-02
54  5.3000000000000D-01  1.3613211019869D+00  3.1441934011241D-02
55  5.4000000000000D-01  1.3343871289758D+00  3.3528863165101D-02
56  5.5000000000000D-01  1.3061229473532D+00  3.7233086349539D-02
57  5.6000000000000D-01  1.2766612015289D+00  4.2778050899686D-02
58  5.7000000000000D-01  1.2461337602261D+00  5.0372078121375D-02
59  5.8000000000000D-01  1.2146705750081D+00  6.0205058284923D-02
60  5.9000000000000D-01  1.1823985930467D+00  7.2445370140478D-02
61  6.0000000000000D-01  1.1494407382929D+00  8.7237070816303D-02
62  6.1000000000000D-01  1.1159149741790D+00  1.0469739828730D-01
63  6.2000000000000D-01  1.0819334597572D+00  1.2491462429151D-01
64  6.3000000000000D-01  1.0476018097876D+00  1.4794629070918D-01
65  6.4000000000000D-01  1.0130184677319D+00  1.7381785701388D-01
66  6.5000000000000D-01  9.7827419892940D-01  2.0252178061579D-01
67  6.6000000000000D-01  9.4345170944210D-01  2.3401704575158D-01
68  6.7000000000000D-01  9.0862539417684D-01  2.6822915015373D-01
69  6.8000000000000D-01  8.7386121597030D-01  3.0505055216056D-01
70  6.9000000000000D-01  8.3921671536989D-01  3.4434157428565D-01
71  7.0000000000000D-01  8.0474114888645D-01  3.8593175262027D-01
72  7.1000000000000D-01  7.7047575158128D-01  4.2962161496460D-01
73  7.2000000000000D-01  7.3645411798563D-01  4.7518486428818D-01
74  7.3000000000000D-01  7.0270269358683D-01  5.2237093818063D-01
75  7.4000000000000D-01  6.6924136744824D-01  5.7090790935617D-01
76  7.5000000000000D-01  6.3608415502033D-01  6.2050568722509D-01
77  7.6000000000000D-01  6.0323995884320D-01  6.7085947602245D-01
78  7.7000000000000D-01  5.7071339367022D-01  7.2165344110464D-01
79  7.8000000000000D-01  5.3850566157409D-01  7.7256453183734D-01
80  7.9000000000000D-01  5.0661546184478D-01  8.2326640705377D-01
81  8.0000000000000D-01  4.7503991996812D-01  8.7343340740356D-01
82  8.1000000000000D-01  4.4377551968854D-01  9.2274451805901D-01
83  8.2000000000000D-01  4.1281902212169D-01  9.7088726523005D-01
84  8.3000000000000D-01  3.8216835608777D-01  1.0175614907494D+00
85  8.4000000000000D-01  3.5182346428594D-01  1.0624829506277D+00
86  8.5000000000000D-01  3.2178709061806D-01  1.1053866859221D+00
87  8.6000000000000D-01  2.9206549488645D-01  1.1460301174770D+00
88  8.7000000000000D-01  2.6266908222301D-01  1.1841958200433D+00
89  8.8000000000000D-01  2.3361293594044D-01  1.2196939358995D+00
90  8.9000000000000D-01  2.0491724401044D-01  1.2523641933315D+00
91  9.0000000000000D-01  1.7660761104758D-01  1.2820775010877D+00
92  9.1000000000000D-01  1.4871524948618D-01  1.3087370961454D+00
93  9.2000000000000D-01  1.2127704555203D-01  1.3322792286909D+00
94  9.3000000000000D-01  9.4335497641261D-02  1.3526733751053D+00
95  9.4000000000000D-01  6.7938526733934D-02  1.3699219766467D+00
96  9.5000000000000D-01  4.2139160574221D-02  1.3840597087165D+00
97  9.6000000000000D-01  1.6995095378389D-02  1.3951522925357D+00
98  9.7000000000000D-01 -7.4318591493539D-03  1.4032948679558D+00
99  9.8000000000000D-01 -3.1076443776658D-02  1.4086099527494D+00
100  9.9000000000000D-01 -5.3870713129331D-02  1.4112450199868D+00
101  1.0000000000000D+00 -7.5744887256947D-02  1.4113697309182D+00
102  1.0100000000000D+00 -9.6628278576299D-02  1.4091728661022D+00
103  1.0200000000000D+00 -1.1645028006535D-01  1.4048590020740D+00
104  1.0300000000000D+00 -1.3514139940134D-01  1.3986449849052D+00
105  1.0400000000000D+00 -1.5263432281281D-01  1.3907562552088D+00
106  1.0500000000000D+00 -1.6886499174617D-01  1.3814230814854D+00
107  1.0600000000000D+00 -1.8377367499974D-01  1.3708767603074D+00
108  1.0700000000000D+00 -1.9730601884578D-01  1.3593458423918D+00
109  1.0800000000000D+00 -2.0941405769296D-01  1.3470524435903D+00
110  1.0900000000000D+00 -2.2005716826565D-01  1.3342086985300D+00
111  1.1000000000000D+00 -2.2920295087211D-01  1.3210134127369D+00
112  1.1100000000000D+00 -2.3682802226821D-01  1.3076489660635D+00
113  1.1200000000000D+00 -2.4291870572826D-01  1.2942785166544D+00
114  1.1300000000000D+00 -2.4747160520398D-01  1.2810435505493D+00
115  1.1400000000000D+00 -2.5049405222481D-01  1.2680618162315D+00
116  1.1500000000000D+00 -2.5200441588551D-01  1.2554256778913D+00
117  1.1600000000000D+00 -2.5203226818881D-01  1.2432009148842D+00
118  1.1700000000000D+00 -2.5061839891751D-01  1.2314259886192D+00
119  1.1800000000000D+00 -2.4781467679264D-01  1.2201117896559D+00
120  1.1900000000000D+00 -2.4368375589436D-01  1.2092418705302D+00
121  1.2000000000000D+00 -2.3829862804392D-01  1.1987731641908D+00
122  1.2100000000000D+00 -2.3174202493873D-01  1.1886371778194D+00
123  1.2200000000000D+00 -2.2410567598418D-01  1.1787416447914D+00
124  1.2300000000000D+00 -2.1548942979450D-01  1.1689726109277D+00
125  1.2400000000000D+00 -2.0600024934412D-01  1.1591969246390D+00
126  1.2500000000000D+00 -1.9575109368641D-01  1.1492650910415D+00
127  1.2600000000000D+00 -1.8485970038959D-01  1.1390144461652D+00
128  1.2700000000000D+00 -1.7344728417594D-01  1.1282726030185D+00
129  1.2800000000000D+00 -1.6163717015371D-01  1.1168611119653D+00
130  1.2900000000000D+00 -1.4955338017846D-01  1.1045992774716D+00
131  1.3000000000000D+00 -1.3731919205470D-01  1.0913080694576D+00
132  1.3100000000000D+00 -1.2505569297909D-01  1.0768140622673D+00
133  1.3200000000000D+00 -1.1288034794735D-01  1.0609533365260D+00
134  1.3300000000000D+00 -1.0090560510362D-01  1.0435752751147D+00
135  1.3400000000000D+00 -8.9237559274075D-02  1.0245461872802D+00
136  1.3500000000000D+00 -7.7974694629411D-02  1.0037526957831D+00
137  1.3600000000000D+00 -6.7206727762109D-02  9.8110482110643D-01
138  1.3700000000000D+00 -5.7013568923602D-02  9.5653870859586D-01
139  1.3800000000000D+00 -4.7464421572586D-02  9.3001893636373D-01
140  1.3900000000000D+00 -3.8617035749154D-02  9.0154035739929D-01
141  1.4000000000000D+00 -3.0517128851757D-02  8.7112943552263D-01
142  1.4100000000000D+00 -2.3197990130860D-02  8.3884502602925D-01
143  1.4200000000000D+00 -1.6680273930800D-02  8.0477858881844D-01
144  1.4300000000000D+00 -1.0971994168914D-02  7.6905379735278D-01
145  1.4400000000000D+00 -6.0687226761133D-03  7.3182553917790D-01
146  1.4500000000000D+00 -1.9539912424155D-03  6.9327831235143D-01
147  1.4600000000000D+00  1.4000971268403D-03  6.5362400429752D-01
148  1.4700000000000D+00  4.0320627773042D-03  6.1309910525953D-01
149  1.4800000000000D+00  5.9900459535516D-03  5.7196134827604D-01
150  1.4900000000000D+00  7.3306269316366D-03  5.3048584879446D-01
151  1.5000000000000D+00  8.1174791963383D-03  4.8896077800240D-01
152  1.5100000000000D+00  8.4198739638003D-03  4.4768263268334D-01
153  1.5200000000000D+00  8.3110655726570D-03  4.0695119830390D-01
154  1.5300000000000D+00  7.8665701980646D-03  3.6706425037327D-01
155  1.5400000000000D+00  7.1623872629070D-03  3.2831215144279D-01
156  1.5500000000000D+00  6.2731739013261D-03  2.9097238305926D-01
157  1.5600000000000D+00  5.2704333476313D-03  2.5530420419396D-01
158  1.5700000000000D+00  4.2207375203561D-03  2.2154350589180D-01
159  1.5800000000000D+00  3.1840445322412D-03  1.8989805247738D-01
160  1.5900000000000D+00  2.2121484557944D-03  1.6054322963644D-01
161  1.6000000000000D+00  1.3473188837315D-03  1.3361848007051D-01
162  1.6100000000000D+00  6.2118550535599D-04  1.0922459792703D-01
163  1.6200000000000D+00  5.3921674433574D-05  8.7422053038782D-02
164  1.6300000000000D+00 -3.4619980876075D-04  6.8230564852462D-02
165  1.6400000000000D+00 -5.8282829420421D-04  5.1630088590424D-02
166  1.6500000000000D+00 -6.7104283963149D-04  3.7563480082601D-02
167  1.6600000000000D+00 -6.3660183277097D-04  2.5948478235900D-02
168  1.6700000000000D+00 -5.1282003478989D-04  1.6649802404117D-02
169  1.6800000000000D+00 -3.3858760843717D-04  9.5043607219080D-03
170  1.6900000000000D+00 -1.6231843667078D-04  4.4886258261245D-03
171  1.7000000000000D+00 -2.7320596680463D-05  1.5391696630981D-03
172  1.7100000000000D+00  4.2369497726763D-05  2.0481225717818D-04
173  1.7200000000000D+00  4.2618282749326D-05 -1.3662628543423D-04
174  1.7300000000000D+00  9.2522874026640D-06 -4.3690841423351D-05
175  1.7400000000000D+00 -8.1356295671437D-06  4.6232635172663D-05
176  1.7500000000000D+00 -3.7252504869227D-06  2.2711814495258D-05
177  1.7600000000000D+00  1.4678313135711D-06 -7.6633266293147D-06
178  1.7700000000000D+00  9.9036624821799D-07 -5.4429388753777D-06
179  1.7800000000000D+00 -1.0564773944616D-07 -1.3901801245709D-07
180  1.7900000000000D+00 -1.0120689350581D-07 -1.3317446502776D-07
181  1.8000000000000D+00  0.0000000000000D+00  0.0000000000000D+00
182  1.8100000000000D+00  0.0000000000000D+00  0.0000000000000D+00
183  1.8200000000000D+00  0.0000000000000D+00  0.0000000000000D+00
184  1.8300000000000D+00  0.0000000000000D+00  0.0000000000000D+00
185  1.8400000000000D+00  0.0000000000000D+00  0.0000000000000D+00
186  1.8500000000000D+00  0.0000000000000D+00  0.0000000000000D+00
187  1.8600000000000D+00  0.0000000000000D+00  0.0000000000000D+00
188  1.8700000000000D+00  0.0000000000000D+00  0.0000000000000D+00
189  1.8800000000000D+00  0.0000000000000D+00  0.0000000000000D+00
190  1.8900000000000D+00  0.0000000000000D+00  0.0000000000000D+00
191  1.9000000000000D+00  0.0000000000000D+00  0.0000000000000D+00
192  1.9100000000000D+00  0.0000000000000D+00  0.0000000000000D+00
193  1.9200000000000D+00  0.0000000000000D+00  0.0000000000000D+00
194  1.9300000000000D+00  0.0000000000000D+00  0.0000000000000D+00
195  1.9400000000000D+00  0.0000000000000D+00  0.0000000000000D+00
196  1.9500000000000D+00  0.0000000000000D+00  0.0000000000000D+00
197  1.9600000000000D+00  0.0000000000000D+00  0.0000000000000D+00
198  1.9700000000000D+00  0.0000000000000D+00  0.0000000000000D+00
199  1.9800000000000D+00  0.0000000000000D+00  0.0000000000000D+00
200  1.9900000000000D+00  0.0000000000000D+00  0.0000000000000D+00
201  2.0000000000000D+00  0.0000000000000D+00  0.0000000000000D+00
202  2.0100000000000D+00  0.0000000000000D+00  0.0000000000000D+00
203  2.0200000000000D+00  0.0000000000000D+00  0.0000000000000D+00
204  2.0300000000000D+00  0.0000000000000D+00  0.0000000000000D+00
205  2.0400000000000D+00  0.0000000000000D+00  0.0000000000000D+00
206  2.0500000000000D+00  0.0000000000000D+00  0.0000000000000D+00
207  2.0600000000000D+00  0.0000000000000D+00  0.0000000000000D+00
208  2.0700000000000D+00  0.0000000000000D+00  0.0000000000000D+00
209  2.0800000000000D+00  0.0000000000000D+00  0.0000000000000D+00
210  2.0900000000000D+00  0.0000000000000D+00  0.0000000000000D+00
211  2.1000000000000D+00  0.0000000000000D+00  0.0000000000000D+00
212  2.1100000000000D+00  0.0000000000000D+00  0.0000000000000D+00
213  2.1200000000000D+00  0.0000000000000D+00  0.0000000000000D+00
214  2.1300000000000D+00  0.0000000000000D+00  0.0000000000000D+00
215  2.1400000000000D+00  0.0000000000000D+00  0.0000000000000D+00
216  2.1500000000000D+00  0.0000000000000D+00  0.0000000000000D+00
217  2.1600000000000D+00  0.0000000000000D+00  0.0000000000000D+00
218  2.1700000000000D+00  0.0000000000000D+00  0.0000000000000D+00
219  2.1800000000000D+00  0.0000000000000D+00  0.0000000000000D+00
220  2.1900000000000D+00  0.0000000000000D+00  0.0000000000000D+00
221  2.2000000000000D+00  0.0000000000000D+00  0.0000000000000D+00
222  2.2100000000000D+00  0.0000000000000D+00  0.0000000000000D+00
223  2.2200000000000D+00  0.0000000000000D+00  0.0000000000000D+00
224  2.2300000000000D+00  0.0000000000000D+00  0.0000000000000D+00
225  2.2400000000000D+00  0.0000000000000D+00  0.0000000000000D+00
226  2.2500000000000D+00  0.0000000000000D+00  0.0000000000000D+00
227  2.2600000000000D+00  0.0000000000000D+00  0.0000000000000D+00
228  2.2700000000000D+00  0.0000000000000D+00  0.0000000000000D+00
229  2.2800000000000D+00  0.0000000000000D+00  0.0000000000000D+00
230  2.2900000000000D+00  0.0000000000000D+00  0.0000000000000D+00
231  2.3000000000000D+00  0.0000000000000D+00  0.0000000000000D+00
232  2.3100000000000D+00  0.0000000000000D+00  0.0000000000000D+00
233  2.3200000000000D+00  0.0000000000000D+00  0.0000000000000D+00
234  2.3300000000000D+00  0.0000000000000D+00  0.0000000000000D+00
235  2.3400000000000D+00  0.0000000000000D+00  0.0000000000000D+00
236  2.3500000000000D+00  0.0000000000000D+00  0.0000000000000D+00
237  2.3600000000000D+00  0.0000000000000D+00  0.0000000000000D+00
238  2.3700000000000D+00  0.0000000000000D+00  0.0000000000000D+00
239  2.3800000000000D+00  0.0000000000000D+00  0.0000000000000D+00
240  2.3900000000000D+00  0.0000000000000D+00  0.0000000000000D+00
241  2.4000000000000D+00  0.0000000000000D+00  0.0000000000000D+00
242  2.4100000000000D+00  0.0000000000000D+00  0.0000000000000D+00
243  2.4200000000000D+00  0.0000000000000D+00  0.0000000000000D+00
244  2.4300000000000D+00  0.0000000000000D+00  0.0000000000000D+00
245  2.4400000000000D+00  0.0000000000000D+00  0.0000000000000D+00
246  2.4500000000000D+00  0.0000000000000D+00  0.0000000000000D+00
247  2.4600000000000D+00  0.0000000000000D+00  0.0000000000000D+00
248  2.4700000000000D+00  0.0000000000000D+00  0.0000000000000D+00
249  2.4800000000000D+00  0.0000000000000D+00  0.0000000000000D+00
250  2.4900000000000D+00  0.0000000000000D+00  0.0000000000000D+00
251  2.5000000000000D+00  0.0000000000000D+00  0.0000000000000D+00
252  2.5100000000000D+00  0.0000000000000D+00  0.0000000000000D+00
253  2.5200000000000D+00  0.0000000000000D+00  0.0000000000000D+00
254  2.5300000000000D+00  0.0000000000000D+00  0.0000000000000D+00
255  2.5400000000000D+00  0.0000000000000D+00  0.0000000000000D+00
256  2.5500000000000D+00  0.0000000000000D+00  0.0000000000000D+00
257  2.5600000000000D+00  0.0000000000000D+00  0.0000000000000D+00
258  2.5700000000000D+00  0.0000000000000D+00  0.0000000000000D+00
259  2.5800000000000D+00  0.0000000000000D+00  0.0000000000000D+00
260  2.5900000000000D+00  0.0000000000000D+00  0.0000000000000D+00
261  2.6000000000000D+00  0.0000000000000D+00  0.0000000000000D+00
262  2.6100000000000D+00  0.0000000000000D+00  0.0000000000000D+00
263  2.6200000000000D+00  0.0000000000000D+00  0.0000000000000D+00
264  2.6300000000000D+00  0.0000000000000D+00  0.0000000000000D+00
265  2.6400000000000D+00  0.0000000000000D+00  0.0000000000000D+00
266  2.6500000000000D+00  0.0000000000000D+00  0.0000000000000D+00
267  2.6600000000000D+00  0.0000000000000D+00  0.0000000000000D+00
268  2.6700000000000D+00  0.0000000000000D+00  0.0000000000000D+00
269  2.6800000000000D+00  0.0000000000000D+00  0.0000000000000D+00
270  2.6900000000000D+00  0.0000000000000D+00  0.0000000000000D+00
271  2.7000000000000D+00  0.0000000000000D+00  0.0000000000000D+00
272  2.7100000000000D+00  0.0000000000000D+00  0.0000000000000D+00
273  2.7200000000000D+00  0.0000000000000D+00  0.0000000000000D+00
274  2.7300000000000D+00  0.0000000000000D+00  0.0000000000000D+00
275  2.7400000000000D+00  0.0000000000000D+00  0.0000000000000D+00
276  2.7500000000000D+00  0.0000000000000D+00  0.0000000000000D+00
277  2.7600000000000D+00  0.0000000000000D+00  0.0000000000000D+00
278  2.7700000000000D+00  0.0000000000000D+00  0.0000000000000D+00
279  2.7800000000000D+00  0.0000000000000D+00  0.0000000000000D+00
280  2.7900000000000D+00  0.0000000000000D+00  0.0000000000000D+00
281  2.8000000000000D+00  0.0000000000000D+00  0.0000000000000D+00
282  2.8100000000000D+00  0.0000000000000D+00  0.0000000000000D+00
283  2.8200000000000D+00  0.0000000000000D+00  0.0000000000000D+00
284  2.8300000000000D+00  0.0000000000000D+00  0.0000000000000D+00
285  2.8400000000000D+00  0.0000000000000D+00  0.0000000000000D+00
286  2.8500000000000D+00  0.0000000000000D+00  0.0000000000000D+00
287  2.8600000000000D+00  0.0000000000000D+00  0.0000000000000D+00
288  2.8700000000000D+00  0.0000000000000D+00  0.0000000000000D+00
289  2.8800000000000D+00  0.0000000000000D+00  0.0000000000000D+00
290  2.8900000000000D+00  0.0000000000000D+00  0.0000000000000D+00
291  2.9000000000000D+00  0.0000000000000D+00  0.0000000000000D+00
292  2.9100000000000D+00  0.0000000000000D+00  0.0000000000000D+00
293  2.9200000000000D+00  0.0000000000000D+00  0.0000000000000D+00
294  2.9300000000000D+00  0.0000000000000D+00  0.0000000000000D+00
295  2.9400000000000D+00  0.0000000000000D+00  0.0000000000000D+00
296  2.9500000000000D+00  0.0000000000000D+00  0.0000000000000D+00
297  2.9600000000000D+00  0.0000000000000D+00  0.0000000000000D+00
298  2.9700000000000D+00  0.0000000000000D+00  0.0000000000000D+00
299  2.9800000000000D+00  0.0000000000000D+00  0.0000000000000D+00
300  2.9900000000000D+00  0.0000000000000D+00  0.0000000000000D+00
301  3.0000000000000D+00  0.0000000000000D+00  0.0000000000000D+00
302  3.0100000000000D+00  0.0000000000000D+00  0.0000000000000D+00
303  3.0200000000000D+00  0.0000000000000D+00  0.0000000000000D+00
304  3.0300000000000D+00  0.0000000000000D+00  0.0000000000000D+00
305  3.0400000000000D+00  0.0000000000000D+00  0.0000000000000D+00
306  3.0500000000000D+00  0.0000000000000D+00  0.0000000000000D+00
307  3.0600000000000D+00  0.0000000000000D+00  0.0000000000000D+00
308  3.0700000000000D+00  0.0000000000000D+00  0.0000000000000D+00
309  3.0800000000000D+00  0.0000000000000D+00  0.0000000000000D+00
310  3.0900000000000D+00  0.0000000000000D+00  0.0000000000000D+00
311  3.1000000000000D+00  0.0000000000000D+00  0.0000000000000D+00
312  3.1100000000000D+00  0.0000000000000D+00  0.0000000000000D+00
313  3.1200000000000D+00  0.0000000000000D+00  0.0000000000000D+00
314  3.1300000000000D+00  0.0000000000000D+00  0.0000000000000D+00
315  3.1400000000000D+00  0.0000000000000D+00  0.0000000000000D+00
316  3.1500000000000D+00  0.0000000000000D+00  0.0000000000000D+00
317  3.1600000000000D+00  0.0000000000000D+00  0.0000000000000D+00
318  3.1700000000000D+00  0.0000000000000D+00  0.0000000000000D+00
319  3.1800000000000D+00  0.0000000000000D+00  0.0000000000000D+00
320  3.1900000000000D+00  0.0000000000000D+00  0.0000000000000D+00
321  3.2000000000000D+00  0.0000000000000D+00  0.0000000000000D+00
322  3.2100000000000D+00  0.0000000000000D+00  0.0000000000000D+00
323  3.2200000000000D+00  0.0000000000000D+00  0.0000000000000D+00
324  3.2300000000000D+00  0.0000000000000D+00  0.0000000000000D+00
325  3.2400000000000D+00  0.0000000000000D+00  0.0000000000000D+00
326  3.2500000000000D+00  0.0000000000000D+00  0.0000000000000D+00
327  3.2600000000000D+00  0.0000000000000D+00  0.0000000000000D+00
328  3.2700000000000D+00  0.0000000000000D+00  0.0000000000000D+00
329  3.2800000000000D+00  0.0000000000000D+00  0.0000000000000D+00
330  3.2900000000000D+00  0.0000000000000D+00  0.0000000000000D+00
331  3.3000000000000D+00  0.0000000000000D+00  0.0000000000000D+00
332  3.3100000000000D+00  0.0000000000000D+00  0.0000000000000D+00
333  3.3200000000000D+00  0.0000000000000D+00  0.0000000000000D+00
334  3.3300000000000D+00  0.0000000000000D+00  0.0000000000000D+00
335  3.3400000000000D+00  0.0000000000000D+00  0.0000000000000D+00
336  3.3500000000000D+00  0.0000000000000D+00  0.0000000000000D+00
337  3.3600000000000D+00  0.0000000000000D+00  0.0000000000000D+00
338  3.3700000000000D+00  0.0000000000000D+00  0.0000000000000D+00
339  3.3800000000000D+00  0.0000000000000D+00  0.0000000000000D+00
340  3.3900000000000D+00  0.0000000000000D+00  0.0000000000000D+00
341  3.4000000000000D+00  0.0000000000000D+00  0.0000000000000D+00
342  3.4100000000000D+00  0.0000000000000D+00  0.0000000000000D+00
343  3.4200000000000D+00  0.0000000000000D+00  0.0000000000000D+00
344  3.4300000000000D+00  0.0000000000000D+00  0.0000000000000D+00
345  3.4400000000000D+00  0.0000000000000D+00  0.0000000000000D+00
346  3.4500000000000D+00  0.0000000000000D+00  0.0000000000000D+00
347  3.4600000000000D+00  0.0000000000000D+00  0.0000000000000D+00
348  3.4700000000000D+00  0.0000000000000D+00  0.0000000000000D+00
349  3.4800000000000D+00  0.0000000000000D+00  0.0000000000000D+00
350  3.4900000000000D+00  0.0000000000000D+00  0.0000000000000D+00
351  3.5000000000000D+00  0.0000000000000D+00  0.0000000000000D+00
352  3.5100000000000D+00  0.0000000000000D+00  0.0000000000000D+00
353  3.5200000000000D+00  0.0000000000000D+00  0.0000000000000D+00
354  3.5300000000000D+00  0.0000000000000D+00  0.0000000000000D+00
355  3.5400000000000D+00  0.0000000000000D+00  0.0000000000000D+00
356  3.5500000000000D+00  0.0000000000000D+00  0.0000000000000D+00
357  3.5600000000000D+00  0.0000000000000D+00  0.0000000000000D+00
358  3.5700000000000D+00  0.0000000000000D+00  0.0000000000000D+00
359  3.5800000000000D+00  0.0000000000000D+00  0.0000000000000D+00
360  3.5900000000000D+00  0.0000000000000D+00  0.0000000000000D+00
361  3.6000000000000D+00  0.0000000000000D+00  0.0000000000000D+00
362  3.6100000000000D+00  0.0000000000000D+00  0.0000000000000D+00
363  3.6200000000000D+00  0.0000000000000D+00  0.0000000000000D+00
364  3.6300000000000D+00  0.0000000000000D+00  0.0000000000000D+00
365  3.6400000000000D+00  0.0000000000000D+00  0.0000000000000D+00
366  3.6500000000000D+00  0.0000000000000D+00  0.0000000000000D+00
367  3.6600000000000D+00  0.0000000000000D+00  0.0000000000000D+00
368  3.6700000000000D+00  0.0000000000000D+00  0.0000000000000D+00
369  3.6800000000000D+00  0.0000000000000D+00  0.0000000000000D+00
370  3.6900000000000D+00  0.0000000000000D+00  0.0000000000000D+00
371  3.7000000000000D+00  0.0000000000000D+00  0.0000000000000D+00
372  3.7100000000000D+00  0.0000000000000D+00  0.0000000000000D+00
373  3.7200000000000D+00  0.0000000000000D+00  0.0000000000000D+00
374  3.7300000000000D+00  0.0000000000000D+00  0.0000000000000D+00
375  3.7400000000000D+00  0.0000000000000D+00  0.0000000000000D+00
376  3.7500000000000D+00  0.0000000000000D+00  0.0000000000000D+00
377  3.7600000000000D+00  0.0000000000000D+00  0.0000000000000D+00
378  3.7700000000000D+00  0.0000000000000D+00  0.0000000000000D+00
379  3.7800000000000D+00  0.0000000000000D+00  0.0000000000000D+00
380  3.7900000000000D+00  0.0000000000000D+00  0.0000000000000D+00
381  3.8000000000000D+00  0.0000000000000D+00  0.0000000000000D+00
382  3.8100000000000D+00  0.0000000000000D+00  0.0000000000000D+00
383  3.8200000000000D+00  0.0000000000000D+00  0.0000000000000D+00
384  3.8300000000000D+00  0.0000000000000D+00  0.0000000000000D+00
385  3.8400000000000D+00  0.0000000000000D+00  0.0000000000000D+00
386  3.8500000000000D+00  0.0000000000000D+00  0.0000000000000D+00
387  3.8600000000000D+00  0.0000000000000D+00  0.0000000000000D+00
388  3.8700000000000D+00  0.0000000000000D+00  0.0000000000000D+00
389  3.8800000000000D+00  0.0000000000000D+00  0.0000000000000D+00
390  3.8900000000000D+00  0.0000000000000D+00  0.0000000000000D+00
391  3.9000000000000D+00  0.0000000000000D+00  0.0000000000000D+00
392  3.9100000000000D+00  0.0000000000000D+00  0.0000000000000D+00
393  3.9200000000000D+00  0.0000000000000D+00  0.0000000000000D+00
394  3.9300000000000D+00  0.0000000000000D+00  0.0000000000000D+00
395  3.9400000000000D+00  0.0000000000000D+00  0.0000000000000D+00
396  3.9500000000000D+00  0.0000000000000D+00  0.0000000000000D+00
397  3.9600000000000D+00  0.0000000000000D+00  0.0000000000000D+00
398  3.9700000000000D+00  0.0000000000000D+00  0.0000000000000D+00
399  3.9800000000000D+00  0.0000000000000D+00  0.0000000000000D+00
400  3.9900000000000D+00  0.0000000000000D+00  0.0000000000000D+00
401  4.0000000000000D+00  0.0000000000000D+00  0.0000000000000D+00
402  4.0100000000000D+00  0.0000000000000D+00  0.0000000000000D+00
403  4.0200000000000D+00  0.0000000000000D+00  0.0000000000000D+00
404  4.0300000000000D+00  0.0000000000000D+00  0.0000000000000D+00
405  4.0400000000000D+00  0.0000000000000D+00  0.0000000000000D+00
406  4.0500000000000D+00  0.0000000000000D+00  0.0000000000000D+00
407  4.0600000000000D+00  0.0000000000000D+00  0.0000000000000D+00
408  4.0700000000000D+00  0.0000000000000D+00  0.0000000000000D+00
409  4.0800000000000D+00  0.0000000000000D+00  0.0000000000000D+00
410  4.0900000000000D+00  0.0000000000000D+00  0.0000000000000D+00
411  4.1000000000000D+00  0.0000000000000D+00  0.0000000000000D+00
412  4.1100000000000D+00  0.0000000000000D+00  0.0000000000000D+00
413  4.1200000000000D+00  0.0000000000000D+00  0.0000000000000D+00
414  4.1300000000000D+00  0.0000000000000D+00  0.0000000000000D+00
415  4.1400000000000D+00  0.0000000000000D+00  0.0000000000000D+00
416  4.1500000000000D+00  0.0000000000000D+00  0.0000000000000D+00
417  4.1600000000000D+00  0.0000000000000D+00  0.0000000000000D+00
418  4.1700000000000D+00  0.0000000000000D+00  0.0000000000000D+00
419  4.1800000000000D+00  0.0000000000000D+00  0.0000000000000D+00
420  4.1900000000000D+00  0.0000000000000D+00  0.0000000000000D+00
421  4.2000000000000D+00  0.0000000000000D+00  0.0000000000000D+00
422  4.2100000000000D+00  0.0000000000000D+00  0.0000000000000D+00
423  4.2200000000000D+00  0.0000000000000D+00  0.0000000000000D+00
424  4.2300000000000D+00  0.0000000000000D+00  0.0000000000000D+00
425  4.2400000000000D+00  0.0000000000000D+00  0.0000000000000D+00
426  4.2500000000000D+00  0.0000000000000D+00  0.0000000000000D+00
427  4.2600000000000D+00  0.0000000000000D+00  0.0000000000000D+00
428  4.2700000000000D+00  0.0000000000000D+00  0.0000000000000D+00
429  4.2800000000000D+00  0.0000000000000D+00  0.0000000000000D+00
430  4.2900000000000D+00  0.0000000000000D+00  0.0000000000000D+00
431  4.3000000000000D+00  0.0000000000000D+00  0.0000000000000D+00
432  4.3100000000000D+00  0.0000000000000D+00  0.0000000000000D+00
433  4.3200000000000D+00  0.0000000000000D+00  0.0000000000000D+00
434  4.3300000000000D+00  0.0000000000000D+00  0.0000000000000D+00
435  4.3400000000000D+00  0.0000000000000D+00  0.0000000000000D+00
436  4.3500000000000D+00  0.0000000000000D+00  0.0000000000000D+00
437  4.3600000000000D+00  0.0000000000000D+00  0.0000000000000D+00
438  4.3700000000000D+00  0.0000000000000D+00  0.0000000000000D+00
439  4.3800000000000D+00  0.0000000000000D+00  0.0000000000000D+00
440  4.3900000000000D+00  0.0000000000000D+00  0.0000000000000D+00
441  4.4000000000000D+00  0.0000000000000D+00  0.0000000000000D+00
442  4.4100000000000D+00  0.0000000000000D+00  0.0000000000000D+00
443  4.4200000000000D+00  0.0000000000000D+00  0.0000000000000D+00
444  4.4300000000000D+00  0.0000000000000D+00  0.0000000000000D+00