Si    ONCVPSP  r_core=  1.60  1.72  1.92
14.0000      4.0000      151001    zatom,zion,pspd
8   -1013   2     4   600     0    pspcod,pspxc,lmax,lloc,mmax,r2well
5.99000000  4.00000000  0.00000000    rchrg fchrg qchrg
2     2     2     0     0    nproj
0                 extension_switch
0                         5.4799468046563D+00  8.6629793455929D-01
1  0.0000000000000D+00 -6.1855383592935D-09  1.4708156637067D-08
2  1.0000000000000D-02  4.1687064587763D-02 -2.9382504962770D-02
3  2.0000000000000D-02  8.3057968227997D-02 -5.8046067488029D-02
4  3.0000000000000D-02  1.2380202591825D-01 -8.5284753015511D-02
5  4.0000000000000D-02  1.6361940953019D-01 -1.1041841691093D-01
6  5.0000000000000D-02  2.0222634031966D-01 -1.3280503869329D-01
7  6.0000000000000D-02  2.3936000281386D-01 -1.5185239405517D-01
8  7.0000000000000D-02  2.7478309460362D-01 -1.6702886154174D-01
9  8.0000000000000D-02  3.0828793275432D-01 -1.7787317546287D-01
10  9.0000000000000D-02  3.3970004508486D-01 -1.8400295453106D-01
11  1.0000000000000D-01  3.6888118332456D-01 -1.8512185654822D-01
12  1.1000000000000D-01  3.9573170499647D-01 -1.8102523285658D-01
13  1.2000000000000D-01  4.2019228162732D-01 -1.7160418183310D-01
14  1.3000000000000D-01  4.4224490237037D-01 -1.5684792801330D-01
15  1.4000000000000D-01  4.6191315415399D-01 -1.3684448202264D-01
16  1.5000000000000D-01  4.7926177183528D-01 -1.1177956589146D-01
17  1.6000000000000D-01  4.9439546433680D-01 -8.1933818039139D-02
18  1.7000000000000D-01  5.0745703516474D-01 -4.7678321734883D-02
19  1.8000000000000D-01  5.1862482784041D-01 -9.4685296797451D-03
20  1.9000000000000D-01  5.2810953841887D-01  3.2163314980644D-02
21  2.0000000000000D-01  5.3615044822181D-01  7.6617134877546D-02
22  2.1000000000000D-01  5.4301113999113D-01  1.2323520159523D-01
23  2.2000000000000D-01  5.4897476970350D-01  1.7131337406656D-01
24  2.3000000000000D-01  5.5433897412043D-01  2.2011320185236D-01
25  2.4000000000000D-01  5.5941050064739D-01  2.6887468754472D-01
26  2.5000000000000D-01  5.6449965112827D-01  3.1682949055245D-01
27  2.6000000000000D-01  5.6991463471726D-01  3.6321434620036D-01
28  2.7000000000000D-01  5.7595592688685D-01  4.0728446955175D-01
29  2.8000000000000D-01  5.8291073191051D-01  4.4832671273338D-01
30  2.9000000000000D-01  5.9104764479199D-01  4.8567224782779D-01
31  3.0000000000000D-01  6.0061160561787D-01  5.1870855455525D-01
32  3.1000000000000D-01  6.1181923473037D-01  5.4689050289102D-01
33  3.2000000000000D-01  6.2485463102524D-01  5.6975033528217D-01
34  3.3000000000000D-01  6.3986570817109D-01  5.8690637101078D-01
35  3.4000000000000D-01  6.5696113474291D-01  5.9807027621030D-01
36  3.5000000000000D-01  6.7620793430575D-01  6.0305276673805D-01
37  3.6000000000000D-01  6.9762979053740D-01  6.0176763715482D-01
38  3.7000000000000D-01  7.2120609072079D-01  5.9423403703094D-01
39  3.8000000000000D-01  7.4687172856041D-01  5.8057694523249D-01
40  3.9000000000000D-01  7.7451767448821D-01  5.6102582324762D-01
41  4.0000000000000D-01  8.0399230863470D-01  5.3591145949074D-01
42  4.1000000000000D-01  8.3510349866574D-01  5.0566104735601D-01
43  4.2000000000000D-01  8.6762139194423D-01  4.7079157006253D-01
44  4.3000000000000D-01  9.0128187918057D-01  4.3190159453421D-01
45  4.4000000000000D-01  9.3579067509449D-01  3.8966160419418D-01
46  4.5000000000000D-01  9.7082795082236D-01  3.4480302615534D-01
47  4.6000000000000D-01  1.0060534430513D+00  2.9810613141765D-01
48  4.7000000000000D-01  1.0411119563134D+00  2.5038700694002D-01
49  4.8000000000000D-01  1.0756391676793D+00  2.0248381548571D-01
50  4.9000000000000D-01  1.1092676373757D+00  1.5524257264442D-01
51  5.0000000000000D-01  1.1416329247222D+00  1.0950268016479D-01
52  5.1000000000000D-01  1.1723797063140D+00  6.6082460507715D-02
53  5.2000000000000D-01  1.2011677926200D+00  2.5764939233168D-02
54  5.3000000000000D-01  1.2276779401468D+00 -1.0715880598012D-02
55  5.4000000000000D-01  1.2516173590174D+00 -4.2688014349438D-02
56  5.5000000000000D-01  1.2727248202238D+00 -6.9553534981903D-02
57  5.6000000000000D-01  1.2907752728323D+00 -9.0799442818469D-02
58  5.7000000000000D-01  1.3055838889932D+00 -1.0600717134332D-01
59  5.8000000000000D-01  1.3170094636071D+00 -1.1486055596915D-01
60  5.9000000000000D-01  1.3249571057610D+00 -1.1715211719794D-01
61  6.0000000000000D-01  1.3293801704648D+00 -1.1278753682023D-01
62  6.1000000000000D-01  1.3302813915445D+00 -1.0178823517515D-01
63  6.2000000000000D-01  1.3277131896197D+00 -8.4291988635974D-02
64  6.3000000000000D-01  1.3217771427417D+00 -6.0551558978331D-02
65  6.4000000000000D-01  1.3126226211122D+00 -3.0931339242913D-02
66  6.5000000000000D-01  1.3004446013768D+00  4.0979458166938D-03
67  6.6000000000000D-01  1.2854806897969D+00  4.3966413773573D-02
68  6.7000000000000D-01  1.2680073970396D+00  8.8013970189325D-02
69  6.8000000000000D-01  1.2483357202494D+00  1.3550089234206D-01
70  6.9000000000000D-01  1.2268061000594D+00  1.8561988898774D-01
71  7.0000000000000D-01  1.2037828312185D+00  2.3750944799242D-01
72  7.1000000000000D-01  1.1796480153136D+00  2.9026826044652D-01
73  7.2000000000000D-01  1.1547951524900D+00  3.4297048994173D-01
74  7.3000000000000D-01  1.1296224759398D+00  3.9468163948276D-01
75  7.4000000000000D-01  1.1045261381606D+00  4.4447475619145D-01
76  7.5000000000000D-01  1.0798933614545D+00  4.9144670586584D-01
77  7.6000000000000D-01  1.0560956667879D+00  5.3473424568269D-01
78  7.7000000000000D-01  1.0334822949129D+00  5.7352962403195D-01
79  7.8000000000000D-01  1.0123739315547D+00  6.0709544162358D-01
80  7.9000000000000D-01  9.9305684452644D-01  6.3477851757699D-01
81  8.0000000000000D-01  9.7577753487528D-01  6.5602251806831D-01
82  8.1000000000000D-01  9.6073799669489D-01  6.7037912307596D-01
83  8.2000000000000D-01  9.4809167114336D-01  6.7751752856861D-01
84  8.3000000000000D-01  9.3794016964112D-01  6.7723210679533D-01
85  8.4000000000000D-01  9.3033082933615D-01  6.6944807577991D-01
86  8.5000000000000D-01  9.2525515090476D-01  6.5422506025142D-01
87  8.6000000000000D-01  9.2264815480608D-01  6.3175845957449D-01
88  8.7000000000000D-01  9.2238867744753D-01  6.0237857325070D-01
89  8.8000000000000D-01  9.2430061357994D-01  5.6654747069163D-01
90  8.9000000000000D-01  9.2815509586557D-01  5.2485362863579D-01
91  9.0000000000000D-01  9.3367358719937D-01  4.7800439620591D-01
92  9.1000000000000D-01  9.4053184626089D-01  4.2681638358448D-01
93  9.2000000000000D-01  9.4836471217849D-01  3.7220390503896D-01
94  9.3000000000000D-01  9.5677164033893D-01  3.1516563997835D-01
95  9.4000000000000D-01  9.6532290850365D-01  2.5676970632573D-01
96  9.5000000000000D-01  9.7356640071243D-01  1.9813736823276D-01
97  9.6000000000000D-01  9.8103486616501D-01  1.4042562457331D-01
98  9.7000000000000D-01  9.8725354154820D-01  8.4808945307710D-02
99  9.8000000000000D-01  9.9174801824379D-01  3.2460439417000D-02
100  9.9000000000000D-01  9.9405223078863D-01 -1.5467249987034D-02
101  1.0000000000000D+00  9.9371643957504D-01 -5.7861019894010D-02
102  1.0100000000000D+00  9.9031507969660D-01 -9.3666045096262D-02
103  1.0200000000000D+00  9.8345434862275D-01 -1.2190387554585D-01
104  1.0300000000000D+00  9.7277940823056D-01 -1.4168959654531D-01
105  1.0400000000000D+00  9.5798108174277D-01 -1.5224776713724D-01
106  1.0500000000000D+00  9.3880193284155D-01 -1.5292686829042D-01
107  1.0600000000000D+00  9.1504162269219D-01 -1.4321201287452D-01
108  1.0700000000000D+00  8.8656145156759D-01 -1.2273569575773D-01
109  1.0800000000000D+00  8.5328800321475D-01 -9.1286389854594D-02
110  1.0900000000000D+00  8.1521582415560D-01 -4.8814827658332D-02
111  1.1000000000000D+00  7.7240908392894D-01  4.5621590983622D-03
112  1.1100000000000D+00  7.2500217787647D-01  6.8560331647169D-02
113  1.1200000000000D+00  6.7319925130208D-01  1.4272931701355D-01
114  1.1300000000000D+00  6.1727263972524D-01  2.2645647221150D-01
115  1.1400000000000D+00  5.5756023770688D-01  3.1897330808353D-01
116  1.1500000000000D+00  4.9446182320107D-01  4.1936440646054D-01
117  1.1600000000000D+00  4.2843438493257D-01  5.2657871523476D-01
118  1.1700000000000D+00  3.5998651382010D-01  6.3944307366761D-01
119  1.1800000000000D+00  2.8967193444197D-01  7.5667778451506D-01
120  1.1900000000000D+00  2.1808226674505D-01  8.7691401566954D-01
121  1.2000000000000D+00  1.4583912280171D-01  9.9871277922794D-01
122  1.2100000000000D+00  7.3585653295029D-02  1.1205852124181D+00
123  1.2200000000000D+00  1.9776654318944D-03  1.2410138680941D+00
124  1.2300000000000D+00 -6.8325552902129D-02  1.3584746913927D+00
125  1.2400000000000D+00 -1.3667056669435D-01  1.4714593563180D+00
126  1.2500000000000D+00 -2.0241914481099D-01  1.5784976260868D+00
127  1.2600000000000D+00 -2.6495748431572D-01  1.6781793919969D+00
128  1.2700000000000D+00 -3.2370516850614D-01  1.7691760566636D+00
129  1.2800000000000D+00 -3.7812371984890D-01  1.8502609294039D+00
130  1.2900000000000D+00 -4.2772461217592D-01  1.9203283093933D+00
131  1.3000000000000D+00 -4.7207662143322D-01  1.9784109681783D+00
132  1.3100000000000D+00 -5.1081239411982D-01  2.0236957427641D+00
133  1.3200000000000D+00 -5.4363412643471D-01  2.0555369839859D+00
134  1.3300000000000D+00 -5.7031827172574D-01  2.0734676638604D+00
135  1.3400000000000D+00 -5.9071918415222D-01  2.0772079223978D+00
136  1.3500000000000D+00 -6.0477164318564D-01  2.0666709225380D+00
137  1.3600000000000D+00 -6.1249222263660D-01  2.0419659275306D+00
138  1.3700000000000D+00 -6.1397945100358D-01  2.0033984746390D+00
139  1.3800000000000D+00 -6.0941278044393D-01  1.9514676880883D+00
140  1.3900000000000D+00 -5.9905035751230D-01  1.8868607162278D+00
141  1.4000000000000D+00 -5.8322561579134D-01  1.8104443426137D+00
142  1.4100000000000D+00 -5.6234276034260D-01  1.7232539399475D+00
143  1.4200000000000D+00 -5.3687116894929D-01  1.6264798281782D+00
144  1.4300000000000D+00 -5.0733882043835D-01  1.5214513023640D+00
145  1.4400000000000D+00 -4.7432482670462D-01  1.4096185152279D+00
146  1.4500000000000D+00 -4.3845117153086D-01  1.2925324628024D+00
147  1.4600000000000D+00 -4.0037379636667D-01  1.1718234100757D+00
148  1.4700000000000D+00 -3.6077313240963D-01  1.0491779960836D+00
149  1.4800000000000D+00 -3.2034424759698D-01  9.2631542331757D-01
150  1.4900000000000D+00 -2.7978673002639D-01  8.0496302382852D-01
151  1.5000000000000D+00 -2.3979447289880D-01  6.8683159850230D-01
152  1.5100000000000D+00 -2.0104549845936D-01  5.7359085973221D-01
153  1.5200000000000D+00 -1.6419198949331D-01  4.6684538238022D-01
154  1.5300000000000D+00 -1.2985064855708D-01  3.6811135137945D-01
155  1.5400000000000D+00 -9.8593568714340D-02  2.7879454740364D-01
156  1.5500000000000D+00 -7.0949812237808D-02  2.0019818154560D-01
157  1.5600000000000D+00 -4.7364260390912D-02  1.3341037673504D-01
158  1.5700000000000D+00 -2.8124044871220D-02  7.9100670796796D-02
159  1.5800000000000D+00 -1.3738838905933D-02  3.8589066760248D-02
160  1.5900000000000D+00 -4.7722074548621D-03  1.3373785712864D-02
161  1.6000000000000D+00 -5.8242467861715D-04  1.6056854638504D-03
162  1.6100000000000D+00  4.6447391954539D-04 -1.3211324361699D-03
163  1.6200000000000D+00  1.1753500647299D-04 -3.3237682750129D-04
164  1.6300000000000D+00 -1.4431662488107D-04  4.0786887793464D-04
165  1.6400000000000D+00 -3.5257020631628D-05  9.9558413396123D-05
166  1.6500000000000D+00  2.5938215636231D-05 -7.3532662710501D-05
167  1.6600000000000D+00  5.6232547936016D-06 -1.5933351915675D-05
168  1.6700000000000D+00  5.1098045046253D-08 -6.6548886402529D-08
169  1.6800000000000D+00  1.0419884895775D-08 -1.3570611862521D-08
170  1.6900000000000D+00  0.0000000000000D+00  0.0000000000000D+00
171  1.7000000000000D+00  0.0000000000000D+00  0.0000000000000D+00
172  1.7100000000000D+00  0.0000000000000D+00  0.0000000000000D+00
173  1.7200000000000D+00  0.0000000000000D+00  0.0000000000000D+00
174  1.7300000000000D+00  0.0000000000000D+00  0.0000000000000D+00
175  1.7400000000000D+00  0.0000000000000D+00  0.0000000000000D+00
176  1.7500000000000D+00  0.0000000000000D+00  0.0000000000000D+00
177  1.7600000000000D+00  0.0000000000000D+00  0.0000000000000D+00
178  1.7700000000000D+00  0.0000000000000D+00  0.0000000000000D+00
179  1.7800000000000D+00  0.0000000000000D+00  0.0000000000000D+00
180  1.7900000000000D+00  0.0000000000000D+00  0.0000000000000D+00
181  1.8000000000000D+00  0.0000000000000D+00  0.0000000000000D+00
182  1.8100000000000D+00  0.0000000000000D+00  0.0000000000000D+00
183  1.8200000000000D+00  0.0000000000000D+00  0.0000000000000D+00
184  1.8300000000000D+00  0.0000000000000D+00  0.0000000000000D+00
185  1.8400000000000D+00  0.0000000000000D+00  0.0000000000000D+00
186  1.8500000000000D+00  0.0000000000000D+00  0.0000000000000D+00
187  1.8600000000000D+00  0.0000000000000D+00  0.0000000000000D+00
188  1.8700000000000D+00  0.0000000000000D+00  0.0000000000000D+00
189  1.8800000000000D+00  0.0000000000000D+00  0.0000000000000D+00
190  1.8900000000000D+00  0.0000000000000D+00  0.0000000000000D+00
191  1.9000000000000D+00  0.0000000000000D+00  0.0000000000000D+00
192  1.9100000000000D+00  0.0000000000000D+00  0.0000000000000D+00
193  1.9200000000000D+00  0.0000000000000D+00  0.0000000000000D+00
194  1.9300000000000D+00  0.0000000000000D+00  0.0000000000000D+00
195  1.9400000000000D+00  0.0000000000000D+00  0.0000000000000D+00
196  1.9500000000000D+00  0.0000000000000D+00  0.0000000000000D+00
197  1.9600000000000D+00  0.0000000000000D+00  0.0000000000000D+00
198  1.9700000000000D+00  0.0000000000000D+00  0.0000000000000D+00
199  1.9800000000000D+00  0.0000000000000D+00  0.0000000000000D+00
200  1.9900000000000D+00  0.0000000000000D+00  0.0000000000000D+00
201  2.0000000000000D+00  0.0000000000000D+00  0.0000000000000D+00
202  2.0100000000000D+00  0.0000000000000D+00  0.0000000000000D+00
203  2.0200000000000D+00  0.0000000000000D+00  0.0000000000000D+00
204  2.0300000000000D+00  0.0000000000000D+00  0.0000000000000D+00
205  2.0400000000000D+00  0.0000000000000D+00  0.0000000000000D+00
206  2.0500000000000D+00  0.0000000000000D+00  0.0000000000000D+00
207  2.0600000000000D+00  0.0000000000000D+00  0.0000000000000D+00
208  2.0700000000000D+00  0.0000000000000D+00  0.0000000000000D+00
209  2.0800000000000D+00  0.0000000000000D+00  0.0000000000000D+00
210  2.0900000000000D+00  0.0000000000000D+00  0.0000000000000D+00
211  2.1000000000000D+00  0.0000000000000D+00  0.0000000000000D+00
212  2.1100000000000D+00  0.0000000000000D+00  0.0000000000000D+00
213  2.1200000000000D+00  0.0000000000000D+00  0.0000000000000D+00
214  2.1300000000000D+00  0.0000000000000D+00  0.0000000000000D+00
215  2.1400000000000D+00  0.0000000000000D+00  0.0000000000000D+00
216  2.1500000000000D+00  0.0000000000000D+00  0.0000000000000D+00
217  2.1600000000000D+00  0.0000000000000D+00  0.0000000000000D+00
218  2.1700000000000D+00  0.0000000000000D+00  0.0000000000000D+00
219  2.1800000000000D+00  0.0000000000000D+00  0.0000000000000D+00
220  2.1900000000000D+00  0.0000000000000D+00  0.0000000000000D+00
221  2.2000000000000D+00  0.0000000000000D+00  0.0000000000000D+00
222  2.2100000000000D+00  0.0000000000000D+00  0.0000000000000D+00
223  2.2200000000000D+00  0.0000000000000D+00  0.0000000000000D+00
224  2.2300000000000D+00  0.0000000000000D+00  0.0000000000000D+00
225  2.2400000000000D+00  0.0000000000000D+00  0.0000000000000D+00
226  2.2500000000000D+00  0.0000000000000D+00  0.0000000000000D+00
227  2.2600000000000D+00  0.0000000000000D+00  0.0000000000000D+00
228  2.2700000000000D+00  0.0000000000000D+00  0.0000000000000D+00
229  2.2800000000000D+00  0.0000000000000D+00  0.0000000000000D+00
230  2.2900000000000D+00  0.0000000000000D+00  0.0000000000000D+00
231  2.3000000000000D+00  0.0000000000000D+00  0.0000000000000D+00
232  2.3100000000000D+00  0.0000000000000D+00  0.0000000000000D+00
233  2.3200000000000D+00  0.0000000000000D+00  0.0000000000000D+00
234  2.3300000000000D+00  0.0000000000000D+00  0.0000000000000D+00
235  2.3400000000000D+00  0.0000000000000D+00  0.0000000000000D+00
236  2.3500000000000D+00  0.0000000000000D+00  0.0000000000000D+00
237  2.3600000000000D+00  0.0000000000000D+00  0.0000000000000D+00
238  2.3700000000000D+00  0.0000000000000D+00  0.0000000000000D+00
239  2.3800000000000D+00  0.0000000000000D+00  0.0000000000000D+00
240  2.3900000000000D+00  0.0000000000000D+00  0.0000000000000D+00
241  2.4000000000000D+00  0.0000000000000D+00  0.0000000000000D+00
242  2.4100000000000D+00  0.0000000000000D+00  0.0000000000000D+00
243  2.4200000000000D+00  0.0000000000000D+00  0.0000000000000D+00
244  2.4300000000000D+00  0.0000000000000D+00  0.0000000000000D+00
245  2.4400000000000D+00  0.0000000000000D+00  0.0000000000000D+00
246  2.4500000000000D+00  0.0000000000000D+00  0.0000000000000D+00
247  2.4600000000000D+00  0.0000000000000D+00  0.0000000000000D+00
248  2.4700000000000D+00  0.0000000000000D+00  0.0000000000000D+00
249  2.4800000000000D+00  0.0000000000000D+00  0.0000000000000D+00
250  2.4900000000000D+00  0.0000000000000D+00  0.0000000000000D+00
251  2.5000000000000D+00  0.0000000000000D+00  0.0000000000000D+00
252  2.5100000000000D+00  0.0000000000000D+00  0.0000000000000D+00
253  2.5200000000000D+00  0.0000000000000D+00  0.0000000000000D+00
254  2.5300000000000D+00  0.0000000000000D+00  0.0000000000000D+00
255  2.5400000000000D+00  0.0000000000000D+00  0.0000000000000D+00
256  2.5500000000000D+00  0.0000000000000D+00  0.0000000000000D+00
257  2.5600000000000D+00  0.0000000000000D+00  0.0000000000000D+00
258  2.5700000000000D+00  0.0000000000000D+00  0.0000000000000D+00
259  2.5800000000000D+00  0.0000000000000D+00  0.0000000000000D+00
260  2.5900000000000D+00  0.0000000000000D+00  0.0000000000000D+00
261  2.6000000000000D+00  0.0000000000000D+00  0.0000000000000D+00
262  2.6100000000000D+00  0.0000000000000D+00  0.0000000000000D+00
263  2.6200000000000D+00  0.0000000000000D+00  0.0000000000000D+00
264  2.6300000000000D+00  0.0000000000000D+00  0.0000000000000D+00
265  2.6400000000000D+00  0.0000000000000D+00  0.0000000000000D+00
266  2.6500000000000D+00  0.0000000000000D+00  0.0000000000000D+00
267  2.6600000000000D+00  0.0000000000000D+00  0.0000000000000D+00
268  2.6700000000000D+00  0.0000000000000D+00  0.0000000000000D+00
269  2.6800000000000D+00  0.0000000000000D+00  0.0000000000000D+00
270  2.6900000000000D+00  0.0000000000000D+00  0.0000000000000D+00
271  2.7000000000000D+00  0.0000000000000D+00  0.0000000000000D+00
272  2.7100000000000D+00  0.0000000000000D+00  0.0000000000000D+00
273  2.7200000000000D+00  0.0000000000000D+00  0.0000000000000D+00
274  2.7300000000000D+00  0.0000000000000D+00  0.0000000000000D+00
275  2.7400000000000D+00  0.0000000000000D+00  0.0000000000000D+00
276  2.7500000000000D+00  0.0000000000000D+00  0.0000000000000D+00
277  2.7600000000000D+00  0.0000000000000D+00  0.0000000000000D+00
278  2.7700000000000D+00  0.0000000000000D+00  0.0000000000000D+00
279  2.7800000000000D+00  0.0000000000000D+00  0.0000000000000D+00
280  2.7900000000000D+00  0.0000000000000D+00  0.0000000000000D+00
281  2.8000000000000D+00  0.0000000000000D+00  0.0000000000000D+00
282  2.8100000000000D+00  0.0000000000000D+00  0.0000000000000D+00
283  2.8200000000000D+00  0.0000000000000D+00  0.0000000000000D+00
284  2.8300000000000D+00  0.0000000000000D+00  0.0000000000000D+00
285  2.8400000000000D+00  0.0000000000000D+00  0.0000000000000D+00
286  2.8500000000000D+00  0.0000000000000D+00  0.0000000000000D+00
287  2.8600000000000D+00  0.0000000000000D+00  0.0000000000000D+00
288  2.8700000000000D+00  0.0000000000000D+00  0.0000000000000D+00
289  2.8800000000000D+00  0.0000000000000D+00  0.0000000000000D+00
290  2.8900000000000D+00  0.0000000000000D+00  0.0000000000000D+00
291  2.9000000000000D+00  0.0000000000000D+00  0.0000000000000D+00
292  2.9100000000000D+00  0.0000000000000D+00  0.0000000000000D+00
293  2.9200000000000D+00  0.0000000000000D+00  0.0000000000000D+00
294  2.9300000000000D+00  0.0000000000000D+00  0.0000000000000D+00
295  2.9400000000000D+00  0.0000000000000D+00  0.0000000000000D+00
296  2.9500000000000D+00  0.0000000000000D+00  0.0000000000000D+00
297  2.9600000000000D+00  0.0000000000000D+00  0.0000000000000D+00
298  2.9700000000000D+00  0.0000000000000D+00  0.0000000000000D+00
299  2.9800000000000D+00  0.0000000000000D+00  0.0000000000000D+00
300  2.9900000000000D+00  0.0000000000000D+00  0.0000000000000D+00
301  3.0000000000000D+00  0.0000000000000D+00  0.0000000000000D+00
302  3.0100000000000D+00  0.0000000000000D+00  0.0000000000000D+00
303  3.0200000000000D+00  0.0000000000000D+00  0.0000000000000D+00
304  3.0300000000000D+00  0.0000000000000D+00  0.0000000000000D+00
305  3.0400000000000D+00  0.0000000000000D+00  0.0000000000000D+00
306  3.0500000000000D+00  0.0000000000000D+00  0.0000000000000D+00
307  3.0600000000000D+00  0.0000000000000D+00  0.0000000000000D+00
308  3.0700000000000D+00  0.0000000000000D+00  0.0000000000000D+00
309  3.0800000000000D+00  0.0000000000000D+00  0.0000000000000D+00
310  3.0900000000000D+00  0.0000000000000D+00  0.0000000000000D+00
311  3.1000000000000D+00  0.0000000000000D+00  0.0000000000000D+00
312  3.1100000000000D+00  0.0000000000000D+00  0.0000000000000D+00
313  3.1200000000000D+00  0.0000000000000D+00  0.0000000000000D+00
314  3.1300000000000D+00  0.0000000000000D+00  0.0000000000000D+00
315  3.1400000000000D+00  0.0000000000000D+00  0.0000000000000D+00
316  3.1500000000000D+00  0.0000000000000D+00  0.0000000000000D+00
317  3.1600000000000D+00  0.0000000000000D+00  0.0000000000000D+00
318  3.1700000000000D+00  0.0000000000000D+00  0.0000000000000D+00
319  3.1800000000000D+00  0.0000000000000D+00  0.0000000000000D+00
320  3.1900000000000D+00  0.0000000000000D+00  0.0000000000000D+00
321  3.2000000000000D+00  0.0000000000000D+00  0.0000000000000D+00
322  3.2100000000000D+00  0.0000000000000D+00  0.0000000000000D+00
323  3.2200000000000D+00  0.0000000000000D+00  0.0000000000000D+00
324  3.2300000000000D+00  0.0000000000000D+00  0.0000000000000D+00
325  3.2400000000000D+00  0.0000000000000D+00  0.0000000000000D+00
326  3.2500000000000D+00  0.0000000000000D+00  0.0000000000000D+00
327  3.2600000000000D+00  0.0000000000000D+00  0.0000000000000D+00
328  3.2700000000000D+00  0.0000000000000D+00  0.0000000000000D+00
329  3.2800000000000D+00  0.0000000000000D+00  0.0000000000000D+00
330  3.2900000000000D+00  0.0000000000000D+00  0.0000000000000D+00
331  3.3000000000000D+00  0.0000000000000D+00  0.0000000000000D+00
332  3.3100000000000D+00  0.0000000000000D+00  0.0000000000000D+00
333  3.3200000000000D+00  0.0000000000000D+00  0.0000000000000D+00
334  3.3300000000000D+00  0.0000000000000D+00  0.0000000000000D+00
335  3.3400000000000D+00  0.0000000000000D+00  0.0000000000000D+00
336  3.3500000000000D+00  0.0000000000000D+00  0.0000000000000D+00
337  3.3600000000000D+00  0.0000000000000D+00  0.0000000000000D+00
338  3.3700000000000D+00  0.0000000000000D+00  0.0000000000000D+00
339  3.3800000000000D+00  0.0000000000000D+00  0.0000000000000D+00
340  3.3900000000000D+00  0.0000000000000D+00  0.0000000000000D+00
341  3.4000000000000D+00  0.0000000000000D+00  0.0000000000000D+00
342  3.4100000000000D+00  0.0000000000000D+00  0.0000000000000D+00
343  3.4200000000000D+00  0.0000000000000D+00  0.0000000000000D+00
344  3.4300000000000D+00  0.0000000000000D+00  0.0000000000000D+00
345  3.4400000000000D+00  0.0000000000000D+00  0.0000000000000D+00
346  3.4500000000000D+00  0.0000000000000D+00  0.0000000000000D+00
347  3.4600000000000D+00  0.0000000000000D+00  0.0000000000000D+00
348  3.4700000000000D+00  0.0000000000000D+00  0.0000000000000D+00
349  3.4800000000000D+00  0.0000000000000D+00  0.0000000000000D+00
350  3.4900000000000D+00  0.0000000000000D+00  0.0000000000000D+00
351  3.5000000000000D+00  0.0000000000000D+00  0.0000000000000D+00
352  3.5100000000000D+00  0.0000000000000D+00  0.0000000000000D+00
353  3.5200000000000D+00  0.0000000000000D+00  0.0000000000000D+00
354  3.5300000000000D+00  0.0000000000000D+00  0.0000000000000D+00
355  3.5400000000000D+00  0.0000000000000D+00  0.0000000000000D+00
356  3.5500000000000D+00  0.0000000000000D+00  0.0000000000000D+00
357  3.5600000000000D+00  0.0000000000000D+00  0.0000000000000D+00
358  3.5700000000000D+00  0.0000000000000D+00  0.0000000000000D+00
359  3.5800000000000D+00  0.0000000000000D+00  0.0000000000000D+00
360  3.5900000000000D+00  0.0000000000000D+00  0.0000000000000D+00
361  3.6000000000000D+00  0.0000000000000D+00  0.0000000000000D+00
362  3.6100000000000D+00  0.0000000000000D+00  0.0000000000000D+00
363  3.6200000000000D+00  0.0000000000000D+00  0.0000000000000D+00
364  3.6300000000000D+00  0.0000000000000D+00  0.0000000000000D+00
365  3.6400000000000D+00  0.0000000000000D+00  0.0000000000000D+00
366  3.6500000000000D+00  0.0000000000000D+00  0.0000000000000D+00
367  3.6600000000000D+00  0.0000000000000D+00  0.0000000000000D+00
368  3.6700000000000D+00  0.0000000000000D+00  0.0000000000000D+00
369  3.6800000000000D+00  0.0000000000000D+00  0.0000000000000D+00
370  3.6900000000000D+00  0.0000000000000D+00  0.0000000000000D+00
371  3.7000000000000D+00  0.0000000000000D+00  0.0000000000000D+00
372  3.7100000000000D+00  0.0000000000000D+00  0.0000000000000D+00
373  3.7200000000000D+00  0.0000000000000D+00  0.0000000000000D+00
374  3.7300000000000D+00  0.0000000000000D+00  0.0000000000000D+00
375  3.7400000000000D+00  0.0000000000000D+00  0.0000000000000D+00
376  3.7500000000000D+00  0.0000000000000D+00  0.0000000000000D+00
377  3.7600000000000D+00  0.0000000000000D+00  0.0000000000000D+00
378  3.7700000000000D+00  0.0000000000000D+00  0.0000000000000D+00
379  3.7800000000000D+00  0.0000000000000D+00  0.0000000000000D+00
380  3.7900000000000D+00  0.0000000000000D+00  0.0000000000000D+00
381  3.8000000000000D+00  0.0000000000000D+00  0.0000000000000D+00
382  3.8100000000000D+00  0.0000000000000D+00  0.0000000000000D+00
383  3.8200000000000D+00  0.0000000000000D+00  0.0000000000000D+00
384  3.8300000000000D+00  0.0000000000000D+00  0.0000000000000D+00
385  3.8400000000000D+00  0.0000000000000D+00  0.0000000000000D+00
386  3.8500000000000D+00  0.0000000000000D+00  0.0000000000000D+00
387  3.8600000000000D+00  0.0000000000000D+00  0.0000000000000D+00
388  3.8700000000000D+00  0.0000000000000D+00  0.0000000000000D+00
389  3.8800000000000D+00  0.0000000000000D+00  0.0000000000000D+00
390  3.8900000000000D+00  0.0000000000000D+00  0.0000000000000D+00
391  3.9000000000000D+00  0.0000000000000D+00  0.0000000000000D+00
392  3.9100000000000D+00  0.0000000000000D+00  0.0000000000000D+00
393  3.9200000000000D+00  0.0000000000000D+00  0.0000000000000D+00
394  3.9300000000000D+00  0.0000000000000D+00  0.0000000000000D+00
395  3.9400000000000D+00  0.0000000000000D+00  0.0000000000000D+00
396  3.9500000000000D+00  0.0000000000000D+00  0.0000000000000D+00
397  3.9600000000000D+00  0.0000000000000D+00  0.0000000000000D+00
398  3.9700000000000D+00  0.0000000000000D+00  0.0000000000000D+00
399  3.9800000000000D+00  0.0000000000000D+00  0.0000000000000D+00
400  3.9900000000000D+00  0.0000000000000D+00  0.0000000000000D+00
401  4.0000000000000D+00  0.0000000000000D+00  0.0000000000000D+00
402  4.0100000000000D+00  0.0000000000000D+00  0.0000000000000D+00
403  4.0200000000000D+00  0.0000000000000D+00  0.0000000000000D+00
404  4.0300000000000D+00  0.0000000000000D+00  0.0000000000000D+00
405  4.0400000000000D+00  0.0000000000000D+00  0.0000000000000D+00
406  4.0500000000000D+00  0.0000000000000D+00  0.0000000000000D+00
407  4.0600000000000D+00  0.0000000000000D+00  0.0000000000000D+00
408  4.0700000000000D+00  0.0000000000000D+00  0.0000000000000D+00
409  4.0800000000000D+00  0.0000000000000D+00  0.0000000000000D+00
410  4.0900000000000D+00  0.0000000000000D+00  0.0000000000000D+00
411  4.1000000000000D+00  0.0000000000000D+00  0.0000000000000D+00
412  4.1100000000000D+00  0.0000000000000D+00  0.0000000000000D+00
413  4.1200000000000D+00  0.0000000000000D+00  0.0000000000000D+00
414  4.1300000000000D+00  0.0000000000000D+00  0.0000000000000D+00
415  4.1400000000000D+00  0.0000000000000D+00  0.0000000000000D+00
416  4.1500000000000D+00  0.0000000000000D+00  0.0000000000000D+00
417  4.1600000000000D+00  0.0000000000000D+00  0.0000000000000D+00
418  4.1700000000000D+00  0.0000000000000D+00  0.0000000000000D+00
419  4.1800000000000D+00  0.0000000000000D+00  0.0000000000000D+00
420  4.1900000000000D+00  0.0000000000000D+00  0.0000000000000D+00
421  4.2000000000000D+00  0.0000000000000D+00  0.0000000000000D+00
422  4.2100000000000D+00  0.0000000000000D+00  0.0000000000000D+00
423  4.2200000000000D+00  0.0000000000000D+00  0.0000000000000D+00
424  4.2300000000000D+00  0.0000000000000D+00  0.0000000000000D+00
425  4.2400000000000D+00  0.0000000000000D+00  0.0000000000000D+00
426  4.2500000000000D+00  0.0000000000000D+00  0.0000000000000D+00
427  4.2600000000000D+00  0.0000000000000D+00  0.0000000000000D+00
428  4.2700000000000D+00  0.0000000000000D+00  0.0000000000000D+00
429  4.2800000000000D+00  0.0000000000000D+00  0.0000000000000D+00
430  4.2900000000000D+00  0.0000000000000D+00  0.0000000000000D+00
431  4.3000000000000D+00  0.0000000000000D+00  0.0000000000000D+00
432  4.3100000000000D+00  0.0000000000000D+00  0.0000000000000D+00
433  4.3200000000000D+00  0.0000000000000D+00  0.0000000000000D+00
434  4.3300000000000D+00  0.0000000000000D+00  0.0000000000000D+00
435  4.3400000000000D+00  0.0000000000000D+00  0.0000000000000D+00
436  4.3500000000000D+00  0.0000000000000D+00  0.0000000000000D+00
437  4.3600000000000D+00  0.0000000000000D+00  0.0000000000000D+00
438  4.3700000000000D+00  0.0000000000000D+00  0.0000000000000D+00
439  4.3800000000000D+00  0.0000000000000D+00  0.0000000000000D+00
440  4.3900000000000D+00  0.0000000000000D+00  0.0000000000000D+00
441  4.4000000000000D+00  0.0000000000000D+00  0.0000000000000D+00
442  4.4100000000000D+00  0.0000000000000D+00  0.0000000000000D+00
443  4.4200000000000D+00  0.0000000000000D+00  0.0000000000000D+00
444  4.4300000000000D+00  0.0000000000000D+00  0.0000000000000D+00