Sn    ONCVPSP  r_core=  2.27  2.62  1.86
50.0000     14.0000      150810    zatom,zion,pspd
8      11   2     4   600     0    pspcod,pspxc,lmax,lloc,mmax,r2well
5.99000000  6.50000000  0.00000000    rchrg fchrg qchrg
2     2     2     0     0    nproj
1                 extension_switch
0                         5.4623930342310D+00  6.8228058121180D-01
1  0.0000000000000D+00  5.2480242374031D-13 -5.1457836472771D-12
2  1.0000000000000D-02  1.5882577281842D-02  4.3624882874135D-04
3  2.0000000000000D-02  3.1771207046985D-02  8.3913302825395D-04
4  3.0000000000000D-02  4.7671911286954D-02  1.1754336204007D-03
5  4.0000000000000D-02  6.3590651079192D-02  1.4122224550410D-03
6  5.0000000000000D-02  7.9533296303543D-02  1.5170064398806D-03
7  6.0000000000000D-02  9.5505595566584D-02  1.4578703530098D-03
8  7.0000000000000D-02  1.1151314640241D-01  1.2036177718552D-03
9  8.0000000000000D-02  1.2756136581797D-01  7.2390965741798D-04
10  9.0000000000000D-02  1.4365546125030D-01 -1.0599860680415D-05
11  1.0000000000000D-01  1.5980040200221D-01 -1.0281309451649D-03
12  1.1000000000000D-01  1.7600089122205D-01 -2.3556491957185D-03
13  1.2000000000000D-01  1.9226133849192D-01 -4.0187409046621D-03
14  1.3000000000000D-01  2.0858583308783D-01 -6.0414928395442D-03
15  1.4000000000000D-01  2.2497811797354D-01 -8.4463769558449D-03
16  1.5000000000000D-01  2.4144156458869D-01 -1.1254140428978D-02
17  1.6000000000000D-01  2.5797914849009D-01 -1.4483701379920D-02
18  1.7000000000000D-01  2.7459342590351D-01 -1.8152050652510D-02
19  1.8000000000000D-01  2.9128651124131D-01 -2.2274159983387D-02
20  1.9000000000000D-01  3.0806005563955D-01 -2.6862896887139D-02
21  2.0000000000000D-01  3.2491522656622D-01 -3.1928946560198D-02
22  2.1000000000000D-01  3.4185268855005D-01 -3.7480741086670D-02
23  2.2000000000000D-01  3.5887258507731D-01 -4.3524396208176D-02
24  2.3000000000000D-01  3.7597452170184D-01 -5.0063655898067D-02
25  2.4000000000000D-01  3.9315755041096D-01 -5.7099844957278D-02
26  2.5000000000000D-01  4.1042015528795D-01 -6.4631829825877D-02
27  2.6000000000000D-01  4.2776023950897D-01 -7.2655987779860D-02
28  2.7000000000000D-01  4.4517511371001D-01 -8.1166184658280D-02
29  2.8000000000000D-01  4.6266148575693D-01 -9.0153761239922D-02
30  2.9000000000000D-01  4.8021545194883D-01 -9.9607528363183D-02
31  3.0000000000000D-01  4.9783248968267D-01 -1.0951377085615D-01
32  3.1000000000000D-01  5.1550745160407D-01 -1.1985626031726D-01
33  3.2000000000000D-01  5.3323456126675D-01 -1.3061627675984D-01
34  3.3000000000000D-01  5.5100741032029D-01 -1.4177263910639D-01
35  3.4000000000000D-01  5.6881895724282D-01 -1.5330174449108D-01
36  3.5000000000000D-01  5.8666152763306D-01 -1.6517761630131D-01
37  3.6000000000000D-01  6.0452681607277D-01 -1.7737196086177D-01
38  3.7000000000000D-01  6.2240588956810D-01 -1.8985423263658D-01
39  3.8000000000000D-01  6.4028919257558D-01 -2.0259170779803D-01
40  3.9000000000000D-01  6.5816655361538D-01 -2.1554956598316D-01
41  4.0000000000000D-01  6.7602719347212D-01 -2.2869098003267D-01
42  4.1000000000000D-01  6.9385973497991D-01 -2.4197721347988D-01
43  4.2000000000000D-01  7.1165221438641D-01 -2.5536772553227D-01
44  4.3000000000000D-01  7.2939209428700D-01 -2.6882028326151D-01
45  4.4000000000000D-01  7.4706627811787D-01 -2.8229108069449D-01
46  4.5000000000000D-01  7.6466112619377D-01 -2.9573486447265D-01
47  4.6000000000000D-01  7.8216247327341D-01 -3.0910506572422D-01
48  4.7000000000000D-01  7.9955564763269D-01 -3.2235393777172D-01
49  4.8000000000000D-01  8.1682549162315D-01 -3.3543269927529D-01
50  4.9000000000000D-01  8.3395638369010D-01 -3.4829168239214D-01
51  5.0000000000000D-01  8.5093226182232D-01 -3.6088048551352D-01
52  5.1000000000000D-01  8.6773664840235D-01 -3.7314813012197D-01
53  5.2000000000000D-01  8.8435267642354D-01 -3.8504322129546D-01
54  5.3000000000000D-01  9.0076311703738D-01 -3.9651411136884D-01
55  5.4000000000000D-01  9.1695040839200D-01 -4.0750906624959D-01
56  5.5000000000000D-01  9.3289668571968D-01 -4.1797643387195D-01
57  5.6000000000000D-01  9.4858381262890D-01 -4.2786481426230D-01
58  5.7000000000000D-01  9.6399341355347D-01 -4.3712323067957D-01
59  5.8000000000000D-01  9.7910690730878D-01 -4.4570130128578D-01
60  5.9000000000000D-01  9.9390554170243D-01 -4.5354941079664D-01
61  6.0000000000000D-01  1.0083704291440D+00 -4.6061888155656D-01
62  6.1000000000000D-01  1.0224825831962D+00 -4.6686214348036D-01
63  6.2000000000000D-01  1.0362229560064D+00 -4.7223290230264D-01
64  6.3000000000000D-01  1.0495724765557D+00 -4.7668630557662D-01
65  6.4000000000000D-01  1.0625120896613D+00 -4.8017910586693D-01
66  6.5000000000000D-01  1.0750227956609D+00 -4.8266982058520D-01
67  6.6000000000000D-01  1.0870856907125D+00 -4.8411888792380D-01
68  6.7000000000000D-01  1.0986820076332D+00 -4.8448881835073D-01
69  6.8000000000000D-01  1.1097931572051D+00 -4.8374434113944D-01
70  6.9000000000000D-01  1.1204007698668D+00 -4.8185254541822D-01
71  7.0000000000000D-01  1.1304867377150D+00 -4.7878301523819D-01
72  7.1000000000000D-01  1.1400332567302D+00 -4.7450795817402D-01
73  7.2000000000000D-01  1.1490228691452D+00 -4.6900232698842D-01
74  7.3000000000000D-01  1.1574385058696D+00 -4.6224393391080D-01
75  7.4000000000000D-01  1.1652635288805D+00 -4.5421355710065D-01
76  7.5000000000000D-01  1.1724817734930D+00 -4.4489503888839D-01
77  7.6000000000000D-01  1.1790775904148D+00 -4.3427537541057D-01
78  7.7000000000000D-01  1.1850358874956D+00 -4.2234479728063D-01
79  7.8000000000000D-01  1.1903421710732D+00 -4.0909684096408D-01
80  7.9000000000000D-01  1.1949825868229D+00 -3.9452841055418D-01
81  8.0000000000000D-01  1.1989439600112D+00 -3.7863982967376D-01
82  8.1000000000000D-01  1.2022138350564D+00 -3.6143488325929D-01
83  8.2000000000000D-01  1.2047805142968D+00 -3.4292084901443D-01
84  8.3000000000000D-01  1.2066330958663D+00 -3.2310851835344D-01
85  8.4000000000000D-01  1.2077615105771D+00 -3.0201220668730D-01
86  8.5000000000000D-01  1.2081565577098D+00 -2.7964975294035D-01
87  8.6000000000000D-01  1.2078099396084D+00 -2.5604250821960D-01
88  8.7000000000000D-01  1.2067142949817D+00 -2.3121531359388D-01
89  8.8000000000000D-01  1.2048632308083D+00 -2.0519646697671D-01
90  8.9000000000000D-01  1.2022513527490D+00 -1.7801767914163D-01
91  9.0000000000000D-01  1.1988742939643D+00 -1.4971401893568D-01
92  9.1000000000000D-01  1.1947287422425D+00 -1.2032384779282D-01
93  9.2000000000000D-01  1.1898124653399D+00 -8.9888743684937D-02
94  9.3000000000000D-01  1.1841243344413D+00 -5.8453414684436D-02
95  9.4000000000000D-01  1.1776643456456D+00 -2.6065602347563D-02
96  9.5000000000000D-01  1.1704336393889D+00  7.2240248367837D-03
97  9.6000000000000D-01  1.1624345177167D+00  4.1361987654008D-02
98  9.7000000000000D-01  1.1536704593205D+00  7.6292121713799D-02
99  9.8000000000000D-01  1.1441461322589D+00  1.1195571199746D-01
100  9.9000000000000D-01  1.1338674042846D+00  1.4829163602500D-01
101  1.0000000000000D+00  1.1228413507040D+00  1.8523651523372D-01
102  1.0100000000000D+00  1.1110762597012D+00  2.2272487413049D-01
103  1.0200000000000D+00  1.0985816350605D+00  2.6068930675157D-01
104  1.0300000000000D+00  1.0853681962283D+00  2.9906064993660D-01
105  1.0400000000000D+00  1.0714478756605D+00  3.3776816289987D-01
106  1.0500000000000D+00  1.0568338134057D+00  3.7673971255612D-01
107  1.0600000000000D+00  1.0415403488827D+00  4.1590196403795D-01
108  1.0700000000000D+00  1.0255830098148D+00  4.5518057582155D-01
109  1.0800000000000D+00  1.0089784982912D+00  4.9450039885879D-01
110  1.0900000000000D+00  9.9174467393293D-01  5.3378567909967D-01
111  1.1000000000000D+00  9.7390053414671D-01  5.7296026277249D-01
112  1.1100000000000D+00  9.5546619145857D-01  6.1194780377927D-01
113  1.1200000000000D+00  9.3646284792685D-01  6.5067197255350D-01
114  1.1300000000000D+00  9.1691276664129D-01  6.8905666572037D-01
115  1.1400000000000D+00  8.9683924032329D-01  7.2702621589413D-01
116  1.1500000000000D+00  8.7626655705160D-01  7.6450560094411D-01
117  1.1600000000000D+00  8.5521996314563D-01  8.0142065206116D-01
118  1.1700000000000D+00  8.3372562324706D-01  8.3769825995790D-01
119  1.1800000000000D+00  8.1181057764918D-01  8.7326657853878D-01
120  1.1900000000000D+00  7.8950269693327D-01  9.0805522538405D-01
121  1.2000000000000D+00  7.6683063398061D-01  9.4199547840179D-01
122  1.2100000000000D+00  7.4382377343445D-01  9.7502046800706D-01
123  1.2200000000000D+00  7.2051217870003D-01  1.0070653642066D+00
124  1.2300000000000D+00  6.9692653657781D-01  1.0380675579825D+00
125  1.2400000000000D+00  6.7309809963274D-01  1.0679668363801D+00
126  1.2500000000000D+00  6.4905862641258D-01  1.0967055507282D+00
127  1.2600000000000D+00  6.2484031963930D-01  1.1242287774456D+00
128  1.2700000000000D+00  6.0047576250263D-01  1.1504844709043D+00
129  1.2800000000000D+00  5.7599785319386D-01  1.1754236078419D+00
130  1.2900000000000D+00  5.5143973783101D-01  1.1990003228588D+00
131  1.3000000000000D+00  5.2683474192844D-01  1.2211720345475D+00
132  1.3100000000000D+00  5.0221630057349D-01  1.2418995618289D+00
133  1.3200000000000D+00  4.7761788748543D-01  1.2611472301299D+00
134  1.3300000000000D+00  4.5307294313043D-01  1.2788829670302D+00
135  1.3400000000000D+00  4.2861480207852D-01  1.2950783870593D+00
136  1.3500000000000D+00  4.0427661979753D-01  1.3097088653839D+00
137  1.3600000000000D+00  3.8009129907440D-01  1.3227536000963D+00
138  1.3700000000000D+00  3.5609141627185D-01  1.3341956629174D+00
139  1.3800000000000D+00  3.3230914762661D-01  1.3440220381482D+00
140  1.3900000000000D+00  3.0877619579731D-01  1.3522236496805D+00
141  1.4000000000000D+00  2.8552371688295D-01  1.3587953760319D+00
142  1.4100000000000D+00  2.6258224812537D-01  1.3637360532874D+00
143  1.4200000000000D+00  2.3998163651945D-01  1.3670484659357D+00
144  1.4300000000000D+00  2.1775096855282D-01  1.3687393256485D+00
145  1.4400000000000D+00  1.9591850129870D-01  1.3688192379676D+00
146  1.4500000000000D+00  1.7451159508635D-01  1.3673026570865D+00
147  1.4600000000000D+00  1.5355664797250D-01  1.3642078287618D+00
148  1.4700000000000D+00  1.3307903223853D-01  1.3595567215549D+00
149  1.4800000000000D+00  1.1310303312929D-01  1.3533749466062D+00
150  1.4900000000000D+00  9.3651790062409D-02  1.3456916660993D+00
151  1.5000000000000D+00  7.4747240506713D-02  1.3365394907875D+00
152  1.5100000000000D+00  5.6410066762621D-02  1.3259543667306D+00
153  1.5200000000000D+00  3.8659645828217D-02  1.3139754516975D+00
154  1.5300000000000D+00  2.1514002570048D-02  1.3006449814763D+00
155  1.5400000000000D+00  4.9897663832384D-03  1.2860081265303D+00
156  1.5500000000000D+00 -1.0897868473594D-02  1.2701128393785D+00
157  1.5600000000000D+00 -2.6135178673076D-02  1.2530096931071D+00
158  1.5700000000000D+00 -4.0709943605452D-02  1.2347517115097D+00
159  1.5800000000000D+00 -5.4611472943167D-02  1.2153941912411D+00
160  1.5900000000000D+00 -6.7830629904182D-02  1.1949945165727D+00
161  1.6000000000000D+00 -8.0359849981181D-02  1.1736119671327D+00
162  1.6100000000000D+00 -9.2193155114345D-02  1.1513075192645D+00
163  1.6200000000000D+00 -1.0332616307260D-01  1.1281436414214D+00
164  1.6300000000000D+00 -1.1375609205837D-01  1.1041840842266D+00
165  1.6400000000000D+00 -1.2348176032388D-01  1.0794936656720D+00
166  1.6500000000000D+00 -1.3250358083588D-01  1.0541380520592D+00
167  1.6600000000000D+00 -1.4082355081109D-01  1.0281835352037D+00
168  1.6700000000000D+00 -1.4844523618107D-01  1.0016968064786D+00
169  1.6800000000000D+00 -1.5537375084217D-01  9.7474472825009D-01
170  1.6900000000000D+00 -1.6161573077761D-01  9.4739410325209D-01
171  1.7000000000000D+00 -1.6717930293481D-01  9.1971144247270D-01
172  1.7100000000000D+00 -1.7207404898378D-01  8.9176273206186D-01
173  1.7200000000000D+00 -1.7631096385659D-01  8.6361319985213D-01
174  1.7300000000000D+00 -1.7990240924631D-01  8.3532708194532D-01
175  1.7400000000000D+00 -1.8286206196808D-01  8.0696738998573D-01
176  1.7500000000000D+00 -1.8520485742967D-01  7.7859567948720D-01
177  1.7600000000000D+00 -1.8694692809942D-01  7.5027181988528D-01
178  1.7700000000000D+00 -1.8810553730576D-01  7.2205376655655D-01
179  1.7800000000000D+00 -1.8869900822297D-01  6.9399733555999D-01
180  1.7900000000000D+00 -1.8874664847873D-01  6.6615598117152D-01
181  1.8000000000000D+00 -1.8826866962619D-01  6.3858057270387D-01
182  1.8100000000000D+00 -1.8728610578280D-01  6.1131919935309D-01
183  1.8200000000000D+00 -1.8582071678136D-01  5.8441689711764D-01
184  1.8300000000000D+00 -1.8389491721689D-01  5.5791558729133D-01
185  1.8400000000000D+00 -1.8153166542035D-01  5.3185378182630D-01
186  1.8500000000000D+00 -1.7875433046251D-01  5.0626611108152D-01
187  1.8600000000000D+00 -1.7558663935237D-01  4.8118350921052D-01
188  1.8700000000000D+00 -1.7205265409397D-01  4.5663368678994D-01
189  1.8800000000000D+00 -1.6817674292575D-01  4.3264148869709D-01
190  1.8900000000000D+00 -1.6398358640260D-01  4.0922937879123D-01
191  1.9000000000000D+00 -1.5949819917375D-01  3.8641809541177D-01
192  1.9100000000000D+00 -1.5474583074932D-01  3.6422635507378D-01
193  1.9200000000000D+00 -1.4975189594965D-01  3.4267073723522D-01
194  1.9300000000000D+00 -1.4454193120596D-01  3.2176586151242D-01
195  1.9400000000000D+00 -1.3914153044674D-01  3.0152438006973D-01
196  1.9500000000000D+00 -1.3357628516034D-01  2.8195701650849D-01
197  1.9600000000000D+00 -1.2787172526032D-01  2.6307261954844D-01
198  1.9700000000000D+00 -1.2205325881998D-01  2.4487821277995D-01
199  1.9800000000000D+00 -1.1614611226545D-01  2.2737905248881D-01
200  1.9900000000000D+00 -1.1017527078799D-01  2.1057868993280D-01
201  2.0000000000000D+00 -1.0416541922004D-01  1.9447903830257D-01
202  2.0100000000000D+00 -9.8140883394167D-02  1.7908044329109D-01
203  2.0200000000000D+00 -9.2125572193509D-02  1.6438175705905D-01
204  2.0300000000000D+00 -8.6142920386216D-02  1.5038041500851D-01
205  2.0400000000000D+00 -8.0215832347633D-02  1.3707251481837D-01
206  2.0500000000000D+00 -7.4366626859198D-02  1.2445289716946D-01
207  2.0600000000000D+00 -6.8616983002374D-02  1.1251522785949D-01
208  2.0700000000000D+00 -6.2987887372377D-02  1.0125208041493D-01
209  2.0800000000000D+00 -5.7499582644168D-02  9.0655019072203D-02
210  2.0900000000000D+00 -5.2171517630182D-02  8.0714681490992D-02
211  2.1000000000000D+00 -4.7022298986817D-02  7.1420860429682D-02
212  2.1100000000000D+00 -4.2069644558234D-02  6.2762584707161D-02
213  2.1200000000000D+00 -3.7330338627181D-02  5.4728197892919D-02
214  2.1300000000000D+00 -3.2820189027983D-02  4.7305435305188D-02
215  2.1400000000000D+00 -2.8553986283457D-02  4.0481498493088D-02
216  2.1500000000000D+00 -2.4545464930741D-02  3.4243126380098D-02
217  2.1600000000000D+00 -2.0807266930927D-02  2.8576663942853D-02
218  2.1700000000000D+00 -1.7350907519747D-02  2.3468126488253D-02
219  2.1800000000000D+00 -1.4186743370069D-02  1.8903260457507D-02
220  2.1900000000000D+00 -1.1323943179867D-02  1.4867600270208D-02
221  2.2000000000000D+00 -8.7720691054321D-03  1.1348274672193D-02
222  2.2100000000000D+00 -6.5353078539486D-03  8.3277864305863D-03
223  2.2200000000000D+00 -4.6165737357483D-03  5.7885698422391D-03
224  2.2300000000000D+00 -3.0137601896201D-03  3.7092616841684D-03
225  2.2400000000000D+00 -1.7534275330567D-03  2.1000838590066D-03
226  2.2500000000000D+00 -8.4807311630668D-04  9.5707476990325D-04
227  2.2600000000000D+00 -2.8117576266726D-04  2.4807005311777D-04
228  2.2700000000000D+00  1.0158342522750D-05 -1.0451753685041D-04
229  2.2800000000000D+00  9.8288562372603D-05 -1.8724538717102D-04
230  2.2900000000000D+00  6.9085274377146D-05 -1.1628170651481D-04
231  2.3000000000000D+00  3.3355984125232D-06 -5.3793431576854D-06
232  2.3100000000000D+00 -2.3489846718789D-05  3.7530243352650D-05
233  2.3200000000000D+00 -1.7835332655732D-05  2.8042358165652D-05
234  2.3300000000000D+00  1.1808507379604D-06 -1.9940901734042D-06
235  2.3400000000000D+00  4.7253583961179D-06 -7.8986397182642D-06
236  2.3500000000000D+00  2.8298539099547D-06 -4.6933066036817D-06
237  2.3600000000000D+00 -7.8299080616558D-08  2.1373535137144D-07
238  2.3700000000000D+00 -1.6330983538047D-07  4.4579176118800D-07
239  2.3800000000000D+00 -7.1924654736098D-08  1.9633488964669D-07
240  2.3900000000000D+00  0.0000000000000D+00  0.0000000000000D+00
241  2.4000000000000D+00  0.0000000000000D+00  0.0000000000000D+00
242  2.4100000000000D+00  0.0000000000000D+00  0.0000000000000D+00
243  2.4200000000000D+00  0.0000000000000D+00  0.0000000000000D+00
244  2.4300000000000D+00  0.0000000000000D+00  0.0000000000000D+00
245  2.4400000000000D+00  0.0000000000000D+00  0.0000000000000D+00
246  2.4500000000000D+00  0.0000000000000D+00  0.0000000000000D+00
247  2.4600000000000D+00  0.0000000000000D+00  0.0000000000000D+00
248  2.4700000000000D+00  0.0000000000000D+00  0.0000000000000D+00
249  2.4800000000000D+00  0.0000000000000D+00  0.0000000000000D+00
250  2.4900000000000D+00  0.0000000000000D+00  0.0000000000000D+00
251  2.5000000000000D+00  0.0000000000000D+00  0.0000000000000D+00
252  2.5100000000000D+00  0.0000000000000D+00  0.0000000000000D+00
253  2.5200000000000D+00  0.0000000000000D+00  0.0000000000000D+00
254  2.5300000000000D+00  0.0000000000000D+00  0.0000000000000D+00
255  2.5400000000000D+00  0.0000000000000D+00  0.0000000000000D+00
256  2.5500000000000D+00  0.0000000000000D+00  0.0000000000000D+00
257  2.5600000000000D+00  0.0000000000000D+00  0.0000000000000D+00
258  2.5700000000000D+00  0.0000000000000D+00  0.0000000000000D+00
259  2.5800000000000D+00  0.0000000000000D+00  0.0000000000000D+00
260  2.5900000000000D+00  0.0000000000000D+00  0.0000000000000D+00
261  2.6000000000000D+00  0.0000000000000D+00  0.0000000000000D+00
262  2.6100000000000D+00  0.0000000000000D+00  0.0000000000000D+00
263  2.6200000000000D+00  0.0000000000000D+00  0.0000000000000D+00
264  2.6300000000000D+00  0.0000000000000D+00  0.0000000000000D+00
265  2.6400000000000D+00  0.0000000000000D+00  0.0000000000000D+00
266  2.6500000000000D+00  0.0000000000000D+00  0.0000000000000D+00
267  2.6600000000000D+00  0.0000000000000D+00  0.0000000000000D+00
268  2.6700000000000D+00  0.0000000000000D+00  0.0000000000000D+00
269  2.6800000000000D+00  0.0000000000000D+00  0.0000000000000D+00
270  2.6900000000000D+00  0.0000000000000D+00  0.0000000000000D+00
271  2.7000000000000D+00  0.0000000000000D+00  0.0000000000000D+00
272  2.7100000000000D+00  0.0000000000000D+00  0.0000000000000D+00
273  2.7200000000000D+00  0.0000000000000D+00  0.0000000000000D+00
274  2.7300000000000D+00  0.0000000000000D+00  0.0000000000000D+00
275  2.7400000000000D+00  0.0000000000000D+00  0.0000000000000D+00
276  2.7500000000000D+00  0.0000000000000D+00  0.0000000000000D+00
277  2.7600000000000D+00  0.0000000000000D+00  0.0000000000000D+00
278  2.7700000000000D+00  0.0000000000000D+00  0.0000000000000D+00
279  2.7800000000000D+00  0.0000000000000D+00  0.0000000000000D+00
280  2.7900000000000D+00  0.0000000000000D+00  0.0000000000000D+00
281  2.8000000000000D+00  0.0000000000000D+00  0.0000000000000D+00
282  2.8100000000000D+00  0.0000000000000D+00  0.0000000000000D+00
283  2.8200000000000D+00  0.0000000000000D+00  0.0000000000000D+00
284  2.8300000000000D+00  0.0000000000000D+00  0.0000000000000D+00
285  2.8400000000000D+00  0.0000000000000D+00  0.0000000000000D+00
286  2.8500000000000D+00  0.0000000000000D+00  0.0000000000000D+00
287  2.8600000000000D+00  0.0000000000000D+00  0.0000000000000D+00
288  2.8700000000000D+00  0.0000000000000D+00  0.0000000000000D+00
289  2.8800000000000D+00  0.0000000000000D+00  0.0000000000000D+00
290  2.8900000000000D+00  0.0000000000000D+00  0.0000000000000D+00
291  2.9000000000000D+00  0.0000000000000D+00  0.0000000000000D+00
292  2.9100000000000D+00  0.0000000000000D+00  0.0000000000000D+00
293  2.9200000000000D+00  0.0000000000000D+00  0.0000000000000D+00
294  2.9300000000000D+00  0.0000000000000D+00  0.0000000000000D+00
295  2.9400000000000D+00  0.0000000000000D+00  0.0000000000000D+00
296  2.9500000000000D+00  0.0000000000000D+00  0.0000000000000D+00
297  2.9600000000000D+00  0.0000000000000D+00  0.0000000000000D+00
298  2.9700000000000D+00  0.0000000000000D+00  0.0000000000000D+00
299  2.9800000000000D+00  0.0000000000000D+00  0.0000000000000D+00
300  2.9900000000000D+00  0.0000000000000D+00  0.0000000000000D+00
301  3.0000000000000D+00  0.0000000000000D+00  0.0000000000000D+00
302  3.0100000000000D+00  0.0000000000000D+00  0.0000000000000D+00
303  3.0200000000000D+00  0.0000000000000D+00  0.0000000000000D+00
304  3.0300000000000D+00  0.0000000000000D+00  0.0000000000000D+00
305  3.0400000000000D+00  0.0000000000000D+00  0.0000000000000D+00
306  3.0500000000000D+00  0.0000000000000D+00  0.0000000000000D+00
307  3.0600000000000D+00  0.0000000000000D+00  0.0000000000000D+00
308  3.0700000000000D+00  0.0000000000000D+00  0.0000000000000D+00
309  3.0800000000000D+00  0.0000000000000D+00  0.0000000000000D+00
310  3.0900000000000D+00  0.0000000000000D+00  0.0000000000000D+00
311  3.1000000000000D+00  0.0000000000000D+00  0.0000000000000D+00
312  3.1100000000000D+00  0.0000000000000D+00  0.0000000000000D+00
313  3.1200000000000D+00  0.0000000000000D+00  0.0000000000000D+00
314  3.1300000000000D+00  0.0000000000000D+00  0.0000000000000D+00
315  3.1400000000000D+00  0.0000000000000D+00  0.0000000000000D+00
316  3.1500000000000D+00  0.0000000000000D+00  0.0000000000000D+00
317  3.1600000000000D+00  0.0000000000000D+00  0.0000000000000D+00
318  3.1700000000000D+00  0.0000000000000D+00  0.0000000000000D+00
319  3.1800000000000D+00  0.0000000000000D+00  0.0000000000000D+00
320  3.1900000000000D+00  0.0000000000000D+00  0.0000000000000D+00
321  3.2000000000000D+00  0.0000000000000D+00  0.0000000000000D+00
322  3.2100000000000D+00  0.0000000000000D+00  0.0000000000000D+00
323  3.2200000000000D+00  0.0000000000000D+00  0.0000000000000D+00
324  3.2300000000000D+00  0.0000000000000D+00  0.0000000000000D+00
325  3.2400000000000D+00  0.0000000000000D+00  0.0000000000000D+00
326  3.2500000000000D+00  0.0000000000000D+00  0.0000000000000D+00
327  3.2600000000000D+00  0.0000000000000D+00  0.0000000000000D+00
328  3.2700000000000D+00  0.0000000000000D+00  0.0000000000000D+00
329  3.2800000000000D+00  0.0000000000000D+00  0.0000000000000D+00
330  3.2900000000000D+00  0.0000000000000D+00  0.0000000000000D+00
331  3.3000000000000D+00  0.0000000000000D+00  0.0000000000000D+00
332  3.3100000000000D+00  0.0000000000000D+00  0.0000000000000D+00
333  3.3200000000000D+00  0.0000000000000D+00  0.0000000000000D+00
334  3.3300000000000D+00  0.0000000000000D+00  0.0000000000000D+00
335  3.3400000000000D+00  0.0000000000000D+00  0.0000000000000D+00
336  3.3500000000000D+00  0.0000000000000D+00  0.0000000000000D+00
337  3.3600000000000D+00  0.0000000000000D+00  0.0000000000000D+00
338  3.3700000000000D+00  0.0000000000000D+00  0.0000000000000D+00
339  3.3800000000000D+00  0.0000000000000D+00  0.0000000000000D+00
340  3.3900000000000D+00  0.0000000000000D+00  0.0000000000000D+00
341  3.4000000000000D+00  0.0000000000000D+00  0.0000000000000D+00
342  3.4100000000000D+00  0.0000000000000D+00  0.0000000000000D+00
343  3.4200000000000D+00  0.0000000000000D+00  0.0000000000000D+00
344  3.4300000000000D+00  0.0000000000000D+00  0.0000000000000D+00
345  3.4400000000000D+00  0.0000000000000D+00  0.0000000000000D+00
346  3.4500000000000D+00  0.0000000000000D+00  0.0000000000000D+00
347  3.4600000000000D+00  0.0000000000000D+00  0.0000000000000D+00
348  3.4700000000000D+00  0.0000000000000D+00  0.0000000000000D+00
349  3.4800000000000D+00  0.0000000000000D+00  0.0000000000000D+00
350  3.4900000000000D+00  0.0000000000000D+00  0.0000000000000D+00
351  3.5000000000000D+00  0.0000000000000D+00  0.0000000000000D+00
352  3.5100000000000D+00  0.0000000000000D+00  0.0000000000000D+00
353  3.5200000000000D+00  0.0000000000000D+00  0.0000000000000D+00
354  3.5300000000000D+00  0.0000000000000D+00  0.0000000000000D+00
355  3.5400000000000D+00  0.0000000000000D+00  0.0000000000000D+00
356  3.5500000000000D+00  0.0000000000000D+00  0.0000000000000D+00
357  3.5600000000000D+00  0.0000000000000D+00  0.0000000000000D+00
358  3.5700000000000D+00  0.0000000000000D+00  0.0000000000000D+00
359  3.5800000000000D+00  0.0000000000000D+00  0.0000000000000D+00
360  3.5900000000000D+00  0.0000000000000D+00  0.0000000000000D+00
361  3.6000000000000D+00  0.0000000000000D+00  0.0000000000000D+00
362  3.6100000000000D+00  0.0000000000000D+00  0.0000000000000D+00
363  3.6200000000000D+00  0.0000000000000D+00  0.0000000000000D+00
364  3.6300000000000D+00  0.0000000000000D+00  0.0000000000000D+00
365  3.6400000000000D+00  0.0000000000000D+00  0.0000000000000D+00
366  3.6500000000000D+00  0.0000000000000D+00  0.0000000000000D+00
367  3.6600000000000D+00  0.0000000000000D+00  0.0000000000000D+00
368  3.6700000000000D+00  0.0000000000000D+00  0.0000000000000D+00
369  3.6800000000000D+00  0.0000000000000D+00  0.0000000000000D+00
370  3.6900000000000D+00  0.0000000000000D+00  0.0000000000000D+00
371  3.7000000000000D+00  0.0000000000000D+00  0.0000000000000D+00
372  3.7100000000000D+00  0.0000000000000D+00  0.0000000000000D+00
373  3.7200000000000D+00  0.0000000000000D+00  0.0000000000000D+00
374  3.7300000000000D+00  0.0000000000000D+00  0.0000000000000D+00
375  3.7400000000000D+00  0.0000000000000D+00  0.0000000000000D+00
376  3.7500000000000D+00  0.0000000000000D+00  0.0000000000000D+00
377  3.7600000000000D+00  0.0000000000000D+00  0.0000000000000D+00
378  3.7700000000000D+00  0.0000000000000D+00  0.0000000000000D+00
379  3.7800000000000D+00  0.0000000000000D+00  0.0000000000000D+00
380  3.7900000000000D+00  0.0000000000000D+00  0.0000000000000D+00
381  3.8000000000000D+00  0.0000000000000D+00  0.0000000000000D+00
382  3.8100000000000D+00  0.0000000000000D+00  0.0000000000000D+00
383  3.8200000000000D+00  0.0000000000000D+00  0.0000000000000D+00
384  3.8300000000000D+00  0.0000000000000D+00  0.0000000000000D+00
385  3.8400000000000D+00  0.0000000000000D+00  0.0000000000000D+00
386  3.8500000000000D+00  0.0000000000000D+00  0.0000000000000D+00
387  3.8600000000000D+00  0.0000000000000D+00  0.0000000000000D+00
388  3.8700000000000D+00  0.0000000000000D+00  0.0000000000000D+00
389  3.8800000000000D+00  0.0000000000000D+00  0.0000000000000D+00
390  3.8900000000000D+00  0.0000000000000D+00  0.0000000000000D+00
391  3.9000000000000D+00  0.0000000000000D+00  0.0000000000000D+00
392  3.9100000000000D+00  0.0000000000000D+00  0.0000000000000D+00
393  3.9200000000000D+00  0.0000000000000D+00  0.0000000000000D+00
394  3.9300000000000D+00  0.0000000000000D+00  0.0000000000000D+00
395  3.9400000000000D+00  0.0000000000000D+00  0.0000000000000D+00
396  3.9500000000000D+00  0.0000000000000D+00  0.0000000000000D+00
397  3.9600000000000D+00  0.0000000000000D+00  0.0000000000000D+00
398  3.9700000000000D+00  0.0000000000000D+00  0.0000000000000D+00
399  3.9800000000000D+00  0.0000000000000D+00  0.0000000000000D+00
400  3.9900000000000D+00  0.0000000000000D+00  0.0000000000000D+00
401  4.0000000000000D+00  0.0000000000000D+00  0.0000000000000D+00
402  4.0100000000000D+00  0.0000000000000D+00  0.0000000000000D+00
403  4.0200000000000D+00  0.0000000000000D+00  0.0000000000000D+00
404  4.0300000000000D+00  0.0000000000000D+00  0.0000000000000D+00
405  4.0400000000000D+00  0.0000000000000D+00  0.0000000000000D+00
406  4.0500000000000D+00  0.0000000000000D+00  0.0000000000000D+00
407  4.0600000000000D+00  0.0000000000000D+00  0.0000000000000D+00
408  4.0700000000000D+00  0.0000000000000D+00  0.0000000000000D+00
409  4.0800000000000D+00  0.0000000000000D+00  0.0000000000000D+00
410  4.0900000000000D+00  0.0000000000000D+00  0.0000000000000D+00
411  4.1000000000000D+00  0.0000000000000D+00  0.0000000000000D+00
412  4.1100000000000D+00  0.0000000000000D+00  0.0000000000000D+00
413  4.1200000000000D+00  0.0000000000000D+00  0.0000000000000D+00
414  4.1300000000000D+00  0.0000000000000D+00  0.0000000000000D+00
415  4.1400000000000D+00  0.0000000000000D+00  0.0000000000000D+00
416  4.1500000000000D+00  0.0000000000000D+00  0.0000000000000D+00
417  4.1600000000000D+00  0.0000000000000D+00  0.0000000000000D+00
418  4.1700000000000D+00  0.0000000000000D+00  0.0000000000000D+00
419  4.1800000000000D+00  0.0000000000000D+00  0.0000000000000D+00
420  4.1900000000000D+00  0.0000000000000D+00  0.0000000000000D+00
421  4.2000000000000D+00  0.0000000000000D+00  0.0000000000000D+00
422  4.2100000000000D+00  0.0000000000000D+00  0.0000000000000D+00
423  4.2200000000000D+00  0.0000000000000D+00  0.0000000000000D+00
424  4.2300000000000D+00  0.0000000000000D+00  0.0000000000000D+00
425  4.2400000000000D+00  0.0000000000000D+00  0.0000000000000D+00
426  4.2500000000000D+00  0.0000000000000D+00  0.0000000000000D+00
427  4.2600000000000D+00  0.0000000000000D+00  0.0000000000000D+00
428  4.2700000000000D+00  0.0000000000000D+00  0.0000000000000D+00
429  4.2800000000000D+00  0.0000000000000D+00  0.0000000000000D+00
430  4.2900000000000D+00  0.0000000000000D+00  0.0000000000000D+00
431  4.3000000000000D+00  0.0000000000000D+00  0.0000000000000D+00
432  4.3100000000000D+00  0.0000000000000D+00  0.0000000000000D+00
433  4.3200000000000D+00  0.0000000000000D+00  0.0000000000000D+00
434  4.3300000000000D+00  0.0000000000000D+00  0.0000000000000D+00
435  4.3400000000000D+00  0.0000000000000D+00  0.0000000000000D+00
436  4.3500000000000D+00  0.0000000000000D+00  0.0000000000000D+00
437  4.3600000000000D+00  0.0000000000000D+00  0.0000000000000D+00
438  4.3700000000000D+00  0.0000000000000D+00  0.0000000000000D+00
439  4.3800000000000D+00  0.0000000000000D+00  0.0000000000000D+00
440  4.3900000000000D+00  0.0000000000000D+00  0.0000000000000D+00
441  4.4000000000000D+00  0.0000000000000D+00  0.0000000000000D+00
442  4.4100000000000D+00  0.0000000000000D+00  0.0000000000000D+00
443  4.4200000000000D+00  0.0000000000000D+00  0.0000000000000D+00
444  4.4300000000000D+00  0.0000000000000D+00  0.0000000000000D+00