Sn    ONCVPSP  r_core=  2.27  2.62  3.14
50.0000      4.0000      160330    zatom,zion,pspd
8      11   2     4   600     0    pspcod,pspxc,lmax,lloc,mmax,r2well
5.99000000  7.00000000  0.00000000    rchrg fchrg qchrg
2     4     3     0    nproj
3                 extension_switch
4     4     0    nprojso
0                         4.8693014357350D-01  4.4623550308358D+00
1  0.0000000000000D+00 -9.3195381967170D-12 -3.6026737149086D-13
2  1.0000000000000D-02  2.2857800630261D-03  1.9924150182497D-02
3  2.0000000000000D-02  4.5308866122075D-03  3.9845168283897D-02
4  3.0000000000000D-02  6.6948299004780D-03  5.9759915613837D-02
5  4.0000000000000D-02  8.7374870402216D-03  7.9665240263282D-02
6  5.0000000000000D-02  1.0619283750072D-02  9.9557970494921D-02
7  6.0000000000000D-02  1.2301374088780D-02  1.1943490813351D-01
8  7.0000000000000D-02  1.3745817516094D-02  1.3929282195653D-01
9  8.0000000000000D-02  1.4915752629903D-02  1.5912844108598D-01
10  9.0000000000000D-02  1.5775566940547D-02  1.7893844838244D-01
11  1.0000000000000D-01  1.6291062056906D-02  1.9871947384311D-01
12  1.1000000000000D-01  1.6429613674990D-02  2.1846808800635D-01
13  1.2000000000000D-01  1.6160325777839D-02  2.3818079536541D-01
14  1.3000000000000D-01  1.5454178475751D-02  2.5785402779549D-01
15  1.4000000000000D-01  1.4284168938021D-02  2.7748413799843D-01
16  1.5000000000000D-01  1.2625444891601D-02  2.9706739297075D-01
17  1.6000000000000D-01  1.0455430187932D-02  3.1659996750133D-01
18  1.7000000000000D-01  7.7539419670487D-03  3.3607793770623D-01
19  1.8000000000000D-01  4.5032989773050D-03  3.5549727460923D-01
20  1.9000000000000D-01  6.8842064015710D-04  3.7485383777754D-01
21  2.0000000000000D-01 -3.7030835182565D-03  3.9414336902348D-01
22  2.1000000000000D-01 -8.6808344132701D-03  4.1336148618404D-01
23  2.2000000000000D-01 -1.4251614235059D-02  4.3250367699135D-01
24  2.3000000000000D-01 -2.0419307842658D-02  4.5156529304821D-01
25  2.4000000000000D-01 -2.7184854955085D-02  4.7054154392434D-01
26  2.5000000000000D-01 -3.4546213337919D-02  4.8942749138982D-01
27  2.6000000000000D-01 -4.2498333145229D-02  5.0821804380365D-01
28  2.7000000000000D-01 -5.1033142537328D-02  5.2690795067634D-01
29  2.8000000000000D-01 -6.0139544655294D-02  5.4549179742691D-01
30  2.9000000000000D-01 -6.9803425992880D-02  5.6396400035520D-01
31  3.0000000000000D-01 -8.0007676166662D-02  5.8231880185230D-01
32  3.1000000000000D-01 -9.0732219044480D-02  6.0055026587199D-01
33  3.2000000000000D-01 -1.0195405515245D-01  6.1865227368792D-01
34  3.3000000000000D-01 -1.1364731524071D-01  6.3661851996145D-01
35  3.4000000000000D-01 -1.2578332484850D-01  6.5444250914644D-01
36  3.5000000000000D-01 -1.3833067967005D-01  6.7211755225758D-01
37  3.6000000000000D-01 -1.5125533148455D-01  6.8963676402987D-01
38  3.7000000000000D-01 -1.6452068437541D-01  7.0699306049713D-01
39  3.8000000000000D-01 -1.7808770092777D-01  7.2417915701805D-01
40  3.9000000000000D-01 -1.9191501805706D-01  7.4118756677857D-01
41  4.0000000000000D-01 -2.0595907208727D-01  7.5801059979955D-01
42  4.1000000000000D-01 -2.2017423266386D-01  7.7464036247889D-01
43  4.2000000000000D-01 -2.3451294505511D-01  7.9106875769712D-01
44  4.3000000000000D-01 -2.4892588036436D-01  8.0728748551544D-01
45  4.4000000000000D-01 -2.6336209314786D-01  8.2328804449471D-01
46  4.5000000000000D-01 -2.7776918590550D-01  8.3906173366354D-01
47  4.6000000000000D-01 -2.9209347988635D-01  8.5459965516315D-01
48  4.7000000000000D-01 -3.0628019162810D-01  8.6989271759557D-01
49  4.8000000000000D-01 -3.2027361462797D-01  8.8493164010116D-01
50  4.9000000000000D-01 -3.3401730552371D-01  8.9970695719026D-01
51  5.0000000000000D-01 -3.4745427414583D-01  9.1420902435249D-01
52  5.1000000000000D-01 -3.6052717678799D-01  9.2842802446587D-01
53  5.2000000000000D-01 -3.7317851202957D-01  9.4235397502642D-01
54  5.3000000000000D-01 -3.8535081843405D-01  9.5597673621713D-01
55  5.4000000000000D-01 -3.9698687343948D-01  9.6928601983333D-01
56  5.5000000000000D-01 -4.0802989275120D-01  9.8227139907957D-01
57  5.6000000000000D-01 -4.1842372954449D-01  9.9492231925068D-01
58  5.7000000000000D-01 -4.2811307278346D-01  1.0072281093077D+00
59  5.8000000000000D-01 -4.3704364396503D-01  1.0191779943564D+00
60  5.9000000000000D-01 -4.4516239160052D-01  1.0307611090346D+00
61  6.0000000000000D-01 -4.5241768275414D-01  1.0419665118092D+00
62  6.1000000000000D-01 -4.5875949096647D-01  1.0527832001852D+00
63  6.2000000000000D-01 -4.6413957990320D-01  1.0632001268206D+00
64  6.3000000000000D-01 -4.6851168208179D-01  1.0732062165436D+00
65  6.4000000000000D-01 -4.7183167204614D-01  1.0827903842599D+00
66  6.5000000000000D-01 -4.7405773337653D-01  1.0919415537388D+00
67  6.6000000000000D-01 -4.7515051894301D-01  1.1006486772614D+00
68  6.7000000000000D-01 -4.7507330383327D-01  1.1089007561104D+00
69  6.8000000000000D-01 -4.7379213040967D-01  1.1166868618784D+00
70  6.9000000000000D-01 -4.7127594497761D-01  1.1239961585676D+00
71  7.0000000000000D-01 -4.6749672557526D-01  1.1308179254508D+00
72  7.1000000000000D-01 -4.6242960042512D-01  1.1371415806570D+00
73  7.2000000000000D-01 -4.5605295661916D-01  1.1429567054468D+00
74  7.3000000000000D-01 -4.4834853864356D-01  1.1482530691322D+00
75  7.4000000000000D-01 -4.3930153638286D-01  1.1530206545980D+00
76  7.5000000000000D-01 -4.2890066228013D-01  1.1572496843737D+00
77  7.6000000000000D-01 -4.1713821736683D-01  1.1609306472039D+00
78  7.7000000000000D-01 -4.0401014591419D-01  1.1640543250600D+00
79  7.8000000000000D-01 -3.8951607849744D-01  1.1666118205344D+00
80  7.9000000000000D-01 -3.7365936330413D-01  1.1685945845520D+00
81  8.0000000000000D-01 -3.5644708555839D-01  1.1699944443340D+00
82  8.1000000000000D-01 -3.3789007497425D-01  1.1708036315428D+00
83  8.2000000000000D-01 -3.1800290119252D-01  1.1710148105359D+00
84  8.3000000000000D-01 -2.9680385719728D-01  1.1706211066517D+00
85  8.4000000000000D-01 -2.7431493075022D-01  1.1696161344507D+00
86  8.5000000000000D-01 -2.5056176392205D-01  1.1679940258280D+00
87  8.6000000000000D-01 -2.2557360084203D-01  1.1657494579163D+00
88  8.7000000000000D-01 -1.9938322382739D-01  1.1628776806915D+00
89  8.8000000000000D-01 -1.7202687809484D-01  1.1593745441956D+00
90  8.9000000000000D-01 -1.4354418529615D-01  1.1552365252843D+00
91  9.0000000000000D-01 -1.1397804615840D-01  1.1504607538127D+00
92  9.1000000000000D-01 -8.3374532547471D-02  1.1450450381634D+00
93  9.2000000000000D-01 -5.1782769310270D-02  1.1389878900265D+00
94  9.3000000000000D-01 -1.9254806286123D-02  1.1322885483378D+00
95  9.4000000000000D-01  1.4154519087761D-02  1.1249470022806D+00
96  9.5000000000000D-01  4.8387728119367D-02  1.1169640132591D+00
97  9.6000000000000D-01  8.3384855665209D-02  1.1083411357480D+00
98  9.7000000000000D-01  1.1908361287713D-01  1.0990807369282D+00
99  9.8000000000000D-01  1.5541955734720D-01  1.0891860150144D+00
100  9.9000000000000D-01  1.9232627008128D-01  1.0786610161865D+00
101  1.0000000000000D+00  2.2973553870796D-01  1.0675106500350D+00
102  1.0100000000000D+00  2.6757754630860D-01  1.0557407034339D+00
103  1.0200000000000D+00  3.0578106523519D-01  1.0433578527573D+00
104  1.0300000000000D+00  3.4427365526658D-01  1.0303696743581D+00
105  1.0400000000000D+00  3.8298186543890D-01  1.0167846532302D+00
106  1.0500000000000D+00  4.2183143887452D-01  1.0026121897791D+00
107  1.0600000000000D+00  4.6074751992442D-01  9.8786260463062D-01
108  1.0700000000000D+00  4.9965486293163D-01  9.7254714140885D-01
109  1.0800000000000D+00  5.3847804192014D-01  9.5667796742241D-01
110  1.0900000000000D+00  5.7714166051044D-01  9.4026817219983D-01
111  1.1000000000000D+00  6.1557056136459D-01  9.2333176382166D-01
112  1.1100000000000D+00  6.5369003446637D-01  9.0588366300154D-01
113  1.1200000000000D+00  6.9142602354854D-01  8.8793969487465D-01
114  1.1300000000000D+00  7.2870532998722D-01  8.6951657845734D-01
115  1.1400000000000D+00  7.6545581349301D-01  8.5063191374802D-01
116  1.1500000000000D+00  8.0160658894355D-01  8.3130416644639D-01
117  1.1600000000000D+00  8.3708821871758D-01  8.1155265027439D-01
118  1.1700000000000D+00  8.7183289990713D-01  7.9139750688907D-01
119  1.1800000000000D+00  9.0577464580391D-01  7.7085968338432D-01
120  1.1900000000000D+00  9.3884946108116D-01  7.4996090738666D-01
121  1.2000000000000D+00  9.7099551011851D-01  7.2872365975802D-01
122  1.2100000000000D+00  1.0021532779323D+00  7.0717114492278D-01
123  1.2200000000000D+00  1.0322657232160D+00  6.8532725884825D-01
124  1.2300000000000D+00  1.0612784230211D+00  6.6321655471395D-01
125  1.2400000000000D+00  1.0891397086356D+00  6.4086420631101D-01
126  1.2500000000000D+00  1.1158007922507D+00  6.1829596922265D-01
127  1.2600000000000D+00  1.1412158840548D+00  5.9553813984577D-01
128  1.2700000000000D+00  1.1653422994125D+00  5.7261751231870D-01
129  1.2800000000000D+00  1.1881405558239D+00  5.4956133342794D-01
130  1.2900000000000D+00  1.2095744594196D+00  5.2639725557887D-01
131  1.3000000000000D+00  1.2296111807610D+00  5.0315328791747D-01
132  1.3100000000000D+00  1.2482213197546D+00  4.7985774569852D-01
133  1.3200000000000D+00  1.2653789595639D+00  4.5653919800882D-01
134  1.3300000000000D+00  1.2810617093949D+00  4.3322641395188D-01
135  1.3400000000000D+00  1.2952507360958D+00  4.0994830741310D-01
136  1.3500000000000D+00  1.3079307845817D+00  3.8673388053403D-01
137  1.3600000000000D+00  1.3190901870579D+00  3.6361216601950D-01
138  1.3700000000000D+00  1.3287208611376D+00  3.4061216842008D-01
139  1.3800000000000D+00  1.3368182969635D+00  3.1776280453239D-01
140  1.3900000000000D+00  1.3433815334236D+00  2.9509284305953D-01
141  1.4000000000000D+00  1.3484131237113D+00  2.7263084369284D-01
142  1.4100000000000D+00  1.3519190903915D+00  2.5040509576551D-01
143  1.4200000000000D+00  1.3539088702448D+00  2.2844355664257D-01
144  1.4300000000000D+00  1.3543952492133D+00  2.0677379001442D-01
145  1.4400000000000D+00  1.3533942876980D+00  1.8542290425672D-01
146  1.4500000000000D+00  1.3509252366548D+00  1.6441749103494D-01
147  1.4600000000000D+00  1.3470104448050D+00  1.4378356432087D-01
148  1.4700000000000D+00  1.3416752574165D+00  1.2354650000040D-01
149  1.4800000000000D+00  1.3349479071071D+00  1.0373097624626D-01
150  1.4900000000000D+00  1.3268593970968D+00  8.4360914834925D-02
151  1.5000000000000D+00  1.3174433774823D+00  6.5459423581467D-02
152  1.5100000000000D+00  1.3067360149589D+00  4.7048740073460D-02
153  1.5200000000000D+00  1.2947758566161D+00  2.9150176874027D-02
154  1.5300000000000D+00  1.2816036882923D+00  1.1784068372230D-02
155  1.5400000000000D+00  1.2672623881035D+00 -5.0302805494884D-03
156  1.5500000000000D+00  1.2517967757048D+00 -2.1274643864810D-02
157  1.5600000000000D+00  1.2352534578846D+00 -3.6931921595575D-02
158  1.5700000000000D+00  1.2176806710931D+00 -5.1986184702487D-02
159  1.5800000000000D+00  1.1991281215080D+00 -6.6422717490117D-02
160  1.5900000000000D+00  1.1796468232404D+00 -8.0228057413625D-02
161  1.6000000000000D+00  1.1592889353084D+00 -9.3390032090487D-02
162  1.6100000000000D+00  1.1381075979456D+00 -1.0589779343805D-01
163  1.6200000000000D+00  1.1161567689041D+00 -1.1774184873636D-01
164  1.6300000000000D+00  1.0934910602681D+00 -1.2891408856131D-01
165  1.6400000000000D+00  1.0701655764556D+00 -1.3940781139849D-01
166  1.6500000000000D+00  1.0462357538729D+00 -1.4921774489856D-01
167  1.6600000000000D+00  1.0217572028970D+00 -1.5834006360319D-01
168  1.6700000000000D+00  9.9678555259970D-01 -1.6677240311848D-01
169  1.6800000000000D+00  9.7137629887085D-01 -1.7451387058398D-01
170  1.6900000000000D+00  9.4558465629595D-01 -1.8156505143486D-01
171  1.7000000000000D+00  9.1946541442555D-01 -1.8792801232137D-01
172  1.7100000000000D+00  8.9307279871068D-01 -1.9360630021147D-01
173  1.7200000000000D+00  8.6646033673668D-01 -1.9860493754997D-01
174  1.7300000000000D+00  8.3968072991320D-01 -2.0293041353925D-01
175  1.7400000000000D+00  8.1278573127480D-01 -2.0659067141356D-01
176  1.7500000000000D+00  7.8582602938709D-01 -2.0959509182523D-01
177  1.7600000000000D+00  7.5885113907667D-01 -2.1195447219947D-01
178  1.7700000000000D+00  7.3190929875875D-01 -2.1368100224570D-01
179  1.7800000000000D+00  7.0504737519758D-01 -2.1478823545069D-01
180  1.7900000000000D+00  6.7831077519250D-01 -2.1529105682645D-01
181  1.8000000000000D+00  6.5174336517080D-01 -2.1520564670012D-01
182  1.8100000000000D+00  6.2538739792828D-01 -2.1454944088993D-01
183  1.8200000000000D+00  5.9928344751991D-01 -2.1334108705781D-01
184  1.8300000000000D+00  5.7347035148819D-01 -2.1160039758986D-01
185  1.8400000000000D+00  5.4798516121862D-01 -2.0934829886915D-01
186  1.8500000000000D+00  5.2286309977893D-01 -2.0660677723368D-01
187  1.8600000000000D+00  4.9813752763234D-01 -2.0339882160868D-01
188  1.8700000000000D+00  4.7383991590548D-01 -1.9974836300679D-01
189  1.8800000000000D+00  4.4999982707169D-01 -1.9568021104073D-01
190  1.8900000000000D+00  4.2664490316997D-01 -1.9121998751684D-01
191  1.9000000000000D+00  4.0380086081329D-01 -1.8639405742183D-01
192  1.9100000000000D+00  3.8149149356184D-01 -1.8122945725040D-01
193  1.9200000000000D+00  3.5973868043032D-01 -1.7575382111097D-01
194  1.9300000000000D+00  3.3856240125849D-01 -1.6999530452453D-01
195  1.9400000000000D+00  3.1798075774073D-01 -1.6398250633805D-01
196  1.9500000000000D+00  2.9801000039219D-01 -1.5774438879299D-01
197  1.9600000000000D+00  2.7866456080542D-01 -1.5131019602140D-01
198  1.9700000000000D+00  2.5995708874626D-01 -1.4470937119539D-01
199  1.9800000000000D+00  2.4189849404629D-01 -1.3797147245763D-01
200  1.9900000000000D+00  2.2449799226298D-01 -1.3112608798672D-01
201  2.0000000000000D+00  2.0776315435790D-01 -1.2420275027156D-01
202  2.0100000000000D+00  1.9169995932480D-01 -1.1723084994177D-01
203  2.0200000000000D+00  1.7631284966828D-01 -1.1023954931549D-01
204  2.0300000000000D+00  1.6160478913286D-01 -1.0325769591047D-01
205  2.0400000000000D+00  1.4757732213379D-01 -9.6313736155108D-02
206  2.0500000000000D+00  1.3423063450556D-01 -8.9435629536970D-02
207  2.0600000000000D+00  1.2156361502368D-01 -8.2650763374137D-02
208  2.0700000000000D+00  1.0957391712772D-01 -7.5985868522287D-02
209  2.0800000000000D+00  9.8258020491750D-02 -6.9466936156843D-02
210  2.0900000000000D+00  8.7611291882523D-02 -6.3119135889383D-02
211  2.1000000000000D+00  7.7628044646490D-02 -5.6966735514098D-02
212  2.1100000000000D+00  6.8301596881260D-02 -5.1033022390878D-02
213  2.1200000000000D+00  5.9624327017379D-02 -4.5340226985589D-02
214  2.1300000000000D+00  5.1587727143797D-02 -3.9909448487218D-02
215  2.1400000000000D+00  4.4182453307737D-02 -3.4760582825164D-02
216  2.1500000000000D+00  3.7398371978702D-02 -2.9912253418680D-02
217  2.1600000000000D+00  3.1224603445491D-02 -2.5381744449184D-02
218  2.1700000000000D+00  2.5649560205894D-02 -2.1184937365274D-02
219  2.1800000000000D+00  2.0660981261699D-02 -1.7336250371282D-02
220  2.1900000000000D+00  1.6245961806119D-02 -1.3848581127819D-02
221  2.2000000000000D+00  1.2392821081125D-02 -1.0735224877280D-02
222  2.2100000000000D+00  9.0845339962555D-03 -8.0027808397684D-03
223  2.2200000000000D+00  6.3034916380115D-03 -5.6561623014713D-03
224  2.2300000000000D+00  4.0275958190215D-03 -3.6939711333331D-03
225  2.2400000000000D+00  2.2671979174718D-03 -2.1498293666233D-03
226  2.2500000000000D+00  1.0169616293676D-03 -1.0399178047037D-03
227  2.2600000000000D+00  2.4173867558616D-04 -3.4460993835268D-04
228  2.2700000000000D+00 -1.4107735111969D-04  1.2830052310757D-05
229  2.2800000000000D+00 -2.2396051627616D-04  1.2091178529917D-04
230  2.2900000000000D+00 -1.3625157313337D-04  8.4939933385971D-05
231  2.3000000000000D+00 -6.2556765084427D-06  4.1007454937152D-06
232  2.3100000000000D+00  4.3525910968761D-05 -2.8867101067947D-05
233  2.3200000000000D+00  3.2425195897932D-05 -2.1917397054650D-05
234  2.3300000000000D+00 -2.3328480309998D-06  1.4507690105573D-06
235  2.3400000000000D+00 -9.2228388482841D-06  5.8051117000910D-06
236  2.3500000000000D+00 -5.4720202705450D-06  3.4763137604015D-06
237  2.3600000000000D+00  2.6778038310070D-07 -9.6565621655403D-08
238  2.3700000000000D+00  5.5851447983729D-07 -2.0140869665105D-07
239  2.3800000000000D+00  2.4598004788763D-07 -8.8704093869946D-08
240  2.3900000000000D+00  0.0000000000000D+00  0.0000000000000D+00
241  2.4000000000000D+00  0.0000000000000D+00  0.0000000000000D+00
242  2.4100000000000D+00  0.0000000000000D+00  0.0000000000000D+00
243  2.4200000000000D+00  0.0000000000000D+00  0.0000000000000D+00
244  2.4300000000000D+00  0.0000000000000D+00  0.0000000000000D+00
245  2.4400000000000D+00  0.0000000000000D+00  0.0000000000000D+00
246  2.4500000000000D+00  0.0000000000000D+00  0.0000000000000D+00
247  2.4600000000000D+00  0.0000000000000D+00  0.0000000000000D+00
248  2.4700000000000D+00  0.0000000000000D+00  0.0000000000000D+00
249  2.4800000000000D+00  0.0000000000000D+00  0.0000000000000D+00
250  2.4900000000000D+00  0.0000000000000D+00  0.0000000000000D+00
251  2.5000000000000D+00  0.0000000000000D+00  0.0000000000000D+00
252  2.5100000000000D+00  0.0000000000000D+00  0.0000000000000D+00
253  2.5200000000000D+00  0.0000000000000D+00  0.0000000000000D+00
254  2.5300000000000D+00  0.0000000000000D+00  0.0000000000000D+00
255  2.5400000000000D+00  0.0000000000000D+00  0.0000000000000D+00
256  2.5500000000000D+00  0.0000000000000D+00  0.0000000000000D+00
257  2.5600000000000D+00  0.0000000000000D+00  0.0000000000000D+00
258  2.5700000000000D+00  0.0000000000000D+00  0.0000000000000D+00
259  2.5800000000000D+00  0.0000000000000D+00  0.0000000000000D+00
260  2.5900000000000D+00  0.0000000000000D+00  0.0000000000000D+00
261  2.6000000000000D+00  0.0000000000000D+00  0.0000000000000D+00
262  2.6100000000000D+00  0.0000000000000D+00  0.0000000000000D+00
263  2.6200000000000D+00  0.0000000000000D+00  0.0000000000000D+00
264  2.6300000000000D+00  0.0000000000000D+00  0.0000000000000D+00
265  2.6400000000000D+00  0.0000000000000D+00  0.0000000000000D+00
266  2.6500000000000D+00  0.0000000000000D+00  0.0000000000000D+00
267  2.6600000000000D+00  0.0000000000000D+00  0.0000000000000D+00
268  2.6700000000000D+00  0.0000000000000D+00  0.0000000000000D+00
269  2.6800000000000D+00  0.0000000000000D+00  0.0000000000000D+00
270  2.6900000000000D+00  0.0000000000000D+00  0.0000000000000D+00
271  2.7000000000000D+00  0.0000000000000D+00  0.0000000000000D+00
272  2.7100000000000D+00  0.0000000000000D+00  0.0000000000000D+00
273  2.7200000000000D+00  0.0000000000000D+00  0.0000000000000D+00
274  2.7300000000000D+00  0.0000000000000D+00  0.0000000000000D+00
275  2.7400000000000D+00  0.0000000000000D+00  0.0000000000000D+00
276  2.7500000000000D+00  0.0000000000000D+00  0.0000000000000D+00
277  2.7600000000000D+00  0.0000000000000D+00  0.0000000000000D+00
278  2.7700000000000D+00  0.0000000000000D+00  0.0000000000000D+00
279  2.7800000000000D+00  0.0000000000000D+00  0.0000000000000D+00
280  2.7900000000000D+00  0.0000000000000D+00  0.0000000000000D+00
281  2.8000000000000D+00  0.0000000000000D+00  0.0000000000000D+00
282  2.8100000000000D+00  0.0000000000000D+00  0.0000000000000D+00
283  2.8200000000000D+00  0.0000000000000D+00  0.0000000000000D+00
284  2.8300000000000D+00  0.0000000000000D+00  0.0000000000000D+00
285  2.8400000000000D+00  0.0000000000000D+00  0.0000000000000D+00
286  2.8500000000000D+00  0.0000000000000D+00  0.0000000000000D+00
287  2.8600000000000D+00  0.0000000000000D+00  0.0000000000000D+00
288  2.8700000000000D+00  0.0000000000000D+00  0.0000000000000D+00
289  2.8800000000000D+00  0.0000000000000D+00  0.0000000000000D+00
290  2.8900000000000D+00  0.0000000000000D+00  0.0000000000000D+00
291  2.9000000000000D+00  0.0000000000000D+00  0.0000000000000D+00
292  2.9100000000000D+00  0.0000000000000D+00  0.0000000000000D+00
293  2.9200000000000D+00  0.0000000000000D+00  0.0000000000000D+00
294  2.9300000000000D+00  0.0000000000000D+00  0.0000000000000D+00
295  2.9400000000000D+00  0.0000000000000D+00  0.0000000000000D+00
296  2.9500000000000D+00  0.0000000000000D+00  0.0000000000000D+00
297  2.9600000000000D+00  0.0000000000000D+00  0.0000000000000D+00
298  2.9700000000000D+00  0.0000000000000D+00  0.0000000000000D+00
299  2.9800000000000D+00  0.0000000000000D+00  0.0000000000000D+00
300  2.9900000000000D+00  0.0000000000000D+00  0.0000000000000D+00
301  3.0000000000000D+00  0.0000000000000D+00  0.0000000000000D+00
302  3.0100000000000D+00  0.0000000000000D+00  0.0000000000000D+00
303  3.0200000000000D+00  0.0000000000000D+00  0.0000000000000D+00
304  3.0300000000000D+00  0.0000000000000D+00  0.0000000000000D+00
305  3.0400000000000D+00  0.0000000000000D+00  0.0000000000000D+00
306  3.0500000000000D+00  0.0000000000000D+00  0.0000000000000D+00
307  3.0600000000000D+00  0.0000000000000D+00  0.0000000000000D+00
308  3.0700000000000D+00  0.0000000000000D+00  0.0000000000000D+00
309  3.0800000000000D+00  0.0000000000000D+00  0.0000000000000D+00
310  3.0900000000000D+00  0.0000000000000D+00  0.0000000000000D+00
311  3.1000000000000D+00  0.0000000000000D+00  0.0000000000000D+00
312  3.1100000000000D+00  0.0000000000000D+00  0.0000000000000D+00
313  3.1200000000000D+00  0.0000000000000D+00  0.0000000000000D+00
314  3.1300000000000D+00  0.0000000000000D+00  0.0000000000000D+00
315  3.1400000000000D+00  0.0000000000000D+00  0.0000000000000D+00
316  3.1500000000000D+00  0.0000000000000D+00  0.0000000000000D+00
317  3.1600000000000D+00  0.0000000000000D+00  0.0000000000000D+00
318  3.1700000000000D+00  0.0000000000000D+00  0.0000000000000D+00
319  3.1800000000000D+00  0.0000000000000D+00  0.0000000000000D+00
320  3.1900000000000D+00  0.0000000000000D+00  0.0000000000000D+00
321  3.2000000000000D+00  0.0000000000000D+00  0.0000000000000D+00
322  3.2100000000000D+00  0.0000000000000D+00  0.0000000000000D+00
323  3.2200000000000D+00  0.0000000000000D+00  0.0000000000000D+00
324  3.2300000000000D+00  0.0000000000000D+00  0.0000000000000D+00
325  3.2400000000000D+00  0.0000000000000D+00  0.0000000000000D+00
326  3.2500000000000D+00  0.0000000000000D+00  0.0000000000000D+00
327  3.2600000000000D+00  0.0000000000000D+00  0.0000000000000D+00
328  3.2700000000000D+00  0.0000000000000D+00  0.0000000000000D+00
329  3.2800000000000D+00  0.0000000000000D+00  0.0000000000000D+00
330  3.2900000000000D+00  0.0000000000000D+00  0.0000000000000D+00
331  3.3000000000000D+00  0.0000000000000D+00  0.0000000000000D+00
332  3.3100000000000D+00  0.0000000000000D+00  0.0000000000000D+00
333  3.3200000000000D+00  0.0000000000000D+00  0.0000000000000D+00
334  3.3300000000000D+00  0.0000000000000D+00  0.0000000000000D+00
335  3.3400000000000D+00  0.0000000000000D+00  0.0000000000000D+00
336  3.3500000000000D+00  0.0000000000000D+00  0.0000000000000D+00
337  3.3600000000000D+00  0.0000000000000D+00  0.0000000000000D+00
338  3.3700000000000D+00  0.0000000000000D+00  0.0000000000000D+00
339  3.3800000000000D+00  0.0000000000000D+00  0.0000000000000D+00
340  3.3900000000000D+00  0.0000000000000D+00  0.0000000000000D+00
341  3.4000000000000D+00  0.0000000000000D+00  0.0000000000000D+00
342  3.4100000000000D+00  0.0000000000000D+00  0.0000000000000D+00
343  3.4200000000000D+00  0.0000000000000D+00  0.0000000000000D+00
344  3.4300000000000D+00  0.0000000000000D+00  0.0000000000000D+00
345  3.4400000000000D+00  0.0000000000000D+00  0.0000000000000D+00
346  3.4500000000000D+00  0.0000000000000D+00  0.0000000000000D+00
347  3.4600000000000D+00  0.0000000000000D+00  0.0000000000000D+00
348  3.4700000000000D+00  0.0000000000000D+00  0.0000000000000D+00
349  3.4800000000000D+00  0.0000000000000D+00  0.0000000000000D+00
350  3.4900000000000D+00  0.0000000000000D+00  0.0000000000000D+00
351  3.5000000000000D+00  0.0000000000000D+00  0.0000000000000D+00
352  3.5100000000000D+00  0.0000000000000D+00  0.0000000000000D+00
353  3.5200000000000D+00  0.0000000000000D+00  0.0000000000000D+00
354  3.5300000000000D+00  0.0000000000000D+00  0.0000000000000D+00
355  3.5400000000000D+00  0.0000000000000D+00  0.0000000000000D+00
356  3.5500000000000D+00  0.0000000000000D+00  0.0000000000000D+00
357  3.5600000000000D+00  0.0000000000000D+00  0.0000000000000D+00
358  3.5700000000000D+00  0.0000000000000D+00  0.0000000000000D+00
359  3.5800000000000D+00  0.0000000000000D+00  0.0000000000000D+00
360  3.5900000000000D+00  0.0000000000000D+00  0.0000000000000D+00
361  3.6000000000000D+00  0.0000000000000D+00  0.0000000000000D+00
362  3.6100000000000D+00  0.0000000000000D+00  0.0000000000000D+00
363  3.6200000000000D+00  0.0000000000000D+00  0.0000000000000D+00
364  3.6300000000000D+00  0.0000000000000D+00  0.0000000000000D+00
365  3.6400000000000D+00  0.0000000000000D+00  0.0000000000000D+00
366  3.6500000000000D+00  0.0000000000000D+00  0.0000000000000D+00
367  3.6600000000000D+00  0.0000000000000D+00  0.0000000000000D+00
368  3.6700000000000D+00  0.0000000000000D+00  0.0000000000000D+00
369  3.6800000000000D+00  0.0000000000000D+00  0.0000000000000D+00
370  3.6900000000000D+00  0.0000000000000D+00  0.0000000000000D+00
371  3.7000000000000D+00  0.0000000000000D+00  0.0000000000000D+00
372  3.7100000000000D+00  0.0000000000000D+00  0.0000000000000D+00
373  3.7200000000000D+00  0.0000000000000D+00  0.0000000000000D+00
374  3.7300000000000D+00  0.0000000000000D+00  0.0000000000000D+00
375  3.7400000000000D+00  0.0000000000000D+00  0.0000000000000D+00
376  3.7500000000000D+00  0.0000000000000D+00  0.0000000000000D+00
377  3.7600000000000D+00  0.0000000000000D+00  0.0000000000000D+00
378  3.7700000000000D+00  0.0000000000000D+00  0.0000000000000D+00
379  3.7800000000000D+00  0.0000000000000D+00  0.0000000000000D+00
380  3.7900000000000D+00  0.0000000000000D+00  0.0000000000000D+00
381  3.8000000000000D+00  0.0000000000000D+00  0.0000000000000D+00
382  3.8100000000000D+00  0.0000000000000D+00  0.0000000000000D+00
383  3.8200000000000D+00  0.0000000000000D+00  0.0000000000000D+00
384  3.8300000000000D+00  0.0000000000000D+00  0.0000000000000D+00
385  3.8400000000000D+00  0.0000000000000D+00  0.0000000000000D+00
386  3.8500000000000D+00  0.0000000000000D+00  0.0000000000000D+00
387  3.8600000000000D+00  0.0000000000000D+00  0.0000000000000D+00
388  3.8700000000000D+00  0.0000000000000D+00  0.0000000000000D+00
389  3.8800000000000D+00  0.0000000000000D+00  0.0000000000000D+00
390  3.8900000000000D+00  0.0000000000000D+00  0.0000000000000D+00
391  3.9000000000000D+00  0.0000000000000D+00  0.0000000000000D+00
392  3.9100000000000D+00  0.0000000000000D+00  0.0000000000000D+00
393  3.9200000000000D+00  0.0000000000000D+00  0.0000000000000D+00
394  3.9300000000000D+00  0.0000000000000D+00  0.0000000000000D+00
395  3.9400000000000D+00  0.0000000000000D+00  0.0000000000000D+00
396  3.9500000000000D+00  0.0000000000000D+00  0.0000000000000D+00
397  3.9600000000000D+00  0.0000000000000D+00  0.0000000000000D+00
398  3.9700000000000D+00  0.0000000000000D+00  0.0000000000000D+00
399  3.9800000000000D+00  0.0000000000000D+00  0.0000000000000D+00
400  3.9900000000000D+00  0.0000000000000D+00  0.0000000000000D+00
401  4.0000000000000D+00  0.0000000000000D+00  0.0000000000000D+00
402  4.0100000000000D+00  0.0000000000000D+00  0.0000000000000D+00
403  4.0200000000000D+00  0.0000000000000D+00  0.0000000000000D+00
404  4.0300000000000D+00  0.0000000000000D+00  0.0000000000000D+00
405  4.0400000000000D+00  0.0000000000000D+00  0.0000000000000D+00
406  4.0500000000000D+00  0.0000000000000D+00  0.0000000000000D+00
407  4.0600000000000D+00  0.0000000000000D+00  0.0000000000000D+00
408  4.0700000000000D+00  0.0000000000000D+00  0.0000000000000D+00
409  4.0800000000000D+00  0.0000000000000D+00  0.0000000000000D+00
410  4.0900000000000D+00  0.0000000000000D+00  0.0000000000000D+00
411  4.1000000000000D+00  0.0000000000000D+00  0.0000000000000D+00
412  4.1100000000000D+00  0.0000000000000D+00  0.0000000000000D+00
413  4.1200000000000D+00  0.0000000000000D+00  0.0000000000000D+00
414  4.1300000000000D+00  0.0000000000000D+00  0.0000000000000D+00
415  4.1400000000000D+00  0.0000000000000D+00  0.0000000000000D+00
416  4.1500000000000D+00  0.0000000000000D+00  0.0000000000000D+00
417  4.1600000000000D+00  0.0000000000000D+00  0.0000000000000D+00
418  4.1700000000000D+00  0.0000000000000D+00  0.0000000000000D+00
419  4.1800000000000D+00  0.0000000000000D+00  0.0000000000000D+00
420  4.1900000000000D+00  0.0000000000000D+00  0.0000000000000D+00
421  4.2000000000000D+00  0.0000000000000D+00  0.0000000000000D+00
422  4.2100000000000D+00  0.0000000000000D+00  0.0000000000000D+00
423  4.2200000000000D+00  0.0000000000000D+00  0.0000000000000D+00
424  4.2300000000000D+00  0.0000000000000D+00  0.0000000000000D+00
425  4.2400000000000D+00  0.0000000000000D+00  0.0000000000000D+00
426  4.2500000000000D+00  0.0000000000000D+00  0.0000000000000D+00
427  4.2600000000000D+00  0.0000000000000D+00  0.0000000000000D+00
428  4.2700000000000D+00  0.0000000000000D+00  0.0000000000000D+00
429  4.2800000000000D+00  0.0000000000000D+00  0.0000000000000D+00
430  4.2900000000000D+00  0.0000000000000D+00  0.0000000000000D+00
431  4.3000000000000D+00  0.0000000000000D+00  0.0000000000000D+00
432  4.3100000000000D+00  0.0000000000000D+00  0.0000000000000D+00
433  4.3200000000000D+00  0.0000000000000D+00  0.0000000000000D+00
434  4.3300000000000D+00  0.0000000000000D+00  0.0000000000000D+00
435  4.3400000000000D+00  0.0000000000000D+00  0.0000000000000D+00
436  4.3500000000000D+00  0.0000000000000D+00  0.0000000000000D+00
437  4.3600000000000D+00  0.0000000000000D+00  0.0000000000000D+00
438  4.3700000000000D+00  0.0000000000000D+00  0.0000000000000D+00
439  4.3800000000000D+00  0.0000000000000D+00  0.0000000000000D+00
440  4.3900000000000D+00  0.0000000000000D+00  0.0000000000000D+00
441  4.4000000000000D+00  0.0000000000000D+00  0.0000000000000D+00
442  4.4100000000000D+00  0.0000000000000D+00  0.0000000000000D+00
443  4.4200000000000D+00  0.0000000000000D+00  0.0000000000000D+00