K     ONCVPSP  r_core=  1.36  1.46  1.61
19.0000      9.0000      150121    zatom,zion,pspd
8      11   2     4   400     0    pspcod,pspxc,lmax,lloc,mmax,r2well
3.99000000  0.07000000  0.00000000    rchrg fchrg qchrg
2     2     2     0     0    nproj
0                 extension_switch
0                         1.0817553779251D+01  7.9085363220046D-01
1  0.0000000000000D+00  0.0000000000000D+00 -0.0000000000000D+00
2  1.0000000000000D-02  5.8255881558007D-02 -3.2940792698952D-02
3  2.0000000000000D-02  1.1643302259418D-01 -6.5739073856978D-02
4  3.0000000000000D-02  1.7445275137279D-01 -9.8253325834619D-02
5  4.0000000000000D-02  2.3223653349763D-01 -1.3034400388585D-01
6  5.0000000000000D-02  2.8970604001395D-01 -1.6187448558640D-01
7  6.0000000000000D-02  3.4678321486762D-01 -1.9271197654916D-01
8  7.0000000000000D-02  4.0339034157071D-01 -2.2272835902899D-01
9  8.0000000000000D-02  4.5945010897491D-01 -2.5180097099130D-01
10  9.0000000000000D-02  5.1488567611845D-01 -2.7981330442975D-01
11  1.0000000000000D-01  5.6962073618230D-01 -3.0665561307610D-01
12  1.1000000000000D-01  6.2357957967391D-01 -3.3222542124151D-01
13  1.2000000000000D-01  6.7668715704158D-01 -3.5642792722414D-01
14  1.3000000000000D-01  7.2886914101677D-01 -3.7917629656479D-01
15  1.4000000000000D-01  7.8005198904142D-01 -4.0039184220926D-01
16  1.5000000000000D-01  8.3016300630703D-01 -4.2000409098686D-01
17  1.6000000000000D-01  8.7913040986981D-01 -4.3795073722729D-01
18  1.7000000000000D-01  9.2688339461063D-01 -4.5417748697096D-01
19  1.8000000000000D-01  9.7335220158568D-01 -4.6863779761690D-01
20  1.9000000000000D-01  1.0184681896695D+00 -4.8129252015157D-01
21  2.0000000000000D-01  1.0621639112329D+00 -4.9210945260301D-01
22  2.1000000000000D-01  1.1043731927118D+00 -5.0106281512149D-01
23  2.2000000000000D-01  1.1450312209881D+00 -5.0813265819435D-01
24  2.3000000000000D-01  1.1840746362393D+00 -5.1330421811171D-01
25  2.4000000000000D-01  1.2214416324144D+00 -5.1656723213507D-01
26  2.5000000000000D-01  1.2570720659302D+00 -5.1791522924169D-01
27  2.6000000000000D-01  1.2909075730060D+00 -5.1734481392830D-01
28  2.7000000000000D-01  1.3228916969981D+00 -5.1485495447654D-01
29  2.8000000000000D-01  1.3529700258772D+00 -5.1044629400056D-01
30  2.9000000000000D-01  1.3810903397658D+00 -5.0412050243447D-01
31  3.0000000000000D-01  1.4072027696999D+00 -4.9587967940428D-01
32  3.1000000000000D-01  1.4312599666952D+00 -4.8572582719704D-01
33  3.2000000000000D-01  1.4532172823753D+00 -4.7366040079998D-01
34  3.3000000000000D-01  1.4730329604057D+00 -4.5968395105427D-01
35  3.4000000000000D-01  1.4906683338869D+00 -4.4379588215256D-01
36  3.5000000000000D-01  1.5060880405305D+00 -4.2599429596182D-01
37  3.6000000000000D-01  1.5192602329036D+00 -4.0627598821062D-01
38  3.7000000000000D-01  1.5301568127852D+00 -3.8463653026330D-01
39  3.8000000000000D-01  1.5387536542092D+00 -3.6107050944817D-01
40  3.9000000000000D-01  1.5450308388971D+00 -3.3557187459207D-01
41  4.0000000000000D-01  1.5489728962072D+00 -3.0813440800949D-01
42  4.1000000000000D-01  1.5505690378115D+00 -2.7875232016621D-01
43  4.2000000000000D-01  1.5498133904747D+00 -2.4742095206253D-01
44  4.3000000000000D-01  1.5467052260450D+00 -2.1413757973836D-01
45  4.4000000000000D-01  1.5412491831442D+00 -1.7890230960162D-01
46  4.5000000000000D-01  1.5334554785655D+00 -1.4171905057572D-01
47  4.6000000000000D-01  1.5233401038362D+00 -1.0259654301873D-01
48  4.7000000000000D-01  1.5109250079156D+00 -6.1549434422661D-02
49  4.8000000000000D-01  1.4962382676105D+00 -1.8599405670157D-02
50  4.9000000000000D-01  1.4793142206844D+00  2.6223738685993D-02
51  5.0000000000000D-01  1.4601935813305D+00  7.2880982745729D-02
52  5.1000000000000D-01  1.4389235266503D+00  1.2132305819315D-01
53  5.2000000000000D-01  1.4155577784658D+00  1.7148932703332D-01
54  5.3000000000000D-01  1.3901565931264D+00  2.2330701515356D-01
55  5.4000000000000D-01  1.3627867744781D+00  2.7669028810737D-01
56  5.5000000000000D-01  1.3335216279909D+00  3.3153949696891D-01
57  5.6000000000000D-01  1.3024408509418D+00  3.8774079142843D-01
58  5.7000000000000D-01  1.2696304395683D+00  4.4516539203701D-01
59  5.8000000000000D-01  1.2351824841559D+00  5.0366970357767D-01
60  5.9000000000000D-01  1.1991949825288D+00  5.6309487783002D-01
61  6.0000000000000D-01  1.1617715705318D+00  6.2326723546911D-01
62  6.1000000000000D-01  1.1230212263188D+00  6.8399841440050D-01
63  6.2000000000000D-01  1.0830579193936D+00  7.4508592206222D-01
64  6.3000000000000D-01  1.0420002621697D+00  8.0631399030164D-01
65  6.4000000000000D-01  9.9997101801251D-01  8.6745434859237D-01
66  6.5000000000000D-01  9.5709668467503D-01  9.2826752730055D-01
67  6.6000000000000D-01  9.1350702585491D-01  9.8850412562083D-01
68  6.7000000000000D-01  8.6933443930536D-01  1.0479064201189D+00
69  6.8000000000000D-01  8.2471344240553D-01  1.1062100922385D+00
70  6.9000000000000D-01  7.7978009227430D-01  1.1631460802578D+00
71  7.0000000000000D-01  7.3467140460475D-01  1.2184425070837D+00
72  7.1000000000000D-01  6.8952458885167D-01  1.2718270994530D+00
73  7.2000000000000D-01  6.4447645713198D-01  1.3230293447291D+00
74  7.3000000000000D-01  5.9966278890712D-01  1.3717827493353D+00
75  7.4000000000000D-01  5.5521763760005D-01  1.4178272705952D+00
76  7.5000000000000D-01  5.1127265642322D-01  1.4609117307518D+00
77  7.6000000000000D-01  4.6795645337990D-01  1.5007961523817D+00
78  7.7000000000000D-01  4.2539390821157D-01  1.5372541930957D+00
79  7.8000000000000D-01  3.8370543912394D-01  1.5700757209092D+00
80  7.9000000000000D-01  3.4300651492830D-01  1.5990686225106D+00
81  8.0000000000000D-01  3.0340700295731D-01  1.6240610410131D+00
82  8.1000000000000D-01  2.6501059820999D-01  1.6449033157376D+00
83  8.2000000000000D-01  2.2791428728218D-01  1.6614697447817D+00
84  8.3000000000000D-01  1.9220785161980D-01  1.6736601456797D+00
85  8.4000000000000D-01  1.5797341433720D-01  1.6814011915838D+00
86  8.5000000000000D-01  1.2528503451305D-01  1.6846475027863D+00
87  8.6000000000000D-01  9.4208352514936D-02  1.6833824760551D+00
88  8.7000000000000D-01  6.4800289514765D-02  1.6776188371100D+00
89  8.8000000000000D-01  3.7108803940812D-02  1.6673989046278D+00
90  8.9000000000000D-01  1.1172707170145D-02  1.6527945573885D+00
91  9.0000000000000D-01 -1.2978459703670D-02  1.6339068995540D+00
92  9.1000000000000D-01 -3.5324486689188D-02  1.6108656225828D+00
93  9.2000000000000D-01 -5.5854492489156D-02  1.5838280659071D+00
94  9.3000000000000D-01 -7.4566800051471D-02  1.5529778738763D+00
95  9.4000000000000D-01 -9.1468916631415D-02  1.5185237434810D+00
96  9.5000000000000D-01 -1.0657739058487D-01  1.4806976290352D+00
97  9.6000000000000D-01 -1.1991739112255D-01  1.4397523619369D+00
98  9.7000000000000D-01 -1.3152246441657D-01  1.3959594864345D+00
99  9.8000000000000D-01 -1.4143415976041D-01  1.3496067182201D+00
100  9.9000000000000D-01 -1.4970160012740D-01  1.3009952026168D+00
101  1.0000000000000D+00 -1.5638100069910D-01  1.2504365998234D+00
102  1.0100000000000D+00 -1.6153511183233D-01  1.1982505670589D+00
103  1.0200000000000D+00 -1.6523280501848D-01  1.1447604843118D+00
104  1.0300000000000D+00 -1.6754823784827D-01  1.0902903742913D+00
105  1.0400000000000D+00 -1.6856022313606D-01  1.0351617681387D+00
106  1.0500000000000D+00 -1.6835154878401D-01  9.7969014295427D-01
107  1.0600000000000D+00 -1.6700834190900D-01  9.2418230979557D-01
108  1.0700000000000D+00 -1.6461931563435D-01  8.6893230927716D-01
109  1.0800000000000D+00 -1.6127453236377D-01  8.1421479413307D-01
110  1.0900000000000D+00 -1.5706498055585D-01  7.6028537955899D-01
111  1.1000000000000D+00 -1.5208165755475D-01  7.0737610772479D-01
112  1.1100000000000D+00 -1.4641541927419D-01  6.5569609314667D-01
113  1.1200000000000D+00 -1.4015419476999D-01  6.0541600554619D-01
114  1.1300000000000D+00 -1.3338441699626D-01  5.5668484404317D-01
115  1.1400000000000D+00 -1.2619095490498D-01  5.0963337604241D-01
116  1.1500000000000D+00 -1.1865779333020D-01  4.6437997811794D-01
117  1.1600000000000D+00 -1.1086553636402D-01  4.2102346033868D-01
118  1.1700000000000D+00 -1.0289302882766D-01  3.7964957742954D-01
119  1.1800000000000D+00 -9.4817113545836D-02  3.4033081134073D-01
120  1.1900000000000D+00 -8.6712115978663D-02  3.0312550593069D-01
121  1.2000000000000D+00 -7.8648155390152D-02  2.6807557148457D-01
122  1.2100000000000D+00 -7.0693078071290D-02  2.3521250877084D-01
123  1.2200000000000D+00 -6.2912740847011D-02  2.0455780967975D-01
124  1.2300000000000D+00 -5.5367361951652D-02  1.7611827355203D-01
125  1.2400000000000D+00 -4.8114655159629D-02  1.4989343713717D-01
126  1.2500000000000D+00 -4.1210073773847D-02  1.2587544732735D-01
127  1.2600000000000D+00 -3.4703533621408D-02  1.0404728390266D-01
128  1.2700000000000D+00 -2.8641671772380D-02  8.4387337732251D-02
129  1.2800000000000D+00 -2.3069010679361D-02  6.6869539521535D-02
130  1.2900000000000D+00 -1.8024215905953D-02  5.1463897668761D-02
131  1.3000000000000D+00 -1.3542622050126D-02  3.8139164627531D-02
132  1.3100000000000D+00 -9.6576337218958D-03  2.6861649439378D-02
133  1.3200000000000D+00 -6.3959693071651D-03  1.7599158580409D-02
134  1.3300000000000D+00 -3.7819006383046D-03  1.0319888524933D-02
135  1.3400000000000D+00 -1.8370063771639D-03  4.9917928999970D-03
136  1.3500000000000D+00 -6.0418962626302D-04  1.6625750217867D-03
137  1.3600000000000D+00 -5.3271221047325D-05  1.8947282529382D-04
138  1.3700000000000D+00  7.2839895919934D-05 -1.6708108146476D-04
139  1.3800000000000D+00 -2.5661171932079D-07  3.5881961747466D-08
140  1.3900000000000D+00 -1.0329060249813D-06  1.4443102822897D-07
141  1.4000000000000D+00  0.0000000000000D+00  0.0000000000000D+00
142  1.4100000000000D+00  0.0000000000000D+00  0.0000000000000D+00
143  1.4200000000000D+00  0.0000000000000D+00  0.0000000000000D+00
144  1.4300000000000D+00  0.0000000000000D+00  0.0000000000000D+00
145  1.4400000000000D+00  0.0000000000000D+00  0.0000000000000D+00
146  1.4500000000000D+00  0.0000000000000D+00  0.0000000000000D+00
147  1.4600000000000D+00  0.0000000000000D+00  0.0000000000000D+00
148  1.4700000000000D+00  0.0000000000000D+00  0.0000000000000D+00
149  1.4800000000000D+00  0.0000000000000D+00  0.0000000000000D+00
150  1.4900000000000D+00  0.0000000000000D+00  0.0000000000000D+00
151  1.5000000000000D+00  0.0000000000000D+00  0.0000000000000D+00
152  1.5100000000000D+00  0.0000000000000D+00  0.0000000000000D+00
153  1.5200000000000D+00  0.0000000000000D+00  0.0000000000000D+00
154  1.5300000000000D+00  0.0000000000000D+00  0.0000000000000D+00
155  1.5400000000000D+00  0.0000000000000D+00  0.0000000000000D+00
156  1.5500000000000D+00  0.0000000000000D+00  0.0000000000000D+00
157  1.5600000000000D+00  0.0000000000000D+00  0.0000000000000D+00
158  1.5700000000000D+00  0.0000000000000D+00  0.0000000000000D+00
159  1.5800000000000D+00  0.0000000000000D+00  0.0000000000000D+00
160  1.5900000000000D+00  0.0000000000000D+00  0.0000000000000D+00
161  1.6000000000000D+00  0.0000000000000D+00  0.0000000000000D+00
162  1.6100000000000D+00  0.0000000000000D+00  0.0000000000000D+00
163  1.6200000000000D+00  0.0000000000000D+00  0.0000000000000D+00
164  1.6300000000000D+00  0.0000000000000D+00  0.0000000000000D+00
165  1.6400000000000D+00  0.0000000000000D+00  0.0000000000000D+00
166  1.6500000000000D+00  0.0000000000000D+00  0.0000000000000D+00
167  1.6600000000000D+00  0.0000000000000D+00  0.0000000000000D+00
168  1.6700000000000D+00  0.0000000000000D+00  0.0000000000000D+00
169  1.6800000000000D+00  0.0000000000000D+00  0.0000000000000D+00
170  1.6900000000000D+00  0.0000000000000D+00  0.0000000000000D+00
171  1.7000000000000D+00  0.0000000000000D+00  0.0000000000000D+00
172  1.7100000000000D+00  0.0000000000000D+00  0.0000000000000D+00
173  1.7200000000000D+00  0.0000000000000D+00  0.0000000000000D+00
174  1.7300000000000D+00  0.0000000000000D+00  0.0000000000000D+00
175  1.7400000000000D+00  0.0000000000000D+00  0.0000000000000D+00
176  1.7500000000000D+00  0.0000000000000D+00  0.0000000000000D+00
177  1.7600000000000D+00  0.0000000000000D+00  0.0000000000000D+00
178  1.7700000000000D+00  0.0000000000000D+00  0.0000000000000D+00
179  1.7800000000000D+00  0.0000000000000D+00  0.0000000000000D+00
180  1.7900000000000D+00  0.0000000000000D+00  0.0000000000000D+00
181  1.8000000000000D+00  0.0000000000000D+00  0.0000000000000D+00
182  1.8100000000000D+00  0.0000000000000D+00  0.0000000000000D+00
183  1.8200000000000D+00  0.0000000000000D+00  0.0000000000000D+00
184  1.8300000000000D+00  0.0000000000000D+00  0.0000000000000D+00
185  1.8400000000000D+00  0.0000000000000D+00  0.0000000000000D+00
186  1.8500000000000D+00  0.0000000000000D+00  0.0000000000000D+00
187  1.8600000000000D+00  0.0000000000000D+00  0.0000000000000D+00
188  1.8700000000000D+00  0.0000000000000D+00  0.0000000000000D+00
189  1.8800000000000D+00  0.0000000000000D+00  0.0000000000000D+00
190  1.8900000000000D+00  0.0000000000000D+00  0.0000000000000D+00
191  1.9000000000000D+00  0.0000000000000D+00  0.0000000000000D+00
192  1.9100000000000D+00  0.0000000000000D+00  0.0000000000000D+00
193  1.9200000000000D+00  0.0000000000000D+00  0.0000000000000D+00
194  1.9300000000000D+00  0.0000000000000D+00  0.0000000000000D+00
195  1.9400000000000D+00  0.0000000000000D+00  0.0000000000000D+00
196  1.9500000000000D+00  0.0000000000000D+00  0.0000000000000D+00
197  1.9600000000000D+00  0.0000000000000D+00  0.0000000000000D+00
198  1.9700000000000D+00  0.0000000000000D+00  0.0000000000000D+00
199  1.9800000000000D+00  0.0000000000000D+00  0.0000000000000D+00
200  1.9900000000000D+00  0.0000000000000D+00  0.0000000000000D+00
201  2.0000000000000D+00  0.0000000000000D+00  0.0000000000000D+00
202  2.0100000000000D+00  0.0000000000000D+00  0.0000000000000D+00
203  2.0200000000000D+00  0.0000000000000D+00  0.0000000000000D+00
204  2.0300000000000D+00  0.0000000000000D+00  0.0000000000000D+00
205  2.0400000000000D+00  0.0000000000000D+00  0.0000000000000D+00
206  2.0500000000000D+00  0.0000000000000D+00  0.0000000000000D+00
207  2.0600000000000D+00  0.0000000000000D+00  0.0000000000000D+00
208  2.0700000000000D+00  0.0000000000000D+00  0.0000000000000D+00
209  2.0800000000000D+00  0.0000000000000D+00  0.0000000000000D+00
210  2.0900000000000D+00  0.0000000000000D+00  0.0000000000000D+00
211  2.1000000000000D+00  0.0000000000000D+00  0.0000000000000D+00
212  2.1100000000000D+00  0.0000000000000D+00  0.0000000000000D+00
213  2.1200000000000D+00  0.0000000000000D+00  0.0000000000000D+00
214  2.1300000000000D+00  0.0000000000000D+00  0.0000000000000D+00
215  2.1400000000000D+00  0.0000000000000D+00  0.0000000000000D+00
216  2.1500000000000D+00  0.0000000000000D+00  0.0000000000000D+00
217  2.1600000000000D+00  0.0000000000000D+00  0.0000000000000D+00
218  2.1700000000000D+00  0.0000000000000D+00  0.0000000000000D+00
219  2.1800000000000D+00  0.0000000000000D+00  0.0000000000000D+00
220  2.1900000000000D+00  0.0000000000000D+00  0.0000000000000D+00
221  2.2000000000000D+00  0.0000000000000D+00  0.0000000000000D+00
222  2.2100000000000D+00  0.0000000000000D+00  0.0000000000000D+00
223  2.2200000000000D+00  0.0000000000000D+00  0.0000000000000D+00
224  2.2300000000000D+00  0.0000000000000D+00  0.0000000000000D+00
225  2.2400000000000D+00  0.0000000000000D+00  0.0000000000000D+00
226  2.2500000000000D+00  0.0000000000000D+00  0.0000000000000D+00
227  2.2600000000000D+00  0.0000000000000D+00  0.0000000000000D+00
228  2.2700000000000D+00  0.0000000000000D+00  0.0000000000000D+00
229  2.2800000000000D+00  0.0000000000000D+00  0.0000000000000D+00
230  2.2900000000000D+00  0.0000000000000D+00  0.0000000000000D+00
231  2.3000000000000D+00  0.0000000000000D+00  0.0000000000000D+00
232  2.3100000000000D+00  0.0000000000000D+00  0.0000000000000D+00
233  2.3200000000000D+00  0.0000000000000D+00  0.0000000000000D+00
234  2.3300000000000D+00  0.0000000000000D+00  0.0000000000000D+00
235  2.3400000000000D+00  0.0000000000000D+00  0.0000000000000D+00
236  2.3500000000000D+00  0.0000000000000D+00  0.0000000000000D+00
237  2.3600000000000D+00  0.0000000000000D+00  0.0000000000000D+00
238  2.3700000000000D+00  0.0000000000000D+00  0.0000000000000D+00
239  2.3800000000000D+00  0.0000000000000D+00  0.0000000000000D+00
240  2.3900000000000D+00  0.0000000000000D+00  0.0000000000000D+00
241  2.4000000000000D+00  0.0000000000000D+00  0.0000000000000D+00
242  2.4100000000000D+00  0.0000000000000D+00  0.0000000000000D+00
243  2.4200000000000D+00  0.0000000000000D+00  0.0000000000000D+00
244  2.4300000000000D+00  0.0000000000000D+00  0.0000000000000D+00
245  2.4400000000000D+00  0.0000000000000D+00  0.0000000000000D+00
246  2.4500000000000D+00  0.0000000000000D+00  0.0000000000000D+00
247  2.4600000000000D+00  0.0000000000000D+00  0.0000000000000D+00
248  2.4700000000000D+00  0.0000000000000D+00  0.0000000000000D+00
249  2.4800000000000D+00  0.0000000000000D+00  0.0000000000000D+00
250  2.4900000000000D+00  0.0000000000000D+00  0.0000000000000D+00
251  2.5000000000000D+00  0.0000000000000D+00  0.0000000000000D+00
252  2.5100000000000D+00  0.0000000000000D+00  0.0000000000000D+00
253  2.5200000000000D+00  0.0000000000000D+00  0.0000000000000D+00
254  2.5300000000000D+00  0.0000000000000D+00  0.0000000000000D+00
255  2.5400000000000D+00  0.0000000000000D+00  0.0000000000000D+00
256  2.5500000000000D+00  0.0000000000000D+00  0.0000000000000D+00
257  2.5600000000000D+00  0.0000000000000D+00  0.0000000000000D+00
258  2.5700000000000D+00  0.0000000000000D+00  0.0000000000000D+00
259  2.5800000000000D+00  0.0000000000000D+00  0.0000000000000D+00
260  2.5900000000000D+00  0.0000000000000D+00  0.0000000000000D+00
261  2.6000000000000D+00  0.0000000000000D+00  0.0000000000000D+00
262  2.6100000000000D+00  0.0000000000000D+00  0.0000000000000D+00
263  2.6200000000000D+00  0.0000000000000D+00  0.0000000000000D+00
264  2.6300000000000D+00  0.0000000000000D+00  0.0000000000000D+00
265  2.6400000000000D+00  0.0000000000000D+00  0.0000000000000D+00
266  2.6500000000000D+00  0.0000000000000D+00  0.0000000000000D+00
267  2.6600000000000D+00  0.0000000000000D+00  0.0000000000000D+00
268  2.6700000000000D+00  0.0000000000000D+00  0.0000000000000D+00
269  2.6800000000000D+00  0.0000000000000D+00  0.0000000000000D+00
270  2.6900000000000D+00  0.0000000000000D+00  0.0000000000000D+00
271  2.7000000000000D+00  0.0000000000000D+00  0.0000000000000D+00
272  2.7100000000000D+00  0.0000000000000D+00  0.0000000000000D+00
273  2.7200000000000D+00  0.0000000000000D+00  0.0000000000000D+00
274  2.7300000000000D+00  0.0000000000000D+00  0.0000000000000D+00
275  2.7400000000000D+00  0.0000000000000D+00  0.0000000000000D+00
276  2.7500000000000D+00  0.0000000000000D+00  0.0000000000000D+00
277  2.7600000000000D+00  0.0000000000000D+00  0.0000000000000D+00
278  2.7700000000000D+00  0.0000000000000D+00  0.0000000000000D+00
279  2.7800000000000D+00  0.0000000000000D+00  0.0000000000000D+00
280  2.7900000000000D+00  0.0000000000000D+00  0.0000000000000D+00
281  2.8000000000000D+00  0.0000000000000D+00  0.0000000000000D+00
282  2.8100000000000D+00  0.0000000000000D+00  0.0000000000000D+00
283  2.8200000000000D+00  0.0000000000000D+00  0.0000000000000D+00
284  2.8300000000000D+00  0.0000000000000D+00  0.0000000000000D+00
285  2.8400000000000D+00  0.0000000000000D+00  0.0000000000000D+00
286  2.8500000000000D+00  0.0000000000000D+00  0.0000000000000D+00
287  2.8600000000000D+00  0.0000000000000D+00  0.0000000000000D+00
288  2.8700000000000D+00  0.0000000000000D+00  0.0000000000000D+00
289  2.8800000000000D+00  0.0000000000000D+00  0.0000000000000D+00
290  2.8900000000000D+00  0.0000000000000D+00  0.0000000000000D+00
291  2.9000000000000D+00  0.0000000000000D+00  0.0000000000000D+00
292  2.9100000000000D+00  0.0000000000000D+00  0.0000000000000D+00
293  2.9200000000000D+00  0.0000000000000D+00  0.0000000000000D+00
294  2.9300000000000D+00  0.0000000000000D+00  0.0000000000000D+00
295  2.9400000000000D+00  0.0000000000000D+00  0.0000000000000D+00
296  2.9500000000000D+00  0.0000000000000D+00  0.0000000000000D+00
297  2.9600000000000D+00  0.0000000000000D+00  0.0000000000000D+00
298  2.9700000000000D+00  0.0000000000000D+00  0.0000000000000D+00
299  2.9800000000000D+00  0.0000000000000D+00  0.0000000000000D+00
300  2.9900000000000D+00  0.0000000000000D+00  0.0000000000000D+00
301  3.0000000000000D+00  0.0000000000000D+00  0.0000000000000D+00
302  3.0100000000000D+00  0.0000000000000D+00  0.0000000000000D+00
303  3.0200000000000D+00  0.0000000000000D+00  0.0000000000000D+00
304  3.0300000000000D+00  0.0000000000000D+00  0.0000000000000D+00
305  3.0400000000000D+00  0.0000000000000D+00  0.0000000000000D+00
306  3.0500000000000D+00  0.0000000000000D+00  0.0000000000000D+00
307  3.0600000000000D+00  0.0000000000000D+00  0.0000000000000D+00
308  3.0700000000000D+00  0.0000000000000D+00  0.0000000000000D+00
309  3.0800000000000D+00  0.0000000000000D+00  0.0000000000000D+00
310  3.0900000000000D+00  0.0000000000000D+00  0.0000000000000D+00
311  3.1000000000000D+00  0.0000000000000D+00  0.0000000000000D+00
312  3.1100000000000D+00  0.0000000000000D+00  0.0000000000000D+00
313  3.1200000000000D+00  0.0000000000000D+00  0.0000000000000D+00
314  3.1300000000000D+00  0.0000000000000D+00  0.0000000000000D+00
315  3.1400000000000D+00  0.0000000000000D+00  0.0000000000000D+00
316  3.1500000000000D+00  0.0000000000000D+00  0.0000000000000D+00
317  3.1600000000000D+00  0.0000000000000D+00  0.0000000000000D+00
318  3.1700000000000D+00  0.0000000000000D+00  0.0000000000000D+00
319  3.1800000000000D+00  0.0000000000000D+00  0.0000000000000D+00
320  3.1900000000000D+00  0.0000000000000D+00  0.0000000000000D+00
321  3.2000000000000D+00  0.0000000000000D+00  0.0000000000000D+00
322  3.2100000000000D+00  0.0000000000000D+00  0.0000000000000D+00
323  3.2200000000000D+00  0.0000000000000D+00  0.0000000000000D+00
324  3.2300000000000D+00  0.0000000000000D+00  0.0000000000000D+00
325  3.2400000000000D+00  0.0000000000000D+00  0.0000000000000D+00
326  3.2500000000000D+00  0.0000000000000D+00  0.0000000000000D+00
327  3.2600000000000D+00  0.0000000000000D+00  0.0000000000000D+00
328  3.2700000000000D+00  0.0000000000000D+00  0.0000000000000D+00
329  3.2800000000000D+00  0.0000000000000D+00  0.0000000000000D+00
330  3.2900000000000D+00  0.0000000000000D+00  0.0000000000000D+00
331  3.3000000000000D+00  0.0000000000000D+00  0.0000000000000D+00
332  3.3100000000000D+00  0.0000000000000D+00  0.0000000000000D+00
333  3.3200000000000D+00  0.0000000000000D+00  0.0000000000000D+00
334  3.3300000000000D+00  0.0000000000000D+00  0.0000000000000D+00
335  3.3400000000000D+00  0.0000000000000D+00  0.0000000000000D+00
336  3.3500000000000D+00  0.0000000000000D+00  0.0000000000000D+00
337  3.3600000000000D+00  0.0000000000000D+00  0.0000000000000D+00
338  3.3700000000000D+00  0.0000000000000D+00  0.0000000000000D+00
339  3.3800000000000D+00  0.0000000000000D+00  0.0000000000000D+00
340  3.3900000000000D+00  0.0000000000000D+00  0.0000000000000D+00
341  3.4000000000000D+00  0.0000000000000D+00  0.0000000000000D+00
342  3.4100000000000D+00  0.0000000000000D+00  0.0000000000000D+00
343  3.4200000000000D+00  0.0000000000000D+00  0.0000000000000D+00
344  3.4300000000000D+00  0.0000000000000D+00  0.0000000000000D+00
345  3.4400000000000D+00  0.0000000000000D+00  0.0000000000000D+00
346  3.4500000000000D+00  0.0000000000000D+00  0.0000000000000D+00
347  3.4600000000000D+00  0.0000000000000D+00  0.0000000000000D+00
348  3.4700000000000D+00  0.0000000000000D+00  0.0000000000000D+00
349  3.4800000000000D+00  0.0000000000000D+00  0.0000000000000D+00
350  3.4900000000000D+00  0.0000000000000D+00  0.0000000000000D+00
351  3.5000000000000D+00  0.0000000000000D+00  0.0000000000000D+00
352  3.5100000000000D+00  0.0000000000000D+00  0.0000000000000D+00
353  3.5200000000000D+00  0.0000000000000D+00  0.0000000000000D+00
354  3.5300000000000D+00  0.0000000000000D+00  0.0000000000000D+00
355  3.5400000000000D+00  0.0000000000000D+00  0.0000000000000D+00
356  3.5500000000000D+00  0.0000000000000D+00  0.0000000000000D+00
357  3.5600000000000D+00  0.0000000000000D+00  0.0000000000000D+00
358  3.5700000000000D+00  0.0000000000000D+00  0.0000000000000D+00
359  3.5800000000000D+00  0.0000000000000D+00  0.0000000000000D+00
360  3.5900000000000D+00  0.0000000000000D+00  0.0000000000000D+00
361  3.6000000000000D+00  0.0000000000000D+00  0.0000000000000D+00
362  3.6100000000000D+00  0.0000000000000D+00  0.0000000000000D+00
363  3.6200000000000D+00  0.0000000000000D+00  0.0000000000000D+00
364  3.6300000000000D+00  0.0000000000000D+00  0.0000000000000D+00
365  3.6400000000000D+00  0.0000000000000D+00  0.0000000000000D+00
366  3.6500000000000D+00  0.0000000000000D+00  0.0000000000000D+00
367  3.6600000000000D+00  0.0000000000000D+00  0.0000000000000D+00
368  3.6700000000000D+00  0.0000000000000D+00  0.0000000000000D+00
369  3.6800000000000D+00  0.0000000000000D+00  0.0000000000000D+00
370  3.6900000000000D+00  0.0000000000000D+00  0.0000000000000D+00
371  3.7000000000000D+00  0.0000000000000D+00  0.0000000000000D+00
372  3.7100000000000D+00  0.0000000000000D+00  0.0000000000000D+00
373  3.7200000000000D+00  0.0000000000000D+00  0.0000000000000D+00
374  3.7300000000000D+00  0.0000000000000D+00  0.0000000000000D+00
375  3.7400000000000D+00  0.0000000000000D+00  0.0000000000000D+00
376  3.7500000000000D+00  0.0000000000000D+00  0.0000000000000D+00
377  3.7600000000000D+00  0.0000000000000D+00  0.0000000000000D+00
378  3.7700000000000D+00  0.0000000000000D+00  0.0000000000000D+00
379  3.7800000000000D+00  0.0000000000000D+00  0.0000000000000D+00
380  3.7900000000000D+00  0.0000000000000D+00  0.0000000000000D+00
381  3.8000000000000D+00  0.0000000000000D+00  0.0000000000000D+00
382  3.8100000000000D+00  0.0000000000000D+00  0.0000000000000D+00
383  3.8200000000000D+00  0.0000000000000D+00  0.0000000000000D+00
384  3.8300000000000D+00  0.0000000000000D+00  0.0000000000000D+00
385  3.8400000000000D+00  0.0000000000000D+00  0.0000000000000D+00
386  3.8500000000000D+00  0.0000000000000D+00  0.0000000000000D+00
387  3.8600000000000D+00  0.0000000000000D+00  0.0000000000000D+00
388  3.8700000000000D+00  0.0000000000000D+00  0.0000000000000D+00
389  3.8800000000000D+00  0.0000000000000D+00  0.0000000000000D+00
390  3.8900000000000D+00  0.0000000000000D+00  0.0000000000000D+00
391  3.9000000000000D+00  0.0000000000000D+00  0.0000000000000D+00
392  3.9100000000000D+00  0.0000000000000D+00  0.0000000000000D+00
393  3.9200000000000D+00  0.0000000000000D+00  0.0000000000000D+00
394  3.9300000000000D+00  0.0000000000000D+00  0.0000000000000D+00
395  3.9400000000000D+00  0.0000000000000D+00  0.0000000000000D+00
396  3.9500000000000D+00  0.0000000000000D+00  0.0000000000000D+00
397  3.9600000000000D+00  0.0000000000000D+00  0.0000000000000D+00
398  3.9700000000000D+00  0.0000000000000D+00  0.0000000000000D+00
399  3.9800000000000D+00  0.0000000000000D+00  0.0000000000000D+00
400  3.9900000000000D+00  0.0000000000000D+00  0.0000000000000D+00
1                         4.1793759191659D+00  5.0214982725190D-01
1  0.0000000000000D+00  0.0000000000000D+00 -0.0000000000000D+00
2  1.0000000000000D-02  1.7498433908226D-03 -1.9904781206808D-03
3  2.0000000000000D-02  6.9863139417154D-03 -7.9245975727667D-03
4  3.0000000000000D-02  1.5670400790751D-02 -1.7691060945004D-02
5  4.0000000000000D-02  2.7737643212973D-02 -3.1106519413934D-02
6  5.0000000000000D-02  4.3098957520412D-02 -4.7918755176862D-02
7  6.0000000000000D-02  6.1641776537480D-02 -6.7811061767101D-02
8  7.0000000000000D-02  8.3231483816167D-02 -9.0407748623299D-02
9  8.0000000000000D-02  1.0771312014855D-01 -1.1528067729802D-01
10  9.0000000000000D-02  1.3491333569453D-01 -1.4195671923997D-01
11  1.0000000000000D-01  1.6464255720931D-01 -1.6992600934307D-01
12  1.1000000000000D-01  1.9669733653566D-01 -1.9865085585872D-01
13  1.2000000000000D-01  2.3086284373303D-01 -2.2757515587928D-01
14  1.3000000000000D-01  2.6691546603498D-01 -2.5613415676161D-01
15  1.4000000000000D-01  3.0462547210105D-01 -2.8376439704395D-01
16  1.5000000000000D-01  3.4375970047812D-01 -3.0991365814158D-01
17  1.6000000000000D-01  3.8408423028159D-01 -3.3405075512711D-01
18  1.7000000000000D-01  4.2536699336854D-01 -3.5567499970000D-01
19  1.8000000000000D-01  4.6738028737522D-01 -3.7432517022712D-01
20  1.9000000000000D-01  5.0990315163891D-01 -3.8958783404189D-01
21  2.0000000000000D-01  5.5272356975899D-01 -4.0110487549485D-01
22  2.1000000000000D-01  5.9564046576068D-01 -4.0858009668162D-01
23  2.2000000000000D-01  6.3846546401732D-01 -4.1178477122429D-01
24  2.3000000000000D-01  6.8102438809418D-01 -4.1056205363515D-01
25  2.4000000000000D-01  7.2315847601337D-01 -4.0483015500018D-01
26  2.5000000000000D-01  7.6472529580173D-01 -3.9458422452255D-01
27  2.6000000000000D-01  8.0559935271681D-01 -3.7989690808936D-01
28  2.7000000000000D-01  8.4567237683951D-01 -3.6091754128150D-01
29  2.8000000000000D-01  8.8485329226616D-01 -3.3786999019395D-01
30  2.9000000000000D-01  9.2306787701980D-01 -3.1104918624382D-01
31  3.0000000000000D-01  9.6025811609981D-01 -2.8081637024534D-01
32  3.1000000000000D-01  9.9638127110489D-01 -2.4759315315934D-01
33  3.2000000000000D-01  1.0314086744675D+00 -2.1185443233197D-01
34  3.3000000000000D-01  1.0653242774962D+00 -1.7412029457566D-01
35  3.4000000000000D-01  1.0981230181616D+00 -1.3494719297804D-01
36  3.5000000000000D-01  1.1298089334291D+00 -9.4918078405869D-02
37  3.6000000000000D-01  1.1603932366547D+00 -5.4632435253908D-02
38  3.7000000000000D-01  1.1898921472459D+00 -1.4695315489072D-02
39  3.8000000000000D-01  1.2183247911496D+00  2.4293266203278D-02
40  3.9000000000000D-01  1.2457110056118D+00  6.1749282875920D-02
41  4.0000000000000D-01  1.2720691482440D+00  9.7115557784799D-02
42  4.1000000000000D-01  1.2974140053180D+00  1.2987213525892D-01
43  4.2000000000000D-01  1.3217547965919D+00  1.5954616711867D-01