K     ONCVPSP  r_core=  1.32  1.36  1.67
19.0000      9.0000      140819    zatom,zion,pspd
8    11     2     4   401     0    pspcod,pspxc,lmax,lloc,mmax,r2well
4.00000000  0.10000000  0.00000000    rchrg fchrg qchrg
2     2     2     0     0    nproj
0                 extension_switch
0                         9.3445622585192D+00  4.7024959882449D-01
1  0.0000000000000D+00 -0.0000000000000D+00 -0.0000000000000D+00
2  1.0000000000000D-02 -6.0346001916607D-02 -1.5532895955045D-02
3  2.0000000000000D-02 -1.2058067530706D-01 -3.0842809988225D-02
4  3.0000000000000D-02 -1.8059321802968D-01 -4.5710906173519D-02
5  4.0000000000000D-02 -2.4027387412411D-01 -5.9926565339768D-02
6  5.0000000000000D-02 -2.9951444053704D-01 -7.3291306639926D-02
7  6.0000000000000D-02 -3.5820875450006D-01 -8.5622488518436D-02
8  7.0000000000000D-02 -4.1625315558991D-01 -9.6756721439577D-02
9  8.0000000000000D-02 -4.7354691689884D-01 -1.0655292963427D-01
10  9.0000000000000D-02 -5.2999264024014D-01 -1.1489500518493D-01
11  1.0000000000000D-01 -5.8549661086585D-01 -1.2169400462076D-01
12  1.1000000000000D-01 -6.3996910783244D-01 -1.2688984616957D-01
13  1.2000000000000D-01 -6.9332466684474D-01 -1.3045247432047D-01
14  1.3000000000000D-01 -7.4548229317496D-01 -1.3238246753078D-01
15  1.4000000000000D-01 -7.9636562294056D-01 -1.3271107421926D-01
16  1.5000000000000D-01 -8.4590303211290D-01 -1.3149967283521D-01
17  1.6000000000000D-01 -8.9402769300331D-01 -1.2883866086793D-01
18  1.7000000000000D-01 -9.4067757937230D-01 -1.2484578772736D-01
19  1.8000000000000D-01 -9.8579542150400D-01 -1.1966395735768D-01
20  1.9000000000000D-01 -1.0293286139308D+00 -1.1345853386801D-01
21  2.0000000000000D-01 -1.0712290788672D+00 -1.0641419374794D-01
22  2.1000000000000D-01 -1.1114530892657D+00 -9.8731375895815D-02
23  2.2000000000000D-01 -1.1499610559143D+00 -9.0622385597685D-02
24  2.3000000000000D-01 -1.1867172839504D+00 -8.2307224766947D-02
25  2.4000000000000D-01 -1.2216897038374D+00 -7.4009206247958D-02
26  2.5000000000000D-01 -1.2548495829428D+00 -6.5950433587640D-02
27  2.6000000000000D-01 -1.2861712247631D+00 -5.8347235868215D-02
28  2.7000000000000D-01 -1.3156316605526D+00 -5.1405607161567D-02
29  2.8000000000000D-01 -1.3432103406950D+00 -4.5316746564908D-02
30  2.9000000000000D-01 -1.3688888334003D+00 -4.0252793670555D-02
31  3.0000000000000D-01 -1.3926505350274D+00 -3.6362801756455D-02
32  3.1000000000000D-01 -1.4144804002063D+00 -3.3769054188335D-02
33  3.2000000000000D-01 -1.4343646948386D+00 -3.2563750148652D-02
34  3.3000000000000D-01 -1.4522907789222D+00 -3.2806147234097D-02
35  3.4000000000000D-01 -1.4682469297934D+00 -3.4520296953436D-02
36  3.5000000000000D-01 -1.4822221919049D+00 -3.7693158595618D-02
37  3.6000000000000D-01 -1.4942062865544D+00 -4.2273559863395D-02
38  3.7000000000000D-01 -1.5041895465698D+00 -4.8171492504477D-02
39  3.8000000000000D-01 -1.5121629173007D+00 -5.5258319614292D-02
40  3.9000000000000D-01 -1.5181179954679D+00 -6.3367483621492D-02
41  4.0000000000000D-01 -1.5220471173264D+00 -7.2295872152896D-02
42  4.1000000000000D-01 -1.5239434989525D+00 -8.1805872895085D-02
43  4.2000000000000D-01 -1.5238014220849D+00 -9.1628023037130D-02
44  4.3000000000000D-01 -1.5216164641071D+00 -1.0146423270044D-01
45  4.4000000000000D-01 -1.5173857702872D+00 -1.1099155545611D-01
46  4.5000000000000D-01 -1.5111083639566D+00 -1.1986644805946D-01
47  4.6000000000000D-01 -1.5027854888103D+00 -1.2772944258913D-01
48  4.7000000000000D-01 -1.4924209793843D+00 -1.3421018256046D-01
49  4.8000000000000D-01 -1.4800216612914D+00 -1.3893285066350D-01
50  4.9000000000000D-01 -1.4655977561143D+00 -1.4152165215297D-01
51  5.0000000000000D-01 -1.4491632971609D+00 -1.4160645172128D-01
52  5.1000000000000D-01 -1.4307365426959D+00 -1.3882839087368D-01
53  5.2000000000000D-01 -1.4103404297418D+00 -1.3284608899979D-01
54  5.3000000000000D-01 -1.3880029235188D+00 -1.2334046168391D-01
55  5.4000000000000D-01 -1.3637574307520D+00 -1.1002047131197D-01
56  5.5000000000000D-01 -1.3376431738751D+00 -9.2628429795897D-02
57  5.6000000000000D-01 -1.3097054385603D+00 -7.0943640312831D-02
58  5.7000000000000D-01 -1.2799959750317D+00 -4.4788314768720D-02
59  5.8000000000000D-01 -1.2485730810195D+00 -1.4029172703361D-02
60  5.9000000000000D-01 -1.2155019370451D+00  2.1417200231910D-02
61  6.0000000000000D-01 -1.1808545947123D+00  6.1583752943143D-02
62  6.1000000000000D-01 -1.1447101159652D+00  1.0644993507110D-01
63  6.2000000000000D-01 -1.1071545611983D+00  1.5594056024761D-01
64  6.3000000000000D-01 -1.0682808322962D+00  2.0992667829405D-01
65  6.4000000000000D-01 -1.0281886562347D+00  2.6822363884340D-01
66  6.5000000000000D-01 -9.8698426089057D-01  3.3059380455768D-01
67  6.6000000000000D-01 -9.4478010148638D-01  3.9674814886980D-01
68  6.7000000000000D-01 -9.0169453526100D-01  4.6634762813541D-01
69  6.8000000000000D-01 -8.5785134883678D-01  5.3900703672335D-01
70  6.9000000000000D-01 -8.1337926368569D-01  6.1429866196390D-01
71  7.0000000000000D-01 -7.6841139627557D-01  6.9175639131548D-01
72  7.1000000000000D-01 -7.2308459449851D-01  7.7088032385955D-01
73  7.2000000000000D-01 -6.7753876272549D-01  8.5114223019472D-01
74  7.3000000000000D-01 -6.3191615105409D-01  9.3199105531857D-01
75  7.4000000000000D-01 -5.8636057854422D-01  1.0128587569034D+00
76  7.5000000000000D-01 -5.4101662671921D-01  1.0931663911980D+00
77  7.6000000000000D-01 -4.9602882552766D-01  1.1723302182499D+00
78  7.7000000000000D-01 -4.5154078431238D-01  1.2497680416423D+00
79  7.8000000000000D-01 -4.0769424428536D-01  1.3249059395943D+00
80  7.9000000000000D-01 -3.6462832204025D-01  1.3971837297566D+00
81  8.0000000000000D-01 -3.2247860368475D-01  1.4660611081331D+00
82  8.1000000000000D-01 -2.8137629174178D-01  1.5310232953150D+00
83  8.2000000000000D-01 -2.4144737301524D-01  1.5915863371934D+00
84  8.3000000000000D-01 -2.0281181534260D-01  1.6473019945897D+00
85  8.4000000000000D-01 -1.6558280080969D-01  1.6977621633892D+00
86  8.5000000000000D-01 -1.2986600257775D-01  1.7426027746546D+00
87  8.6000000000000D-01 -9.5758911977595D-02  1.7815071326755D+00
88  8.7000000000000D-01 -6.3350221968423D-02  1.8142086578779D+00
89  8.8000000000000D-01 -3.2719272444572D-02  1.8404930108252D+00
90  8.9000000000000D-01 -3.9355622077679D-03  1.8601995831077D+00
91  9.0000000000000D-01  2.2941668292863D-02  1.8732223506191D+00
92  9.1000000000000D-01  4.7863780113625D-02  1.8795100944616D+00
93  9.2000000000000D-01  7.0793002331782D-02  1.8790660043772D+00
94  9.3000000000000D-01  9.1702530847894D-02  1.8719463012886D+00
95  9.4000000000000D-01  1.1057679000438D-01  1.8582594465267D+00
96  9.5000000000000D-01  1.2741155647064D-01  1.8381643383816D+00
97  9.6000000000000D-01  1.4221365753221D-01  1.8118666486330D+00
98  9.7000000000000D-01  1.5500094856273D-01  1.7796163152505D+00
99  9.8000000000000D-01  1.6580211004751D-01  1.7417041833690D+00
100  9.9000000000000D-01  1.7465637206313D-01  1.6984583441353D+00
101  1.0000000000000D+00  1.8161317046603D-01  1.6502402402672D+00
102  1.0100000000000D+00  1.8673158080569D-01  1.5974406092136D+00
103  1.0200000000000D+00  1.9008037031151D-01  1.5404758338637D+00
104  1.0300000000000D+00  1.9173702336417D-01  1.4797826263945D+00
105  1.0400000000000D+00  1.9178717506719D-01  1.4158140707338D+00
106  1.0500000000000D+00  1.9032404816202D-01  1.3490355423462D+00
107  1.0600000000000D+00  1.8744779501200D-01  1.2799212840038D+00
108  1.0700000000000D+00  1.8326492768265D-01  1.2089502647630D+00
109  1.0800000000000D+00  1.7788739329016D-01  1.1365999675729D+00
110  1.0900000000000D+00  1.7143178603777D-01  1.0633456318497D+00
111  1.1000000000000D+00  1.6401863974257D-01  9.8965645525480D-01
112  1.1100000000000D+00  1.5577206491465D-01  9.1599580061588D-01
113  1.1200000000000D+00  1.4681796206341D-01  8.4280977625729D-01
114  1.1300000000000D+00  1.3728375843322D-01  7.7053172984280D-01
115  1.1400000000000D+00  1.2729764353136D-01  6.9957966602823D-01
116  1.1500000000000D+00  1.1698865825273D-01  6.3035846110742D-01
117  1.1600000000000D+00  1.0648337561744D-01  5.6324513437906D-01
118  1.1700000000000D+00  9.5906995630997D-02  4.9859926705771D-01
119  1.1800000000000D+00  8.5382827685078D-02  4.3676183802927D-01
120  1.1900000000000D+00  7.5031327562487D-02  3.7805253472999D-01
121  1.2000000000000D+00  6.4966845338270D-02  3.2276118069214D-01
122  1.2100000000000D+00  5.5299980123614D-02  2.7115910386738D-01
123  1.2200000000000D+00  4.6138103994719D-02  2.2350063410564D-01
124  1.2300000000000D+00  3.7578400616761D-02  1.8000422501932D-01
125  1.2400000000000D+00  2.9712621303824D-02  1.4086952636721D-01
126  1.2500000000000D+00  2.2627704954841D-02  1.0627857025523D-01
127  1.2600000000000D+00  1.6398707895453D-02  7.6378712855541D-02
128  1.2700000000000D+00  1.1092519705034D-02  5.1293941480436D-02
129  1.2800000000000D+00  6.7705466412777D-03  3.1131171788250D-02
130  1.2900000000000D+00  3.4797523646719D-03  1.5959175041813D-02
131  1.3000000000000D+00  1.2652694667643D-03  5.8550742440551D-03
132  1.3100000000000D+00  2.1698757932569D-04  1.1080171602735D-03
133  1.3200000000000D+00 -9.2324568175936D-05 -3.2736959584749D-04
134  1.3300000000000D+00 -1.2921037975272D-05 -5.2594320140787D-05
135  1.3400000000000D+00  5.7080672809906D-07 -5.2468971889913D-06
136  1.3500000000000D+00  0.0000000000000D+00  0.0000000000000D+00
137  1.3600000000000D+00  0.0000000000000D+00  0.0000000000000D+00
138  1.3700000000000D+00  0.0000000000000D+00  0.0000000000000D+00
139  1.3800000000000D+00  0.0000000000000D+00  0.0000000000000D+00
140  1.3900000000000D+00  0.0000000000000D+00  0.0000000000000D+00
141  1.4000000000000D+00  0.0000000000000D+00  0.0000000000000D+00
142  1.4100000000000D+00  0.0000000000000D+00  0.0000000000000D+00
143  1.4200000000000D+00  0.0000000000000D+00  0.0000000000000D+00
144  1.4300000000000D+00  0.0000000000000D+00  0.0000000000000D+00
145  1.4400000000000D+00  0.0000000000000D+00  0.0000000000000D+00
146  1.4500000000000D+00  0.0000000000000D+00  0.0000000000000D+00
147  1.4600000000000D+00  0.0000000000000D+00  0.0000000000000D+00
148  1.4700000000000D+00  0.0000000000000D+00  0.0000000000000D+00
149  1.4800000000000D+00  0.0000000000000D+00  0.0000000000000D+00
150  1.4900000000000D+00  0.0000000000000D+00  0.0000000000000D+00
151  1.5000000000000D+00  0.0000000000000D+00  0.0000000000000D+00
152  1.5100000000000D+00  0.0000000000000D+00  0.0000000000000D+00
153  1.5200000000000D+00  0.0000000000000D+00  0.0000000000000D+00
154  1.5300000000000D+00  0.0000000000000D+00  0.0000000000000D+00
155  1.5400000000000D+00  0.0000000000000D+00  0.0000000000000D+00
156  1.5500000000000D+00  0.0000000000000D+00  0.0000000000000D+00
157  1.5600000000000D+00  0.0000000000000D+00  0.0000000000000D+00
158  1.5700000000000D+00  0.0000000000000D+00  0.0000000000000D+00
159  1.5800000000000D+00  0.0000000000000D+00  0.0000000000000D+00
160  1.5900000000000D+00  0.0000000000000D+00  0.0000000000000D+00
161  1.6000000000000D+00  0.0000000000000D+00  0.0000000000000D+00
162  1.6100000000000D+00  0.0000000000000D+00  0.0000000000000D+00
163  1.6200000000000D+00  0.0000000000000D+00  0.0000000000000D+00
164  1.6300000000000D+00  0.0000000000000D+00  0.0000000000000D+00
165  1.6400000000000D+00  0.0000000000000D+00  0.0000000000000D+00
166  1.6500000000000D+00  0.0000000000000D+00  0.0000000000000D+00
167  1.6600000000000D+00  0.0000000000000D+00  0.0000000000000D+00
168  1.6700000000000D+00  0.0000000000000D+00  0.0000000000000D+00
169  1.6800000000000D+00  0.0000000000000D+00  0.0000000000000D+00
170  1.6900000000000D+00  0.0000000000000D+00  0.0000000000000D+00
171  1.7000000000000D+00  0.0000000000000D+00  0.0000000000000D+00
172  1.7100000000000D+00  0.0000000000000D+00  0.0000000000000D+00
173  1.7200000000000D+00  0.0000000000000D+00  0.0000000000000D+00
174  1.7300000000000D+00  0.0000000000000D+00  0.0000000000000D+00
175  1.7400000000000D+00  0.0000000000000D+00  0.0000000000000D+00
176  1.7500000000000D+00  0.0000000000000D+00  0.0000000000000D+00
177  1.7600000000000D+00  0.0000000000000D+00  0.0000000000000D+00
178  1.7700000000000D+00  0.0000000000000D+00  0.0000000000000D+00
179  1.7800000000000D+00  0.0000000000000D+00  0.0000000000000D+00
180  1.7900000000000D+00  0.0000000000000D+00  0.0000000000000D+00
181  1.8000000000000D+00  0.0000000000000D+00  0.0000000000000D+00
182  1.8100000000000D+00  0.0000000000000D+00  0.0000000000000D+00
183  1.8200000000000D+00  0.0000000000000D+00  0.0000000000000D+00
184  1.8300000000000D+00  0.0000000000000D+00  0.0000000000000D+00
185  1.8400000000000D+00  0.0000000000000D+00  0.0000000000000D+00
186  1.8500000000000D+00  0.0000000000000D+00  0.0000000000000D+00
187  1.8600000000000D+00  0.0000000000000D+00  0.0000000000000D+00
188  1.8700000000000D+00  0.0000000000000D+00  0.0000000000000D+00
189  1.8800000000000D+00  0.0000000000000D+00  0.0000000000000D+00
190  1.8900000000000D+00  0.0000000000000D+00  0.0000000000000D+00
191  1.9000000000000D+00  0.0000000000000D+00  0.0000000000000D+00
192  1.9100000000000D+00  0.0000000000000D+00  0.0000000000000D+00
193  1.9200000000000D+00  0.0000000000000D+00  0.0000000000000D+00
194  1.9300000000000D+00  0.0000000000000D+00  0.0000000000000D+00
195  1.9400000000000D+00  0.0000000000000D+00  0.0000000000000D+00
196  1.9500000000000D+00  0.0000000000000D+00  0.0000000000000D+00
197  1.9600000000000D+00  0.0000000000000D+00  0.0000000000000D+00
198  1.9700000000000D+00  0.0000000000000D+00  0.0000000000000D+00
199  1.9800000000000D+00  0.0000000000000D+00  0.0000000000000D+00
200  1.9900000000000D+00  0.0000000000000D+00  0.0000000000000D+00
201  2.0000000000000D+00  0.0000000000000D+00  0.0000000000000D+00
202  2.0100000000000D+00  0.0000000000000D+00  0.0000000000000D+00
203  2.0200000000000D+00  0.0000000000000D+00  0.0000000000000D+00
204  2.0300000000000D+00  0.0000000000000D+00  0.0000000000000D+00
205  2.0400000000000D+00  0.0000000000000D+00  0.0000000000000D+00
206  2.0500000000000D+00  0.0000000000000D+00  0.0000000000000D+00
207  2.0600000000000D+00  0.0000000000000D+00  0.0000000000000D+00
208  2.0700000000000D+00  0.0000000000000D+00  0.0000000000000D+00
209  2.0800000000000D+00  0.0000000000000D+00  0.0000000000000D+00
210  2.0900000000000D+00  0.0000000000000D+00  0.0000000000000D+00
211  2.1000000000000D+00  0.0000000000000D+00  0.0000000000000D+00
212  2.1100000000000D+00  0.0000000000000D+00  0.0000000000000D+00
213  2.1200000000000D+00  0.0000000000000D+00  0.0000000000000D+00
214  2.1300000000000D+00  0.0000000000000D+00  0.0000000000000D+00
215  2.1400000000000D+00  0.0000000000000D+00  0.0000000000000D+00
216  2.1500000000000D+00  0.0000000000000D+00  0.0000000000000D+00
217  2.1600000000000D+00  0.0000000000000D+00  0.0000000000000D+00
218  2.1700000000000D+00  0.0000000000000D+00  0.0000000000000D+00
219  2.1800000000000D+00  0.0000000000000D+00  0.0000000000000D+00
220  2.1900000000000D+00  0.0000000000000D+00  0.0000000000000D+00
221  2.2000000000000D+00  0.0000000000000D+00  0.0000000000000D+00
222  2.2100000000000D+00  0.0000000000000D+00  0.0000000000000D+00
223  2.2200000000000D+00  0.0000000000000D+00  0.0000000000000D+00
224  2.2300000000000D+00  0.0000000000000D+00  0.0000000000000D+00
225  2.2400000000000D+00  0.0000000000000D+00  0.0000000000000D+00
226  2.2500000000000D+00  0.0000000000000D+00  0.0000000000000D+00
227  2.2600000000000D+00  0.0000000000000D+00  0.0000000000000D+00
228  2.2700000000000D+00  0.0000000000000D+00  0.0000000000000D+00
229  2.2800000000000D+00  0.0000000000000D+00  0.0000000000000D+00
230  2.2900000000000D+00  0.0000000000000D+00  0.0000000000000D+00
231  2.3000000000000D+00  0.0000000000000D+00  0.0000000000000D+00
232  2.3100000000000D+00  0.0000000000000D+00  0.0000000000000D+00
233  2.3200000000000D+00  0.0000000000000D+00  0.0000000000000D+00
234  2.3300000000000D+00  0.0000000000000D+00  0.0000000000000D+00
235  2.3400000000000D+00  0.0000000000000D+00  0.0000000000000D+00
236  2.3500000000000D+00  0.0000000000000D+00  0.0000000000000D+00
237  2.3600000000000D+00  0.0000000000000D+00  0.0000000000000D+00
238  2.3700000000000D+00  0.0000000000000D+00  0.0000000000000D+00
239  2.3800000000000D+00  0.0000000000000D+00  0.0000000000000D+00
240  2.3900000000000D+00  0.0000000000000D+00  0.0000000000000D+00
241  2.4000000000000D+00  0.0000000000000D+00  0.0000000000000D+00
242  2.4100000000000D+00  0.0000000000000D+00  0.0000000000000D+00
243  2.4200000000000D+00  0.0000000000000D+00  0.0000000000000D+00
244  2.4300000000000D+00  0.0000000000000D+00  0.0000000000000D+00
245  2.4400000000000D+00  0.0000000000000D+00  0.0000000000000D+00
246  2.4500000000000D+00  0.0000000000000D+00  0.0000000000000D+00
247  2.4600000000000D+00  0.0000000000000D+00  0.0000000000000D+00
248  2.4700000000000D+00  0.0000000000000D+00  0.0000000000000D+00
249  2.4800000000000D+00  0.0000000000000D+00  0.0000000000000D+00
250  2.4900000000000D+00  0.0000000000000D+00  0.0000000000000D+00
251  2.5000000000000D+00  0.0000000000000D+00  0.0000000000000D+00
252  2.5100000000000D+00  0.0000000000000D+00  0.0000000000000D+00
253  2.5200000000000D+00  0.0000000000000D+00  0.0000000000000D+00
254  2.5300000000000D+00  0.0000000000000D+00  0.0000000000000D+00
255  2.5400000000000D+00  0.0000000000000D+00  0.0000000000000D+00
256  2.5500000000000D+00  0.0000000000000D+00  0.0000000000000D+00
257  2.5600000000000D+00  0.0000000000000D+00  0.0000000000000D+00
258  2.5700000000000D+00  0.0000000000000D+00  0.0000000000000D+00
259  2.5800000000000D+00  0.0000000000000D+00  0.0000000000000D+00
260  2.5900000000000D+00  0.0000000000000D+00  0.0000000000000D+00
261  2.6000000000000D+00  0.0000000000000D+00  0.0000000000000D+00
262  2.6100000000000D+00  0.0000000000000D+00  0.0000000000000D+00
263  2.6200000000000D+00  0.0000000000000D+00  0.0000000000000D+00
264  2.6300000000000D+00  0.0000000000000D+00  0.0000000000000D+00
265  2.6400000000000D+00  0.0000000000000D+00  0.0000000000000D+00
266  2.6500000000000D+00  0.0000000000000D+00  0.0000000000000D+00
267  2.6600000000000D+00  0.0000000000000D+00  0.0000000000000D+00
268  2.6700000000000D+00  0.0000000000000D+00  0.0000000000000D+00
269  2.6800000000000D+00  0.0000000000000D+00  0.0000000000000D+00
270  2.6900000000000D+00  0.0000000000000D+00  0.0000000000000D+00
271  2.7000000000000D+00  0.0000000000000D+00  0.0000000000000D+00
272  2.7100000000000D+00  0.0000000000000D+00  0.0000000000000D+00
273  2.7200000000000D+00  0.0000000000000D+00  0.0000000000000D+00
274  2.7300000000000D+00  0.0000000000000D+00  0.0000000000000D+00
275  2.7400000000000D+00  0.0000000000000D+00  0.0000000000000D+00
276  2.7500000000000D+00  0.0000000000000D+00  0.0000000000000D+00
277  2.7600000000000D+00  0.0000000000000D+00  0.0000000000000D+00
278  2.7700000000000D+00  0.0000000000000D+00  0.0000000000000D+00
279  2.7800000000000D+00  0.0000000000000D+00  0.0000000000000D+00
280  2.7900000000000D+00  0.0000000000000D+00  0.0000000000000D+00
281  2.8000000000000D+00  0.0000000000000D+00  0.0000000000000D+00
282  2.8100000000000D+00  0.0000000000000D+00  0.0000000000000D+00
283  2.8200000000000D+00  0.0000000000000D+00  0.0000000000000D+00
284  2.8300000000000D+00  0.0000000000000D+00  0.0000000000000D+00
285  2.8400000000000D+00  0.0000000000000D+00  0.0000000000000D+00
286  2.8500000000000D+00  0.0000000000000D+00  0.0000000000000D+00
287  2.8600000000000D+00  0.0000000000000D+00  0.0000000000000D+00
288  2.8700000000000D+00  0.0000000000000D+00  0.0000000000000D+00
289  2.8800000000000D+00  0.0000000000000D+00  0.0000000000000D+00
290  2.8900000000000D+00  0.0000000000000D+00  0.0000000000000D+00
291  2.9000000000000D+00  0.0000000000000D+00  0.0000000000000D+00
292  2.9100000000000D+00  0.0000000000000D+00  0.0000000000000D+00
293  2.9200000000000D+00  0.0000000000000D+00  0.0000000000000D+00
294  2.9300000000000D+00  0.0000000000000D+00  0.0000000000000D+00
295  2.9400000000000D+00  0.0000000000000D+00  0.0000000000000D+00
296  2.9500000000000D+00  0.0000000000000D+00  0.0000000000000D+00
297  2.9600000000000D+00  0.0000000000000D+00  0.0000000000000D+00
298  2.9700000000000D+00  0.0000000000000D+00  0.0000000000000D+00
299  2.9800000000000D+00  0.0000000000000D+00  0.0000000000000D+00
300  2.9900000000000D+00  0.0000000000000D+00  0.0000000000000D+00
301  3.0000000000000D+00  0.0000000000000D+00  0.0000000000000D+00
302  3.0100000000000D+00  0.0000000000000D+00  0.0000000000000D+00
303  3.0200000000000D+00  0.0000000000000D+00  0.0000000000000D+00
304  3.0300000000000D+00  0.0000000000000D+00  0.0000000000000D+00
305  3.0400000000000D+00  0.0000000000000D+00  0.0000000000000D+00
306  3.0500000000000D+00  0.0000000000000D+00  0.0000000000000D+00
307  3.0600000000000D+00  0.0000000000000D+00  0.0000000000000D+00
308  3.0700000000000D+00  0.0000000000000D+00  0.0000000000000D+00
309  3.0800000000000D+00  0.0000000000000D+00  0.0000000000000D+00
310  3.0900000000000D+00  0.0000000000000D+00  0.0000000000000D+00
311  3.1000000000000D+00  0.0000000000000D+00  0.0000000000000D+00
312  3.1100000000000D+00  0.0000000000000D+00  0.0000000000000D+00
313  3.1200000000000D+00  0.0000000000000D+00  0.0000000000000D+00
314  3.1300000000000D+00  0.0000000000000D+00  0.0000000000000D+00
315  3.1400000000000D+00  0.0000000000000D+00  0.0000000000000D+00
316  3.1500000000000D+00  0.0000000000000D+00  0.0000000000000D+00
317  3.1600000000000D+00  0.0000000000000D+00  0.0000000000000D+00
318  3.1700000000000D+00  0.0000000000000D+00  0.0000000000000D+00
319  3.1800000000000D+00  0.0000000000000D+00  0.0000000000000D+00
320  3.1900000000000D+00  0.0000000000000D+00  0.0000000000000D+00
321  3.2000000000000D+00  0.0000000000000D+00  0.0000000000000D+00
322  3.2100000000000D+00  0.0000000000000D+00  0.0000000000000D+00
323  3.2200000000000D+00  0.0000000000000D+00  0.0000000000000D+00
324  3.2300000000000D+00  0.0000000000000D+00  0.0000000000000D+00
325  3.2400000000000D+00  0.0000000000000D+00  0.0000000000000D+00
326  3.2500000000000D+00  0.0000000000000D+00  0.0000000000000D+00
327  3.2600000000000D+00  0.0000000000000D+00  0.0000000000000D+00
328  3.2700000000000D+00  0.0000000000000D+00  0.0000000000000D+00
329  3.2800000000000D+00  0.0000000000000D+00  0.0000000000000D+00
330  3.2900000000000D+00  0.0000000000000D+00  0.0000000000000D+00
331  3.3000000000000D+00  0.0000000000000D+00  0.0000000000000D+00
332  3.3100000000000D+00  0.0000000000000D+00  0.0000000000000D+00
333  3.3200000000000D+00  0.0000000000000D+00  0.0000000000000D+00
334  3.3300000000000D+00  0.0000000000000D+00  0.0000000000000D+00
335  3.3400000000000D+00  0.0000000000000D+00  0.0000000000000D+00
336  3.3500000000000D+00  0.0000000000000D+00  0.0000000000000D+00
337  3.3600000000000D+00  0.0000000000000D+00  0.0000000000000D+00
338  3.3700000000000D+00  0.0000000000000D+00  0.0000000000000D+00
339  3.3800000000000D+00  0.0000000000000D+00  0.0000000000000D+00
340  3.3900000000000D+00  0.0000000000000D+00  0.0000000000000D+00
341  3.4000000000000D+00  0.0000000000000D+00  0.0000000000000D+00
342  3.4100000000000D+00  0.0000000000000D+00  0.0000000000000D+00
343  3.4200000000000D+00  0.0000000000000D+00  0.0000000000000D+00
344  3.4300000000000D+00  0.0000000000000D+00  0.0000000000000D+00
345  3.4400000000000D+00  0.0000000000000D+00  0.0000000000000D+00
346  3.4500000000000D+00  0.0000000000000D+00  0.0000000000000D+00
347  3.4600000000000D+00  0.0000000000000D+00  0.0000000000000D+00
348  3.4700000000000D+00  0.0000000000000D+00  0.0000000000000D+00
349  3.4800000000000D+00  0.0000000000000D+00  0.0000000000000D+00
350  3.4900000000000D+00  0.0000000000000D+00  0.0000000000000D+00
351  3.5000000000000D+00  0.0000000000000D+00  0.0000000000000D+00
352  3.5100000000000D+00  0.0000000000000D+00  0.0000000000000D+00
353  3.5200000000000D+00  0.0000000000000D+00  0.0000000000000D+00
354  3.5300000000000D+00  0.0000000000000D+00  0.0000000000000D+00
355  3.5400000000000D+00  0.0000000000000D+00  0.0000000000000D+00
356  3.5500000000000D+00  0.0000000000000D+00  0.0000000000000D+00
357  3.5600000000000D+00  0.0000000000000D+00  0.0000000000000D+00
358  3.5700000000000D+00  0.0000000000000D+00  0.0000000000000D+00
359  3.5800000000000D+00  0.0000000000000D+00  0.0000000000000D+00
360  3.5900000000000D+00  0.0000000000000D+00  0.0000000000000D+00
361  3.6000000000000D+00  0.0000000000000D+00  0.0000000000000D+00
362  3.6100000000000D+00  0.0000000000000D+00  0.0000000000000D+00
363  3.6200000000000D+00  0.0000000000000D+00  0.0000000000000D+00
364  3.6300000000000D+00  0.0000000000000D+00  0.0000000000000D+00
365  3.6400000000000D+00  0.0000000000000D+00  0.0000000000000D+00
366  3.6500000000000D+00  0.0000000000000D+00  0.0000000000000D+00
367  3.6600000000000D+00  0.0000000000000D+00  0.0000000000000D+00
368  3.6700000000000D+00  0.0000000000000D+00  0.0000000000000D+00
369  3.6800000000000D+00  0.0000000000000D+00  0.0000000000000D+00
370  3.6900000000000D+00  0.0000000000000D+00  0.0000000000000D+00
371  3.7000000000000D+00  0.0000000000000D+00  0.0000000000000D+00
372  3.7100000000000D+00  0.0000000000000D+00  0.0000000000000D+00
373  3.7200000000000D+00  0.0000000000000D+00  0.0000000000000D+00
374  3.7300000000000D+00  0.0000000000000D+00  0.0000000000000D+00
375  3.7400000000000D+00  0.0000000000000D+00  0.0000000000000D+00
376  3.7500000000000D+00  0.0000000000000D+00  0.0000000000000D+00
377  3.7600000000000D+00  0.0000000000000D+00  0.0000000000000D+00
378  3.7700000000000D+00  0.0000000000000D+00  0.0000000000000D+00
379  3.7800000000000D+00  0.0000000000000D+00  0.0000000000000D+00
380  3.7900000000000D+00  0.0000000000000D+00  0.0000000000000D+00
381  3.8000000000000D+00  0.0000000000000D+00  0.0000000000000D+00
382  3.8100000000000D+00  0.0000000000000D+00  0.0000000000000D+00
383  3.8200000000000D+00  0.0000000000000D+00  0.0000000000000D+00
384  3.8300000000000D+00  0.0000000000000D+00  0.0000000000000D+00
385  3.8400000000000D+00  0.0000000000000D+00  0.0000000000000D+00
386  3.8500000000000D+00  0.0000000000000D+00  0.0000000000000D+00
387  3.8600000000000D+00  0.0000000000000D+00  0.0000000000000D+00
388  3.8700000000000D+00  0.0000000000000D+00  0.0000000000000D+00
389  3.8800000000000D+00  0.0000000000000D+00  0.0000000000000D+00
390  3.8900000000000D+00  0.0000000000000D+00  0.0000000000000D+00
391  3.9000000000000D+00  0.0000000000000D+00  0.0000000000000D+00
392  3.9100000000000D+00  0.0000000000000D+00  0.0000000000000D+00
393  3.9200000000000D+00  0.0000000000000D+00  0.0000000000000D+00
394  3.9300000000000D+00  0.0000000000000D+00  0.0000000000000D+00
395  3.9400000000000D+00  0.0000000000000D+00  0.0000000000000D+00
396  3.9500000000000D+00  0.0000000000000D+00  0.0000000000000D+00
397  3.9600000000000D+00  0.0000000000000D+00  0.0000000000000D+00
398  3.9700000000000D+00  0.0000000000000D+00  0.0000000000000D+00
399  3.9800000000000D+00  0.0000000000000D+00  0.0000000000000D+00
400  3.9900000000000D+00  0.0000000000000D+00  0.0000000000000D+00
401  4.0000000000000D+00  0.0000000000000D+00  0.0000000000000D+00
1                         3.5117691646686D+00  6.8756345053194D-01
1  0.0000000000000D+00 -0.0000000000000D+00 -0.0000000000000D+00
2  1.0000000000000D-02 -2.3390714519410D-03 -2.2653159356559D-03
3  2.0000000000000D-02 -9.3221411593271D-03 -8.9910510483452D-03
4  3.0000000000000D-02 -2.0847437501971D-02 -1.9968110998885D-02
5  4.0000000000000D-02 -3.6747535909114D-02 -3.4853120107606D-02
6  5.0000000000000D-02 -5.6792605961692D-02 -5.3175986034826D-02
7  6.0000000000000D-02 -8.0694868036329D-02 -7.4350277165523D-02
8  7.0000000000000D-02 -1.0811417224436D-01 -9.7686204464539D-02
9  8.0000000000000D-02 -1.3866459036763D-01 -1.2240594698903D-01
10  9.0000000000000D-02 -1.7192189156363D-01 -1.4766101276335D-01
11  1.0000000000000D-01 -2.0743175508235D-01 -1.7255128501368D-01
12  1.1000000000000D-01 -2.4471855861449D-01 -1.9614536902979D-01
13  1.2000000000000D-01 -2.8329456930147D-01 -2.1750182748518D-01
14  1.3000000000000D-01 -3.2266935623453D-01 -2.3569087272938D-01
15  1.4000000000000D-01 -3.6235923808897D-01 -2.4981607259994D-01
16  1.5000000000000D-01 -4.0189657938766D-01 -2.5903562612144D-01
17  1.6000000000000D-01 -4.4083874967180D-01 -2.6258276811720D-01
18  1.7000000000000D-01 -4.7877656765727D-01 -2.5978488026463D-01
19  1.8000000000000D-01 -5.1534206028995D-01 -2.5008090610764D-01
20  1.9000000000000D-01 -5.5021538065143D-01 -2.3303670077695D-01
21  2.0000000000000D-01 -5.8313074368408D-01 -2.0835798311976D-01
22  2.1000000000000D-01 -6.1388125773369D-01 -1.7590060370845D-01
23  2.2000000000000D-01 -6.4232254903449D-01 -1.3567788826064D-01
24  2.3000000000000D-01 -6.6837510653570D-01 -8.7864889513225D-02
25  2.4000000000000D-01 -6.9202528464538D-01 -3.2799404011749D-02
26  2.5000000000000D-01 -7.1332494006333D-01  2.9020295637798D-02
27  2.6000000000000D-01 -7.3238971539328D-01  9.6940975050509D-02
28  2.7000000000000D-01 -7.4939596687804D-01  1.7016319905559D-01
29  2.8000000000000D-01 -7.6457640079405D-01  2.4775317644028D-01
30  2.9000000000000D-01 -7.7821451703999D-01  3.2865744449346D-01
31  3.0000000000000D-01 -7.9063792321304D-01  4.1172023545138D-01
32  3.1000000000000D-01 -8.0221068254510D-01  4.9570312525994D-01
33  3.2000000000000D-01 -8.1332478349832D-01  5.7930674821600D-01
34  3.3000000000000D-01 -8.2439091748901D-01  6.6119412297179D-01
35  3.4000000000000D-01 -8.3582888892301D-01  7.4001480761111D-01
36  3.5000000000000D-01 -8.4805739769354D-01  8.1443050050549D-01
37  3.6000000000000D-01 -8.6148414193388D-01  8.8313981236636D-01
38  3.7000000000000D-01 -8.7649543708955D-01  9.4490412563282D-01
39  3.8000000000000D-01 -8.9344663570156D-01  9.9857146912247D-01
40  3.9000000000000D-01 -9.1265272625453D-01  1.0430998875941D+00
41  4.0000000000000D-01 -9.3437955130349D-01  1.0775792472721D+00
42  4.1000000000000D-01 -9.5883598915107D-01  1.1012506577595D+00