Nb    ONCVPSP  r_core=  1.46  1.40  1.36
41.0000     13.0000      160330    zatom,zion,pspd
8      11   2     4   600     0    pspcod,pspxc,lmax,lloc,mmax,r2well
5.99000000  5.00000000  0.00000000    rchrg fchrg qchrg
2     3     4     0    nproj
3                 extension_switch
4     4     0    nprojso
0                         1.2529975192027D+00  1.3053845617063D+01
1  0.0000000000000D+00 -5.2060533661802D-10  1.7217310910311D-10
2  1.0000000000000D-02 -1.1896801352894D-02  4.9923656385649D-02
3  2.0000000000000D-02 -2.3871546931097D-02  9.9832094033515D-02
4  3.0000000000000D-02 -3.6000678515318D-02  1.4970960736305D-01
5  4.0000000000000D-02 -4.8357648396758D-02  1.9953952231350D-01
6  5.0000000000000D-02 -6.1011462998993D-02  2.4930372507327D-01
7  6.0000000000000D-02 -7.4025272169562D-02  2.9898220625013D-01
8  7.0000000000000D-02 -8.7455018750326D-02  3.4855262542617D-01
9  8.0000000000000D-02 -1.0134816251504D-01  3.9798990086914D-01
10  9.0000000000000D-02 -1.1574249191916D-01  4.4726582895896D-01
11  1.0000000000000D-01 -1.3066503634536D-01  4.9634873763653D-01
12  1.1000000000000D-01 -1.4613109065428D-01  5.4520317789276D-01
13  1.2000000000000D-01 -1.6214336287016D-01  5.9378965699183D-01
14  1.3000000000000D-01 -1.7869125475322D-01  6.4206441676618D-01
15  1.4000000000000D-01 -1.9575028384172D-01  6.8997925993427D-01
16  1.5000000000000D-01 -2.1328165429747D-01  7.3748142697888D-01
17  1.6000000000000D-01 -2.3123198256697D-01  7.8451352568672D-01
18  1.7000000000000D-01 -2.4953318248771D-01  8.3101351499259D-01
19  1.8000000000000D-01 -2.6810251303634D-01  8.7691474429720D-01
20  1.9000000000000D-01 -2.8684279044261D-01  9.2214604894045D-01
21  2.0000000000000D-01 -3.0564276489394D-01  9.6663190201514D-01
22  2.1000000000000D-01 -3.2437766054018D-01  1.0102926222043D+00
23  2.2000000000000D-01 -3.4290987599102D-01  1.0530446368222D+00
24  2.3000000000000D-01 -3.6108984099044D-01  1.0948007987377D+00
25  2.4000000000000D-01 -3.7875702346785D-01  1.1354707553669D+00
26  2.5000000000000D-01 -3.9574107971559D-01  1.1749613674372D+00
27  2.6000000000000D-01 -4.1186313904080D-01  1.2131771747584D+00
28  2.7000000000000D-01 -4.2693721289801D-01  1.2500209057886D+00
29  2.8000000000000D-01 -4.4077171724002D-01  1.2853940273547D+00
30  2.9000000000000D-01 -4.5317109564005D-01  1.3191973304902D+00
31  3.0000000000000D-01 -4.6393752964852D-01  1.3513315479839D+00
32  3.1000000000000D-01 -4.7287272186537D-01  1.3816979988959D+00
33  3.2000000000000D-01 -4.7977973634121D-01  1.4101992550006D+00
34  3.3000000000000D-01 -4.8446488017933D-01  1.4367398238567D+00
35  3.4000000000000D-01 -4.8673960960177D-01  1.4612268429873D+00
36  3.5000000000000D-01 -4.8642244327523D-01  1.4835707794796D+00
37  3.6000000000000D-01 -4.8334086537149D-01  1.5036861291913D+00
38  3.7000000000000D-01 -4.7733320066833D-01  1.5214921096672D+00
39  3.8000000000000D-01 -4.6825044398291D-01  1.5369133408478D+00
40  3.9000000000000D-01 -4.5595802637511D-01  1.5498805076664D+00
41  4.0000000000000D-01 -4.4033750086163D-01  1.5603309987072D+00
42  4.1000000000000D-01 -4.2128813084519D-01  1.5682095152187D+00
43  4.2000000000000D-01 -3.9872836508340D-01  1.5734686449469D+00
44  4.3000000000000D-01 -3.7259718379715D-01  1.5760693954763D+00
45  4.4000000000000D-01 -3.4285530144207D-01  1.5759816820339D+00
46  4.5000000000000D-01 -3.0948621273679D-01  1.5731847650287D+00
47  4.6000000000000D-01 -2.7249706974458D-01  1.5676676329552D+00
48  4.7000000000000D-01 -2.3191937913954D-01  1.5594293266917D+00
49  4.8000000000000D-01 -1.8780951023750D-01  1.5484792016606D+00
50  4.9000000000000D-01 -1.4024900592902D-01  1.5348371247931D+00
51  5.0000000000000D-01 -8.9344690301719D-02  1.5185336037412D+00
52  5.1000000000000D-01 -3.5228568469326D-02  1.4996098463149D+00
53  5.2000000000000D-01  2.1942484079758D-02  1.4781177486727D+00
54  5.3000000000000D-01  8.1987243455306D-02  1.4541198113673D+00
55  5.4000000000000D-01  1.4470086962405D-01  1.4276889829318D+00
56  5.5000000000000D-01  2.0985584602075D-01  1.3989084312864D+00
57  5.6000000000000D-01  2.7720312168529D-01  1.3678712438378D+00
58  5.7000000000000D-01  3.4647344922383D-01  1.3346800577409D+00
59  5.8000000000000D-01  4.1737891004943D-01  1.2994466223770D+00
60  5.9000000000000D-01  4.8961461657684D-01  1.2622912966733D+00
61  6.0000000000000D-01  5.6286057932626D-01  1.2233424844459D+00
62  6.1000000000000D-01  6.3678372527064D-01  1.1827360114804D+00
63  6.2000000000000D-01  7.1104005223834D-01  1.1406144485623D+00
64  6.3000000000000D-01  7.8527690278330D-01  1.0971263851474D+00
65  6.4000000000000D-01  8.5913533967693D-01  1.0524256587851D+00
66  6.5000000000000D-01  9.3225260405626D-01  1.0066705458077D+00
67  6.6000000000000D-01  1.0042646363182D+00  9.6002291913564D-01
68  6.7000000000000D-01  1.0748086390709D+00  9.1264737934888D-01
69  6.8000000000000D-01  1.1435256608587D+00  8.6471036541644D-01
70  6.9000000000000D-01  1.2100631789765D+00  8.1637925166493D-01
71  7.0000000000000D-01  1.2740776594841D+00  7.6782143769879D-01
72  7.1000000000000D-01  1.3352370725263D+00  7.1920343805813D-01
73  7.2000000000000D-01  1.3932233412667D+00  6.7068997841468D-01
74  7.3000000000000D-01  1.4477347031467D+00  6.2244310505994D-01
75  7.4000000000000D-01  1.4984879627898D+00  5.7462131433441D-01
76  7.5000000000000D-01  1.5452206166746D+00  5.2737870848302D-01
77  7.6000000000000D-01  1.5876928307005D+00  4.8086418419925D-01
78  7.7000000000000D-01  1.6256892529543D+00  4.3522065984318D-01
79  7.8000000000000D-01  1.6590206453414D+00  3.9058434698791D-01
80  7.9000000000000D-01  1.6875253192696D+00  3.4708407156774D-01
81  8.0000000000000D-01  1.7110703622435D+00  3.0484064947365D-01
82  8.1000000000000D-01  1.7295526440323D+00  2.6396632097127D-01
83  8.2000000000000D-01  1.7428995929982D+00  2.2456424780755D-01
84  8.3000000000000D-01  1.7510697351920D+00  1.8672807633069D-01
85  8.4000000000000D-01  1.7540529909266D+00  1.5054156937709D-01
86  8.5000000000000D-01  1.7518707256960D+00  1.1607830908654D-01
87  8.6000000000000D-01  1.7445755545086D+00  8.3401472197043D-02
88  8.7000000000000D-01  1.7322509009147D+00  5.2563678750113D-02
89  8.8000000000000D-01  1.7150103142161D+00  2.3606914512116D-02
90  8.9000000000000D-01  1.6929965505225D+00 -3.4374732065082D-03
91  9.0000000000000D-01  1.6663804254441D+00 -2.8548707268376D-02
92  9.1000000000000D-01  1.6353594482643D+00 -5.1716441499105D-02
93  9.2000000000000D-01  1.6001562493886D+00 -7.2940552668885D-02
94  9.3000000000000D-01  1.5610168147093D+00 -9.2230866341072D-02
95  9.4000000000000D-01  1.5182085422278D+00 -1.0960681978860D-01
96  9.5000000000000D-01  1.4720181378262D+00 -1.2509706566779D-01
97  9.6000000000000D-01  1.4227493684603D+00 -1.3873902058634D-01
98  9.7000000000000D-01  1.3707206922350D+00 -1.5057836310382D-01
99  9.8000000000000D-01  1.3162627858209D+00 -1.6066848605482D-01
100  9.9000000000000D-01  1.2597159904462D+00 -1.6906990838259D-01
101  1.0000000000000D+00  1.2014276982581D+00 -1.7584965191071D-01
102  1.0100000000000D+00  1.1417497011949D+00 -1.8108058866912D-01
103  1.0200000000000D+00  1.0810355245957D+00 -1.8484076450831D-01
104  1.0300000000000D+00  1.0196377676540D+00 -1.8721270479968D-01
105  1.0400000000000D+00  9.5790547246180D-01 -1.8828270802105D-01
106  1.0500000000000D+00  8.9618154274660D-01 -1.8814013295506D-01
107  1.0600000000000D+00  8.3480023270304D-01 -1.8687668512822D-01
108  1.0700000000000D+00  7.7408472514826D-01 -1.8458570791316D-01
109  1.0800000000000D+00  7.1434481708032D-01 -1.8136148349480D-01
110  1.0900000000000D+00  6.5587472925905D-01 -1.7729854860632D-01
111  1.1000000000000D+00  5.9895105472337D-01 -1.7249102957728D-01
112  1.1100000000000D+00  5.4383085967690D-01 -1.6703200091575D-01
113  1.1200000000000D+00  4.9074994786224D-01 -1.6101287112745D-01
114  1.1300000000000D+00  4.3992129782365D-01 -1.5452279908050D-01
115  1.1400000000000D+00  3.9153367996459D-01 -1.4764814364326D-01
116  1.1500000000000D+00  3.4575045872754D-01 -1.4047194895213D-01
117  1.1600000000000D+00  3.0270858219400D-01 -1.3307346694220D-01
118  1.1700000000000D+00  2.6251775958483D-01 -1.2552771833064D-01
119  1.1800000000000D+00  2.2525982450484D-01 -1.1790509259615D-01
120  1.1900000000000D+00  1.9098828018491D-01 -1.1027098710780D-01
121  1.2000000000000D+00  1.5972801975425D-01 -1.0268548475035D-01
122  1.2100000000000D+00  1.3147521291003D-01 -9.5203068966102D-02
123  1.2200000000000D+00  1.0619734461686D-01 -8.7872373969099D-02
124  1.2300000000000D+00  8.3833417510357D-02 -8.0735972415998D-02
125  1.2400000000000D+00  6.4294192051549D-02 -7.3830177218234D-02
126  1.2500000000000D+00  4.7463012802070D-02 -6.7184960105368D-02
127  1.2600000000000D+00  3.3195230826194D-02 -6.0823616778089D-02
128  1.2700000000000D+00  2.1320366473067D-02 -5.4762944009528D-02
129  1.2800000000000D+00  1.1649488600890D-02 -4.9014366420238D-02
130  1.2900000000000D+00  3.9832401813149D-03 -4.3585315024441D-02
131  1.3000000000000D+00 -1.8817546444438D-03 -3.8480372719947D-02
132  1.3100000000000D+00 -6.1517719079204D-03 -3.3701508536467D-02
133  1.3200000000000D+00 -9.0332428396560D-03 -2.9248602821535D-02
134  1.3300000000000D+00 -1.0730322799834D-02 -2.5119923102213D-02
135  1.3400000000000D+00 -1.1442470833143D-02 -2.1312603742817D-02
136  1.3500000000000D+00 -1.1362140206743D-02 -1.7823109047681D-02
137  1.3600000000000D+00 -1.0672558434723D-02 -1.4647682155533D-02
138  1.3700000000000D+00 -9.5456294463569D-03 -1.1782772340041D-02
139  1.3800000000000D+00 -8.1399774503135D-03 -9.2254358025161D-03
140  1.3900000000000D+00 -6.5991511003710D-03 -6.9737053021246D-03
141  1.4000000000000D+00 -5.0500079002921D-03 -5.0269236145528D-03
142  1.4100000000000D+00 -3.6025275471192D-03 -3.3868176293188D-03
143  1.4200000000000D+00 -2.3429017490323D-03 -2.0541549267497D-03
144  1.4300000000000D+00 -1.3311047455679D-03 -1.0299566488080D-03
145  1.4400000000000D+00 -6.5884138479797D-04 -3.3995364669916D-04
146  1.4500000000000D+00 -3.3650627117622D-04  1.4082216434680D-05
147  1.4600000000000D+00 -1.6380907266623D-04  9.2392323096374D-05
148  1.4700000000000D+00 -2.9216209864999D-05  2.4871708687652D-05
149  1.4800000000000D+00  1.7381901434311D-05 -1.7195877118670D-05
150  1.4900000000000D+00  2.0697511368994D-06 -2.2861736981717D-06
151  1.5000000000000D+00 -4.1941953566984D-06  3.5249943140468D-06
152  1.5100000000000D+00  1.6393012355631D-07 -6.1250589924293D-08
153  1.5200000000000D+00  6.0562499160008D-07 -2.2628475599030D-07
154  1.5300000000000D+00  0.0000000000000D+00  0.0000000000000D+00
155  1.5400000000000D+00  0.0000000000000D+00  0.0000000000000D+00
156  1.5500000000000D+00  0.0000000000000D+00  0.0000000000000D+00
157  1.5600000000000D+00  0.0000000000000D+00  0.0000000000000D+00
158  1.5700000000000D+00  0.0000000000000D+00  0.0000000000000D+00
159  1.5800000000000D+00  0.0000000000000D+00  0.0000000000000D+00
160  1.5900000000000D+00  0.0000000000000D+00  0.0000000000000D+00
161  1.6000000000000D+00  0.0000000000000D+00  0.0000000000000D+00
162  1.6100000000000D+00  0.0000000000000D+00  0.0000000000000D+00
163  1.6200000000000D+00  0.0000000000000D+00  0.0000000000000D+00
164  1.6300000000000D+00  0.0000000000000D+00  0.0000000000000D+00
165  1.6400000000000D+00  0.0000000000000D+00  0.0000000000000D+00
166  1.6500000000000D+00  0.0000000000000D+00  0.0000000000000D+00
167  1.6600000000000D+00  0.0000000000000D+00  0.0000000000000D+00
168  1.6700000000000D+00  0.0000000000000D+00  0.0000000000000D+00
169  1.6800000000000D+00  0.0000000000000D+00  0.0000000000000D+00
170  1.6900000000000D+00  0.0000000000000D+00  0.0000000000000D+00
171  1.7000000000000D+00  0.0000000000000D+00  0.0000000000000D+00
172  1.7100000000000D+00  0.0000000000000D+00  0.0000000000000D+00
173  1.7200000000000D+00  0.0000000000000D+00  0.0000000000000D+00
174  1.7300000000000D+00  0.0000000000000D+00  0.0000000000000D+00
175  1.7400000000000D+00  0.0000000000000D+00  0.0000000000000D+00
176  1.7500000000000D+00  0.0000000000000D+00  0.0000000000000D+00
177  1.7600000000000D+00  0.0000000000000D+00  0.0000000000000D+00
178  1.7700000000000D+00  0.0000000000000D+00  0.0000000000000D+00
179  1.7800000000000D+00  0.0000000000000D+00  0.0000000000000D+00
180  1.7900000000000D+00  0.0000000000000D+00  0.0000000000000D+00
181  1.8000000000000D+00  0.0000000000000D+00  0.0000000000000D+00
182  1.8100000000000D+00  0.0000000000000D+00  0.0000000000000D+00
183  1.8200000000000D+00  0.0000000000000D+00  0.0000000000000D+00
184  1.8300000000000D+00  0.0000000000000D+00  0.0000000000000D+00
185  1.8400000000000D+00  0.0000000000000D+00  0.0000000000000D+00
186  1.8500000000000D+00  0.0000000000000D+00  0.0000000000000D+00
187  1.8600000000000D+00  0.0000000000000D+00  0.0000000000000D+00
188  1.8700000000000D+00  0.0000000000000D+00  0.0000000000000D+00
189  1.8800000000000D+00  0.0000000000000D+00  0.0000000000000D+00
190  1.8900000000000D+00  0.0000000000000D+00  0.0000000000000D+00
191  1.9000000000000D+00  0.0000000000000D+00  0.0000000000000D+00
192  1.9100000000000D+00  0.0000000000000D+00  0.0000000000000D+00
193  1.9200000000000D+00  0.0000000000000D+00  0.0000000000000D+00
194  1.9300000000000D+00  0.0000000000000D+00  0.0000000000000D+00
195  1.9400000000000D+00  0.0000000000000D+00  0.0000000000000D+00
196  1.9500000000000D+00  0.0000000000000D+00  0.0000000000000D+00
197  1.9600000000000D+00  0.0000000000000D+00  0.0000000000000D+00
198  1.9700000000000D+00  0.0000000000000D+00  0.0000000000000D+00
199  1.9800000000000D+00  0.0000000000000D+00  0.0000000000000D+00
200  1.9900000000000D+00  0.0000000000000D+00  0.0000000000000D+00
201  2.0000000000000D+00  0.0000000000000D+00  0.0000000000000D+00
202  2.0100000000000D+00  0.0000000000000D+00  0.0000000000000D+00
203  2.0200000000000D+00  0.0000000000000D+00  0.0000000000000D+00
204  2.0300000000000D+00  0.0000000000000D+00  0.0000000000000D+00
205  2.0400000000000D+00  0.0000000000000D+00  0.0000000000000D+00
206  2.0500000000000D+00  0.0000000000000D+00  0.0000000000000D+00
207  2.0600000000000D+00  0.0000000000000D+00  0.0000000000000D+00
208  2.0700000000000D+00  0.0000000000000D+00  0.0000000000000D+00
209  2.0800000000000D+00  0.0000000000000D+00  0.0000000000000D+00
210  2.0900000000000D+00  0.0000000000000D+00  0.0000000000000D+00
211  2.1000000000000D+00  0.0000000000000D+00  0.0000000000000D+00
212  2.1100000000000D+00  0.0000000000000D+00  0.0000000000000D+00
213  2.1200000000000D+00  0.0000000000000D+00  0.0000000000000D+00
214  2.1300000000000D+00  0.0000000000000D+00  0.0000000000000D+00
215  2.1400000000000D+00  0.0000000000000D+00  0.0000000000000D+00
216  2.1500000000000D+00  0.0000000000000D+00  0.0000000000000D+00
217  2.1600000000000D+00  0.0000000000000D+00  0.0000000000000D+00
218  2.1700000000000D+00  0.0000000000000D+00  0.0000000000000D+00
219  2.1800000000000D+00  0.0000000000000D+00  0.0000000000000D+00
220  2.1900000000000D+00  0.0000000000000D+00  0.0000000000000D+00
221  2.2000000000000D+00  0.0000000000000D+00  0.0000000000000D+00
222  2.2100000000000D+00  0.0000000000000D+00  0.0000000000000D+00
223  2.2200000000000D+00  0.0000000000000D+00  0.0000000000000D+00
224  2.2300000000000D+00  0.0000000000000D+00  0.0000000000000D+00
225  2.2400000000000D+00  0.0000000000000D+00  0.0000000000000D+00
226  2.2500000000000D+00  0.0000000000000D+00  0.0000000000000D+00
227  2.2600000000000D+00  0.0000000000000D+00  0.0000000000000D+00
228  2.2700000000000D+00  0.0000000000000D+00  0.0000000000000D+00
229  2.2800000000000D+00  0.0000000000000D+00  0.0000000000000D+00
230  2.2900000000000D+00  0.0000000000000D+00  0.0000000000000D+00
231  2.3000000000000D+00  0.0000000000000D+00  0.0000000000000D+00
232  2.3100000000000D+00  0.0000000000000D+00  0.0000000000000D+00
233  2.3200000000000D+00  0.0000000000000D+00  0.0000000000000D+00
234  2.3300000000000D+00  0.0000000000000D+00  0.0000000000000D+00
235  2.3400000000000D+00  0.0000000000000D+00  0.0000000000000D+00
236  2.3500000000000D+00  0.0000000000000D+00  0.0000000000000D+00
237  2.3600000000000D+00  0.0000000000000D+00  0.0000000000000D+00
238  2.3700000000000D+00  0.0000000000000D+00  0.0000000000000D+00
239  2.3800000000000D+00  0.0000000000000D+00  0.0000000000000D+00
240  2.3900000000000D+00  0.0000000000000D+00  0.0000000000000D+00
241  2.4000000000000D+00  0.0000000000000D+00  0.0000000000000D+00
242  2.4100000000000D+00  0.0000000000000D+00  0.0000000000000D+00
243  2.4200000000000D+00  0.0000000000000D+00  0.0000000000000D+00
244  2.4300000000000D+00  0.0000000000000D+00  0.0000000000000D+00
245  2.4400000000000D+00  0.0000000000000D+00  0.0000000000000D+00
246  2.4500000000000D+00  0.0000000000000D+00  0.0000000000000D+00
247  2.4600000000000D+00  0.0000000000000D+00  0.0000000000000D+00
248  2.4700000000000D+00  0.0000000000000D+00  0.0000000000000D+00
249  2.4800000000000D+00  0.0000000000000D+00  0.0000000000000D+00
250  2.4900000000000D+00  0.0000000000000D+00  0.0000000000000D+00
251  2.5000000000000D+00  0.0000000000000D+00  0.0000000000000D+00
252  2.5100000000000D+00  0.0000000000000D+00  0.0000000000000D+00
253  2.5200000000000D+00  0.0000000000000D+00  0.0000000000000D+00
254  2.5300000000000D+00  0.0000000000000D+00  0.0000000000000D+00
255  2.5400000000000D+00  0.0000000000000D+00  0.0000000000000D+00
256  2.5500000000000D+00  0.0000000000000D+00  0.0000000000000D+00
257  2.5600000000000D+00  0.0000000000000D+00  0.0000000000000D+00
258  2.5700000000000D+00  0.0000000000000D+00  0.0000000000000D+00
259  2.5800000000000D+00  0.0000000000000D+00  0.0000000000000D+00
260  2.5900000000000D+00  0.0000000000000D+00  0.0000000000000D+00
261  2.6000000000000D+00  0.0000000000000D+00  0.0000000000000D+00
262  2.6100000000000D+00  0.0000000000000D+00  0.0000000000000D+00
263  2.6200000000000D+00  0.0000000000000D+00  0.0000000000000D+00
264  2.6300000000000D+00  0.0000000000000D+00  0.0000000000000D+00
265  2.6400000000000D+00  0.0000000000000D+00  0.0000000000000D+00
266  2.6500000000000D+00  0.0000000000000D+00  0.0000000000000D+00
267  2.6600000000000D+00  0.0000000000000D+00  0.0000000000000D+00
268  2.6700000000000D+00  0.0000000000000D+00  0.0000000000000D+00
269  2.6800000000000D+00  0.0000000000000D+00  0.0000000000000D+00
270  2.6900000000000D+00  0.0000000000000D+00  0.0000000000000D+00
271  2.7000000000000D+00  0.0000000000000D+00  0.0000000000000D+00
272  2.7100000000000D+00  0.0000000000000D+00  0.0000000000000D+00
273  2.7200000000000D+00  0.0000000000000D+00  0.0000000000000D+00
274  2.7300000000000D+00  0.0000000000000D+00  0.0000000000000D+00
275  2.7400000000000D+00  0.0000000000000D+00  0.0000000000000D+00
276  2.7500000000000D+00  0.0000000000000D+00  0.0000000000000D+00
277  2.7600000000000D+00  0.0000000000000D+00  0.0000000000000D+00
278  2.7700000000000D+00  0.0000000000000D+00  0.0000000000000D+00
279  2.7800000000000D+00  0.0000000000000D+00  0.0000000000000D+00
280  2.7900000000000D+00  0.0000000000000D+00  0.0000000000000D+00
281  2.8000000000000D+00  0.0000000000000D+00  0.0000000000000D+00
282  2.8100000000000D+00  0.0000000000000D+00  0.0000000000000D+00
283  2.8200000000000D+00  0.0000000000000D+00  0.0000000000000D+00
284  2.8300000000000D+00  0.0000000000000D+00  0.0000000000000D+00
285  2.8400000000000D+00  0.0000000000000D+00  0.0000000000000D+00
286  2.8500000000000D+00  0.0000000000000D+00  0.0000000000000D+00
287  2.8600000000000D+00  0.0000000000000D+00  0.0000000000000D+00
288  2.8700000000000D+00  0.0000000000000D+00  0.0000000000000D+00
289  2.8800000000000D+00  0.0000000000000D+00  0.0000000000000D+00
290  2.8900000000000D+00  0.0000000000000D+00  0.0000000000000D+00
291  2.9000000000000D+00  0.0000000000000D+00  0.0000000000000D+00
292  2.9100000000000D+00  0.0000000000000D+00  0.0000000000000D+00
293  2.9200000000000D+00  0.0000000000000D+00  0.0000000000000D+00
294  2.9300000000000D+00  0.0000000000000D+00  0.0000000000000D+00
295  2.9400000000000D+00  0.0000000000000D+00  0.0000000000000D+00
296  2.9500000000000D+00  0.0000000000000D+00  0.0000000000000D+00
297  2.9600000000000D+00  0.0000000000000D+00  0.0000000000000D+00
298  2.9700000000000D+00  0.0000000000000D+00  0.0000000000000D+00
299  2.9800000000000D+00  0.0000000000000D+00  0.0000000000000D+00
300  2.9900000000000D+00  0.0000000000000D+00  0.0000000000000D+00
301  3.0000000000000D+00  0.0000000000000D+00  0.0000000000000D+00
302  3.0100000000000D+00  0.0000000000000D+00  0.0000000000000D+00
303  3.0200000000000D+00  0.0000000000000D+00  0.0000000000000D+00
304  3.0300000000000D+00  0.0000000000000D+00  0.0000000000000D+00
305  3.0400000000000D+00  0.0000000000000D+00  0.0000000000000D+00
306  3.0500000000000D+00  0.0000000000000D+00  0.0000000000000D+00
307  3.0600000000000D+00  0.0000000000000D+00  0.0000000000000D+00
308  3.0700000000000D+00  0.0000000000000D+00  0.0000000000000D+00
309  3.0800000000000D+00  0.0000000000000D+00  0.0000000000000D+00
310  3.0900000000000D+00  0.0000000000000D+00  0.0000000000000D+00
311  3.1000000000000D+00  0.0000000000000D+00  0.0000000000000D+00
312  3.1100000000000D+00  0.0000000000000D+00  0.0000000000000D+00
313  3.1200000000000D+00  0.0000000000000D+00  0.0000000000000D+00
314  3.1300000000000D+00  0.0000000000000D+00  0.0000000000000D+00
315  3.1400000000000D+00  0.0000000000000D+00  0.0000000000000D+00
316  3.1500000000000D+00  0.0000000000000D+00  0.0000000000000D+00
317  3.1600000000000D+00  0.0000000000000D+00  0.0000000000000D+00
318  3.1700000000000D+00  0.0000000000000D+00  0.0000000000000D+00
319  3.1800000000000D+00  0.0000000000000D+00  0.0000000000000D+00
320  3.1900000000000D+00  0.0000000000000D+00  0.0000000000000D+00
321  3.2000000000000D+00  0.0000000000000D+00  0.0000000000000D+00
322  3.2100000000000D+00  0.0000000000000D+00  0.0000000000000D+00
323  3.2200000000000D+00  0.0000000000000D+00  0.0000000000000D+00
324  3.2300000000000D+00  0.0000000000000D+00  0.0000000000000D+00
325  3.2400000000000D+00  0.0000000000000D+00  0.0000000000000D+00
326  3.2500000000000D+00  0.0000000000000D+00  0.0000000000000D+00
327  3.2600000000000D+00  0.0000000000000D+00  0.0000000000000D+00
328  3.2700000000000D+00  0.0000000000000D+00  0.0000000000000D+00
329  3.2800000000000D+00  0.0000000000000D+00  0.0000000000000D+00
330  3.2900000000000D+00  0.0000000000000D+00  0.0000000000000D+00
331  3.3000000000000D+00  0.0000000000000D+00  0.0000000000000D+00
332  3.3100000000000D+00  0.0000000000000D+00  0.0000000000000D+00
333  3.3200000000000D+00  0.0000000000000D+00  0.0000000000000D+00
334  3.3300000000000D+00  0.0000000000000D+00  0.0000000000000D+00
335  3.3400000000000D+00  0.0000000000000D+00  0.0000000000000D+00
336  3.3500000000000D+00  0.0000000000000D+00  0.0000000000000D+00
337  3.3600000000000D+00  0.0000000000000D+00  0.0000000000000D+00
338  3.3700000000000D+00  0.0000000000000D+00  0.0000000000000D+00
339  3.3800000000000D+00  0.0000000000000D+00  0.0000000000000D+00
340  3.3900000000000D+00  0.0000000000000D+00  0.0000000000000D+00
341  3.4000000000000D+00  0.0000000000000D+00  0.0000000000000D+00
342  3.4100000000000D+00  0.0000000000000D+00  0.0000000000000D+00
343  3.4200000000000D+00  0.0000000000000D+00  0.0000000000000D+00
344  3.4300000000000D+00  0.0000000000000D+00  0.0000000000000D+00
345  3.4400000000000D+00  0.0000000000000D+00  0.0000000000000D+00
346  3.4500000000000D+00  0.0000000000000D+00  0.0000000000000D+00
347  3.4600000000000D+00  0.0000000000000D+00  0.0000000000000D+00
348  3.4700000000000D+00  0.0000000000000D+00  0.0000000000000D+00
349  3.4800000000000D+00  0.0000000000000D+00  0.0000000000000D+00
350  3.4900000000000D+00  0.0000000000000D+00  0.0000000000000D+00
351  3.5000000000000D+00  0.0000000000000D+00  0.0000000000000D+00
352  3.5100000000000D+00  0.0000000000000D+00  0.0000000000000D+00
353  3.5200000000000D+00  0.0000000000000D+00  0.0000000000000D+00
354  3.5300000000000D+00  0.0000000000000D+00  0.0000000000000D+00
355  3.5400000000000D+00  0.0000000000000D+00  0.0000000000000D+00
356  3.5500000000000D+00  0.0000000000000D+00  0.0000000000000D+00
357  3.5600000000000D+00  0.0000000000000D+00  0.0000000000000D+00
358  3.5700000000000D+00  0.0000000000000D+00  0.0000000000000D+00
359  3.5800000000000D+00  0.0000000000000D+00  0.0000000000000D+00
360  3.5900000000000D+00  0.0000000000000D+00  0.0000000000000D+00
361  3.6000000000000D+00  0.0000000000000D+00  0.0000000000000D+00
362  3.6100000000000D+00  0.0000000000000D+00  0.0000000000000D+00
363  3.6200000000000D+00  0.0000000000000D+00  0.0000000000000D+00
364  3.6300000000000D+00  0.0000000000000D+00  0.0000000000000D+00
365  3.6400000000000D+00  0.0000000000000D+00  0.0000000000000D+00
366  3.6500000000000D+00  0.0000000000000D+00  0.0000000000000D+00
367  3.6600000000000D+00  0.0000000000000D+00  0.0000000000000D+00
368  3.6700000000000D+00  0.0000000000000D+00  0.0000000000000D+00
369  3.6800000000000D+00  0.0000000000000D+00  0.0000000000000D+00
370  3.6900000000000D+00  0.0000000000000D+00  0.0000000000000D+00
371  3.7000000000000D+00  0.0000000000000D+00  0.0000000000000D+00
372  3.7100000000000D+00  0.0000000000000D+00  0.0000000000000D+00
373  3.7200000000000D+00  0.0000000000000D+00  0.0000000000000D+00
374  3.7300000000000D+00  0.0000000000000D+00  0.0000000000000D+00
375  3.7400000000000D+00  0.0000000000000D+00  0.0000000000000D+00
376  3.7500000000000D+00  0.0000000000000D+00  0.0000000000000D+00
377  3.7600000000000D+00  0.0000000000000D+00  0.0000000000000D+00
378  3.7700000000000D+00  0.0000000000000D+00  0.0000000000000D+00
379  3.7800000000000D+00  0.0000000000000D+00  0.0000000000000D+00
380  3.7900000000000D+00  0.0000000000000D+00  0.0000000000000D+00
381  3.8000000000000D+00  0.0000000000000D+00  0.0000000000000D+00
382  3.8100000000000D+00  0.0000000000000D+00  0.0000000000000D+00
383  3.8200000000000D+00  0.0000000000000D+00  0.0000000000000D+00
384  3.8300000000000D+00  0.0000000000000D+00  0.0000000000000D+00
385  3.8400000000000D+00  0.0000000000000D+00  0.0000000000000D+00
386  3.8500000000000D+00  0.0000000000000D+00  0.0000000000000D+00
387  3.8600000000000D+00  0.0000000000000D+00  0.0000000000000D+00
388  3.8700000000000D+00  0.0000000000000D+00  0.0000000000000D+00
389  3.8800000000000D+00  0.0000000000000D+00  0.0000000000000D+00
390  3.8900000000000D+00  0.0000000000000D+00  0.0000000000000D+00
391  3.9000000000000D+00  0.0000000000000D+00  0.0000000000000D+00
392  3.9100000000000D+00  0.0000000000000D+00  0.0000000000000D+00
393  3.9200000000000D+00  0.0000000000000D+00  0.0000000000000D+00
394  3.9300000000000D+00  0.0000000000000D+00  0.0000000000000D+00
395  3.9400000000000D+00  0.0000000000000D+00  0.0000000000000D+00
396  3.9500000000000D+00  0.0000000000000D+00  0.0000000000000D+00
397  3.9600000000000D+00  0.0000000000000D+00  0.0000000000000D+00
398  3.9700000000000D+00  0.0000000000000D+00  0.0000000000000D+00
399  3.9800000000000D+00  0.0000000000000D+00  0.0000000000000D+00
400  3.9900000000000D+00  0.0000000000000D+00  0.0000000000000D+00
401  4.0000000000000D+00  0.0000000000000D+00  0.0000000000000D+00
402  4.0100000000000D+00  0.0000000000000D+00  0.0000000000000D+00
403  4.0200000000000D+00  0.0000000000000D+00  0.0000000000000D+00
404  4.0300000000000D+00  0.0000000000000D+00  0.0000000000000D+00
405  4.0400000000000D+00  0.0000000000000D+00  0.0000000000000D+00
406  4.0500000000000D+00  0.0000000000000D+00  0.0000000000000D+00
407  4.0600000000000D+00  0.0000000000000D+00  0.0000000000000D+00
408  4.0700000000000D+00  0.0000000000000D+00  0.0000000000000D+00
409  4.0800000000000D+00  0.0000000000000D+00  0.0000000000000D+00
410  4.0900000000000D+00  0.0000000000000D+00  0.0000000000000D+00
411  4.1000000000000D+00  0.0000000000000D+00  0.0000000000000D+00
412  4.1100000000000D+00  0.0000000000000D+00  0.0000000000000D+00
413  4.1200000000000D+00  0.0000000000000D+00  0.0000000000000D+00
414  4.1300000000000D+00  0.0000000000000D+00  0.0000000000000D+00
415  4.1400000000000D+00  0.0000000000000D+00  0.0000000000000D+00
416  4.1500000000000D+00  0.0000000000000D+00  0.0000000000000D+00
417  4.1600000000000D+00  0.0000000000000D+00  0.0000000000000D+00
418  4.1700000000000D+00  0.0000000000000D+00  0.0000000000000D+00
419  4.1800000000000D+00  0.0000000000000D+00  0.0000000000000D+00
420  4.1900000000000D+00  0.0000000000000D+00  0.0000000000000D+00
421  4.2000000000000D+00  0.0000000000000D+00  0.0000000000000D+00
422  4.2100000000000D+00  0.0000000000000D+00  0.0000000000000D+00
423  4.2200000000000D+00  0.0000000000000D+00  0.0000000000000D+00
424  4.2300000000000D+00  0.0000000000000D+00  0.0000000000000D+00
425  4.2400000000000D+00  0.0000000000000D+00  0.0000000000000D+00
426  4.2500000000000D+00  0.0000000000000D+00  0.0000000000000D+00
427  4.2600000000000D+00  0.0000000000000D+00  0.0000000000000D+00
428  4.2700000000000D+00  0.0000000000000D+00  0.0000000000000D+00
429  4.2800000000000D+00  0.0000000000000D+00  0.0000000000000D+00
430  4.2900000000000D+00  0.0000000000000D+00  0.0000000000000D+00
431  4.3000000000000D+00  0.0000000000000D+00  0.0000000000000D+00
432  4.3100000000000D+00  0.0000000000000D+00  0.0000000000000D+00
433  4.3200000000000D+00  0.0000000000000D+00  0.0000000000000D+00
434  4.3300000000000D+00  0.0000000000000D+00  0.0000000000000D+00
435  4.3400000000000D+00  0.0000000000000D+00  0.0000000000000D+00
436  4.3500000000000D+00  0.0000000000000D+00  0.0000000000000D+00
437  4.3600000000000D+00  0.0000000000000D+00  0.0000000000000D+00
438  4.3700000000000D+00  0.0000000000000D+00  0.0000000000000D+00
439  4.3800000000000D+00  0.0000000000000D+00  0.0000000000000D+00
440  4.3900000000000D+00  0.0000000000000D+00  0.0000000000000D+00
441  4.4000000000000D+00  0.0000000000000D+00  0.0000000000000D+00
442  4.4100000000000D+00  0.0000000000000D+00  0.0000000000000D+00
443  4.4200000000000D+00  0.0000000000000D+00  0.0000000000000D+00