Yb    ONCVPSP-3.3.0  r_core=   1.80778   1.51161   1.66296   1.70311
70.0000     24.0000      180112    zatom,zion,pspd
8 -116133   3     4   600     0    pspcod,pspxc,lmax,lloc,mmax,r2well
5.99000000  0.25000000  0.00000000    rchrg fchrg qchrg
2     2     2     2     0    nproj
1     1           extension_switch
0                         1.3993909807184D+01  1.3120001787283D+00
1  0.0000000000000D+00 -2.0068502415427D-10  4.8962221776971D-10
2  1.0000000000000D-02  6.2283234971467D-02 -1.7258628617299D-02
3  2.0000000000000D-02  1.2441996387703D-01 -3.4326382056764D-02
4  3.0000000000000D-02  1.8626440298089D-01 -5.1013957246966D-02
5  4.0000000000000D-02  2.4767220747555D-01 -6.7135181312320D-02
6  5.0000000000000D-02  3.0850117666748D-01 -8.2508541753552D-02
7  6.0000000000000D-02  3.6861194217160D-01 -9.6958675076159D-02
8  7.0000000000000D-02  4.2786863368803D-01 -1.1031780059450D-01
9  8.0000000000000D-02  4.8613951713510D-01 -1.2242708662876D-01
10  9.0000000000000D-02  5.4329760015999D-01 -1.3313793691597D-01
11  1.0000000000000D-01  5.9922120034102D-01 -1.4231318576990D-01
12  1.1000000000000D-01  6.5379447172948D-01 -1.4982819134165D-01
13  1.2000000000000D-01  7.0690788575340D-01 -1.5557181724630D-01
14  1.3000000000000D-01  7.5845866291489D-01 -1.5944729382318D-01
15  1.4000000000000D-01  8.0835115215553D-01 -1.6137295137991D-01
16  1.5000000000000D-01  8.5649715523505D-01 -1.6128281892360D-01
17  1.6000000000000D-01  9.0281619396396D-01 -1.5912708309711D-01
18  1.7000000000000D-01  9.4723571864656D-01 -1.5487240330280D-01
19  1.8000000000000D-01  9.8969125662144D-01 -1.4850208030109D-01
20  1.9000000000000D-01  1.0301265003287D+00 -1.4001607690277D-01
21  2.0000000000000D-01  1.0684933348803D+00 -1.2943089072356D-01
22  2.1000000000000D-01  1.1047518056592D+00 -1.1677928032220D-01
23  2.2000000000000D-01  1.1388700270168D+00 -1.0210984738889D-01
24  2.3000000000000D-01  1.1708240336725D+00 -8.5486478976964D-02
25  2.4000000000000D-01  1.2005975769434D+00 -6.6987655064852D-02
26  2.5000000000000D-01  1.2281818684303D+00 -4.6705627985280D-02
27  2.6000000000000D-01  1.2535752742679D+00 -2.4745481454682D-02
28  2.7000000000000D-01  1.2767829634940D+00 -1.2240780643305D-03
29  2.8000000000000D-01  1.2978165145128D+00  2.3731094853639D-02
30  2.9000000000000D-01  1.3166934840050D+00  4.9983170107019D-02
31  3.0000000000000D-01  1.3334369429774D+00  7.7387224525516D-02
32  3.1000000000000D-01  1.3480749849409D+00  1.0579166933535D-01
33  3.2000000000000D-01  1.3606402114526D+00  1.3503969386881D-01
34  3.3000000000000D-01  1.3711692004536D+00  1.6497074892203D-01
35  3.4000000000000D-01  1.3797019629827D+00  1.9542205567070D-01
36  3.5000000000000D-01  1.3862813939332D+00  2.2623012578174D-01
37  3.6000000000000D-01  1.3909527225560D+00  2.5723227822066D-01
38  3.7000000000000D-01  1.3937629683925D+00  2.8826813825355D-01
39  3.8000000000000D-01  1.3947604082378D+00  3.1918110428028D-01
40  3.9000000000000D-01  1.3939940596047D+00  3.4981976841037D-01
41  4.0000000000000D-01  1.3915131859643D+00  3.8003927710577D-01
42  4.1000000000000D-01  1.3873668287942D+00  4.0970261876052D-01
43  4.2000000000000D-01  1.3816033711698D+00  4.3868182576404D-01
44  4.3000000000000D-01  1.3742701372810D+00  4.6685907939558D-01
45  4.4000000000000D-01  1.3654130318669D+00  4.9412770681726D-01
46  4.5000000000000D-01  1.3550762231170D+00  5.2039306046243D-01
47  4.6000000000000D-01  1.3433018721128D+00  5.4557327124779D-01
48  4.7000000000000D-01  1.3301299113668D+00  5.6959986825991D-01
49  4.8000000000000D-01  1.3155978744728D+00  5.9241825886982D-01
50  4.9000000000000D-01  1.2997407783146D+00  6.1398806459955D-01
51  5.0000000000000D-01  1.2825910586860D+00  6.3428330949031D-01
52  5.1000000000000D-01  1.2641785595814D+00  6.5329245918848D-01
53  5.2000000000000D-01  1.2445305757992D+00  6.7101831045846D-01
54  5.3000000000000D-01  1.2236719478973D+00  6.8747773233798D-01
55  5.4000000000000D-01  1.2016252079324D+00  7.0270126165014D-01
56  5.5000000000000D-01  1.1784107738251D+00  7.1673255707230D-01
57  5.6000000000000D-01  1.1540471896200D+00  7.2962771740668D-01
58  5.7000000000000D-01  1.1285514083646D+00  7.4145447109701D-01
59  5.8000000000000D-01  1.1019391138139D+00  7.5229124536705D-01
60  5.9000000000000D-01  1.0742250766933D+00  7.6222612460898D-01
61  6.0000000000000D-01  1.0454235408190D+00  7.7135570880767D-01
62  6.1000000000000D-01  1.0155486339907D+00  7.7978388383731D-01
63  6.2000000000000D-01  9.8461479824577D-01  7.8762051639518D-01
64  6.3000000000000D-01  9.5263723379094D-01  7.9498008713912D-01
65  6.4000000000000D-01  9.1963235072516D-01  8.0198027624745D-01
66  6.5000000000000D-01  8.8561822252392D-01  8.0874051613132D-01
67  6.6000000000000D-01  8.5061503518727D-01  8.1538052637428D-01
68  6.7000000000000D-01  8.1464552595237D-01  8.2201884616266D-01
69  6.8000000000000D-01  7.7773540554498D-01  8.2877137948735D-01
70  6.9000000000000D-01  7.3991375808886D-01  8.3574996824896D-01
71  7.0000000000000D-01  7.0121341300998D-01  8.4306100807809D-01
72  7.1000000000000D-01  6.6167128355812D-01  8.5080412120049D-01
73  7.2000000000000D-01  6.2132866692691D-01  8.5907090002456D-01
74  7.3000000000000D-01  5.8023150137257D-01  8.6794373432642D-01
75  7.4000000000000D-01  5.3843057621409D-01  8.7749473395444D-01
76  7.5000000000000D-01  4.9598169113706D-01  8.8778475787886D-01
77  7.6000000000000D-01  4.5294576180884D-01  8.9886255920071D-01
78  7.7000000000000D-01  4.0938886944874D-01  9.1076405439329D-01
79  7.8000000000000D-01  3.6538225266407D-01  9.2351172362448D-01
80  7.9000000000000D-01  3.2100224056069D-01  9.3711414749639D-01
81  8.0000000000000D-01  2.7633012685544D-01  9.5156568396482D-01
82  8.1000000000000D-01  2.3145198544635D-01  9.6684628758566D-01
83  8.2000000000000D-01  1.8645842862816D-01  9.8292147159662D-01
84  8.3000000000000D-01  1.4144430986345D-01  9.9974241170334D-01
85  8.4000000000000D-01  9.6508373725338D-02  1.0172461888203D+00
86  8.5000000000000D-01  5.1752856305259D-02  1.0353561664420D+00
87  8.6000000000000D-01  7.2830400196242D-03  1.0539824968081D+00
88  8.7000000000000D-01 -3.6793232658246D-02  1.0730227486035D+00
89  8.8000000000000D-01 -8.0366081478232D-02  1.0923626476183D+00
90  8.9000000000000D-01 -1.2332414117230D-01  1.1118769206024D+00
91  9.0000000000000D-01 -1.6555513876232D-01  1.1314302315111D+00
92  9.1000000000000D-01 -2.0694648917175D-01  1.1508781984592D+00
93  9.2000000000000D-01 -2.4738590266878D-01  1.1700684790042D+00
94  9.3000000000000D-01 -2.8676199753577D-01  1.1888419108752D+00
95  9.4000000000000D-01 -3.2496491132495D-01  1.2070336949649D+00
96  9.5000000000000D-01 -3.6188690412729D-01  1.2244746073142D+00
97  9.6000000000000D-01 -3.9742294745235D-01  1.2409922269495D+00
98  9.7000000000000D-01 -4.3147129259541D-01  1.2564121667896D+00
99  9.8000000000000D-01 -4.6393401274456D-01  1.2705592954063D+00
100  9.9000000000000D-01 -4.9471751355855D-01  1.2832589382035D+00
101  1.0000000000000D+00 -5.2373300753356D-01  1.2943380475936D+00
102  1.0100000000000D+00 -5.5089694813905D-01  1.3036263329261D+00
103  1.0200000000000D+00 -5.7613142046068D-01  1.3109573423052D+00
104  1.0300000000000D+00 -5.9936448591288D-01  1.3161694899598D+00
105  1.0400000000000D+00 -6.2053047951336D-01  1.3191070245743D+00
106  1.0500000000000D+00 -6.3957025907981D-01  1.3196209356311D+00
107  1.0600000000000D+00 -6.5643140679282D-01  1.3175697968809D+00
108  1.0700000000000D+00 -6.7106838452414D-01  1.3128205478871D+00
109  1.0800000000000D+00 -6.8344264535833D-01  1.3052492165641D+00
110  1.0900000000000D+00 -6.9352270479955D-01  1.2947415876700D+00
111  1.1000000000000D+00 -7.0128417600900D-01  1.2811938238556D+00
112  1.1100000000000D+00 -7.0670977451460D-01  1.2645130479563D+00
113  1.1200000000000D+00 -7.0978929860282D-01  1.2446178966745D+00
114  1.1300000000000D+00 -7.1051959242756D-01  1.2214390573285D+00
115  1.1400000000000D+00 -7.0890449947118D-01  1.1949198004412D+00
116  1.1500000000000D+00 -7.0495481460390D-01  1.1650165220217D+00
117  1.1600000000000D+00 -6.9868824335469D-01  1.1316993099652D+00
118  1.1700000000000D+00 -6.9012937712941D-01  1.0949525490338D+00
119  1.1800000000000D+00 -6.7930969317332D-01  1.0547755788477D+00
120  1.1900000000000D+00 -6.6626758788484D-01  1.0111834186381D+00
121  1.2000000000000D+00 -6.5104845152595D-01  9.6420757111018D-01
122  1.2100000000000D+00 -6.3370479144970D-01  9.1389691554240D-01
123  1.2200000000000D+00 -6.1429641056151D-01  8.6031869923974D-01
124  1.2300000000000D+00 -5.9289064570539D-01  8.0355963176416D-01
125  1.2400000000000D+00 -5.6956266869801D-01  7.4372708193726D-01
126  1.2500000000000D+00 -5.4439585224222D-01  6.8095037644595D-01
127  1.2600000000000D+00 -5.1748219890773D-01  6.1538218977402D-01
128  1.2700000000000D+00 -4.8892282822940D-01  5.4720000822078D-01
129  1.2800000000000D+00 -4.5882851626641D-01  4.7660764915578D-01
130  1.2900000000000D+00 -4.2732027595131D-01  4.0383680327040D-01
131  1.3000000000000D+00 -3.9452996105086D-01  3.2914855542054D-01
132  1.3100000000000D+00 -3.6060087740149D-01  2.5283484148735D-01
133  1.3200000000000D+00 -3.2568837473677D-01  1.7521977578874D-01
134  1.3300000000000D+00 -2.8996038477110D-01  9.6660766699479D-02
135  1.3400000000000D+00 -2.5359787667901D-01  1.7549350201724D-02
136  1.3500000000000D+00 -2.1679517864736D-01 -6.1688378493054D-02
137  1.3600000000000D+00 -1.7976011490718D-01 -1.4059185350214D-01
138  1.3700000000000D+00 -1.4271390655759D-01 -2.1866676766517D-01
139  1.3800000000000D+00 -1.0589075522062D-01 -2.9538662806709D-01
140  1.3900000000000D+00 -6.9537042527384D-02 -3.7019529216854D-01
141  1.4000000000000D+00 -3.3910056381150D-02 -4.4251068768105D-01
142  1.4100000000000D+00  7.2386908056864D-04 -5.1172997254100D-01
143  1.4200000000000D+00  3.4091883307618D-02 -5.7723632576806D-01
144  1.4300000000000D+00  6.5917973677111D-02 -6.3840771772602D-01
145  1.4400000000000D+00  9.5927260064462D-02 -6.9462792196950D-01
146  1.4500000000000D+00  1.2385138336006D-01 -7.4530011487959D-01
147  1.4600000000000D+00  1.4943520615046D-01 -7.8986355948098D-01
148  1.4700000000000D+00  1.7244487488026D-01 -8.2781346560788D-01
149  1.4800000000000D+00  1.9267789346817D-01 -8.5872556040734D-01
150  1.4900000000000D+00  2.0997341961138D-01 -8.8228097710122D-01
151  1.5000000000000D+00  2.2422520731800D-01 -8.9829720308404D-01
152  1.5100000000000D+00  2.3540987740362D-01 -9.0679677725120D-01
153  1.5200000000000D+00  2.4358318743698D-01 -9.0799599854025D-01
154  1.5300000000000D+00  2.4886450791288D-01 -9.0226368940319D-01
155  1.5400000000000D+00  2.5141306589574D-01 -8.9006158261737D-01
156  1.5500000000000D+00  2.5139250077215D-01 -8.7185592339807D-01
157  1.5600000000000D+00  2.4897910570289D-01 -8.4813820386426D-01
158  1.5700000000000D+00  2.4436291010383D-01 -8.1942837661194D-01
159  1.5800000000000D+00  2.3774291937925D-01 -7.8626316829779D-01
160  1.5900000000000D+00  2.2932678181159D-01 -7.4919562661370D-01
161  1.6000000000000D+00  2.1932864198904D-01 -7.0879012549799D-01
162  1.6100000000000D+00  2.0796748575825D-01 -6.6561861851328D-01
163  1.6200000000000D+00  1.9546534916111D-01 -6.2025656522533D-01
164  1.6300000000000D+00  1.8204550389702D-01 -5.7327880854074D-01
165  1.6400000000000D+00  1.6793063287975D-01 -5.2525543348429D-01
166  1.6500000000000D+00  1.5334101148988D-01 -4.7674764245898D-01
167  1.6600000000000D+00  1.3849270779155D-01 -4.2830367685162D-01
168  1.6700000000000D+00  1.2359581814440D-01 -3.8045482188755D-01
169  1.6800000000000D+00  1.0885274944518D-01 -3.3371152001465D-01
170  1.6900000000000D+00  9.4456566370466D-02 -2.8855963420018D-01
171  1.7000000000000D+00  8.0589412059575D-02 -2.4545688015091D-01
172  1.7100000000000D+00  6.7421020031339D-02 -2.0482946732776D-01
173  1.7200000000000D+00  5.5107323021536D-02 -1.6706896163767D-01
174  1.7300000000000D+00  4.3789178635522D-02 -1.3252941469877D-01
175  1.7400000000000D+00  3.3591213093105D-02 -1.0152476243224D-01
176  1.7500000000000D+00  2.4626152628968D-02 -7.4342665303304D-02
177  1.7600000000000D+00  1.6972928672219D-02 -5.1179187498084D-02
178  1.7700000000000D+00  1.0672429063343D-02 -3.2127685666576D-02
179  1.7800000000000D+00  5.8288914013948D-03 -1.7480882109305D-02
180  1.7900000000000D+00  2.5796385947974D-03 -7.6378923387761D-03
181  1.8000000000000D+00  8.1488873563848D-04 -2.2796552799241D-03
182  1.8100000000000D+00  9.1732715800599D-05 -1.1486855532976D-04
183  1.8200000000000D+00 -6.2776556326716D-05  2.6859033797964D-04
184  1.8300000000000D+00  2.8949252767085D-06 -1.0961045808826D-05
185  1.8400000000000D+00  3.2292722135002D-05 -1.1663883784687D-04
186  1.8500000000000D+00  6.0059163082572D-06 -2.1246674859541D-05
187  1.8600000000000D+00 -4.7801443137505D-06  1.8618657834683D-05
188  1.8700000000000D+00 -2.4210493773699D-06  9.2287002014743D-06
189  1.8800000000000D+00 -4.4808925869454D-07  9.4204667453890D-07
190  1.8900000000000D+00 -3.8984563656662D-07  8.1959738687118D-07
191  1.9000000000000D+00  0.0000000000000D+00  0.0000000000000D+00
192  1.9100000000000D+00  0.0000000000000D+00  0.0000000000000D+00
193  1.9200000000000D+00  0.0000000000000D+00  0.0000000000000D+00
194  1.9300000000000D+00  0.0000000000000D+00  0.0000000000000D+00
195  1.9400000000000D+00  0.0000000000000D+00  0.0000000000000D+00
196  1.9500000000000D+00  0.0000000000000D+00  0.0000000000000D+00
197  1.9600000000000D+00  0.0000000000000D+00  0.0000000000000D+00
198  1.9700000000000D+00  0.0000000000000D+00  0.0000000000000D+00
199  1.9800000000000D+00  0.0000000000000D+00  0.0000000000000D+00
200  1.9900000000000D+00  0.0000000000000D+00  0.0000000000000D+00
201  2.0000000000000D+00  0.0000000000000D+00  0.0000000000000D+00
202  2.0100000000000D+00  0.0000000000000D+00  0.0000000000000D+00
203  2.0200000000000D+00  0.0000000000000D+00  0.0000000000000D+00
204  2.0300000000000D+00  0.0000000000000D+00  0.0000000000000D+00
205  2.0400000000000D+00  0.0000000000000D+00  0.0000000000000D+00
206  2.0500000000000D+00  0.0000000000000D+00  0.0000000000000D+00
207  2.0600000000000D+00  0.0000000000000D+00  0.0000000000000D+00
208  2.0700000000000D+00  0.0000000000000D+00  0.0000000000000D+00
209  2.0800000000000D+00  0.0000000000000D+00  0.0000000000000D+00
210  2.0900000000000D+00  0.0000000000000D+00  0.0000000000000D+00
211  2.1000000000000D+00  0.0000000000000D+00  0.0000000000000D+00
212  2.1100000000000D+00  0.0000000000000D+00  0.0000000000000D+00
213  2.1200000000000D+00  0.0000000000000D+00  0.0000000000000D+00
214  2.1300000000000D+00  0.0000000000000D+00  0.0000000000000D+00
215  2.1400000000000D+00  0.0000000000000D+00  0.0000000000000D+00
216  2.1500000000000D+00  0.0000000000000D+00  0.0000000000000D+00
217  2.1600000000000D+00  0.0000000000000D+00  0.0000000000000D+00
218  2.1700000000000D+00  0.0000000000000D+00  0.0000000000000D+00
219  2.1800000000000D+00  0.0000000000000D+00  0.0000000000000D+00
220  2.1900000000000D+00  0.0000000000000D+00  0.0000000000000D+00
221  2.2000000000000D+00  0.0000000000000D+00  0.0000000000000D+00
222  2.2100000000000D+00  0.0000000000000D+00  0.0000000000000D+00
223  2.2200000000000D+00  0.0000000000000D+00  0.0000000000000D+00
224  2.2300000000000D+00  0.0000000000000D+00  0.0000000000000D+00
225  2.2400000000000D+00  0.0000000000000D+00  0.0000000000000D+00
226  2.2500000000000D+00  0.0000000000000D+00  0.0000000000000D+00
227  2.2600000000000D+00  0.0000000000000D+00  0.0000000000000D+00
228  2.2700000000000D+00  0.0000000000000D+00  0.0000000000000D+00
229  2.2800000000000D+00  0.0000000000000D+00  0.0000000000000D+00
230  2.2900000000000D+00  0.0000000000000D+00  0.0000000000000D+00
231  2.3000000000000D+00  0.0000000000000D+00  0.0000000000000D+00
232  2.3100000000000D+00  0.0000000000000D+00  0.0000000000000D+00
233  2.3200000000000D+00  0.0000000000000D+00  0.0000000000000D+00
234  2.3300000000000D+00  0.0000000000000D+00  0.0000000000000D+00
235  2.3400000000000D+00  0.0000000000000D+00  0.0000000000000D+00
236  2.3500000000000D+00  0.0000000000000D+00  0.0000000000000D+00
237  2.3600000000000D+00  0.0000000000000D+00  0.0000000000000D+00
238  2.3700000000000D+00  0.0000000000000D+00  0.0000000000000D+00
239  2.3800000000000D+00  0.0000000000000D+00  0.0000000000000D+00
240  2.3900000000000D+00  0.0000000000000D+00  0.0000000000000D+00
241  2.4000000000000D+00  0.0000000000000D+00  0.0000000000000D+00
242  2.4100000000000D+00  0.0000000000000D+00  0.0000000000000D+00
243  2.4200000000000D+00  0.0000000000000D+00  0.0000000000000D+00
244  2.4300000000000D+00  0.0000000000000D+00  0.0000000000000D+00
245  2.4400000000000D+00  0.0000000000000D+00  0.0000000000000D+00
246  2.4500000000000D+00  0.0000000000000D+00  0.0000000000000D+00
247  2.4600000000000D+00  0.0000000000000D+00  0.0000000000000D+00
248  2.4700000000000D+00  0.0000000000000D+00  0.0000000000000D+00
249  2.4800000000000D+00  0.0000000000000D+00  0.0000000000000D+00
250  2.4900000000000D+00  0.0000000000000D+00  0.0000000000000D+00
251  2.5000000000000D+00  0.0000000000000D+00  0.0000000000000D+00
252  2.5100000000000D+00  0.0000000000000D+00  0.0000000000000D+00
253  2.5200000000000D+00  0.0000000000000D+00  0.0000000000000D+00
254  2.5300000000000D+00  0.0000000000000D+00  0.0000000000000D+00
255  2.5400000000000D+00  0.0000000000000D+00  0.0000000000000D+00
256  2.5500000000000D+00  0.0000000000000D+00  0.0000000000000D+00
257  2.5600000000000D+00  0.0000000000000D+00  0.0000000000000D+00
258  2.5700000000000D+00  0.0000000000000D+00  0.0000000000000D+00
259  2.5800000000000D+00  0.0000000000000D+00  0.0000000000000D+00
260  2.5900000000000D+00  0.0000000000000D+00  0.0000000000000D+00
261  2.6000000000000D+00  0.0000000000000D+00  0.0000000000000D+00
262  2.6100000000000D+00  0.0000000000000D+00  0.0000000000000D+00
263  2.6200000000000D+00  0.0000000000000D+00  0.0000000000000D+00
264  2.6300000000000D+00  0.0000000000000D+00  0.0000000000000D+00
265  2.6400000000000D+00  0.0000000000000D+00  0.0000000000000D+00
266  2.6500000000000D+00  0.0000000000000D+00  0.0000000000000D+00
267  2.6600000000000D+00  0.0000000000000D+00  0.0000000000000D+00
268  2.6700000000000D+00  0.0000000000000D+00  0.0000000000000D+00
269  2.6800000000000D+00  0.0000000000000D+00  0.0000000000000D+00
270  2.6900000000000D+00  0.0000000000000D+00  0.0000000000000D+00
271  2.7000000000000D+00  0.0000000000000D+00  0.0000000000000D+00
272  2.7100000000000D+00  0.0000000000000D+00  0.0000000000000D+00
273  2.7200000000000D+00  0.0000000000000D+00  0.0000000000000D+00
274  2.7300000000000D+00  0.0000000000000D+00  0.0000000000000D+00
275  2.7400000000000D+00  0.0000000000000D+00  0.0000000000000D+00
276  2.7500000000000D+00  0.0000000000000D+00  0.0000000000000D+00
277  2.7600000000000D+00  0.0000000000000D+00  0.0000000000000D+00
278  2.7700000000000D+00  0.0000000000000D+00  0.0000000000000D+00
279  2.7800000000000D+00  0.0000000000000D+00  0.0000000000000D+00
280  2.7900000000000D+00  0.0000000000000D+00  0.0000000000000D+00
281  2.8000000000000D+00  0.0000000000000D+00  0.0000000000000D+00
282  2.8100000000000D+00  0.0000000000000D+00  0.0000000000000D+00
283  2.8200000000000D+00  0.0000000000000D+00  0.0000000000000D+00
284  2.8300000000000D+00  0.0000000000000D+00  0.0000000000000D+00
285  2.8400000000000D+00  0.0000000000000D+00  0.0000000000000D+00
286  2.8500000000000D+00  0.0000000000000D+00  0.0000000000000D+00
287  2.8600000000000D+00  0.0000000000000D+00  0.0000000000000D+00
288  2.8700000000000D+00  0.0000000000000D+00  0.0000000000000D+00
289  2.8800000000000D+00  0.0000000000000D+00  0.0000000000000D+00
290  2.8900000000000D+00  0.0000000000000D+00  0.0000000000000D+00
291  2.9000000000000D+00  0.0000000000000D+00  0.0000000000000D+00
292  2.9100000000000D+00  0.0000000000000D+00  0.0000000000000D+00
293  2.9200000000000D+00  0.0000000000000D+00  0.0000000000000D+00
294  2.9300000000000D+00  0.0000000000000D+00  0.0000000000000D+00
295  2.9400000000000D+00  0.0000000000000D+00  0.0000000000000D+00
296  2.9500000000000D+00  0.0000000000000D+00  0.0000000000000D+00
297  2.9600000000000D+00  0.0000000000000D+00  0.0000000000000D+00
298  2.9700000000000D+00  0.0000000000000D+00  0.0000000000000D+00
299  2.9800000000000D+00  0.0000000000000D+00  0.0000000000000D+00
300  2.9900000000000D+00  0.0000000000000D+00  0.0000000000000D+00
301  3.0000000000000D+00  0.0000000000000D+00  0.0000000000000D+00
302  3.0100000000000D+00  0.0000000000000D+00  0.0000000000000D+00
303  3.0200000000000D+00  0.0000000000000D+00  0.0000000000000D+00
304  3.0300000000000D+00  0.0000000000000D+00  0.0000000000000D+00
305  3.0400000000000D+00  0.0000000000000D+00  0.0000000000000D+00
306  3.0500000000000D+00  0.0000000000000D+00  0.0000000000000D+00
307  3.0600000000000D+00  0.0000000000000D+00  0.0000000000000D+00
308  3.0700000000000D+00  0.0000000000000D+00  0.0000000000000D+00
309  3.0800000000000D+00  0.0000000000000D+00  0.0000000000000D+00
310  3.0900000000000D+00  0.0000000000000D+00  0.0000000000000D+00
311  3.1000000000000D+00  0.0000000000000D+00  0.0000000000000D+00
312  3.1100000000000D+00  0.0000000000000D+00  0.0000000000000D+00
313  3.1200000000000D+00  0.0000000000000D+00  0.0000000000000D+00
314  3.1300000000000D+00  0.0000000000000D+00  0.0000000000000D+00
315  3.1400000000000D+00  0.0000000000000D+00  0.0000000000000D+00
316  3.1500000000000D+00  0.0000000000000D+00  0.0000000000000D+00
317  3.1600000000000D+00  0.0000000000000D+00  0.0000000000000D+00
318  3.1700000000000D+00  0.0000000000000D+00  0.0000000000000D+00
319  3.1800000000000D+00  0.0000000000000D+00  0.0000000000000D+00
320  3.1900000000000D+00  0.0000000000000D+00  0.0000000000000D+00
321  3.2000000000000D+00  0.0000000000000D+00  0.0000000000000D+00
322  3.2100000000000D+00  0.0000000000000D+00  0.0000000000000D+00
323  3.2200000000000D+00  0.0000000000000D+00  0.0000000000000D+00
324  3.2300000000000D+00  0.0000000000000D+00  0.0000000000000D+00
325  3.2400000000000D+00  0.0000000000000D+00  0.0000000000000D+00
326  3.2500000000000D+00  0.0000000000000D+00  0.0000000000000D+00
327  3.2600000000000D+00  0.0000000000000D+00  0.0000000000000D+00
328  3.2700000000000D+00  0.0000000000000D+00  0.0000000000000D+00
329  3.2800000000000D+00  0.0000000000000D+00  0.0000000000000D+00
330  3.2900000000000D+00  0.0000000000000D+00  0.0000000000000D+00
331  3.3000000000000D+00  0.0000000000000D+00  0.0000000000000D+00
332  3.3100000000000D+00  0.0000000000000D+00  0.0000000000000D+00
333  3.3200000000000D+00  0.0000000000000D+00  0.0000000000000D+00
334  3.3300000000000D+00  0.0000000000000D+00  0.0000000000000D+00
335  3.3400000000000D+00  0.0000000000000D+00  0.0000000000000D+00
336  3.3500000000000D+00  0.0000000000000D+00  0.0000000000000D+00
337  3.3600000000000D+00  0.0000000000000D+00  0.0000000000000D+00
338  3.3700000000000D+00  0.0000000000000D+00  0.0000000000000D+00
339  3.3800000000000D+00  0.0000000000000D+00  0.0000000000000D+00
340  3.3900000000000D+00  0.0000000000000D+00  0.0000000000000D+00
341  3.4000000000000D+00  0.0000000000000D+00  0.0000000000000D+00
342  3.4100000000000D+00  0.0000000000000D+00  0.0000000000000D+00
343  3.4200000000000D+00  0.0000000000000D+00  0.0000000000000D+00
344  3.4300000000000D+00  0.0000000000000D+00  0.0000000000000D+00
345  3.4400000000000D+00  0.0000000000000D+00  0.0000000000000D+00
346  3.4500000000000D+00  0.0000000000000D+00  0.0000000000000D+00
347  3.4600000000000D+00  0.0000000000000D+00  0.0000000000000D+00
348  3.4700000000000D+00  0.0000000000000D+00  0.0000000000000D+00
349  3.4800000000000D+00  0.0000000000000D+00  0.0000000000000D+00
350  3.4900000000000D+00  0.0000000000000D+00  0.0000000000000D+00
351  3.5000000000000D+00  0.0000000000000D+00  0.0000000000000D+00
352  3.5100000000000D+00  0.0000000000000D+00  0.0000000000000D+00
353  3.5200000000000D+00  0.0000000000000D+00  0.0000000000000D+00
354  3.5300000000000D+00  0.0000000000000D+00  0.0000000000000D+00
355  3.5400000000000D+00  0.0000000000000D+00  0.0000000000000D+00
356  3.5500000000000D+00  0.0000000000000D+00  0.0000000000000D+00
357  3.5600000000000D+00  0.0000000000000D+00  0.0000000000000D+00
358  3.5700000000000D+00  0.0000000000000D+00  0.0000000000000D+00
359  3.5800000000000D+00  0.0000000000000D+00  0.0000000000000D+00
360  3.5900000000000D+00  0.0000000000000D+00  0.0000000000000D+00
361  3.6000000000000D+00  0.0000000000000D+00  0.0000000000000D+00
362  3.6100000000000D+00  0.0000000000000D+00  0.0000000000000D+00
363  3.6200000000000D+00  0.0000000000000D+00  0.0000000000000D+00
364  3.6300000000000D+00  0.0000000000000D+00  0.0000000000000D+00
365  3.6400000000000D+00  0.0000000000000D+00  0.0000000000000D+00
366  3.6500000000000D+00  0.0000000000000D+00  0.0000000000000D+00
367  3.6600000000000D+00  0.0000000000000D+00  0.0000000000000D+00
368  3.6700000000000D+00  0.0000000000000D+00  0.0000000000000D+00
369  3.6800000000000D+00  0.0000000000000D+00  0.0000000000000D+00
370  3.6900000000000D+00  0.0000000000000D+00  0.0000000000000D+00
371  3.7000000000000D+00  0.0000000000000D+00  0.0000000000000D+00
372  3.7100000000000D+00  0.0000000000000D+00  0.0000000000000D+00
373  3.7200000000000D+00  0.0000000000000D+00  0.0000000000000D+00
374  3.7300000000000D+00  0.0000000000000D+00  0.0000000000000D+00
375  3.7400000000000D+00  0.0000000000000D+00  0.0000000000000D+00
376  3.7500000000000D+00  0.0000000000000D+00  0.0000000000000D+00
377  3.7600000000000D+00  0.0000000000000D+00  0.0000000000000D+00
378  3.7700000000000D+00  0.0000000000000D+00  0.0000000000000D+00
379  3.7800000000000D+00  0.0000000000000D+00  0.0000000000000D+00
380  3.7900000000000D+00  0.0000000000000D+00  0.0000000000000D+00
381  3.8000000000000D+00  0.0000000000000D+00  0.0000000000000D+00
382  3.8100000000000D+00  0.0000000000000D+00  0.0000000000000D+00
383  3.8200000000000D+00  0.0000000000000D+00  0.0000000000000D+00
384  3.8300000000000D+00  0.0000000000000D+00  0.0000000000000D+00
385  3.8400000000000D+00  0.0000000000000D+00  0.0000000000000D+00
386  3.8500000000000D+00  0.0000000000000D+00  0.0000000000000D+00
387  3.8600000000000D+00  0.0000000000000D+00  0.0000000000000D+00
388  3.8700000000000D+00  0.0000000000000D+00  0.0000000000000D+00
389  3.8800000000000D+00  0.0000000000000D+00  0.0000000000000D+00
390  3.8900000000000D+00  0.0000000000000D+00  0.0000000000000D+00
391  3.9000000000000D+00  0.0000000000000D+00  0.0000000000000D+00
392  3.9100000000000D+00  0.0000000000000D+00  0.0000000000000D+00
393  3.9200000000000D+00  0.0000000000000D+00  0.0000000000000D+00
394  3.9300000000000D+00  0.0000000000000D+00  0.0000000000000D+00
395  3.9400000000000D+00  0.0000000000000D+00  0.0000000000000D+00
396  3.9500000000000D+00  0.0000000000000D+00  0.0000000000000D+00
397  3.9600000000000D+00  0.0000000000000D+00  0.0000000000000D+00
398  3.9700000000000D+00  0.0000000000000D+00  0.0000000000000D+00
399  3.9800000000000D+00  0.0000000000000D+00  0.0000000000000D+00
400  3.9900000000000D+00  0.0000000000000D+00  0.0000000000000D+00
401  4.0000000000000D+00  0.0000000000000D+00  0.0000000000000D+00
402  4.0100000000000D+00  0.0000000000000D+00  0.0000000000000D+00
403  4.0200000000000D+00  0.0000000000000D+00  0.0000000000000D+00
404  4.0300000000000D+00  0.0000000000000D+00  0.0000000000000D+00
405  4.0400000000000D+00  0.0000000000000D+00  0.0000000000000D+00
406  4.0500000000000D+00  0.0000000000000D+00  0.0000000000000D+00
407  4.0600000000000D+00  0.0000000000000D+00  0.0000000000000D+00
408  4.0700000000000D+00  0.0000000000000D+00  0.0000000000000D+00
409  4.0800000000000D+00  0.0000000000000D+00  0.0000000000000D+00
410  4.0900000000000D+00  0.0000000000000D+00  0.0000000000000D+00
411  4.1000000000000D+00  0.0000000000000D+00  0.0000000000000D+00
412  4.1100000000000D+00  0.0000000000000D+00  0.0000000000000D+00
413  4.1200000000000D+00  0.0000000000000D+00  0.0000000000000D+00
414  4.1300000000000D+00  0.0000000000000D+00  0.0000000000000D+00
415  4.1400000000000D+00  0.0000000000000D+00  0.0000000000000D+00
416  4.1500000000000D+00  0.0000000000000D+00  0.0000000000000D+00
417  4.1600000000000D+00  0.0000000000000D+00  0.0000000000000D+00
418  4.1700000000000D+00  0.0000000000000D+00  0.0000000000000D+00
419  4.1800000000000D+00  0.0000000000000D+00  0.0000000000000D+00
420  4.1900000000000D+00  0.0000000000000D+00  0.0000000000000D+00
421  4.2000000000000D+00  0.0000000000000D+00  0.0000000000000D+00
422  4.2100000000000D+00  0.0000000000000D+00  0.0000000000000D+00
423  4.2200000000000D+00  0.0000000000000D+00  0.0000000000000D+00
424  4.2300000000000D+00  0.0000000000000D+00  0.0000000000000D+00
425  4.2400000000000D+00  0.0000000000000D+00  0.0000000000000D+00
426  4.2500000000000D+00  0.0000000000000D+00  0.0000000000000D+00
427  4.2600000000000D+00  0.0000000000000D+00  0.0000000000000D+00
428  4.2700000000000D+00  0.0000000000000D+00  0.0000000000000D+00
429  4.2800000000000D+00  0.0000000000000D+00  0.0000000000000D+00
430  4.2900000000000D+00  0.0000000000000D+00  0.0000000000000D+00
431  4.3000000000000D+00  0.0000000000000D+00  0.0000000000000D+00
432  4.3100000000000D+00  0.0000000000000D+00  0.0000000000000D+00
433  4.3200000000000D+00  0.0000000000000D+00  0.0000000000000D+00
434  4.3300000000000D+00  0.0000000000000D+00  0.0000000000000D+00
435  4.3400000000000D+00  0.0000000000000D+00  0.0000000000000D+00
436  4.3500000000000D+00  0.0000000000000D+00  0.0000000000000D+00
437  4.3600000000000D+00  0.0000000000000D+00  0.0000000000000D+00
438  4.3700000000000D+00  0.0000000000000D+00  0.0000000000000D+00
439  4.3800000000000D+00  0.0000000000000D+00  0.0000000000000D+00
440  4.3900000000000D+00  0.0000000000000D+00  0.0000000000000D+00
441  4.4000000000000D+00  0.0000000000000D+00  0.0000000000000D+00
442  4.4100000000000D+00  0.0000000000000D+00  0.0000000000000D+00
443  4.4200000000000D+00  0.0000000000000D+00  0.0000000000000D+00