Ge    ONCVPSP  r_core=  1.91  1.82  1.91
32.0000     14.0000      151211    zatom,zion,pspd
8   -1013   2     4   600     0    pspcod,pspxc,lmax,lloc,mmax,r2well
5.99000000  5.00000000  0.00000000    rchrg fchrg qchrg
2     4     2     0    nproj
2                 extension_switch
4     3     0    nprojso
0                         5.7161629725745D-01  6.2501882096442D+00
1  0.0000000000000D+00 -2.1508198000397D-11  1.2556899964267D-12
2  1.0000000000000D-02 -9.6834035223875D-03  3.0629846607980D-02
3  2.0000000000000D-02 -1.9381680490345D-02  6.1246725430798D-02
4  3.0000000000000D-02 -2.9109507294148D-02  9.1837647932214D-02
5  4.0000000000000D-02 -3.8881167325327D-02  1.2238958418687D-01
6  5.0000000000000D-02 -4.8710357251465D-02  1.5288944246799D-01
7  6.0000000000000D-02 -5.8609996604783D-02  1.8332404917294D-01
8  7.0000000000000D-02 -6.8592041763881D-02  2.1368012919775D-01
9  8.0000000000000D-02 -7.8667305386458D-02  2.4394428687048D-01
10  9.0000000000000D-02 -8.8845282324175D-02  2.7410298755185D-01
11  1.0000000000000D-01 -9.9133983019043D-02  3.0414254000935D-01
12  1.1000000000000D-01 -1.0953977534414D-01  3.3404907966940D-01
13  1.2000000000000D-01 -1.2006723580985D-01  3.6380855284902D-01
14  1.3000000000000D-01 -1.3071901101113D-01  3.9340670206622D-01
15  1.4000000000000D-01 -1.4149569014070D-01  4.2282905252505D-01
16  1.5000000000000D-01 -1.5239568933884D-01  4.5206089986769D-01
17  1.6000000000000D-01 -1.6341514859216D-01  4.8108729928275D-01
18  1.7000000000000D-01 -1.7454784183164D-01  5.0989305605468D-01
19  1.8000000000000D-01 -1.8578510081560D-01  5.3846271763518D-01
20  1.9000000000000D-01 -1.9711575331433D-01  5.6678056731300D-01
21  2.0000000000000D-01 -2.0852607604315D-01  5.9483061955390D-01
22  2.1000000000000D-01 -2.1999976271672D-01  6.2259661707751D-01
23  2.2000000000000D-01 -2.3151790752294D-01  6.5006202973277D-01
24  2.3000000000000D-01 -2.4305900423742D-01  6.7721005522810D-01
25  2.4000000000000D-01 -2.5459896112177D-01  7.0402362176700D-01
26  2.5000000000000D-01 -2.6611113166981D-01  7.3048539263379D-01
27  2.6000000000000D-01 -2.7756636118621D-01  7.5657777276835D-01
28  2.7000000000000D-01 -2.8893304910265D-01  7.8228291736244D-01
29  2.8000000000000D-01 -3.0017722685646D-01  8.0758274250378D-01
30  2.9000000000000D-01 -3.1126265107867D-01  8.3245893788761D-01
31  3.0000000000000D-01 -3.2215091175969D-01  8.5689298160882D-01
32  3.1000000000000D-01 -3.3280155498463D-01  8.8086615704075D-01
33  3.2000000000000D-01 -3.4317221975543D-01  9.0435957180003D-01
34  3.3000000000000D-01 -3.5321878834394D-01  9.2735417878973D-01
35  3.4000000000000D-01 -3.6289554954984D-01  9.4983079930584D-01
36  3.5000000000000D-01 -3.7215537416975D-01  9.7177014818521D-01
37  3.6000000000000D-01 -3.8094990191928D-01  9.9315286096540D-01
38  3.7000000000000D-01 -3.8922973898852D-01  1.0139595230200D+00
39  3.8000000000000D-01 -3.9694466535460D-01  1.0341707006255D+00
40  3.9000000000000D-01 -4.0404385092077D-01  1.0537669739077D+00
41  4.0000000000000D-01 -4.1047607950336D-01  1.0727289716107D+00
42  4.1000000000000D-01 -4.1618997964232D-01  1.0910374076206D+00
43  4.2000000000000D-01 -4.2113426117221D-01  1.1086731191717D+00
44  4.3000000000000D-01 -4.2525795645478D-01  1.1256171066549D+00
45  4.4000000000000D-01 -4.2851066514514D-01  1.1418505749407D+00
46  4.5000000000000D-01 -4.3084280133877D-01  1.1573549761220D+00
47  4.6000000000000D-01 -4.3220584192770D-01  1.1721120535752D+00
48  4.7000000000000D-01 -4.3255257498050D-01  1.1861038872326D+00
49  4.8000000000000D-01 -4.3183734695329D-01  1.1993129399494D+00
50  4.9000000000000D-01 -4.3001630753639D-01  1.2117221048467D+00
51  5.0000000000000D-01 -4.2704765094488D-01  1.2233147535010D+00
52  5.1000000000000D-01 -4.2289185247061D-01  1.2340747848481D+00
53  5.2000000000000D-01 -4.1751189912820D-01  1.2439866746628D+00
54  5.3000000000000D-01 -4.1087351324782D-01  1.2530355254697D+00
55  5.4000000000000D-01 -4.0294536789422D-01  1.2612071167350D+00
56  5.5000000000000D-01 -3.9369929302199D-01  1.2684879551872D+00
57  5.6000000000000D-01 -3.8311047131544D-01  1.2748653251059D+00
58  5.7000000000000D-01 -3.7115762270187D-01  1.2803273384175D+00
59  5.8000000000000D-01 -3.5782317657507D-01  1.2848629844309D+00
60  5.9000000000000D-01 -3.4309343081737D-01  1.2884621790444D+00
61  6.0000000000000D-01 -3.2695869676436D-01  1.2911158132498D+00
62  6.1000000000000D-01 -3.0941342931781D-01  1.2928158007616D+00
63  6.2000000000000D-01 -2.9045634147585D-01  1.2935551245924D+00
64  6.3000000000000D-01 -2.7009050261839D-01  1.2933278823977D+00
65  6.4000000000000D-01 -2.4832341995692D-01  1.2921293304111D+00
66  6.5000000000000D-01 -2.2516710263299D-01  1.2899559257914D+00
67  6.6000000000000D-01 -2.0063810802570D-01  1.2868053672018D+00
68  6.7000000000000D-01 -1.7475756990989D-01  1.2826766334440D+00
69  6.8000000000000D-01 -1.4755120818674D-01  1.2775700199706D+00
70  6.9000000000000D-01 -1.1904931999248D-01  1.2714871731011D+00
71  7.0000000000000D-01 -8.9286752074579D-02  1.2644311217697D+00
72  7.1000000000000D-01 -5.8302854410274D-02  1.2564063066365D+00
73  7.2000000000000D-01 -2.6141415127217D-02  1.2474186063974D+00
74  7.3000000000000D-01  7.1494231284185D-03  1.2374753611327D+00
75  7.4000000000000D-01  4.1517265146724D-02  1.2265853925396D+00
76  7.5000000000000D-01  7.6905583117765D-02  1.2147590208993D+00
77  7.6000000000000D-01  1.1325385420771D-01  1.2020080786367D+00
78  7.7000000000000D-01  1.5049771527068D-01  1.1883459203381D+00
79  7.8000000000000D-01  1.8856913413986D-01  1.1737874290981D+00
80  7.9000000000000D-01  2.2739659686622D-01  1.1583490190778D+00
81  8.0000000000000D-01  2.6690531019919D-01  1.1420486341649D+00
82  8.1000000000000D-01  3.0701741853335D-01  1.1249057426354D+00
83  8.2000000000000D-01  3.4765223447947D-01  1.1069413277267D+00
84  8.3000000000000D-01  3.8872648215453D-01  1.0881778740450D+00
85  8.4000000000000D-01  4.3015455222756D-01  1.0686393497391D+00
86  8.5000000000000D-01  4.7184876770381D-01  1.0483511843857D+00
87  8.6000000000000D-01  5.1371965938089D-01  1.0273402425440D+00
88  8.7000000000000D-01  5.5567624986571D-01  1.0056347929512D+00
89  8.8000000000000D-01  5.9762634500265D-01  9.8326447334277D-01
90  8.9000000000000D-01  6.3947683152934D-01  9.6026025089578D-01
91  9.0000000000000D-01  6.8113397974852D-01  9.3665437830894D-01
92  9.1000000000000D-01  7.2250374998198D-01  9.1248034554679D-01
93  9.2000000000000D-01  7.6349210155635D-01  8.8777282729081D-01
94  9.3000000000000D-01  8.0400530305920D-01  8.6256762615565D-01
95  9.4000000000000D-01  8.4395024259970D-01  8.3690161174427D-01
96  9.5000000000000D-01  8.8323473680873D-01  8.1081265563136D-01
97  9.6000000000000D-01  9.2176783732098D-01  7.8433956238026D-01
98  9.7000000000000D-01  9.5946013349388D-01  7.5752199671456D-01
99  9.8000000000000D-01  9.9622405013711D-01  7.3040040698121D-01
100  9.9000000000000D-01  1.0319741390510D+00  7.0301594505797D-01
101  1.0000000000000D+00  1.0666273632023D+00  6.7541038287356D-01
102  1.0100000000000D+00  1.1001033723992D+00  6.4762602572426D-01
103  1.0200000000000D+00  1.1323247693715D+00  6.1970562258580D-01
104  1.0300000000000D+00  1.1632173652031D+00  5.9169227363472D-01
105  1.0400000000000D+00  1.1927104231175D+00  5.6362933520716D-01
106  1.0500000000000D+00  1.2207368896683D+00  5.3556032243742D-01
107  1.0600000000000D+00  1.2472336124517D+00  5.0752880983236D-01
108  1.0700000000000D+00  1.2721415435089D+00  4.7957833004947D-01
109  1.0800000000000D+00  1.2954059276654D+00  4.5175227116013D-01
110  1.0900000000000D+00  1.3169764751137D+00  4.2409377268986D-01
111  1.1000000000000D+00  1.3368075176234D+00  3.9664562073882D-01
112  1.1100000000000D+00  1.3548581478365D+00  3.6945014249528D-01
113  1.1200000000000D+00  1.3710923411728D+00  3.4254910046315D-01
114  1.1300000000000D+00  1.3854790599640D+00  3.1598358673407D-01
115  1.1400000000000D+00  1.3979923395005D+00  2.8979391763997D-01
116  1.1500000000000D+00  1.4086113557681D+00  2.6401952912895D-01
117  1.1600000000000D+00  1.4173204747074D+00  2.3869887321074D-01
118  1.1700000000000D+00  1.4241092829401D+00  2.1386931582327D-01
119  1.1800000000000D+00  1.4289725999657D+00  1.8956703647276D-01
120  1.1900000000000D+00  1.4319104719177D+00  1.6582693000110D-01
121  1.2000000000000D+00  1.4329281470331D+00  1.4268251083480D-01
122  1.2100000000000D+00  1.4320360330879D+00  1.2016582006771D-01
123  1.2200000000000D+00  1.4292496371153D+00  9.8307335725467D-02
124  1.2300000000000D+00  1.4245894877691D+00  7.7135886559002D-02
125  1.2400000000000D+00  1.4180810408043D+00  5.6678569705568D-02
126  1.2500000000000D+00  1.4097545681953D+00  3.6960672548113D-02
127  1.2600000000000D+00  1.3996450314527D+00  1.8005599100064D-02
128  1.2700000000000D+00  1.3877919397860D+00 -1.6519877030590D-04
129  1.2800000000000D+00  1.3742391938146D+00 -1.7532284976639D-02
130  1.2900000000000D+00  1.3590349155452D+00 -3.4078297416133D-02
131  1.3000000000000D+00  1.3422312654125D+00 -4.9788000458924D-02
132  1.3100000000000D+00  1.3238842472207D+00 -6.4648331471060D-02
133  1.3200000000000D+00  1.3040535018218D+00 -7.8648441113410D-02
134  1.3300000000000D+00  1.2828020904430D+00 -9.1779727192030D-02
135  1.3400000000000D+00  1.2601962685792D+00 -1.0403586186239D-01
136  1.3500000000000D+00  1.2363052513735D+00 -1.1541281197156D-01
137  1.3600000000000D+00  1.2112009714587D+00 -1.2590885239172D-01
138  1.3700000000000D+00  1.1849578302075D+00 -1.3552457219422D-01
139  1.3800000000000D+00  1.1576524433693D+00 -1.4426287351748D-01
140  1.3900000000000D+00  1.1293633820534D+00 -1.5212896306306D-01
141  1.4000000000000D+00  1.1001709100244D+00 -1.5913033610968D-01
142  1.4100000000000D+00  1.0701567182698D+00 -1.6527675300329D-01
143  1.4200000000000D+00  1.0394036577459D+00 -1.7058020811888D-01
144  1.4300000000000D+00  1.0079954712730D+00 -1.7505489123841D-01
145  1.4400000000000D+00  9.7601652540718D-01 -1.7871714143674D-01
146  1.4500000000000D+00  9.4355154320632D-01 -1.8158539347057D-01
147  1.4600000000000D+00  9.1068533870505D-01 -1.8368011677448D-01
148  1.4700000000000D+00  8.7750255385508D-01 -1.8502374718364D-01
149  1.4800000000000D+00  8.4408739879175D-01 -1.8564061145685D-01
150  1.4900000000000D+00  8.1052339597726D-01 -1.8555684484969D-01
151  1.5000000000000D+00  7.7689312908460D-01 -1.8480030181313D-01
152  1.5100000000000D+00  7.4327799705733D-01 -1.8340046012881D-01
153  1.5200000000000D+00  7.0975797404890D-01 -1.8138831864309D-01
154  1.5300000000000D+00  6.7641137570634D-01 -1.7879628889384D-01
155  1.5400000000000D+00  6.4331463222824D-01 -1.7565808092123D-01
156  1.5500000000000D+00  6.1054206874221D-01 -1.7200858352211D-01
157  1.5600000000000D+00  5.7816569312956D-01 -1.6788373936219D-01
158  1.5700000000000D+00  5.4625499192082D-01 -1.6332041518070D-01
159  1.5800000000000D+00  5.1487673411885D-01 -1.5835626759643D-01
160  1.5900000000000D+00  4.8409478357588D-01 -1.5302960475813D-01
161  1.6000000000000D+00  4.5396991963617D-01 -1.4737924438805D-01
162  1.6100000000000D+00  4.2455966652767D-01 -1.4144436851827D-01
163  1.6200000000000D+00  3.9591813120162D-01 -1.3526437546160D-01
164  1.6300000000000D+00  3.6809584989809D-01 -1.2887872938619D-01
165  1.6400000000000D+00  3.4113964314714D-01 -1.2232680802333D-01
166  1.6500000000000D+00  3.1509247929815D-01 -1.1564774893117D-01
167  1.6600000000000D+00  2.8999334628718D-01 -1.0888029483664D-01
168  1.6700000000000D+00  2.6587713158672D-01 -1.0206263851337D-01
169  1.6800000000000D+00  2.4277451003119D-01 -9.5232267715380D-02
170  1.6900000000000D+00  2.2071183935798D-01 -8.8425810641778D-02
171  1.7000000000000D+00  1.9971106005917D-01 -8.1678881970636D-02
172  1.7100000000000D+00  1.7978961653559D-01 -7.5025932639379D-02
173  1.7200000000000D+00  1.6096034520669D-01 -6.8500095260836D-02
174  1.7300000000000D+00  1.4323145470549D-01 -6.2133046205220D-02
175  1.7400000000000D+00  1.2660650034938D-01 -5.5954867847883D-02
176  1.7500000000000D+00  1.1108399539142D-01 -4.9993856301459D-02
177  1.7600000000000D+00  9.6657501454877D-02 -4.4276409458120D-02
178  1.7700000000000D+00  8.3316621973640D-02 -3.8827056246819D-02
179  1.7800000000000D+00  7.1047686129361D-02 -3.3668447338509D-02
180  1.7900000000000D+00  5.9834564994598D-02 -2.8821390141687D-02
181  1.8000000000000D+00  4.9659648891259D-02 -2.4304910670365D-02
182  1.8100000000000D+00  4.0503563562736D-02 -2.0136126942866D-02
183  1.8200000000000D+00  3.2345061280267D-02 -1.6330160241429D-02
184  1.8300000000000D+00  2.5161320714691D-02 -1.2900107962873D-02
185  1.8400000000000D+00  1.8927935461297D-02 -9.8569774974108D-03
186  1.8500000000000D+00  1.3621191441875D-02 -7.2110912120872D-03
187  1.8600000000000D+00  9.2092330326680D-03 -4.9661526645182D-03
188  1.8700000000000D+00  5.6555902648398D-03 -3.1210532407758D-03
189  1.8800000000000D+00  2.9444332521079D-03 -1.6880946175424D-03
190  1.8900000000000D+00  1.0688318815447D-03 -6.8601114343961D-04
191  1.9000000000000D+00 -2.1532759481976D-05 -9.9908082304210D-05
192  1.9100000000000D+00 -4.4430636471537D-04  1.4281369289762D-04
193  1.9200000000000D+00 -3.5418630427760D-04  1.3624562283628D-04
194  1.9300000000000D+00 -7.9522189457663D-05  3.2095691988389D-05
195  1.9400000000000D+00  6.9204555500591D-05 -2.8304204764963D-05
196  1.9500000000000D+00  5.0517570660435D-05 -2.0958708273023D-05
197  1.9600000000000D+00 -8.7829182173135D-06  3.4766304228860D-06
198  1.9700000000000D+00 -1.5042478736291D-05  5.9985744737942D-06
199  1.9800000000000D+00  3.7428505097178D-08 -1.2132906319381D-08
200  1.9900000000000D+00  1.2559480836878D-06 -4.0713088598719D-07
201  2.0000000000000D+00  5.4431694132285D-07 -1.7644697376974D-07
202  2.0100000000000D+00  0.0000000000000D+00  0.0000000000000D+00
203  2.0200000000000D+00  0.0000000000000D+00  0.0000000000000D+00
204  2.0300000000000D+00  0.0000000000000D+00  0.0000000000000D+00
205  2.0400000000000D+00  0.0000000000000D+00  0.0000000000000D+00
206  2.0500000000000D+00  0.0000000000000D+00  0.0000000000000D+00
207  2.0600000000000D+00  0.0000000000000D+00  0.0000000000000D+00
208  2.0700000000000D+00  0.0000000000000D+00  0.0000000000000D+00
209  2.0800000000000D+00  0.0000000000000D+00  0.0000000000000D+00
210  2.0900000000000D+00  0.0000000000000D+00  0.0000000000000D+00
211  2.1000000000000D+00  0.0000000000000D+00  0.0000000000000D+00
212  2.1100000000000D+00  0.0000000000000D+00  0.0000000000000D+00
213  2.1200000000000D+00  0.0000000000000D+00  0.0000000000000D+00
214  2.1300000000000D+00  0.0000000000000D+00  0.0000000000000D+00
215  2.1400000000000D+00  0.0000000000000D+00  0.0000000000000D+00
216  2.1500000000000D+00  0.0000000000000D+00  0.0000000000000D+00
217  2.1600000000000D+00  0.0000000000000D+00  0.0000000000000D+00
218  2.1700000000000D+00  0.0000000000000D+00  0.0000000000000D+00
219  2.1800000000000D+00  0.0000000000000D+00  0.0000000000000D+00
220  2.1900000000000D+00  0.0000000000000D+00  0.0000000000000D+00
221  2.2000000000000D+00  0.0000000000000D+00  0.0000000000000D+00
222  2.2100000000000D+00  0.0000000000000D+00  0.0000000000000D+00
223  2.2200000000000D+00  0.0000000000000D+00  0.0000000000000D+00
224  2.2300000000000D+00  0.0000000000000D+00  0.0000000000000D+00
225  2.2400000000000D+00  0.0000000000000D+00  0.0000000000000D+00
226  2.2500000000000D+00  0.0000000000000D+00  0.0000000000000D+00
227  2.2600000000000D+00  0.0000000000000D+00  0.0000000000000D+00
228  2.2700000000000D+00  0.0000000000000D+00  0.0000000000000D+00
229  2.2800000000000D+00  0.0000000000000D+00  0.0000000000000D+00
230  2.2900000000000D+00  0.0000000000000D+00  0.0000000000000D+00
231  2.3000000000000D+00  0.0000000000000D+00  0.0000000000000D+00
232  2.3100000000000D+00  0.0000000000000D+00  0.0000000000000D+00
233  2.3200000000000D+00  0.0000000000000D+00  0.0000000000000D+00
234  2.3300000000000D+00  0.0000000000000D+00  0.0000000000000D+00
235  2.3400000000000D+00  0.0000000000000D+00  0.0000000000000D+00
236  2.3500000000000D+00  0.0000000000000D+00  0.0000000000000D+00
237  2.3600000000000D+00  0.0000000000000D+00  0.0000000000000D+00
238  2.3700000000000D+00  0.0000000000000D+00  0.0000000000000D+00
239  2.3800000000000D+00  0.0000000000000D+00  0.0000000000000D+00
240  2.3900000000000D+00  0.0000000000000D+00  0.0000000000000D+00
241  2.4000000000000D+00  0.0000000000000D+00  0.0000000000000D+00
242  2.4100000000000D+00  0.0000000000000D+00  0.0000000000000D+00
243  2.4200000000000D+00  0.0000000000000D+00  0.0000000000000D+00
244  2.4300000000000D+00  0.0000000000000D+00  0.0000000000000D+00
245  2.4400000000000D+00  0.0000000000000D+00  0.0000000000000D+00
246  2.4500000000000D+00  0.0000000000000D+00  0.0000000000000D+00
247  2.4600000000000D+00  0.0000000000000D+00  0.0000000000000D+00
248  2.4700000000000D+00  0.0000000000000D+00  0.0000000000000D+00
249  2.4800000000000D+00  0.0000000000000D+00  0.0000000000000D+00
250  2.4900000000000D+00  0.0000000000000D+00  0.0000000000000D+00
251  2.5000000000000D+00  0.0000000000000D+00  0.0000000000000D+00
252  2.5100000000000D+00  0.0000000000000D+00  0.0000000000000D+00
253  2.5200000000000D+00  0.0000000000000D+00  0.0000000000000D+00
254  2.5300000000000D+00  0.0000000000000D+00  0.0000000000000D+00
255  2.5400000000000D+00  0.0000000000000D+00  0.0000000000000D+00
256  2.5500000000000D+00  0.0000000000000D+00  0.0000000000000D+00
257  2.5600000000000D+00  0.0000000000000D+00  0.0000000000000D+00
258  2.5700000000000D+00  0.0000000000000D+00  0.0000000000000D+00
259  2.5800000000000D+00  0.0000000000000D+00  0.0000000000000D+00
260  2.5900000000000D+00  0.0000000000000D+00  0.0000000000000D+00
261  2.6000000000000D+00  0.0000000000000D+00  0.0000000000000D+00
262  2.6100000000000D+00  0.0000000000000D+00  0.0000000000000D+00
263  2.6200000000000D+00  0.0000000000000D+00  0.0000000000000D+00
264  2.6300000000000D+00  0.0000000000000D+00  0.0000000000000D+00
265  2.6400000000000D+00  0.0000000000000D+00  0.0000000000000D+00
266  2.6500000000000D+00  0.0000000000000D+00  0.0000000000000D+00
267  2.6600000000000D+00  0.0000000000000D+00  0.0000000000000D+00
268  2.6700000000000D+00  0.0000000000000D+00  0.0000000000000D+00
269  2.6800000000000D+00  0.0000000000000D+00  0.0000000000000D+00
270  2.6900000000000D+00  0.0000000000000D+00  0.0000000000000D+00
271  2.7000000000000D+00  0.0000000000000D+00  0.0000000000000D+00
272  2.7100000000000D+00  0.0000000000000D+00  0.0000000000000D+00
273  2.7200000000000D+00  0.0000000000000D+00  0.0000000000000D+00
274  2.7300000000000D+00  0.0000000000000D+00  0.0000000000000D+00
275  2.7400000000000D+00  0.0000000000000D+00  0.0000000000000D+00
276  2.7500000000000D+00  0.0000000000000D+00  0.0000000000000D+00
277  2.7600000000000D+00  0.0000000000000D+00  0.0000000000000D+00
278  2.7700000000000D+00  0.0000000000000D+00  0.0000000000000D+00
279  2.7800000000000D+00  0.0000000000000D+00  0.0000000000000D+00
280  2.7900000000000D+00  0.0000000000000D+00  0.0000000000000D+00
281  2.8000000000000D+00  0.0000000000000D+00  0.0000000000000D+00
282  2.8100000000000D+00  0.0000000000000D+00  0.0000000000000D+00
283  2.8200000000000D+00  0.0000000000000D+00  0.0000000000000D+00
284  2.8300000000000D+00  0.0000000000000D+00  0.0000000000000D+00
285  2.8400000000000D+00  0.0000000000000D+00  0.0000000000000D+00
286  2.8500000000000D+00  0.0000000000000D+00  0.0000000000000D+00
287  2.8600000000000D+00  0.0000000000000D+00  0.0000000000000D+00
288  2.8700000000000D+00  0.0000000000000D+00  0.0000000000000D+00
289  2.8800000000000D+00  0.0000000000000D+00  0.0000000000000D+00
290  2.8900000000000D+00  0.0000000000000D+00  0.0000000000000D+00
291  2.9000000000000D+00  0.0000000000000D+00  0.0000000000000D+00
292  2.9100000000000D+00  0.0000000000000D+00  0.0000000000000D+00
293  2.9200000000000D+00  0.0000000000000D+00  0.0000000000000D+00
294  2.9300000000000D+00  0.0000000000000D+00  0.0000000000000D+00
295  2.9400000000000D+00  0.0000000000000D+00  0.0000000000000D+00
296  2.9500000000000D+00  0.0000000000000D+00  0.0000000000000D+00
297  2.9600000000000D+00  0.0000000000000D+00  0.0000000000000D+00
298  2.9700000000000D+00  0.0000000000000D+00  0.0000000000000D+00
299  2.9800000000000D+00  0.0000000000000D+00  0.0000000000000D+00
300  2.9900000000000D+00  0.0000000000000D+00  0.0000000000000D+00
301  3.0000000000000D+00  0.0000000000000D+00  0.0000000000000D+00
302  3.0100000000000D+00  0.0000000000000D+00  0.0000000000000D+00
303  3.0200000000000D+00  0.0000000000000D+00  0.0000000000000D+00
304  3.0300000000000D+00  0.0000000000000D+00  0.0000000000000D+00
305  3.0400000000000D+00  0.0000000000000D+00  0.0000000000000D+00
306  3.0500000000000D+00  0.0000000000000D+00  0.0000000000000D+00
307  3.0600000000000D+00  0.0000000000000D+00  0.0000000000000D+00
308  3.0700000000000D+00  0.0000000000000D+00  0.0000000000000D+00
309  3.0800000000000D+00  0.0000000000000D+00  0.0000000000000D+00
310  3.0900000000000D+00  0.0000000000000D+00  0.0000000000000D+00
311  3.1000000000000D+00  0.0000000000000D+00  0.0000000000000D+00
312  3.1100000000000D+00  0.0000000000000D+00  0.0000000000000D+00
313  3.1200000000000D+00  0.0000000000000D+00  0.0000000000000D+00
314  3.1300000000000D+00  0.0000000000000D+00  0.0000000000000D+00
315  3.1400000000000D+00  0.0000000000000D+00  0.0000000000000D+00
316  3.1500000000000D+00  0.0000000000000D+00  0.0000000000000D+00
317  3.1600000000000D+00  0.0000000000000D+00  0.0000000000000D+00
318  3.1700000000000D+00  0.0000000000000D+00  0.0000000000000D+00
319  3.1800000000000D+00  0.0000000000000D+00  0.0000000000000D+00
320  3.1900000000000D+00  0.0000000000000D+00  0.0000000000000D+00
321  3.2000000000000D+00  0.0000000000000D+00  0.0000000000000D+00
322  3.2100000000000D+00  0.0000000000000D+00  0.0000000000000D+00
323  3.2200000000000D+00  0.0000000000000D+00  0.0000000000000D+00
324  3.2300000000000D+00  0.0000000000000D+00  0.0000000000000D+00
325  3.2400000000000D+00  0.0000000000000D+00  0.0000000000000D+00
326  3.2500000000000D+00  0.0000000000000D+00  0.0000000000000D+00
327  3.2600000000000D+00  0.0000000000000D+00  0.0000000000000D+00
328  3.2700000000000D+00  0.0000000000000D+00  0.0000000000000D+00
329  3.2800000000000D+00  0.0000000000000D+00  0.0000000000000D+00
330  3.2900000000000D+00  0.0000000000000D+00  0.0000000000000D+00
331  3.3000000000000D+00  0.0000000000000D+00  0.0000000000000D+00
332  3.3100000000000D+00  0.0000000000000D+00  0.0000000000000D+00
333  3.3200000000000D+00  0.0000000000000D+00  0.0000000000000D+00
334  3.3300000000000D+00  0.0000000000000D+00  0.0000000000000D+00
335  3.3400000000000D+00  0.0000000000000D+00  0.0000000000000D+00
336  3.3500000000000D+00  0.0000000000000D+00  0.0000000000000D+00
337  3.3600000000000D+00  0.0000000000000D+00  0.0000000000000D+00
338  3.3700000000000D+00  0.0000000000000D+00  0.0000000000000D+00
339  3.3800000000000D+00  0.0000000000000D+00  0.0000000000000D+00
340  3.3900000000000D+00  0.0000000000000D+00  0.0000000000000D+00
341  3.4000000000000D+00  0.0000000000000D+00  0.0000000000000D+00
342  3.4100000000000D+00  0.0000000000000D+00  0.0000000000000D+00
343  3.4200000000000D+00  0.0000000000000D+00  0.0000000000000D+00
344  3.4300000000000D+00  0.0000000000000D+00  0.0000000000000D+00
345  3.4400000000000D+00  0.0000000000000D+00  0.0000000000000D+00
346  3.4500000000000D+00  0.0000000000000D+00  0.0000000000000D+00
347  3.4600000000000D+00  0.0000000000000D+00  0.0000000000000D+00
348  3.4700000000000D+00  0.0000000000000D+00  0.0000000000000D+00
349  3.4800000000000D+00  0.0000000000000D+00  0.0000000000000D+00
350  3.4900000000000D+00  0.0000000000000D+00  0.0000000000000D+00
351  3.5000000000000D+00  0.0000000000000D+00  0.0000000000000D+00
352  3.5100000000000D+00  0.0000000000000D+00  0.0000000000000D+00
353  3.5200000000000D+00  0.0000000000000D+00  0.0000000000000D+00
354  3.5300000000000D+00  0.0000000000000D+00  0.0000000000000D+00
355  3.5400000000000D+00  0.0000000000000D+00  0.0000000000000D+00
356  3.5500000000000D+00  0.0000000000000D+00  0.0000000000000D+00
357  3.5600000000000D+00  0.0000000000000D+00  0.0000000000000D+00
358  3.5700000000000D+00  0.0000000000000D+00  0.0000000000000D+00
359  3.5800000000000D+00  0.0000000000000D+00  0.0000000000000D+00
360  3.5900000000000D+00  0.0000000000000D+00  0.0000000000000D+00
361  3.6000000000000D+00  0.0000000000000D+00  0.0000000000000D+00
362  3.6100000000000D+00  0.0000000000000D+00  0.0000000000000D+00
363  3.6200000000000D+00  0.0000000000000D+00  0.0000000000000D+00
364  3.6300000000000D+00  0.0000000000000D+00  0.0000000000000D+00
365  3.6400000000000D+00  0.0000000000000D+00  0.0000000000000D+00
366  3.6500000000000D+00  0.0000000000000D+00  0.0000000000000D+00
367  3.6600000000000D+00  0.0000000000000D+00  0.0000000000000D+00
368  3.6700000000000D+00  0.0000000000000D+00  0.0000000000000D+00
369  3.6800000000000D+00  0.0000000000000D+00  0.0000000000000D+00
370  3.6900000000000D+00  0.0000000000000D+00  0.0000000000000D+00
371  3.7000000000000D+00  0.0000000000000D+00  0.0000000000000D+00
372  3.7100000000000D+00  0.0000000000000D+00  0.0000000000000D+00
373  3.7200000000000D+00  0.0000000000000D+00  0.0000000000000D+00
374  3.7300000000000D+00  0.0000000000000D+00  0.0000000000000D+00
375  3.7400000000000D+00  0.0000000000000D+00  0.0000000000000D+00
376  3.7500000000000D+00  0.0000000000000D+00  0.0000000000000D+00
377  3.7600000000000D+00  0.0000000000000D+00  0.0000000000000D+00
378  3.7700000000000D+00  0.0000000000000D+00  0.0000000000000D+00
379  3.7800000000000D+00  0.0000000000000D+00  0.0000000000000D+00
380  3.7900000000000D+00  0.0000000000000D+00  0.0000000000000D+00
381  3.8000000000000D+00  0.0000000000000D+00  0.0000000000000D+00
382  3.8100000000000D+00  0.0000000000000D+00  0.0000000000000D+00
383  3.8200000000000D+00  0.0000000000000D+00  0.0000000000000D+00
384  3.8300000000000D+00  0.0000000000000D+00  0.0000000000000D+00
385  3.8400000000000D+00  0.0000000000000D+00  0.0000000000000D+00
386  3.8500000000000D+00  0.0000000000000D+00  0.0000000000000D+00
387  3.8600000000000D+00  0.0000000000000D+00  0.0000000000000D+00
388  3.8700000000000D+00  0.0000000000000D+00  0.0000000000000D+00
389  3.8800000000000D+00  0.0000000000000D+00  0.0000000000000D+00
390  3.8900000000000D+00  0.0000000000000D+00  0.0000000000000D+00
391  3.9000000000000D+00  0.0000000000000D+00  0.0000000000000D+00
392  3.9100000000000D+00  0.0000000000000D+00  0.0000000000000D+00
393  3.9200000000000D+00  0.0000000000000D+00  0.0000000000000D+00
394  3.9300000000000D+00  0.0000000000000D+00  0.0000000000000D+00
395  3.9400000000000D+00  0.0000000000000D+00  0.0000000000000D+00
396  3.9500000000000D+00  0.0000000000000D+00  0.0000000000000D+00
397  3.9600000000000D+00  0.0000000000000D+00  0.0000000000000D+00
398  3.9700000000000D+00  0.0000000000000D+00  0.0000000000000D+00
399  3.9800000000000D+00  0.0000000000000D+00  0.0000000000000D+00
400  3.9900000000000D+00  0.0000000000000D+00  0.0000000000000D+00
401  4.0000000000000D+00  0.0000000000000D+00  0.0000000000000D+00
402  4.0100000000000D+00  0.0000000000000D+00  0.0000000000000D+00
403  4.0200000000000D+00  0.0000000000000D+00  0.0000000000000D+00
404  4.0300000000000D+00  0.0000000000000D+00  0.0000000000000D+00
405  4.0400000000000D+00  0.0000000000000D+00  0.0000000000000D+00
406  4.0500000000000D+00  0.0000000000000D+00  0.0000000000000D+00
407  4.0600000000000D+00  0.0000000000000D+00  0.0000000000000D+00
408  4.0700000000000D+00  0.0000000000000D+00  0.0000000000000D+00
409  4.0800000000000D+00  0.0000000000000D+00  0.0000000000000D+00
410  4.0900000000000D+00  0.0000000000000D+00  0.0000000000000D+00
411  4.1000000000000D+00  0.0000000000000D+00  0.0000000000000D+00
412  4.1100000000000D+00  0.0000000000000D+00  0.0000000000000D+00
413  4.1200000000000D+00  0.0000000000000D+00  0.0000000000000D+00
414  4.1300000000000D+00  0.0000000000000D+00  0.0000000000000D+00
415  4.1400000000000D+00  0.0000000000000D+00  0.0000000000000D+00
416  4.1500000000000D+00  0.0000000000000D+00  0.0000000000000D+00
417  4.1600000000000D+00  0.0000000000000D+00  0.0000000000000D+00
418  4.1700000000000D+00  0.0000000000000D+00  0.0000000000000D+00
419  4.1800000000000D+00  0.0000000000000D+00  0.0000000000000D+00
420  4.1900000000000D+00  0.0000000000000D+00  0.0000000000000D+00
421  4.2000000000000D+00  0.0000000000000D+00  0.0000000000000D+00
422  4.2100000000000D+00  0.0000000000000D+00  0.0000000000000D+00
423  4.2200000000000D+00  0.0000000000000D+00  0.0000000000000D+00
424  4.2300000000000D+00  0.0000000000000D+00  0.0000000000000D+00
425  4.2400000000000D+00  0.0000000000000D+00  0.0000000000000D+00
426  4.2500000000000D+00  0.0000000000000D+00  0.0000000000000D+00
427  4.2600000000000D+00  0.0000000000000D+00  0.0000000000000D+00
428  4.2700000000000D+00  0.0000000000000D+00  0.0000000000000D+00
429  4.2800000000000D+00  0.0000000000000D+00  0.0000000000000D+00
430  4.2900000000000D+00  0.0000000000000D+00  0.0000000000000D+00
431  4.3000000000000D+00  0.0000000000000D+00  0.0000000000000D+00
432  4.3100000000000D+00  0.0000000000000D+00  0.0000000000000D+00
433  4.3200000000000D+00  0.0000000000000D+00  0.0000000000000D+00
434  4.3300000000000D+00  0.0000000000000D+00  0.0000000000000D+00
435  4.3400000000000D+00  0.0000000000000D+00  0.0000000000000D+00
436  4.3500000000000D+00  0.0000000000000D+00  0.0000000000000D+00
437  4.3600000000000D+00  0.0000000000000D+00  0.0000000000000D+00
438  4.3700000000000D+00  0.0000000000000D+00  0.0000000000000D+00
439  4.3800000000000D+00  0.0000000000000D+00  0.0000000000000D+00
440  4.3900000000000D+00  0.0000000000000D+00  0.0000000000000D+00
441  4.4000000000000D+00  0.0000000000000D+00  0.0000000000000D+00
442  4.4100000000000D+00  0.0000000000000D+00  0.0000000000000D+00
443  4.4200000000000D+00  0.0000000000000D+00  0.0000000000000D+00