Ag    ONCVPSP-3.3.0  r_core=   1.41384   1.46535   1.61207
47.0000     19.0000      180112    zatom,zion,pspd
8 -116133   2     4   600     0    pspcod,pspxc,lmax,lloc,mmax,r2well
5.99000000  7.00000000  0.00000000    rchrg fchrg qchrg
2     2     2     0     0    nproj
1     1           extension_switch
0                         9.5594072062314D+00 -3.9858497138166D-01
1  0.0000000000000D+00 -4.1389225380328D-11 -3.1910645237332D-09
2  1.0000000000000D-02  7.8856998329694D-02  7.3699686749823D-02
3  2.0000000000000D-02  1.5752695140038D-01  1.4687240970637D-01
4  3.0000000000000D-02  2.3582337386083D-01  2.1899597740929D-01
5  4.0000000000000D-02  3.1356089821110D-01  2.8955768498920D-01
6  5.0000000000000D-02  3.9055582882818D-01  3.5805891310425D-01
7  6.0000000000000D-02  4.6662669014137D-01  4.2401955595249D-01
8  7.0000000000000D-02  5.4159476705649D-01  4.8698222519324D-01
9  8.0000000000000D-02  6.1528463576931D-01  5.4651617980137D-01
10  9.0000000000000D-02  6.8752468315952D-01  6.0222093577785D-01
11  1.0000000000000D-01  7.5814761301617D-01  6.5372951418903D-01
12  1.1000000000000D-01  8.2699093741329D-01  7.0071129113943D-01
13  1.2000000000000D-01  8.9389745162959D-01  7.4287441892115D-01
14  1.3000000000000D-01  9.5871569108787D-01  7.7996779364449D-01
15  1.4000000000000D-01  1.0213003688770D+00  8.1178255104801D-01
16  1.5000000000000D-01  1.0815127925116D+00  8.3815307881764D-01
17  1.6000000000000D-01  1.1392212586800D+00  8.5895754051390D-01
18  1.7000000000000D-01  1.1943014248297D+00  8.7411791301430D-01
19  1.8000000000000D-01  1.2466366565394D+00  8.8359954612126D-01
20  1.9000000000000D-01  1.2961183497293D+00  8.8741025956459D-01
21  2.0000000000000D-01  1.3426462268585D+00  8.8559899894418D-01
22  2.1000000000000D-01  1.3861286063636D+00  8.7825407811611D-01
23  2.2000000000000D-01  1.4264826446856D+00  8.6550104103716D-01
24  2.3000000000000D-01  1.4636345503311D+00  8.4750018106481D-01
25  2.4000000000000D-01  1.4975197695051D+00  8.2444376008649D-01
26  2.5000000000000D-01  1.5280831429418D+00  7.9655297356018D-01
27  2.6000000000000D-01  1.5552790336439D+00  7.6407471052903D-01
28  2.7000000000000D-01  1.5790714253227D+00  7.2727815988407D-01
29  2.8000000000000D-01  1.5994339914062D+00  6.8645131555564D-01
30  2.9000000000000D-01  1.6163501345542D+00  6.4189743389678D-01
31  3.0000000000000D-01  1.6298129966858D+00  5.9393149627147D-01
32  3.1000000000000D-01  1.6398254395880D+00  5.4287672878072D-01
33  3.2000000000000D-01  1.6463999962328D+00  4.8906122917069D-01
34  3.3000000000000D-01  1.6495587929847D+00  4.3281474829396D-01
35  3.4000000000000D-01  1.6493334429326D+00  3.7446567008605D-01
36  3.5000000000000D-01  1.6457649106311D+00  3.1433822992287D-01
37  3.6000000000000D-01  1.6389033485830D+00  2.5275000650739D-01
38  3.7000000000000D-01  1.6288079058418D+00  1.9000971717366D-01
39  3.8000000000000D-01  1.6155465091618D+00  1.2641534076932D-01
40  3.9000000000000D-01  1.5991956171677D+00  6.2252586183319D-02
41  4.0000000000000D-01  1.5798399480694D+00 -2.2062817830354D-03
42  4.1000000000000D-01  1.5575721814936D+00 -6.6703254045032D-02
43  4.2000000000000D-01  1.5324926350629D+00 -1.3099502780951D-01
44  4.3000000000000D-01  1.5047089164096D+00 -1.9485310410548D-01
45  4.4000000000000D-01  1.4743355513722D+00 -2.5806354669115D-01
46  4.5000000000000D-01  1.4414935891944D+00 -3.2042642291323D-01
47  4.6000000000000D-01  1.4063101856146D+00 -3.8175495289134D-01
48  4.7000000000000D-01  1.3689181648174D+00 -4.4187439873905D-01
49  4.8000000000000D-01  1.3294555612976D+00 -5.0062073032368D-01
50  4.9000000000000D-01  1.2880651427847D+00 -5.5783910822731D-01
51  5.0000000000000D-01  1.2448939154636D+00 -6.1338222802341D-01
52  5.1000000000000D-01  1.2000926128366D+00 -6.6710857266972D-01
53  5.2000000000000D-01  1.1538151696718D+00 -7.1888062168009D-01
54  5.3000000000000D-01  1.1062181825974D+00 -7.6856306674412D-01
55  5.4000000000000D-01  1.0574603590117D+00 -8.1602108358218D-01
56  5.5000000000000D-01  1.0077019560970D+00 -8.6111870904753D-01
57  5.6000000000000D-01  9.5710421184059D-01 -9.0371737081769D-01
58  5.7000000000000D-01  9.0582877008046D-01 -9.4367461447115D-01
59  5.8000000000000D-01  8.5403710171099D-01 -9.8084306936083D-01
60  5.9000000000000D-01  8.0188992429002D-01 -1.0150696905024D+00
61  6.0000000000000D-01  7.4954662239556D-01 -1.0461953087817D+00
62  6.1000000000000D-01  6.9716467117661D-01 -1.0740545161880D+00
63  6.2000000000000D-01  6.4489906563052D-01 -1.0984759066114D+00
64  6.3000000000000D-01  5.9290175821579D-01 -1.1192826860977D+00
65  6.4000000000000D-01  5.4132110747246D-01 -1.1362936593907D+00
66  6.5000000000000D-01  4.9030134037026D-01 -1.1493245923174D+00
67  6.6000000000000D-01  4.3998203113601D-01 -1.1581899420871D+00
68  6.7000000000000D-01  3.9049759932390D-01 -1.1627049400915D+00
69  6.8000000000000D-01  3.4197682988440D-01 -1.1626880044109D+00
70  6.9000000000000D-01  2.9454241795784D-01 -1.1579634520549D+00
71  7.0000000000000D-01  2.4831054106571D-01 -1.1483644741303D+00
72  7.1000000000000D-01  2.0339046129555D-01 -1.1337363307807D+00
73  7.2000000000000D-01  1.5988415997398D-01 -1.1139397169582D+00
74  7.3000000000000D-01  1.1788600719477D-01 -1.0888542450000D+00
75  7.4000000000000D-01  7.7482468416056D-02 -1.0583819856668D+00
76  7.5000000000000D-01  3.8751850162662D-02 -1.0224510058832D+00
77  7.6000000000000D-01  1.7640866662298D-03 -9.8101883893336D-01
78  7.7000000000000D-01 -3.3419430951739D-02 -9.3407582139659D-01
79  7.8000000000000D-01 -6.6745981599511D-02 -8.8164823070040D-01
80  7.9000000000000D-01 -9.8171596154598D-02 -8.2380115783711D-01
81  8.0000000000000D-01 -1.2766109363260D-01 -7.6064105157150D-01
82  8.1000000000000D-01 -1.5518807110439D-01 -6.9231787334221D-01
83  8.2000000000000D-01 -1.8073484720468D-01 -6.1902680600704D-01
84  8.3000000000000D-01 -2.0429235941218D-01 -5.4100946457036D-01
85  8.4000000000000D-01 -2.2586001562731D-01 -4.5855456300001D-01
86  8.5000000000000D-01 -2.4544550092530D-01 -3.7199799811677D-01
87  8.6000000000000D-01 -2.6306454071706D-01 -2.8172231923839D-01
88  8.7000000000000D-01 -2.7874062190281D-01 -1.8815556067403D-01
89  8.8000000000000D-01 -2.9250467395167D-01 -9.1769423182922D-02
90  8.9000000000000D-01 -3.0439471217910D-01  6.9231999995074D-03
91  9.0000000000000D-01 -3.1445544582016D-01  1.0737134713668D-01
92  9.1000000000000D-01 -3.2273785380559D-01  2.0898974651839D-01
93  9.2000000000000D-01 -3.2929873143635D-01  3.1116318403666D-01
94  9.3000000000000D-01 -3.3420021141625D-01  4.1325144435471D-01
95  9.4000000000000D-01 -3.3750926293890D-01  5.1459478052841D-01
96  9.5000000000000D-01 -3.3929717272861D-01  6.1451985777241D-01
97  9.6000000000000D-01 -3.3963901210835D-01  7.1234610825536D-01
98  9.7000000000000D-01 -3.3861309429922D-01  8.0739242596769D-01
99  9.8000000000000D-01 -3.3630042625160D-01  8.9898412356626D-01
100  9.9000000000000D-01 -3.3278415936097D-01  9.8646006699385D-01
101  1.0000000000000D+00 -3.2814904343239D-01  1.0691798986546D+00
102  1.0100000000000D+00 -3.2248088822438D-01  1.1465312560956D+00
103  1.0200000000000D+00 -3.1586603682245D-01  1.2179368906442D+00
104  1.0300000000000D+00 -3.0839085498027D-01  1.2828615891726D+00
105  1.0400000000000D+00 -3.0014124038980D-01  1.3408188023688D+00
106  1.0500000000000D+00 -2.9120215564177D-01  1.3913768844970D+00
107  1.0600000000000D+00 -2.8165718838923D-01  1.4341648525532D+00
108  1.0700000000000D+00 -2.7158814192566D-01  1.4688775774357D+00
109  1.0800000000000D+00 -2.6107465909557D-01  1.4952803249046D+00
110  1.0900000000000D+00 -2.5019388207230D-01  1.5132125716382D+00
111  1.1000000000000D+00 -2.3902015016041D-01  1.5225910298696D+00
112  1.1100000000000D+00 -2.2762473737329D-01  1.5234118233680D+00
113  1.1200000000000D+00 -2.1607563108101D-01  1.5157517685724D+00
114  1.1300000000000D+00 -2.0443735264933D-01  1.4997687239570D+00
115  1.1400000000000D+00 -1.9277082042637D-01  1.4757009854643D+00
116  1.1500000000000D+00 -1.8113325504458D-01  1.4438657164453D+00
117  1.1600000000000D+00 -1.6957812648782D-01  1.4046564149418D+00
118  1.1700000000000D+00 -1.5815514201638D-01  1.3585394311817D+00
119  1.1800000000000D+00 -1.4691027344215D-01  1.3060495657449D+00
120  1.1900000000000D+00 -1.3588582189617D-01  1.2477847895058D+00
121  1.2000000000000D+00 -1.2512051784837D-01  1.1844001380286D+00
122  1.2100000000000D+00 -1.1464965370034D-01  1.1166008466858D+00
123  1.2200000000000D+00 -1.0450524589101D-01  1.0451348050761D+00
124  1.2300000000000D+00 -9.4716223177998D-02  9.7078441849438D-01
125  1.2400000000000D+00 -8.5308637526652D-02  8.9435797161563D-01
126  1.2500000000000D+00 -7.6305893644608D-02  8.1668060318257D-01
127  1.2600000000000D+00 -6.7728993134458D-02  7.3858500340896D-01
128  1.2700000000000D+00 -5.9596789093579D-02  6.6090195041985D-01
129  1.2800000000000D+00 -5.1926246769754D-02  5.8445081112934D-01
130  1.2900000000000D+00 -4.4732706009021D-02  5.1003012858132D-01
131  1.3000000000000D+00 -3.8030141083028D-02  4.3840842260486D-01
132  1.3100000000000D+00 -3.1831413619008D-02  3.7031532890364D-01
133  1.3200000000000D+00 -2.6148514573085D-02  3.0643319497013D-01
134  1.3300000000000D+00 -2.0992791016495D-02  2.4738925697443D-01
135  1.3400000000000D+00 -1.6375154141928D-02  1.9374850404378D-01
136  1.3500000000000D+00 -1.2306264933536D-02  1.4600733465569D-01
137  1.3600000000000D+00 -8.7966940027152D-03  1.0458810903256D-01
138  1.3700000000000D+00 -5.8586838135815D-03  6.9854725559821D-02
139  1.3800000000000D+00 -3.4983203577160D-03  4.2011681695257D-02
140  1.3900000000000D+00 -1.7193041203043D-03  2.1136544465315D-02
141  1.4000000000000D+00 -5.8106062262782D-04  7.9817092970467D-03
142  1.4100000000000D+00 -5.1142064394037D-05  1.9356415902277D-03
143  1.4200000000000D+00  6.3345334936108D-05  1.0695270921379D-04
144  1.4300000000000D+00  5.4428262000160D-06 -1.3426386805191D-05
145  1.4400000000000D+00 -1.6180017178261D-05  5.8399118873139D-05
146  1.4500000000000D+00  1.3241003624704D-06 -2.1739111355934D-06
147  1.4600000000000D+00  2.4926931602822D-06 -5.5634319841689D-06
148  1.4700000000000D+00 -6.6294620075002D-08 -2.0759107037668D-06
149  1.4800000000000D+00 -3.9389828240629D-08 -1.2334298917732D-06
150  1.4900000000000D+00  0.0000000000000D+00  0.0000000000000D+00
151  1.5000000000000D+00  0.0000000000000D+00  0.0000000000000D+00
152  1.5100000000000D+00  0.0000000000000D+00  0.0000000000000D+00
153  1.5200000000000D+00  0.0000000000000D+00  0.0000000000000D+00
154  1.5300000000000D+00  0.0000000000000D+00  0.0000000000000D+00
155  1.5400000000000D+00  0.0000000000000D+00  0.0000000000000D+00
156  1.5500000000000D+00  0.0000000000000D+00  0.0000000000000D+00
157  1.5600000000000D+00  0.0000000000000D+00  0.0000000000000D+00
158  1.5700000000000D+00  0.0000000000000D+00  0.0000000000000D+00
159  1.5800000000000D+00  0.0000000000000D+00  0.0000000000000D+00
160  1.5900000000000D+00  0.0000000000000D+00  0.0000000000000D+00
161  1.6000000000000D+00  0.0000000000000D+00  0.0000000000000D+00
162  1.6100000000000D+00  0.0000000000000D+00  0.0000000000000D+00
163  1.6200000000000D+00  0.0000000000000D+00  0.0000000000000D+00
164  1.6300000000000D+00  0.0000000000000D+00  0.0000000000000D+00
165  1.6400000000000D+00  0.0000000000000D+00  0.0000000000000D+00
166  1.6500000000000D+00  0.0000000000000D+00  0.0000000000000D+00
167  1.6600000000000D+00  0.0000000000000D+00  0.0000000000000D+00
168  1.6700000000000D+00  0.0000000000000D+00  0.0000000000000D+00
169  1.6800000000000D+00  0.0000000000000D+00  0.0000000000000D+00
170  1.6900000000000D+00  0.0000000000000D+00  0.0000000000000D+00
171  1.7000000000000D+00  0.0000000000000D+00  0.0000000000000D+00
172  1.7100000000000D+00  0.0000000000000D+00  0.0000000000000D+00
173  1.7200000000000D+00  0.0000000000000D+00  0.0000000000000D+00
174  1.7300000000000D+00  0.0000000000000D+00  0.0000000000000D+00
175  1.7400000000000D+00  0.0000000000000D+00  0.0000000000000D+00
176  1.7500000000000D+00  0.0000000000000D+00  0.0000000000000D+00
177  1.7600000000000D+00  0.0000000000000D+00  0.0000000000000D+00
178  1.7700000000000D+00  0.0000000000000D+00  0.0000000000000D+00
179  1.7800000000000D+00  0.0000000000000D+00  0.0000000000000D+00
180  1.7900000000000D+00  0.0000000000000D+00  0.0000000000000D+00
181  1.8000000000000D+00  0.0000000000000D+00  0.0000000000000D+00
182  1.8100000000000D+00  0.0000000000000D+00  0.0000000000000D+00
183  1.8200000000000D+00  0.0000000000000D+00  0.0000000000000D+00
184  1.8300000000000D+00  0.0000000000000D+00  0.0000000000000D+00
185  1.8400000000000D+00  0.0000000000000D+00  0.0000000000000D+00
186  1.8500000000000D+00  0.0000000000000D+00  0.0000000000000D+00
187  1.8600000000000D+00  0.0000000000000D+00  0.0000000000000D+00
188  1.8700000000000D+00  0.0000000000000D+00  0.0000000000000D+00
189  1.8800000000000D+00  0.0000000000000D+00  0.0000000000000D+00
190  1.8900000000000D+00  0.0000000000000D+00  0.0000000000000D+00
191  1.9000000000000D+00  0.0000000000000D+00  0.0000000000000D+00
192  1.9100000000000D+00  0.0000000000000D+00  0.0000000000000D+00
193  1.9200000000000D+00  0.0000000000000D+00  0.0000000000000D+00
194  1.9300000000000D+00  0.0000000000000D+00  0.0000000000000D+00
195  1.9400000000000D+00  0.0000000000000D+00  0.0000000000000D+00
196  1.9500000000000D+00  0.0000000000000D+00  0.0000000000000D+00
197  1.9600000000000D+00  0.0000000000000D+00  0.0000000000000D+00
198  1.9700000000000D+00  0.0000000000000D+00  0.0000000000000D+00
199  1.9800000000000D+00  0.0000000000000D+00  0.0000000000000D+00
200  1.9900000000000D+00  0.0000000000000D+00  0.0000000000000D+00
201  2.0000000000000D+00  0.0000000000000D+00  0.0000000000000D+00
202  2.0100000000000D+00  0.0000000000000D+00  0.0000000000000D+00
203  2.0200000000000D+00  0.0000000000000D+00  0.0000000000000D+00
204  2.0300000000000D+00  0.0000000000000D+00  0.0000000000000D+00
205  2.0400000000000D+00  0.0000000000000D+00  0.0000000000000D+00
206  2.0500000000000D+00  0.0000000000000D+00  0.0000000000000D+00
207  2.0600000000000D+00  0.0000000000000D+00  0.0000000000000D+00
208  2.0700000000000D+00  0.0000000000000D+00  0.0000000000000D+00
209  2.0800000000000D+00  0.0000000000000D+00  0.0000000000000D+00
210  2.0900000000000D+00  0.0000000000000D+00  0.0000000000000D+00
211  2.1000000000000D+00  0.0000000000000D+00  0.0000000000000D+00
212  2.1100000000000D+00  0.0000000000000D+00  0.0000000000000D+00
213  2.1200000000000D+00  0.0000000000000D+00  0.0000000000000D+00
214  2.1300000000000D+00  0.0000000000000D+00  0.0000000000000D+00
215  2.1400000000000D+00  0.0000000000000D+00  0.0000000000000D+00
216  2.1500000000000D+00  0.0000000000000D+00  0.0000000000000D+00
217  2.1600000000000D+00  0.0000000000000D+00  0.0000000000000D+00
218  2.1700000000000D+00  0.0000000000000D+00  0.0000000000000D+00
219  2.1800000000000D+00  0.0000000000000D+00  0.0000000000000D+00
220  2.1900000000000D+00  0.0000000000000D+00  0.0000000000000D+00
221  2.2000000000000D+00  0.0000000000000D+00  0.0000000000000D+00
222  2.2100000000000D+00  0.0000000000000D+00  0.0000000000000D+00
223  2.2200000000000D+00  0.0000000000000D+00  0.0000000000000D+00
224  2.2300000000000D+00  0.0000000000000D+00  0.0000000000000D+00
225  2.2400000000000D+00  0.0000000000000D+00  0.0000000000000D+00
226  2.2500000000000D+00  0.0000000000000D+00  0.0000000000000D+00
227  2.2600000000000D+00  0.0000000000000D+00  0.0000000000000D+00
228  2.2700000000000D+00  0.0000000000000D+00  0.0000000000000D+00
229  2.2800000000000D+00  0.0000000000000D+00  0.0000000000000D+00
230  2.2900000000000D+00  0.0000000000000D+00  0.0000000000000D+00
231  2.3000000000000D+00  0.0000000000000D+00  0.0000000000000D+00
232  2.3100000000000D+00  0.0000000000000D+00  0.0000000000000D+00
233  2.3200000000000D+00  0.0000000000000D+00  0.0000000000000D+00
234  2.3300000000000D+00  0.0000000000000D+00  0.0000000000000D+00
235  2.3400000000000D+00  0.0000000000000D+00  0.0000000000000D+00
236  2.3500000000000D+00  0.0000000000000D+00  0.0000000000000D+00
237  2.3600000000000D+00  0.0000000000000D+00  0.0000000000000D+00
238  2.3700000000000D+00  0.0000000000000D+00  0.0000000000000D+00
239  2.3800000000000D+00  0.0000000000000D+00  0.0000000000000D+00
240  2.3900000000000D+00  0.0000000000000D+00  0.0000000000000D+00
241  2.4000000000000D+00  0.0000000000000D+00  0.0000000000000D+00
242  2.4100000000000D+00  0.0000000000000D+00  0.0000000000000D+00
243  2.4200000000000D+00  0.0000000000000D+00  0.0000000000000D+00
244  2.4300000000000D+00  0.0000000000000D+00  0.0000000000000D+00
245  2.4400000000000D+00  0.0000000000000D+00  0.0000000000000D+00
246  2.4500000000000D+00  0.0000000000000D+00  0.0000000000000D+00
247  2.4600000000000D+00  0.0000000000000D+00  0.0000000000000D+00
248  2.4700000000000D+00  0.0000000000000D+00  0.0000000000000D+00
249  2.4800000000000D+00  0.0000000000000D+00  0.0000000000000D+00
250  2.4900000000000D+00  0.0000000000000D+00  0.0000000000000D+00
251  2.5000000000000D+00  0.0000000000000D+00  0.0000000000000D+00
252  2.5100000000000D+00  0.0000000000000D+00  0.0000000000000D+00
253  2.5200000000000D+00  0.0000000000000D+00  0.0000000000000D+00
254  2.5300000000000D+00  0.0000000000000D+00  0.0000000000000D+00
255  2.5400000000000D+00  0.0000000000000D+00  0.0000000000000D+00
256  2.5500000000000D+00  0.0000000000000D+00  0.0000000000000D+00
257  2.5600000000000D+00  0.0000000000000D+00  0.0000000000000D+00
258  2.5700000000000D+00  0.0000000000000D+00  0.0000000000000D+00
259  2.5800000000000D+00  0.0000000000000D+00  0.0000000000000D+00
260  2.5900000000000D+00  0.0000000000000D+00  0.0000000000000D+00
261  2.6000000000000D+00  0.0000000000000D+00  0.0000000000000D+00
262  2.6100000000000D+00  0.0000000000000D+00  0.0000000000000D+00
263  2.6200000000000D+00  0.0000000000000D+00  0.0000000000000D+00
264  2.6300000000000D+00  0.0000000000000D+00  0.0000000000000D+00
265  2.6400000000000D+00  0.0000000000000D+00  0.0000000000000D+00
266  2.6500000000000D+00  0.0000000000000D+00  0.0000000000000D+00
267  2.6600000000000D+00  0.0000000000000D+00  0.0000000000000D+00
268  2.6700000000000D+00  0.0000000000000D+00  0.0000000000000D+00
269  2.6800000000000D+00  0.0000000000000D+00  0.0000000000000D+00
270  2.6900000000000D+00  0.0000000000000D+00  0.0000000000000D+00
271  2.7000000000000D+00  0.0000000000000D+00  0.0000000000000D+00
272  2.7100000000000D+00  0.0000000000000D+00  0.0000000000000D+00
273  2.7200000000000D+00  0.0000000000000D+00  0.0000000000000D+00
274  2.7300000000000D+00  0.0000000000000D+00  0.0000000000000D+00
275  2.7400000000000D+00  0.0000000000000D+00  0.0000000000000D+00
276  2.7500000000000D+00  0.0000000000000D+00  0.0000000000000D+00
277  2.7600000000000D+00  0.0000000000000D+00  0.0000000000000D+00
278  2.7700000000000D+00  0.0000000000000D+00  0.0000000000000D+00
279  2.7800000000000D+00  0.0000000000000D+00  0.0000000000000D+00
280  2.7900000000000D+00  0.0000000000000D+00  0.0000000000000D+00
281  2.8000000000000D+00  0.0000000000000D+00  0.0000000000000D+00
282  2.8100000000000D+00  0.0000000000000D+00  0.0000000000000D+00
283  2.8200000000000D+00  0.0000000000000D+00  0.0000000000000D+00
284  2.8300000000000D+00  0.0000000000000D+00  0.0000000000000D+00
285  2.8400000000000D+00  0.0000000000000D+00  0.0000000000000D+00
286  2.8500000000000D+00  0.0000000000000D+00  0.0000000000000D+00
287  2.8600000000000D+00  0.0000000000000D+00  0.0000000000000D+00
288  2.8700000000000D+00  0.0000000000000D+00  0.0000000000000D+00
289  2.8800000000000D+00  0.0000000000000D+00  0.0000000000000D+00
290  2.8900000000000D+00  0.0000000000000D+00  0.0000000000000D+00
291  2.9000000000000D+00  0.0000000000000D+00  0.0000000000000D+00
292  2.9100000000000D+00  0.0000000000000D+00  0.0000000000000D+00
293  2.9200000000000D+00  0.0000000000000D+00  0.0000000000000D+00
294  2.9300000000000D+00  0.0000000000000D+00  0.0000000000000D+00
295  2.9400000000000D+00  0.0000000000000D+00  0.0000000000000D+00
296  2.9500000000000D+00  0.0000000000000D+00  0.0000000000000D+00
297  2.9600000000000D+00  0.0000000000000D+00  0.0000000000000D+00
298  2.9700000000000D+00  0.0000000000000D+00  0.0000000000000D+00
299  2.9800000000000D+00  0.0000000000000D+00  0.0000000000000D+00
300  2.9900000000000D+00  0.0000000000000D+00  0.0000000000000D+00
301  3.0000000000000D+00  0.0000000000000D+00  0.0000000000000D+00
302  3.0100000000000D+00  0.0000000000000D+00  0.0000000000000D+00
303  3.0200000000000D+00  0.0000000000000D+00  0.0000000000000D+00
304  3.0300000000000D+00  0.0000000000000D+00  0.0000000000000D+00
305  3.0400000000000D+00  0.0000000000000D+00  0.0000000000000D+00
306  3.0500000000000D+00  0.0000000000000D+00  0.0000000000000D+00
307  3.0600000000000D+00  0.0000000000000D+00  0.0000000000000D+00
308  3.0700000000000D+00  0.0000000000000D+00  0.0000000000000D+00
309  3.0800000000000D+00  0.0000000000000D+00  0.0000000000000D+00
310  3.0900000000000D+00  0.0000000000000D+00  0.0000000000000D+00
311  3.1000000000000D+00  0.0000000000000D+00  0.0000000000000D+00
312  3.1100000000000D+00  0.0000000000000D+00  0.0000000000000D+00
313  3.1200000000000D+00  0.0000000000000D+00  0.0000000000000D+00
314  3.1300000000000D+00  0.0000000000000D+00  0.0000000000000D+00
315  3.1400000000000D+00  0.0000000000000D+00  0.0000000000000D+00
316  3.1500000000000D+00  0.0000000000000D+00  0.0000000000000D+00
317  3.1600000000000D+00  0.0000000000000D+00  0.0000000000000D+00
318  3.1700000000000D+00  0.0000000000000D+00  0.0000000000000D+00
319  3.1800000000000D+00  0.0000000000000D+00  0.0000000000000D+00
320  3.1900000000000D+00  0.0000000000000D+00  0.0000000000000D+00
321  3.2000000000000D+00  0.0000000000000D+00  0.0000000000000D+00
322  3.2100000000000D+00  0.0000000000000D+00  0.0000000000000D+00
323  3.2200000000000D+00  0.0000000000000D+00  0.0000000000000D+00
324  3.2300000000000D+00  0.0000000000000D+00  0.0000000000000D+00
325  3.2400000000000D+00  0.0000000000000D+00  0.0000000000000D+00
326  3.2500000000000D+00  0.0000000000000D+00  0.0000000000000D+00
327  3.2600000000000D+00  0.0000000000000D+00  0.0000000000000D+00
328  3.2700000000000D+00  0.0000000000000D+00  0.0000000000000D+00
329  3.2800000000000D+00  0.0000000000000D+00  0.0000000000000D+00
330  3.2900000000000D+00  0.0000000000000D+00  0.0000000000000D+00
331  3.3000000000000D+00  0.0000000000000D+00  0.0000000000000D+00
332  3.3100000000000D+00  0.0000000000000D+00  0.0000000000000D+00
333  3.3200000000000D+00  0.0000000000000D+00  0.0000000000000D+00
334  3.3300000000000D+00  0.0000000000000D+00  0.0000000000000D+00
335  3.3400000000000D+00  0.0000000000000D+00  0.0000000000000D+00
336  3.3500000000000D+00  0.0000000000000D+00  0.0000000000000D+00
337  3.3600000000000D+00  0.0000000000000D+00  0.0000000000000D+00
338  3.3700000000000D+00  0.0000000000000D+00  0.0000000000000D+00
339  3.3800000000000D+00  0.0000000000000D+00  0.0000000000000D+00
340  3.3900000000000D+00  0.0000000000000D+00  0.0000000000000D+00
341  3.4000000000000D+00  0.0000000000000D+00  0.0000000000000D+00
342  3.4100000000000D+00  0.0000000000000D+00  0.0000000000000D+00
343  3.4200000000000D+00  0.0000000000000D+00  0.0000000000000D+00
344  3.4300000000000D+00  0.0000000000000D+00  0.0000000000000D+00
345  3.4400000000000D+00  0.0000000000000D+00  0.0000000000000D+00
346  3.4500000000000D+00  0.0000000000000D+00  0.0000000000000D+00
347  3.4600000000000D+00  0.0000000000000D+00  0.0000000000000D+00
348  3.4700000000000D+00  0.0000000000000D+00  0.0000000000000D+00
349  3.4800000000000D+00  0.0000000000000D+00  0.0000000000000D+00
350  3.4900000000000D+00  0.0000000000000D+00  0.0000000000000D+00
351  3.5000000000000D+00  0.0000000000000D+00  0.0000000000000D+00
352  3.5100000000000D+00  0.0000000000000D+00  0.0000000000000D+00
353  3.5200000000000D+00  0.0000000000000D+00  0.0000000000000D+00
354  3.5300000000000D+00  0.0000000000000D+00  0.0000000000000D+00
355  3.5400000000000D+00  0.0000000000000D+00  0.0000000000000D+00
356  3.5500000000000D+00  0.0000000000000D+00  0.0000000000000D+00
357  3.5600000000000D+00  0.0000000000000D+00  0.0000000000000D+00
358  3.5700000000000D+00  0.0000000000000D+00  0.0000000000000D+00
359  3.5800000000000D+00  0.0000000000000D+00  0.0000000000000D+00
360  3.5900000000000D+00  0.0000000000000D+00  0.0000000000000D+00
361  3.6000000000000D+00  0.0000000000000D+00  0.0000000000000D+00
362  3.6100000000000D+00  0.0000000000000D+00  0.0000000000000D+00
363  3.6200000000000D+00  0.0000000000000D+00  0.0000000000000D+00
364  3.6300000000000D+00  0.0000000000000D+00  0.0000000000000D+00
365  3.6400000000000D+00  0.0000000000000D+00  0.0000000000000D+00
366  3.6500000000000D+00  0.0000000000000D+00  0.0000000000000D+00
367  3.6600000000000D+00  0.0000000000000D+00  0.0000000000000D+00
368  3.6700000000000D+00  0.0000000000000D+00  0.0000000000000D+00
369  3.6800000000000D+00  0.0000000000000D+00  0.0000000000000D+00
370  3.6900000000000D+00  0.0000000000000D+00  0.0000000000000D+00
371  3.7000000000000D+00  0.0000000000000D+00  0.0000000000000D+00
372  3.7100000000000D+00  0.0000000000000D+00  0.0000000000000D+00
373  3.7200000000000D+00  0.0000000000000D+00  0.0000000000000D+00
374  3.7300000000000D+00  0.0000000000000D+00  0.0000000000000D+00
375  3.7400000000000D+00  0.0000000000000D+00  0.0000000000000D+00
376  3.7500000000000D+00  0.0000000000000D+00  0.0000000000000D+00
377  3.7600000000000D+00  0.0000000000000D+00  0.0000000000000D+00
378  3.7700000000000D+00  0.0000000000000D+00  0.0000000000000D+00
379  3.7800000000000D+00  0.0000000000000D+00  0.0000000000000D+00
380  3.7900000000000D+00  0.0000000000000D+00  0.0000000000000D+00
381  3.8000000000000D+00  0.0000000000000D+00  0.0000000000000D+00
382  3.8100000000000D+00  0.0000000000000D+00  0.0000000000000D+00
383  3.8200000000000D+00  0.0000000000000D+00  0.0000000000000D+00
384  3.8300000000000D+00  0.0000000000000D+00  0.0000000000000D+00
385  3.8400000000000D+00  0.0000000000000D+00  0.0000000000000D+00
386  3.8500000000000D+00  0.0000000000000D+00  0.0000000000000D+00
387  3.8600000000000D+00  0.0000000000000D+00  0.0000000000000D+00
388  3.8700000000000D+00  0.0000000000000D+00  0.0000000000000D+00
389  3.8800000000000D+00  0.0000000000000D+00  0.0000000000000D+00
390  3.8900000000000D+00  0.0000000000000D+00  0.0000000000000D+00
391  3.9000000000000D+00  0.0000000000000D+00  0.0000000000000D+00
392  3.9100000000000D+00  0.0000000000000D+00  0.0000000000000D+00
393  3.9200000000000D+00  0.0000000000000D+00  0.0000000000000D+00
394  3.9300000000000D+00  0.0000000000000D+00  0.0000000000000D+00
395  3.9400000000000D+00  0.0000000000000D+00  0.0000000000000D+00
396  3.9500000000000D+00  0.0000000000000D+00  0.0000000000000D+00
397  3.9600000000000D+00  0.0000000000000D+00  0.0000000000000D+00
398  3.9700000000000D+00  0.0000000000000D+00  0.0000000000000D+00
399  3.9800000000000D+00  0.0000000000000D+00  0.0000000000000D+00
400  3.9900000000000D+00  0.0000000000000D+00  0.0000000000000D+00
401  4.0000000000000D+00  0.0000000000000D+00  0.0000000000000D+00
402  4.0100000000000D+00  0.0000000000000D+00  0.0000000000000D+00
403  4.0200000000000D+00  0.0000000000000D+00  0.0000000000000D+00
404  4.0300000000000D+00  0.0000000000000D+00  0.0000000000000D+00
405  4.0400000000000D+00  0.0000000000000D+00  0.0000000000000D+00
406  4.0500000000000D+00  0.0000000000000D+00  0.0000000000000D+00
407  4.0600000000000D+00  0.0000000000000D+00  0.0000000000000D+00
408  4.0700000000000D+00  0.0000000000000D+00  0.0000000000000D+00
409  4.0800000000000D+00  0.0000000000000D+00  0.0000000000000D+00
410  4.0900000000000D+00  0.0000000000000D+00  0.0000000000000D+00
411  4.1000000000000D+00  0.0000000000000D+00  0.0000000000000D+00
412  4.1100000000000D+00  0.0000000000000D+00  0.0000000000000D+00
413  4.1200000000000D+00  0.0000000000000D+00  0.0000000000000D+00
414  4.1300000000000D+00  0.0000000000000D+00  0.0000000000000D+00
415  4.1400000000000D+00  0.0000000000000D+00  0.0000000000000D+00
416  4.1500000000000D+00  0.0000000000000D+00  0.0000000000000D+00
417  4.1600000000000D+00  0.0000000000000D+00  0.0000000000000D+00
418  4.1700000000000D+00  0.0000000000000D+00  0.0000000000000D+00
419  4.1800000000000D+00  0.0000000000000D+00  0.0000000000000D+00
420  4.1900000000000D+00  0.0000000000000D+00  0.0000000000000D+00
421  4.2000000000000D+00  0.0000000000000D+00  0.0000000000000D+00
422  4.2100000000000D+00  0.0000000000000D+00  0.0000000000000D+00
423  4.2200000000000D+00  0.0000000000000D+00  0.0000000000000D+00
424  4.2300000000000D+00  0.0000000000000D+00  0.0000000000000D+00
425  4.2400000000000D+00  0.0000000000000D+00  0.0000000000000D+00
426  4.2500000000000D+00  0.0000000000000D+00  0.0000000000000D+00
427  4.2600000000000D+00  0.0000000000000D+00  0.0000000000000D+00
428  4.2700000000000D+00  0.0000000000000D+00  0.0000000000000D+00
429  4.2800000000000D+00  0.0000000000000D+00  0.0000000000000D+00
430  4.2900000000000D+00  0.0000000000000D+00  0.0000000000000D+00
431  4.3000000000000D+00  0.0000000000000D+00  0.0000000000000D+00
432  4.3100000000000D+00  0.0000000000000D+00  0.0000000000000D+00
433  4.3200000000000D+00  0.0000000000000D+00  0.0000000000000D+00
434  4.3300000000000D+00  0.0000000000000D+00  0.0000000000000D+00
435  4.3400000000000D+00  0.0000000000000D+00  0.0000000000000D+00
436  4.3500000000000D+00  0.0000000000000D+00  0.0000000000000D+00
437  4.3600000000000D+00  0.0000000000000D+00  0.0000000000000D+00
438  4.3700000000000D+00  0.0000000000000D+00  0.0000000000000D+00
439  4.3800000000000D+00  0.0000000000000D+00  0.0000000000000D+00
440  4.3900000000000D+00  0.0000000000000D+00  0.0000000000000D+00
441  4.4000000000000D+00  0.0000000000000D+00  0.0000000000000D+00
442  4.4100000000000D+00  0.0000000000000D+00  0.0000000000000D+00
443  4.4200000000000D+00  0.0000000000000D+00  0.0000000000000D+00