Sr    ONCVPSP-3.2.3  r_core=   1.66721   1.31335   1.51547
38.0000     10.0000      161006    zatom,zion,pspd
8   -1012   2     4   600     0    pspcod,pspxc,lmax,lloc,mmax,r2well
5.99000000  6.00000000  0.00000000    rchrg fchrg qchrg
2     2     2     0     0    nproj
1     1           extension_switch
0                         1.0066911726495D+01  1.0497911218000D+00
1  0.0000000000000D+00 -7.2916950255575D-11  3.8583003458825D-10
2  1.0000000000000D-02  4.2925314105618D-02 -2.5410282909090D-02
3  2.0000000000000D-02  8.5812239236440D-02 -5.0717101384559D-02
4  3.0000000000000D-02  1.2862246999807D-01 -7.5817756469712D-02
5  4.0000000000000D-02  1.7131786684767D-01 -1.0061107142085D-01
6  5.0000000000000D-02  2.1386053576546D-01 -1.2499813106058D-01
7  6.0000000000000D-02  2.5621290407328D-01 -1.4888299530336D-01
8  7.0000000000000D-02  2.9833779120252D-01 -1.7217337870113D-01
9  8.0000000000000D-02  3.4019847328650D-01 -1.9478128824269D-01
10  9.0000000000000D-02  3.8175874054199D-01 -2.1662361211498D-01
11  1.0000000000000D-01  4.2298294650987D-01 -2.3762265269376D-01
12  1.1000000000000D-01  4.6383604834433D-01 -2.5770659766763D-01
13  1.2000000000000D-01  5.0428363747325D-01 -2.7680992390904D-01
14  1.3000000000000D-01  5.4429196009621D-01 -2.9487372947828D-01
15  1.4000000000000D-01  5.8382792714121D-01 -3.1184598997701D-01
16  1.5000000000000D-01  6.2285911346307D-01 -3.2768173634406D-01
17  1.6000000000000D-01  6.6135374623540D-01 -3.4234315210266D-01
18  1.7000000000000D-01  6.9928068266018D-01 -3.5579958901171D-01
19  1.8000000000000D-01  7.3660937729412D-01 -3.6802750103703D-01
20  1.9000000000000D-01  7.7330983946536D-01 -3.7901029752908D-01
21  2.0000000000000D-01  8.0935258142657D-01 -3.8873811746245D-01
22  2.1000000000000D-01  8.4470855805892D-01 -3.9720752754801D-01
23  2.2000000000000D-01  8.7934909910246D-01 -4.0442114796069D-01
24  2.3000000000000D-01  9.1324583504184D-01 -4.1038721032395D-01
25  2.4000000000000D-01  9.4637061791814D-01 -4.1511905344555D-01
26  2.5000000000000D-01  9.7869543846751D-01 -4.1863456309927D-01
27  2.6000000000000D-01  1.0101923411018D+00 -4.2095556288303D-01
28  2.7000000000000D-01  1.0408333383454D+00 -4.2210716384738D-01
29  2.8000000000000D-01  1.0705903264234D+00 -4.2211708117154D-01
30  2.9000000000000D-01  1.0994350037564D+00 -4.2101492665856D-01
31  3.0000000000000D-01  1.1273387941601D+00 -4.1883148622104D-01
32  3.1000000000000D-01  1.1542727765651D+00 -4.1559799182825D-01
33  3.2000000000000D-01  1.1802076230698D+00 -4.1134539757873D-01
34  3.3000000000000D-01  1.2051135471131D+00 -4.0610366964780D-01
35  3.4000000000000D-01  1.2289602635033D+00 -3.9990109983160D-01
36  3.5000000000000D-01  1.2517169619664D+00 -3.9276365226927D-01
37  3.6000000000000D-01  1.2733522957808D+00 -3.8471435267151D-01
38  3.7000000000000D-01  1.2938343869452D+00 -3.7577272901639D-01
39  3.8000000000000D-01  1.3131308491846D+00 -3.6595431219809D-01
40  3.9000000000000D-01  1.3312088299377D+00 -3.5527020452975D-01
41  4.0000000000000D-01  1.3480350722837D+00 -3.4372672331622D-01
42  4.1000000000000D-01  1.3635759975660D+00 -3.3132512593052D-01
43  4.2000000000000D-01  1.3777978092536D+00 -3.1806142195622D-01
44  4.3000000000000D-01  1.3906666183438D+00 -3.0392627700493D-01
45  4.4000000000000D-01  1.4021485903679D+00 -2.8890501179326D-01
46  4.5000000000000D-01  1.4122101138033D+00 -2.7297769897680D-01
47  4.6000000000000D-01  1.4208179894315D+00 -2.5611935909996D-01
48  4.7000000000000D-01  1.4279396399147D+00 -2.3830025584385D-01
49  4.8000000000000D-01  1.4335433385899D+00 -2.1948628954951D-01
50  4.9000000000000D-01  1.4375984562118D+00 -1.9963948677625D-01
51  5.0000000000000D-01  1.4400757241090D+00 -1.7871858243571D-01
52  5.1000000000000D-01  1.4409475119583D+00 -1.5667968983742D-01
53  5.2000000000000D-01  1.4401881181333D+00 -1.3347705280239D-01
54  5.3000000000000D-01  1.4377740703478D+00 -1.0906387286483D-01
55  5.4000000000000D-01  1.4336844340948D+00 -8.3393203497577D-02
56  5.5000000000000D-01  1.4279011261803D+00 -5.6418902281939D-02
57  5.6000000000000D-01  1.4204092304733D+00 -2.8096631007867D-02
58  5.7000000000000D-01  1.4111973128391D+00  1.6151071526723D-03
59  5.8000000000000D-01  1.4002577320942D+00  3.2753904993505D-02
60  5.9000000000000D-01  1.3875869437241D+00  6.5352375361996D-02
61  6.0000000000000D-01  1.3731857930382D+00  9.9437074703786D-02
62  6.1000000000000D-01  1.3570597943989D+00  1.3502743914979D-01
63  6.2000000000000D-01  1.3392193931659D+00  1.7213474645738D-01
64  6.3000000000000D-01  1.3196802070259D+00  2.1076111720114D-01
65  6.4000000000000D-01  1.2984632434526D+00  2.5089856854179D-01
66  6.5000000000000D-01  1.2755950901463D+00  2.9252813368545D-01
67  6.6000000000000D-01  1.2511080754429D+00  3.3561905977487D-01
68  6.7000000000000D-01  1.2250403958638D+00  3.8012809643200D-01
69  6.8000000000000D-01  1.1974362081852D+00  4.2599888650519D-01
70  6.9000000000000D-01  1.1683456836554D+00  4.7316146975504D-01
71  7.0000000000000D-01  1.1378250222614D+00  5.2153190926320D-01
72  7.1000000000000D-01  1.1059364252554D+00  5.7101204926173D-01
73  7.2000000000000D-01  1.0727480244843D+00  6.2148941187987D-01
74  7.3000000000000D-01  1.0383337674210D+00  6.7283723898207D-01
75  7.4000000000000D-01  1.0027732571795D+00  7.2491468386029D-01
76  7.5000000000000D-01  9.6615154718801D-01  7.7756715604259D-01
77  7.6000000000000D-01  9.2855889060740D-01  8.3062682090856D-01
78  7.7000000000000D-01  8.9009044500359D-01  8.8391325417770D-01
79  7.8000000000000D-01  8.5084593320708D-01  9.3723424967750D-01
80  7.9000000000000D-01  8.1092926172464D-01  9.9038677710966D-01
81  8.0000000000000D-01  7.7044809849244D-01  1.0431580848532D+00
82  8.1000000000000D-01  7.2951341218009D-01  1.0953269411735D+00
83  8.2000000000000D-01  6.8823897566238D-01  1.1466650055734D+00
84  8.3000000000000D-01  6.4674083666811D-01  1.1969383204425D+00
85  8.4000000000000D-01  6.0513675898678D-01  1.2459089116529D+00
86  8.5000000000000D-01  5.6354563796160D-01  1.2933364853308D+00
87  8.6000000000000D-01  5.2208689431619D-01  1.3389802067206D+00
88  8.7000000000000D-01  4.8087985064931D-01  1.3826005458705D+00
89  8.8000000000000D-01  4.4004309518302D-01  1.4239611738107D+00
90  8.9000000000000D-01  3.9969383756209D-01  1.4628308920015D+00
91  9.0000000000000D-01  3.5994726167296D-01  1.4989855770832D+00
92  9.1000000000000D-01  3.2091588057710D-01  1.5322101224020D+00
93  9.2000000000000D-01  2.8270889873392D-01  1.5623003573999D+00
94  9.3000000000000D-01  2.4543158672129D-01  1.5890649257681D+00
95  9.4000000000000D-01  2.0918467364572D-01  1.6123271032651D+00
96  9.5000000000000D-01  1.7406376236908D-01  1.6319265362999D+00
97  9.6000000000000D-01  1.4015877256381D-01  1.6477208827844D+00
98  9.7000000000000D-01  1.0755341644865D-01  1.6595873373377D+00
99  9.8000000000000D-01  7.6324711841908D-02  1.6674240237303D+00
100  9.9000000000000D-01  4.6542536916482D-02  1.6711512384153D+00
101  1.0000000000000D+00  1.8269230738708D-02  1.6707125301464D+00
102  1.0100000000000D+00 -8.4407566676218D-03  1.6660756020017D+00
103  1.0200000000000D+00 -3.3541161369671D-02  1.6572330235965D+00
104  1.0300000000000D+00 -5.6994146750547D-02  1.6442027429311D+00
105  1.0400000000000D+00 -7.8770486386850D-02  1.6270283889263D+00
106  1.0500000000000D+00 -9.8849686570631D-02  1.6057793577174D+00
107  1.0600000000000D+00 -1.1722004692925D-01  1.5805506775855D+00
108  1.0700000000000D+00 -1.3387865811416D-01  1.5514626494382D+00
109  1.0800000000000D+00 -1.4883133607732D-01  1.5186602618956D+00
110  1.0900000000000D+00 -1.6209249291583D-01  1.4823123818562D+00
111  1.1000000000000D+00 -1.7368494487228D-01  1.4426107237936D+00
112  1.1100000000000D+00 -1.8363965855392D-01  1.3997686029000D+00
113  1.1200000000000D+00 -1.9199543697389D-01  1.3540194793069D+00
114  1.1300000000000D+00 -1.9879854749285D-01  1.3056153024647D+00
115  1.1400000000000D+00 -2.0410229421362D-01  1.2548246666133D+00
116  1.1500000000000D+00 -2.0796653787768D-01  1.2019307901972D+00
117  1.1600000000000D+00 -2.1045716670212D-01  1.1472293335792D+00
118  1.1700000000000D+00 -2.1164552195943D-01  1.0910260707994D+00
119  1.1800000000000D+00 -2.1160778247810D-01  1.0336344325583D+00
120  1.1900000000000D+00 -2.1042431256048D-01  9.7537293879083D-01
121  1.2000000000000D+00 -2.0817897804959D-01  9.1656254004630D-01
122  1.2100000000000D+00 -2.0495843544073D-01  8.5752388749690D-01
123  1.2200000000000D+00 -2.0085139919396D-01  7.9857455228983D-01
124  1.2300000000000D+00 -1.9594789241498D-01  7.4002621491467D-01
125  1.2400000000000D+00 -1.9033848614279D-01  6.8218184545675D-01
126  1.2500000000000D+00 -1.8411353252520D-01  6.2533289564412D-01
127  1.2600000000000D+00 -1.7736239702362D-01  5.6975652288354D-01
128  1.2700000000000D+00 -1.7017269422881D-01  5.1571286289259D-01
129  1.2800000000000D+00 -1.6262953512361D-01  4.6344238925302D-01
130  1.2900000000000D+00 -1.5481477695141D-01  4.1316329173664D-01
131  1.3000000000000D+00 -1.4680634520825D-01  3.6506929939213D-01
132  1.3100000000000D+00 -1.3867743188349D-01  3.1932670057493D-01
133  1.3200000000000D+00 -1.3049588883737D-01  2.7607255829169D-01
134  1.3300000000000D+00 -1.2232424895951D-01  2.3541713512904D-01
135  1.3400000000000D+00 -1.1421989718202D-01  1.9744658162040D-01
136  1.3500000000000D+00 -1.0623539738445D-01  1.6222616256675D-01
137  1.3600000000000D+00 -9.8418229158526D-02  1.2979923118925D-01
138  1.3700000000000D+00 -9.0810683035988D-02  1.0018711444789D-01
139  1.3800000000000D+00 -8.3449825659623D-02  7.3389397182092D-02
140  1.3900000000000D+00 -7.6367498538149D-02  4.9384274167438D-02
141  1.4000000000000D+00 -6.9590367764843D-02  2.8129121958791D-02
142  1.4100000000000D+00 -6.3140021401188D-02  9.5612640092894D-03
143  1.4200000000000D+00 -5.7033113346650D-02 -6.4010745195686D-03
144  1.4300000000000D+00 -5.1281551015275D-02 -1.9857634831250D-02
145  1.4400000000000D+00 -4.5892725191531D-02 -3.0924822964764D-02
146  1.4500000000000D+00 -4.0869778041017D-02 -3.9734256164874D-02
147  1.4600000000000D+00 -3.6211906916322D-02 -4.6431167715731D-02
148  1.4700000000000D+00 -3.1914699738892D-02 -5.1172688553930D-02
149  1.4800000000000D+00 -2.7970498115458D-02 -5.4126022378037D-02
150  1.4900000000000D+00 -2.4368784244805D-02 -5.5466531440082D-02
151  1.5000000000000D+00 -2.1096586619389D-02 -5.5375754490917D-02
152  1.5100000000000D+00 -1.8138900543248D-02 -5.4039374225414D-02
153  1.5200000000000D+00 -1.5479118129714D-02 -5.1645157069035D-02
154  1.5300000000000D+00 -1.3099463379068D-02 -4.8380884365426D-02
155  1.5400000000000D+00 -1.0981427155822D-02 -4.4432297155778D-02
156  1.5500000000000D+00 -9.1061975412409D-03 -3.9981074010765D-02
157  1.5600000000000D+00 -7.4550803211231D-03 -3.5202864394420D-02
158  1.5700000000000D+00 -6.0099057207531D-03 -3.0265394188320D-02
159  1.5800000000000D+00 -4.7534156929035D-03 -2.5326667819809D-02
160  1.5900000000000D+00 -3.6696292602674D-03 -2.0533277597021D-02
161  1.6000000000000D+00 -2.7441794977701D-03 -1.6018847781131D-02
162  1.6100000000000D+00 -1.9647170922494D-03 -1.1903319199470D-02
163  1.6200000000000D+00 -1.3211612909047D-03 -8.2915434506962D-03
164  1.6300000000000D+00 -8.0392966196357D-04 -5.2560654128399D-03
165  1.6400000000000D+00 -4.0873489117830D-04 -2.8725484011412D-03
166  1.6500000000000D+00 -1.3964281374356D-04 -1.2590815300266D-03
167  1.6600000000000D+00  7.2765101905183D-06 -4.0184421863857D-04
168  1.6700000000000D+00  5.0294636347318D-05 -6.2691565052855D-05
169  1.6800000000000D+00  2.6202300207188D-05  1.2112593095257D-05
170  1.6900000000000D+00 -4.8351629978448D-06 -4.3835523666348D-06
171  1.7000000000000D+00 -7.4906263192210D-06 -9.0123054480260D-06
172  1.7100000000000D+00  8.2301417363044D-07  4.5600444509629D-07
173  1.7200000000000D+00  1.6594405542796D-06  1.1486696236331D-06
174  1.7300000000000D+00 -4.7989093011512D-08  1.2335668946849D-07
175  1.7400000000000D+00 -1.2867372452663D-07  3.3075775521279D-07
176  1.7500000000000D+00  0.0000000000000D+00  0.0000000000000D+00
177  1.7600000000000D+00  0.0000000000000D+00  0.0000000000000D+00
178  1.7700000000000D+00  0.0000000000000D+00  0.0000000000000D+00
179  1.7800000000000D+00  0.0000000000000D+00  0.0000000000000D+00
180  1.7900000000000D+00  0.0000000000000D+00  0.0000000000000D+00
181  1.8000000000000D+00  0.0000000000000D+00  0.0000000000000D+00
182  1.8100000000000D+00  0.0000000000000D+00  0.0000000000000D+00
183  1.8200000000000D+00  0.0000000000000D+00  0.0000000000000D+00
184  1.8300000000000D+00  0.0000000000000D+00  0.0000000000000D+00
185  1.8400000000000D+00  0.0000000000000D+00  0.0000000000000D+00
186  1.8500000000000D+00  0.0000000000000D+00  0.0000000000000D+00
187  1.8600000000000D+00  0.0000000000000D+00  0.0000000000000D+00
188  1.8700000000000D+00  0.0000000000000D+00  0.0000000000000D+00
189  1.8800000000000D+00  0.0000000000000D+00  0.0000000000000D+00
190  1.8900000000000D+00  0.0000000000000D+00  0.0000000000000D+00
191  1.9000000000000D+00  0.0000000000000D+00  0.0000000000000D+00
192  1.9100000000000D+00  0.0000000000000D+00  0.0000000000000D+00
193  1.9200000000000D+00  0.0000000000000D+00  0.0000000000000D+00
194  1.9300000000000D+00  0.0000000000000D+00  0.0000000000000D+00
195  1.9400000000000D+00  0.0000000000000D+00  0.0000000000000D+00
196  1.9500000000000D+00  0.0000000000000D+00  0.0000000000000D+00
197  1.9600000000000D+00  0.0000000000000D+00  0.0000000000000D+00
198  1.9700000000000D+00  0.0000000000000D+00  0.0000000000000D+00
199  1.9800000000000D+00  0.0000000000000D+00  0.0000000000000D+00
200  1.9900000000000D+00  0.0000000000000D+00  0.0000000000000D+00
201  2.0000000000000D+00  0.0000000000000D+00  0.0000000000000D+00
202  2.0100000000000D+00  0.0000000000000D+00  0.0000000000000D+00
203  2.0200000000000D+00  0.0000000000000D+00  0.0000000000000D+00
204  2.0300000000000D+00  0.0000000000000D+00  0.0000000000000D+00
205  2.0400000000000D+00  0.0000000000000D+00  0.0000000000000D+00
206  2.0500000000000D+00  0.0000000000000D+00  0.0000000000000D+00
207  2.0600000000000D+00  0.0000000000000D+00  0.0000000000000D+00
208  2.0700000000000D+00  0.0000000000000D+00  0.0000000000000D+00
209  2.0800000000000D+00  0.0000000000000D+00  0.0000000000000D+00
210  2.0900000000000D+00  0.0000000000000D+00  0.0000000000000D+00
211  2.1000000000000D+00  0.0000000000000D+00  0.0000000000000D+00
212  2.1100000000000D+00  0.0000000000000D+00  0.0000000000000D+00
213  2.1200000000000D+00  0.0000000000000D+00  0.0000000000000D+00
214  2.1300000000000D+00  0.0000000000000D+00  0.0000000000000D+00
215  2.1400000000000D+00  0.0000000000000D+00  0.0000000000000D+00
216  2.1500000000000D+00  0.0000000000000D+00  0.0000000000000D+00
217  2.1600000000000D+00  0.0000000000000D+00  0.0000000000000D+00
218  2.1700000000000D+00  0.0000000000000D+00  0.0000000000000D+00
219  2.1800000000000D+00  0.0000000000000D+00  0.0000000000000D+00
220  2.1900000000000D+00  0.0000000000000D+00  0.0000000000000D+00
221  2.2000000000000D+00  0.0000000000000D+00  0.0000000000000D+00
222  2.2100000000000D+00  0.0000000000000D+00  0.0000000000000D+00
223  2.2200000000000D+00  0.0000000000000D+00  0.0000000000000D+00
224  2.2300000000000D+00  0.0000000000000D+00  0.0000000000000D+00
225  2.2400000000000D+00  0.0000000000000D+00  0.0000000000000D+00
226  2.2500000000000D+00  0.0000000000000D+00  0.0000000000000D+00
227  2.2600000000000D+00  0.0000000000000D+00  0.0000000000000D+00
228  2.2700000000000D+00  0.0000000000000D+00  0.0000000000000D+00
229  2.2800000000000D+00  0.0000000000000D+00  0.0000000000000D+00
230  2.2900000000000D+00  0.0000000000000D+00  0.0000000000000D+00
231  2.3000000000000D+00  0.0000000000000D+00  0.0000000000000D+00
232  2.3100000000000D+00  0.0000000000000D+00  0.0000000000000D+00
233  2.3200000000000D+00  0.0000000000000D+00  0.0000000000000D+00
234  2.3300000000000D+00  0.0000000000000D+00  0.0000000000000D+00
235  2.3400000000000D+00  0.0000000000000D+00  0.0000000000000D+00
236  2.3500000000000D+00  0.0000000000000D+00  0.0000000000000D+00
237  2.3600000000000D+00  0.0000000000000D+00  0.0000000000000D+00
238  2.3700000000000D+00  0.0000000000000D+00  0.0000000000000D+00
239  2.3800000000000D+00  0.0000000000000D+00  0.0000000000000D+00
240  2.3900000000000D+00  0.0000000000000D+00  0.0000000000000D+00
241  2.4000000000000D+00  0.0000000000000D+00  0.0000000000000D+00
242  2.4100000000000D+00  0.0000000000000D+00  0.0000000000000D+00
243  2.4200000000000D+00  0.0000000000000D+00  0.0000000000000D+00
244  2.4300000000000D+00  0.0000000000000D+00  0.0000000000000D+00
245  2.4400000000000D+00  0.0000000000000D+00  0.0000000000000D+00
246  2.4500000000000D+00  0.0000000000000D+00  0.0000000000000D+00
247  2.4600000000000D+00  0.0000000000000D+00  0.0000000000000D+00
248  2.4700000000000D+00  0.0000000000000D+00  0.0000000000000D+00
249  2.4800000000000D+00  0.0000000000000D+00  0.0000000000000D+00
250  2.4900000000000D+00  0.0000000000000D+00  0.0000000000000D+00
251  2.5000000000000D+00  0.0000000000000D+00  0.0000000000000D+00
252  2.5100000000000D+00  0.0000000000000D+00  0.0000000000000D+00
253  2.5200000000000D+00  0.0000000000000D+00  0.0000000000000D+00
254  2.5300000000000D+00  0.0000000000000D+00  0.0000000000000D+00
255  2.5400000000000D+00  0.0000000000000D+00  0.0000000000000D+00
256  2.5500000000000D+00  0.0000000000000D+00  0.0000000000000D+00
257  2.5600000000000D+00  0.0000000000000D+00  0.0000000000000D+00
258  2.5700000000000D+00  0.0000000000000D+00  0.0000000000000D+00
259  2.5800000000000D+00  0.0000000000000D+00  0.0000000000000D+00
260  2.5900000000000D+00  0.0000000000000D+00  0.0000000000000D+00
261  2.6000000000000D+00  0.0000000000000D+00  0.0000000000000D+00
262  2.6100000000000D+00  0.0000000000000D+00  0.0000000000000D+00
263  2.6200000000000D+00  0.0000000000000D+00  0.0000000000000D+00
264  2.6300000000000D+00  0.0000000000000D+00  0.0000000000000D+00
265  2.6400000000000D+00  0.0000000000000D+00  0.0000000000000D+00
266  2.6500000000000D+00  0.0000000000000D+00  0.0000000000000D+00
267  2.6600000000000D+00  0.0000000000000D+00  0.0000000000000D+00
268  2.6700000000000D+00  0.0000000000000D+00  0.0000000000000D+00
269  2.6800000000000D+00  0.0000000000000D+00  0.0000000000000D+00
270  2.6900000000000D+00  0.0000000000000D+00  0.0000000000000D+00
271  2.7000000000000D+00  0.0000000000000D+00  0.0000000000000D+00
272  2.7100000000000D+00  0.0000000000000D+00  0.0000000000000D+00
273  2.7200000000000D+00  0.0000000000000D+00  0.0000000000000D+00
274  2.7300000000000D+00  0.0000000000000D+00  0.0000000000000D+00
275  2.7400000000000D+00  0.0000000000000D+00  0.0000000000000D+00
276  2.7500000000000D+00  0.0000000000000D+00  0.0000000000000D+00
277  2.7600000000000D+00  0.0000000000000D+00  0.0000000000000D+00
278  2.7700000000000D+00  0.0000000000000D+00  0.0000000000000D+00
279  2.7800000000000D+00  0.0000000000000D+00  0.0000000000000D+00
280  2.7900000000000D+00  0.0000000000000D+00  0.0000000000000D+00
281  2.8000000000000D+00  0.0000000000000D+00  0.0000000000000D+00
282  2.8100000000000D+00  0.0000000000000D+00  0.0000000000000D+00
283  2.8200000000000D+00  0.0000000000000D+00  0.0000000000000D+00
284  2.8300000000000D+00  0.0000000000000D+00  0.0000000000000D+00
285  2.8400000000000D+00  0.0000000000000D+00  0.0000000000000D+00
286  2.8500000000000D+00  0.0000000000000D+00  0.0000000000000D+00
287  2.8600000000000D+00  0.0000000000000D+00  0.0000000000000D+00
288  2.8700000000000D+00  0.0000000000000D+00  0.0000000000000D+00
289  2.8800000000000D+00  0.0000000000000D+00  0.0000000000000D+00
290  2.8900000000000D+00  0.0000000000000D+00  0.0000000000000D+00
291  2.9000000000000D+00  0.0000000000000D+00  0.0000000000000D+00
292  2.9100000000000D+00  0.0000000000000D+00  0.0000000000000D+00
293  2.9200000000000D+00  0.0000000000000D+00  0.0000000000000D+00
294  2.9300000000000D+00  0.0000000000000D+00  0.0000000000000D+00
295  2.9400000000000D+00  0.0000000000000D+00  0.0000000000000D+00
296  2.9500000000000D+00  0.0000000000000D+00  0.0000000000000D+00
297  2.9600000000000D+00  0.0000000000000D+00  0.0000000000000D+00
298  2.9700000000000D+00  0.0000000000000D+00  0.0000000000000D+00
299  2.9800000000000D+00  0.0000000000000D+00  0.0000000000000D+00
300  2.9900000000000D+00  0.0000000000000D+00  0.0000000000000D+00
301  3.0000000000000D+00  0.0000000000000D+00  0.0000000000000D+00
302  3.0100000000000D+00  0.0000000000000D+00  0.0000000000000D+00
303  3.0200000000000D+00  0.0000000000000D+00  0.0000000000000D+00
304  3.0300000000000D+00  0.0000000000000D+00  0.0000000000000D+00
305  3.0400000000000D+00  0.0000000000000D+00  0.0000000000000D+00
306  3.0500000000000D+00  0.0000000000000D+00  0.0000000000000D+00
307  3.0600000000000D+00  0.0000000000000D+00  0.0000000000000D+00
308  3.0700000000000D+00  0.0000000000000D+00  0.0000000000000D+00
309  3.0800000000000D+00  0.0000000000000D+00  0.0000000000000D+00
310  3.0900000000000D+00  0.0000000000000D+00  0.0000000000000D+00
311  3.1000000000000D+00  0.0000000000000D+00  0.0000000000000D+00
312  3.1100000000000D+00  0.0000000000000D+00  0.0000000000000D+00
313  3.1200000000000D+00  0.0000000000000D+00  0.0000000000000D+00
314  3.1300000000000D+00  0.0000000000000D+00  0.0000000000000D+00
315  3.1400000000000D+00  0.0000000000000D+00  0.0000000000000D+00
316  3.1500000000000D+00  0.0000000000000D+00  0.0000000000000D+00
317  3.1600000000000D+00  0.0000000000000D+00  0.0000000000000D+00
318  3.1700000000000D+00  0.0000000000000D+00  0.0000000000000D+00
319  3.1800000000000D+00  0.0000000000000D+00  0.0000000000000D+00
320  3.1900000000000D+00  0.0000000000000D+00  0.0000000000000D+00
321  3.2000000000000D+00  0.0000000000000D+00  0.0000000000000D+00
322  3.2100000000000D+00  0.0000000000000D+00  0.0000000000000D+00
323  3.2200000000000D+00  0.0000000000000D+00  0.0000000000000D+00
324  3.2300000000000D+00  0.0000000000000D+00  0.0000000000000D+00
325  3.2400000000000D+00  0.0000000000000D+00  0.0000000000000D+00
326  3.2500000000000D+00  0.0000000000000D+00  0.0000000000000D+00
327  3.2600000000000D+00  0.0000000000000D+00  0.0000000000000D+00
328  3.2700000000000D+00  0.0000000000000D+00  0.0000000000000D+00
329  3.2800000000000D+00  0.0000000000000D+00  0.0000000000000D+00
330  3.2900000000000D+00  0.0000000000000D+00  0.0000000000000D+00
331  3.3000000000000D+00  0.0000000000000D+00  0.0000000000000D+00
332  3.3100000000000D+00  0.0000000000000D+00  0.0000000000000D+00
333  3.3200000000000D+00  0.0000000000000D+00  0.0000000000000D+00
334  3.3300000000000D+00  0.0000000000000D+00  0.0000000000000D+00
335  3.3400000000000D+00  0.0000000000000D+00  0.0000000000000D+00
336  3.3500000000000D+00  0.0000000000000D+00  0.0000000000000D+00
337  3.3600000000000D+00  0.0000000000000D+00  0.0000000000000D+00
338  3.3700000000000D+00  0.0000000000000D+00  0.0000000000000D+00
339  3.3800000000000D+00  0.0000000000000D+00  0.0000000000000D+00
340  3.3900000000000D+00  0.0000000000000D+00  0.0000000000000D+00
341  3.4000000000000D+00  0.0000000000000D+00  0.0000000000000D+00
342  3.4100000000000D+00  0.0000000000000D+00  0.0000000000000D+00
343  3.4200000000000D+00  0.0000000000000D+00  0.0000000000000D+00
344  3.4300000000000D+00  0.0000000000000D+00  0.0000000000000D+00
345  3.4400000000000D+00  0.0000000000000D+00  0.0000000000000D+00
346  3.4500000000000D+00  0.0000000000000D+00  0.0000000000000D+00
347  3.4600000000000D+00  0.0000000000000D+00  0.0000000000000D+00
348  3.4700000000000D+00  0.0000000000000D+00  0.0000000000000D+00
349  3.4800000000000D+00  0.0000000000000D+00  0.0000000000000D+00
350  3.4900000000000D+00  0.0000000000000D+00  0.0000000000000D+00
351  3.5000000000000D+00  0.0000000000000D+00  0.0000000000000D+00
352  3.5100000000000D+00  0.0000000000000D+00  0.0000000000000D+00
353  3.5200000000000D+00  0.0000000000000D+00  0.0000000000000D+00
354  3.5300000000000D+00  0.0000000000000D+00  0.0000000000000D+00
355  3.5400000000000D+00  0.0000000000000D+00  0.0000000000000D+00
356  3.5500000000000D+00  0.0000000000000D+00  0.0000000000000D+00
357  3.5600000000000D+00  0.0000000000000D+00  0.0000000000000D+00
358  3.5700000000000D+00  0.0000000000000D+00  0.0000000000000D+00
359  3.5800000000000D+00  0.0000000000000D+00  0.0000000000000D+00
360  3.5900000000000D+00  0.0000000000000D+00  0.0000000000000D+00
361  3.6000000000000D+00  0.0000000000000D+00  0.0000000000000D+00
362  3.6100000000000D+00  0.0000000000000D+00  0.0000000000000D+00
363  3.6200000000000D+00  0.0000000000000D+00  0.0000000000000D+00
364  3.6300000000000D+00  0.0000000000000D+00  0.0000000000000D+00
365  3.6400000000000D+00  0.0000000000000D+00  0.0000000000000D+00
366  3.6500000000000D+00  0.0000000000000D+00  0.0000000000000D+00
367  3.6600000000000D+00  0.0000000000000D+00  0.0000000000000D+00
368  3.6700000000000D+00  0.0000000000000D+00  0.0000000000000D+00
369  3.6800000000000D+00  0.0000000000000D+00  0.0000000000000D+00
370  3.6900000000000D+00  0.0000000000000D+00  0.0000000000000D+00
371  3.7000000000000D+00  0.0000000000000D+00  0.0000000000000D+00
372  3.7100000000000D+00  0.0000000000000D+00  0.0000000000000D+00
373  3.7200000000000D+00  0.0000000000000D+00  0.0000000000000D+00
374  3.7300000000000D+00  0.0000000000000D+00  0.0000000000000D+00
375  3.7400000000000D+00  0.0000000000000D+00  0.0000000000000D+00
376  3.7500000000000D+00  0.0000000000000D+00  0.0000000000000D+00
377  3.7600000000000D+00  0.0000000000000D+00  0.0000000000000D+00
378  3.7700000000000D+00  0.0000000000000D+00  0.0000000000000D+00
379  3.7800000000000D+00  0.0000000000000D+00  0.0000000000000D+00
380  3.7900000000000D+00  0.0000000000000D+00  0.0000000000000D+00
381  3.8000000000000D+00  0.0000000000000D+00  0.0000000000000D+00
382  3.8100000000000D+00  0.0000000000000D+00  0.0000000000000D+00
383  3.8200000000000D+00  0.0000000000000D+00  0.0000000000000D+00
384  3.8300000000000D+00  0.0000000000000D+00  0.0000000000000D+00
385  3.8400000000000D+00  0.0000000000000D+00  0.0000000000000D+00
386  3.8500000000000D+00  0.0000000000000D+00  0.0000000000000D+00
387  3.8600000000000D+00  0.0000000000000D+00  0.0000000000000D+00
388  3.8700000000000D+00  0.0000000000000D+00  0.0000000000000D+00
389  3.8800000000000D+00  0.0000000000000D+00  0.0000000000000D+00
390  3.8900000000000D+00  0.0000000000000D+00  0.0000000000000D+00
391  3.9000000000000D+00  0.0000000000000D+00  0.0000000000000D+00
392  3.9100000000000D+00  0.0000000000000D+00  0.0000000000000D+00
393  3.9200000000000D+00  0.0000000000000D+00  0.0000000000000D+00
394  3.9300000000000D+00  0.0000000000000D+00  0.0000000000000D+00
395  3.9400000000000D+00  0.0000000000000D+00  0.0000000000000D+00
396  3.9500000000000D+00  0.0000000000000D+00  0.0000000000000D+00
397  3.9600000000000D+00  0.0000000000000D+00  0.0000000000000D+00
398  3.9700000000000D+00  0.0000000000000D+00  0.0000000000000D+00
399  3.9800000000000D+00  0.0000000000000D+00  0.0000000000000D+00
400  3.9900000000000D+00  0.0000000000000D+00  0.0000000000000D+00
401  4.0000000000000D+00  0.0000000000000D+00  0.0000000000000D+00
402  4.0100000000000D+00  0.0000000000000D+00  0.0000000000000D+00
403  4.0200000000000D+00  0.0000000000000D+00  0.0000000000000D+00
404  4.0300000000000D+00  0.0000000000000D+00  0.0000000000000D+00
405  4.0400000000000D+00  0.0000000000000D+00  0.0000000000000D+00
406  4.0500000000000D+00  0.0000000000000D+00  0.0000000000000D+00
407  4.0600000000000D+00  0.0000000000000D+00  0.0000000000000D+00
408  4.0700000000000D+00  0.0000000000000D+00  0.0000000000000D+00
409  4.0800000000000D+00  0.0000000000000D+00  0.0000000000000D+00
410  4.0900000000000D+00  0.0000000000000D+00  0.0000000000000D+00
411  4.1000000000000D+00  0.0000000000000D+00  0.0000000000000D+00
412  4.1100000000000D+00  0.0000000000000D+00  0.0000000000000D+00
413  4.1200000000000D+00  0.0000000000000D+00  0.0000000000000D+00
414  4.1300000000000D+00  0.0000000000000D+00  0.0000000000000D+00
415  4.1400000000000D+00  0.0000000000000D+00  0.0000000000000D+00
416  4.1500000000000D+00  0.0000000000000D+00  0.0000000000000D+00
417  4.1600000000000D+00  0.0000000000000D+00  0.0000000000000D+00
418  4.1700000000000D+00  0.0000000000000D+00  0.0000000000000D+00
419  4.1800000000000D+00  0.0000000000000D+00  0.0000000000000D+00
420  4.1900000000000D+00  0.0000000000000D+00  0.0000000000000D+00
421  4.2000000000000D+00  0.0000000000000D+00  0.0000000000000D+00
422  4.2100000000000D+00  0.0000000000000D+00  0.0000000000000D+00
423  4.2200000000000D+00  0.0000000000000D+00  0.0000000000000D+00
424  4.2300000000000D+00  0.0000000000000D+00  0.0000000000000D+00
425  4.2400000000000D+00  0.0000000000000D+00  0.0000000000000D+00
426  4.2500000000000D+00  0.0000000000000D+00  0.0000000000000D+00
427  4.2600000000000D+00  0.0000000000000D+00  0.0000000000000D+00
428  4.2700000000000D+00  0.0000000000000D+00  0.0000000000000D+00
429  4.2800000000000D+00  0.0000000000000D+00  0.0000000000000D+00
430  4.2900000000000D+00  0.0000000000000D+00  0.0000000000000D+00
431  4.3000000000000D+00  0.0000000000000D+00  0.0000000000000D+00
432  4.3100000000000D+00  0.0000000000000D+00  0.0000000000000D+00
433  4.3200000000000D+00  0.0000000000000D+00  0.0000000000000D+00
434  4.3300000000000D+00  0.0000000000000D+00  0.0000000000000D+00
435  4.3400000000000D+00  0.0000000000000D+00  0.0000000000000D+00
436  4.3500000000000D+00  0.0000000000000D+00  0.0000000000000D+00
437  4.3600000000000D+00  0.0000000000000D+00  0.0000000000000D+00
438  4.3700000000000D+00  0.0000000000000D+00  0.0000000000000D+00
439  4.3800000000000D+00  0.0000000000000D+00  0.0000000000000D+00
440  4.3900000000000D+00  0.0000000000000D+00  0.0000000000000D+00
441  4.4000000000000D+00  0.0000000000000D+00  0.0000000000000D+00
442  4.4100000000000D+00  0.0000000000000D+00  0.0000000000000D+00
443  4.4200000000000D+00  0.0000000000000D+00  0.0000000000000D+00