Mn    ONCVPSP  r_core=  1.41  1.21  1.61
25.0000     15.0000      151028    zatom,zion,pspd
8      11   2     4   600     0    pspcod,pspxc,lmax,lloc,mmax,r2well
5.99000000  4.00000000  0.00000000    rchrg fchrg qchrg
2     2     2     0     0    nproj
1                 extension_switch
0                         9.1242357662763D+00  1.5372939712951D+00
1  0.0000000000000D+00  3.8463288110080D-10 -7.3925900123673D-10
2  1.0000000000000D-02  7.8031815080375D-02  4.0864046998633D-03
3  2.0000000000000D-02  1.5592010693109D-01  8.1329533767038D-03
4  3.0000000000000D-02  2.3352105787100D-01  1.2101144039342D-02
5  4.0000000000000D-02  3.1069026979634D-01  1.5955164654389D-02
6  5.0000000000000D-02  3.8728249507188D-01  1.9663193049297D-02
7  6.0000000000000D-02  4.6315139247055D-01  2.3198643251778D-02
8  7.0000000000000D-02  5.3814931605592D-01  2.6541341284934D-02
9  8.0000000000000D-02  6.1212714451769D-01  2.9678614176727D-02
10  9.0000000000000D-02  6.8493415799582D-01  3.2606276853972D-02
11  1.0000000000000D-01  7.5641796887021D-01  3.5329502667214D-02
12  1.1000000000000D-01  8.2642451235314D-01  3.7863564523695D-02
13  1.2000000000000D-01  8.9479810200905D-01  4.0234434980348D-02
14  1.3000000000000D-01  9.6138155454526D-01  4.2479235154847D-02
15  1.4000000000000D-01  1.0260163873769D+00  4.4646523936885D-02
16  1.5000000000000D-01  1.0885430915768D+00  4.6796420708525D-02
17  1.6000000000000D-01  1.1488014818849D+00  4.9000556596910D-02
18  1.7000000000000D-01  1.2066311244809D+00  5.1341851166732D-02
19  1.8000000000000D-01  1.2618718422292D+00  5.3914113397197D-02
20  1.9000000000000D-01  1.3143642960928D+00  5.6821467759501D-02
21  2.0000000000000D-01  1.3639506403992D+00  6.0177608197878D-02
22  2.1000000000000D-01  1.4104752486275D+00  6.4104884800430D-02
23  2.2000000000000D-01  1.4537855053935D+00  6.8733229905811D-02
24  2.3000000000000D-01  1.4937326593383D+00  7.4198932309061D-02
25  2.4000000000000D-01  1.5301727306940D+00  8.0643270084517D-02
26  2.5000000000000D-01  1.5629674664125D+00  8.8211014317310D-02
27  2.6000000000000D-01  1.5919853349123D+00  9.7048817708079D-02
28  2.7000000000000D-01  1.6171025517364D+00  1.0730350357014D-01
29  2.8000000000000D-01  1.6382041267197D+00  1.1912027215820D-01
30  2.9000000000000D-01  1.6551849226627D+00  1.3264084253429D-01
31  3.0000000000000D-01  1.6679507149892D+00  1.4800154927759D-01
32  3.1000000000000D-01  1.6764192414504D+00  1.6533141426344D-01
33  3.2000000000000D-01  1.6805212306264D+00  1.8475021446306D-01
34  3.3000000000000D-01  1.6802013977705D+00  2.0636656723734D-01
35  3.4000000000000D-01  1.6754193964588D+00  2.3027605490651D-01
36  3.5000000000000D-01  1.6661507145341D+00  2.5655941046640D-01
37  3.6000000000000D-01  1.6523875029858D+00  2.8528078618501D-01
38  3.7000000000000D-01  1.6341393266800D+00  3.1648612644836D-01
39  3.8000000000000D-01  1.6114338262477D+00  3.5020166563094D-01
40  3.9000000000000D-01  1.5843172809525D+00  3.8643257094453D-01
41  4.0000000000000D-01  1.5528550629939D+00  4.2516174917440D-01
42  4.1000000000000D-01  1.5171319744468D+00  4.6634883494959D-01
43  4.2000000000000D-01  1.4772524588957D+00  5.0992937672244D-01
44  4.3000000000000D-01  1.4333406807806D+00  5.5581423496254D-01
45  4.4000000000000D-01  1.3855404665279D+00  6.0388920521568D-01
46  4.5000000000000D-01  1.3340151026825D+00  6.5401487665245D-01
47  4.6000000000000D-01  1.2789469874789D+00  7.0602673455347D-01
48  4.7000000000000D-01  1.2205371335775D+00  7.5973551286598D-01
49  4.8000000000000D-01  1.1590045210375D+00  8.1492780054171D-01
50  4.9000000000000D-01  1.0945853009862D+00  8.7136690285156D-01
51  5.0000000000000D-01  1.0275318518637D+00  9.2879395629089D-01
52  5.1000000000000D-01  9.5811169155852D-01  9.8692929306792D-01
53  5.2000000000000D-01  8.8660625018911D-01  1.0454740485308D+00
54  5.3000000000000D-01  8.1330950971155D-01  1.1041120022660D+00
55  5.4000000000000D-01  7.3852651793786D-01  1.1625116410136D+00
56  5.5000000000000D-01  6.6257178590655D-01  1.2203284290328D+00
57  5.6000000000000D-01  5.8576757885168D-01  1.2772072691241D+00
58  5.7000000000000D-01  5.0844211225111D-01  1.3327851352173D+00
59  5.8000000000000D-01  4.3092766558151D-01  1.3866938552856D+00
60  5.9000000000000D-01  3.5355862746188D-01  1.4385630213612D+00
61  6.0000000000000D-01  2.7666948680491D-01  1.4880230016587D+00
62  6.1000000000000D-01  2.0059278541641D-01  1.5347080282421D+00
63  6.2000000000000D-01  1.2565704816612D-01  1.5782593323644D+00
64  6.3000000000000D-01  5.2184707396207D-02  1.6183282985417D+00
65  6.4000000000000D-01 -1.9509961375659D-02  1.6545796076457D+00
66  6.5000000000000D-01 -8.9122875169270D-02  1.6866943388035D+00
67  6.6000000000000D-01 -1.5636213331212D-01  1.7143729996994D+00
68  6.7000000000000D-01 -2.2094994400755D-01  1.7373384549886D+00
69  6.8000000000000D-01 -2.8262447070741D-01  1.7553387229529D+00
70  6.9000000000000D-01 -3.4114158173526D-01  1.7681496112734D+00
71  7.0000000000000D-01 -3.9627648721074D-01  1.7755771638371D+00
72  7.1000000000000D-01 -4.4782524809898D-01  1.7774598918543D+00
73  7.2000000000000D-01 -4.9560614313569D-01  1.7736707642062D+00
74  7.3000000000000D-01 -5.3946088046664D-01  1.7641189338815D+00
75  7.4000000000000D-01 -5.7925564206719D-01  1.7487511795591D+00
76  7.5000000000000D-01 -6.1488195036950D-01  1.7275530438448D+00
77  7.6000000000000D-01 -6.4625734801020D-01  1.7005496523458D+00
78  7.7000000000000D-01 -6.7332588320513D-01  1.6678062006486D+00
79  7.8000000000000D-01 -6.9605839494395D-01  1.6294280993169D+00
80  7.9000000000000D-01 -7.1445259396082D-01  1.5855607702235D+00
81  8.0000000000000D-01 -7.2853293726678D-01  1.5363890908471D+00
82  8.1000000000000D-01 -7.3835029589311D-01  1.4821364865503D+00
83  8.2000000000000D-01 -7.4398141738757D-01  1.4230636742911D+00
84  8.3000000000000D-01 -7.4552818650079D-01  1.3594670646618D+00
85  8.4000000000000D-01 -7.4311668937947D-01  1.2916768325640D+00
86  8.5000000000000D-01 -7.3689608842762D-01  1.2200546701743D+00
87  8.6000000000000D-01 -7.2703731678600D-01  1.1449912390989D+00
88  8.7000000000000D-01 -7.1373160309507D-01  1.0669033417233D+00
89  8.8000000000000D-01 -6.9718883882791D-01  9.8623083469212D-01
90  8.9000000000000D-01 -6.7763580198980D-01  9.0343331017651D-01
91  9.0000000000000D-01 -6.5531425236304D-01  8.1898657307169D-01
92  9.1000000000000D-01 -6.3047891471317D-01  7.3337894447863D-01
93  9.2000000000000D-01 -6.0339536745147D-01  6.4710742374103D-01
94  9.3000000000000D-01 -5.7433785515620D-01  5.6067374290442D-01
95  9.4000000000000D-01 -5.4358704408044D-01  4.7458034871991D-01
96  9.5000000000000D-01 -5.1142774030480D-01  3.8932634820546D-01
97  9.6000000000000D-01 -4.7814659052961D-01  3.0540345430755D-01
98  9.7000000000000D-01 -4.4402978563084D-01  2.2329196834512D-01
99  9.8000000000000D-01 -4.0936078702429D-01  1.4345683567137D-01
100  9.9000000000000D-01 -3.7441809559917D-01  6.6343810358014D-02
101  1.0000000000000D+00 -3.3947308249041D-01 -7.6242363105389D-03
102  1.0100000000000D+00 -3.0478790027125D-01 -7.8050830128710D-02
103  1.0200000000000D+00 -2.7061349223049D-01 -1.4456919945471D-01
104  1.0300000000000D+00 -2.3718771637831D-01 -2.0684534229384D-01
105  1.0400000000000D+00 -2.0473359952363D-01 -2.6458082791288D-01
106  1.0500000000000D+00 -1.7345773536031D-01 -3.1751530863125D-01
107  1.0600000000000D+00 -1.4354883895124D-01 -3.6542872041409D-01
108  1.0700000000000D+00 -1.1517646826751D-01 -4.0814315421004D-01
109  1.0800000000000D+00 -8.8489921632797D-02 -4.4552438342870D-01
110  1.0900000000000D+00 -6.3617318117534D-02 -4.7748303639542D-01
111  1.1000000000000D+00 -4.0664865742604D-02 -5.0397540677268D-01
112  1.1100000000000D+00 -1.9716320506567D-02 -5.2500389843777D-01
113  1.1200000000000D+00 -8.3263694997288D-04 -5.4061710565749D-01
114  1.1300000000000D+00  1.5948190695766D-02 -5.5090953254769D-01
115  1.1400000000000D+00  3.0611100269098D-02 -5.5602096059331D-01
116  1.1500000000000D+00  4.3163751558815D-02 -5.5613547622513D-01
117  1.1600000000000D+00  5.3636141751720D-02 -5.5148017463706D-01
118  1.1700000000000D+00  6.2080057014502D-02 -5.4232356283434D-01
119  1.1800000000000D+00  6.8568360003958D-02 -5.2897365745601D-01
120  1.1900000000000D+00  7.3194175838819D-02 -5.1177592282441D-01
121  1.2000000000000D+00  7.6069738795623D-02 -4.9111047623249D-01
122  1.2100000000000D+00  7.7325879306790D-02 -4.6739090270341D-01
123  1.2200000000000D+00  7.7109548140822D-02 -4.4105840362545D-01
124  1.2300000000000D+00  7.5579237820941D-02 -4.1257096597459D-01
125  1.2400000000000D+00  7.2900039633829D-02 -3.8239211520857D-01
126  1.2500000000000D+00  6.9240552944148D-02 -3.5098430654883D-01
127  1.2600000000000D+00  6.4771387282621D-02 -3.1880629177881D-01
128  1.2700000000000D+00  5.9662931890867D-02 -2.8630866833472D-01
129  1.2800000000000D+00  5.4083381597026D-02 -2.5393006825925D-01
130  1.2900000000000D+00  4.8196756482259D-02 -2.2209331751858D-01
131  1.3000000000000D+00  4.2161001977291D-02 -1.9120176985416D-01
132  1.3100000000000D+00  3.6126169721832D-02 -1.6163580554950D-01
133  1.3200000000000D+00  3.0232698860805D-02 -1.3374953389511D-01
134  1.3300000000000D+00  2.4609816612340D-02 -1.0786773550880D-01
135  1.3400000000000D+00  1.9374071725378D-02 -8.4283069779887D-02
136  1.3500000000000D+00  1.4628014449874D-02 -6.3253573223869D-02
137  1.3600000000000D+00  1.0459037772684D-02 -4.5000476767912D-02
138  1.3700000000000D+00  6.9407348969815D-03 -2.9716181728304D-02
139  1.3800000000000D+00  4.1182597790989D-03 -1.7505250437687D-02
140  1.3900000000000D+00  2.0259740258551D-03 -8.4604625912119D-03
141  1.4000000000000D+00  7.5581705820172D-04 -2.9281572301879D-03
142  1.4100000000000D+00  2.0003690001970D-04 -5.0635719667085D-04
143  1.4200000000000D+00  2.5729837750794D-05  8.6704057817023D-05
144  1.4300000000000D+00 -3.0110241262678D-08 -5.4899965442280D-06
145  1.4400000000000D+00  2.2278274842516D-06 -4.0994089055693D-05
146  1.4500000000000D+00  2.4143178129363D-07  4.4302073071017D-06
147  1.4600000000000D+00  8.4260483045232D-08  4.6090238220888D-06
148  1.4700000000000D+00 -3.5295933676860D-07  6.3399831299381D-07
149  1.4800000000000D+00 -9.7763105815739D-08  1.7560562281102D-07
150  1.4900000000000D+00  0.0000000000000D+00  0.0000000000000D+00
151  1.5000000000000D+00  0.0000000000000D+00  0.0000000000000D+00
152  1.5100000000000D+00  0.0000000000000D+00  0.0000000000000D+00
153  1.5200000000000D+00  0.0000000000000D+00  0.0000000000000D+00
154  1.5300000000000D+00  0.0000000000000D+00  0.0000000000000D+00
155  1.5400000000000D+00  0.0000000000000D+00  0.0000000000000D+00
156  1.5500000000000D+00  0.0000000000000D+00  0.0000000000000D+00
157  1.5600000000000D+00  0.0000000000000D+00  0.0000000000000D+00
158  1.5700000000000D+00  0.0000000000000D+00  0.0000000000000D+00
159  1.5800000000000D+00  0.0000000000000D+00  0.0000000000000D+00
160  1.5900000000000D+00  0.0000000000000D+00  0.0000000000000D+00
161  1.6000000000000D+00  0.0000000000000D+00  0.0000000000000D+00
162  1.6100000000000D+00  0.0000000000000D+00  0.0000000000000D+00
163  1.6200000000000D+00  0.0000000000000D+00  0.0000000000000D+00
164  1.6300000000000D+00  0.0000000000000D+00  0.0000000000000D+00
165  1.6400000000000D+00  0.0000000000000D+00  0.0000000000000D+00
166  1.6500000000000D+00  0.0000000000000D+00  0.0000000000000D+00
167  1.6600000000000D+00  0.0000000000000D+00  0.0000000000000D+00
168  1.6700000000000D+00  0.0000000000000D+00  0.0000000000000D+00
169  1.6800000000000D+00  0.0000000000000D+00  0.0000000000000D+00
170  1.6900000000000D+00  0.0000000000000D+00  0.0000000000000D+00
171  1.7000000000000D+00  0.0000000000000D+00  0.0000000000000D+00
172  1.7100000000000D+00  0.0000000000000D+00  0.0000000000000D+00
173  1.7200000000000D+00  0.0000000000000D+00  0.0000000000000D+00
174  1.7300000000000D+00  0.0000000000000D+00  0.0000000000000D+00
175  1.7400000000000D+00  0.0000000000000D+00  0.0000000000000D+00
176  1.7500000000000D+00  0.0000000000000D+00  0.0000000000000D+00
177  1.7600000000000D+00  0.0000000000000D+00  0.0000000000000D+00
178  1.7700000000000D+00  0.0000000000000D+00  0.0000000000000D+00
179  1.7800000000000D+00  0.0000000000000D+00  0.0000000000000D+00
180  1.7900000000000D+00  0.0000000000000D+00  0.0000000000000D+00
181  1.8000000000000D+00  0.0000000000000D+00  0.0000000000000D+00
182  1.8100000000000D+00  0.0000000000000D+00  0.0000000000000D+00
183  1.8200000000000D+00  0.0000000000000D+00  0.0000000000000D+00
184  1.8300000000000D+00  0.0000000000000D+00  0.0000000000000D+00
185  1.8400000000000D+00  0.0000000000000D+00  0.0000000000000D+00
186  1.8500000000000D+00  0.0000000000000D+00  0.0000000000000D+00
187  1.8600000000000D+00  0.0000000000000D+00  0.0000000000000D+00
188  1.8700000000000D+00  0.0000000000000D+00  0.0000000000000D+00
189  1.8800000000000D+00  0.0000000000000D+00  0.0000000000000D+00
190  1.8900000000000D+00  0.0000000000000D+00  0.0000000000000D+00
191  1.9000000000000D+00  0.0000000000000D+00  0.0000000000000D+00
192  1.9100000000000D+00  0.0000000000000D+00  0.0000000000000D+00
193  1.9200000000000D+00  0.0000000000000D+00  0.0000000000000D+00
194  1.9300000000000D+00  0.0000000000000D+00  0.0000000000000D+00
195  1.9400000000000D+00  0.0000000000000D+00  0.0000000000000D+00
196  1.9500000000000D+00  0.0000000000000D+00  0.0000000000000D+00
197  1.9600000000000D+00  0.0000000000000D+00  0.0000000000000D+00
198  1.9700000000000D+00  0.0000000000000D+00  0.0000000000000D+00
199  1.9800000000000D+00  0.0000000000000D+00  0.0000000000000D+00
200  1.9900000000000D+00  0.0000000000000D+00  0.0000000000000D+00
201  2.0000000000000D+00  0.0000000000000D+00  0.0000000000000D+00
202  2.0100000000000D+00  0.0000000000000D+00  0.0000000000000D+00
203  2.0200000000000D+00  0.0000000000000D+00  0.0000000000000D+00
204  2.0300000000000D+00  0.0000000000000D+00  0.0000000000000D+00
205  2.0400000000000D+00  0.0000000000000D+00  0.0000000000000D+00
206  2.0500000000000D+00  0.0000000000000D+00  0.0000000000000D+00
207  2.0600000000000D+00  0.0000000000000D+00  0.0000000000000D+00
208  2.0700000000000D+00  0.0000000000000D+00  0.0000000000000D+00
209  2.0800000000000D+00  0.0000000000000D+00  0.0000000000000D+00
210  2.0900000000000D+00  0.0000000000000D+00  0.0000000000000D+00
211  2.1000000000000D+00  0.0000000000000D+00  0.0000000000000D+00
212  2.1100000000000D+00  0.0000000000000D+00  0.0000000000000D+00
213  2.1200000000000D+00  0.0000000000000D+00  0.0000000000000D+00
214  2.1300000000000D+00  0.0000000000000D+00  0.0000000000000D+00
215  2.1400000000000D+00  0.0000000000000D+00  0.0000000000000D+00
216  2.1500000000000D+00  0.0000000000000D+00  0.0000000000000D+00
217  2.1600000000000D+00  0.0000000000000D+00  0.0000000000000D+00
218  2.1700000000000D+00  0.0000000000000D+00  0.0000000000000D+00
219  2.1800000000000D+00  0.0000000000000D+00  0.0000000000000D+00
220  2.1900000000000D+00  0.0000000000000D+00  0.0000000000000D+00
221  2.2000000000000D+00  0.0000000000000D+00  0.0000000000000D+00
222  2.2100000000000D+00  0.0000000000000D+00  0.0000000000000D+00
223  2.2200000000000D+00  0.0000000000000D+00  0.0000000000000D+00
224  2.2300000000000D+00  0.0000000000000D+00  0.0000000000000D+00
225  2.2400000000000D+00  0.0000000000000D+00  0.0000000000000D+00
226  2.2500000000000D+00  0.0000000000000D+00  0.0000000000000D+00
227  2.2600000000000D+00  0.0000000000000D+00  0.0000000000000D+00
228  2.2700000000000D+00  0.0000000000000D+00  0.0000000000000D+00
229  2.2800000000000D+00  0.0000000000000D+00  0.0000000000000D+00
230  2.2900000000000D+00  0.0000000000000D+00  0.0000000000000D+00
231  2.3000000000000D+00  0.0000000000000D+00  0.0000000000000D+00
232  2.3100000000000D+00  0.0000000000000D+00  0.0000000000000D+00
233  2.3200000000000D+00  0.0000000000000D+00  0.0000000000000D+00
234  2.3300000000000D+00  0.0000000000000D+00  0.0000000000000D+00
235  2.3400000000000D+00  0.0000000000000D+00  0.0000000000000D+00
236  2.3500000000000D+00  0.0000000000000D+00  0.0000000000000D+00
237  2.3600000000000D+00  0.0000000000000D+00  0.0000000000000D+00
238  2.3700000000000D+00  0.0000000000000D+00  0.0000000000000D+00
239  2.3800000000000D+00  0.0000000000000D+00  0.0000000000000D+00
240  2.3900000000000D+00  0.0000000000000D+00  0.0000000000000D+00
241  2.4000000000000D+00  0.0000000000000D+00  0.0000000000000D+00
242  2.4100000000000D+00  0.0000000000000D+00  0.0000000000000D+00
243  2.4200000000000D+00  0.0000000000000D+00  0.0000000000000D+00
244  2.4300000000000D+00  0.0000000000000D+00  0.0000000000000D+00
245  2.4400000000000D+00  0.0000000000000D+00  0.0000000000000D+00
246  2.4500000000000D+00  0.0000000000000D+00  0.0000000000000D+00
247  2.4600000000000D+00  0.0000000000000D+00  0.0000000000000D+00
248  2.4700000000000D+00  0.0000000000000D+00  0.0000000000000D+00
249  2.4800000000000D+00  0.0000000000000D+00  0.0000000000000D+00
250  2.4900000000000D+00  0.0000000000000D+00  0.0000000000000D+00
251  2.5000000000000D+00  0.0000000000000D+00  0.0000000000000D+00
252  2.5100000000000D+00  0.0000000000000D+00  0.0000000000000D+00
253  2.5200000000000D+00  0.0000000000000D+00  0.0000000000000D+00
254  2.5300000000000D+00  0.0000000000000D+00  0.0000000000000D+00
255  2.5400000000000D+00  0.0000000000000D+00  0.0000000000000D+00
256  2.5500000000000D+00  0.0000000000000D+00  0.0000000000000D+00
257  2.5600000000000D+00  0.0000000000000D+00  0.0000000000000D+00
258  2.5700000000000D+00  0.0000000000000D+00  0.0000000000000D+00
259  2.5800000000000D+00  0.0000000000000D+00  0.0000000000000D+00
260  2.5900000000000D+00  0.0000000000000D+00  0.0000000000000D+00
261  2.6000000000000D+00  0.0000000000000D+00  0.0000000000000D+00
262  2.6100000000000D+00  0.0000000000000D+00  0.0000000000000D+00
263  2.6200000000000D+00  0.0000000000000D+00  0.0000000000000D+00
264  2.6300000000000D+00  0.0000000000000D+00  0.0000000000000D+00
265  2.6400000000000D+00  0.0000000000000D+00  0.0000000000000D+00
266  2.6500000000000D+00  0.0000000000000D+00  0.0000000000000D+00
267  2.6600000000000D+00  0.0000000000000D+00  0.0000000000000D+00
268  2.6700000000000D+00  0.0000000000000D+00  0.0000000000000D+00
269  2.6800000000000D+00  0.0000000000000D+00  0.0000000000000D+00
270  2.6900000000000D+00  0.0000000000000D+00  0.0000000000000D+00
271  2.7000000000000D+00  0.0000000000000D+00  0.0000000000000D+00
272  2.7100000000000D+00  0.0000000000000D+00  0.0000000000000D+00
273  2.7200000000000D+00  0.0000000000000D+00  0.0000000000000D+00
274  2.7300000000000D+00  0.0000000000000D+00  0.0000000000000D+00
275  2.7400000000000D+00  0.0000000000000D+00  0.0000000000000D+00
276  2.7500000000000D+00  0.0000000000000D+00  0.0000000000000D+00
277  2.7600000000000D+00  0.0000000000000D+00  0.0000000000000D+00
278  2.7700000000000D+00  0.0000000000000D+00  0.0000000000000D+00
279  2.7800000000000D+00  0.0000000000000D+00  0.0000000000000D+00
280  2.7900000000000D+00  0.0000000000000D+00  0.0000000000000D+00
281  2.8000000000000D+00  0.0000000000000D+00  0.0000000000000D+00
282  2.8100000000000D+00  0.0000000000000D+00  0.0000000000000D+00
283  2.8200000000000D+00  0.0000000000000D+00  0.0000000000000D+00
284  2.8300000000000D+00  0.0000000000000D+00  0.0000000000000D+00
285  2.8400000000000D+00  0.0000000000000D+00  0.0000000000000D+00
286  2.8500000000000D+00  0.0000000000000D+00  0.0000000000000D+00
287  2.8600000000000D+00  0.0000000000000D+00  0.0000000000000D+00
288  2.8700000000000D+00  0.0000000000000D+00  0.0000000000000D+00
289  2.8800000000000D+00  0.0000000000000D+00  0.0000000000000D+00
290  2.8900000000000D+00  0.0000000000000D+00  0.0000000000000D+00
291  2.9000000000000D+00  0.0000000000000D+00  0.0000000000000D+00
292  2.9100000000000D+00  0.0000000000000D+00  0.0000000000000D+00
293  2.9200000000000D+00  0.0000000000000D+00  0.0000000000000D+00
294  2.9300000000000D+00  0.0000000000000D+00  0.0000000000000D+00
295  2.9400000000000D+00  0.0000000000000D+00  0.0000000000000D+00
296  2.9500000000000D+00  0.0000000000000D+00  0.0000000000000D+00
297  2.9600000000000D+00  0.0000000000000D+00  0.0000000000000D+00
298  2.9700000000000D+00  0.0000000000000D+00  0.0000000000000D+00
299  2.9800000000000D+00  0.0000000000000D+00  0.0000000000000D+00
300  2.9900000000000D+00  0.0000000000000D+00  0.0000000000000D+00
301  3.0000000000000D+00  0.0000000000000D+00  0.0000000000000D+00
302  3.0100000000000D+00  0.0000000000000D+00  0.0000000000000D+00
303  3.0200000000000D+00  0.0000000000000D+00  0.0000000000000D+00
304  3.0300000000000D+00  0.0000000000000D+00  0.0000000000000D+00
305  3.0400000000000D+00  0.0000000000000D+00  0.0000000000000D+00
306  3.0500000000000D+00  0.0000000000000D+00  0.0000000000000D+00
307  3.0600000000000D+00  0.0000000000000D+00  0.0000000000000D+00
308  3.0700000000000D+00  0.0000000000000D+00  0.0000000000000D+00
309  3.0800000000000D+00  0.0000000000000D+00  0.0000000000000D+00
310  3.0900000000000D+00  0.0000000000000D+00  0.0000000000000D+00
311  3.1000000000000D+00  0.0000000000000D+00  0.0000000000000D+00
312  3.1100000000000D+00  0.0000000000000D+00  0.0000000000000D+00
313  3.1200000000000D+00  0.0000000000000D+00  0.0000000000000D+00
314  3.1300000000000D+00  0.0000000000000D+00  0.0000000000000D+00
315  3.1400000000000D+00  0.0000000000000D+00  0.0000000000000D+00
316  3.1500000000000D+00  0.0000000000000D+00  0.0000000000000D+00
317  3.1600000000000D+00  0.0000000000000D+00  0.0000000000000D+00
318  3.1700000000000D+00  0.0000000000000D+00  0.0000000000000D+00
319  3.1800000000000D+00  0.0000000000000D+00  0.0000000000000D+00
320  3.1900000000000D+00  0.0000000000000D+00  0.0000000000000D+00
321  3.2000000000000D+00  0.0000000000000D+00  0.0000000000000D+00
322  3.2100000000000D+00  0.0000000000000D+00  0.0000000000000D+00
323  3.2200000000000D+00  0.0000000000000D+00  0.0000000000000D+00
324  3.2300000000000D+00  0.0000000000000D+00  0.0000000000000D+00
325  3.2400000000000D+00  0.0000000000000D+00  0.0000000000000D+00
326  3.2500000000000D+00  0.0000000000000D+00  0.0000000000000D+00
327  3.2600000000000D+00  0.0000000000000D+00  0.0000000000000D+00
328  3.2700000000000D+00  0.0000000000000D+00  0.0000000000000D+00
329  3.2800000000000D+00  0.0000000000000D+00  0.0000000000000D+00
330  3.2900000000000D+00  0.0000000000000D+00  0.0000000000000D+00
331  3.3000000000000D+00  0.0000000000000D+00  0.0000000000000D+00
332  3.3100000000000D+00  0.0000000000000D+00  0.0000000000000D+00
333  3.3200000000000D+00  0.0000000000000D+00  0.0000000000000D+00
334  3.3300000000000D+00  0.0000000000000D+00  0.0000000000000D+00
335  3.3400000000000D+00  0.0000000000000D+00  0.0000000000000D+00
336  3.3500000000000D+00  0.0000000000000D+00  0.0000000000000D+00
337  3.3600000000000D+00  0.0000000000000D+00  0.0000000000000D+00
338  3.3700000000000D+00  0.0000000000000D+00  0.0000000000000D+00
339  3.3800000000000D+00  0.0000000000000D+00  0.0000000000000D+00
340  3.3900000000000D+00  0.0000000000000D+00  0.0000000000000D+00
341  3.4000000000000D+00  0.0000000000000D+00  0.0000000000000D+00
342  3.4100000000000D+00  0.0000000000000D+00  0.0000000000000D+00
343  3.4200000000000D+00  0.0000000000000D+00  0.0000000000000D+00
344  3.4300000000000D+00  0.0000000000000D+00  0.0000000000000D+00
345  3.4400000000000D+00  0.0000000000000D+00  0.0000000000000D+00
346  3.4500000000000D+00  0.0000000000000D+00  0.0000000000000D+00
347  3.4600000000000D+00  0.0000000000000D+00  0.0000000000000D+00
348  3.4700000000000D+00  0.0000000000000D+00  0.0000000000000D+00
349  3.4800000000000D+00  0.0000000000000D+00  0.0000000000000D+00
350  3.4900000000000D+00  0.0000000000000D+00  0.0000000000000D+00
351  3.5000000000000D+00  0.0000000000000D+00  0.0000000000000D+00
352  3.5100000000000D+00  0.0000000000000D+00  0.0000000000000D+00
353  3.5200000000000D+00  0.0000000000000D+00  0.0000000000000D+00
354  3.5300000000000D+00  0.0000000000000D+00  0.0000000000000D+00
355  3.5400000000000D+00  0.0000000000000D+00  0.0000000000000D+00
356  3.5500000000000D+00  0.0000000000000D+00  0.0000000000000D+00
357  3.5600000000000D+00  0.0000000000000D+00  0.0000000000000D+00
358  3.5700000000000D+00  0.0000000000000D+00  0.0000000000000D+00
359  3.5800000000000D+00  0.0000000000000D+00  0.0000000000000D+00
360  3.5900000000000D+00  0.0000000000000D+00  0.0000000000000D+00
361  3.6000000000000D+00  0.0000000000000D+00  0.0000000000000D+00
362  3.6100000000000D+00  0.0000000000000D+00  0.0000000000000D+00
363  3.6200000000000D+00  0.0000000000000D+00  0.0000000000000D+00
364  3.6300000000000D+00  0.0000000000000D+00  0.0000000000000D+00
365  3.6400000000000D+00  0.0000000000000D+00  0.0000000000000D+00
366  3.6500000000000D+00  0.0000000000000D+00  0.0000000000000D+00
367  3.6600000000000D+00  0.0000000000000D+00  0.0000000000000D+00
368  3.6700000000000D+00  0.0000000000000D+00  0.0000000000000D+00
369  3.6800000000000D+00  0.0000000000000D+00  0.0000000000000D+00
370  3.6900000000000D+00  0.0000000000000D+00  0.0000000000000D+00
371  3.7000000000000D+00  0.0000000000000D+00  0.0000000000000D+00
372  3.7100000000000D+00  0.0000000000000D+00  0.0000000000000D+00
373  3.7200000000000D+00  0.0000000000000D+00  0.0000000000000D+00
374  3.7300000000000D+00  0.0000000000000D+00  0.0000000000000D+00
375  3.7400000000000D+00  0.0000000000000D+00  0.0000000000000D+00
376  3.7500000000000D+00  0.0000000000000D+00  0.0000000000000D+00
377  3.7600000000000D+00  0.0000000000000D+00  0.0000000000000D+00
378  3.7700000000000D+00  0.0000000000000D+00  0.0000000000000D+00
379  3.7800000000000D+00  0.0000000000000D+00  0.0000000000000D+00
380  3.7900000000000D+00  0.0000000000000D+00  0.0000000000000D+00
381  3.8000000000000D+00  0.0000000000000D+00  0.0000000000000D+00
382  3.8100000000000D+00  0.0000000000000D+00  0.0000000000000D+00
383  3.8200000000000D+00  0.0000000000000D+00  0.0000000000000D+00
384  3.8300000000000D+00  0.0000000000000D+00  0.0000000000000D+00
385  3.8400000000000D+00  0.0000000000000D+00  0.0000000000000D+00
386  3.8500000000000D+00  0.0000000000000D+00  0.0000000000000D+00
387  3.8600000000000D+00  0.0000000000000D+00  0.0000000000000D+00
388  3.8700000000000D+00  0.0000000000000D+00  0.0000000000000D+00
389  3.8800000000000D+00  0.0000000000000D+00  0.0000000000000D+00
390  3.8900000000000D+00  0.0000000000000D+00  0.0000000000000D+00
391  3.9000000000000D+00  0.0000000000000D+00  0.0000000000000D+00
392  3.9100000000000D+00  0.0000000000000D+00  0.0000000000000D+00
393  3.9200000000000D+00  0.0000000000000D+00  0.0000000000000D+00
394  3.9300000000000D+00  0.0000000000000D+00  0.0000000000000D+00
395  3.9400000000000D+00  0.0000000000000D+00  0.0000000000000D+00
396  3.9500000000000D+00  0.0000000000000D+00  0.0000000000000D+00
397  3.9600000000000D+00  0.0000000000000D+00  0.0000000000000D+00
398  3.9700000000000D+00  0.0000000000000D+00  0.0000000000000D+00
399  3.9800000000000D+00  0.0000000000000D+00  0.0000000000000D+00
400  3.9900000000000D+00  0.0000000000000D+00  0.0000000000000D+00
401  4.0000000000000D+00  0.0000000000000D+00  0.0000000000000D+00
402  4.0100000000000D+00  0.0000000000000D+00  0.0000000000000D+00
403  4.0200000000000D+00  0.0000000000000D+00  0.0000000000000D+00
404  4.0300000000000D+00  0.0000000000000D+00  0.0000000000000D+00
405  4.0400000000000D+00  0.0000000000000D+00  0.0000000000000D+00
406  4.0500000000000D+00  0.0000000000000D+00  0.0000000000000D+00
407  4.0600000000000D+00  0.0000000000000D+00  0.0000000000000D+00
408  4.0700000000000D+00  0.0000000000000D+00  0.0000000000000D+00
409  4.0800000000000D+00  0.0000000000000D+00  0.0000000000000D+00
410  4.0900000000000D+00  0.0000000000000D+00  0.0000000000000D+00
411  4.1000000000000D+00  0.0000000000000D+00  0.0000000000000D+00
412  4.1100000000000D+00  0.0000000000000D+00  0.0000000000000D+00
413  4.1200000000000D+00  0.0000000000000D+00  0.0000000000000D+00
414  4.1300000000000D+00  0.0000000000000D+00  0.0000000000000D+00
415  4.1400000000000D+00  0.0000000000000D+00  0.0000000000000D+00
416  4.1500000000000D+00  0.0000000000000D+00  0.0000000000000D+00
417  4.1600000000000D+00  0.0000000000000D+00  0.0000000000000D+00
418  4.1700000000000D+00  0.0000000000000D+00  0.0000000000000D+00
419  4.1800000000000D+00  0.0000000000000D+00  0.0000000000000D+00
420  4.1900000000000D+00  0.0000000000000D+00  0.0000000000000D+00
421  4.2000000000000D+00  0.0000000000000D+00  0.0000000000000D+00
422  4.2100000000000D+00  0.0000000000000D+00  0.0000000000000D+00
423  4.2200000000000D+00  0.0000000000000D+00  0.0000000000000D+00
424  4.2300000000000D+00  0.0000000000000D+00  0.0000000000000D+00
425  4.2400000000000D+00  0.0000000000000D+00  0.0000000000000D+00
426  4.2500000000000D+00  0.0000000000000D+00  0.0000000000000D+00
427  4.2600000000000D+00  0.0000000000000D+00  0.0000000000000D+00
428  4.2700000000000D+00  0.0000000000000D+00  0.0000000000000D+00
429  4.2800000000000D+00  0.0000000000000D+00  0.0000000000000D+00
430  4.2900000000000D+00  0.0000000000000D+00  0.0000000000000D+00
431  4.3000000000000D+00  0.0000000000000D+00  0.0000000000000D+00
432  4.3100000000000D+00  0.0000000000000D+00  0.0000000000000D+00
433  4.3200000000000D+00  0.0000000000000D+00  0.0000000000000D+00
434  4.3300000000000D+00  0.0000000000000D+00  0.0000000000000D+00
435  4.3400000000000D+00  0.0000000000000D+00  0.0000000000000D+00
436  4.3500000000000D+00  0.0000000000000D+00  0.0000000000000D+00
437  4.3600000000000D+00  0.0000000000000D+00  0.0000000000000D+00
438  4.3700000000000D+00  0.0000000000000D+00  0.0000000000000D+00
439  4.3800000000000D+00  0.0000000000000D+00  0.0000000000000D+00
440  4.3900000000000D+00  0.0000000000000D+00  0.0000000000000D+00
441  4.4000000000000D+00  0.0000000000000D+00  0.0000000000000D+00
442  4.4100000000000D+00  0.0000000000000D+00  0.0000000000000D+00
443  4.4200000000000D+00  0.0000000000000D+00  0.0000000000000D+00
444  4.4300000000000D+00  0.0000000000000D+00  0.0000000000000D+00