Mn    ONCVPSP  r_core=  1.41  1.21  1.61
25.0000     15.0000      160520    zatom,zion,pspd
8      11   2     4   600     0    pspcod,pspxc,lmax,lloc,mmax,r2well
5.99000000  4.00000000  0.00000000    rchrg fchrg qchrg
2     4     2     0    nproj
3                 extension_switch
4     2     0    nprojso
0                         1.5374296346714D+00  9.1250320351898D+00
1  0.0000000000000D+00 -7.3899977109937D-10  3.8439862404260D-10
2  1.0000000000000D-02  4.0600957827631D-03  7.8030056535576D-02
3  2.0000000000000D-02  8.0804327571404D-03  1.5591659999621D-01
4  3.0000000000000D-02  1.2022605551669D-02  2.3351582310694D-01
5  4.0000000000000D-02  1.5850897567945D-02  3.1068333866869D-01
6  5.0000000000000D-02  1.9533580304044D-02  3.8727391068797D-01
7  6.0000000000000D-02  2.3044159129439D-02  4.6314121054202D-01
8  7.0000000000000D-02  2.6362548535628D-02  5.3813760607008D-01
9  8.0000000000000D-02  2.9476160625687D-02  6.1211399109679D-01
10  9.0000000000000D-02  3.2380891517434D-02  6.8491966241990D-01
11  1.0000000000000D-01  3.5081991410610D-02  7.5640225073580D-01
12  1.1000000000000D-01  3.7594805299224D-02  8.2640771133703D-01
13  1.2000000000000D-01  3.9945372684418D-02  8.9478037970375D-01
14  1.3000000000000D-01  4.2170876149103D-02  9.6136309633038D-01
15  1.4000000000000D-01  4.4319930279079D-02  1.0259974042890D+00
16  1.5000000000000D-01  4.6452704141993D-02  1.0885238221385D+00
17  1.6000000000000D-01  4.8640872349057D-02  1.1487821938535D+00
18  1.7000000000000D-01  5.0967391608361D-02  1.2066121164764D+00
19  1.8000000000000D-01  5.3526101615407D-02  1.2618534452007D+00
20  1.9000000000000D-01  5.6421151097194D-02  1.3143468745842D+00
21  2.0000000000000D-01  5.9766251812790D-02  1.3639345935744D+00
22  2.1000000000000D-01  6.3683765295961D-02  1.4104610110195D+00
23  2.2000000000000D-01  6.8303629084869D-02  1.4537735473405D+00
24  2.3000000000000D-01  7.3762131100372D-02  1.4937234870756D+00
25  2.4000000000000D-01  8.0200542688839D-02  1.5301668860709D+00
26  2.5000000000000D-01  8.7763622618463D-02  1.5629655262088D+00
27  2.6000000000000D-01  9.6598005990542D-02  1.5919879097320D+00
28  2.7000000000000D-01  1.0685049358183D-01  1.6171102844596D+00
29  2.8000000000000D-01  1.1866625855296D-01  1.6382176905004D+00
30  2.9000000000000D-01  1.3218698872482D-01  1.6552050184629D+00
31  3.0000000000000D-01  1.4754898372476D-01  1.6679780686461D+00
32  3.1000000000000D-01  1.6488122722365D-01  1.6764546002786D+00
33  3.2000000000000D-01  1.8430345521006D-01  1.6805653595615D+00
34  3.3000000000000D-01  2.0592424177010D-01  1.6802550750685D+00
35  3.4000000000000D-01  2.2983912414948D-01  1.6754834089679D+00
36  3.5000000000000D-01  2.5612878896318D-01  1.6662258525638D+00
37  3.6000000000000D-01  2.8485734128134D-01  1.6524745548033D+00
38  3.7000000000000D-01  3.1607067795504D-01  1.6342390726676D+00
39  3.8000000000000D-01  3.4979498595218D-01  1.6115470327619D+00
40  3.9000000000000D-01  3.8603538565232D-01  1.5844446939298D+00
41  4.0000000000000D-01  4.2477473800470D-01  1.5529974013521D+00
42  4.1000000000000D-01  4.6597263319169D-01  1.5172899233360D+00
43  4.2000000000000D-01  5.0956457696846D-01  1.4774266628564D+00
44  4.3000000000000D-01  5.5546138918061D-01  1.4335317368686D+00
45  4.4000000000000D-01  6.0354882710625D-01  1.3857489174708D+00
46  4.5000000000000D-01  6.5368744424491D-01  1.3342414301320D+00
47  4.6000000000000D-01  7.0571269299706D-01  1.2791916054266D+00
48  4.7000000000000D-01  7.5943527736746D-01  1.2208003820016D+00
49  4.8000000000000D-01  8.1464175940032D-01  1.1592866598490D+00
50  4.9000000000000D-01  8.7109542054116D-01  1.0948865043416D+00
51  5.0000000000000D-01  9.2853737653869D-01  1.0278522029110D+00
52  5.1000000000000D-01  9.8668794187939D-01  9.5845117768096D-01
53  5.2000000000000D-01  1.0452482371111D+00  8.8696475880794D-01
54  5.3000000000000D-01  1.1039020297894D+00  8.1368682470701D-01
55  5.4000000000000D-01  1.1623177971957D+00  7.3892231674237D-01
56  5.5000000000000D-01  1.2201509964600D+00  6.6298563732007D-01
57  5.6000000000000D-01  1.2770465253006D+00  5.8619894162358D-01
58  5.7000000000000D-01  1.3326413542930D+00  5.0889033446725D-01
59  5.8000000000000D-01  1.3865673094297D+00  4.3139198488839D-01
60  5.9000000000000D-01  1.4384539817550D+00  3.5403817215328D-01
61  6.0000000000000D-01  1.4879317390815D+00  2.7716327778841D-01
62  6.1000000000000D-01  1.5346348132337D+00  2.0109973907017D-01
63  6.2000000000000D-01  1.5782044349491D+00  1.2617598008751D-01
64  6.3000000000000D-01  1.6182919875073D+00  5.2714337036151D-02
65  6.4000000000000D-01  1.6545621493754D+00 -1.8971005207365D-02
66  6.5000000000000D-01  1.6866959956655D+00 -8.8576047951008D-02
67  6.6000000000000D-01  1.7143940280042D+00 -1.5580896764151D-01
68  6.7000000000000D-01  1.7373791025302D+00 -2.2039204165642D-01
69  6.8000000000000D-01  1.7553992261573D+00 -2.8206349394904D-01
70  6.9000000000000D-01  1.7682301919809D+00 -3.4057924399962D-01
71  7.0000000000000D-01  1.7756780257528D+00 -3.9571454313152D-01
72  7.1000000000000D-01  1.7775812167060D+00 -4.4726548302254D-01
73  7.2000000000000D-01  1.7738127076519D+00 -4.9505036216926D-01
74  7.3000000000000D-01  1.7642816212161D+00 -5.3891089714832D-01
75  7.4000000000000D-01  1.7489347012707D+00 -5.7871326674585D-01
76  7.5000000000000D-01  1.7277574510770D+00 -6.1434897838710D-01
77  7.6000000000000D-01  1.7007749523236D+00 -6.4573554778240D-01
78  7.7000000000000D-01  1.6680523521285D+00 -6.7281698429908D-01
79  7.8000000000000D-01  1.6296950081228D+00 -6.9556407625395D-01
80  7.9000000000000D-01  1.5858482849310D+00 -7.1397447208321D-01
81  8.0000000000000D-01  1.5366969986794D+00 -7.2807255517574D-01
82  8.1000000000000D-01  1.4824645095477D+00 -7.3790911201761D-01
83  8.2000000000000D-01  1.4234114658146D+00 -7.4356079518807D-01
84  8.3000000000000D-01  1.3598342062909D+00 -7.4512938464092D-01
85  8.4000000000000D-01  1.2920628314432D+00 -7.4274085258425D-01
86  8.5000000000000D-01  1.2204589568624D+00 -7.3654423911467D-01
87  8.6000000000000D-01  1.1454131659693D+00 -7.2671034755055D-01
88  8.7000000000000D-01  1.0673421819593D+00 -7.1343027012279D-01
89  8.8000000000000D-01  9.8668578191513D-01 -6.9691375630215D-01
90  8.9000000000000D-01  9.0390347874150D-01 -6.7738743755181D-01
91  9.0000000000000D-01  8.1947099905516D-01 -6.5509292367475D-01
92  9.1000000000000D-01  7.3387658737955D-01 -6.3028478716265D-01
93  9.2000000000000D-01  6.4761716890740D-01 -6.0322845303155D-01
94  9.3000000000000D-01  5.6119440469113D-01 -5.7419801253633D-01
95  9.4000000000000D-01  4.7511067437572D-01 -5.4347397988125D-01
96  9.5000000000000D-01  3.8986502247982D-01 -5.1134101157423D-01
97  9.6000000000000D-01  3.0594910475989D-01 -4.7808560840878D-01
98  9.7000000000000D-01  2.2384317133210D-01 -4.4399382018674D-01
99  9.8000000000000D-01  1.4401212297985D-01 -4.0934897321629D-01
100  9.9000000000000D-01  6.6901676444546D-02 -3.7442944033565D-01
101  1.0000000000000D+00 -7.0653265198892D-03 -3.3950647272198D-01
102  1.0100000000000D+00 -7.7492432930673D-02 -3.0484211205775D-01
103  1.0200000000000D+00 -1.4401288361195D-01 -2.7068720070993D-01
104  1.0300000000000D+00 -2.0629267989303D-01 -2.3727950655779D-01
105  1.0400000000000D+00 -2.6403338490645D-01 -2.0484197780479D-01
106  1.0500000000000D+00 -3.1697463513605D-01 -1.7358114170563D-01
107  1.0600000000000D+00 -3.6489634084354D-01 -1.4368565959146D-01
108  1.0700000000000D+00 -4.0762055731894D-01 -1.1532504884612D-01
109  1.0800000000000D+00 -4.4501301235207D-01 -8.8648580679985D-02
110  1.0900000000000D+00 -4.7698427876363D-01 -6.3784360743216D-02
111  1.1000000000000D+00 -5.0349058498544D-01 -4.0838597437134D-02
112  1.1100000000000D+00 -5.2453426017904D-01 -1.9895060937277D-02
113  1.1200000000000D+00 -5.4016381473170D-01 -1.0147336427492D-03
114  1.1300000000000D+00 -5.5047366011584D-01  1.5764348898749D-02
115  1.1400000000000D+00 -5.5560347688384D-01  3.0427070081071D-02
116  1.1500000000000D+00 -5.5573724279113D-01  4.2981022550905D-02
117  1.1600000000000D+00 -5.5110193722644D-01  5.3456124182258D-02
118  1.1700000000000D+00 -5.4196594493316D-01  6.1904070273780D-02
119  1.1800000000000D+00 -5.2863715456652D-01  6.8397621763288D-02
120  1.1900000000000D+00 -5.1146089750342D-01  7.3029791952723D-02
121  1.2000000000000D+00 -4.9081715405375D-01  7.5912694157344D-02
122  1.2100000000000D+00 -4.6711936873484D-01  7.7177029229729D-02
123  1.2200000000000D+00 -4.4080860056470D-01  7.6969611519767D-02
124  1.2300000000000D+00 -4.1234269514047D-01  7.5448793402595D-02
125  1.2400000000000D+00 -3.8218504013367D-01  7.2779525409122D-02
126  1.2500000000000D+00 -3.5079795792015D-01  6.9130267388939D-02
127  1.2600000000000D+00 -3.1864007265555D-01  6.4671491353664D-02
128  1.2700000000000D+00 -2.8616186011067D-01  5.9573452258309D-02
129  1.2800000000000D+00 -2.5380183722010D-01  5.4004214941565D-02
130  1.2900000000000D+00 -2.2198272201529D-01  4.8127674862244D-02
131  1.3000000000000D+00 -1.9110776802024D-01  4.2101659198073D-02
132  1.3100000000000D+00 -1.6155726352107D-01  3.6076108652857D-02
133  1.3200000000000D+00 -1.3368523447984D-01  3.0191359633406D-02
134  1.3300000000000D+00 -1.0781638731092D-01  2.4576545651147D-02
135  1.3400000000000D+00 -8.4243316698182D-02  1.9348131522384D-02
136  1.3500000000000D+00 -6.3224004237339D-02  1.4608593984379D-02
137  1.3600000000000D+00 -4.4979635969116D-02  1.0445263494797D-02
138  1.3700000000000D+00 -2.9702574505441D-02  6.9316793380758D-03
139  1.3800000000000D+00 -1.7497373115759D-02  4.1129670693823D-03
140  1.3900000000000D+00 -8.4568000396576D-03  2.0234632420949D-03
141  1.4000000000000D+00 -2.9270850523739D-03  7.5501316654852D-04
142  1.4100000000000D+00 -5.0640727582084D-04  1.9997618619236D-04
143  1.4200000000000D+00  8.6510963972065D-05  2.5807247713770D-05
144  1.4300000000000D+00 -5.4831127225719D-06 -3.3237943727376D-08
145  1.4400000000000D+00 -4.0950989864164D-05  2.2072320566804D-06
146  1.4500000000000D+00  4.4238920763495D-06  2.4420790200232D-07
147  1.4600000000000D+00  4.6030184532884D-06  8.6960958821047D-08
148  1.4700000000000D+00  6.3440569954997D-07 -3.5299780731680D-07
149  1.4800000000000D+00  1.7571846123417D-07 -9.7773761434907D-08
150  1.4900000000000D+00  0.0000000000000D+00  0.0000000000000D+00
151  1.5000000000000D+00  0.0000000000000D+00  0.0000000000000D+00
152  1.5100000000000D+00  0.0000000000000D+00  0.0000000000000D+00
153  1.5200000000000D+00  0.0000000000000D+00  0.0000000000000D+00
154  1.5300000000000D+00  0.0000000000000D+00  0.0000000000000D+00
155  1.5400000000000D+00  0.0000000000000D+00  0.0000000000000D+00
156  1.5500000000000D+00  0.0000000000000D+00  0.0000000000000D+00
157  1.5600000000000D+00  0.0000000000000D+00  0.0000000000000D+00
158  1.5700000000000D+00  0.0000000000000D+00  0.0000000000000D+00
159  1.5800000000000D+00  0.0000000000000D+00  0.0000000000000D+00
160  1.5900000000000D+00  0.0000000000000D+00  0.0000000000000D+00
161  1.6000000000000D+00  0.0000000000000D+00  0.0000000000000D+00
162  1.6100000000000D+00  0.0000000000000D+00  0.0000000000000D+00
163  1.6200000000000D+00  0.0000000000000D+00  0.0000000000000D+00
164  1.6300000000000D+00  0.0000000000000D+00  0.0000000000000D+00
165  1.6400000000000D+00  0.0000000000000D+00  0.0000000000000D+00
166  1.6500000000000D+00  0.0000000000000D+00  0.0000000000000D+00
167  1.6600000000000D+00  0.0000000000000D+00  0.0000000000000D+00
168  1.6700000000000D+00  0.0000000000000D+00  0.0000000000000D+00
169  1.6800000000000D+00  0.0000000000000D+00  0.0000000000000D+00
170  1.6900000000000D+00  0.0000000000000D+00  0.0000000000000D+00
171  1.7000000000000D+00  0.0000000000000D+00  0.0000000000000D+00
172  1.7100000000000D+00  0.0000000000000D+00  0.0000000000000D+00
173  1.7200000000000D+00  0.0000000000000D+00  0.0000000000000D+00
174  1.7300000000000D+00  0.0000000000000D+00  0.0000000000000D+00
175  1.7400000000000D+00  0.0000000000000D+00  0.0000000000000D+00
176  1.7500000000000D+00  0.0000000000000D+00  0.0000000000000D+00
177  1.7600000000000D+00  0.0000000000000D+00  0.0000000000000D+00
178  1.7700000000000D+00  0.0000000000000D+00  0.0000000000000D+00
179  1.7800000000000D+00  0.0000000000000D+00  0.0000000000000D+00
180  1.7900000000000D+00  0.0000000000000D+00  0.0000000000000D+00
181  1.8000000000000D+00  0.0000000000000D+00  0.0000000000000D+00
182  1.8100000000000D+00  0.0000000000000D+00  0.0000000000000D+00
183  1.8200000000000D+00  0.0000000000000D+00  0.0000000000000D+00
184  1.8300000000000D+00  0.0000000000000D+00  0.0000000000000D+00
185  1.8400000000000D+00  0.0000000000000D+00  0.0000000000000D+00
186  1.8500000000000D+00  0.0000000000000D+00  0.0000000000000D+00
187  1.8600000000000D+00  0.0000000000000D+00  0.0000000000000D+00
188  1.8700000000000D+00  0.0000000000000D+00  0.0000000000000D+00
189  1.8800000000000D+00  0.0000000000000D+00  0.0000000000000D+00
190  1.8900000000000D+00  0.0000000000000D+00  0.0000000000000D+00
191  1.9000000000000D+00  0.0000000000000D+00  0.0000000000000D+00
192  1.9100000000000D+00  0.0000000000000D+00  0.0000000000000D+00
193  1.9200000000000D+00  0.0000000000000D+00  0.0000000000000D+00
194  1.9300000000000D+00  0.0000000000000D+00  0.0000000000000D+00
195  1.9400000000000D+00  0.0000000000000D+00  0.0000000000000D+00
196  1.9500000000000D+00  0.0000000000000D+00  0.0000000000000D+00
197  1.9600000000000D+00  0.0000000000000D+00  0.0000000000000D+00
198  1.9700000000000D+00  0.0000000000000D+00  0.0000000000000D+00
199  1.9800000000000D+00  0.0000000000000D+00  0.0000000000000D+00
200  1.9900000000000D+00  0.0000000000000D+00  0.0000000000000D+00
201  2.0000000000000D+00  0.0000000000000D+00  0.0000000000000D+00
202  2.0100000000000D+00  0.0000000000000D+00  0.0000000000000D+00
203  2.0200000000000D+00  0.0000000000000D+00  0.0000000000000D+00
204  2.0300000000000D+00  0.0000000000000D+00  0.0000000000000D+00
205  2.0400000000000D+00  0.0000000000000D+00  0.0000000000000D+00
206  2.0500000000000D+00  0.0000000000000D+00  0.0000000000000D+00
207  2.0600000000000D+00  0.0000000000000D+00  0.0000000000000D+00
208  2.0700000000000D+00  0.0000000000000D+00  0.0000000000000D+00
209  2.0800000000000D+00  0.0000000000000D+00  0.0000000000000D+00
210  2.0900000000000D+00  0.0000000000000D+00  0.0000000000000D+00
211  2.1000000000000D+00  0.0000000000000D+00  0.0000000000000D+00
212  2.1100000000000D+00  0.0000000000000D+00  0.0000000000000D+00
213  2.1200000000000D+00  0.0000000000000D+00  0.0000000000000D+00
214  2.1300000000000D+00  0.0000000000000D+00  0.0000000000000D+00
215  2.1400000000000D+00  0.0000000000000D+00  0.0000000000000D+00
216  2.1500000000000D+00  0.0000000000000D+00  0.0000000000000D+00
217  2.1600000000000D+00  0.0000000000000D+00  0.0000000000000D+00
218  2.1700000000000D+00  0.0000000000000D+00  0.0000000000000D+00
219  2.1800000000000D+00  0.0000000000000D+00  0.0000000000000D+00
220  2.1900000000000D+00  0.0000000000000D+00  0.0000000000000D+00
221  2.2000000000000D+00  0.0000000000000D+00  0.0000000000000D+00
222  2.2100000000000D+00  0.0000000000000D+00  0.0000000000000D+00
223  2.2200000000000D+00  0.0000000000000D+00  0.0000000000000D+00
224  2.2300000000000D+00  0.0000000000000D+00  0.0000000000000D+00
225  2.2400000000000D+00  0.0000000000000D+00  0.0000000000000D+00
226  2.2500000000000D+00  0.0000000000000D+00  0.0000000000000D+00
227  2.2600000000000D+00  0.0000000000000D+00  0.0000000000000D+00
228  2.2700000000000D+00  0.0000000000000D+00  0.0000000000000D+00
229  2.2800000000000D+00  0.0000000000000D+00  0.0000000000000D+00
230  2.2900000000000D+00  0.0000000000000D+00  0.0000000000000D+00
231  2.3000000000000D+00  0.0000000000000D+00  0.0000000000000D+00
232  2.3100000000000D+00  0.0000000000000D+00  0.0000000000000D+00
233  2.3200000000000D+00  0.0000000000000D+00  0.0000000000000D+00
234  2.3300000000000D+00  0.0000000000000D+00  0.0000000000000D+00
235  2.3400000000000D+00  0.0000000000000D+00  0.0000000000000D+00
236  2.3500000000000D+00  0.0000000000000D+00  0.0000000000000D+00
237  2.3600000000000D+00  0.0000000000000D+00  0.0000000000000D+00
238  2.3700000000000D+00  0.0000000000000D+00  0.0000000000000D+00
239  2.3800000000000D+00  0.0000000000000D+00  0.0000000000000D+00
240  2.3900000000000D+00  0.0000000000000D+00  0.0000000000000D+00
241  2.4000000000000D+00  0.0000000000000D+00  0.0000000000000D+00
242  2.4100000000000D+00  0.0000000000000D+00  0.0000000000000D+00
243  2.4200000000000D+00  0.0000000000000D+00  0.0000000000000D+00
244  2.4300000000000D+00  0.0000000000000D+00  0.0000000000000D+00
245  2.4400000000000D+00  0.0000000000000D+00  0.0000000000000D+00
246  2.4500000000000D+00  0.0000000000000D+00  0.0000000000000D+00
247  2.4600000000000D+00  0.0000000000000D+00  0.0000000000000D+00
248  2.4700000000000D+00  0.0000000000000D+00  0.0000000000000D+00
249  2.4800000000000D+00  0.0000000000000D+00  0.0000000000000D+00
250  2.4900000000000D+00  0.0000000000000D+00  0.0000000000000D+00
251  2.5000000000000D+00  0.0000000000000D+00  0.0000000000000D+00
252  2.5100000000000D+00  0.0000000000000D+00  0.0000000000000D+00
253  2.5200000000000D+00  0.0000000000000D+00  0.0000000000000D+00
254  2.5300000000000D+00  0.0000000000000D+00  0.0000000000000D+00
255  2.5400000000000D+00  0.0000000000000D+00  0.0000000000000D+00
256  2.5500000000000D+00  0.0000000000000D+00  0.0000000000000D+00
257  2.5600000000000D+00  0.0000000000000D+00  0.0000000000000D+00
258  2.5700000000000D+00  0.0000000000000D+00  0.0000000000000D+00
259  2.5800000000000D+00  0.0000000000000D+00  0.0000000000000D+00
260  2.5900000000000D+00  0.0000000000000D+00  0.0000000000000D+00
261  2.6000000000000D+00  0.0000000000000D+00  0.0000000000000D+00
262  2.6100000000000D+00  0.0000000000000D+00  0.0000000000000D+00
263  2.6200000000000D+00  0.0000000000000D+00  0.0000000000000D+00
264  2.6300000000000D+00  0.0000000000000D+00  0.0000000000000D+00
265  2.6400000000000D+00  0.0000000000000D+00  0.0000000000000D+00
266  2.6500000000000D+00  0.0000000000000D+00  0.0000000000000D+00
267  2.6600000000000D+00  0.0000000000000D+00  0.0000000000000D+00
268  2.6700000000000D+00  0.0000000000000D+00  0.0000000000000D+00
269  2.6800000000000D+00  0.0000000000000D+00  0.0000000000000D+00
270  2.6900000000000D+00  0.0000000000000D+00  0.0000000000000D+00
271  2.7000000000000D+00  0.0000000000000D+00  0.0000000000000D+00
272  2.7100000000000D+00  0.0000000000000D+00  0.0000000000000D+00
273  2.7200000000000D+00  0.0000000000000D+00  0.0000000000000D+00
274  2.7300000000000D+00  0.0000000000000D+00  0.0000000000000D+00
275  2.7400000000000D+00  0.0000000000000D+00  0.0000000000000D+00
276  2.7500000000000D+00  0.0000000000000D+00  0.0000000000000D+00
277  2.7600000000000D+00  0.0000000000000D+00  0.0000000000000D+00
278  2.7700000000000D+00  0.0000000000000D+00  0.0000000000000D+00
279  2.7800000000000D+00  0.0000000000000D+00  0.0000000000000D+00
280  2.7900000000000D+00  0.0000000000000D+00  0.0000000000000D+00
281  2.8000000000000D+00  0.0000000000000D+00  0.0000000000000D+00
282  2.8100000000000D+00  0.0000000000000D+00  0.0000000000000D+00
283  2.8200000000000D+00  0.0000000000000D+00  0.0000000000000D+00
284  2.8300000000000D+00  0.0000000000000D+00  0.0000000000000D+00
285  2.8400000000000D+00  0.0000000000000D+00  0.0000000000000D+00
286  2.8500000000000D+00  0.0000000000000D+00  0.0000000000000D+00
287  2.8600000000000D+00  0.0000000000000D+00  0.0000000000000D+00
288  2.8700000000000D+00  0.0000000000000D+00  0.0000000000000D+00
289  2.8800000000000D+00  0.0000000000000D+00  0.0000000000000D+00
290  2.8900000000000D+00  0.0000000000000D+00  0.0000000000000D+00
291  2.9000000000000D+00  0.0000000000000D+00  0.0000000000000D+00
292  2.9100000000000D+00  0.0000000000000D+00  0.0000000000000D+00
293  2.9200000000000D+00  0.0000000000000D+00  0.0000000000000D+00
294  2.9300000000000D+00  0.0000000000000D+00  0.0000000000000D+00
295  2.9400000000000D+00  0.0000000000000D+00  0.0000000000000D+00
296  2.9500000000000D+00  0.0000000000000D+00  0.0000000000000D+00
297  2.9600000000000D+00  0.0000000000000D+00  0.0000000000000D+00
298  2.9700000000000D+00  0.0000000000000D+00  0.0000000000000D+00
299  2.9800000000000D+00  0.0000000000000D+00  0.0000000000000D+00
300  2.9900000000000D+00  0.0000000000000D+00  0.0000000000000D+00
301  3.0000000000000D+00  0.0000000000000D+00  0.0000000000000D+00
302  3.0100000000000D+00  0.0000000000000D+00  0.0000000000000D+00
303  3.0200000000000D+00  0.0000000000000D+00  0.0000000000000D+00
304  3.0300000000000D+00  0.0000000000000D+00  0.0000000000000D+00
305  3.0400000000000D+00  0.0000000000000D+00  0.0000000000000D+00
306  3.0500000000000D+00  0.0000000000000D+00  0.0000000000000D+00
307  3.0600000000000D+00  0.0000000000000D+00  0.0000000000000D+00
308  3.0700000000000D+00  0.0000000000000D+00  0.0000000000000D+00
309  3.0800000000000D+00  0.0000000000000D+00  0.0000000000000D+00
310  3.0900000000000D+00  0.0000000000000D+00  0.0000000000000D+00
311  3.1000000000000D+00  0.0000000000000D+00  0.0000000000000D+00
312  3.1100000000000D+00  0.0000000000000D+00  0.0000000000000D+00
313  3.1200000000000D+00  0.0000000000000D+00  0.0000000000000D+00
314  3.1300000000000D+00  0.0000000000000D+00  0.0000000000000D+00
315  3.1400000000000D+00  0.0000000000000D+00  0.0000000000000D+00
316  3.1500000000000D+00  0.0000000000000D+00  0.0000000000000D+00
317  3.1600000000000D+00  0.0000000000000D+00  0.0000000000000D+00
318  3.1700000000000D+00  0.0000000000000D+00  0.0000000000000D+00
319  3.1800000000000D+00  0.0000000000000D+00  0.0000000000000D+00
320  3.1900000000000D+00  0.0000000000000D+00  0.0000000000000D+00
321  3.2000000000000D+00  0.0000000000000D+00  0.0000000000000D+00
322  3.2100000000000D+00  0.0000000000000D+00  0.0000000000000D+00
323  3.2200000000000D+00  0.0000000000000D+00  0.0000000000000D+00
324  3.2300000000000D+00  0.0000000000000D+00  0.0000000000000D+00
325  3.2400000000000D+00  0.0000000000000D+00  0.0000000000000D+00
326  3.2500000000000D+00  0.0000000000000D+00  0.0000000000000D+00
327  3.2600000000000D+00  0.0000000000000D+00  0.0000000000000D+00
328  3.2700000000000D+00  0.0000000000000D+00  0.0000000000000D+00
329  3.2800000000000D+00  0.0000000000000D+00  0.0000000000000D+00
330  3.2900000000000D+00  0.0000000000000D+00  0.0000000000000D+00
331  3.3000000000000D+00  0.0000000000000D+00  0.0000000000000D+00
332  3.3100000000000D+00  0.0000000000000D+00  0.0000000000000D+00
333  3.3200000000000D+00  0.0000000000000D+00  0.0000000000000D+00
334  3.3300000000000D+00  0.0000000000000D+00  0.0000000000000D+00
335  3.3400000000000D+00  0.0000000000000D+00  0.0000000000000D+00
336  3.3500000000000D+00  0.0000000000000D+00  0.0000000000000D+00
337  3.3600000000000D+00  0.0000000000000D+00  0.0000000000000D+00
338  3.3700000000000D+00  0.0000000000000D+00  0.0000000000000D+00
339  3.3800000000000D+00  0.0000000000000D+00  0.0000000000000D+00
340  3.3900000000000D+00  0.0000000000000D+00  0.0000000000000D+00
341  3.4000000000000D+00  0.0000000000000D+00  0.0000000000000D+00
342  3.4100000000000D+00  0.0000000000000D+00  0.0000000000000D+00
343  3.4200000000000D+00  0.0000000000000D+00  0.0000000000000D+00
344  3.4300000000000D+00  0.0000000000000D+00  0.0000000000000D+00
345  3.4400000000000D+00  0.0000000000000D+00  0.0000000000000D+00
346  3.4500000000000D+00  0.0000000000000D+00  0.0000000000000D+00
347  3.4600000000000D+00  0.0000000000000D+00  0.0000000000000D+00
348  3.4700000000000D+00  0.0000000000000D+00  0.0000000000000D+00
349  3.4800000000000D+00  0.0000000000000D+00  0.0000000000000D+00
350  3.4900000000000D+00  0.0000000000000D+00  0.0000000000000D+00
351  3.5000000000000D+00  0.0000000000000D+00  0.0000000000000D+00
352  3.5100000000000D+00  0.0000000000000D+00  0.0000000000000D+00
353  3.5200000000000D+00  0.0000000000000D+00  0.0000000000000D+00
354  3.5300000000000D+00  0.0000000000000D+00  0.0000000000000D+00
355  3.5400000000000D+00  0.0000000000000D+00  0.0000000000000D+00
356  3.5500000000000D+00  0.0000000000000D+00  0.0000000000000D+00
357  3.5600000000000D+00  0.0000000000000D+00  0.0000000000000D+00
358  3.5700000000000D+00  0.0000000000000D+00  0.0000000000000D+00
359  3.5800000000000D+00  0.0000000000000D+00  0.0000000000000D+00
360  3.5900000000000D+00  0.0000000000000D+00  0.0000000000000D+00
361  3.6000000000000D+00  0.0000000000000D+00  0.0000000000000D+00
362  3.6100000000000D+00  0.0000000000000D+00  0.0000000000000D+00
363  3.6200000000000D+00  0.0000000000000D+00  0.0000000000000D+00
364  3.6300000000000D+00  0.0000000000000D+00  0.0000000000000D+00
365  3.6400000000000D+00  0.0000000000000D+00  0.0000000000000D+00
366  3.6500000000000D+00  0.0000000000000D+00  0.0000000000000D+00
367  3.6600000000000D+00  0.0000000000000D+00  0.0000000000000D+00
368  3.6700000000000D+00  0.0000000000000D+00  0.0000000000000D+00
369  3.6800000000000D+00  0.0000000000000D+00  0.0000000000000D+00
370  3.6900000000000D+00  0.0000000000000D+00  0.0000000000000D+00
371  3.7000000000000D+00  0.0000000000000D+00  0.0000000000000D+00
372  3.7100000000000D+00  0.0000000000000D+00  0.0000000000000D+00
373  3.7200000000000D+00  0.0000000000000D+00  0.0000000000000D+00
374  3.7300000000000D+00  0.0000000000000D+00  0.0000000000000D+00
375  3.7400000000000D+00  0.0000000000000D+00  0.0000000000000D+00
376  3.7500000000000D+00  0.0000000000000D+00  0.0000000000000D+00
377  3.7600000000000D+00  0.0000000000000D+00  0.0000000000000D+00
378  3.7700000000000D+00  0.0000000000000D+00  0.0000000000000D+00
379  3.7800000000000D+00  0.0000000000000D+00  0.0000000000000D+00
380  3.7900000000000D+00  0.0000000000000D+00  0.0000000000000D+00
381  3.8000000000000D+00  0.0000000000000D+00  0.0000000000000D+00
382  3.8100000000000D+00  0.0000000000000D+00  0.0000000000000D+00
383  3.8200000000000D+00  0.0000000000000D+00  0.0000000000000D+00
384  3.8300000000000D+00  0.0000000000000D+00  0.0000000000000D+00
385  3.8400000000000D+00  0.0000000000000D+00  0.0000000000000D+00
386  3.8500000000000D+00  0.0000000000000D+00  0.0000000000000D+00
387  3.8600000000000D+00  0.0000000000000D+00  0.0000000000000D+00
388  3.8700000000000D+00  0.0000000000000D+00  0.0000000000000D+00
389  3.8800000000000D+00  0.0000000000000D+00  0.0000000000000D+00
390  3.8900000000000D+00  0.0000000000000D+00  0.0000000000000D+00
391  3.9000000000000D+00  0.0000000000000D+00  0.0000000000000D+00
392  3.9100000000000D+00  0.0000000000000D+00  0.0000000000000D+00
393  3.9200000000000D+00  0.0000000000000D+00  0.0000000000000D+00
394  3.9300000000000D+00  0.0000000000000D+00  0.0000000000000D+00
395  3.9400000000000D+00  0.0000000000000D+00  0.0000000000000D+00
396  3.9500000000000D+00  0.0000000000000D+00  0.0000000000000D+00
397  3.9600000000000D+00  0.0000000000000D+00  0.0000000000000D+00
398  3.9700000000000D+00  0.0000000000000D+00  0.0000000000000D+00
399  3.9800000000000D+00  0.0000000000000D+00  0.0000000000000D+00
400  3.9900000000000D+00  0.0000000000000D+00  0.0000000000000D+00
401  4.0000000000000D+00  0.0000000000000D+00  0.0000000000000D+00
402  4.0100000000000D+00  0.0000000000000D+00  0.0000000000000D+00
403  4.0200000000000D+00  0.0000000000000D+00  0.0000000000000D+00
404  4.0300000000000D+00  0.0000000000000D+00  0.0000000000000D+00
405  4.0400000000000D+00  0.0000000000000D+00  0.0000000000000D+00
406  4.0500000000000D+00  0.0000000000000D+00  0.0000000000000D+00
407  4.0600000000000D+00  0.0000000000000D+00  0.0000000000000D+00
408  4.0700000000000D+00  0.0000000000000D+00  0.0000000000000D+00
409  4.0800000000000D+00  0.0000000000000D+00  0.0000000000000D+00
410  4.0900000000000D+00  0.0000000000000D+00  0.0000000000000D+00
411  4.1000000000000D+00  0.0000000000000D+00  0.0000000000000D+00
412  4.1100000000000D+00  0.0000000000000D+00  0.0000000000000D+00
413  4.1200000000000D+00  0.0000000000000D+00  0.0000000000000D+00
414  4.1300000000000D+00  0.0000000000000D+00  0.0000000000000D+00
415  4.1400000000000D+00  0.0000000000000D+00  0.0000000000000D+00
416  4.1500000000000D+00  0.0000000000000D+00  0.0000000000000D+00
417  4.1600000000000D+00  0.0000000000000D+00  0.0000000000000D+00
418  4.1700000000000D+00  0.0000000000000D+00  0.0000000000000D+00
419  4.1800000000000D+00  0.0000000000000D+00  0.0000000000000D+00
420  4.1900000000000D+00  0.0000000000000D+00  0.0000000000000D+00
421  4.2000000000000D+00  0.0000000000000D+00  0.0000000000000D+00
422  4.2100000000000D+00  0.0000000000000D+00  0.0000000000000D+00
423  4.2200000000000D+00  0.0000000000000D+00  0.0000000000000D+00
424  4.2300000000000D+00  0.0000000000000D+00  0.0000000000000D+00
425  4.2400000000000D+00  0.0000000000000D+00  0.0000000000000D+00
426  4.2500000000000D+00  0.0000000000000D+00  0.0000000000000D+00
427  4.2600000000000D+00  0.0000000000000D+00  0.0000000000000D+00
428  4.2700000000000D+00  0.0000000000000D+00  0.0000000000000D+00
429  4.2800000000000D+00  0.0000000000000D+00  0.0000000000000D+00
430  4.2900000000000D+00  0.0000000000000D+00  0.0000000000000D+00
431  4.3000000000000D+00  0.0000000000000D+00  0.0000000000000D+00
432  4.3100000000000D+00  0.0000000000000D+00  0.0000000000000D+00
433  4.3200000000000D+00  0.0000000000000D+00  0.0000000000000D+00
434  4.3300000000000D+00  0.0000000000000D+00  0.0000000000000D+00
435  4.3400000000000D+00  0.0000000000000D+00  0.0000000000000D+00
436  4.3500000000000D+00  0.0000000000000D+00  0.0000000000000D+00
437  4.3600000000000D+00  0.0000000000000D+00  0.0000000000000D+00
438  4.3700000000000D+00  0.0000000000000D+00  0.0000000000000D+00
439  4.3800000000000D+00  0.0000000000000D+00  0.0000000000000D+00
440  4.3900000000000D+00  0.0000000000000D+00  0.0000000000000D+00
441  4.4000000000000D+00  0.0000000000000D+00  0.0000000000000D+00
442  4.4100000000000D+00  0.0000000000000D+00  0.0000000000000D+00
443  4.4200000000000D+00  0.0000000000000D+00  0.0000000000000D+00