Al    ONCVPSP  r_core=  1.77  1.77  1.71
13.0000      3.0000      161003    zatom,zion,pspd
8 -116133   2     4   600     0    pspcod,pspxc,lmax,lloc,mmax,r2well
5.99000000  5.00000000  0.00000000    rchrg fchrg qchrg
2     2     2     0     0    nproj
1                 extension_switch
0                         5.8885346987715D+00  7.3482507924401D-01
1  0.0000000000000D+00 -1.1002704580765D-09  2.7990703227454D-09
2  1.0000000000000D-02  2.5022788120938D-02 -1.3506375979135D-02
3  2.0000000000000D-02  4.9956734524280D-02 -2.6778566875768D-02
4  3.0000000000000D-02  7.4714385592297D-02 -3.9585991845085D-02
5  4.0000000000000D-02  9.9211043506177D-02 -5.1705226480633D-02
6  5.0000000000000D-02  1.2336609342806D-01 -6.2923451665119D-02
7  6.0000000000000D-02  1.4710427061535D-01 -7.3041749196963D-02
8  7.0000000000000D-02  1.7035684875519D-01 -8.1878196451618D-02
9  8.0000000000000D-02  1.9306273190722D-01 -8.9270715135710D-02
10  9.0000000000000D-02  2.1516943378994D-01 -9.5079632619070D-02
11  1.0000000000000D-01  2.3663392972141D-01 -9.9189918337814D-02
12  1.1000000000000D-01  2.5742336830789D-01 -1.0151306229660D-01
13  1.2000000000000D-01  2.7751563193912D-01 -1.0198856769785D-01
14  1.3000000000000D-01  2.9689973727073D-01 -1.0058503512262D-01
15  1.4000000000000D-01  3.1557606912254D-01 -9.7300821407691D-02
16  1.5000000000000D-01  3.3355644356662D-01 -9.2164262328555D-02
17  1.6000000000000D-01  3.5086399838819D-01 -8.5233454327063D-02
18  1.7000000000000D-01  3.6753291154331D-01 -7.6595596730838D-02
19  1.8000000000000D-01  3.8360795067574D-01 -6.6365902114937D-02
20  1.9000000000000D-01  3.9914385915846D-01 -5.4686088568728D-02
21  2.0000000000000D-01  4.1420458645956D-01 -4.1722473568747D-02
22  2.1000000000000D-01  4.2886237286567D-01 -2.7663694839117D-02
23  2.2000000000000D-01  4.4319670069755D-01 -1.2718088926516D-02
24  2.3000000000000D-01  4.5729312609251D-01  2.8892368481345D-03
25  2.4000000000000D-01  4.7124200718080D-01  1.8919598942435D-02
26  2.5000000000000D-01  4.8513714602167D-01  3.5124154616531D-02
27  2.6000000000000D-01  4.9907436296950D-01  5.1247494077217D-02
28  2.7000000000000D-01  5.1315002319073D-01  6.7031357718528D-02
29  2.8000000000000D-01  5.2745953583483D-01  8.2218426445683D-02
30  2.9000000000000D-01  5.4209584686306D-01  9.6556131794144D-02
31  3.0000000000000D-01  5.5714794675222D-01  1.0980043201334D-01
32  3.1000000000000D-01  5.7269941421043D-01  1.2171950048699D-01
33  3.2000000000000D-01  5.8882701666904D-01  1.3209727380827D-01
34  3.3000000000000D-01  6.0559938765367D-01  1.4073680850927D-01
35  3.4000000000000D-01  6.2307580019435D-01  1.4746339783911D-01
36  3.5000000000000D-01  6.4130505422259D-01  1.5212740306522D-01
37  3.6000000000000D-01  6.6032449443714D-01  1.5460675749857D-01
38  3.7000000000000D-01  6.8015917341841D-01  1.5480910576570D-01
39  3.8000000000000D-01  7.0082117285745D-01  1.5267354571539D-01
40  3.9000000000000D-01  7.2230909366223D-01  1.4817194568881D-01
41  4.0000000000000D-01  7.4460772344249D-01  1.4130981562845D-01
42  4.1000000000000D-01  7.6768788748111D-01  1.3212671657818D-01
43  4.2000000000000D-01  7.9150648681049D-01  1.2069619945036D-01
44  4.3000000000000D-01  8.1600672445752D-01  1.0712527042224D-01
45  4.4000000000000D-01  8.4111851833709D-01  9.1553386884065D-02
46  4.5000000000000D-01  8.6675909669513D-01  7.4150994406350D-02
47  4.6000000000000D-01  8.9283376946503D-01  5.5117621632945D-02
48  4.7000000000000D-01  9.1923686643903D-01  3.4679556252391D-02
49  4.8000000000000D-01  9.4585283080484D-01  1.3087131163576D-02
50  4.9000000000000D-01  9.7255745438830D-01 -9.3883444474386D-03
51  5.0000000000000D-01  9.9921923890830D-01 -3.2457969247622D-02
52  5.1000000000000D-01  1.0257008657173D+00 -5.5818904601838D-02
53  5.2000000000000D-01  1.0518607548978D+00 -7.9158251554767D-02
54  5.3000000000000D-01  1.0775546932347D+00 -1.0215709797064D-01
55  5.4000000000000D-01  1.1026375095049D+00 -1.2449468113205D-01
56  5.5000000000000D-01  1.1269647747354D+00 -1.4585260911742D-01
57  5.6000000000000D-01  1.1503945045964D+00 -1.6591908306187D-01
58  5.7000000000000D-01  1.1727888409159D+00 -1.8439306198261D-01
59  5.8000000000000D-01  1.1940156894407D+00 -2.0098831222376D-01
60  5.9000000000000D-01  1.2139502914240D+00 -2.1543728475836D-01
61  6.0000000000000D-01  1.2324767073789D+00 -2.2749476554581D-01
62  6.1000000000000D-01  1.2494891924094D+00 -2.3694124689480D-01
63  6.2000000000000D-01  1.2648934438805D+00 -2.4358597123821D-01
64  6.3000000000000D-01  1.2786077038271D+00 -2.4726960291940D-01
65  6.4000000000000D-01  1.2905637003781D+00 -2.4786648838868D-01
66  6.5000000000000D-01  1.3007074145881D+00 -2.4528647060528D-01
67  6.6000000000000D-01  1.3089996613859D+00 -2.3947622936347D-01
68  6.7000000000000D-01  1.3154164758339D+00 -2.3042012559080D-01
69  6.8000000000000D-01  1.3199492985150D+00 -2.1814053436304D-01
70  6.9000000000000D-01  1.3226049566021D+00 -2.0269765835275D-01
71  7.0000000000000D-01  1.3234054399574D+00 -1.8418882054972D-01
72  7.1000000000000D-01  1.3223874744346D+00 -1.6274724228558D-01
73  7.2000000000000D-01  1.3196018973796D+00 -1.3854031978116D-01
74  7.3000000000000D-01  1.3151128430960D+00 -1.1176741949291D-01
75  7.4000000000000D-01  1.3089967487269D+00 -8.2657219358032D-02
76  7.5000000000000D-01  1.3013411935642D+00 -5.1464629558788D-02
77  7.6000000000000D-01  1.2922435872078D+00 -1.8467332542815D-02
78  7.7000000000000D-01  1.2818097241926D+00  1.6038012371248D-02
79  7.8000000000000D-01  1.2701522247025D+00  5.1739849408694D-02
80  7.9000000000000D-01  1.2573888827080D+00  8.8316037010781D-02
81  8.0000000000000D-01  1.2436409443199D+00  1.2543833032322D-01
82  8.1000000000000D-01  1.2290313402969D+00  1.6277697416048D-01
83  8.2000000000000D-01  1.2136828974727D+00  2.0000534302420D-01
84  8.3000000000000D-01  1.1977165543599D+00  2.3680456352572D-01
85  8.4000000000000D-01  1.1812496063370D+00  2.7286805421486D-01
86  8.5000000000000D-01  1.1643940056211D+00  3.0790591835883D-01
87  8.6000000000000D-01  1.1472547406799D+00  3.4164912664838D-01
88  8.7000000000000D-01  1.1299283188395D+00  3.7385342912300D-01
89  8.8000000000000D-01  1.1125013746113D+00  4.0430293877747D-01
90  8.9000000000000D-01  1.0950494247070D+00  4.3281333330322D-01
91  9.0000000000000D-01  1.0776357888536D+00  4.5923462618523D-01
92  9.1000000000000D-01  1.0603106933773D+00  4.8345346385692D-01
93  9.2000000000000D-01  1.0431105721332D+00  5.0539491174724D-01
94  9.3000000000000D-01  1.0260575767383D+00  5.2502369875679D-01
95  9.4000000000000D-01  1.0091593052541D+00  5.4234489688675D-01
96  9.5000000000000D-01  9.9240875550821D-01  5.5740402031297D-01
97  9.6000000000000D-01  9.7578450613971D-01  5.7028653613038D-01
98  9.7000000000000D-01  9.5925112534787D-01  5.8111678693277D-01
99  9.8000000000000D-01  9.4275980409802D-01  5.9005633363698D-01
100  9.9000000000000D-01  9.2624920736889D-01  5.9730173505954D-01
101  1.0000000000000D+00  9.0964653392138D-01  6.0308178868675D-01
102  1.0100000000000D+00  8.9286877203472D-01  6.0765426482975D-01
103  1.0200000000000D+00  8.7582413578186D-01  6.1130217369992D-01
104  1.0300000000000D+00  8.5841366366857D-01  6.1432961195820D-01
105  1.0400000000000D+00  8.4053295907499D-01  6.1705724138698D-01
106  1.0500000000000D+00  8.2207404960320D-01  6.1981745829877D-01
107  1.0600000000000D+00  8.0292734052411D-01  6.2294931717767D-01
108  1.0700000000000D+00  7.8298363590833D-01  6.2679327615985D-01
109  1.0800000000000D+00  7.6213619970973D-01  6.3168583532379D-01
110  1.0900000000000D+00  7.4028282819496D-01  6.3795414100117D-01
111  1.1000000000000D+00  7.1732790449283D-01  6.4591063090533D-01
112  1.1100000000000D+00  6.9318440591688D-01  6.5584779518885D-01
113  1.1200000000000D+00  6.6777583494229D-01  6.6803312796659D-01
114  1.1300000000000D+00  6.4103804549001D-01  6.8270434187837D-01
115  1.1400000000000D+00  6.1292093682799D-01  7.0006491659495D-01
116  1.1500000000000D+00  5.8338998922357D-01  7.2028004752506D-01
117  1.1600000000000D+00  5.5242761702165D-01  7.4347305705691D-01
118  1.1700000000000D+00  5.2003431721302D-01  7.6972232457783D-01
119  1.1800000000000D+00  4.8622959327046D-01  7.9905878715131D-01
120  1.1900000000000D+00  4.5105263771588D-01  8.3146405333549D-01
121  1.2000000000000D+00  4.1456275961484D-01  8.6686916566209D-01
122  1.2100000000000D+00  3.7683954570032D-01  9.0515404090740D-01
123  1.2200000000000D+00  3.3798274792885D-01  9.4614760683198D-01
124  1.2300000000000D+00  2.9811189404632D-01  9.8962864444450D-01
125  1.2400000000000D+00  2.5736562081139D-01  1.0353273370147D+00
126  1.2500000000000D+00  2.1590073257562D-01  1.0829275192835D+00
127  1.2600000000000D+00  1.7389099352213D-01  1.1320696060298D+00
128  1.2700000000000D+00  1.3152566414965D-01  1.1823541733276D+00
129  1.2800000000000D+00  8.9007794936153D-02  1.2333461598407D+00
130  1.2900000000000D+00  4.6552296643277D-02  1.2845796388558D+00
131  1.3000000000000D+00  4.3838074450808D-03  1.3355631099089D+00
132  1.3100000000000D+00 -3.7265620455605D-02  1.3857852525382D+00
133  1.3200000000000D+00 -7.8158986363011D-02  1.4347210701572D+00
134  1.3300000000000D+00 -1.1805693134181D-01  1.4818383544011D+00
135  1.3400000000000D+00 -1.5672042236266D-01  1.5266043916487D+00
136  1.3500000000000D+00 -1.9391349694601D-01  1.5684928268527D+00
137  1.3600000000000D+00 -2.2940603602694D-01  1.6069906027453D+00
138  1.3700000000000D+00 -2.6297652945907D-01  1.6416048897054D+00
139  1.3800000000000D+00 -2.9441480065291D-01  1.6718698970834D+00
140  1.3900000000000D+00 -3.2352465146489D-01  1.6973534821639D+00
141  1.4000000000000D+00 -3.5012640145587D-01  1.7176634430914D+00
142  1.4100000000000D+00 -3.7405928825961D-01  1.7324541039796D+00
143  1.4200000000000D+00 -3.9518365657124D-01  1.7414300099721D+00
144  1.4300000000000D+00 -4.1338292034534D-01  1.7443485602372D+00
145  1.4400000000000D+00 -4.2856510581135D-01  1.7410199375034D+00
146  1.4500000000000D+00 -4.4066412391136D-01  1.7313078384135D+00
147  1.4600000000000D+00 -4.4964073489831D-01  1.7151326301890D+00
148  1.4700000000000D+00 -4.5548321554001D-01  1.6924731063149D+00
149  1.4800000000000D+00 -4.5820773593414D-01  1.6633679656348D+00
150  1.4900000000000D+00 -4.5785844419422D-01  1.6279171132220D+00
151  1.5000000000000D+00 -4.5450727077721D-01  1.5862825409175D+00
152  1.5100000000000D+00 -4.4825345856380D-01  1.5386888063727D+00
153  1.5200000000000D+00 -4.3922282427339D-01  1.4854229603975D+00
154  1.5300000000000D+00 -4.2756675904149D-01  1.4268338822347D+00
155  1.5400000000000D+00 -4.1346096944296D-01  1.3633308791410D+00
156  1.5500000000000D+00 -3.9710397019393D-01  1.2953815527395D+00
157  1.5600000000000D+00 -3.7871532341005D-01  1.2235087633227D+00
158  1.5700000000000D+00 -3.5853364917204D-01  1.1482868229273D+00
159  1.5800000000000D+00 -3.3681439341852D-01  1.0703367205904D+00
160  1.5900000000000D+00 -3.1382739718514D-01  9.9032062702005D-01
161  1.6000000000000D+00 -2.8985425186402D-01  9.0893552536255D-01
162  1.6100000000000D+00 -2.6518549595979D-01  8.2690623658326D-01
163  1.6200000000000D+00 -2.4011764968433D-01  7.4497779392414D-01
164  1.6300000000000D+00 -2.1495014382314D-01  6.6390739370867D-01
165  1.6400000000000D+00 -1.8998215567859D-01  5.8445597415130D-01
166  1.6500000000000D+00 -1.6550940536052D-01  5.0737960410961D-01
167  1.6600000000000D+00 -1.4182093826252D-01  4.3342078675026D-01
168  1.6700000000000D+00 -1.1919594280040D-01  3.6329982421624D-01
169  1.6800000000000D+00 -9.7900636320183D-02  2.9770636522312D-01
170  1.6900000000000D+00 -7.8185263335389D-02  2.3729125213161D-01
171  1.7000000000000D+00 -6.0281241071847D-02  1.8265878626381D-01
172  1.7100000000000D+00 -4.4405562748884D-02  1.3438093129733D-01
173  1.7200000000000D+00 -3.0734326473690D-02  9.2917915090288D-02
174  1.7300000000000D+00 -1.9377620644305D-02  5.8543129312689D-02
175  1.7400000000000D+00 -1.0528580630475D-02  3.1794621951512D-02
176  1.7500000000000D+00 -4.4815269837252D-03  1.3529834089402D-02
177  1.7600000000000D+00 -1.1492871348461D-03  3.4679059044750D-03
178  1.7700000000000D+00  1.5623946825902D-04 -4.7372740579562D-04
179  1.7800000000000D+00  2.6967241672772D-04 -8.1503474408675D-04
180  1.7900000000000D+00 -1.4074174568525D-05  4.2518579248441D-05
181  1.8000000000000D+00 -9.4536482538667D-05  2.8554456386040D-04
182  1.8100000000000D+00 -8.5437568222314D-06  2.5803287147573D-05
183  1.8200000000000D+00  1.7199773868932D-05 -5.1989911759232D-05
184  1.8300000000000D+00  5.6408542525755D-06 -1.7049785425077D-05
185  1.8400000000000D+00 -5.0100803934115D-08  1.5708223614556D-07
186  1.8500000000000D+00 -3.0435172383224D-08  9.5424116182237D-08
187  1.8600000000000D+00  0.0000000000000D+00  0.0000000000000D+00
188  1.8700000000000D+00  0.0000000000000D+00  0.0000000000000D+00
189  1.8800000000000D+00  0.0000000000000D+00  0.0000000000000D+00
190  1.8900000000000D+00  0.0000000000000D+00  0.0000000000000D+00
191  1.9000000000000D+00  0.0000000000000D+00  0.0000000000000D+00
192  1.9100000000000D+00  0.0000000000000D+00  0.0000000000000D+00
193  1.9200000000000D+00  0.0000000000000D+00  0.0000000000000D+00
194  1.9300000000000D+00  0.0000000000000D+00  0.0000000000000D+00
195  1.9400000000000D+00  0.0000000000000D+00  0.0000000000000D+00
196  1.9500000000000D+00  0.0000000000000D+00  0.0000000000000D+00
197  1.9600000000000D+00  0.0000000000000D+00  0.0000000000000D+00
198  1.9700000000000D+00  0.0000000000000D+00  0.0000000000000D+00
199  1.9800000000000D+00  0.0000000000000D+00  0.0000000000000D+00
200  1.9900000000000D+00  0.0000000000000D+00  0.0000000000000D+00
201  2.0000000000000D+00  0.0000000000000D+00  0.0000000000000D+00
202  2.0100000000000D+00  0.0000000000000D+00  0.0000000000000D+00
203  2.0200000000000D+00  0.0000000000000D+00  0.0000000000000D+00
204  2.0300000000000D+00  0.0000000000000D+00  0.0000000000000D+00
205  2.0400000000000D+00  0.0000000000000D+00  0.0000000000000D+00
206  2.0500000000000D+00  0.0000000000000D+00  0.0000000000000D+00
207  2.0600000000000D+00  0.0000000000000D+00  0.0000000000000D+00
208  2.0700000000000D+00  0.0000000000000D+00  0.0000000000000D+00
209  2.0800000000000D+00  0.0000000000000D+00  0.0000000000000D+00
210  2.0900000000000D+00  0.0000000000000D+00  0.0000000000000D+00
211  2.1000000000000D+00  0.0000000000000D+00  0.0000000000000D+00
212  2.1100000000000D+00  0.0000000000000D+00  0.0000000000000D+00
213  2.1200000000000D+00  0.0000000000000D+00  0.0000000000000D+00
214  2.1300000000000D+00  0.0000000000000D+00  0.0000000000000D+00
215  2.1400000000000D+00  0.0000000000000D+00  0.0000000000000D+00
216  2.1500000000000D+00  0.0000000000000D+00  0.0000000000000D+00
217  2.1600000000000D+00  0.0000000000000D+00  0.0000000000000D+00
218  2.1700000000000D+00  0.0000000000000D+00  0.0000000000000D+00
219  2.1800000000000D+00  0.0000000000000D+00  0.0000000000000D+00
220  2.1900000000000D+00  0.0000000000000D+00  0.0000000000000D+00
221  2.2000000000000D+00  0.0000000000000D+00  0.0000000000000D+00
222  2.2100000000000D+00  0.0000000000000D+00  0.0000000000000D+00
223  2.2200000000000D+00  0.0000000000000D+00  0.0000000000000D+00
224  2.2300000000000D+00  0.0000000000000D+00  0.0000000000000D+00
225  2.2400000000000D+00  0.0000000000000D+00  0.0000000000000D+00
226  2.2500000000000D+00  0.0000000000000D+00  0.0000000000000D+00
227  2.2600000000000D+00  0.0000000000000D+00  0.0000000000000D+00
228  2.2700000000000D+00  0.0000000000000D+00  0.0000000000000D+00
229  2.2800000000000D+00  0.0000000000000D+00  0.0000000000000D+00
230  2.2900000000000D+00  0.0000000000000D+00  0.0000000000000D+00
231  2.3000000000000D+00  0.0000000000000D+00  0.0000000000000D+00
232  2.3100000000000D+00  0.0000000000000D+00  0.0000000000000D+00
233  2.3200000000000D+00  0.0000000000000D+00  0.0000000000000D+00
234  2.3300000000000D+00  0.0000000000000D+00  0.0000000000000D+00
235  2.3400000000000D+00  0.0000000000000D+00  0.0000000000000D+00
236  2.3500000000000D+00  0.0000000000000D+00  0.0000000000000D+00
237  2.3600000000000D+00  0.0000000000000D+00  0.0000000000000D+00
238  2.3700000000000D+00  0.0000000000000D+00  0.0000000000000D+00
239  2.3800000000000D+00  0.0000000000000D+00  0.0000000000000D+00
240  2.3900000000000D+00  0.0000000000000D+00  0.0000000000000D+00
241  2.4000000000000D+00  0.0000000000000D+00  0.0000000000000D+00
242  2.4100000000000D+00  0.0000000000000D+00  0.0000000000000D+00
243  2.4200000000000D+00  0.0000000000000D+00  0.0000000000000D+00
244  2.4300000000000D+00  0.0000000000000D+00  0.0000000000000D+00
245  2.4400000000000D+00  0.0000000000000D+00  0.0000000000000D+00
246  2.4500000000000D+00  0.0000000000000D+00  0.0000000000000D+00
247  2.4600000000000D+00  0.0000000000000D+00  0.0000000000000D+00
248  2.4700000000000D+00  0.0000000000000D+00  0.0000000000000D+00
249  2.4800000000000D+00  0.0000000000000D+00  0.0000000000000D+00
250  2.4900000000000D+00  0.0000000000000D+00  0.0000000000000D+00
251  2.5000000000000D+00  0.0000000000000D+00  0.0000000000000D+00
252  2.5100000000000D+00  0.0000000000000D+00  0.0000000000000D+00
253  2.5200000000000D+00  0.0000000000000D+00  0.0000000000000D+00
254  2.5300000000000D+00  0.0000000000000D+00  0.0000000000000D+00
255  2.5400000000000D+00  0.0000000000000D+00  0.0000000000000D+00
256  2.5500000000000D+00  0.0000000000000D+00  0.0000000000000D+00
257  2.5600000000000D+00  0.0000000000000D+00  0.0000000000000D+00
258  2.5700000000000D+00  0.0000000000000D+00  0.0000000000000D+00
259  2.5800000000000D+00  0.0000000000000D+00  0.0000000000000D+00
260  2.5900000000000D+00  0.0000000000000D+00  0.0000000000000D+00
261  2.6000000000000D+00  0.0000000000000D+00  0.0000000000000D+00
262  2.6100000000000D+00  0.0000000000000D+00  0.0000000000000D+00
263  2.6200000000000D+00  0.0000000000000D+00  0.0000000000000D+00
264  2.6300000000000D+00  0.0000000000000D+00  0.0000000000000D+00
265  2.6400000000000D+00  0.0000000000000D+00  0.0000000000000D+00
266  2.6500000000000D+00  0.0000000000000D+00  0.0000000000000D+00
267  2.6600000000000D+00  0.0000000000000D+00  0.0000000000000D+00
268  2.6700000000000D+00  0.0000000000000D+00  0.0000000000000D+00
269  2.6800000000000D+00  0.0000000000000D+00  0.0000000000000D+00
270  2.6900000000000D+00  0.0000000000000D+00  0.0000000000000D+00
271  2.7000000000000D+00  0.0000000000000D+00  0.0000000000000D+00
272  2.7100000000000D+00  0.0000000000000D+00  0.0000000000000D+00
273  2.7200000000000D+00  0.0000000000000D+00  0.0000000000000D+00
274  2.7300000000000D+00  0.0000000000000D+00  0.0000000000000D+00
275  2.7400000000000D+00  0.0000000000000D+00  0.0000000000000D+00
276  2.7500000000000D+00  0.0000000000000D+00  0.0000000000000D+00
277  2.7600000000000D+00  0.0000000000000D+00  0.0000000000000D+00
278  2.7700000000000D+00  0.0000000000000D+00  0.0000000000000D+00
279  2.7800000000000D+00  0.0000000000000D+00  0.0000000000000D+00
280  2.7900000000000D+00  0.0000000000000D+00  0.0000000000000D+00
281  2.8000000000000D+00  0.0000000000000D+00  0.0000000000000D+00
282  2.8100000000000D+00  0.0000000000000D+00  0.0000000000000D+00
283  2.8200000000000D+00  0.0000000000000D+00  0.0000000000000D+00
284  2.8300000000000D+00  0.0000000000000D+00  0.0000000000000D+00
285  2.8400000000000D+00  0.0000000000000D+00  0.0000000000000D+00
286  2.8500000000000D+00  0.0000000000000D+00  0.0000000000000D+00
287  2.8600000000000D+00  0.0000000000000D+00  0.0000000000000D+00
288  2.8700000000000D+00  0.0000000000000D+00  0.0000000000000D+00
289  2.8800000000000D+00  0.0000000000000D+00  0.0000000000000D+00
290  2.8900000000000D+00  0.0000000000000D+00  0.0000000000000D+00
291  2.9000000000000D+00  0.0000000000000D+00  0.0000000000000D+00
292  2.9100000000000D+00  0.0000000000000D+00  0.0000000000000D+00
293  2.9200000000000D+00  0.0000000000000D+00  0.0000000000000D+00
294  2.9300000000000D+00  0.0000000000000D+00  0.0000000000000D+00
295  2.9400000000000D+00  0.0000000000000D+00  0.0000000000000D+00
296  2.9500000000000D+00  0.0000000000000D+00  0.0000000000000D+00
297  2.9600000000000D+00  0.0000000000000D+00  0.0000000000000D+00
298  2.9700000000000D+00  0.0000000000000D+00  0.0000000000000D+00
299  2.9800000000000D+00  0.0000000000000D+00  0.0000000000000D+00
300  2.9900000000000D+00  0.0000000000000D+00  0.0000000000000D+00
301  3.0000000000000D+00  0.0000000000000D+00  0.0000000000000D+00
302  3.0100000000000D+00  0.0000000000000D+00  0.0000000000000D+00
303  3.0200000000000D+00  0.0000000000000D+00  0.0000000000000D+00
304  3.0300000000000D+00  0.0000000000000D+00  0.0000000000000D+00
305  3.0400000000000D+00  0.0000000000000D+00  0.0000000000000D+00
306  3.0500000000000D+00  0.0000000000000D+00  0.0000000000000D+00
307  3.0600000000000D+00  0.0000000000000D+00  0.0000000000000D+00
308  3.0700000000000D+00  0.0000000000000D+00  0.0000000000000D+00
309  3.0800000000000D+00  0.0000000000000D+00  0.0000000000000D+00
310  3.0900000000000D+00  0.0000000000000D+00  0.0000000000000D+00
311  3.1000000000000D+00  0.0000000000000D+00  0.0000000000000D+00
312  3.1100000000000D+00  0.0000000000000D+00  0.0000000000000D+00
313  3.1200000000000D+00  0.0000000000000D+00  0.0000000000000D+00
314  3.1300000000000D+00  0.0000000000000D+00  0.0000000000000D+00
315  3.1400000000000D+00  0.0000000000000D+00  0.0000000000000D+00
316  3.1500000000000D+00  0.0000000000000D+00  0.0000000000000D+00
317  3.1600000000000D+00  0.0000000000000D+00  0.0000000000000D+00
318  3.1700000000000D+00  0.0000000000000D+00  0.0000000000000D+00
319  3.1800000000000D+00  0.0000000000000D+00  0.0000000000000D+00
320  3.1900000000000D+00  0.0000000000000D+00  0.0000000000000D+00
321  3.2000000000000D+00  0.0000000000000D+00  0.0000000000000D+00
322  3.2100000000000D+00  0.0000000000000D+00  0.0000000000000D+00
323  3.2200000000000D+00  0.0000000000000D+00  0.0000000000000D+00
324  3.2300000000000D+00  0.0000000000000D+00  0.0000000000000D+00
325  3.2400000000000D+00  0.0000000000000D+00  0.0000000000000D+00
326  3.2500000000000D+00  0.0000000000000D+00  0.0000000000000D+00
327  3.2600000000000D+00  0.0000000000000D+00  0.0000000000000D+00
328  3.2700000000000D+00  0.0000000000000D+00  0.0000000000000D+00
329  3.2800000000000D+00  0.0000000000000D+00  0.0000000000000D+00
330  3.2900000000000D+00  0.0000000000000D+00  0.0000000000000D+00
331  3.3000000000000D+00  0.0000000000000D+00  0.0000000000000D+00
332  3.3100000000000D+00  0.0000000000000D+00  0.0000000000000D+00
333  3.3200000000000D+00  0.0000000000000D+00  0.0000000000000D+00
334  3.3300000000000D+00  0.0000000000000D+00  0.0000000000000D+00
335  3.3400000000000D+00  0.0000000000000D+00  0.0000000000000D+00
336  3.3500000000000D+00  0.0000000000000D+00  0.0000000000000D+00
337  3.3600000000000D+00  0.0000000000000D+00  0.0000000000000D+00
338  3.3700000000000D+00  0.0000000000000D+00  0.0000000000000D+00
339  3.3800000000000D+00  0.0000000000000D+00  0.0000000000000D+00
340  3.3900000000000D+00  0.0000000000000D+00  0.0000000000000D+00
341  3.4000000000000D+00  0.0000000000000D+00  0.0000000000000D+00
342  3.4100000000000D+00  0.0000000000000D+00  0.0000000000000D+00
343  3.4200000000000D+00  0.0000000000000D+00  0.0000000000000D+00
344  3.4300000000000D+00  0.0000000000000D+00  0.0000000000000D+00
345  3.4400000000000D+00  0.0000000000000D+00  0.0000000000000D+00
346  3.4500000000000D+00  0.0000000000000D+00  0.0000000000000D+00
347  3.4600000000000D+00  0.0000000000000D+00  0.0000000000000D+00
348  3.4700000000000D+00  0.0000000000000D+00  0.0000000000000D+00
349  3.4800000000000D+00  0.0000000000000D+00  0.0000000000000D+00
350  3.4900000000000D+00  0.0000000000000D+00  0.0000000000000D+00
351  3.5000000000000D+00  0.0000000000000D+00  0.0000000000000D+00
352  3.5100000000000D+00  0.0000000000000D+00  0.0000000000000D+00
353  3.5200000000000D+00  0.0000000000000D+00  0.0000000000000D+00
354  3.5300000000000D+00  0.0000000000000D+00  0.0000000000000D+00
355  3.5400000000000D+00  0.0000000000000D+00  0.0000000000000D+00
356  3.5500000000000D+00  0.0000000000000D+00  0.0000000000000D+00
357  3.5600000000000D+00  0.0000000000000D+00  0.0000000000000D+00
358  3.5700000000000D+00  0.0000000000000D+00  0.0000000000000D+00
359  3.5800000000000D+00  0.0000000000000D+00  0.0000000000000D+00
360  3.5900000000000D+00  0.0000000000000D+00  0.0000000000000D+00
361  3.6000000000000D+00  0.0000000000000D+00  0.0000000000000D+00
362  3.6100000000000D+00  0.0000000000000D+00  0.0000000000000D+00
363  3.6200000000000D+00  0.0000000000000D+00  0.0000000000000D+00
364  3.6300000000000D+00  0.0000000000000D+00  0.0000000000000D+00
365  3.6400000000000D+00  0.0000000000000D+00  0.0000000000000D+00
366  3.6500000000000D+00  0.0000000000000D+00  0.0000000000000D+00
367  3.6600000000000D+00  0.0000000000000D+00  0.0000000000000D+00
368  3.6700000000000D+00  0.0000000000000D+00  0.0000000000000D+00
369  3.6800000000000D+00  0.0000000000000D+00  0.0000000000000D+00
370  3.6900000000000D+00  0.0000000000000D+00  0.0000000000000D+00
371  3.7000000000000D+00  0.0000000000000D+00  0.0000000000000D+00
372  3.7100000000000D+00  0.0000000000000D+00  0.0000000000000D+00
373  3.7200000000000D+00  0.0000000000000D+00  0.0000000000000D+00
374  3.7300000000000D+00  0.0000000000000D+00  0.0000000000000D+00
375  3.7400000000000D+00  0.0000000000000D+00  0.0000000000000D+00
376  3.7500000000000D+00  0.0000000000000D+00  0.0000000000000D+00
377  3.7600000000000D+00  0.0000000000000D+00  0.0000000000000D+00
378  3.7700000000000D+00  0.0000000000000D+00  0.0000000000000D+00
379  3.7800000000000D+00  0.0000000000000D+00  0.0000000000000D+00
380  3.7900000000000D+00  0.0000000000000D+00  0.0000000000000D+00
381  3.8000000000000D+00  0.0000000000000D+00  0.0000000000000D+00
382  3.8100000000000D+00  0.0000000000000D+00  0.0000000000000D+00
383  3.8200000000000D+00  0.0000000000000D+00  0.0000000000000D+00
384  3.8300000000000D+00  0.0000000000000D+00  0.0000000000000D+00
385  3.8400000000000D+00  0.0000000000000D+00  0.0000000000000D+00
386  3.8500000000000D+00  0.0000000000000D+00  0.0000000000000D+00
387  3.8600000000000D+00  0.0000000000000D+00  0.0000000000000D+00
388  3.8700000000000D+00  0.0000000000000D+00  0.0000000000000D+00
389  3.8800000000000D+00  0.0000000000000D+00  0.0000000000000D+00
390  3.8900000000000D+00  0.0000000000000D+00  0.0000000000000D+00
391  3.9000000000000D+00  0.0000000000000D+00  0.0000000000000D+00
392  3.9100000000000D+00  0.0000000000000D+00  0.0000000000000D+00
393  3.9200000000000D+00  0.0000000000000D+00  0.0000000000000D+00
394  3.9300000000000D+00  0.0000000000000D+00  0.0000000000000D+00
395  3.9400000000000D+00  0.0000000000000D+00  0.0000000000000D+00
396  3.9500000000000D+00  0.0000000000000D+00  0.0000000000000D+00
397  3.9600000000000D+00  0.0000000000000D+00  0.0000000000000D+00
398  3.9700000000000D+00  0.0000000000000D+00  0.0000000000000D+00
399  3.9800000000000D+00  0.0000000000000D+00  0.0000000000000D+00
400  3.9900000000000D+00  0.0000000000000D+00  0.0000000000000D+00
401  4.0000000000000D+00  0.0000000000000D+00  0.0000000000000D+00
402  4.0100000000000D+00  0.0000000000000D+00  0.0000000000000D+00
403  4.0200000000000D+00  0.0000000000000D+00  0.0000000000000D+00
404  4.0300000000000D+00  0.0000000000000D+00  0.0000000000000D+00
405  4.0400000000000D+00  0.0000000000000D+00  0.0000000000000D+00
406  4.0500000000000D+00  0.0000000000000D+00  0.0000000000000D+00
407  4.0600000000000D+00  0.0000000000000D+00  0.0000000000000D+00
408  4.0700000000000D+00  0.0000000000000D+00  0.0000000000000D+00
409  4.0800000000000D+00  0.0000000000000D+00  0.0000000000000D+00
410  4.0900000000000D+00  0.0000000000000D+00  0.0000000000000D+00
411  4.1000000000000D+00  0.0000000000000D+00  0.0000000000000D+00
412  4.1100000000000D+00  0.0000000000000D+00  0.0000000000000D+00
413  4.1200000000000D+00  0.0000000000000D+00  0.0000000000000D+00
414  4.1300000000000D+00  0.0000000000000D+00  0.0000000000000D+00
415  4.1400000000000D+00  0.0000000000000D+00  0.0000000000000D+00
416  4.1500000000000D+00  0.0000000000000D+00  0.0000000000000D+00
417  4.1600000000000D+00  0.0000000000000D+00  0.0000000000000D+00
418  4.1700000000000D+00  0.0000000000000D+00  0.0000000000000D+00
419  4.1800000000000D+00  0.0000000000000D+00  0.0000000000000D+00
420  4.1900000000000D+00  0.0000000000000D+00  0.0000000000000D+00
421  4.2000000000000D+00  0.0000000000000D+00  0.0000000000000D+00
422  4.2100000000000D+00  0.0000000000000D+00  0.0000000000000D+00
423  4.2200000000000D+00  0.0000000000000D+00  0.0000000000000D+00
424  4.2300000000000D+00  0.0000000000000D+00  0.0000000000000D+00
425  4.2400000000000D+00  0.0000000000000D+00  0.0000000000000D+00
426  4.2500000000000D+00  0.0000000000000D+00  0.0000000000000D+00
427  4.2600000000000D+00  0.0000000000000D+00  0.0000000000000D+00
428  4.2700000000000D+00  0.0000000000000D+00  0.0000000000000D+00
429  4.2800000000000D+00  0.0000000000000D+00  0.0000000000000D+00
430  4.2900000000000D+00  0.0000000000000D+00  0.0000000000000D+00
431  4.3000000000000D+00  0.0000000000000D+00  0.0000000000000D+00
432  4.3100000000000D+00  0.0000000000000D+00  0.0000000000000D+00
433  4.3200000000000D+00  0.0000000000000D+00  0.0000000000000D+00
434  4.3300000000000D+00  0.0000000000000D+00  0.0000000000000D+00
435  4.3400000000000D+00  0.0000000000000D+00  0.0000000000000D+00
436  4.3500000000000D+00  0.0000000000000D+00  0.0000000000000D+00
437  4.3600000000000D+00  0.0000000000000D+00  0.0000000000000D+00
438  4.3700000000000D+00  0.0000000000000D+00  0.0000000000000D+00
439  4.3800000000000D+00  0.0000000000000D+00  0.0000000000000D+00
440  4.3900000000000D+00  0.0000000000000D+00  0.0000000000000D+00
441  4.4000000000000D+00  0.0000000000000D+00  0.0000000000000D+00
442  4.4100000000000D+00  0.0000000000000D+00  0.0000000000000D+00
443  4.4200000000000D+00  0.0000000000000D+00  0.0000000000000D+00
444  4.4300000000000D+00  0.0000000000000D+00  0.0000000000000D+00