Tb    ONCVPSP-3.3.0  r_core=   1.81238   1.51545   1.66719   1.70744
65.0000     19.0000      180112    zatom,zion,pspd
8 -116133   3     4   600     0    pspcod,pspxc,lmax,lloc,mmax,r2well
5.99000000  0.25000000  0.00000000    rchrg fchrg qchrg
2     2     2     2     0    nproj
1     1           extension_switch
0                         8.7885610324540D+00  5.6600895821080D-01
1  0.0000000000000D+00 -4.5856263231059D-11  3.3668251520069D-10
2  1.0000000000000D-02  4.7213507751973D-02 -2.3217724685863D-02
3  2.0000000000000D-02  9.4369357093601D-02 -4.6301294492910D-02
4  3.0000000000000D-02  1.4141003228115D-01 -6.9117571911519D-02
5  4.0000000000000D-02  1.8827830180120D-01 -9.1535444804320D-02
6  5.0000000000000D-02  2.3491735774036D-01 -1.1342681576293D-01
7  6.0000000000000D-02  2.8127095189315D-01 -1.3466756370937D-01
8  7.0000000000000D-02  3.2728352757502D-01 -1.5513846888801D-01
9  8.0000000000000D-02  3.7290034615340D-01 -1.7472609273063D-01
10  9.0000000000000D-02  4.1806760736609D-01 -1.9332360449220D-01
11  1.0000000000000D-01  4.6273256256267D-01 -2.1083154704568D-01
12  1.1000000000000D-01  5.0684362008098D-01 -2.2715853478565D-01
13  1.2000000000000D-01  5.5035044205505D-01 -2.4222187721797D-01
14  1.3000000000000D-01  5.9320403204359D-01 -2.5594812250169D-01
15  1.4000000000000D-01  6.3535681296781D-01 -2.6827351595225D-01
16  1.5000000000000D-01  6.7676269495254D-01 -2.7914436930722D-01
17  1.6000000000000D-01  7.1737713277533D-01 -2.8851733738880D-01
18  1.7000000000000D-01  7.5715717274245D-01 -2.9635959966497D-01
19  1.8000000000000D-01  7.9606148892741D-01 -3.0264894510497D-01
20  1.9000000000000D-01  8.3405040882643D-01 -3.0737375963782D-01
21  2.0000000000000D-01  8.7108592860333D-01 -3.1053291644492D-01
22  2.1000000000000D-01  9.0713171821452D-01 -3.1213557024394D-01
23  2.2000000000000D-01  9.4215311681962D-01 -3.1220085763882D-01
24  2.3000000000000D-01  9.7611711899531D-01 -3.1075750651586D-01
25  2.4000000000000D-01  1.0089923523770D+00 -3.0784335834589D-01
26  2.5000000000000D-01  1.0407490474538D+00 -3.0350480810232D-01
27  2.6000000000000D-01  1.0713590003369D+00 -2.9779616731453D-01
28  2.7000000000000D-01  1.1007955294057D+00 -2.9077895653845D-01
29  2.8000000000000D-01  1.1290334268143D+00 -2.8252113423339D-01
30  2.9000000000000D-01  1.1560489059052D+00 -2.7309626967973D-01
31  3.0000000000000D-01  1.1818195456333D+00 -2.6258266814884D-01
32  3.1000000000000D-01  1.2063242331451D+00 -2.5106245703803D-01
33  3.2000000000000D-01  1.2295431056887D+00 -2.3862064210544D-01
34  3.3000000000000D-01  1.2514574930465D+00 -2.2534414327558D-01
35  3.4000000000000D-01  1.2720498616862D+00 -2.1132081973407D-01
36  3.5000000000000D-01  1.2913037618134D+00 -1.9663849418394D-01
37  3.6000000000000D-01  1.3092037784860D+00 -1.8138398619587D-01
38  3.7000000000000D-01  1.3257354879066D+00 -1.6564216454665D-01
39  3.8000000000000D-01  1.3408854199609D+00 -1.4949502830536D-01
40  3.9000000000000D-01  1.3546410279960D+00 -1.3302082619398D-01
41  4.0000000000000D-01  1.3669906667556D+00 -1.1629322341993D-01
42  4.1000000000000D-01  1.3779235792917D+00 -9.9380524754199D-02
43  4.2000000000000D-01  1.3874298935651D+00 -8.2344962113710D-02
44  4.3000000000000D-01  1.3955006293316D+00 -6.5242054303539D-02
45  4.4000000000000D-01  1.4021277157762D+00 -4.8120045888530D-02
46  4.5000000000000D-01  1.4073040202259D+00 -3.1019431401707D-02
47  4.6000000000000D-01  1.4110233881184D+00 -1.3972570262247D-02
48  4.7000000000000D-01  1.4132806942562D+00  2.9966031197923D-03
49  4.8000000000000D-01  1.4140719052152D+00  1.9872770527039D-02
50  4.9000000000000D-01  1.4133941526141D+00  3.6649319878948D-02
51  5.0000000000000D-01  1.4112458167904D+00  5.3328332443376D-02
52  5.1000000000000D-01  1.4076266202619D+00  6.9920466882450D-02
53  5.2000000000000D-01  1.4025377301948D+00  8.6444740776363D-02
54  5.3000000000000D-01  1.3959818689387D+00  1.0292821134961D-01
55  5.4000000000000D-01  1.3879634315379D+00  1.1940555819889D-01
56  5.5000000000000D-01  1.3784886089862D+00  1.3591857187970D-01
57  5.6000000000000D-01  1.3675655158530D+00  1.5251555323433D-01
58  5.7000000000000D-01  1.3552043207912D+00  1.6925062933388D-01
59  5.8000000000000D-01  1.3414173783213D+00  1.8618299283857D-01
60  5.9000000000000D-01  1.3262193601966D+00  2.0337607245679D-01
61  6.0000000000000D-01  1.3096273845719D+00  2.2089664297820D-01
62  6.1000000000000D-01  1.2916611411390D+00  2.3881388407627D-01
63  6.2000000000000D-01  1.2723430103533D+00  2.5719839769618D-01
64  6.3000000000000D-01  1.2516981748513D+00  2.7612119436853D-01
65  6.4000000000000D-01  1.2297547211647D+00  2.9565265920404D-01
66  6.5000000000000D-01  1.2065437298566D+00  3.1586150862411D-01
67  6.6000000000000D-01  1.1820993522530D+00  3.3681374906346D-01
68  6.7000000000000D-01  1.1564588720133D+00  3.5857164893660D-01
69  6.8000000000000D-01  1.1296627498754D+00  3.8119273509236D-01
70  6.9000000000000D-01  1.1017546500247D+00  4.0472882478061D-01
71  7.0000000000000D-01  1.0727814466793D+00  4.2922510383235D-01
72  7.1000000000000D-01  1.0427932096377D+00  4.5471926130197D-01
73  7.2000000000000D-01  1.0118431677202D+00  4.8124069024951D-01
74  7.3000000000000D-01  9.7998764923208D-01  5.0880976364618D-01
75  7.4000000000000D-01  9.4728599879494D-01  5.3743719358625D-01
76  7.5000000000000D-01  9.1380047012433D-01  5.6712348108047D-01
77  7.6000000000000D-01  8.7959609457929D-01  5.9785846270665D-01
78  7.7000000000000D-01  8.4474052556508D-01  6.2962095930645D-01
79  7.8000000000000D-01  8.0930385913634D-01  6.6237853076612D-01
80  7.9000000000000D-01  7.7335843141920D-01  6.9608733969839D-01
81  8.0000000000000D-01  7.3697859374342D-01  7.3069212559003D-01
82  8.1000000000000D-01  7.0024046664819D-01  7.6612628969094D-01
83  8.2000000000000D-01  6.6322167419316D-01  8.0231208962240D-01
84  8.3000000000000D-01  6.2600106026673D-01  8.3916094138830D-01
85  8.4000000000000D-01  5.8865838883274D-01  8.7657382520092D-01
86  8.5000000000000D-01  5.5127403029093D-01  9.1444179030058D-01
87  8.6000000000000D-01  5.1392863634307D-01  9.5264655277208D-01
88  8.7000000000000D-01  4.7670280595086D-01  9.9106117926064D-01
89  8.8000000000000D-01  4.3967674514154D-01  1.0295508484793D+00
90  8.9000000000000D-01  4.0292992355861D-01  1.0679736814976D+00
91  9.0000000000000D-01  3.6654073076547D-01  1.1061816310226D+00
92  9.1000000000000D-01  3.3058613538669D-01  1.1440214192401D+00
93  9.2000000000000D-01  2.9514135021223D-01  1.1813355132930D+00
94  9.3000000000000D-01  2.6027950639266D-01  1.2179631271425D+00
95  9.4000000000000D-01  2.2607133981606D-01  1.2537412383969D+00
96  9.5000000000000D-01  1.9258489267914D-01  1.2885056087125D+00
97  9.6000000000000D-01  1.5988523314437D-01  1.3220917965743D+00
98  9.7000000000000D-01  1.2803419581570D-01  1.3543361516421D+00
99  9.8000000000000D-01  9.7090145557558D-02  1.3850767804337D+00
100  9.9000000000000D-01  6.7107766940103D-02  1.4141544738647D+00
101  1.0000000000000D+00  3.8137881308011D-02  1.4414135881022D+00
102  1.0100000000000D+00  1.0227293148468D-02  1.4667028712962D+00
103  1.0200000000000D+00 -1.6581332922177D-02  1.4898762300063D+00
104  1.0300000000000D+00 -4.2249563634461D-02  1.5107934306010D+00
105  1.0400000000000D+00 -6.6743256471837D-02  1.5293207323165D+00
106  1.0500000000000D+00 -9.0032586957457D-02  1.5453314504685D+00
107  1.0600000000000D+00 -1.1209204420313D-01  1.5587064499224D+00
108  1.0700000000000D+00 -1.3290039558367D-01  1.5693345707461D+00
109  1.0800000000000D+00 -1.5244062190447D-01  1.5771129898682D+00
110  1.0900000000000D+00 -1.7069982485471D-01  1.5819475241655D+00
111  1.1000000000000D+00 -1.8766910908595D-01  1.5837528824472D+00
112  1.1100000000000D+00 -2.0334344167795D-01  1.5824528753658D+00
113  1.1200000000000D+00 -2.1772149221840D-01  1.5779805939630D+00
114  1.1300000000000D+00 -2.3080545711754D-01  1.5702785689512D+00
115  1.1400000000000D+00 -2.4260087216055D-01  1.5592989241446D+00
116  1.1500000000000D+00 -2.5311641766510D-01  1.5450035386066D+00
117  1.1600000000000D+00 -2.6236372085626D-01  1.5273642327366D+00
118  1.1700000000000D+00 -2.7035716027445D-01  1.5063629939697D+00
119  1.1800000000000D+00 -2.7711367721361D-01  1.4819922580663D+00
120  1.1900000000000D+00 -2.8265259923915D-01  1.4542552615952D+00
121  1.2000000000000D+00 -2.8699548072577D-01  1.4231664800707D+00
122  1.2100000000000D+00 -2.9016596536585D-01  1.3887521659177D+00
123  1.2200000000000D+00 -2.9218967526452D-01  1.3510509978933D+00
124  1.2300000000000D+00 -2.9309413080501D-01  1.3101148510321D+00
125  1.2400000000000D+00 -2.9290870513518D-01  1.2660096940793D+00
126  1.2500000000000D+00 -2.9166461652441D-01  1.2188166177434D+00
127  1.2600000000000D+00 -2.8939496073040D-01  1.1686329909567D+00
128  1.2700000000000D+00 -2.8613478489446D-01  1.1155737389343D+00
129  1.2800000000000D+00 -2.8192120367010D-01  1.0597727322378D+00
130  1.2900000000000D+00 -2.7679355603852D-01  1.0013842640787D+00
131  1.3000000000000D+00 -2.7079360070894D-01  9.4058459019098D-01
132  1.3100000000000D+00 -2.6396574666915D-01  8.7757349842125D-01
133  1.3200000000000D+00 -2.5635731165892D-01  8.1257585545350D-01
134  1.3300000000000D+00 -2.4801880173845D-01  7.4584308017098D-01
135  1.3400000000000D+00 -2.3900420201936D-01  6.7765447692210D-01
136  1.3500000000000D+00 -2.2937126336917D-01  6.0831833493816D-01
137  1.3600000000000D+00 -2.1918177306626D-01  5.3817271639744D-01
138  1.3700000000000D+00 -2.0850178847982D-01  4.6758580977212D-01
139  1.3800000000000D+00 -1.9740181055119D-01  3.9695571338441D-01
140  1.3900000000000D+00 -1.8595687676974D-01  3.2670952899189D-01
141  1.4000000000000D+00 -1.7424653711945D-01  2.5730156203204D-01
142  1.4100000000000D+00 -1.6235468478066D-01  1.8921046777037D-01
143  1.4200000000000D+00 -1.5036920291509D-01  1.2293512899436D-01
144  1.4300000000000D+00 -1.3838137749548D-01  5.8988992446034D-02
145  1.4400000000000D+00 -1.2648504133834D-01 -2.1073306402470D-03
146  1.4500000000000D+00 -1.1477537876087D-01 -5.9835578242311D-02
147  1.4600000000000D+00 -1.0334734437274D-01 -1.1369172003302D-01
148  1.4700000000000D+00 -9.2293595548536D-02 -1.6320079719416D-01
149  1.4800000000000D+00 -8.1702042081141D-02 -2.0793382662209D-01
150  1.4900000000000D+00 -7.1652220739679D-02 -2.4753230949511D-01
151  1.5000000000000D+00 -6.2212998199081D-02 -2.8172246189499D-01
152  1.5100000000000D+00 -5.3434773022995D-02 -3.1036713611934D-01
153  1.5200000000000D+00 -4.5345197750248D-02 -3.3349212582555D-01
154  1.5300000000000D+00 -3.7952791824452D-02 -3.5125237428948D-01
155  1.5400000000000D+00 -3.1250850887026D-02 -3.6389930677768D-01
156  1.5500000000000D+00 -2.5226916332572D-02 -3.7171139404199D-01
157  1.5600000000000D+00 -1.9864916922579D-02 -3.7497820264993D-01
158  1.5700000000000D+00 -1.5143188034940D-02 -3.7401603844327D-01
159  1.5800000000000D+00 -1.1035707712629D-02 -3.6915928664399D-01
160  1.5900000000000D+00 -7.5124013090847D-03 -3.6075880557163D-01
161  1.6000000000000D+00 -4.5396878560199D-03 -3.4917864554181D-01
162  1.6100000000000D+00 -2.0809655643878D-03 -3.3479325613818D-01
163  1.6200000000000D+00 -9.7126600682792D-05 -3.1798452404287D-01
164  1.6300000000000D+00  1.4529124555020D-03 -2.9913873091560D-01
165  1.6400000000000D+00  2.6116710628204D-03 -2.7864347314797D-01
166  1.6500000000000D+00  3.4225611831752D-03 -2.5688457090321D-01
167  1.6600000000000D+00  3.9293443794522D-03 -2.3424299169190D-01
168  1.6700000000000D+00  4.1755937800763D-03 -2.1109181097212D-01
169  1.6800000000000D+00  4.2041653678874D-03 -1.8779323339714D-01
170  1.6900000000000D+00  4.0566831558711D-03 -1.6469570007589D-01
171  1.7000000000000D+00  3.7730433752393D-03 -1.4213110954706D-01
172  1.7100000000000D+00  3.3909405454220D-03 -1.2041216764011D-01
173  1.7200000000000D+00  2.9454211269382D-03 -9.9829897229313D-02
174  1.7300000000000D+00  2.4684664102251D-03 -8.0651316649832D-02
175  1.7400000000000D+00  1.9886105356803D-03 -6.3117318464524D-02
176  1.7500000000000D+00  1.5306751549448D-03 -4.7443067509098D-02
177  1.7600000000000D+00  1.1155060177287D-03 -3.3817482859863D-02
178  1.7700000000000D+00  7.5812741776824D-04 -2.2357601164055D-02
179  1.7800000000000D+00  4.6846326272175D-04 -1.3148460554423D-02
180  1.7900000000000D+00  2.6246752012413D-04 -6.4822522266683D-03
181  1.8000000000000D+00  1.4705608805104D-04 -2.4774475499666D-03
182  1.8100000000000D+00  8.8470870125557D-05 -5.6188693988857D-04
183  1.8200000000000D+00  4.4975999193424D-05  5.9876725018396D-05
184  1.8300000000000D+00  1.0166230940634D-05  5.8866236409355D-05
185  1.8400000000000D+00 -5.1954735788461D-06 -4.3033455752310D-05
186  1.8500000000000D+00 -3.7010702385993D-06 -3.8810851704571D-05
187  1.8600000000000D+00  8.6223592373419D-07  4.5468476407690D-06
188  1.8700000000000D+00  1.2296605626008D-06  7.4910814257652D-06
189  1.8800000000000D+00 -5.7789704531601D-08  2.4301128228826D-07
190  1.8900000000000D+00 -2.2156703600135D-07  9.3171076003781D-07
191  1.9000000000000D+00 -2.7694805244862D-08  1.1645932765753D-07
192  1.9100000000000D+00  0.0000000000000D+00  0.0000000000000D+00
193  1.9200000000000D+00  0.0000000000000D+00  0.0000000000000D+00
194  1.9300000000000D+00  0.0000000000000D+00  0.0000000000000D+00
195  1.9400000000000D+00  0.0000000000000D+00  0.0000000000000D+00
196  1.9500000000000D+00  0.0000000000000D+00  0.0000000000000D+00
197  1.9600000000000D+00  0.0000000000000D+00  0.0000000000000D+00
198  1.9700000000000D+00  0.0000000000000D+00  0.0000000000000D+00
199  1.9800000000000D+00  0.0000000000000D+00  0.0000000000000D+00
200  1.9900000000000D+00  0.0000000000000D+00  0.0000000000000D+00
201  2.0000000000000D+00  0.0000000000000D+00  0.0000000000000D+00
202  2.0100000000000D+00  0.0000000000000D+00  0.0000000000000D+00
203  2.0200000000000D+00  0.0000000000000D+00  0.0000000000000D+00
204  2.0300000000000D+00  0.0000000000000D+00  0.0000000000000D+00
205  2.0400000000000D+00  0.0000000000000D+00  0.0000000000000D+00
206  2.0500000000000D+00  0.0000000000000D+00  0.0000000000000D+00
207  2.0600000000000D+00  0.0000000000000D+00  0.0000000000000D+00
208  2.0700000000000D+00  0.0000000000000D+00  0.0000000000000D+00
209  2.0800000000000D+00  0.0000000000000D+00  0.0000000000000D+00
210  2.0900000000000D+00  0.0000000000000D+00  0.0000000000000D+00
211  2.1000000000000D+00  0.0000000000000D+00  0.0000000000000D+00
212  2.1100000000000D+00  0.0000000000000D+00  0.0000000000000D+00
213  2.1200000000000D+00  0.0000000000000D+00  0.0000000000000D+00
214  2.1300000000000D+00  0.0000000000000D+00  0.0000000000000D+00
215  2.1400000000000D+00  0.0000000000000D+00  0.0000000000000D+00
216  2.1500000000000D+00  0.0000000000000D+00  0.0000000000000D+00
217  2.1600000000000D+00  0.0000000000000D+00  0.0000000000000D+00
218  2.1700000000000D+00  0.0000000000000D+00  0.0000000000000D+00
219  2.1800000000000D+00  0.0000000000000D+00  0.0000000000000D+00
220  2.1900000000000D+00  0.0000000000000D+00  0.0000000000000D+00
221  2.2000000000000D+00  0.0000000000000D+00  0.0000000000000D+00
222  2.2100000000000D+00  0.0000000000000D+00  0.0000000000000D+00
223  2.2200000000000D+00  0.0000000000000D+00  0.0000000000000D+00
224  2.2300000000000D+00  0.0000000000000D+00  0.0000000000000D+00
225  2.2400000000000D+00  0.0000000000000D+00  0.0000000000000D+00
226  2.2500000000000D+00  0.0000000000000D+00  0.0000000000000D+00
227  2.2600000000000D+00  0.0000000000000D+00  0.0000000000000D+00
228  2.2700000000000D+00  0.0000000000000D+00  0.0000000000000D+00
229  2.2800000000000D+00  0.0000000000000D+00  0.0000000000000D+00
230  2.2900000000000D+00  0.0000000000000D+00  0.0000000000000D+00
231  2.3000000000000D+00  0.0000000000000D+00  0.0000000000000D+00
232  2.3100000000000D+00  0.0000000000000D+00  0.0000000000000D+00
233  2.3200000000000D+00  0.0000000000000D+00  0.0000000000000D+00
234  2.3300000000000D+00  0.0000000000000D+00  0.0000000000000D+00
235  2.3400000000000D+00  0.0000000000000D+00  0.0000000000000D+00
236  2.3500000000000D+00  0.0000000000000D+00  0.0000000000000D+00
237  2.3600000000000D+00  0.0000000000000D+00  0.0000000000000D+00
238  2.3700000000000D+00  0.0000000000000D+00  0.0000000000000D+00
239  2.3800000000000D+00  0.0000000000000D+00  0.0000000000000D+00
240  2.3900000000000D+00  0.0000000000000D+00  0.0000000000000D+00
241  2.4000000000000D+00  0.0000000000000D+00  0.0000000000000D+00
242  2.4100000000000D+00  0.0000000000000D+00  0.0000000000000D+00
243  2.4200000000000D+00  0.0000000000000D+00  0.0000000000000D+00
244  2.4300000000000D+00  0.0000000000000D+00  0.0000000000000D+00
245  2.4400000000000D+00  0.0000000000000D+00  0.0000000000000D+00
246  2.4500000000000D+00  0.0000000000000D+00  0.0000000000000D+00
247  2.4600000000000D+00  0.0000000000000D+00  0.0000000000000D+00
248  2.4700000000000D+00  0.0000000000000D+00  0.0000000000000D+00
249  2.4800000000000D+00  0.0000000000000D+00  0.0000000000000D+00
250  2.4900000000000D+00  0.0000000000000D+00  0.0000000000000D+00
251  2.5000000000000D+00  0.0000000000000D+00  0.0000000000000D+00
252  2.5100000000000D+00  0.0000000000000D+00  0.0000000000000D+00
253  2.5200000000000D+00  0.0000000000000D+00  0.0000000000000D+00
254  2.5300000000000D+00  0.0000000000000D+00  0.0000000000000D+00
255  2.5400000000000D+00  0.0000000000000D+00  0.0000000000000D+00
256  2.5500000000000D+00  0.0000000000000D+00  0.0000000000000D+00
257  2.5600000000000D+00  0.0000000000000D+00  0.0000000000000D+00
258  2.5700000000000D+00  0.0000000000000D+00  0.0000000000000D+00
259  2.5800000000000D+00  0.0000000000000D+00  0.0000000000000D+00
260  2.5900000000000D+00  0.0000000000000D+00  0.0000000000000D+00
261  2.6000000000000D+00  0.0000000000000D+00  0.0000000000000D+00
262  2.6100000000000D+00  0.0000000000000D+00  0.0000000000000D+00
263  2.6200000000000D+00  0.0000000000000D+00  0.0000000000000D+00
264  2.6300000000000D+00  0.0000000000000D+00  0.0000000000000D+00
265  2.6400000000000D+00  0.0000000000000D+00  0.0000000000000D+00
266  2.6500000000000D+00  0.0000000000000D+00  0.0000000000000D+00
267  2.6600000000000D+00  0.0000000000000D+00  0.0000000000000D+00
268  2.6700000000000D+00  0.0000000000000D+00  0.0000000000000D+00
269  2.6800000000000D+00  0.0000000000000D+00  0.0000000000000D+00
270  2.6900000000000D+00  0.0000000000000D+00  0.0000000000000D+00
271  2.7000000000000D+00  0.0000000000000D+00  0.0000000000000D+00
272  2.7100000000000D+00  0.0000000000000D+00  0.0000000000000D+00
273  2.7200000000000D+00  0.0000000000000D+00  0.0000000000000D+00
274  2.7300000000000D+00  0.0000000000000D+00  0.0000000000000D+00
275  2.7400000000000D+00  0.0000000000000D+00  0.0000000000000D+00
276  2.7500000000000D+00  0.0000000000000D+00  0.0000000000000D+00
277  2.7600000000000D+00  0.0000000000000D+00  0.0000000000000D+00
278  2.7700000000000D+00  0.0000000000000D+00  0.0000000000000D+00
279  2.7800000000000D+00  0.0000000000000D+00  0.0000000000000D+00
280  2.7900000000000D+00  0.0000000000000D+00  0.0000000000000D+00
281  2.8000000000000D+00  0.0000000000000D+00  0.0000000000000D+00
282  2.8100000000000D+00  0.0000000000000D+00  0.0000000000000D+00
283  2.8200000000000D+00  0.0000000000000D+00  0.0000000000000D+00
284  2.8300000000000D+00  0.0000000000000D+00  0.0000000000000D+00
285  2.8400000000000D+00  0.0000000000000D+00  0.0000000000000D+00
286  2.8500000000000D+00  0.0000000000000D+00  0.0000000000000D+00
287  2.8600000000000D+00  0.0000000000000D+00  0.0000000000000D+00
288  2.8700000000000D+00  0.0000000000000D+00  0.0000000000000D+00
289  2.8800000000000D+00  0.0000000000000D+00  0.0000000000000D+00
290  2.8900000000000D+00  0.0000000000000D+00  0.0000000000000D+00
291  2.9000000000000D+00  0.0000000000000D+00  0.0000000000000D+00
292  2.9100000000000D+00  0.0000000000000D+00  0.0000000000000D+00
293  2.9200000000000D+00  0.0000000000000D+00  0.0000000000000D+00
294  2.9300000000000D+00  0.0000000000000D+00  0.0000000000000D+00
295  2.9400000000000D+00  0.0000000000000D+00  0.0000000000000D+00
296  2.9500000000000D+00  0.0000000000000D+00  0.0000000000000D+00
297  2.9600000000000D+00  0.0000000000000D+00  0.0000000000000D+00
298  2.9700000000000D+00  0.0000000000000D+00  0.0000000000000D+00
299  2.9800000000000D+00  0.0000000000000D+00  0.0000000000000D+00
300  2.9900000000000D+00  0.0000000000000D+00  0.0000000000000D+00
301  3.0000000000000D+00  0.0000000000000D+00  0.0000000000000D+00
302  3.0100000000000D+00  0.0000000000000D+00  0.0000000000000D+00
303  3.0200000000000D+00  0.0000000000000D+00  0.0000000000000D+00
304  3.0300000000000D+00  0.0000000000000D+00  0.0000000000000D+00
305  3.0400000000000D+00  0.0000000000000D+00  0.0000000000000D+00
306  3.0500000000000D+00  0.0000000000000D+00  0.0000000000000D+00
307  3.0600000000000D+00  0.0000000000000D+00  0.0000000000000D+00
308  3.0700000000000D+00  0.0000000000000D+00  0.0000000000000D+00
309  3.0800000000000D+00  0.0000000000000D+00  0.0000000000000D+00
310  3.0900000000000D+00  0.0000000000000D+00  0.0000000000000D+00
311  3.1000000000000D+00  0.0000000000000D+00  0.0000000000000D+00
312  3.1100000000000D+00  0.0000000000000D+00  0.0000000000000D+00
313  3.1200000000000D+00  0.0000000000000D+00  0.0000000000000D+00
314  3.1300000000000D+00  0.0000000000000D+00  0.0000000000000D+00
315  3.1400000000000D+00  0.0000000000000D+00  0.0000000000000D+00
316  3.1500000000000D+00  0.0000000000000D+00  0.0000000000000D+00
317  3.1600000000000D+00  0.0000000000000D+00  0.0000000000000D+00
318  3.1700000000000D+00  0.0000000000000D+00  0.0000000000000D+00
319  3.1800000000000D+00  0.0000000000000D+00  0.0000000000000D+00
320  3.1900000000000D+00  0.0000000000000D+00  0.0000000000000D+00
321  3.2000000000000D+00  0.0000000000000D+00  0.0000000000000D+00
322  3.2100000000000D+00  0.0000000000000D+00  0.0000000000000D+00
323  3.2200000000000D+00  0.0000000000000D+00  0.0000000000000D+00
324  3.2300000000000D+00  0.0000000000000D+00  0.0000000000000D+00
325  3.2400000000000D+00  0.0000000000000D+00  0.0000000000000D+00
326  3.2500000000000D+00  0.0000000000000D+00  0.0000000000000D+00
327  3.2600000000000D+00  0.0000000000000D+00  0.0000000000000D+00
328  3.2700000000000D+00  0.0000000000000D+00  0.0000000000000D+00
329  3.2800000000000D+00  0.0000000000000D+00  0.0000000000000D+00
330  3.2900000000000D+00  0.0000000000000D+00  0.0000000000000D+00
331  3.3000000000000D+00  0.0000000000000D+00  0.0000000000000D+00
332  3.3100000000000D+00  0.0000000000000D+00  0.0000000000000D+00
333  3.3200000000000D+00  0.0000000000000D+00  0.0000000000000D+00
334  3.3300000000000D+00  0.0000000000000D+00  0.0000000000000D+00
335  3.3400000000000D+00  0.0000000000000D+00  0.0000000000000D+00
336  3.3500000000000D+00  0.0000000000000D+00  0.0000000000000D+00
337  3.3600000000000D+00  0.0000000000000D+00  0.0000000000000D+00
338  3.3700000000000D+00  0.0000000000000D+00  0.0000000000000D+00
339  3.3800000000000D+00  0.0000000000000D+00  0.0000000000000D+00
340  3.3900000000000D+00  0.0000000000000D+00  0.0000000000000D+00
341  3.4000000000000D+00  0.0000000000000D+00  0.0000000000000D+00
342  3.4100000000000D+00  0.0000000000000D+00  0.0000000000000D+00
343  3.4200000000000D+00  0.0000000000000D+00  0.0000000000000D+00
344  3.4300000000000D+00  0.0000000000000D+00  0.0000000000000D+00
345  3.4400000000000D+00  0.0000000000000D+00  0.0000000000000D+00
346  3.4500000000000D+00  0.0000000000000D+00  0.0000000000000D+00
347  3.4600000000000D+00  0.0000000000000D+00  0.0000000000000D+00
348  3.4700000000000D+00  0.0000000000000D+00  0.0000000000000D+00
349  3.4800000000000D+00  0.0000000000000D+00  0.0000000000000D+00
350  3.4900000000000D+00  0.0000000000000D+00  0.0000000000000D+00
351  3.5000000000000D+00  0.0000000000000D+00  0.0000000000000D+00
352  3.5100000000000D+00  0.0000000000000D+00  0.0000000000000D+00
353  3.5200000000000D+00  0.0000000000000D+00  0.0000000000000D+00
354  3.5300000000000D+00  0.0000000000000D+00  0.0000000000000D+00
355  3.5400000000000D+00  0.0000000000000D+00  0.0000000000000D+00
356  3.5500000000000D+00  0.0000000000000D+00  0.0000000000000D+00
357  3.5600000000000D+00  0.0000000000000D+00  0.0000000000000D+00
358  3.5700000000000D+00  0.0000000000000D+00  0.0000000000000D+00
359  3.5800000000000D+00  0.0000000000000D+00  0.0000000000000D+00
360  3.5900000000000D+00  0.0000000000000D+00  0.0000000000000D+00
361  3.6000000000000D+00  0.0000000000000D+00  0.0000000000000D+00
362  3.6100000000000D+00  0.0000000000000D+00  0.0000000000000D+00
363  3.6200000000000D+00  0.0000000000000D+00  0.0000000000000D+00
364  3.6300000000000D+00  0.0000000000000D+00  0.0000000000000D+00
365  3.6400000000000D+00  0.0000000000000D+00  0.0000000000000D+00
366  3.6500000000000D+00  0.0000000000000D+00  0.0000000000000D+00
367  3.6600000000000D+00  0.0000000000000D+00  0.0000000000000D+00
368  3.6700000000000D+00  0.0000000000000D+00  0.0000000000000D+00
369  3.6800000000000D+00  0.0000000000000D+00  0.0000000000000D+00
370  3.6900000000000D+00  0.0000000000000D+00  0.0000000000000D+00
371  3.7000000000000D+00  0.0000000000000D+00  0.0000000000000D+00
372  3.7100000000000D+00  0.0000000000000D+00  0.0000000000000D+00
373  3.7200000000000D+00  0.0000000000000D+00  0.0000000000000D+00
374  3.7300000000000D+00  0.0000000000000D+00  0.0000000000000D+00
375  3.7400000000000D+00  0.0000000000000D+00  0.0000000000000D+00
376  3.7500000000000D+00  0.0000000000000D+00  0.0000000000000D+00
377  3.7600000000000D+00  0.0000000000000D+00  0.0000000000000D+00
378  3.7700000000000D+00  0.0000000000000D+00  0.0000000000000D+00
379  3.7800000000000D+00  0.0000000000000D+00  0.0000000000000D+00
380  3.7900000000000D+00  0.0000000000000D+00  0.0000000000000D+00
381  3.8000000000000D+00  0.0000000000000D+00  0.0000000000000D+00
382  3.8100000000000D+00  0.0000000000000D+00  0.0000000000000D+00
383  3.8200000000000D+00  0.0000000000000D+00  0.0000000000000D+00
384  3.8300000000000D+00  0.0000000000000D+00  0.0000000000000D+00
385  3.8400000000000D+00  0.0000000000000D+00  0.0000000000000D+00
386  3.8500000000000D+00  0.0000000000000D+00  0.0000000000000D+00
387  3.8600000000000D+00  0.0000000000000D+00  0.0000000000000D+00
388  3.8700000000000D+00  0.0000000000000D+00  0.0000000000000D+00
389  3.8800000000000D+00  0.0000000000000D+00  0.0000000000000D+00
390  3.8900000000000D+00  0.0000000000000D+00  0.0000000000000D+00
391  3.9000000000000D+00  0.0000000000000D+00  0.0000000000000D+00
392  3.9100000000000D+00  0.0000000000000D+00  0.0000000000000D+00
393  3.9200000000000D+00  0.0000000000000D+00  0.0000000000000D+00
394  3.9300000000000D+00  0.0000000000000D+00  0.0000000000000D+00
395  3.9400000000000D+00  0.0000000000000D+00  0.0000000000000D+00
396  3.9500000000000D+00  0.0000000000000D+00  0.0000000000000D+00
397  3.9600000000000D+00  0.0000000000000D+00  0.0000000000000D+00
398  3.9700000000000D+00  0.0000000000000D+00  0.0000000000000D+00
399  3.9800000000000D+00  0.0000000000000D+00  0.0000000000000D+00
400  3.9900000000000D+00  0.0000000000000D+00  0.0000000000000D+00
401  4.0000000000000D+00  0.0000000000000D+00  0.0000000000000D+00
402  4.0100000000000D+00  0.0000000000000D+00  0.0000000000000D+00
403  4.0200000000000D+00  0.0000000000000D+00  0.0000000000000D+00
404  4.0300000000000D+00  0.0000000000000D+00  0.0000000000000D+00
405  4.0400000000000D+00  0.0000000000000D+00  0.0000000000000D+00
406  4.0500000000000D+00  0.0000000000000D+00  0.0000000000000D+00
407  4.0600000000000D+00  0.0000000000000D+00  0.0000000000000D+00
408  4.0700000000000D+00  0.0000000000000D+00  0.0000000000000D+00
409  4.0800000000000D+00  0.0000000000000D+00  0.0000000000000D+00
410  4.0900000000000D+00  0.0000000000000D+00  0.0000000000000D+00
411  4.1000000000000D+00  0.0000000000000D+00  0.0000000000000D+00
412  4.1100000000000D+00  0.0000000000000D+00  0.0000000000000D+00
413  4.1200000000000D+00  0.0000000000000D+00  0.0000000000000D+00
414  4.1300000000000D+00  0.0000000000000D+00  0.0000000000000D+00
415  4.1400000000000D+00  0.0000000000000D+00  0.0000000000000D+00
416  4.1500000000000D+00  0.0000000000000D+00  0.0000000000000D+00
417  4.1600000000000D+00  0.0000000000000D+00  0.0000000000000D+00
418  4.1700000000000D+00  0.0000000000000D+00  0.0000000000000D+00
419  4.1800000000000D+00  0.0000000000000D+00  0.0000000000000D+00
420  4.1900000000000D+00  0.0000000000000D+00  0.0000000000000D+00
421  4.2000000000000D+00  0.0000000000000D+00  0.0000000000000D+00
422  4.2100000000000D+00  0.0000000000000D+00  0.0000000000000D+00
423  4.2200000000000D+00  0.0000000000000D+00  0.0000000000000D+00
424  4.2300000000000D+00  0.0000000000000D+00  0.0000000000000D+00
425  4.2400000000000D+00  0.0000000000000D+00  0.0000000000000D+00
426  4.2500000000000D+00  0.0000000000000D+00  0.0000000000000D+00
427  4.2600000000000D+00  0.0000000000000D+00  0.0000000000000D+00
428  4.2700000000000D+00  0.0000000000000D+00  0.0000000000000D+00
429  4.2800000000000D+00  0.0000000000000D+00  0.0000000000000D+00
430  4.2900000000000D+00  0.0000000000000D+00  0.0000000000000D+00
431  4.3000000000000D+00  0.0000000000000D+00  0.0000000000000D+00
432  4.3100000000000D+00  0.0000000000000D+00  0.0000000000000D+00
433  4.3200000000000D+00  0.0000000000000D+00  0.0000000000000D+00
434  4.3300000000000D+00  0.0000000000000D+00  0.0000000000000D+00
435  4.3400000000000D+00  0.0000000000000D+00  0.0000000000000D+00
436  4.3500000000000D+00  0.0000000000000D+00  0.0000000000000D+00
437  4.3600000000000D+00  0.0000000000000D+00  0.0000000000000D+00
438  4.3700000000000D+00  0.0000000000000D+00  0.0000000000000D+00
439  4.3800000000000D+00  0.0000000000000D+00  0.0000000000000D+00
440  4.3900000000000D+00  0.0000000000000D+00  0.0000000000000D+00
441  4.4000000000000D+00  0.0000000000000D+00  0.0000000000000D+00
442  4.4100000000000D+00  0.0000000000000D+00  0.0000000000000D+00
443  4.4200000000000D+00  0.0000000000000D+00  0.0000000000000D+00