Sb    ONCVPSP-3.2.3  r_core=   2.00182   2.12485   1.81962
51.0000     15.0000      170222    zatom,zion,pspd
8      11   2     4   600     0    pspcod,pspxc,lmax,lloc,mmax,r2well
5.99000000  5.00000000  0.00000000    rchrg fchrg qchrg
2     3     3     0    nproj
3     1           extension_switch
4     4     0    nprojso
0                         7.3410121814987D-01  6.8390807732118D+00
1  0.0000000000000D+00  1.3537754250947D-11 -9.1074647823319D-12
2  1.0000000000000D-02 -2.6063764205947D-02  2.5115498130898D-02
3  2.0000000000000D-02 -5.2050463165582D-02  5.0193265614256D-02
4  3.0000000000000D-02 -7.7883333553874D-02  7.5195739521232D-02
5  4.0000000000000D-02 -1.0348621468457D-01  1.0008569162346D-01
6  5.0000000000000D-02 -1.2878384682346D-01  1.2482639390321D-01
7  6.0000000000000D-02 -1.5370216590359D-01  1.4938178186187D-01
8  7.0000000000000D-02 -1.7816859345868D-01  1.7371661490329D-01
9  8.0000000000000D-02 -2.0211232060429D-01  1.9779663307788D-01
10  9.0000000000000D-02 -2.2546458491306D-01  2.2158870948438D-01
11  1.0000000000000D-01 -2.4815893905068D-01  2.4506099764018D-01
12  1.1000000000000D-01 -2.7013151006272D-01  2.6818307314676D-01
13  1.2000000000000D-01 -2.9132124822972D-01  2.9092606899529D-01
14  1.3000000000000D-01 -3.1167016443863D-01  3.1326280387773D-01
15  1.4000000000000D-01 -3.3112355505301D-01  3.3516790289196D-01
16  1.5000000000000D-01 -3.4963021330230D-01  3.5661791005436D-01
17  1.6000000000000D-01 -3.6714262625185D-01  3.7759139206101D-01
18  1.7000000000000D-01 -3.8361715646110D-01  3.9806903276846D-01
19  1.8000000000000D-01 -3.9901420748559D-01  4.1803371789696D-01
20  1.9000000000000D-01 -4.1329837243175D-01  4.3747060949370D-01
21  2.0000000000000D-01 -4.2643856482928D-01  4.5636720973018D-01
22  2.1000000000000D-01 -4.3840813114620D-01  4.7471341364654D-01
23  2.2000000000000D-01 -4.4918494433519D-01  4.9250155049689D-01
24  2.3000000000000D-01 -4.5875147786718D-01  5.0972641339277D-01
25  2.4000000000000D-01 -4.6709485977868D-01  5.2638527698698D-01
26  2.5000000000000D-01 -4.7420690633375D-01  5.4247790298718D-01
27  2.6000000000000D-01 -4.8008413497872D-01  5.5800653333758D-01
28  2.7000000000000D-01 -4.8472775634850D-01  5.7297587095786D-01
29  2.8000000000000D-01 -4.8814364516658D-01  5.8739304798051D-01
30  2.9000000000000D-01 -4.9034228996742D-01  6.0126758148203D-01
31  3.0000000000000D-01 -4.9133872165834D-01  6.1461131675787D-01
32  3.1000000000000D-01 -4.9115242102945D-01  6.2743835824790D-01
33  3.2000000000000D-01 -4.8980720541237D-01  6.3976498827570D-01
34  3.3000000000000D-01 -4.8733109478428D-01  6.5160957382348D-01
35  3.4000000000000D-01 -4.8375615770831D-01  6.6299246162219D-01
36  3.5000000000000D-01 -4.7911833759911D-01  6.7393586189559D-01
37  3.6000000000000D-01 -4.7345725989910D-01  6.8446372115543D-01
38  3.7000000000000D-01 -4.6681602084826D-01  6.9460158450324D-01
39  3.8000000000000D-01 -4.5924095862719D-01  7.0437644795242D-01
40  3.9000000000000D-01 -4.5078140774892D-01  7.1381660134097D-01
41  4.0000000000000D-01 -4.4148943766965D-01  7.2295146246154D-01
42  4.1000000000000D-01 -4.3141957668086D-01  7.3181140308950D-01
43  4.2000000000000D-01 -4.2062852223529D-01  7.4042756764290D-01
44  4.3000000000000D-01 -4.0917483894640D-01  7.4883168525839D-01
45  4.4000000000000D-01 -3.9711864558398D-01  7.5705587611575D-01
46  4.5000000000000D-01 -3.8452129246795D-01  7.6513245288890D-01
47  4.6000000000000D-01 -3.7144503073665D-01  7.7309371824377D-01
48  4.7000000000000D-01 -3.5795267503495D-01  7.8097175934240D-01
49  4.8000000000000D-01 -3.4410726123065D-01  7.8879824034792D-01
50  4.9000000000000D-01 -3.2997170082453D-01  7.9660419395646D-01
51  5.0000000000000D-01 -3.1560843376876D-01  8.0441981300870D-01
52  5.1000000000000D-01 -3.0107908145112D-01  8.1227424325651D-01
53  5.2000000000000D-01 -2.8644410163618D-01  8.2019537837724D-01
54  5.3000000000000D-01 -2.7176244718098D-01  8.2820965834082D-01
55  5.4000000000000D-01 -2.5709123035894D-01  8.3634187224163D-01
56  5.5000000000000D-01 -2.4248539463454D-01  8.4461496670857D-01
57  5.6000000000000D-01 -2.2799739572805D-01  8.5304986100248D-01
58  5.7000000000000D-01 -2.1367689379894D-01  8.6166526989958D-01
59  5.8000000000000D-01 -1.9957045855391D-01  8.7047753544356D-01
60  5.9000000000000D-01 -1.8572128905371D-01  8.7950046862641D-01
61  6.0000000000000D-01 -1.7216894994953D-01  8.8874520202929D-01
62  6.1000000000000D-01 -1.5894912582727D-01  8.9822005442026D-01
63  6.2000000000000D-01 -1.4609339527331D-01  9.0793040826445D-01
64  6.3000000000000D-01 -1.3362902620166D-01  9.1787860105494D-01
65  6.4000000000000D-01 -1.2157879389730D-01  9.2806383131973D-01
66  6.5000000000000D-01 -1.0996082313570D-01  9.3848208010067D-01
67  6.6000000000000D-01 -9.8788455633991D-02  9.4912604863559D-01
68  6.7000000000000D-01 -8.8070143974068D-02  9.5998511290402D-01
69  6.8000000000000D-01 -7.7809373015371D-02  9.7104529562148D-01
70  6.9000000000000D-01 -6.8004609682069D-02  9.8228925618631D-01
71  7.0000000000000D-01 -5.8649281869274D-02  9.9369629899760D-01
72  7.1000000000000D-01 -4.9731787064825D-02  1.0052424004730D+00
73  7.2000000000000D-01 -4.1235531128616D-02  1.0169002550012D+00
74  7.3000000000000D-01 -3.3138997510104D-02  1.0286393399676D+00
75  7.4000000000000D-01 -2.5415847019278D-02  1.0404259998904D+00
76  7.5000000000000D-01 -1.8035048094521D-02  1.0522235496018D+00
77  7.6000000000000D-01 -1.0961037337668D-02  1.0639923963063D+00
78  7.7000000000000D-01 -4.1539099091735D-03  1.0756901802389D+00
79  7.8000000000000D-01  2.4303608015349D-03  1.0872719335418D+00
80  7.9000000000000D-01  8.8396749949021D-03  1.0986902568699D+00
81  8.0000000000000D-01  1.5125530711503D-02  1.1098955131301D+00
82  8.1000000000000D-01  2.1342721632560D-02  1.1208360376514D+00
83  8.2000000000000D-01  2.7549009724006D-02  1.1314583639815D+00
84  8.3000000000000D-01  3.3804774187105D-02  1.1417074644033D+00
85  8.4000000000000D-01  4.0172638343737D-02  1.1515270041649D+00
86  8.5000000000000D-01  4.6717076243541D-02  1.1608596083235D+00
87  8.6000000000000D-01  5.3504000931871D-02  1.1696471400128D+00
88  8.7000000000000D-01  6.0600336460958D-02  1.1778309888557D+00
89  8.8000000000000D-01  6.8073575860729D-02  1.1853523681672D+00
90  8.9000000000000D-01  7.5991327409515D-02  1.1921526195151D+00
91  9.0000000000000D-01  8.4420851657049D-02  1.1981735231414D+00
92  9.1000000000000D-01  9.3428591752492D-02  1.2033576126843D+00
93  9.2000000000000D-01  1.0307969971652D-01  1.2076484925905D+00
94  9.3000000000000D-01  1.1343756136962D-01  1.2109911565622D+00
95  9.4000000000000D-01  1.2456332268683D-01  1.2133323053466D+00
96  9.5000000000000D-01  1.3651542039167D-01  1.2146206621508D+00
97  9.6000000000000D-01  1.4934911962866D-01  1.2148072839451D+00
98  9.7000000000000D-01  1.6311606156393D-01  1.2138458669124D+00
99  9.8000000000000D-01  1.7786382375683D-01  1.2116930443006D+00
100  9.9000000000000D-01  1.9363549612145D-01  1.2083086749497D+00
101  1.0000000000000D+00  2.1046927525594D-01  1.2036561207839D+00
102  1.0100000000000D+00  2.2839807985678D-01  1.1977025115963D+00
103  1.0200000000000D+00  2.4744918986395D-01  1.1904189954882D+00
104  1.0300000000000D+00  2.6764391188320D-01  1.1817809733862D+00
105  1.0400000000000D+00  2.8899727332523D-01  1.1717683161170D+00
106  1.0500000000000D+00  3.1151774757368D-01  1.1603655625922D+00
107  1.0600000000000D+00  3.3520701234654D-01  1.1475620977408D+00
108  1.0700000000000D+00  3.6005974326152D-01  1.1333523089147D+00
109  1.0800000000000D+00  3.8606344444287D-01  1.1177357195880D+00
110  1.0900000000000D+00  4.1319831780941D-01  1.1007170992898D+00
111  1.1000000000000D+00  4.4143717249395D-01  1.0823065488133D+00
112  1.1100000000000D+00  4.7074537560885D-01  1.0625195598823D+00
113  1.1200000000000D+00  5.0108084538823D-01  1.0413770485616D+00
114  1.1300000000000D+00  5.3239408745643D-01  1.0189053618591D+00
115  1.1400000000000D+00  5.6462827475733D-01  9.9513625709019D-01
116  1.1500000000000D+00  5.9771937139753D-01  9.7010685374161D-01
117  1.1600000000000D+00  6.3159630045691D-01  9.4385955768142D-01
118  1.1700000000000D+00  6.6618115549502D-01  9.1644195775528D-01
119  1.1800000000000D+00  7.0138945524846D-01  8.8790669494120D-01
120  1.1900000000000D+00  7.3713044071244D-01  8.5831130441165D-01
121  1.2000000000000D+00  7.7330741363588D-01  8.2771803094710D-01
122  1.2100000000000D+00  8.0981811505175D-01  7.9619361838203D-01
123  1.2200000000000D+00  8.4655514227152D-01  7.6380907387818D-01
124  1.2300000000000D+00  8.8340640256777D-01  7.3063940793872D-01
125  1.2400000000000D+00  9.2025560143831D-01  6.9676335127154D-01
126  1.2500000000000D+00  9.5698276309907D-01  6.6226304975470D-01
127  1.2600000000000D+00  9.9346478069725D-01  6.2722373884931D-01
128  1.2700000000000D+00  1.0295759934810D+00  5.9173339895558D-01
129  1.2800000000000D+00  1.0651887878750D+00  5.5588239337946D-01
130  1.2900000000000D+00  1.1001742193439D+00  5.1976309061778D-01
131  1.3000000000000D+00  1.1344026516980D+00  4.8346947280586D-01
132  1.3100000000000D+00  1.1677444102450D+00  4.4709673232401D-01
133  1.3200000000000D+00  1.2000704452091D+00  4.1074085855130D-01
134  1.3300000000000D+00  1.2312530015968D+00  3.7449821689931D-01
135  1.3400000000000D+00  1.2611662915770D+00  3.3846512233679D-01
136  1.3500000000000D+00  1.2896871654736D+00  3.0273740959272D-01
137  1.3600000000000D+00  1.3166957772514D+00  2.6741000236640D-01
138  1.3700000000000D+00  1.3420762404608D+00  2.3257648383395D-01
139  1.3800000000000D+00  1.3657172705096D+00  1.9832867078709D-01
140  1.3900000000000D+00  1.3875128091683D+00  1.6475619375000D-01
141  1.4000000000000D+00  1.4073626272658D+00  1.3194608538015D-01
142  1.4100000000000D+00  1.4251729014452D+00  9.9982379519150D-02
143  1.4200000000000D+00  1.4408567612385D+00  6.8945723063309D-02
144  1.4300000000000D+00  1.4543348023150D+00  3.8913003027798D-02
145  1.4400000000000D+00  1.4655355624298D+00  9.9569908424789D-03
146  1.4500000000000D+00  1.4743959563627D+00 -1.7853993969880D-02
147  1.4600000000000D+00  1.4808616662565D+00 -4.4456398632649D-02
148  1.4700000000000D+00  1.4848874845673D+00 -6.9791728806182D-02
149  1.4800000000000D+00  1.4864376058139D+00 -9.3806814911016D-02
150  1.4900000000000D+00  1.4854858651716D+00 -1.1645405186337D-01
151  1.5000000000000D+00  1.4820159204988D+00 -1.3769161021863D-01
152  1.5100000000000D+00  1.4760213759845D+00 -1.5748361758018D-01
153  1.5200000000000D+00  1.4675058451873D+00 -1.7580030891133D-01
154  1.5300000000000D+00  1.4564829513074D+00 -1.9261814441805D-01
155  1.5400000000000D+00  1.4429762640578D+00 -2.0791989451402D-01
156  1.5500000000000D+00  1.4270191704776D+00 -2.2169469026105D-01
157  1.5600000000000D+00  1.4086546796508D+00 -2.3393803966197D-01
158  1.5700000000000D+00  1.3879351620647D+00 -2.4465180823407D-01
159  1.5800000000000D+00  1.3649220168109D+00 -2.5384416422058D-01
160  1.5900000000000D+00  1.3396852903335D+00 -2.6152948955096D-01
161  1.6000000000000D+00  1.3123033025306D+00 -2.6772825782085D-01
162  1.6100000000000D+00  1.2828617466946D+00 -2.7246685568241D-01
163  1.6200000000000D+00  1.2514534049181D+00 -2.7577740357006D-01
164  1.6300000000000D+00  1.2181786337658D+00 -2.7769756672141D-01
165  1.6400000000000D+00  1.1831456035424D+00 -2.7827036142683D-01
166  1.6500000000000D+00  1.1464708973734D+00 -2.7754397992027D-01
167  1.6600000000000D+00  1.1082793572447D+00 -2.7557156035678D-01
168  1.6700000000000D+00  1.0687032218317D+00 -2.7241091858090D-01
169  1.6800000000000D+00  1.0278816113192D+00 -2.6812426676696D-01
170  1.6900000000000D+00  9.8595997098963D-01 -2.6277790780622D-01
171  1.7000000000000D+00  9.4308942163973D-01 -2.5644190927959D-01
172  1.7100000000000D+00  8.9942611143896D-01 -2.4918975940174D-01
173  1.7200000000000D+00  8.5513053172362D-01 -2.4109800576655D-01
174  1.7300000000000D+00  8.1036681408509D-01 -2.3224587930611D-01
175  1.7400000000000D+00  7.6530200978925D-01 -2.2271490523703D-01
176  1.7500000000000D+00  7.2010535480599D-01 -2.1258850299430D-01
177  1.7600000000000D+00  6.7494752414019D-01 -2.0195157725586D-01
178  1.7700000000000D+00  6.2999987873458D-01 -1.9089010199469D-01
179  1.7800000000000D+00  5.8543370843818D-01 -1.7949069978956D-01
180  1.7900000000000D+00  5.4141947447506D-01 -1.6784021835217D-01
181  1.8000000000000D+00  4.9812605443506D-01 -1.5602530640147D-01
182  1.8100000000000D+00  4.5571999359609D-01 -1.4413199105108D-01
183  1.8200000000000D+00  4.1436476485197D-01 -1.3224525842352D-01
184  1.8300000000000D+00  3.7422004166030D-01 -1.2044864014268D-01
185  1.8400000000000D+00  3.3544098527989D-01 -1.0882380663538D-01
186  1.8500000000000D+00  2.9817755144244D-01 -9.7450170595051D-02
187  1.8600000000000D+00  2.6257381686793D-01 -8.6404500730840D-02
188  1.8700000000000D+00  2.2876733092477D-01 -7.5760549460811D-02
189  1.8800000000000D+00  1.9688849280504D-01 -6.5588694500364D-02
190  1.8900000000000D+00  1.6705995873443D-01 -5.5955597480488D-02
191  1.9000000000000D+00  1.3939608045331D-01 -4.6923880198530D-02
192  1.9100000000000D+00  1.1400237769001D-01 -3.8551820226032D-02
193  1.9200000000000D+00  9.0975047843330D-02 -3.0893067994382D-02
194  1.9300000000000D+00  7.0400512473485D-02 -2.3996384775365D-02
195  1.9400000000000D+00  5.2369799463522D-02 -1.7910532072247D-02
196  1.9500000000000D+00  3.6915292984505D-02 -1.2662266837751D-02
197  1.9600000000000D+00  2.4041429311865D-02 -8.2669108573560D-03
198  1.9700000000000D+00  1.3894360670771D-02 -4.7870577138348D-03
199  1.9800000000000D+00  6.6756953339301D-03 -2.3025935287326D-03
200  1.9900000000000D+00  2.3352253777360D-03 -8.0423423896796D-04
201  2.0000000000000D+00  2.4278832192582D-04 -8.0241576722478D-05
202  2.0100000000000D+00 -3.5287309269836D-04  1.2507850037544D-04
203  2.0200000000000D+00 -1.9154928083214D-04  6.7408586920893D-05
204  2.0300000000000D+00  7.0639571489710D-05 -2.4753209812663D-05
205  2.0400000000000D+00  1.0727231382911D-04 -3.7554844060623D-05
206  2.0500000000000D+00  1.9740146677532D-06 -6.9078762944755D-07
207  2.0600000000000D+00 -2.0349936960489D-05  7.1168857869579D-06
208  2.0700000000000D+00 -1.1291373486029D-05  3.9464185428850D-06
209  2.0800000000000D+00 -9.0599447927988D-08  2.4065332236172D-08
210  2.0900000000000D+00 -1.2215101065931D-07  3.2446165200002D-08
211  2.1000000000000D+00  0.0000000000000D+00  0.0000000000000D+00
212  2.1100000000000D+00  0.0000000000000D+00  0.0000000000000D+00
213  2.1200000000000D+00  0.0000000000000D+00  0.0000000000000D+00
214  2.1300000000000D+00  0.0000000000000D+00  0.0000000000000D+00
215  2.1400000000000D+00  0.0000000000000D+00  0.0000000000000D+00
216  2.1500000000000D+00  0.0000000000000D+00  0.0000000000000D+00
217  2.1600000000000D+00  0.0000000000000D+00  0.0000000000000D+00
218  2.1700000000000D+00  0.0000000000000D+00  0.0000000000000D+00
219  2.1800000000000D+00  0.0000000000000D+00  0.0000000000000D+00
220  2.1900000000000D+00  0.0000000000000D+00  0.0000000000000D+00
221  2.2000000000000D+00  0.0000000000000D+00  0.0000000000000D+00
222  2.2100000000000D+00  0.0000000000000D+00  0.0000000000000D+00
223  2.2200000000000D+00  0.0000000000000D+00  0.0000000000000D+00
224  2.2300000000000D+00  0.0000000000000D+00  0.0000000000000D+00
225  2.2400000000000D+00  0.0000000000000D+00  0.0000000000000D+00
226  2.2500000000000D+00  0.0000000000000D+00  0.0000000000000D+00
227  2.2600000000000D+00  0.0000000000000D+00  0.0000000000000D+00
228  2.2700000000000D+00  0.0000000000000D+00  0.0000000000000D+00
229  2.2800000000000D+00  0.0000000000000D+00  0.0000000000000D+00
230  2.2900000000000D+00  0.0000000000000D+00  0.0000000000000D+00
231  2.3000000000000D+00  0.0000000000000D+00  0.0000000000000D+00
232  2.3100000000000D+00  0.0000000000000D+00  0.0000000000000D+00
233  2.3200000000000D+00  0.0000000000000D+00  0.0000000000000D+00
234  2.3300000000000D+00  0.0000000000000D+00  0.0000000000000D+00
235  2.3400000000000D+00  0.0000000000000D+00  0.0000000000000D+00
236  2.3500000000000D+00  0.0000000000000D+00  0.0000000000000D+00
237  2.3600000000000D+00  0.0000000000000D+00  0.0000000000000D+00
238  2.3700000000000D+00  0.0000000000000D+00  0.0000000000000D+00
239  2.3800000000000D+00  0.0000000000000D+00  0.0000000000000D+00
240  2.3900000000000D+00  0.0000000000000D+00  0.0000000000000D+00
241  2.4000000000000D+00  0.0000000000000D+00  0.0000000000000D+00
242  2.4100000000000D+00  0.0000000000000D+00  0.0000000000000D+00
243  2.4200000000000D+00  0.0000000000000D+00  0.0000000000000D+00
244  2.4300000000000D+00  0.0000000000000D+00  0.0000000000000D+00
245  2.4400000000000D+00  0.0000000000000D+00  0.0000000000000D+00
246  2.4500000000000D+00  0.0000000000000D+00  0.0000000000000D+00
247  2.4600000000000D+00  0.0000000000000D+00  0.0000000000000D+00
248  2.4700000000000D+00  0.0000000000000D+00  0.0000000000000D+00
249  2.4800000000000D+00  0.0000000000000D+00  0.0000000000000D+00
250  2.4900000000000D+00  0.0000000000000D+00  0.0000000000000D+00
251  2.5000000000000D+00  0.0000000000000D+00  0.0000000000000D+00
252  2.5100000000000D+00  0.0000000000000D+00  0.0000000000000D+00
253  2.5200000000000D+00  0.0000000000000D+00  0.0000000000000D+00
254  2.5300000000000D+00  0.0000000000000D+00  0.0000000000000D+00
255  2.5400000000000D+00  0.0000000000000D+00  0.0000000000000D+00
256  2.5500000000000D+00  0.0000000000000D+00  0.0000000000000D+00
257  2.5600000000000D+00  0.0000000000000D+00  0.0000000000000D+00
258  2.5700000000000D+00  0.0000000000000D+00  0.0000000000000D+00
259  2.5800000000000D+00  0.0000000000000D+00  0.0000000000000D+00
260  2.5900000000000D+00  0.0000000000000D+00  0.0000000000000D+00
261  2.6000000000000D+00  0.0000000000000D+00  0.0000000000000D+00
262  2.6100000000000D+00  0.0000000000000D+00  0.0000000000000D+00
263  2.6200000000000D+00  0.0000000000000D+00  0.0000000000000D+00
264  2.6300000000000D+00  0.0000000000000D+00  0.0000000000000D+00
265  2.6400000000000D+00  0.0000000000000D+00  0.0000000000000D+00
266  2.6500000000000D+00  0.0000000000000D+00  0.0000000000000D+00
267  2.6600000000000D+00  0.0000000000000D+00  0.0000000000000D+00
268  2.6700000000000D+00  0.0000000000000D+00  0.0000000000000D+00
269  2.6800000000000D+00  0.0000000000000D+00  0.0000000000000D+00
270  2.6900000000000D+00  0.0000000000000D+00  0.0000000000000D+00
271  2.7000000000000D+00  0.0000000000000D+00  0.0000000000000D+00
272  2.7100000000000D+00  0.0000000000000D+00  0.0000000000000D+00
273  2.7200000000000D+00  0.0000000000000D+00  0.0000000000000D+00
274  2.7300000000000D+00  0.0000000000000D+00  0.0000000000000D+00
275  2.7400000000000D+00  0.0000000000000D+00  0.0000000000000D+00
276  2.7500000000000D+00  0.0000000000000D+00  0.0000000000000D+00
277  2.7600000000000D+00  0.0000000000000D+00  0.0000000000000D+00
278  2.7700000000000D+00  0.0000000000000D+00  0.0000000000000D+00
279  2.7800000000000D+00  0.0000000000000D+00  0.0000000000000D+00
280  2.7900000000000D+00  0.0000000000000D+00  0.0000000000000D+00
281  2.8000000000000D+00  0.0000000000000D+00  0.0000000000000D+00
282  2.8100000000000D+00  0.0000000000000D+00  0.0000000000000D+00
283  2.8200000000000D+00  0.0000000000000D+00  0.0000000000000D+00
284  2.8300000000000D+00  0.0000000000000D+00  0.0000000000000D+00
285  2.8400000000000D+00  0.0000000000000D+00  0.0000000000000D+00
286  2.8500000000000D+00  0.0000000000000D+00  0.0000000000000D+00
287  2.8600000000000D+00  0.0000000000000D+00  0.0000000000000D+00
288  2.8700000000000D+00  0.0000000000000D+00  0.0000000000000D+00
289  2.8800000000000D+00  0.0000000000000D+00  0.0000000000000D+00
290  2.8900000000000D+00  0.0000000000000D+00  0.0000000000000D+00
291  2.9000000000000D+00  0.0000000000000D+00  0.0000000000000D+00
292  2.9100000000000D+00  0.0000000000000D+00  0.0000000000000D+00
293  2.9200000000000D+00  0.0000000000000D+00  0.0000000000000D+00
294  2.9300000000000D+00  0.0000000000000D+00  0.0000000000000D+00
295  2.9400000000000D+00  0.0000000000000D+00  0.0000000000000D+00
296  2.9500000000000D+00  0.0000000000000D+00  0.0000000000000D+00
297  2.9600000000000D+00  0.0000000000000D+00  0.0000000000000D+00
298  2.9700000000000D+00  0.0000000000000D+00  0.0000000000000D+00
299  2.9800000000000D+00  0.0000000000000D+00  0.0000000000000D+00
300  2.9900000000000D+00  0.0000000000000D+00  0.0000000000000D+00
301  3.0000000000000D+00  0.0000000000000D+00  0.0000000000000D+00
302  3.0100000000000D+00  0.0000000000000D+00  0.0000000000000D+00
303  3.0200000000000D+00  0.0000000000000D+00  0.0000000000000D+00
304  3.0300000000000D+00  0.0000000000000D+00  0.0000000000000D+00
305  3.0400000000000D+00  0.0000000000000D+00  0.0000000000000D+00
306  3.0500000000000D+00  0.0000000000000D+00  0.0000000000000D+00
307  3.0600000000000D+00  0.0000000000000D+00  0.0000000000000D+00
308  3.0700000000000D+00  0.0000000000000D+00  0.0000000000000D+00
309  3.0800000000000D+00  0.0000000000000D+00  0.0000000000000D+00
310  3.0900000000000D+00  0.0000000000000D+00  0.0000000000000D+00
311  3.1000000000000D+00  0.0000000000000D+00  0.0000000000000D+00
312  3.1100000000000D+00  0.0000000000000D+00  0.0000000000000D+00
313  3.1200000000000D+00  0.0000000000000D+00  0.0000000000000D+00
314  3.1300000000000D+00  0.0000000000000D+00  0.0000000000000D+00
315  3.1400000000000D+00  0.0000000000000D+00  0.0000000000000D+00
316  3.1500000000000D+00  0.0000000000000D+00  0.0000000000000D+00
317  3.1600000000000D+00  0.0000000000000D+00  0.0000000000000D+00
318  3.1700000000000D+00  0.0000000000000D+00  0.0000000000000D+00
319  3.1800000000000D+00  0.0000000000000D+00  0.0000000000000D+00
320  3.1900000000000D+00  0.0000000000000D+00  0.0000000000000D+00
321  3.2000000000000D+00  0.0000000000000D+00  0.0000000000000D+00
322  3.2100000000000D+00  0.0000000000000D+00  0.0000000000000D+00
323  3.2200000000000D+00  0.0000000000000D+00  0.0000000000000D+00
324  3.2300000000000D+00  0.0000000000000D+00  0.0000000000000D+00
325  3.2400000000000D+00  0.0000000000000D+00  0.0000000000000D+00
326  3.2500000000000D+00  0.0000000000000D+00  0.0000000000000D+00
327  3.2600000000000D+00  0.0000000000000D+00  0.0000000000000D+00
328  3.2700000000000D+00  0.0000000000000D+00  0.0000000000000D+00
329  3.2800000000000D+00  0.0000000000000D+00  0.0000000000000D+00
330  3.2900000000000D+00  0.0000000000000D+00  0.0000000000000D+00
331  3.3000000000000D+00  0.0000000000000D+00  0.0000000000000D+00
332  3.3100000000000D+00  0.0000000000000D+00  0.0000000000000D+00
333  3.3200000000000D+00  0.0000000000000D+00  0.0000000000000D+00
334  3.3300000000000D+00  0.0000000000000D+00  0.0000000000000D+00
335  3.3400000000000D+00  0.0000000000000D+00  0.0000000000000D+00
336  3.3500000000000D+00  0.0000000000000D+00  0.0000000000000D+00
337  3.3600000000000D+00  0.0000000000000D+00  0.0000000000000D+00
338  3.3700000000000D+00  0.0000000000000D+00  0.0000000000000D+00
339  3.3800000000000D+00  0.0000000000000D+00  0.0000000000000D+00
340  3.3900000000000D+00  0.0000000000000D+00  0.0000000000000D+00
341  3.4000000000000D+00  0.0000000000000D+00  0.0000000000000D+00
342  3.4100000000000D+00  0.0000000000000D+00  0.0000000000000D+00
343  3.4200000000000D+00  0.0000000000000D+00  0.0000000000000D+00
344  3.4300000000000D+00  0.0000000000000D+00  0.0000000000000D+00
345  3.4400000000000D+00  0.0000000000000D+00  0.0000000000000D+00
346  3.4500000000000D+00  0.0000000000000D+00  0.0000000000000D+00
347  3.4600000000000D+00  0.0000000000000D+00  0.0000000000000D+00
348  3.4700000000000D+00  0.0000000000000D+00  0.0000000000000D+00
349  3.4800000000000D+00  0.0000000000000D+00  0.0000000000000D+00
350  3.4900000000000D+00  0.0000000000000D+00  0.0000000000000D+00
351  3.5000000000000D+00  0.0000000000000D+00  0.0000000000000D+00
352  3.5100000000000D+00  0.0000000000000D+00  0.0000000000000D+00
353  3.5200000000000D+00  0.0000000000000D+00  0.0000000000000D+00
354  3.5300000000000D+00  0.0000000000000D+00  0.0000000000000D+00
355  3.5400000000000D+00  0.0000000000000D+00  0.0000000000000D+00
356  3.5500000000000D+00  0.0000000000000D+00  0.0000000000000D+00
357  3.5600000000000D+00  0.0000000000000D+00  0.0000000000000D+00
358  3.5700000000000D+00  0.0000000000000D+00  0.0000000000000D+00
359  3.5800000000000D+00  0.0000000000000D+00  0.0000000000000D+00
360  3.5900000000000D+00  0.0000000000000D+00  0.0000000000000D+00
361  3.6000000000000D+00  0.0000000000000D+00  0.0000000000000D+00
362  3.6100000000000D+00  0.0000000000000D+00  0.0000000000000D+00
363  3.6200000000000D+00  0.0000000000000D+00  0.0000000000000D+00
364  3.6300000000000D+00  0.0000000000000D+00  0.0000000000000D+00
365  3.6400000000000D+00  0.0000000000000D+00  0.0000000000000D+00
366  3.6500000000000D+00  0.0000000000000D+00  0.0000000000000D+00
367  3.6600000000000D+00  0.0000000000000D+00  0.0000000000000D+00
368  3.6700000000000D+00  0.0000000000000D+00  0.0000000000000D+00
369  3.6800000000000D+00  0.0000000000000D+00  0.0000000000000D+00
370  3.6900000000000D+00  0.0000000000000D+00  0.0000000000000D+00
371  3.7000000000000D+00  0.0000000000000D+00  0.0000000000000D+00
372  3.7100000000000D+00  0.0000000000000D+00  0.0000000000000D+00
373  3.7200000000000D+00  0.0000000000000D+00  0.0000000000000D+00
374  3.7300000000000D+00  0.0000000000000D+00  0.0000000000000D+00
375  3.7400000000000D+00  0.0000000000000D+00  0.0000000000000D+00
376  3.7500000000000D+00  0.0000000000000D+00  0.0000000000000D+00
377  3.7600000000000D+00  0.0000000000000D+00  0.0000000000000D+00
378  3.7700000000000D+00  0.0000000000000D+00  0.0000000000000D+00
379  3.7800000000000D+00  0.0000000000000D+00  0.0000000000000D+00
380  3.7900000000000D+00  0.0000000000000D+00  0.0000000000000D+00
381  3.8000000000000D+00  0.0000000000000D+00  0.0000000000000D+00
382  3.8100000000000D+00  0.0000000000000D+00  0.0000000000000D+00
383  3.8200000000000D+00  0.0000000000000D+00  0.0000000000000D+00
384  3.8300000000000D+00  0.0000000000000D+00  0.0000000000000D+00
385  3.8400000000000D+00  0.0000000000000D+00  0.0000000000000D+00
386  3.8500000000000D+00  0.0000000000000D+00  0.0000000000000D+00
387  3.8600000000000D+00  0.0000000000000D+00  0.0000000000000D+00
388  3.8700000000000D+00  0.0000000000000D+00  0.0000000000000D+00
389  3.8800000000000D+00  0.0000000000000D+00  0.0000000000000D+00
390  3.8900000000000D+00  0.0000000000000D+00  0.0000000000000D+00
391  3.9000000000000D+00  0.0000000000000D+00  0.0000000000000D+00
392  3.9100000000000D+00  0.0000000000000D+00  0.0000000000000D+00
393  3.9200000000000D+00  0.0000000000000D+00  0.0000000000000D+00
394  3.9300000000000D+00  0.0000000000000D+00  0.0000000000000D+00
395  3.9400000000000D+00  0.0000000000000D+00  0.0000000000000D+00
396  3.9500000000000D+00  0.0000000000000D+00  0.0000000000000D+00
397  3.9600000000000D+00  0.0000000000000D+00  0.0000000000000D+00
398  3.9700000000000D+00  0.0000000000000D+00  0.0000000000000D+00
399  3.9800000000000D+00  0.0000000000000D+00  0.0000000000000D+00
400  3.9900000000000D+00  0.0000000000000D+00  0.0000000000000D+00
401  4.0000000000000D+00  0.0000000000000D+00  0.0000000000000D+00
402  4.0100000000000D+00  0.0000000000000D+00  0.0000000000000D+00
403  4.0200000000000D+00  0.0000000000000D+00  0.0000000000000D+00
404  4.0300000000000D+00  0.0000000000000D+00  0.0000000000000D+00
405  4.0400000000000D+00  0.0000000000000D+00  0.0000000000000D+00
406  4.0500000000000D+00  0.0000000000000D+00  0.0000000000000D+00
407  4.0600000000000D+00  0.0000000000000D+00  0.0000000000000D+00
408  4.0700000000000D+00  0.0000000000000D+00  0.0000000000000D+00
409  4.0800000000000D+00  0.0000000000000D+00  0.0000000000000D+00
410  4.0900000000000D+00  0.0000000000000D+00  0.0000000000000D+00
411  4.1000000000000D+00  0.0000000000000D+00  0.0000000000000D+00
412  4.1100000000000D+00  0.0000000000000D+00  0.0000000000000D+00
413  4.1200000000000D+00  0.0000000000000D+00  0.0000000000000D+00
414  4.1300000000000D+00  0.0000000000000D+00  0.0000000000000D+00
415  4.1400000000000D+00  0.0000000000000D+00  0.0000000000000D+00
416  4.1500000000000D+00  0.0000000000000D+00  0.0000000000000D+00
417  4.1600000000000D+00  0.0000000000000D+00  0.0000000000000D+00
418  4.1700000000000D+00  0.0000000000000D+00  0.0000000000000D+00
419  4.1800000000000D+00  0.0000000000000D+00  0.0000000000000D+00
420  4.1900000000000D+00  0.0000000000000D+00  0.0000000000000D+00
421  4.2000000000000D+00  0.0000000000000D+00  0.0000000000000D+00
422  4.2100000000000D+00  0.0000000000000D+00  0.0000000000000D+00
423  4.2200000000000D+00  0.0000000000000D+00  0.0000000000000D+00
424  4.2300000000000D+00  0.0000000000000D+00  0.0000000000000D+00
425  4.2400000000000D+00  0.0000000000000D+00  0.0000000000000D+00
426  4.2500000000000D+00  0.0000000000000D+00  0.0000000000000D+00
427  4.2600000000000D+00  0.0000000000000D+00  0.0000000000000D+00
428  4.2700000000000D+00  0.0000000000000D+00  0.0000000000000D+00
429  4.2800000000000D+00  0.0000000000000D+00  0.0000000000000D+00
430  4.2900000000000D+00  0.0000000000000D+00  0.0000000000000D+00
431  4.3000000000000D+00  0.0000000000000D+00  0.0000000000000D+00
432  4.3100000000000D+00  0.0000000000000D+00  0.0000000000000D+00
433  4.3200000000000D+00  0.0000000000000D+00  0.0000000000000D+00
434  4.3300000000000D+00  0.0000000000000D+00  0.0000000000000D+00
435  4.3400000000000D+00  0.0000000000000D+00  0.0000000000000D+00
436  4.3500000000000D+00  0.0000000000000D+00  0.0000000000000D+00
437  4.3600000000000D+00  0.0000000000000D+00  0.0000000000000D+00
438  4.3700000000000D+00  0.0000000000000D+00  0.0000000000000D+00
439  4.3800000000000D+00  0.0000000000000D+00  0.0000000000000D+00
440  4.3900000000000D+00  0.0000000000000D+00  0.0000000000000D+00
441  4.4000000000000D+00  0.0000000000000D+00  0.0000000000000D+00
442  4.4100000000000D+00  0.0000000000000D+00  0.0000000000000D+00
443  4.4200000000000D+00  0.0000000000000D+00  0.0000000000000D+00