As    ONCVPSP  r_core=  1.77  1.61  1.81
     33.0000     15.0000      141002    zatom,zion,pspd
     8    11     2     4   601     0    pspcod,pspxc,lmax,lloc,mmax,r2well
  6.00000000  0.35000000  0.00000000    rchrg fchrg qchrg
     2     2     2     0     0    nproj
     0                 extension_switch
   0                         8.0368601189993D+00  8.8378291999349D-01
     1  0.0000000000000D+00  0.0000000000000D+00  0.0000000000000D+00
     2  1.0000000000000D-02 -3.0427240631303D-02 -1.7463100980234D-03
     3  2.0000000000000D-02 -6.0857296621672D-02 -3.5576816596222D-03
     4  3.0000000000000D-02 -9.1292847496903D-02 -5.4986217343396D-03
     5  4.0000000000000D-02 -1.2173630187069D-01 -7.6325319516688D-03
     6  5.0000000000000D-02 -1.5218966387108D-01 -1.0021164311902D-02
     7  6.0000000000000D-02 -1.8265440181621D-01 -1.2724087125210D-02
     8  7.0000000000000D-02 -2.1313131987207D-01 -1.5798164391575D-02
     9  8.0000000000000D-02 -2.4362043341226D-01 -1.9297051842818D-02
    10  9.0000000000000D-02 -2.7412084878072D-01 -2.3270712769305D-02
    11  1.0000000000000D-01 -3.0463064813877D-01 -2.7764956646721D-02
    12  1.1000000000000D-01 -3.3514678005437D-01 -3.2821003452894D-02
    13  1.2000000000000D-01 -3.6566495646178D-01 -3.8475076408955D-02
    14  1.3000000000000D-01 -3.9617955659101D-01 -4.4758025726028D-02
    15  1.4000000000000D-01 -4.2668353844215D-01 -5.1694985795894D-02
    16  1.5000000000000D-01 -4.5716835831553D-01 -5.9305067965800D-02
    17  1.6000000000000D-01 -4.8762389892393D-01 -6.7601091044080D-02
    18  1.7000000000000D-01 -5.1803840649618D-01 -7.6589351174950D-02
    19  1.8000000000000D-01 -5.4839843733141D-01 -8.6269432853345D-02
    20  1.9000000000000D-01 -5.7868881409780D-01 -9.6634062164889D-02
    21  2.0000000000000D-01 -6.0889259232654D-01 -1.0766900383671D-01
    22  2.1000000000000D-01 -6.3899103713662D-01 -1.1935300212767D-01
    23  2.2000000000000D-01 -6.6896361071256D-01 -1.3165776722545D-01
    24  2.3000000000000D-01 -6.9878797043877D-01 -1.4454800657596D-01
    25  2.4000000000000D-01 -7.2843997797603D-01 -1.5798150176330D-01
    26  2.5000000000000D-01 -7.5789371921016D-01 -1.7190923048395D-01
    27  2.6000000000000D-01 -7.8712153524629D-01 -1.8627553333210D-01
    28  2.7000000000000D-01 -8.1609406426329D-01 -2.0101832487005D-01
    29  2.8000000000000D-01 -8.4478029419037D-01 -2.1606934739265D-01
    30  2.9000000000000D-01 -8.7314762605692D-01 -2.3135446688393D-01
    31  3.0000000000000D-01 -9.0116194783740D-01 -2.4679400945694D-01
    32  3.1000000000000D-01 -9.2878771852990D-01 -2.6230313660828D-01
    33  3.2000000000000D-01 -9.5598806183283D-01 -2.7779225584044D-01
    34  3.3000000000000D-01 -9.8272487002802D-01 -2.9316746902549D-01
    35  3.4000000000000D-01 -1.0089589168058D+00 -3.0833105186543D-01
    36  3.5000000000000D-01 -1.0346499773705D+00 -3.2318195693075D-01
    37  3.6000000000000D-01 -1.0597569601074D+00 -3.3761635842127D-01
    38  3.7000000000000D-01 -1.0842380425587D+00 -3.5152820608013D-01
    39  3.8000000000000D-01 -1.1080508142468D+00 -3.6480979947085D-01
    40  3.9000000000000D-01 -1.1311524315311D+00 -3.7735240332711D-01
    41  4.0000000000000D-01 -1.1534997712494D+00 -3.8904684749576D-01
    42  4.1000000000000D-01 -1.1750495931760D+00 -3.9978415350059D-01
    43  4.2000000000000D-01 -1.1957587065638D+00 -4.0945616700229D-01
    44  4.3000000000000D-01 -1.2155841402494D+00 -4.1795619353862D-01
    45  4.4000000000000D-01 -1.2344833157249D+00 -4.2517963461376D-01
    46  4.5000000000000D-01 -1.2524142224156D+00 -4.3102462054248D-01
    47  4.6000000000000D-01 -1.2693355943427D+00 -4.3539263629093D-01
    48  4.7000000000000D-01 -1.2852070872628D+00 -4.3818913630258D-01
    49  4.8000000000000D-01 -1.2999894499398D+00 -4.3932412460273D-01
    50  4.9000000000000D-01 -1.3136447144301D+00 -4.3871279121418D-01
    51  5.0000000000000D-01 -1.3261363601917D+00 -4.3627603645798D-01
    52  5.1000000000000D-01 -1.3374294807982D+00 -4.3194099255735D-01
    53  5.2000000000000D-01 -1.3474909566320D+00 -4.2564155191945D-01
    54  5.3000000000000D-01 -1.3562896356648D+00 -4.1731890367323D-01
    55  5.4000000000000D-01 -1.3637964497869D+00 -4.0692183523024D-01
    56  5.5000000000000D-01 -1.3699846213809D+00 -3.9440732338081D-01
    57  5.6000000000000D-01 -1.3748297611845D+00 -3.7974074187682D-01
    58  5.7000000000000D-01 -1.3783100424759D+00 -3.6289630688029D-01
    59  5.8000000000000D-01 -1.3804063051840D+00 -3.4385727484417D-01
    60  5.9000000000000D-01 -1.3811022101005D+00 -3.2261628115291D-01
    61  6.0000000000000D-01 -1.3803843001849D+00 -2.9917537795191D-01
    62  6.1000000000000D-01 -1.3782421836017D+00 -2.7354640905433D-01
    63  6.2000000000000D-01 -1.3746685302768D+00 -2.4575083300718D-01
    64  6.3000000000000D-01 -1.3696592384510D+00 -2.1581999918392D-01
    65  6.4000000000000D-01 -1.3632134697750D+00 -1.8379504067048D-01
    66  6.5000000000000D-01 -1.3553336773283D+00 -1.4972674786501D-01
    67  6.6000000000000D-01 -1.3460257185107D+00 -1.1367561262664D-01
    68  6.7000000000000D-01 -1.3352988539239D+00 -7.5711579695431D-02
    69  6.8000000000000D-01 -1.3231657610456D+00 -3.5913822227662D-02
    70  6.9000000000000D-01 -1.3096425347934D+00  5.6295186611598D-03
    71  7.0000000000000D-01 -1.2947487461682D+00  4.8821553564925D-02
    72  7.1000000000000D-01 -1.2785073635403D+00  9.3557099038849D-02
    73  7.2000000000000D-01 -1.2609447409569D+00  1.3972304614330D-01
    74  7.3000000000000D-01 -1.2420905771318D+00  1.8719880128860D-01
    75  7.4000000000000D-01 -1.2219778554314D+00  2.3585676195773D-01
    76  7.5000000000000D-01 -1.2006427902790D+00  2.8556284999849D-01
    77  7.6000000000000D-01 -1.1781247376671D+00  3.3617708240825D-01
    78  7.7000000000000D-01 -1.1544660967059D+00  3.8755414881154D-01
    79  7.8000000000000D-01 -1.1297122091609D+00  4.3954403695084D-01
    80  7.9000000000000D-01 -1.1039112430165D+00  4.9199268171096D-01
    81  8.0000000000000D-01 -1.0771140648069D+00  5.4474263756516D-01
    82  8.1000000000000D-01 -1.0493741012069D+00  5.9763377081883D-01
    83  8.2000000000000D-01 -1.0207471904144D+00  6.5050396793191D-01
    84  8.3000000000000D-01 -9.9129142389833D-01  7.0318985612842D-01
    85  8.4000000000000D-01 -9.6106697912060D-01  7.5552753244662D-01
    86  8.5000000000000D-01 -9.3013594387500D-01  8.0735329734582D-01
    87  8.6000000000000D-01 -8.9856213291985D-01  8.5850438896152D-01
    88  8.7000000000000D-01 -8.6641089761228D-01  9.0881971409049D-01
    89  8.8000000000000D-01 -8.3374892928376D-01  9.5814057198729D-01
    90  8.9000000000000D-01 -8.0064405712836D-01  1.0063113670668D+00
    91  9.0000000000000D-01 -7.6716504140793D-01  1.0531803066318D+00
    92  9.1000000000000D-01 -7.3338136281148D-01  1.0986000797858D+00
    93  9.2000000000000D-01 -6.9936300884008D-01  1.1424285137528D+00
    94  9.3000000000000D-01 -6.6518025812275D-01  1.1845292039132D+00
    95  9.4000000000000D-01 -6.3090346360158D-01  1.2247721139887D+00
    96  9.5000000000000D-01 -5.9660283555405D-01  1.2630341429790D+00
    97  9.6000000000000D-01 -5.6234829499159D-01  1.2991993907524D+00
    98  9.7000000000000D-01 -5.2820908003291D-01  1.3331603618099D+00
    99  9.8000000000000D-01 -4.9425365651906D-01  1.3648178948579D+00
   100  9.9000000000000D-01 -4.6054950116331D-01  1.3940816119430D+00
   101  1.0000000000000D+00 -4.2716288177204D-01  1.4208703356730D+00
   102  1.0100000000000D+00 -3.9415865684364D-01  1.4451124024544D+00
   103  1.0200000000000D+00 -3.6160010127051D-01  1.4667458676359D+00
   104  1.0300000000000D+00 -3.2954884456925D-01  1.4857183836391D+00
   105  1.0400000000000D+00 -2.9806418373224D-01  1.5019888310651D+00
   106  1.0500000000000D+00 -2.6720340785481D-01  1.5155259087878D+00
   107  1.0600000000000D+00 -2.3702148185198D-01  1.5263086702346D+00
   108  1.0700000000000D+00 -2.0757090301449D-01  1.5343265076849D+00
   109  1.0800000000000D+00 -1.7890183184137D-01  1.5395785342418D+00
   110  1.0900000000000D+00 -1.5106102426037D-01  1.5420755950113D+00
   111  1.1000000000000D+00 -1.2409259856906D-01  1.5418379776007D+00
   112  1.1100000000000D+00 -9.8037665120356D-02  1.5388958703993D+00
   113  1.1200000000000D+00 -7.2934518060832D-02  1.5332886787280D+00
   114  1.1300000000000D+00 -4.8817721306521D-02  1.5250662061222D+00
   115  1.1400000000000D+00 -2.5718529530365D-02  1.5142872453801D+00
   116  1.1500000000000D+00 -3.6649615028034D-03  1.5010190723117D+00
   117  1.1600000000000D+00  1.7317961236542D-02  1.4853369154080D+00
   118  1.1700000000000D+00  3.7209552514944D-02  1.4673249466388D+00
   119  1.1800000000000D+00  5.5992394103524D-02  1.4470743221276D+00
   120  1.1900000000000D+00  7.3652313210984D-02  1.4246829407368D+00
   121  1.2000000000000D+00  9.0178708734063D-02  1.4002553744589D+00
   122  1.2100000000000D+00  1.0556516791036D-01  1.3739021705901D+00
   123  1.2200000000000D+00  1.1980837195766D-01  1.3457388645894D+00
   124  1.2300000000000D+00  1.3290799381783D-01  1.3158861052385D+00
   125  1.2400000000000D+00  1.4486834326546D-01  1.2844682278873D+00
   126  1.2500000000000D+00  1.5569654143155D-01  1.2516129469927D+00
   127  1.2600000000000D+00  1.6540255243725D-01  1.2174517487844D+00
   128  1.2700000000000D+00  1.7400065556453D-01  1.1821170512622D+00
   129  1.2800000000000D+00  1.8150783599123D-01  1.1457430209614D+00
   130  1.2900000000000D+00  1.8794367868374D-01  1.1084664852386D+00
   131  1.3000000000000D+00  1.9333171867378D-01  1.0704219435614D+00
   132  1.3100000000000D+00  1.9769778794438D-01  1.0317446567996D+00
   133  1.3200000000000D+00  2.0107026917132D-01  9.9257088951684D-01
   134  1.3300000000000D+00  2.0348076613522D-01  9.5303158718249D-01
   135  1.3400000000000D+00  2.0496281198473D-01  9.1325845857726D-01
   136  1.3500000000000D+00  2.0555243487073D-01  8.7338062161586D-01
   137  1.3600000000000D+00  2.0528786079557D-01  8.3352102146784D-01
   138  1.3700000000000D+00  2.0420913928654D-01  7.9380366561400D-01
   139  1.3800000000000D+00  2.0235827106324D-01  7.5434413545619D-01
   140  1.3900000000000D+00  1.9977869973563D-01  7.1525460515365D-01
   141  1.4000000000000D+00  1.9651561530158D-01  6.7664562702841D-01
   142  1.4100000000000D+00  1.9261498860987D-01  6.3861576406660D-01
   143  1.4200000000000D+00  1.8812437476767D-01  6.0126493936656D-01
   144  1.4300000000000D+00  1.8309181183016D-01  5.6468190367829D-01
   145  1.4400000000000D+00  1.7756599181631D-01  5.2895062925594D-01
   146  1.4500000000000D+00  1.7159671670352D-01  4.9415159231243D-01
   147  1.4600000000000D+00  1.6523279674012D-01  4.6035168874873D-01
   148  1.4700000000000D+00  1.5852491562979D-01  4.2762029084822D-01
   149  1.4800000000000D+00  1.5152169672802D-01  3.9601005829151D-01
   150  1.4900000000000D+00  1.4427296441432D-01  3.6557395876060D-01
   151  1.5000000000000D+00  1.3682734119134D-01  3.3635413643064D-01
   152  1.5100000000000D+00  1.2923252276619D-01  3.0838569297619D-01
   153  1.5200000000000D+00  1.2153660836092D-01  2.8169993115030D-01
   154  1.5300000000000D+00  1.1378423856605D-01  2.5631462839544D-01
   155  1.5400000000000D+00  1.0602237963321D-01  2.3224979869258D-01
   156  1.5500000000000D+00  9.8292159205612D-02  2.0950765212138D-01
   157  1.5600000000000D+00  9.0637762276127D-02  1.8809445496282D-01
   158  1.5700000000000D+00  8.3097264419490D-02  1.6800033355826D-01
   159  1.5800000000000D+00  7.5710624539247D-02  1.4921680797110D-01
   160  1.5900000000000D+00  6.8512708379101D-02  1.3172319079079D-01
   161  1.6000000000000D+00  6.1538486929301D-02  1.1549723012394D-01
   162  1.6100000000000D+00  5.4818968458475D-02  1.0050734206571D-01
   163  1.6200000000000D+00  4.8383969947887D-02  8.6720838884899D-02
   164  1.6300000000000D+00  4.2260844658051D-02  7.4100200135409D-02
   165  1.6400000000000D+00  3.6474787614653D-02  6.2608648411403D-02
   166  1.6500000000000D+00  3.1049818722210D-02  5.2207926859535D-02
   167  1.6600000000000D+00  2.6006754042048D-02  4.2860779916366D-02
   168  1.6700000000000D+00  2.1365815346536D-02  3.4528735513434D-02
   169  1.6800000000000D+00  1.7143382098899D-02  2.7175284390792D-02
   170  1.6900000000000D+00  1.3355483734763D-02  2.0762719735102D-02
   171  1.7000000000000D+00  1.0014024519159D-02  1.5256088145092D-02
   172  1.7100000000000D+00  7.1304663823780D-03  1.0619465097829D-02
   173  1.7200000000000D+00  4.7122437571994D-03  6.8199845077664D-03
   174  1.7300000000000D+00  2.7658854480459D-03  3.8244146080577D-03
   175  1.7400000000000D+00  1.2944045751264D-03  1.6022428540856D-03
   176  1.7500000000000D+00  3.2457628071192D-04  1.4844791841403D-04
   177  1.7600000000000D+00 -1.8076262665123D-04 -5.9988813615056D-04
   178  1.7700000000000D+00 -3.0576545694399D-04 -7.0751640948318D-04
   179  1.7800000000000D+00 -1.5696241158314D-04 -3.3395344127653D-04
   180  1.7900000000000D+00  1.1265604079161D-05  2.7906570593488D-05
   181  1.8000000000000D+00  1.8184468356399D-05  4.5045622616156D-05
   182  1.8100000000000D+00  0.0000000000000D+00  0.0000000000000D+00
   183  1.8200000000000D+00  0.0000000000000D+00  0.0000000000000D+00
   184  1.8300000000000D+00  0.0000000000000D+00  0.0000000000000D+00
   185  1.8400000000000D+00  0.0000000000000D+00  0.0000000000000D+00
   186  1.8500000000000D+00  0.0000000000000D+00  0.0000000000000D+00
   187  1.8600000000000D+00  0.0000000000000D+00  0.0000000000000D+00
   188  1.8700000000000D+00  0.0000000000000D+00  0.0000000000000D+00
   189  1.8800000000000D+00  0.0000000000000D+00  0.0000000000000D+00
   190  1.8900000000000D+00  0.0000000000000D+00  0.0000000000000D+00
   191  1.9000000000000D+00  0.0000000000000D+00  0.0000000000000D+00
   192  1.9100000000000D+00  0.0000000000000D+00  0.0000000000000D+00
   193  1.9200000000000D+00  0.0000000000000D+00  0.0000000000000D+00
   194  1.9300000000000D+00  0.0000000000000D+00  0.0000000000000D+00
   195  1.9400000000000D+00  0.0000000000000D+00  0.0000000000000D+00
   196  1.9500000000000D+00  0.0000000000000D+00  0.0000000000000D+00
   197  1.9600000000000D+00  0.0000000000000D+00  0.0000000000000D+00
   198  1.9700000000000D+00  0.0000000000000D+00  0.0000000000000D+00
   199  1.9800000000000D+00  0.0000000000000D+00  0.0000000000000D+00
   200  1.9900000000000D+00  0.0000000000000D+00  0.0000000000000D+00
   201  2.0000000000000D+00  0.0000000000000D+00  0.0000000000000D+00
   202  2.0100000000000D+00  0.0000000000000D+00  0.0000000000000D+00
   203  2.0200000000000D+00  0.0000000000000D+00  0.0000000000000D+00
   204  2.0300000000000D+00  0.0000000000000D+00  0.0000000000000D+00
   205  2.0400000000000D+00  0.0000000000000D+00  0.0000000000000D+00
   206  2.0500000000000D+00  0.0000000000000D+00  0.0000000000000D+00
   207  2.0600000000000D+00  0.0000000000000D+00  0.0000000000000D+00
   208  2.0700000000000D+00  0.0000000000000D+00  0.0000000000000D+00
   209  2.0800000000000D+00  0.0000000000000D+00  0.0000000000000D+00
   210  2.0900000000000D+00  0.0000000000000D+00  0.0000000000000D+00
   211  2.1000000000000D+00  0.0000000000000D+00  0.0000000000000D+00
   212  2.1100000000000D+00  0.0000000000000D+00  0.0000000000000D+00
   213  2.1200000000000D+00  0.0000000000000D+00  0.0000000000000D+00
   214  2.1300000000000D+00  0.0000000000000D+00  0.0000000000000D+00
   215  2.1400000000000D+00  0.0000000000000D+00  0.0000000000000D+00
   216  2.1500000000000D+00  0.0000000000000D+00  0.0000000000000D+00
   217  2.1600000000000D+00  0.0000000000000D+00  0.0000000000000D+00
   218  2.1700000000000D+00  0.0000000000000D+00  0.0000000000000D+00
   219  2.1800000000000D+00  0.0000000000000D+00  0.0000000000000D+00
   220  2.1900000000000D+00  0.0000000000000D+00  0.0000000000000D+00
   221  2.2000000000000D+00  0.0000000000000D+00  0.0000000000000D+00
   222  2.2100000000000D+00  0.0000000000000D+00  0.0000000000000D+00
   223  2.2200000000000D+00  0.0000000000000D+00  0.0000000000000D+00
   224  2.2300000000000D+00  0.0000000000000D+00  0.0000000000000D+00
   225  2.2400000000000D+00  0.0000000000000D+00  0.0000000000000D+00
   226  2.2500000000000D+00  0.0000000000000D+00  0.0000000000000D+00
   227  2.2600000000000D+00  0.0000000000000D+00  0.0000000000000D+00
   228  2.2700000000000D+00  0.0000000000000D+00  0.0000000000000D+00
   229  2.2800000000000D+00  0.0000000000000D+00  0.0000000000000D+00
   230  2.2900000000000D+00  0.0000000000000D+00  0.0000000000000D+00
   231  2.3000000000000D+00  0.0000000000000D+00  0.0000000000000D+00
   232  2.3100000000000D+00  0.0000000000000D+00  0.0000000000000D+00
   233  2.3200000000000D+00  0.0000000000000D+00  0.0000000000000D+00
   234  2.3300000000000D+00  0.0000000000000D+00  0.0000000000000D+00
   235  2.3400000000000D+00  0.0000000000000D+00  0.0000000000000D+00
   236  2.3500000000000D+00  0.0000000000000D+00  0.0000000000000D+00
   237  2.3600000000000D+00  0.0000000000000D+00  0.0000000000000D+00
   238  2.3700000000000D+00  0.0000000000000D+00  0.0000000000000D+00
   239  2.3800000000000D+00  0.0000000000000D+00  0.0000000000000D+00
   240  2.3900000000000D+00  0.0000000000000D+00  0.0000000000000D+00
   241  2.4000000000000D+00  0.0000000000000D+00  0.0000000000000D+00
   242  2.4100000000000D+00  0.0000000000000D+00  0.0000000000000D+00
   243  2.4200000000000D+00  0.0000000000000D+00  0.0000000000000D+00
   244  2.4300000000000D+00  0.0000000000000D+00  0.0000000000000D+00
   245  2.4400000000000D+00  0.0000000000000D+00  0.0000000000000D+00
   246  2.4500000000000D+00  0.0000000000000D+00  0.0000000000000D+00
   247  2.4600000000000D+00  0.0000000000000D+00  0.0000000000000D+00
   248  2.4700000000000D+00  0.0000000000000D+00  0.0000000000000D+00
   249  2.4800000000000D+00  0.0000000000000D+00  0.0000000000000D+00
   250  2.4900000000000D+00  0.0000000000000D+00  0.0000000000000D+00
   251  2.5000000000000D+00  0.0000000000000D+00  0.0000000000000D+00
   252  2.5100000000000D+00  0.0000000000000D+00  0.0000000000000D+00
   253  2.5200000000000D+00  0.0000000000000D+00  0.0000000000000D+00
   254  2.5300000000000D+00  0.0000000000000D+00  0.0000000000000D+00
   255  2.5400000000000D+00  0.0000000000000D+00  0.0000000000000D+00
   256  2.5500000000000D+00  0.0000000000000D+00  0.0000000000000D+00
   257  2.5600000000000D+00  0.0000000000000D+00  0.0000000000000D+00
   258  2.5700000000000D+00  0.0000000000000D+00  0.0000000000000D+00
   259  2.5800000000000D+00  0.0000000000000D+00  0.0000000000000D+00
   260  2.5900000000000D+00  0.0000000000000D+00  0.0000000000000D+00
   261  2.6000000000000D+00  0.0000000000000D+00  0.0000000000000D+00
   262  2.6100000000000D+00  0.0000000000000D+00  0.0000000000000D+00
   263  2.6200000000000D+00  0.0000000000000D+00  0.0000000000000D+00
   264  2.6300000000000D+00  0.0000000000000D+00  0.0000000000000D+00
   265  2.6400000000000D+00  0.0000000000000D+00  0.0000000000000D+00
   266  2.6500000000000D+00  0.0000000000000D+00  0.0000000000000D+00
   267  2.6600000000000D+00  0.0000000000000D+00  0.0000000000000D+00
   268  2.6700000000000D+00  0.0000000000000D+00  0.0000000000000D+00
   269  2.6800000000000D+00  0.0000000000000D+00  0.0000000000000D+00
   270  2.6900000000000D+00  0.0000000000000D+00  0.0000000000000D+00
   271  2.7000000000000D+00  0.0000000000000D+00  0.0000000000000D+00
   272  2.7100000000000D+00  0.0000000000000D+00  0.0000000000000D+00
   273  2.7200000000000D+00  0.0000000000000D+00  0.0000000000000D+00
   274  2.7300000000000D+00  0.0000000000000D+00  0.0000000000000D+00
   275  2.7400000000000D+00  0.0000000000000D+00  0.0000000000000D+00
   276  2.7500000000000D+00  0.0000000000000D+00  0.0000000000000D+00
   277  2.7600000000000D+00  0.0000000000000D+00  0.0000000000000D+00
   278  2.7700000000000D+00  0.0000000000000D+00  0.0000000000000D+00
   279  2.7800000000000D+00  0.0000000000000D+00  0.0000000000000D+00
   280  2.7900000000000D+00  0.0000000000000D+00  0.0000000000000D+00
   281  2.8000000000000D+00  0.0000000000000D+00  0.0000000000000D+00
   282  2.8100000000000D+00  0.0000000000000D+00  0.0000000000000D+00
   283  2.8200000000000D+00  0.0000000000000D+00  0.0000000000000D+00
   284  2.8300000000000D+00  0.0000000000000D+00  0.0000000000000D+00
   285  2.8400000000000D+00  0.0000000000000D+00  0.0000000000000D+00
   286  2.8500000000000D+00  0.0000000000000D+00  0.0000000000000D+00
   287  2.8600000000000D+00  0.0000000000000D+00  0.0000000000000D+00
   288  2.8700000000000D+00  0.0000000000000D+00  0.0000000000000D+00
   289  2.8800000000000D+00  0.0000000000000D+00  0.0000000000000D+00
   290  2.8900000000000D+00  0.0000000000000D+00  0.0000000000000D+00
   291  2.9000000000000D+00  0.0000000000000D+00  0.0000000000000D+00
   292  2.9100000000000D+00  0.0000000000000D+00  0.0000000000000D+00
   293  2.9200000000000D+00  0.0000000000000D+00  0.0000000000000D+00
   294  2.9300000000000D+00  0.0000000000000D+00  0.0000000000000D+00
   295  2.9400000000000D+00  0.0000000000000D+00  0.0000000000000D+00
   296  2.9500000000000D+00  0.0000000000000D+00  0.0000000000000D+00
   297  2.9600000000000D+00  0.0000000000000D+00  0.0000000000000D+00
   298  2.9700000000000D+00  0.0000000000000D+00  0.0000000000000D+00
   299  2.9800000000000D+00  0.0000000000000D+00  0.0000000000000D+00
   300  2.9900000000000D+00  0.0000000000000D+00  0.0000000000000D+00
   301  3.0000000000000D+00  0.0000000000000D+00  0.0000000000000D+00
   302  3.0100000000000D+00  0.0000000000000D+00  0.0000000000000D+00
   303  3.0200000000000D+00  0.0000000000000D+00  0.0000000000000D+00
   304  3.0300000000000D+00  0.0000000000000D+00  0.0000000000000D+00
   305  3.0400000000000D+00  0.0000000000000D+00  0.0000000000000D+00
   306  3.0500000000000D+00  0.0000000000000D+00  0.0000000000000D+00
   307  3.0600000000000D+00  0.0000000000000D+00  0.0000000000000D+00
   308  3.0700000000000D+00  0.0000000000000D+00  0.0000000000000D+00
   309  3.0800000000000D+00  0.0000000000000D+00  0.0000000000000D+00
   310  3.0900000000000D+00  0.0000000000000D+00  0.0000000000000D+00
   311  3.1000000000000D+00  0.0000000000000D+00  0.0000000000000D+00
   312  3.1100000000000D+00  0.0000000000000D+00  0.0000000000000D+00
   313  3.1200000000000D+00  0.0000000000000D+00  0.0000000000000D+00
   314  3.1300000000000D+00  0.0000000000000D+00  0.0000000000000D+00
   315  3.1400000000000D+00  0.0000000000000D+00  0.0000000000000D+00
   316  3.1500000000000D+00  0.0000000000000D+00  0.0000000000000D+00
   317  3.1600000000000D+00  0.0000000000000D+00  0.0000000000000D+00
   318  3.1700000000000D+00  0.0000000000000D+00  0.0000000000000D+00
   319  3.1800000000000D+00  0.0000000000000D+00  0.0000000000000D+00
   320  3.1900000000000D+00  0.0000000000000D+00  0.0000000000000D+00
   321  3.2000000000000D+00  0.0000000000000D+00  0.0000000000000D+00
   322  3.2100000000000D+00  0.0000000000000D+00  0.0000000000000D+00
   323  3.2200000000000D+00  0.0000000000000D+00  0.0000000000000D+00
   324  3.2300000000000D+00  0.0000000000000D+00  0.0000000000000D+00
   325  3.2400000000000D+00  0.0000000000000D+00  0.0000000000000D+00
   326  3.2500000000000D+00  0.0000000000000D+00  0.0000000000000D+00
   327  3.2600000000000D+00  0.0000000000000D+00  0.0000000000000D+00
   328  3.2700000000000D+00  0.0000000000000D+00  0.0000000000000D+00
   329  3.2800000000000D+00  0.0000000000000D+00  0.0000000000000D+00
   330  3.2900000000000D+00  0.0000000000000D+00  0.0000000000000D+00
   331  3.3000000000000D+00  0.0000000000000D+00  0.0000000000000D+00
   332  3.3100000000000D+00  0.0000000000000D+00  0.0000000000000D+00
   333  3.3200000000000D+00  0.0000000000000D+00  0.0000000000000D+00
   334  3.3300000000000D+00  0.0000000000000D+00  0.0000000000000D+00
   335  3.3400000000000D+00  0.0000000000000D+00  0.0000000000000D+00
   336  3.3500000000000D+00  0.0000000000000D+00  0.0000000000000D+00
   337  3.3600000000000D+00  0.0000000000000D+00  0.0000000000000D+00
   338  3.3700000000000D+00  0.0000000000000D+00  0.0000000000000D+00
   339  3.3800000000000D+00  0.0000000000000D+00  0.0000000000000D+00
   340  3.3900000000000D+00  0.0000000000000D+00  0.0000000000000D+00
   341  3.4000000000000D+00  0.0000000000000D+00  0.0000000000000D+00
   342  3.4100000000000D+00  0.0000000000000D+00  0.0000000000000D+00
   343  3.4200000000000D+00  0.0000000000000D+00  0.0000000000000D+00
   344  3.4300000000000D+00  0.0000000000000D+00  0.0000000000000D+00
   345  3.4400000000000D+00  0.0000000000000D+00  0.0000000000000D+00
   346  3.4500000000000D+00  0.0000000000000D+00  0.0000000000000D+00
   347  3.4600000000000D+00  0.0000000000000D+00  0.0000000000000D+00
   348  3.4700000000000D+00  0.0000000000000D+00  0.0000000000000D+00
   349  3.4800000000000D+00  0.0000000000000D+00  0.0000000000000D+00
   350  3.4900000000000D+00  0.0000000000000D+00  0.0000000000000D+00
   351  3.5000000000000D+00  0.0000000000000D+00  0.0000000000000D+00
   352  3.5100000000000D+00  0.0000000000000D+00  0.0000000000000D+00
   353  3.5200000000000D+00  0.0000000000000D+00  0.0000000000000D+00
   354  3.5300000000000D+00  0.0000000000000D+00  0.0000000000000D+00
   355  3.5400000000000D+00  0.0000000000000D+00  0.0000000000000D+00
   356  3.5500000000000D+00  0.0000000000000D+00  0.0000000000000D+00
   357  3.5600000000000D+00  0.0000000000000D+00  0.0000000000000D+00
   358  3.5700000000000D+00  0.0000000000000D+00  0.0000000000000D+00
   359  3.5800000000000D+00  0.0000000000000D+00  0.0000000000000D+00
   360  3.5900000000000D+00  0.0000000000000D+00  0.0000000000000D+00
   361  3.6000000000000D+00  0.0000000000000D+00  0.0000000000000D+00
   362  3.6100000000000D+00  0.0000000000000D+00  0.0000000000000D+00
   363  3.6200000000000D+00  0.0000000000000D+00  0.0000000000000D+00
   364  3.6300000000000D+00  0.0000000000000D+00  0.0000000000000D+00
   365  3.6400000000000D+00  0.0000000000000D+00  0.0000000000000D+00
   366  3.6500000000000D+00  0.0000000000000D+00  0.0000000000000D+00
   367  3.6600000000000D+00  0.0000000000000D+00  0.0000000000000D+00
   368  3.6700000000000D+00  0.0000000000000D+00  0.0000000000000D+00
   369  3.6800000000000D+00  0.0000000000000D+00  0.0000000000000D+00
   370  3.6900000000000D+00  0.0000000000000D+00  0.0000000000000D+00
   371  3.7000000000000D+00  0.0000000000000D+00  0.0000000000000D+00
   372  3.7100000000000D+00  0.0000000000000D+00  0.0000000000000D+00
   373  3.7200000000000D+00  0.0000000000000D+00  0.0000000000000D+00
   374  3.7300000000000D+00  0.0000000000000D+00  0.0000000000000D+00
   375  3.7400000000000D+00  0.0000000000000D+00  0.0000000000000D+00
   376  3.7500000000000D+00  0.0000000000000D+00  0.0000000000000D+00
   377  3.7600000000000D+00  0.0000000000000D+00  0.0000000000000D+00
   378  3.7700000000000D+00  0.0000000000000D+00  0.0000000000000D+00
   379  3.7800000000000D+00  0.0000000000000D+00  0.0000000000000D+00
   380  3.7900000000000D+00  0.0000000000000D+00  0.0000000000000D+00
   381  3.8000000000000D+00  0.0000000000000D+00  0.0000000000000D+00
   382  3.8100000000000D+00  0.0000000000000D+00  0.0000000000000D+00
   383  3.8200000000000D+00  0.0000000000000D+00  0.0000000000000D+00
   384  3.8300000000000D+00  0.0000000000000D+00  0.0000000000000D+00
   385  3.8400000000000D+00  0.0000000000000D+00  0.0000000000000D+00
   386  3.8500000000000D+00  0.0000000000000D+00  0.0000000000000D+00
   387  3.8600000000000D+00  0.0000000000000D+00  0.0000000000000D+00
   388  3.8700000000000D+00  0.0000000000000D+00  0.0000000000000D+00
   389  3.8800000000000D+00  0.0000000000000D+00  0.0000000000000D+00
   390  3.8900000000000D+00  0.0000000000000D+00  0.0000000000000D+00
   391  3.9000000000000D+00  0.0000000000000D+00  0.0000000000000D+00
   392  3.9100000000000D+00  0.0000000000000D+00  0.0000000000000D+00
   393  3.9200000000000D+00  0.0000000000000D+00  0.0000000000000D+00
   394  3.9300000000000D+00  0.0000000000000D+00  0.0000000000000D+00
   395  3.9400000000000D+00  0.0000000000000D+00  0.0000000000000D+00
   396  3.9500000000000D+00  0.0000000000000D+00  0.0000000000000D+00
   397  3.9600000000000D+00  0.0000000000000D+00  0.0000000000000D+00
   398  3.9700000000000D+00  0.0000000000000D+00  0.0000000000000D+00
   399  3.9800000000000D+00  0.0000000000000D+00  0.0000000000000D+00
   400  3.9900000000000D+00  0.0000000000000D+00  0.0000000000000D+00
   401  4.0000000000000D+00  0.0000000000000D+00  0.0000000000000D+00
   402  4.0100000000000D+00  0.0000000000000D+00  0.0000000000000D+00
   403  4.0200000000000D+00  0.0000000000000D+00  0.0000000000000D+00
   404  4.0300000000000D+00  0.0000000000000D+00  0.0000000000000D+00
   405  4.0400000000000D+00  0.0000000000000D+00  0.0000000000000D+00
   406  4.0500000000000D+00  0.0000000000000D+00  0.0000000000000D+00
   407  4.0600000000000D+00  0.0000000000000D+00  0.0000000000000D+00
   408  4.0700000000000D+00  0.0000000000000D+00  0.0000000000000D+00
   409  4.0800000000000D+00  0.0000000000000D+00  0.0000000000000D+00
   410  4.0900000000000D+00  0.0000000000000D+00  0.0000000000000D+00
   411  4.1000000000000D+00  0.0000000000000D+00  0.0000000000000D+00
   412  4.1100000000000D+00  0.0000000000000D+00  0.0000000000000D+00
   413  4.1200000000000D+00  0.0000000000000D+00  0.0000000000000D+00
   414  4.1300000000000D+00  0.0000000000000D+00  0.0000000000000D+00
   415  4.1400000000000D+00  0.0000000000000D+00  0.0000000000000D+00
   416  4.1500000000000D+00  0.0000000000000D+00  0.0000000000000D+00
   417  4.1600000000000D+00  0.0000000000000D+00  0.0000000000000D+00
   418  4.1700000000000D+00  0.0000000000000D+00  0.0000000000000D+00
   419  4.1800000000000D+00  0.0000000000000D+00  0.0000000000000D+00
   420  4.1900000000000D+00  0.0000000000000D+00  0.0000000000000D+00
   421  4.2000000000000D+00  0.0000000000000D+00  0.0000000000000D+00
   422  4.2100000000000D+00  0.0000000000000D+00  0.0000000000000D+00
   423  4.2200000000000D+00  0.0000000000000D+00  0.0000000000000D+00