Cs    ONCVPSP  r_core=  2.27  1.86  2.02  1.97
55.0000      9.0000      151103    zatom,zion,pspd
8   -1013   3     4   600     0    pspcod,pspxc,lmax,lloc,mmax,r2well
5.99000000  5.00000000  0.00000000    rchrg fchrg qchrg
2     2     2     2     0    nproj
0                 extension_switch
0                         6.5724954806357D+00  8.3718984636859D-01
1  0.0000000000000D+00  3.5149660959632D-12 -7.9515239878591D-12
2  1.0000000000000D-02  2.1663893996350D-02  6.3092406500503D-04
3  2.0000000000000D-02  4.3337111213170D-02  1.2270222981854D-03
4  3.0000000000000D-02  6.5028892997508D-02  1.7536545104431D-03
5  4.0000000000000D-02  8.6748317248652D-02  2.1765511125757D-03
6  5.0000000000000D-02  1.0850421744107D-01  2.4619967033367D-03
7  6.0000000000000D-02  1.3030510254109D-01  2.5770116088318D-03
8  7.0000000000000D-02  1.5215907811097D-01  2.4895306997005D-03
9  8.0000000000000D-02  1.7407376889090D-01  2.1685788204838D-03
10  9.0000000000000D-02  1.9605624314439D-01  1.5844421755817D-03
11  1.0000000000000D-01  2.1811293904804D-01  7.0883502802905D-04
12  1.1000000000000D-01  2.4024959339996D-01 -4.8493891879182D-04
13  1.2000000000000D-01  2.6247117291459D-01 -2.0218310706512D-03
14  1.3000000000000D-01  2.8478180836358D-01 -3.9248990196975D-03
15  1.4000000000000D-01  3.0718473181420D-01 -6.2151647265282D-03
16  1.5000000000000D-01  3.2968221720711D-01 -8.9114803627592D-03
17  1.6000000000000D-01  3.5227552450537D-01 -1.2030402346830D-02
18  1.7000000000000D-01  3.7496484763579D-01 -1.5586074080957D-02
19  1.8000000000000D-01  3.9774926643185D-01 -1.9590117870517D-02
20  1.9000000000000D-01  4.2062670277577D-01 -2.4051536479175D-02
21  2.0000000000000D-01  4.4359388112365D-01 -2.8976624743276D-02
22  2.1000000000000D-01  4.6664629358473D-01 -3.4368891637777D-02
23  2.2000000000000D-01  4.8977816971137D-01 -4.0228993153329D-02
24  2.3000000000000D-01  5.1298245114152D-01 -4.6554676310079D-02
25  2.4000000000000D-01  5.3625077122068D-01 -5.3340734598313D-02
26  2.5000000000000D-01  5.5957343971408D-01 -6.0578975099444D-02
27  2.6000000000000D-01  5.8293943270410D-01 -6.8258197503245D-02
28  2.7000000000000D-01  6.0633638775108D-01 -7.6364185198119D-02
29  2.8000000000000D-01  6.2975060437888D-01 -8.4879708571790D-02
30  2.9000000000000D-01  6.5316704992922D-01 -9.3784540618797D-02
31  3.0000000000000D-01  6.7656937081128D-01 -1.0305548491011D-01
32  3.1000000000000D-01  6.9993990915534D-01 -1.1266641593789D-01
33  3.2000000000000D-01  7.2325972486126D-01 -1.2258833180601D-01
34  3.3000000000000D-01  7.4650862301449D-01 -1.3278941919392D-01
35  3.4000000000000D-01  7.6966518662425D-01 -1.4323513047822D-01
36  3.5000000000000D-01  7.9270681462023D-01 -1.5388827285269D-01
37  3.6000000000000D-01  8.1560976502635D-01 -1.6470910924444D-01
38  3.7000000000000D-01  8.3834920321151D-01 -1.7565547078006D-01
39  3.8000000000000D-01  8.6089925510007D-01 -1.8668288051284D-01
40  3.9000000000000D-01  8.8323306520661D-01 -1.9774468807948D-01
41  4.0000000000000D-01  9.0532285934232D-01 -2.0879221491203D-01
42  4.1000000000000D-01  9.2714001182323D-01 -2.1977490959013D-01
43  4.2000000000000D-01  9.4865511699394D-01 -2.3064051287712D-01
44  4.3000000000000D-01  9.6983806486381D-01 -2.4133523194441D-01
45  4.4000000000000D-01  9.9065812063738D-01 -2.5180392324991D-01
46  4.5000000000000D-01  1.0110840079051D+00 -2.6199028349872D-01
47  4.6000000000000D-01  1.0310839952459D+00 -2.7183704807902D-01
48  4.7000000000000D-01  1.0506259859800D+00 -2.8128619633116D-01
49  4.8000000000000D-01  1.0696776107948D+00 -2.9027916297610D-01
50  4.9000000000000D-01  1.0882063229581D+00 -2.9875705499822D-01
51  5.0000000000000D-01  1.1061794958174D+00 -3.0666087324929D-01
52  5.1000000000000D-01  1.1235645222751D+00 -3.1393173801357D-01
53  5.2000000000000D-01  1.1403289159206D+00 -3.2051111775024D-01
54  5.3000000000000D-01  1.1564404134891D+00 -3.2634106020746D-01
55  5.4000000000000D-01  1.1718670783102D+00 -3.3136442508317D-01
56  5.5000000000000D-01  1.1865774044049D+00 -3.3552511739134D-01
57  5.6000000000000D-01  1.2005404208781D+00 -3.3876832067871D-01
58  5.7000000000000D-01  1.2137257962566D+00 -3.4104072922619D-01
59  5.8000000000000D-01  1.2261039424126D+00 -3.4229077836126D-01
60  5.9000000000000D-01  1.2376461177154D+00 -3.4246887200310D-01
61  6.0000000000000D-01  1.2483245290491D+00 -3.4152760656021D-01
62  6.1000000000000D-01  1.2581124323386D+00 -3.3942199030251D-01
63  6.2000000000000D-01  1.2669842312230D+00 -3.3610965733410D-01
64  6.3000000000000D-01  1.2749155735228D+00 -3.3155107530142D-01
65  6.4000000000000D-01  1.2818834451469D+00 -3.2570974598300D-01
66  6.5000000000000D-01  1.2878662610963D+00 -3.1855239792194D-01
67  6.6000000000000D-01  1.2928439532212D+00 -3.1004917028007D-01
68  6.7000000000000D-01  1.2967980544024D+00 -3.0017378711499D-01
69  6.8000000000000D-01  1.2997117788331D+00 -2.8890372130536D-01
70  6.9000000000000D-01  1.3015700980881D+00 -2.7622034737866D-01
71  7.0000000000000D-01  1.3023598126819D+00 -2.6210908252655D-01
72  7.1000000000000D-01  1.3020696188245D+00 -2.4655951512791D-01
73  7.2000000000000D-01  1.3006901701037D+00 -2.2956552013700D-01
74  7.3000000000000D-01  1.2982141338328D+00 -2.1112536073517D-01
75  7.4000000000000D-01  1.2946362418222D+00 -1.9124177568820D-01
76  7.5000000000000D-01  1.2899533353481D+00 -1.6992205189707D-01
77  7.6000000000000D-01  1.2841644041114D+00 -1.4717808167971D-01
78  7.7000000000000D-01  1.2772706189977D+00 -1.2302640437232D-01
79  7.8000000000000D-01  1.2692753584703D+00 -9.7488231892550D-02
80  7.9000000000000D-01  1.2601842284483D+00 -7.0589457962891D-02
81  8.0000000000000D-01  1.2500050755427D+00 -4.2360650750499D-02
82  8.1000000000000D-01  1.2387479935475D+00 -1.2837028739104D-02
83  8.2000000000000D-01  1.2264253231035D+00  1.7941580290134D-02
84  8.3000000000000D-01  1.2130516444765D+00  4.9930797229577D-02
85  8.4000000000000D-01  1.1986437634161D+00  8.3081766565015D-02
86  8.5000000000000D-01  1.1832206900833D+00  1.1734124817756D-01
87  8.6000000000000D-01  1.1668036110624D+00  1.5265172589539D-01
88  8.7000000000000D-01  1.1494158544932D+00  1.8895153259809D-01
89  8.8000000000000D-01  1.1310828483877D+00  2.2617499161094D-01
90  8.9000000000000D-01  1.1118320722179D+00  2.6425257406163D-01
91  9.0000000000000D-01  1.0916930018861D+00  3.0311107180665D-01
92  9.1000000000000D-01  1.0706970482131D+00  3.4267378547136D-01
93  9.2000000000000D-01  1.0488774891040D+00  3.8286072708433D-01
94  9.3000000000000D-01  1.0262693955749D+00  4.2358883672528D-01
95  9.4000000000000D-01  1.0029095518446D+00  4.6477221254544D-01
96  9.5000000000000D-01  9.7883636972173D-01  5.0632235346123D-01
97  9.6000000000000D-01  9.5408979753562D-01  5.4814841376589D-01
98  9.7000000000000D-01  9.2871122388165D-01  5.9015746885012D-01
99  9.8000000000000D-01  9.0274337647243D-01  6.3225479117081D-01
100  9.9000000000000D-01  8.7623021640420D-01  6.7434413555942D-01
101  1.0000000000000D+00  8.4921682816635D-01  7.1632803291568D-01
102  1.0100000000000D+00  8.2174930573898D-01  7.5810809129055D-01
103  1.0200000000000D+00  7.9387463513899D-01  7.9958530332366D-01
104  1.0300000000000D+00  7.6564057378994D-01  8.4066035896544D-01
105  1.0400000000000D+00  7.3709552710368D-01  8.8123396238457D-01
106  1.0500000000000D+00  7.0828842267418D-01  9.2120715193228D-01
107  1.0600000000000D+00  6.7926858249399D-01  9.6048162201424D-01
108  1.0700000000000D+00  6.5008559361271D-01  9.9896004570177D-01
109  1.0800000000000D+00  6.2078917766441D-01  1.0365463969004D+00
110  1.0900000000000D+00  5.9142905969631D-01  1.0731462708848D+00
111  1.1000000000000D+00  5.6205483673592D-01  1.1086672020041D+00
112  1.1100000000000D+00  5.3271584653593D-01  1.1430189773617D+00
113  1.1200000000000D+00  5.0346103693731D-01  1.1761139452796D+00
114  1.1300000000000D+00  4.7433883629002D-01  1.2078673173664D+00
115  1.1400000000000D+00  4.4539702536932D-01  1.2381974630207D+00
116  1.1500000000000D+00  4.1668261122078D-01  1.2670261952236D+00
117  1.1600000000000D+00  3.8824170336126D-01  1.2942790464985D+00
118  1.1700000000000D+00  3.6011939275687D-01  1.3198855339409D+00
119  1.1800000000000D+00  3.3235963399008D-01  1.3437794122557D+00
120  1.1900000000000D+00  3.0500513101675D-01  1.3658989137778D+00
121  1.2000000000000D+00  2.7809722690023D-01  1.3861869745020D+00
122  1.2100000000000D+00  2.5167579790329D-01  1.4045914451682D+00
123  1.2200000000000D+00  2.2577915229534D-01  1.4210652865274D+00
124  1.2300000000000D+00  2.0044393421881D-01  1.4355667479593D+00
125  1.2400000000000D+00  1.7570503294505D-01  1.4480595286534D+00
126  1.2500000000000D+00  1.5159549782868D-01  1.4585129206397D+00
127  1.2600000000000D+00  1.2814645924421D-01  1.4669019330324D+00
128  1.2700000000000D+00  1.0538705577613D-01  1.4732073968871D+00
129  1.2800000000000D+00  8.3344367912209D-02  1.4774160501482D+00
130  1.2900000000000D+00  6.2043358452747D-02  1.4795206022676D+00
131  1.3000000000000D+00  4.1506819842069D-02  1.4795197781051D+00
132  1.3100000000000D+00  2.1755328601736D-02  1.4774183407969D+00
133  1.3200000000000D+00  2.8072069998253D-03  1.4732270934207D+00
134  1.3300000000000D+00 -1.5321507903406D-02  1.4669628592645D+00
135  1.3400000000000D+00 -3.2617087736556D-02  1.4586484406392D+00
136  1.3500000000000D+00 -4.9068128771167D-02  1.4483125563035D+00
137  1.3600000000000D+00 -6.4665560270281D-02  1.4359897574959D+00
138  1.3700000000000D+00 -7.9402645236116D-02  1.4217203228140D+00
139  1.3800000000000D+00 -9.3274973563642D-02  1.4055501321875D+00
140  1.3900000000000D+00 -1.0628044760269D-01  1.3875305201792D+00
141  1.4000000000000D+00 -1.1841926022962D-01  1.3677181091343D+00
142  1.4100000000000D+00 -1.2969386547441D-01  1.3461746225346D+00
143  1.4200000000000D+00 -1.4010894182377D-01  1.3229666791350D+00
144  1.4300000000000D+00 -1.4967134835197D-01  1.2981655685376D+00
145  1.4400000000000D+00 -1.5839007378555D-01  1.2718470087401D+00
146  1.4500000000000D+00 -1.6627617874073D-01  1.2440908865539D+00
147  1.4600000000000D+00 -1.7334273127951D-01  1.2149809815374D+00
148  1.4700000000000D+00 -1.7960473603493D-01  1.1846046743724D+00
149  1.4800000000000D+00 -1.8507905714393D-01  1.1530526405706D+00
150  1.4900000000000D+00 -1.8978433521625D-01  1.1204185303839D+00
151  1.5000000000000D+00 -1.9374089866831D-01  1.0867986360315D+00
152  1.5100000000000D+00 -1.9697066964379D-01  1.0522915471047D+00
153  1.5200000000000D+00 -1.9949706489347D-01  1.0169977953616D+00
154  1.5300000000000D+00 -2.0134489187761D-01  9.8101948987262D-01
155  1.5400000000000D+00 -2.0254024045533D-01  9.4445994370514D-01
156  1.5500000000000D+00 -2.0311037048099D-01  9.0742329322565D-01
157  1.5600000000000D+00 -2.0308359565969D-01  8.7001411118611D-01
158  1.5700000000000D+00 -2.0248916401859D-01  8.3233701471690D-01
159  1.5800000000000D+00 -2.0135713534542D-01  7.9449626941294D-01
160  1.5900000000000D+00 -1.9971825596097D-01  7.5659539059393D-01
161  1.6000000000000D+00 -1.9760383119034D-01  7.1873674298552D-01
162  1.6100000000000D+00 -1.9504559588400D-01  6.8102113979002D-01
163  1.6200000000000D+00 -1.9207558337521D-01  6.4354744246092D-01
164  1.6300000000000D+00 -1.8872599319476D-01  6.0641216201873D-01
165  1.6400000000000D+00 -1.8502905794513D-01  5.6970906324208D-01
166  1.6500000000000D+00 -1.8101690962322D-01  5.3352877245786D-01
167  1.6600000000000D+00 -1.7672144579756D-01  4.9795839023645D-01
168  1.6700000000000D+00 -1.7217419589558D-01  4.6308110959857D-01
169  1.6800000000000D+00 -1.6740618800274D-01  4.2897584099135D-01
170  1.6900000000000D+00 -1.6244781638946D-01  3.9571684449906D-01
171  1.7000000000000D+00 -1.5732871016189D-01  3.6337337050038D-01
172  1.7100000000000D+00 -1.5207760278844D-01  3.3200930693984D-01
173  1.7200000000000D+00 -1.4672220460226D-01  3.0168284314040D-01
174  1.7300000000000D+00 -1.4128907547666D-01  2.7244613612620D-01
175  1.7400000000000D+00 -1.3580349669323D-01  2.4434497092473D-01
176  1.7500000000000D+00 -1.3028938206205D-01  2.1741861670260D-01
177  1.7600000000000D+00 -1.2476909842127D-01  1.9169924291528D-01
178  1.7700000000000D+00 -1.1926330313238D-01  1.6721137608047D-01
179  1.7800000000000D+00 -1.1379108714487D-01  1.4397295872734D-01
180  1.7900000000000D+00 -1.0837002334415D-01  1.2199593320109D-01
181  1.8000000000000D+00 -1.0301629216368D-01  1.0128698031080D-01
182  1.8100000000000D+00 -9.7744916945075D-02  8.1848858926634D-02
183  1.8200000000000D+00 -9.2569698166926D-02  6.3680143748488D-02
184  1.8300000000000D+00 -8.7503178557729D-02  4.6775066011317D-02
185  1.8400000000000D+00 -8.2556673932600D-02  3.1123729734824D-02
186  1.8500000000000D+00 -7.7740286480613D-02  1.6712219391778D-02
187  1.8600000000000D+00 -7.3062918586934D-02  3.5226964905977D-03
188  1.8700000000000D+00 -6.8532297144673D-02 -8.4664554494804D-03
189  1.8800000000000D+00 -6.4154998929639D-02 -1.9280489737118D-02
190  1.8900000000000D+00 -5.9936480957724D-02 -2.8948137894768D-02
191  1.9000000000000D+00 -5.5881114628756D-02 -3.7501439177620D-02
192  1.9100000000000D+00 -5.1992223834117D-02 -4.4975557754843D-02
193  1.9200000000000D+00 -4.8272126392451D-02 -5.1408589667383D-02
194  1.9300000000000D+00 -4.4722179013432D-02 -5.6841359033480D-02
195  1.9400000000000D+00 -4.1342825208595D-02 -6.1317205428942D-02
196  1.9500000000000D+00 -3.8133646131026D-02 -6.4881762611783D-02
197  1.9600000000000D+00 -3.5093414004883D-02 -6.7582729753221D-02
198  1.9700000000000D+00 -3.2220147838666D-02 -6.9469636238692D-02
199  1.9800000000000D+00 -2.9511171297700D-02 -7.0593600551425D-02
200  1.9900000000000D+00 -2.6963172253912D-02 -7.1007084811900D-02
201  2.0000000000000D+00 -2.4572263942031D-02 -7.0763645359978D-02
202  2.0100000000000D+00 -2.2334047275505D-02 -6.9917680810961D-02
203  2.0200000000000D+00 -2.0243674111418D-02 -6.8524178402234D-02
204  2.0300000000000D+00 -1.8295911160383D-02 -6.6638459657020D-02
205  2.0400000000000D+00 -1.6485204245124D-02 -6.4315926363755D-02
206  2.0500000000000D+00 -1.4805742582335D-02 -6.1611808064863D-02
207  2.0600000000000D+00 -1.3251522901130D-02 -5.8580911605892D-02
208  2.0700000000000D+00 -1.1816412948081D-02 -5.5277374380772D-02
209  2.0800000000000D+00 -1.0494214247698D-02 -5.1754421664495D-02
210  2.0900000000000D+00 -9.2787237947860D-03 -4.8064129155824D-02
211  2.1000000000000D+00 -8.1637942557080D-03 -4.4257192210528D-02
212  2.1100000000000D+00 -7.1433927842110D-03 -4.0382701336105D-02
213  2.1200000000000D+00 -6.2116576803563D-03 -3.6487926659366D-02
214  2.1300000000000D+00 -5.3629530976374D-03 -3.2618110605321D-02
215  2.1400000000000D+00 -4.5919213975289D-03 -2.8816270171427D-02
216  2.1500000000000D+00 -3.8935326580493D-03 -2.5123010499685D-02
217  2.1600000000000D+00 -3.2631317858718D-03 -2.1576348156771D-02
218  2.1700000000000D+00 -2.6964821850449D-03 -1.8211547745065D-02
219  2.1800000000000D+00 -2.1898064200682D-03 -1.5060970306691D-02
220  2.1900000000000D+00 -1.7398236602174D-03 -1.2153934244418D-02
221  2.2000000000000D+00 -1.3440370133989D-03 -9.5184584565748D-03
222  2.2100000000000D+00 -9.9987260692732D-04 -7.1745976611871D-03
223  2.2200000000000D+00 -7.0533976615097D-04 -5.1389871554049D-03
224  2.2300000000000D+00 -4.5852342318493D-04 -3.4182075930627D-03
225  2.2400000000000D+00 -2.6243288241589D-04 -2.0554708716282D-03
226  2.2500000000000D+00 -1.1865975079071D-04 -1.0751266442883D-03
227  2.2600000000000D+00 -2.6073213339054D-05 -4.6268366586701D-04
228  2.2700000000000D+00  2.1472902418415D-05 -1.3565166359559D-04
229  2.2800000000000D+00  3.1646357578981D-05 -3.9951786733354D-07
230  2.2900000000000D+00  1.9362722490563D-05  2.4158606890541D-05
231  2.3000000000000D+00  1.3090486911079D-06  2.2376925755439D-06
232  2.3100000000000D+00 -5.7918084765498D-06 -1.1450060821699D-05
233  2.3200000000000D+00 -4.4667779291499D-06 -9.7157377536388D-06
234  2.3300000000000D+00  2.6727227556265D-07  3.8091156332779D-07
235  2.3400000000000D+00  1.2227902975891D-06  1.8962814830561D-06
236  2.3500000000000D+00  7.5557015684220D-07  1.2458279744531D-06
237  2.3600000000000D+00 -3.7029277397998D-08  9.1451503811510D-08
238  2.3700000000000D+00 -8.2535265631015D-08  2.0383800845778D-07
239  2.3800000000000D+00 -3.8463525750590D-08  9.4993678487888D-08
240  2.3900000000000D+00  0.0000000000000D+00  0.0000000000000D+00
241  2.4000000000000D+00  0.0000000000000D+00  0.0000000000000D+00
242  2.4100000000000D+00  0.0000000000000D+00  0.0000000000000D+00
243  2.4200000000000D+00  0.0000000000000D+00  0.0000000000000D+00
244  2.4300000000000D+00  0.0000000000000D+00  0.0000000000000D+00
245  2.4400000000000D+00  0.0000000000000D+00  0.0000000000000D+00
246  2.4500000000000D+00  0.0000000000000D+00  0.0000000000000D+00
247  2.4600000000000D+00  0.0000000000000D+00  0.0000000000000D+00
248  2.4700000000000D+00  0.0000000000000D+00  0.0000000000000D+00
249  2.4800000000000D+00  0.0000000000000D+00  0.0000000000000D+00
250  2.4900000000000D+00  0.0000000000000D+00  0.0000000000000D+00
251  2.5000000000000D+00  0.0000000000000D+00  0.0000000000000D+00
252  2.5100000000000D+00  0.0000000000000D+00  0.0000000000000D+00
253  2.5200000000000D+00  0.0000000000000D+00  0.0000000000000D+00
254  2.5300000000000D+00  0.0000000000000D+00  0.0000000000000D+00
255  2.5400000000000D+00  0.0000000000000D+00  0.0000000000000D+00
256  2.5500000000000D+00  0.0000000000000D+00  0.0000000000000D+00
257  2.5600000000000D+00  0.0000000000000D+00  0.0000000000000D+00
258  2.5700000000000D+00  0.0000000000000D+00  0.0000000000000D+00
259  2.5800000000000D+00  0.0000000000000D+00  0.0000000000000D+00
260  2.5900000000000D+00  0.0000000000000D+00  0.0000000000000D+00
261  2.6000000000000D+00  0.0000000000000D+00  0.0000000000000D+00
262  2.6100000000000D+00  0.0000000000000D+00  0.0000000000000D+00
263  2.6200000000000D+00  0.0000000000000D+00  0.0000000000000D+00
264  2.6300000000000D+00  0.0000000000000D+00  0.0000000000000D+00
265  2.6400000000000D+00  0.0000000000000D+00  0.0000000000000D+00
266  2.6500000000000D+00  0.0000000000000D+00  0.0000000000000D+00
267  2.6600000000000D+00  0.0000000000000D+00  0.0000000000000D+00
268  2.6700000000000D+00  0.0000000000000D+00  0.0000000000000D+00
269  2.6800000000000D+00  0.0000000000000D+00  0.0000000000000D+00
270  2.6900000000000D+00  0.0000000000000D+00  0.0000000000000D+00
271  2.7000000000000D+00  0.0000000000000D+00  0.0000000000000D+00
272  2.7100000000000D+00  0.0000000000000D+00  0.0000000000000D+00
273  2.7200000000000D+00  0.0000000000000D+00  0.0000000000000D+00
274  2.7300000000000D+00  0.0000000000000D+00  0.0000000000000D+00
275  2.7400000000000D+00  0.0000000000000D+00  0.0000000000000D+00
276  2.7500000000000D+00  0.0000000000000D+00  0.0000000000000D+00
277  2.7600000000000D+00  0.0000000000000D+00  0.0000000000000D+00
278  2.7700000000000D+00  0.0000000000000D+00  0.0000000000000D+00
279  2.7800000000000D+00  0.0000000000000D+00  0.0000000000000D+00
280  2.7900000000000D+00  0.0000000000000D+00  0.0000000000000D+00
281  2.8000000000000D+00  0.0000000000000D+00  0.0000000000000D+00
282  2.8100000000000D+00  0.0000000000000D+00  0.0000000000000D+00
283  2.8200000000000D+00  0.0000000000000D+00  0.0000000000000D+00
284  2.8300000000000D+00  0.0000000000000D+00  0.0000000000000D+00
285  2.8400000000000D+00  0.0000000000000D+00  0.0000000000000D+00
286  2.8500000000000D+00  0.0000000000000D+00  0.0000000000000D+00
287  2.8600000000000D+00  0.0000000000000D+00  0.0000000000000D+00
288  2.8700000000000D+00  0.0000000000000D+00  0.0000000000000D+00
289  2.8800000000000D+00  0.0000000000000D+00  0.0000000000000D+00
290  2.8900000000000D+00  0.0000000000000D+00  0.0000000000000D+00
291  2.9000000000000D+00  0.0000000000000D+00  0.0000000000000D+00
292  2.9100000000000D+00  0.0000000000000D+00  0.0000000000000D+00
293  2.9200000000000D+00  0.0000000000000D+00  0.0000000000000D+00
294  2.9300000000000D+00  0.0000000000000D+00  0.0000000000000D+00
295  2.9400000000000D+00  0.0000000000000D+00  0.0000000000000D+00
296  2.9500000000000D+00  0.0000000000000D+00  0.0000000000000D+00
297  2.9600000000000D+00  0.0000000000000D+00  0.0000000000000D+00
298  2.9700000000000D+00  0.0000000000000D+00  0.0000000000000D+00
299  2.9800000000000D+00  0.0000000000000D+00  0.0000000000000D+00
300  2.9900000000000D+00  0.0000000000000D+00  0.0000000000000D+00
301  3.0000000000000D+00  0.0000000000000D+00  0.0000000000000D+00
302  3.0100000000000D+00  0.0000000000000D+00  0.0000000000000D+00
303  3.0200000000000D+00  0.0000000000000D+00  0.0000000000000D+00
304  3.0300000000000D+00  0.0000000000000D+00  0.0000000000000D+00
305  3.0400000000000D+00  0.0000000000000D+00  0.0000000000000D+00
306  3.0500000000000D+00  0.0000000000000D+00  0.0000000000000D+00
307  3.0600000000000D+00  0.0000000000000D+00  0.0000000000000D+00
308  3.0700000000000D+00  0.0000000000000D+00  0.0000000000000D+00
309  3.0800000000000D+00  0.0000000000000D+00  0.0000000000000D+00
310  3.0900000000000D+00  0.0000000000000D+00  0.0000000000000D+00
311  3.1000000000000D+00  0.0000000000000D+00  0.0000000000000D+00
312  3.1100000000000D+00  0.0000000000000D+00  0.0000000000000D+00
313  3.1200000000000D+00  0.0000000000000D+00  0.0000000000000D+00
314  3.1300000000000D+00  0.0000000000000D+00  0.0000000000000D+00
315  3.1400000000000D+00  0.0000000000000D+00  0.0000000000000D+00
316  3.1500000000000D+00  0.0000000000000D+00  0.0000000000000D+00
317  3.1600000000000D+00  0.0000000000000D+00  0.0000000000000D+00
318  3.1700000000000D+00  0.0000000000000D+00  0.0000000000000D+00
319  3.1800000000000D+00  0.0000000000000D+00  0.0000000000000D+00
320  3.1900000000000D+00  0.0000000000000D+00  0.0000000000000D+00
321  3.2000000000000D+00  0.0000000000000D+00  0.0000000000000D+00
322  3.2100000000000D+00  0.0000000000000D+00  0.0000000000000D+00
323  3.2200000000000D+00  0.0000000000000D+00  0.0000000000000D+00
324  3.2300000000000D+00  0.0000000000000D+00  0.0000000000000D+00
325  3.2400000000000D+00  0.0000000000000D+00  0.0000000000000D+00
326  3.2500000000000D+00  0.0000000000000D+00  0.0000000000000D+00
327  3.2600000000000D+00  0.0000000000000D+00  0.0000000000000D+00
328  3.2700000000000D+00  0.0000000000000D+00  0.0000000000000D+00
329  3.2800000000000D+00  0.0000000000000D+00  0.0000000000000D+00
330  3.2900000000000D+00  0.0000000000000D+00  0.0000000000000D+00
331  3.3000000000000D+00  0.0000000000000D+00  0.0000000000000D+00
332  3.3100000000000D+00  0.0000000000000D+00  0.0000000000000D+00
333  3.3200000000000D+00  0.0000000000000D+00  0.0000000000000D+00
334  3.3300000000000D+00  0.0000000000000D+00  0.0000000000000D+00
335  3.3400000000000D+00  0.0000000000000D+00  0.0000000000000D+00
336  3.3500000000000D+00  0.0000000000000D+00  0.0000000000000D+00
337  3.3600000000000D+00  0.0000000000000D+00  0.0000000000000D+00
338  3.3700000000000D+00  0.0000000000000D+00  0.0000000000000D+00
339  3.3800000000000D+00  0.0000000000000D+00  0.0000000000000D+00
340  3.3900000000000D+00  0.0000000000000D+00  0.0000000000000D+00
341  3.4000000000000D+00  0.0000000000000D+00  0.0000000000000D+00
342  3.4100000000000D+00  0.0000000000000D+00  0.0000000000000D+00
343  3.4200000000000D+00  0.0000000000000D+00  0.0000000000000D+00
344  3.4300000000000D+00  0.0000000000000D+00  0.0000000000000D+00
345  3.4400000000000D+00  0.0000000000000D+00  0.0000000000000D+00
346  3.4500000000000D+00  0.0000000000000D+00  0.0000000000000D+00
347  3.4600000000000D+00  0.0000000000000D+00  0.0000000000000D+00
348  3.4700000000000D+00  0.0000000000000D+00  0.0000000000000D+00
349  3.4800000000000D+00  0.0000000000000D+00  0.0000000000000D+00
350  3.4900000000000D+00  0.0000000000000D+00  0.0000000000000D+00
351  3.5000000000000D+00  0.0000000000000D+00  0.0000000000000D+00
352  3.5100000000000D+00  0.0000000000000D+00  0.0000000000000D+00
353  3.5200000000000D+00  0.0000000000000D+00  0.0000000000000D+00
354  3.5300000000000D+00  0.0000000000000D+00  0.0000000000000D+00
355  3.5400000000000D+00  0.0000000000000D+00  0.0000000000000D+00
356  3.5500000000000D+00  0.0000000000000D+00  0.0000000000000D+00
357  3.5600000000000D+00  0.0000000000000D+00  0.0000000000000D+00
358  3.5700000000000D+00  0.0000000000000D+00  0.0000000000000D+00
359  3.5800000000000D+00  0.0000000000000D+00  0.0000000000000D+00
360  3.5900000000000D+00  0.0000000000000D+00  0.0000000000000D+00
361  3.6000000000000D+00  0.0000000000000D+00  0.0000000000000D+00
362  3.6100000000000D+00  0.0000000000000D+00  0.0000000000000D+00
363  3.6200000000000D+00  0.0000000000000D+00  0.0000000000000D+00
364  3.6300000000000D+00  0.0000000000000D+00  0.0000000000000D+00
365  3.6400000000000D+00  0.0000000000000D+00  0.0000000000000D+00
366  3.6500000000000D+00  0.0000000000000D+00  0.0000000000000D+00
367  3.6600000000000D+00  0.0000000000000D+00  0.0000000000000D+00
368  3.6700000000000D+00  0.0000000000000D+00  0.0000000000000D+00
369  3.6800000000000D+00  0.0000000000000D+00  0.0000000000000D+00
370  3.6900000000000D+00  0.0000000000000D+00  0.0000000000000D+00
371  3.7000000000000D+00  0.0000000000000D+00  0.0000000000000D+00
372  3.7100000000000D+00  0.0000000000000D+00  0.0000000000000D+00
373  3.7200000000000D+00  0.0000000000000D+00  0.0000000000000D+00
374  3.7300000000000D+00  0.0000000000000D+00  0.0000000000000D+00
375  3.7400000000000D+00  0.0000000000000D+00  0.0000000000000D+00
376  3.7500000000000D+00  0.0000000000000D+00  0.0000000000000D+00
377  3.7600000000000D+00  0.0000000000000D+00  0.0000000000000D+00
378  3.7700000000000D+00  0.0000000000000D+00  0.0000000000000D+00
379  3.7800000000000D+00  0.0000000000000D+00  0.0000000000000D+00
380  3.7900000000000D+00  0.0000000000000D+00  0.0000000000000D+00
381  3.8000000000000D+00  0.0000000000000D+00  0.0000000000000D+00
382  3.8100000000000D+00  0.0000000000000D+00  0.0000000000000D+00
383  3.8200000000000D+00  0.0000000000000D+00  0.0000000000000D+00
384  3.8300000000000D+00  0.0000000000000D+00  0.0000000000000D+00
385  3.8400000000000D+00  0.0000000000000D+00  0.0000000000000D+00
386  3.8500000000000D+00  0.0000000000000D+00  0.0000000000000D+00
387  3.8600000000000D+00  0.0000000000000D+00  0.0000000000000D+00
388  3.8700000000000D+00  0.0000000000000D+00  0.0000000000000D+00
389  3.8800000000000D+00  0.0000000000000D+00  0.0000000000000D+00
390  3.8900000000000D+00  0.0000000000000D+00  0.0000000000000D+00
391  3.9000000000000D+00  0.0000000000000D+00  0.0000000000000D+00
392  3.9100000000000D+00  0.0000000000000D+00  0.0000000000000D+00
393  3.9200000000000D+00  0.0000000000000D+00  0.0000000000000D+00
394  3.9300000000000D+00  0.0000000000000D+00  0.0000000000000D+00
395  3.9400000000000D+00  0.0000000000000D+00  0.0000000000000D+00
396  3.9500000000000D+00  0.0000000000000D+00  0.0000000000000D+00
397  3.9600000000000D+00  0.0000000000000D+00  0.0000000000000D+00
398  3.9700000000000D+00  0.0000000000000D+00  0.0000000000000D+00
399  3.9800000000000D+00  0.0000000000000D+00  0.0000000000000D+00
400  3.9900000000000D+00  0.0000000000000D+00  0.0000000000000D+00
401  4.0000000000000D+00  0.0000000000000D+00  0.0000000000000D+00
402  4.0100000000000D+00  0.0000000000000D+00  0.0000000000000D+00
403  4.0200000000000D+00  0.0000000000000D+00  0.0000000000000D+00
404  4.0300000000000D+00  0.0000000000000D+00  0.0000000000000D+00
405  4.0400000000000D+00  0.0000000000000D+00  0.0000000000000D+00
406  4.0500000000000D+00  0.0000000000000D+00  0.0000000000000D+00
407  4.0600000000000D+00  0.0000000000000D+00  0.0000000000000D+00
408  4.0700000000000D+00  0.0000000000000D+00  0.0000000000000D+00
409  4.0800000000000D+00  0.0000000000000D+00  0.0000000000000D+00
410  4.0900000000000D+00  0.0000000000000D+00  0.0000000000000D+00
411  4.1000000000000D+00  0.0000000000000D+00  0.0000000000000D+00
412  4.1100000000000D+00  0.0000000000000D+00  0.0000000000000D+00
413  4.1200000000000D+00  0.0000000000000D+00  0.0000000000000D+00
414  4.1300000000000D+00  0.0000000000000D+00  0.0000000000000D+00
415  4.1400000000000D+00  0.0000000000000D+00  0.0000000000000D+00
416  4.1500000000000D+00  0.0000000000000D+00  0.0000000000000D+00
417  4.1600000000000D+00  0.0000000000000D+00  0.0000000000000D+00
418  4.1700000000000D+00  0.0000000000000D+00  0.0000000000000D+00
419  4.1800000000000D+00  0.0000000000000D+00  0.0000000000000D+00
420  4.1900000000000D+00  0.0000000000000D+00  0.0000000000000D+00
421  4.2000000000000D+00  0.0000000000000D+00  0.0000000000000D+00
422  4.2100000000000D+00  0.0000000000000D+00  0.0000000000000D+00
423  4.2200000000000D+00  0.0000000000000D+00  0.0000000000000D+00
424  4.2300000000000D+00  0.0000000000000D+00  0.0000000000000D+00
425  4.2400000000000D+00  0.0000000000000D+00  0.0000000000000D+00
426  4.2500000000000D+00  0.0000000000000D+00  0.0000000000000D+00
427  4.2600000000000D+00  0.0000000000000D+00  0.0000000000000D+00
428  4.2700000000000D+00  0.0000000000000D+00  0.0000000000000D+00
429  4.2800000000000D+00  0.0000000000000D+00  0.0000000000000D+00
430  4.2900000000000D+00  0.0000000000000D+00  0.0000000000000D+00
431  4.3000000000000D+00  0.0000000000000D+00  0.0000000000000D+00
432  4.3100000000000D+00  0.0000000000000D+00  0.0000000000000D+00
433  4.3200000000000D+00  0.0000000000000D+00  0.0000000000000D+00
434  4.3300000000000D+00  0.0000000000000D+00  0.0000000000000D+00
435  4.3400000000000D+00  0.0000000000000D+00  0.0000000000000D+00
436  4.3500000000000D+00  0.0000000000000D+00  0.0000000000000D+00
437  4.3600000000000D+00  0.0000000000000D+00  0.0000000000000D+00
438  4.3700000000000D+00  0.0000000000000D+00  0.0000000000000D+00
439  4.3800000000000D+00  0.0000000000000D+00  0.0000000000000D+00
440  4.3900000000000D+00  0.0000000000000D+00  0.0000000000000D+00
441  4.4000000000000D+00  0.0000000000000D+00  0.0000000000000D+00
442  4.4100000000000D+00  0.0000000000000D+00  0.0000000000000D+00
443  4.4200000000000D+00  0.0000000000000D+00  0.0000000000000D+00