Sc    ONCVPSP  r_core=  1.36  1.46  1.70
21.0000     11.0000      140907    zatom,zion,pspd
8    11     2     4   601     0    pspcod,pspxc,lmax,lloc,mmax,r2well
6.00000000  0.12000000  0.00000000    rchrg fchrg qchrg
2     2     2     0     0    nproj
0                 extension_switch
0                         1.0524766144595D+01  9.7072690769111D-01
1  0.0000000000000D+00 -0.0000000000000D+00  0.0000000000000D+00
2  1.0000000000000D-02 -7.2031613225050D-02  1.5836498161536D-02
3  2.0000000000000D-02 -1.4399156613642D-01  3.1922835023890D-02
4  3.0000000000000D-02 -2.1580631733799D-01  4.8499172456443D-02
5  4.0000000000000D-02 -2.8739861747725D-01  6.5786564160832D-02
6  5.0000000000000D-02 -3.5868578949003D-01  8.3978009478517D-02
7  6.0000000000000D-02 -4.2957816630780D-01  1.0323022043750D-01
8  7.0000000000000D-02 -4.9997773259475D-01  1.2365631312717D-01
9  8.0000000000000D-02 -5.6977701218846D-01  1.4531961246438D-01
10  9.0000000000000D-02 -6.3885823701408D-01  1.6822873283919D-01
11  1.0000000000000D-01 -7.0709282646062D-01  1.9233406659413D-01
12  1.1000000000000D-01 -7.7434119874289D-01  2.1752577873236D-01
13  1.2000000000000D-01 -8.4045292772312D-01  2.4363336999101D-01
14  1.3000000000000D-01 -9.0526725030635D-01  2.7042683287402D-01
15  1.4000000000000D-01 -9.6861392101175D-01  2.9761938687307D-01
16  1.5000000000000D-01 -1.0303144017766D+00  3.2487174086174D-01
17  1.6000000000000D-01 -1.0901833669456D+00  3.5179779400847D-01
18  1.7000000000000D-01 -1.1480304952349D+00  3.7797165028168D-01
19  1.8000000000000D-01 -1.2036625137370D+00  4.0293579099268D-01
20  1.9000000000000D-01 -1.2568854532909D+00  4.2621022396947D-01
21  2.0000000000000D-01 -1.3075070651164D+00  4.4730238781069D-01
22  2.1000000000000D-01 -1.3553393529575D+00  4.6571760449174D-01
23  2.2000000000000D-01 -1.4002011591249D+00  4.8096980936313D-01
24  2.3000000000000D-01 -1.4419207550439D+00  4.9259233540599D-01
25  2.4000000000000D-01 -1.4803383718849D+00  5.0014846803839D-01
26  2.5000000000000D-01 -1.5153086231540D+00  5.0324155356318D-01
27  2.6000000000000D-01 -1.5467027562962D+00  5.0152438479960D-01
28  2.7000000000000D-01 -1.5744106914325D+00  4.9470767531790D-01
29  2.8000000000000D-01 -1.5983427863562D+00  4.8256735747807D-01
30  2.9000000000000D-01 -1.6184313049895D+00  4.6495059880990D-01
31  3.0000000000000D-01 -1.6346315422838D+00  4.4178033387059D-01
32  3.1000000000000D-01 -1.6469225815316D+00  4.1305820645010D-01
33  3.2000000000000D-01 -1.6553076620170D+00  3.7886582862319D-01
34  3.3000000000000D-01 -1.6598141531082D+00  3.3936434160388D-01
35  3.4000000000000D-01 -1.6604931447878D+00  2.9479231778676D-01
36  3.5000000000000D-01 -1.6574186053142D+00  2.4546182464990D-01
37  3.6000000000000D-01 -1.6506862218166D+00  1.9175310510316D-01
38  3.7000000000000D-01 -1.6404118383274D+00  1.3410758073522D-01
39  3.8000000000000D-01 -1.6267296128499D+00  7.3019655052198D-02
40  3.9000000000000D-01 -1.6097898704341D+00  9.0272514030963D-03
41  4.0000000000000D-01 -1.5897567439199D+00 -5.7298494686523D-02
42  4.1000000000000D-01 -1.5668056258407D+00 -1.2536430013198D-01
43  4.2000000000000D-01 -1.5411204952632D+00 -1.9456625422887D-01
44  4.3000000000000D-01 -1.5128911776433D+00 -2.6430153398385D-01
45  4.4000000000000D-01 -1.4823105974753D+00 -3.3398004522209D-01
46  4.5000000000000D-01 -1.4495720835239D+00 -4.0303572038904D-01
47  4.6000000000000D-01 -1.4148667856562D+00 -4.7093720825115D-01
48  4.7000000000000D-01 -1.3783812606623D+00 -5.3719769917502D-01
49  4.8000000000000D-01 -1.3402953119400D+00 -6.0138351798085D-01
50  4.9000000000000D-01 -1.3007800263222D+00 -6.6312171653417D-01
51  5.0000000000000D-01 -1.2599960704003D+00 -7.2210637193689D-01
52  5.1000000000000D-01 -1.2180925444403D+00 -7.7810236619643D-01
53  5.2000000000000D-01 -1.1752061449168D+00 -8.3094772267750D-01
54  5.3000000000000D-01 -1.1314602242591D+00 -8.8055602668502D-01
55  5.4000000000000D-01 -1.0869651439507D+00 -9.2691346955890D-01
56  5.5000000000000D-01 -1.0418181861829D+00 -9.7007736229876D-01
57  5.6000000000000D-01 -9.9610426033003D-01 -1.0101712094294D+00
58  5.7000000000000D-01 -9.4989693096906D-01 -1.0473784206721D+00
59  5.8000000000000D-01 -9.0325958819412D-01 -1.0819349754787D+00
60  5.9000000000000D-01 -8.5624712906145D-01 -1.1141202406830D+00
61  6.0000000000000D-01 -8.0890773711258D-01 -1.1442469915002D+00
62  6.1000000000000D-01 -7.6128489441625D-01 -1.1726502855855D+00
63  6.2000000000000D-01 -7.1341948609083D-01 -1.1996768567229D+00
64  6.3000000000000D-01 -6.6535216184074D-01 -1.2256714830826D+00
65  6.4000000000000D-01 -6.1712544299495D-01 -1.2509666863852D+00
66  6.5000000000000D-01 -5.6878577920870D-01 -1.2758717194302D+00
67  6.6000000000000D-01 -5.2038607129091D-01 -1.3006584879346D+00
68  6.7000000000000D-01 -4.7198715883802D-01 -1.3255542154274D+00
69  6.8000000000000D-01 -4.2365950705133D-01 -1.3507321249718D+00
70  6.9000000000000D-01 -3.7548476017005D-01 -1.3763026510849D+00
71  7.0000000000000D-01 -3.2755692708179D-01 -1.4023064850509D+00
72  7.1000000000000D-01 -2.7998278329840D-01 -1.4287119421905D+00
73  7.2000000000000D-01 -2.3288229144013D-01 -1.4554116229430D+00
74  7.3000000000000D-01 -1.8638846437869D-01 -1.4822219655451D+00
75  7.4000000000000D-01 -1.4064690429851D-01 -1.5088841690500D+00
76  7.5000000000000D-01 -9.5814936997088D-02 -1.5350668210271D+00
77  7.6000000000000D-01 -5.2060019009475D-02 -1.5603727554414D+00
78  7.7000000000000D-01 -9.5580632792306D-03 -1.5843456438800D+00
79  7.8000000000000D-01  3.1508692404658D-02 -1.6064789468460D+00
80  7.9000000000000D-01  7.0954144075147D-02 -1.6262264382777D+00
81  8.0000000000000D-01  1.0859105924175D-01 -1.6430140840611D+00
82  8.1000000000000D-01  1.4423403772900D-01 -1.6562530200037D+00
83  8.2000000000000D-01  1.7770263348126D-01 -1.6653533452743D+00
84  8.3000000000000D-01  2.0882457011294D-01 -1.6697384243218D+00
85  8.4000000000000D-01  2.3743897948688D-01 -1.6688593742040D+00
86  8.5000000000000D-01  2.6339959067224D-01 -1.6622094053377D+00
87  8.6000000000000D-01  2.8657779629059D-01 -1.6493376820290D+00
88  8.7000000000000D-01  3.0686552450400D-01 -1.6298623747473D+00
89  8.8000000000000D-01  3.2417784771279D-01 -1.6034825888731D+00
90  8.9000000000000D-01  3.3845526338519D-01 -1.5699888744356D+00
91  9.0000000000000D-01  3.4966558830296D-01 -1.5292720480128D+00
92  9.1000000000000D-01  3.5780541483894D-01 -1.4813300912980D+00
93  9.2000000000000D-01  3.6290108663502D-01 -1.4262729306224D+00
94  9.3000000000000D-01  3.6500916114923D-01 -1.3643249476113D+00
95  9.4000000000000D-01  3.6421633787003D-01 -1.2958251225933D+00
96  9.5000000000000D-01  3.6063884335996D-01 -1.2212247684864D+00
97  9.6000000000000D-01  3.5442127739227D-01 -1.1410828722787D+00
98  9.7000000000000D-01  3.4573456576688D-01 -1.0560575774419D+00
99  9.8000000000000D-01  3.3477517989655D-01 -9.6690282101062D-01
100  9.9000000000000D-01  3.2176097664473D-01 -8.7445070792248D-01
101  1.0000000000000D+00  3.0692853817416D-01 -7.7960006782295D-01
102  1.0100000000000D+00  2.9052976376050D-01 -6.8330180096095D-01
103  1.0200000000000D+00  2.7282815117904D-01 -5.8654286922710D-01
104  1.0300000000000D+00  2.5409530208153D-01 -4.9033128431627D-01
105  1.0400000000000D+00  2.3460651636278D-01 -3.9567704336629D-01
106  1.0500000000000D+00  2.1463554607903D-01 -3.0356955933362D-01
107  1.0600000000000D+00  1.9445145812926D-01 -2.1496432085734D-01
108  1.0700000000000D+00  1.7431441473884D-01 -1.3076481925031D-01
109  1.0800000000000D+00  1.5447339107940D-01 -5.1812921551704D-02
110  1.0900000000000D+00  1.3515974134454D-01  2.1138636171975D-02
111  1.1000000000000D+00  1.1658300880439D-01  8.7443725861651D-02
112  1.1100000000000D+00  9.8931219284854D-02  1.4656102230315D-01
113  1.1200000000000D+00  8.2368715932551D-02  1.9806280029615D-01
114  1.1300000000000D+00  6.7033637607945D-02  2.4164521654142D-01
115  1.1400000000000D+00  5.3029670938096D-02  2.7716194480200D-01
116  1.1500000000000D+00  4.0434301838906D-02  3.0458821098907D-01
117  1.1600000000000D+00  2.9298054571031D-02  3.2402335263574D-01
118  1.1700000000000D+00  1.9639565916182D-02  3.3571001189700D-01
119  1.1800000000000D+00  1.1445823784113D-02  3.4003017969679D-01
120  1.1900000000000D+00  4.6802376425267D-03  3.3747063279861D-01
121  1.2000000000000D+00 -7.1559735249237D-04  3.2861601059156D-01
122  1.2100000000000D+00 -4.8306368540112D-03  3.1417671298109D-01
123  1.2200000000000D+00 -7.7687894379536D-03  2.9492592303208D-01
124  1.2300000000000D+00 -9.6492537781792D-03  2.7170133734709D-01
125  1.2400000000000D+00 -1.0607497685445D-02  2.4539955754590D-01
126  1.2500000000000D+00 -1.0785906453798D-02  2.1693650940407D-01
127  1.2600000000000D+00 -1.0332869360151D-02  1.8724854868384D-01
128  1.2700000000000D+00 -9.3990447338390D-03  1.5726419195256D-01
129  1.2800000000000D+00 -8.1296604724958D-03  1.2786992517349D-01
130  1.2900000000000D+00 -6.6686869802182D-03  9.9938659724715D-02
131  1.3000000000000D+00 -5.1475657399047D-03  7.4262742625510D-02
132  1.3100000000000D+00 -3.6821294341129D-03  5.1544119939442D-02
133  1.3200000000000D+00 -2.3830492453175D-03  3.2453221082228D-02
134  1.3300000000000D+00 -1.3288394973256D-03  1.7480724056810D-02
135  1.3400000000000D+00 -5.7777778008069D-04  7.0085378630111D-03
136  1.3500000000000D+00 -2.0744121291997D-04  1.7566360658341D-03
137  1.3600000000000D+00 -5.4310592239355D-05 -1.1763027076462D-04
138  1.3700000000000D+00 -2.0780845947359D-06 -1.4981621471087D-04
139  1.3800000000000D+00  6.3754323120175D-06 -1.6887241536151D-05
140  1.3900000000000D+00  0.0000000000000D+00  0.0000000000000D+00
141  1.4000000000000D+00  0.0000000000000D+00  0.0000000000000D+00
142  1.4100000000000D+00  0.0000000000000D+00  0.0000000000000D+00
143  1.4200000000000D+00  0.0000000000000D+00  0.0000000000000D+00
144  1.4300000000000D+00  0.0000000000000D+00  0.0000000000000D+00
145  1.4400000000000D+00  0.0000000000000D+00  0.0000000000000D+00
146  1.4500000000000D+00  0.0000000000000D+00  0.0000000000000D+00
147  1.4600000000000D+00  0.0000000000000D+00  0.0000000000000D+00
148  1.4700000000000D+00  0.0000000000000D+00  0.0000000000000D+00
149  1.4800000000000D+00  0.0000000000000D+00  0.0000000000000D+00
150  1.4900000000000D+00  0.0000000000000D+00  0.0000000000000D+00
151  1.5000000000000D+00  0.0000000000000D+00  0.0000000000000D+00
152  1.5100000000000D+00  0.0000000000000D+00  0.0000000000000D+00
153  1.5200000000000D+00  0.0000000000000D+00  0.0000000000000D+00
154  1.5300000000000D+00  0.0000000000000D+00  0.0000000000000D+00
155  1.5400000000000D+00  0.0000000000000D+00  0.0000000000000D+00
156  1.5500000000000D+00  0.0000000000000D+00  0.0000000000000D+00
157  1.5600000000000D+00  0.0000000000000D+00  0.0000000000000D+00
158  1.5700000000000D+00  0.0000000000000D+00  0.0000000000000D+00
159  1.5800000000000D+00  0.0000000000000D+00  0.0000000000000D+00
160  1.5900000000000D+00  0.0000000000000D+00  0.0000000000000D+00
161  1.6000000000000D+00  0.0000000000000D+00  0.0000000000000D+00
162  1.6100000000000D+00  0.0000000000000D+00  0.0000000000000D+00
163  1.6200000000000D+00  0.0000000000000D+00  0.0000000000000D+00
164  1.6300000000000D+00  0.0000000000000D+00  0.0000000000000D+00
165  1.6400000000000D+00  0.0000000000000D+00  0.0000000000000D+00
166  1.6500000000000D+00  0.0000000000000D+00  0.0000000000000D+00
167  1.6600000000000D+00  0.0000000000000D+00  0.0000000000000D+00
168  1.6700000000000D+00  0.0000000000000D+00  0.0000000000000D+00
169  1.6800000000000D+00  0.0000000000000D+00  0.0000000000000D+00
170  1.6900000000000D+00  0.0000000000000D+00  0.0000000000000D+00
171  1.7000000000000D+00  0.0000000000000D+00  0.0000000000000D+00
172  1.7100000000000D+00  0.0000000000000D+00  0.0000000000000D+00
173  1.7200000000000D+00  0.0000000000000D+00  0.0000000000000D+00
174  1.7300000000000D+00  0.0000000000000D+00  0.0000000000000D+00
175  1.7400000000000D+00  0.0000000000000D+00  0.0000000000000D+00
176  1.7500000000000D+00  0.0000000000000D+00  0.0000000000000D+00
177  1.7600000000000D+00  0.0000000000000D+00  0.0000000000000D+00
178  1.7700000000000D+00  0.0000000000000D+00  0.0000000000000D+00
179  1.7800000000000D+00  0.0000000000000D+00  0.0000000000000D+00
180  1.7900000000000D+00  0.0000000000000D+00  0.0000000000000D+00
181  1.8000000000000D+00  0.0000000000000D+00  0.0000000000000D+00
182  1.8100000000000D+00  0.0000000000000D+00  0.0000000000000D+00
183  1.8200000000000D+00  0.0000000000000D+00  0.0000000000000D+00
184  1.8300000000000D+00  0.0000000000000D+00  0.0000000000000D+00
185  1.8400000000000D+00  0.0000000000000D+00  0.0000000000000D+00
186  1.8500000000000D+00  0.0000000000000D+00  0.0000000000000D+00
187  1.8600000000000D+00  0.0000000000000D+00  0.0000000000000D+00
188  1.8700000000000D+00  0.0000000000000D+00  0.0000000000000D+00
189  1.8800000000000D+00  0.0000000000000D+00  0.0000000000000D+00
190  1.8900000000000D+00  0.0000000000000D+00  0.0000000000000D+00
191  1.9000000000000D+00  0.0000000000000D+00  0.0000000000000D+00
192  1.9100000000000D+00  0.0000000000000D+00  0.0000000000000D+00
193  1.9200000000000D+00  0.0000000000000D+00  0.0000000000000D+00
194  1.9300000000000D+00  0.0000000000000D+00  0.0000000000000D+00
195  1.9400000000000D+00  0.0000000000000D+00  0.0000000000000D+00
196  1.9500000000000D+00  0.0000000000000D+00  0.0000000000000D+00
197  1.9600000000000D+00  0.0000000000000D+00  0.0000000000000D+00
198  1.9700000000000D+00  0.0000000000000D+00  0.0000000000000D+00
199  1.9800000000000D+00  0.0000000000000D+00  0.0000000000000D+00
200  1.9900000000000D+00  0.0000000000000D+00  0.0000000000000D+00
201  2.0000000000000D+00  0.0000000000000D+00  0.0000000000000D+00
202  2.0100000000000D+00  0.0000000000000D+00  0.0000000000000D+00
203  2.0200000000000D+00  0.0000000000000D+00  0.0000000000000D+00
204  2.0300000000000D+00  0.0000000000000D+00  0.0000000000000D+00
205  2.0400000000000D+00  0.0000000000000D+00  0.0000000000000D+00
206  2.0500000000000D+00  0.0000000000000D+00  0.0000000000000D+00
207  2.0600000000000D+00  0.0000000000000D+00  0.0000000000000D+00
208  2.0700000000000D+00  0.0000000000000D+00  0.0000000000000D+00
209  2.0800000000000D+00  0.0000000000000D+00  0.0000000000000D+00
210  2.0900000000000D+00  0.0000000000000D+00  0.0000000000000D+00
211  2.1000000000000D+00  0.0000000000000D+00  0.0000000000000D+00
212  2.1100000000000D+00  0.0000000000000D+00  0.0000000000000D+00
213  2.1200000000000D+00  0.0000000000000D+00  0.0000000000000D+00
214  2.1300000000000D+00  0.0000000000000D+00  0.0000000000000D+00
215  2.1400000000000D+00  0.0000000000000D+00  0.0000000000000D+00
216  2.1500000000000D+00  0.0000000000000D+00  0.0000000000000D+00
217  2.1600000000000D+00  0.0000000000000D+00  0.0000000000000D+00
218  2.1700000000000D+00  0.0000000000000D+00  0.0000000000000D+00
219  2.1800000000000D+00  0.0000000000000D+00  0.0000000000000D+00
220  2.1900000000000D+00  0.0000000000000D+00  0.0000000000000D+00
221  2.2000000000000D+00  0.0000000000000D+00  0.0000000000000D+00
222  2.2100000000000D+00  0.0000000000000D+00  0.0000000000000D+00
223  2.2200000000000D+00  0.0000000000000D+00  0.0000000000000D+00
224  2.2300000000000D+00  0.0000000000000D+00  0.0000000000000D+00
225  2.2400000000000D+00  0.0000000000000D+00  0.0000000000000D+00
226  2.2500000000000D+00  0.0000000000000D+00  0.0000000000000D+00
227  2.2600000000000D+00  0.0000000000000D+00  0.0000000000000D+00
228  2.2700000000000D+00  0.0000000000000D+00  0.0000000000000D+00
229  2.2800000000000D+00  0.0000000000000D+00  0.0000000000000D+00
230  2.2900000000000D+00  0.0000000000000D+00  0.0000000000000D+00
231  2.3000000000000D+00  0.0000000000000D+00  0.0000000000000D+00
232  2.3100000000000D+00  0.0000000000000D+00  0.0000000000000D+00
233  2.3200000000000D+00  0.0000000000000D+00  0.0000000000000D+00
234  2.3300000000000D+00  0.0000000000000D+00  0.0000000000000D+00
235  2.3400000000000D+00  0.0000000000000D+00  0.0000000000000D+00
236  2.3500000000000D+00  0.0000000000000D+00  0.0000000000000D+00
237  2.3600000000000D+00  0.0000000000000D+00  0.0000000000000D+00
238  2.3700000000000D+00  0.0000000000000D+00  0.0000000000000D+00
239  2.3800000000000D+00  0.0000000000000D+00  0.0000000000000D+00
240  2.3900000000000D+00  0.0000000000000D+00  0.0000000000000D+00
241  2.4000000000000D+00  0.0000000000000D+00  0.0000000000000D+00
242  2.4100000000000D+00  0.0000000000000D+00  0.0000000000000D+00
243  2.4200000000000D+00  0.0000000000000D+00  0.0000000000000D+00
244  2.4300000000000D+00  0.0000000000000D+00  0.0000000000000D+00
245  2.4400000000000D+00  0.0000000000000D+00  0.0000000000000D+00
246  2.4500000000000D+00  0.0000000000000D+00  0.0000000000000D+00
247  2.4600000000000D+00  0.0000000000000D+00  0.0000000000000D+00
248  2.4700000000000D+00  0.0000000000000D+00  0.0000000000000D+00
249  2.4800000000000D+00  0.0000000000000D+00  0.0000000000000D+00
250  2.4900000000000D+00  0.0000000000000D+00  0.0000000000000D+00
251  2.5000000000000D+00  0.0000000000000D+00  0.0000000000000D+00
252  2.5100000000000D+00  0.0000000000000D+00  0.0000000000000D+00
253  2.5200000000000D+00  0.0000000000000D+00  0.0000000000000D+00
254  2.5300000000000D+00  0.0000000000000D+00  0.0000000000000D+00
255  2.5400000000000D+00  0.0000000000000D+00  0.0000000000000D+00
256  2.5500000000000D+00  0.0000000000000D+00  0.0000000000000D+00
257  2.5600000000000D+00  0.0000000000000D+00  0.0000000000000D+00
258  2.5700000000000D+00  0.0000000000000D+00  0.0000000000000D+00
259  2.5800000000000D+00  0.0000000000000D+00  0.0000000000000D+00
260  2.5900000000000D+00  0.0000000000000D+00  0.0000000000000D+00
261  2.6000000000000D+00  0.0000000000000D+00  0.0000000000000D+00
262  2.6100000000000D+00  0.0000000000000D+00  0.0000000000000D+00
263  2.6200000000000D+00  0.0000000000000D+00  0.0000000000000D+00
264  2.6300000000000D+00  0.0000000000000D+00  0.0000000000000D+00
265  2.6400000000000D+00  0.0000000000000D+00  0.0000000000000D+00
266  2.6500000000000D+00  0.0000000000000D+00  0.0000000000000D+00
267  2.6600000000000D+00  0.0000000000000D+00  0.0000000000000D+00
268  2.6700000000000D+00  0.0000000000000D+00  0.0000000000000D+00
269  2.6800000000000D+00  0.0000000000000D+00  0.0000000000000D+00
270  2.6900000000000D+00  0.0000000000000D+00  0.0000000000000D+00
271  2.7000000000000D+00  0.0000000000000D+00  0.0000000000000D+00
272  2.7100000000000D+00  0.0000000000000D+00  0.0000000000000D+00
273  2.7200000000000D+00  0.0000000000000D+00  0.0000000000000D+00
274  2.7300000000000D+00  0.0000000000000D+00  0.0000000000000D+00
275  2.7400000000000D+00  0.0000000000000D+00  0.0000000000000D+00
276  2.7500000000000D+00  0.0000000000000D+00  0.0000000000000D+00
277  2.7600000000000D+00  0.0000000000000D+00  0.0000000000000D+00
278  2.7700000000000D+00  0.0000000000000D+00  0.0000000000000D+00
279  2.7800000000000D+00  0.0000000000000D+00  0.0000000000000D+00
280  2.7900000000000D+00  0.0000000000000D+00  0.0000000000000D+00
281  2.8000000000000D+00  0.0000000000000D+00  0.0000000000000D+00
282  2.8100000000000D+00  0.0000000000000D+00  0.0000000000000D+00
283  2.8200000000000D+00  0.0000000000000D+00  0.0000000000000D+00
284  2.8300000000000D+00  0.0000000000000D+00  0.0000000000000D+00
285  2.8400000000000D+00  0.0000000000000D+00  0.0000000000000D+00
286  2.8500000000000D+00  0.0000000000000D+00  0.0000000000000D+00
287  2.8600000000000D+00  0.0000000000000D+00  0.0000000000000D+00
288  2.8700000000000D+00  0.0000000000000D+00  0.0000000000000D+00
289  2.8800000000000D+00  0.0000000000000D+00  0.0000000000000D+00
290  2.8900000000000D+00  0.0000000000000D+00  0.0000000000000D+00
291  2.9000000000000D+00  0.0000000000000D+00  0.0000000000000D+00
292  2.9100000000000D+00  0.0000000000000D+00  0.0000000000000D+00
293  2.9200000000000D+00  0.0000000000000D+00  0.0000000000000D+00
294  2.9300000000000D+00  0.0000000000000D+00  0.0000000000000D+00
295  2.9400000000000D+00  0.0000000000000D+00  0.0000000000000D+00
296  2.9500000000000D+00  0.0000000000000D+00  0.0000000000000D+00
297  2.9600000000000D+00  0.0000000000000D+00  0.0000000000000D+00
298  2.9700000000000D+00  0.0000000000000D+00  0.0000000000000D+00
299  2.9800000000000D+00  0.0000000000000D+00  0.0000000000000D+00
300  2.9900000000000D+00  0.0000000000000D+00  0.0000000000000D+00
301  3.0000000000000D+00  0.0000000000000D+00  0.0000000000000D+00
302  3.0100000000000D+00  0.0000000000000D+00  0.0000000000000D+00
303  3.0200000000000D+00  0.0000000000000D+00  0.0000000000000D+00
304  3.0300000000000D+00  0.0000000000000D+00  0.0000000000000D+00
305  3.0400000000000D+00  0.0000000000000D+00  0.0000000000000D+00
306  3.0500000000000D+00  0.0000000000000D+00  0.0000000000000D+00
307  3.0600000000000D+00  0.0000000000000D+00  0.0000000000000D+00
308  3.0700000000000D+00  0.0000000000000D+00  0.0000000000000D+00
309  3.0800000000000D+00  0.0000000000000D+00  0.0000000000000D+00
310  3.0900000000000D+00  0.0000000000000D+00  0.0000000000000D+00
311  3.1000000000000D+00  0.0000000000000D+00  0.0000000000000D+00
312  3.1100000000000D+00  0.0000000000000D+00  0.0000000000000D+00
313  3.1200000000000D+00  0.0000000000000D+00  0.0000000000000D+00
314  3.1300000000000D+00  0.0000000000000D+00  0.0000000000000D+00
315  3.1400000000000D+00  0.0000000000000D+00  0.0000000000000D+00
316  3.1500000000000D+00  0.0000000000000D+00  0.0000000000000D+00
317  3.1600000000000D+00  0.0000000000000D+00  0.0000000000000D+00
318  3.1700000000000D+00  0.0000000000000D+00  0.0000000000000D+00
319  3.1800000000000D+00  0.0000000000000D+00  0.0000000000000D+00
320  3.1900000000000D+00  0.0000000000000D+00  0.0000000000000D+00
321  3.2000000000000D+00  0.0000000000000D+00  0.0000000000000D+00
322  3.2100000000000D+00  0.0000000000000D+00  0.0000000000000D+00
323  3.2200000000000D+00  0.0000000000000D+00  0.0000000000000D+00
324  3.2300000000000D+00  0.0000000000000D+00  0.0000000000000D+00
325  3.2400000000000D+00  0.0000000000000D+00  0.0000000000000D+00
326  3.2500000000000D+00  0.0000000000000D+00  0.0000000000000D+00
327  3.2600000000000D+00  0.0000000000000D+00  0.0000000000000D+00
328  3.2700000000000D+00  0.0000000000000D+00  0.0000000000000D+00
329  3.2800000000000D+00  0.0000000000000D+00  0.0000000000000D+00
330  3.2900000000000D+00  0.0000000000000D+00  0.0000000000000D+00
331  3.3000000000000D+00  0.0000000000000D+00  0.0000000000000D+00
332  3.3100000000000D+00  0.0000000000000D+00  0.0000000000000D+00
333  3.3200000000000D+00  0.0000000000000D+00  0.0000000000000D+00
334  3.3300000000000D+00  0.0000000000000D+00  0.0000000000000D+00
335  3.3400000000000D+00  0.0000000000000D+00  0.0000000000000D+00
336  3.3500000000000D+00  0.0000000000000D+00  0.0000000000000D+00
337  3.3600000000000D+00  0.0000000000000D+00  0.0000000000000D+00
338  3.3700000000000D+00  0.0000000000000D+00  0.0000000000000D+00
339  3.3800000000000D+00  0.0000000000000D+00  0.0000000000000D+00
340  3.3900000000000D+00  0.0000000000000D+00  0.0000000000000D+00
341  3.4000000000000D+00  0.0000000000000D+00  0.0000000000000D+00
342  3.4100000000000D+00  0.0000000000000D+00  0.0000000000000D+00
343  3.4200000000000D+00  0.0000000000000D+00  0.0000000000000D+00
344  3.4300000000000D+00  0.0000000000000D+00  0.0000000000000D+00
345  3.4400000000000D+00  0.0000000000000D+00  0.0000000000000D+00
346  3.4500000000000D+00  0.0000000000000D+00  0.0000000000000D+00
347  3.4600000000000D+00  0.0000000000000D+00  0.0000000000000D+00
348  3.4700000000000D+00  0.0000000000000D+00  0.0000000000000D+00
349  3.4800000000000D+00  0.0000000000000D+00  0.0000000000000D+00
350  3.4900000000000D+00  0.0000000000000D+00  0.0000000000000D+00
351  3.5000000000000D+00  0.0000000000000D+00  0.0000000000000D+00
352  3.5100000000000D+00  0.0000000000000D+00  0.0000000000000D+00
353  3.5200000000000D+00  0.0000000000000D+00  0.0000000000000D+00
354  3.5300000000000D+00  0.0000000000000D+00  0.0000000000000D+00
355  3.5400000000000D+00  0.0000000000000D+00  0.0000000000000D+00
356  3.5500000000000D+00  0.0000000000000D+00  0.0000000000000D+00
357  3.5600000000000D+00  0.0000000000000D+00  0.0000000000000D+00
358  3.5700000000000D+00  0.0000000000000D+00  0.0000000000000D+00
359  3.5800000000000D+00  0.0000000000000D+00  0.0000000000000D+00
360  3.5900000000000D+00  0.0000000000000D+00  0.0000000000000D+00
361  3.6000000000000D+00  0.0000000000000D+00  0.0000000000000D+00
362  3.6100000000000D+00  0.0000000000000D+00  0.0000000000000D+00
363  3.6200000000000D+00  0.0000000000000D+00  0.0000000000000D+00
364  3.6300000000000D+00  0.0000000000000D+00  0.0000000000000D+00
365  3.6400000000000D+00  0.0000000000000D+00  0.0000000000000D+00
366  3.6500000000000D+00  0.0000000000000D+00  0.0000000000000D+00
367  3.6600000000000D+00  0.0000000000000D+00  0.0000000000000D+00
368  3.6700000000000D+00  0.0000000000000D+00  0.0000000000000D+00
369  3.6800000000000D+00  0.0000000000000D+00  0.0000000000000D+00
370  3.6900000000000D+00  0.0000000000000D+00  0.0000000000000D+00
371  3.7000000000000D+00  0.0000000000000D+00  0.0000000000000D+00
372  3.7100000000000D+00  0.0000000000000D+00  0.0000000000000D+00
373  3.7200000000000D+00  0.0000000000000D+00  0.0000000000000D+00
374  3.7300000000000D+00  0.0000000000000D+00  0.0000000000000D+00
375  3.7400000000000D+00  0.0000000000000D+00  0.0000000000000D+00
376  3.7500000000000D+00  0.0000000000000D+00  0.0000000000000D+00
377  3.7600000000000D+00  0.0000000000000D+00  0.0000000000000D+00
378  3.7700000000000D+00  0.0000000000000D+00  0.0000000000000D+00
379  3.7800000000000D+00  0.0000000000000D+00  0.0000000000000D+00
380  3.7900000000000D+00  0.0000000000000D+00  0.0000000000000D+00
381  3.8000000000000D+00  0.0000000000000D+00  0.0000000000000D+00
382  3.8100000000000D+00  0.0000000000000D+00  0.0000000000000D+00
383  3.8200000000000D+00  0.0000000000000D+00  0.0000000000000D+00
384  3.8300000000000D+00  0.0000000000000D+00  0.0000000000000D+00
385  3.8400000000000D+00  0.0000000000000D+00  0.0000000000000D+00
386  3.8500000000000D+00  0.0000000000000D+00  0.0000000000000D+00
387  3.8600000000000D+00  0.0000000000000D+00  0.0000000000000D+00
388  3.8700000000000D+00  0.0000000000000D+00  0.0000000000000D+00
389  3.8800000000000D+00  0.0000000000000D+00  0.0000000000000D+00
390  3.8900000000000D+00  0.0000000000000D+00  0.0000000000000D+00
391  3.9000000000000D+00  0.0000000000000D+00  0.0000000000000D+00
392  3.9100000000000D+00  0.0000000000000D+00  0.0000000000000D+00
393  3.9200000000000D+00  0.0000000000000D+00  0.0000000000000D+00
394  3.9300000000000D+00  0.0000000000000D+00  0.0000000000000D+00
395  3.9400000000000D+00  0.0000000000000D+00  0.0000000000000D+00
396  3.9500000000000D+00  0.0000000000000D+00  0.0000000000000D+00
397  3.9600000000000D+00  0.0000000000000D+00  0.0000000000000D+00
398  3.9700000000000D+00  0.0000000000000D+00  0.0000000000000D+00
399  3.9800000000000D+00  0.0000000000000D+00  0.0000000000000D+00
400  3.9900000000000D+00  0.0000000000000D+00  0.0000000000000D+00
401  4.0000000000000D+00  0.0000000000000D+00  0.0000000000000D+00
402  4.0100000000000D+00  0.0000000000000D+00  0.0000000000000D+00
403  4.0200000000000D+00  0.0000000000000D+00  0.0000000000000D+00
404  4.0300000000000D+00  0.0000000000000D+00  0.0000000000000D+00
405  4.0400000000000D+00  0.0000000000000D+00  0.0000000000000D+00
406  4.0500000000000D+00  0.0000000000000D+00  0.0000000000000D+00
407  4.0600000000000D+00  0.0000000000000D+00  0.0000000000000D+00
408  4.0700000000000D+00  0.0000000000000D+00  0.0000000000000D+00
409  4.0800000000000D+00  0.0000000000000D+00  0.0000000000000D+00
410  4.0900000000000D+00  0.0000000000000D+00  0.0000000000000D+00
411  4.1000000000000D+00  0.0000000000000D+00  0.0000000000000D+00
412  4.1100000000000D+00  0.0000000000000D+00  0.0000000000000D+00
413  4.1200000000000D+00  0.0000000000000D+00  0.0000000000000D+00
414  4.1300000000000D+00  0.0000000000000D+00  0.0000000000000D+00
415  4.1400000000000D+00  0.0000000000000D+00  0.0000000000000D+00
416  4.1500000000000D+00  0.0000000000000D+00  0.0000000000000D+00
417  4.1600000000000D+00  0.0000000000000D+00  0.0000000000000D+00
418  4.1700000000000D+00  0.0000000000000D+00  0.0000000000000D+00
419  4.1800000000000D+00  0.0000000000000D+00  0.0000000000000D+00
420  4.1900000000000D+00  0.0000000000000D+00  0.0000000000000D+00
421  4.2000000000000D+00  0.0000000000000D+00  0.0000000000000D+00
422  4.2100000000000D+00  0.0000000000000D+00  0.0000000000000D+00
423  4.2200000000000D+00  0.0000000000000D+00  0.0000000000000D+00
424  4.2300000000000D+00  0.0000000000000D+00  0.0000000000000D+00
425  4.2400000000000D+00  0.0000000000000D+00  0.0000000000000D+00
426  4.2500000000000D+00  0.0000000000000D+00  0.0000000000000D+00
427  4.2600000000000D+00  0.0000000000000D+00  0.0000000000000D+00
428  4.2700000000000D+00  0.0000000000000D+00  0.0000000000000D+00
429  4.2800000000000D+00  0.0000000000000D+00  0.0000000000000D+00
430  4.2900000000000D+00  0.0000000000000D+00  0.0000000000000D+00
431  4.3000000000000D+00  0.0000000000000D+00  0.0000000000000D+00
432  4.3100000000000D+00  0.0000000000000D+00  0.0000000000000D+00
433  4.3200000000000D+00  0.0000000000000D+00  0.0000000000000D+00
434  4.3300000000000D+00  0.0000000000000D+00  0.0000000000000D+00
435  4.3400000000000D+00  0.0000000000000D+00  0.0000000000000D+00
436  4.3500000000000D+00  0.0000000000000D+00  0.0000000000000D+00
437  4.3600000000000D+00  0.0000000000000D+00  0.0000000000000D+00
438  4.3700000000000D+00  0.0000000000000D+00  0.0000000000000D+00
439  4.3800000000000D+00  0.0000000000000D+00  0.0000000000000D+00
440  4.3900000000000D+00  0.0000000000000D+00  0.0000000000000D+00
441  4.4000000000000D+00  0.0000000000000D+00  0.0000000000000D+00
442  4.4100000000000D+00  0.0000000000000D+00  0.0000000000000D+00
443  4.4200000000000D+00  0.0000000000000D+00  0.0000000000000D+00
444  4.4300000000000D+00  0.0000000000000D+00  0.0000000000000D+00