P     ONCVPSP  r_core=  1.46  1.55  1.46
15.0000      5.0000      160518    zatom,zion,pspd
8      11   2     2   600     0    pspcod,pspxc,lmax,lloc,mmax,r2well
5.99000000  5.00000000  0.00000000    rchrg fchrg qchrg
2     3     0     0    nproj
2                 extension_switch
4     0     0    nprojso
0                         1.0552098055504D+00  8.6156723559287D+00
1  0.0000000000000D+00  1.5071060177618D-08 -3.0215043245185D-09
2  1.0000000000000D-02 -6.9032475588009D-02  4.9941694819228D-02
3  2.0000000000000D-02 -1.3691326632229D-01  9.9510659669140D-02
4  3.0000000000000D-02 -2.0251286050838D-01  1.4834074428667D-01
5  4.0000000000000D-02 -2.6474571146186D-01  1.9607885430231D-01
6  5.0000000000000D-02 -3.2259127009059D-01  2.4239122099802D-01
7  6.0000000000000D-02 -3.7511388712228D-01  2.8696936300421D-01
8  7.0000000000000D-02 -4.2148122462837D-01  3.2953564037090D-01
9  8.0000000000000D-02 -4.6098083156599D-01  3.6984830446946D-01
10  9.0000000000000D-02 -4.9303455802217D-01  4.0770595135895D-01
11  1.0000000000000D-01 -5.1721050829261D-01  4.4295129180608D-01
12  1.1000000000000D-01 -5.3323226442454D-01  4.7547415830192D-01
13  1.2000000000000D-01 -5.4098514986756D-01  5.0521367837354D-01
14  1.3000000000000D-01 -5.4051934770494D-01  5.3215955440348D-01
15  1.4000000000000D-01 -5.3204973964537D-01  5.5635240314153D-01
16  1.5000000000000D-01 -5.1595239030521D-01  5.7788312313430D-01
17  1.6000000000000D-01 -4.9275766572607D-01  5.9689127532295D-01
18  1.7000000000000D-01 -4.6314004459188D-01  6.1356248086987D-01
19  1.8000000000000D-01 -4.2790475388862D-01  6.2812486055523D-01
20  1.9000000000000D-01 -3.8797143606241D-01  6.4084456140015D-01
21  2.0000000000000D-01 -3.4435513001730D-01  6.5202043798006D-01
22  2.1000000000000D-01 -2.9814492121582D-01  6.6197797755150D-01
23  2.2000000000000D-01 -2.5048068418700D-01  6.7106257891732D-01
24  2.3000000000000D-01 -2.0252840131447D-01  6.7963231414711D-01
25  2.4000000000000D-01 -1.5545459233974D-01  6.8805031909461D-01
26  2.5000000000000D-01 -1.1040042722633D-01  6.9667697238614D-01
27  2.6000000000000D-01 -6.8456118875932D-02  7.0586203254194D-01
28  2.7000000000000D-01 -3.0636200102720D-02  7.1593690859550D-01
29  2.8000000000000D-01  2.1437197357260D-03  7.2720724059982D-01
30  2.9000000000000D-01  2.9088149344741D-02  7.3994596253242D-01
31  3.0000000000000D-01  4.9540335461820D-02  7.5438701130462D-01
32  3.1000000000000D-01  6.2997841454158D-02  7.7071983201415D-01
33  3.2000000000000D-01  6.9124691149545D-02  7.8908481162173D-01
34  3.3000000000000D-01  6.7759769748586D-02  8.0956975142711D-01
35  3.4000000000000D-01  5.8921268020293D-02  8.3220746377133D-01
36  3.5000000000000D-01  4.2807056315081D-02  8.5697455112054D-01
37  3.6000000000000D-01  1.9790977895712D-02  8.8379139699225D-01
38  3.7000000000000D-01 -9.5848466794669D-03  9.1252336900029D-01
39  3.8000000000000D-01 -4.4621514133395D-02  9.4298320554194D-01
40  3.9000000000000D-01 -8.4478350714098D-02  9.7493453019112D-01
41  4.0000000000000D-01 -1.2819107903740D-01  1.0080964124729D+00
42  4.1000000000000D-01 -1.7469270628664D-01  1.0421488710205D+00
43  4.2000000000000D-01 -2.2283664349026D-01  1.0767391956661D+00
44  4.3000000000000D-01 -2.7142152264451D-01  1.1114889491376D+00
45  4.4000000000000D-01 -3.1921714995997D-01  1.1460014969295D+00
46  4.5000000000000D-01 -3.6499101934242D-01  1.1798699056204D+00
47  4.6000000000000D-01 -4.0753480976791D-01  1.2126850453605D+00
48  4.7000000000000D-01 -4.4569030250004D-01  1.2440437312422D+00
49  4.8000000000000D-01 -4.7837417787288D-01  1.2735567405332D+00
50  4.9000000000000D-01 -5.0460118519522D-01  1.3008565479661D+00
51  5.0000000000000D-01 -5.2350522170491D-01  1.3256046290842D+00
52  5.1000000000000D-01 -5.3435790592916D-01  1.3474981916891D+00
53  5.2000000000000D-01 -5.3658428584898D-01  1.3662762073831D+00
54  5.3000000000000D-01 -5.2977538159991D-01  1.3817246287396D+00
55  5.4000000000000D-01 -5.1369732497372D-01  1.3936806925176D+00
56  5.5000000000000D-01 -4.8829692276085D-01  1.4020362253631D+00
57  5.6000000000000D-01 -4.5370353698108D-01  1.4067398853849D+00
58  5.7000000000000D-01 -4.1022724206916D-01  1.4077982908574D+00
59  5.8000000000000D-01 -3.5835328587531D-01  1.4052760058049D+00
60  5.9000000000000D-01 -2.9873294816675D-01  1.3992943714898D+00
61  6.0000000000000D-01 -2.3217095579752D-01  1.3900291925239D+00
62  6.1000000000000D-01 -1.5960967824149D-01  1.3777073066198D+00
63  6.2000000000000D-01 -8.2110388954327D-02  1.3626020873768D+00
64  6.3000000000000D-01 -8.3193752807629D-04  1.3450279501731D+00
65  6.4000000000000D-01  8.2992767333910D-02  1.3253339515128D+00
66  6.5000000000000D-01  1.6808201361160D-01  1.3038965920019D+00
67  6.6000000000000D-01  2.5313178593312D-01  1.2811119520137D+00
68  6.7000000000000D-01  3.3684297864556D-01  1.2573873064619D+00
69  6.8000000000000D-01  4.1794876321455D-01  1.2331323805688D+00
70  6.9000000000000D-01  4.9524153377262D-01  1.2087504214841D+00
71  7.0000000000000D-01  5.6759884887278D-01  1.1846292704617D+00
72  7.1000000000000D-01  6.3400779422850D-01  1.1611326266158D+00
73  7.2000000000000D-01  6.9358721138975D-01  1.1385916955412D+00
74  7.3000000000000D-01  7.4560727139164D-01  1.1172974138952D+00
75  7.4000000000000D-01  7.8950592020597D-01  1.0974934341911D+00
76  7.5000000000000D-01  8.2490178400894D-01  1.0793700424139D+00
77  7.6000000000000D-01  8.5160319597798D-01  1.0630591646341D+00
78  7.7000000000000D-01  8.6961309025976D-01  1.0486305980117D+00
79  7.8000000000000D-01  8.7912960240116D-01  1.0360895764467D+00
80  7.9000000000000D-01  8.8054231476004D-01  1.0253757526765D+00
81  8.0000000000000D-01  8.7442418863887D-01  1.0163636472532D+00
82  8.1000000000000D-01  8.6151932866409D-01  1.0088645815206D+00
83  8.2000000000000D-01  8.4272682624323D-01  1.0026300773623D+00
84  8.3000000000000D-01  8.1908102474455D-01  9.9735667208462D-01
85  8.4000000000000D-01  7.9172863648459D-01  9.9269206331434D-01
86  8.5000000000000D-01  7.6190321811562D-01  9.8824246716762D-01
87  8.6000000000000D-01  7.3089757442367D-01  9.8358104404813D-01
88  8.7000000000000D-01  7.0003470922107D-01  9.7825722100753D-01
89  8.8000000000000D-01  6.7063797483620D-01  9.7180671825708D-01
90  8.9000000000000D-01  6.4400108813065D-01  9.6376207061145D-01
91  9.0000000000000D-01  6.2135868102621D-01  9.5366342266419D-01
92  9.1000000000000D-01  6.0385803774439D-01  9.4106936947226D-01
93  9.2000000000000D-01  5.9253264033693D-01  9.2556761244893D-01
94  9.3000000000000D-01  5.8827809997154D-01  9.0678520288956D-01
95  9.4000000000000D-01  5.9183099546153D-01  8.8439815284037D-01
96  9.5000000000000D-01  6.0375107461470D-01  8.5814020451033D-01
97  9.6000000000000D-01  6.2440719904814D-01  8.2781056501929D-01
98  9.7000000000000D-01  6.5396733389796D-01  7.9328043183205D-01
99  9.8000000000000D-01  6.9239279751090D-01  7.5449815651181D-01
100  9.9000000000000D-01  7.3943689839332D-01  7.1149291917313D-01
101  1.0000000000000D+00  7.9464799761903D-01  6.6437681305434D-01
102  1.0100000000000D+00  8.5737694517353D-01  6.1334526793596D-01
103  1.0200000000000D+00  9.2678875080424D-01  5.5867577197793D-01
104  1.0300000000000D+00  1.0018782624604D+00  5.0072488474524D-01
105  1.0400000000000D+00  1.0814895466425D+00  4.3992356618065D-01
106  1.0500000000000D+00  1.1643385835886D+00  3.7677088196991D-01
107  1.0600000000000D+00  1.2490388194410D+00  3.1182617998151D-01
108  1.0700000000000D+00  1.3341290533822D+00  2.4569986621079D-01
109  1.0800000000000D+00  1.4181030798956D+00  1.7904294303191D-01
110  1.0900000000000D+00  1.4994404624044D+00  1.1253550259119D-01
111  1.1000000000000D+00  1.5766377769754D+00  4.6874398163085D-02
112  1.1100000000000D+00  1.6482396434375D+00 -1.7239657241310D-02
113  1.1200000000000D+00  1.7128688548553D+00 -7.9115295984583D-02
114  1.1300000000000D+00  1.7692549297414D+00 -1.3808372021846D-01
115  1.1400000000000D+00  1.8162604252258D+00 -1.9351165126037D-01
116  1.1500000000000D+00  1.8529044055389D+00 -2.4481370708660D-01
117  1.1600000000000D+00  1.8783825156540D+00 -2.9146391879207D-01
118  1.1700000000000D+00  1.8920831968821D+00 -3.3300611355434D-01
119  1.1800000000000D+00  1.8935996467534D+00 -3.6906290490427D-01
120  1.1900000000000D+00  1.8827372700158D+00 -3.9934307299805D-01
121  1.2000000000000D+00  1.8595164743198D+00 -4.2364715581107D-01
122  1.2100000000000D+00  1.8241707588075D+00 -4.4187110419829D-01
123  1.2200000000000D+00  1.7771402045237D+00 -4.5400791469409D-01
124  1.2300000000000D+00  1.7190606023429D+00 -4.6014721177515D-01
125  1.2400000000000D+00  1.6507485461198D+00 -4.6047279528029D-01
126  1.2500000000000D+00  1.5731829297036D+00 -4.5525821807006D-01
127  1.2600000000000D+00  1.4874834189122D+00 -4.4486053735755D-01
128  1.2700000000000D+00  1.3948864888267D+00 -4.2971240545772D-01
129  1.2800000000000D+00  1.2967196972109D+00 -4.1031270615637D-01
130  1.2900000000000D+00  1.1943749077335D+00 -3.8721600486909D-01
131  1.3000000000000D+00  1.0892811329772D+00 -3.6102107142707D-01
132  1.3100000000000D+00  9.8287772488508D-01 -3.3235877245139D-01
133  1.3200000000000D+00  8.7658852098521D-01 -3.0187963203792D-01
134  1.3300000000000D+00  7.7179753424197D-01 -2.7024134448537D-01
135  1.3400000000000D+00  6.6982674957652D-01 -2.3809654140450D-01
136  1.3500000000000D+00  5.7191635355684D-01 -2.0608104854152D-01
137  1.3600000000000D+00  4.7920781351723D-01 -1.7480289216031D-01
138  1.3700000000000D+00  3.9273000396109D-01 -1.4483226127324D-01
139  1.3800000000000D+00  3.1338841939925D-01 -1.1669255710854D-01
140  1.3900000000000D+00  2.4195766442564D-01 -9.0852734483456D-02
141  1.4000000000000D+00  1.7907697270669D-01 -6.7720958547664D-02
142  1.4100000000000D+00  1.2525110018984D-01 -4.7640584503981D-02
143  1.4200000000000D+00  8.0869003622009D-02 -3.0893312004808D-02
144  1.4300000000000D+00  4.5981634124667D-02 -1.7610944599573D-02
145  1.4400000000000D+00  2.0953559096055D-02 -8.0210449325123D-03
146  1.4500000000000D+00  6.3926501083269D-03 -2.4173639848387D-03
147  1.4600000000000D+00  4.3952866410205D-04 -1.2625814120878D-04
148  1.4700000000000D+00 -5.5268989389907D-04  2.3379481400600D-04
149  1.4800000000000D+00  6.8813280341695D-05 -2.8323924011889D-05
150  1.4900000000000D+00  1.6546766023096D-04 -6.7421485721836D-05
151  1.5000000000000D+00 -2.4227853219360D-05  1.0039528954320D-05
152  1.5100000000000D+00 -2.2424366653391D-05  9.2401256819057D-06
153  1.5200000000000D+00 -5.2659761178664D-07  9.6071193367281D-08
154  1.5300000000000D+00 -2.1356140365118D-07  3.8961625436071D-08
155  1.5400000000000D+00  0.0000000000000D+00  0.0000000000000D+00
156  1.5500000000000D+00  0.0000000000000D+00  0.0000000000000D+00
157  1.5600000000000D+00  0.0000000000000D+00  0.0000000000000D+00
158  1.5700000000000D+00  0.0000000000000D+00  0.0000000000000D+00
159  1.5800000000000D+00  0.0000000000000D+00  0.0000000000000D+00
160  1.5900000000000D+00  0.0000000000000D+00  0.0000000000000D+00
161  1.6000000000000D+00  0.0000000000000D+00  0.0000000000000D+00
162  1.6100000000000D+00  0.0000000000000D+00  0.0000000000000D+00
163  1.6200000000000D+00  0.0000000000000D+00  0.0000000000000D+00
164  1.6300000000000D+00  0.0000000000000D+00  0.0000000000000D+00
165  1.6400000000000D+00  0.0000000000000D+00  0.0000000000000D+00
166  1.6500000000000D+00  0.0000000000000D+00  0.0000000000000D+00
167  1.6600000000000D+00  0.0000000000000D+00  0.0000000000000D+00
168  1.6700000000000D+00  0.0000000000000D+00  0.0000000000000D+00
169  1.6800000000000D+00  0.0000000000000D+00  0.0000000000000D+00
170  1.6900000000000D+00  0.0000000000000D+00  0.0000000000000D+00
171  1.7000000000000D+00  0.0000000000000D+00  0.0000000000000D+00
172  1.7100000000000D+00  0.0000000000000D+00  0.0000000000000D+00
173  1.7200000000000D+00  0.0000000000000D+00  0.0000000000000D+00
174  1.7300000000000D+00  0.0000000000000D+00  0.0000000000000D+00
175  1.7400000000000D+00  0.0000000000000D+00  0.0000000000000D+00
176  1.7500000000000D+00  0.0000000000000D+00  0.0000000000000D+00
177  1.7600000000000D+00  0.0000000000000D+00  0.0000000000000D+00
178  1.7700000000000D+00  0.0000000000000D+00  0.0000000000000D+00
179  1.7800000000000D+00  0.0000000000000D+00  0.0000000000000D+00
180  1.7900000000000D+00  0.0000000000000D+00  0.0000000000000D+00
181  1.8000000000000D+00  0.0000000000000D+00  0.0000000000000D+00
182  1.8100000000000D+00  0.0000000000000D+00  0.0000000000000D+00
183  1.8200000000000D+00  0.0000000000000D+00  0.0000000000000D+00
184  1.8300000000000D+00  0.0000000000000D+00  0.0000000000000D+00
185  1.8400000000000D+00  0.0000000000000D+00  0.0000000000000D+00
186  1.8500000000000D+00  0.0000000000000D+00  0.0000000000000D+00
187  1.8600000000000D+00  0.0000000000000D+00  0.0000000000000D+00
188  1.8700000000000D+00  0.0000000000000D+00  0.0000000000000D+00
189  1.8800000000000D+00  0.0000000000000D+00  0.0000000000000D+00
190  1.8900000000000D+00  0.0000000000000D+00  0.0000000000000D+00
191  1.9000000000000D+00  0.0000000000000D+00  0.0000000000000D+00
192  1.9100000000000D+00  0.0000000000000D+00  0.0000000000000D+00
193  1.9200000000000D+00  0.0000000000000D+00  0.0000000000000D+00
194  1.9300000000000D+00  0.0000000000000D+00  0.0000000000000D+00
195  1.9400000000000D+00  0.0000000000000D+00  0.0000000000000D+00
196  1.9500000000000D+00  0.0000000000000D+00  0.0000000000000D+00
197  1.9600000000000D+00  0.0000000000000D+00  0.0000000000000D+00
198  1.9700000000000D+00  0.0000000000000D+00  0.0000000000000D+00
199  1.9800000000000D+00  0.0000000000000D+00  0.0000000000000D+00
200  1.9900000000000D+00  0.0000000000000D+00  0.0000000000000D+00
201  2.0000000000000D+00  0.0000000000000D+00  0.0000000000000D+00
202  2.0100000000000D+00  0.0000000000000D+00  0.0000000000000D+00
203  2.0200000000000D+00  0.0000000000000D+00  0.0000000000000D+00
204  2.0300000000000D+00  0.0000000000000D+00  0.0000000000000D+00
205  2.0400000000000D+00  0.0000000000000D+00  0.0000000000000D+00
206  2.0500000000000D+00  0.0000000000000D+00  0.0000000000000D+00
207  2.0600000000000D+00  0.0000000000000D+00  0.0000000000000D+00
208  2.0700000000000D+00  0.0000000000000D+00  0.0000000000000D+00
209  2.0800000000000D+00  0.0000000000000D+00  0.0000000000000D+00
210  2.0900000000000D+00  0.0000000000000D+00  0.0000000000000D+00
211  2.1000000000000D+00  0.0000000000000D+00  0.0000000000000D+00
212  2.1100000000000D+00  0.0000000000000D+00  0.0000000000000D+00
213  2.1200000000000D+00  0.0000000000000D+00  0.0000000000000D+00
214  2.1300000000000D+00  0.0000000000000D+00  0.0000000000000D+00
215  2.1400000000000D+00  0.0000000000000D+00  0.0000000000000D+00
216  2.1500000000000D+00  0.0000000000000D+00  0.0000000000000D+00
217  2.1600000000000D+00  0.0000000000000D+00  0.0000000000000D+00
218  2.1700000000000D+00  0.0000000000000D+00  0.0000000000000D+00
219  2.1800000000000D+00  0.0000000000000D+00  0.0000000000000D+00
220  2.1900000000000D+00  0.0000000000000D+00  0.0000000000000D+00
221  2.2000000000000D+00  0.0000000000000D+00  0.0000000000000D+00
222  2.2100000000000D+00  0.0000000000000D+00  0.0000000000000D+00
223  2.2200000000000D+00  0.0000000000000D+00  0.0000000000000D+00
224  2.2300000000000D+00  0.0000000000000D+00  0.0000000000000D+00
225  2.2400000000000D+00  0.0000000000000D+00  0.0000000000000D+00
226  2.2500000000000D+00  0.0000000000000D+00  0.0000000000000D+00
227  2.2600000000000D+00  0.0000000000000D+00  0.0000000000000D+00
228  2.2700000000000D+00  0.0000000000000D+00  0.0000000000000D+00
229  2.2800000000000D+00  0.0000000000000D+00  0.0000000000000D+00
230  2.2900000000000D+00  0.0000000000000D+00  0.0000000000000D+00
231  2.3000000000000D+00  0.0000000000000D+00  0.0000000000000D+00
232  2.3100000000000D+00  0.0000000000000D+00  0.0000000000000D+00
233  2.3200000000000D+00  0.0000000000000D+00  0.0000000000000D+00
234  2.3300000000000D+00  0.0000000000000D+00  0.0000000000000D+00
235  2.3400000000000D+00  0.0000000000000D+00  0.0000000000000D+00
236  2.3500000000000D+00  0.0000000000000D+00  0.0000000000000D+00
237  2.3600000000000D+00  0.0000000000000D+00  0.0000000000000D+00
238  2.3700000000000D+00  0.0000000000000D+00  0.0000000000000D+00
239  2.3800000000000D+00  0.0000000000000D+00  0.0000000000000D+00
240  2.3900000000000D+00  0.0000000000000D+00  0.0000000000000D+00
241  2.4000000000000D+00  0.0000000000000D+00  0.0000000000000D+00
242  2.4100000000000D+00  0.0000000000000D+00  0.0000000000000D+00
243  2.4200000000000D+00  0.0000000000000D+00  0.0000000000000D+00
244  2.4300000000000D+00  0.0000000000000D+00  0.0000000000000D+00
245  2.4400000000000D+00  0.0000000000000D+00  0.0000000000000D+00
246  2.4500000000000D+00  0.0000000000000D+00  0.0000000000000D+00
247  2.4600000000000D+00  0.0000000000000D+00  0.0000000000000D+00
248  2.4700000000000D+00  0.0000000000000D+00  0.0000000000000D+00
249  2.4800000000000D+00  0.0000000000000D+00  0.0000000000000D+00
250  2.4900000000000D+00  0.0000000000000D+00  0.0000000000000D+00
251  2.5000000000000D+00  0.0000000000000D+00  0.0000000000000D+00
252  2.5100000000000D+00  0.0000000000000D+00  0.0000000000000D+00
253  2.5200000000000D+00  0.0000000000000D+00  0.0000000000000D+00
254  2.5300000000000D+00  0.0000000000000D+00  0.0000000000000D+00
255  2.5400000000000D+00  0.0000000000000D+00  0.0000000000000D+00
256  2.5500000000000D+00  0.0000000000000D+00  0.0000000000000D+00
257  2.5600000000000D+00  0.0000000000000D+00  0.0000000000000D+00
258  2.5700000000000D+00  0.0000000000000D+00  0.0000000000000D+00
259  2.5800000000000D+00  0.0000000000000D+00  0.0000000000000D+00
260  2.5900000000000D+00  0.0000000000000D+00  0.0000000000000D+00
261  2.6000000000000D+00  0.0000000000000D+00  0.0000000000000D+00
262  2.6100000000000D+00  0.0000000000000D+00  0.0000000000000D+00
263  2.6200000000000D+00  0.0000000000000D+00  0.0000000000000D+00
264  2.6300000000000D+00  0.0000000000000D+00  0.0000000000000D+00
265  2.6400000000000D+00  0.0000000000000D+00  0.0000000000000D+00
266  2.6500000000000D+00  0.0000000000000D+00  0.0000000000000D+00
267  2.6600000000000D+00  0.0000000000000D+00  0.0000000000000D+00
268  2.6700000000000D+00  0.0000000000000D+00  0.0000000000000D+00
269  2.6800000000000D+00  0.0000000000000D+00  0.0000000000000D+00
270  2.6900000000000D+00  0.0000000000000D+00  0.0000000000000D+00
271  2.7000000000000D+00  0.0000000000000D+00  0.0000000000000D+00
272  2.7100000000000D+00  0.0000000000000D+00  0.0000000000000D+00
273  2.7200000000000D+00  0.0000000000000D+00  0.0000000000000D+00
274  2.7300000000000D+00  0.0000000000000D+00  0.0000000000000D+00
275  2.7400000000000D+00  0.0000000000000D+00  0.0000000000000D+00
276  2.7500000000000D+00  0.0000000000000D+00  0.0000000000000D+00
277  2.7600000000000D+00  0.0000000000000D+00  0.0000000000000D+00
278  2.7700000000000D+00  0.0000000000000D+00  0.0000000000000D+00
279  2.7800000000000D+00  0.0000000000000D+00  0.0000000000000D+00
280  2.7900000000000D+00  0.0000000000000D+00  0.0000000000000D+00
281  2.8000000000000D+00  0.0000000000000D+00  0.0000000000000D+00
282  2.8100000000000D+00  0.0000000000000D+00  0.0000000000000D+00
283  2.8200000000000D+00  0.0000000000000D+00  0.0000000000000D+00
284  2.8300000000000D+00  0.0000000000000D+00  0.0000000000000D+00
285  2.8400000000000D+00  0.0000000000000D+00  0.0000000000000D+00
286  2.8500000000000D+00  0.0000000000000D+00  0.0000000000000D+00
287  2.8600000000000D+00  0.0000000000000D+00  0.0000000000000D+00
288  2.8700000000000D+00  0.0000000000000D+00  0.0000000000000D+00
289  2.8800000000000D+00  0.0000000000000D+00  0.0000000000000D+00
290  2.8900000000000D+00  0.0000000000000D+00  0.0000000000000D+00
291  2.9000000000000D+00  0.0000000000000D+00  0.0000000000000D+00
292  2.9100000000000D+00  0.0000000000000D+00  0.0000000000000D+00
293  2.9200000000000D+00  0.0000000000000D+00  0.0000000000000D+00
294  2.9300000000000D+00  0.0000000000000D+00  0.0000000000000D+00
295  2.9400000000000D+00  0.0000000000000D+00  0.0000000000000D+00
296  2.9500000000000D+00  0.0000000000000D+00  0.0000000000000D+00
297  2.9600000000000D+00  0.0000000000000D+00  0.0000000000000D+00
298  2.9700000000000D+00  0.0000000000000D+00  0.0000000000000D+00
299  2.9800000000000D+00  0.0000000000000D+00  0.0000000000000D+00
300  2.9900000000000D+00  0.0000000000000D+00  0.0000000000000D+00
301  3.0000000000000D+00  0.0000000000000D+00  0.0000000000000D+00
302  3.0100000000000D+00  0.0000000000000D+00  0.0000000000000D+00
303  3.0200000000000D+00  0.0000000000000D+00  0.0000000000000D+00
304  3.0300000000000D+00  0.0000000000000D+00  0.0000000000000D+00
305  3.0400000000000D+00  0.0000000000000D+00  0.0000000000000D+00
306  3.0500000000000D+00  0.0000000000000D+00  0.0000000000000D+00
307  3.0600000000000D+00  0.0000000000000D+00  0.0000000000000D+00
308  3.0700000000000D+00  0.0000000000000D+00  0.0000000000000D+00
309  3.0800000000000D+00  0.0000000000000D+00  0.0000000000000D+00
310  3.0900000000000D+00  0.0000000000000D+00  0.0000000000000D+00
311  3.1000000000000D+00  0.0000000000000D+00  0.0000000000000D+00
312  3.1100000000000D+00  0.0000000000000D+00  0.0000000000000D+00
313  3.1200000000000D+00  0.0000000000000D+00  0.0000000000000D+00
314  3.1300000000000D+00  0.0000000000000D+00  0.0000000000000D+00
315  3.1400000000000D+00  0.0000000000000D+00  0.0000000000000D+00
316  3.1500000000000D+00  0.0000000000000D+00  0.0000000000000D+00
317  3.1600000000000D+00  0.0000000000000D+00  0.0000000000000D+00
318  3.1700000000000D+00  0.0000000000000D+00  0.0000000000000D+00
319  3.1800000000000D+00  0.0000000000000D+00  0.0000000000000D+00
320  3.1900000000000D+00  0.0000000000000D+00  0.0000000000000D+00
321  3.2000000000000D+00  0.0000000000000D+00  0.0000000000000D+00
322  3.2100000000000D+00  0.0000000000000D+00  0.0000000000000D+00
323  3.2200000000000D+00  0.0000000000000D+00  0.0000000000000D+00
324  3.2300000000000D+00  0.0000000000000D+00  0.0000000000000D+00
325  3.2400000000000D+00  0.0000000000000D+00  0.0000000000000D+00
326  3.2500000000000D+00  0.0000000000000D+00  0.0000000000000D+00
327  3.2600000000000D+00  0.0000000000000D+00  0.0000000000000D+00
328  3.2700000000000D+00  0.0000000000000D+00  0.0000000000000D+00
329  3.2800000000000D+00  0.0000000000000D+00  0.0000000000000D+00
330  3.2900000000000D+00  0.0000000000000D+00  0.0000000000000D+00
331  3.3000000000000D+00  0.0000000000000D+00  0.0000000000000D+00
332  3.3100000000000D+00  0.0000000000000D+00  0.0000000000000D+00
333  3.3200000000000D+00  0.0000000000000D+00  0.0000000000000D+00
334  3.3300000000000D+00  0.0000000000000D+00  0.0000000000000D+00
335  3.3400000000000D+00  0.0000000000000D+00  0.0000000000000D+00
336  3.3500000000000D+00  0.0000000000000D+00  0.0000000000000D+00
337  3.3600000000000D+00  0.0000000000000D+00  0.0000000000000D+00
338  3.3700000000000D+00  0.0000000000000D+00  0.0000000000000D+00
339  3.3800000000000D+00  0.0000000000000D+00  0.0000000000000D+00
340  3.3900000000000D+00  0.0000000000000D+00  0.0000000000000D+00
341  3.4000000000000D+00  0.0000000000000D+00  0.0000000000000D+00
342  3.4100000000000D+00  0.0000000000000D+00  0.0000000000000D+00
343  3.4200000000000D+00  0.0000000000000D+00  0.0000000000000D+00
344  3.4300000000000D+00  0.0000000000000D+00  0.0000000000000D+00
345  3.4400000000000D+00  0.0000000000000D+00  0.0000000000000D+00
346  3.4500000000000D+00  0.0000000000000D+00  0.0000000000000D+00
347  3.4600000000000D+00  0.0000000000000D+00  0.0000000000000D+00
348  3.4700000000000D+00  0.0000000000000D+00  0.0000000000000D+00
349  3.4800000000000D+00  0.0000000000000D+00  0.0000000000000D+00
350  3.4900000000000D+00  0.0000000000000D+00  0.0000000000000D+00
351  3.5000000000000D+00  0.0000000000000D+00  0.0000000000000D+00
352  3.5100000000000D+00  0.0000000000000D+00  0.0000000000000D+00
353  3.5200000000000D+00  0.0000000000000D+00  0.0000000000000D+00
354  3.5300000000000D+00  0.0000000000000D+00  0.0000000000000D+00
355  3.5400000000000D+00  0.0000000000000D+00  0.0000000000000D+00
356  3.5500000000000D+00  0.0000000000000D+00  0.0000000000000D+00
357  3.5600000000000D+00  0.0000000000000D+00  0.0000000000000D+00
358  3.5700000000000D+00  0.0000000000000D+00  0.0000000000000D+00
359  3.5800000000000D+00  0.0000000000000D+00  0.0000000000000D+00
360  3.5900000000000D+00  0.0000000000000D+00  0.0000000000000D+00
361  3.6000000000000D+00  0.0000000000000D+00  0.0000000000000D+00
362  3.6100000000000D+00  0.0000000000000D+00  0.0000000000000D+00
363  3.6200000000000D+00  0.0000000000000D+00  0.0000000000000D+00
364  3.6300000000000D+00  0.0000000000000D+00  0.0000000000000D+00
365  3.6400000000000D+00  0.0000000000000D+00  0.0000000000000D+00
366  3.6500000000000D+00  0.0000000000000D+00  0.0000000000000D+00
367  3.6600000000000D+00  0.0000000000000D+00  0.0000000000000D+00
368  3.6700000000000D+00  0.0000000000000D+00  0.0000000000000D+00
369  3.6800000000000D+00  0.0000000000000D+00  0.0000000000000D+00
370  3.6900000000000D+00  0.0000000000000D+00  0.0000000000000D+00
371  3.7000000000000D+00  0.0000000000000D+00  0.0000000000000D+00
372  3.7100000000000D+00  0.0000000000000D+00  0.0000000000000D+00
373  3.7200000000000D+00  0.0000000000000D+00  0.0000000000000D+00
374  3.7300000000000D+00  0.0000000000000D+00  0.0000000000000D+00
375  3.7400000000000D+00  0.0000000000000D+00  0.0000000000000D+00
376  3.7500000000000D+00  0.0000000000000D+00  0.0000000000000D+00
377  3.7600000000000D+00  0.0000000000000D+00  0.0000000000000D+00
378  3.7700000000000D+00  0.0000000000000D+00  0.0000000000000D+00
379  3.7800000000000D+00  0.0000000000000D+00  0.0000000000000D+00
380  3.7900000000000D+00  0.0000000000000D+00  0.0000000000000D+00
381  3.8000000000000D+00  0.0000000000000D+00  0.0000000000000D+00
382  3.8100000000000D+00  0.0000000000000D+00  0.0000000000000D+00
383  3.8200000000000D+00  0.0000000000000D+00  0.0000000000000D+00
384  3.8300000000000D+00  0.0000000000000D+00  0.0000000000000D+00
385  3.8400000000000D+00  0.0000000000000D+00  0.0000000000000D+00
386  3.8500000000000D+00  0.0000000000000D+00  0.0000000000000D+00
387  3.8600000000000D+00  0.0000000000000D+00  0.0000000000000D+00
388  3.8700000000000D+00  0.0000000000000D+00  0.0000000000000D+00
389  3.8800000000000D+00  0.0000000000000D+00  0.0000000000000D+00
390  3.8900000000000D+00  0.0000000000000D+00  0.0000000000000D+00
391  3.9000000000000D+00  0.0000000000000D+00  0.0000000000000D+00
392  3.9100000000000D+00  0.0000000000000D+00  0.0000000000000D+00
393  3.9200000000000D+00  0.0000000000000D+00  0.0000000000000D+00
394  3.9300000000000D+00  0.0000000000000D+00  0.0000000000000D+00
395  3.9400000000000D+00  0.0000000000000D+00  0.0000000000000D+00
396  3.9500000000000D+00  0.0000000000000D+00  0.0000000000000D+00
397  3.9600000000000D+00  0.0000000000000D+00  0.0000000000000D+00
398  3.9700000000000D+00  0.0000000000000D+00  0.0000000000000D+00
399  3.9800000000000D+00  0.0000000000000D+00  0.0000000000000D+00
400  3.9900000000000D+00  0.0000000000000D+00  0.0000000000000D+00
401  4.0000000000000D+00  0.0000000000000D+00  0.0000000000000D+00
402  4.0100000000000D+00  0.0000000000000D+00  0.0000000000000D+00
403  4.0200000000000D+00  0.0000000000000D+00  0.0000000000000D+00
404  4.0300000000000D+00  0.0000000000000D+00  0.0000000000000D+00
405  4.0400000000000D+00  0.0000000000000D+00  0.0000000000000D+00
406  4.0500000000000D+00  0.0000000000000D+00  0.0000000000000D+00
407  4.0600000000000D+00  0.0000000000000D+00  0.0000000000000D+00
408  4.0700000000000D+00  0.0000000000000D+00  0.0000000000000D+00
409  4.0800000000000D+00  0.0000000000000D+00  0.0000000000000D+00
410  4.0900000000000D+00  0.0000000000000D+00  0.0000000000000D+00
411  4.1000000000000D+00  0.0000000000000D+00  0.0000000000000D+00
412  4.1100000000000D+00  0.0000000000000D+00  0.0000000000000D+00
413  4.1200000000000D+00  0.0000000000000D+00  0.0000000000000D+00
414  4.1300000000000D+00  0.0000000000000D+00  0.0000000000000D+00
415  4.1400000000000D+00  0.0000000000000D+00  0.0000000000000D+00
416  4.1500000000000D+00  0.0000000000000D+00  0.0000000000000D+00
417  4.1600000000000D+00  0.0000000000000D+00  0.0000000000000D+00
418  4.1700000000000D+00  0.0000000000000D+00  0.0000000000000D+00
419  4.1800000000000D+00  0.0000000000000D+00  0.0000000000000D+00
420  4.1900000000000D+00  0.0000000000000D+00  0.0000000000000D+00
421  4.2000000000000D+00  0.0000000000000D+00  0.0000000000000D+00
422  4.2100000000000D+00  0.0000000000000D+00  0.0000000000000D+00
423  4.2200000000000D+00  0.0000000000000D+00  0.0000000000000D+00
424  4.2300000000000D+00  0.0000000000000D+00  0.0000000000000D+00
425  4.2400000000000D+00  0.0000000000000D+00  0.0000000000000D+00
426  4.2500000000000D+00  0.0000000000000D+00  0.0000000000000D+00
427  4.2600000000000D+00  0.0000000000000D+00  0.0000000000000D+00
428  4.2700000000000D+00  0.0000000000000D+00  0.0000000000000D+00
429  4.2800000000000D+00  0.0000000000000D+00  0.0000000000000D+00
430  4.2900000000000D+00  0.0000000000000D+00  0.0000000000000D+00
431  4.3000000000000D+00  0.0000000000000D+00  0.0000000000000D+00
432  4.3100000000000D+00  0.0000000000000D+00  0.0000000000000D+00
433  4.3200000000000D+00  0.0000000000000D+00  0.0000000000000D+00
434  4.3300000000000D+00  0.0000000000000D+00  0.0000000000000D+00
435  4.3400000000000D+00  0.0000000000000D+00  0.0000000000000D+00
436  4.3500000000000D+00  0.0000000000000D+00  0.0000000000000D+00
437  4.3600000000000D+00  0.0000000000000D+00  0.0000000000000D+00
438  4.3700000000000D+00  0.0000000000000D+00  0.0000000000000D+00
439  4.3800000000000D+00  0.0000000000000D+00  0.0000000000000D+00
440  4.3900000000000D+00  0.0000000000000D+00  0.0000000000000D+00
441  4.4000000000000D+00  0.0000000000000D+00  0.0000000000000D+00
442  4.4100000000000D+00  0.0000000000000D+00  0.0000000000000D+00
443  4.4200000000000D+00  0.0000000000000D+00  0.0000000000000D+00