P     ONCVPSP  r_core=  1.41  1.61  1.81
15.0000     13.0000      161219    zatom,zion,pspd
8      11   2     4   600     0    pspcod,pspxc,lmax,lloc,mmax,r2well
5.99000000  0.00000000  0.00000000    rchrg fchrg qchrg
2     2     2     0     0    nproj
1                 extension_switch
0                        -4.8728889188833D+00 -8.4554531739799D-01
1  0.0000000000000D+00  1.0029688191082D-10 -1.0785581872064D-09
2  1.0000000000000D-02  7.3148826274062D-02 -6.1816954167435D-02
3  2.0000000000000D-02  1.4614311703762D-01 -1.2337897237351D-01
4  3.0000000000000D-02  2.1882868463345D-01 -1.8443133976323D-01
5  4.0000000000000D-02  2.9105203762725D-01 -2.4471979725632D-01
6  5.0000000000000D-02  3.6266073018388D-01 -3.0399080305885D-01
7  6.0000000000000D-02  4.3350371288860D-01 -3.6199183374267D-01
8  7.0000000000000D-02  5.0343168537486D-01 -4.1847173679306D-01
9  8.0000000000000D-02  5.7229745102025D-01 -4.7318114544638D-01
10  9.0000000000000D-02  6.3995627384945D-01 -5.2587296532411D-01
11  1.0000000000000D-01  7.0626623764165D-01 -5.7630294083751D-01
12  1.1000000000000D-01  7.7108860707958D-01 -6.2423030761381D-01
13  1.2000000000000D-01  8.3428819060360D-01 -6.6941853530676D-01
14  1.3000000000000D-01  8.9573370444755D-01 -7.1163616313293D-01
15  1.4000000000000D-01  9.5529813713849D-01 -7.5065772835243D-01
16  1.5000000000000D-01  1.0128591135422D+00 -7.8626478572312D-01
17  1.6000000000000D-01  1.0682992573343D+00 -8.1824701373762D-01
18  1.7000000000000D-01  1.1215065505772D+00 -8.4640340123769D-01
19  1.8000000000000D-01  1.1723746888873D+00 -8.7054350582921D-01
20  1.9000000000000D-01  1.2208034304935D+00 -8.9048877342864D-01
21  2.0000000000000D-01  1.2666989373112D+00 -9.0607390629455D-01
22  2.1000000000000D-01  1.3099741060043D+00 -9.1714826507034D-01
23  2.2000000000000D-01  1.3505488868642D+00 -9.2357728871798D-01
24  2.3000000000000D-01  1.3883505882234D+00 -9.2524391478936D-01
25  2.4000000000000D-01  1.4233141640283D+00 -9.2204998128682D-01
26  2.5000000000000D-01  1.4553824821332D+00 -9.1391759043310D-01
27  2.6000000000000D-01  1.4845065708436D+00 -9.0079041402294D-01
28  2.7000000000000D-01  1.5106458412333D+00 -8.8263491967983D-01
29  2.8000000000000D-01  1.5337682827907D+00 -8.5944149730432D-01
30  2.9000000000000D-01  1.5538506300094D+00 -8.3122546528216D-01
31  3.0000000000000D-01  1.5708784976383D+00 -7.9802793662361D-01
32  3.1000000000000D-01  1.5848464824320D+00 -7.5991652612801D-01
33  3.2000000000000D-01  1.5957582294065D+00 -7.1698588090339D-01
34  3.3000000000000D-01  1.6036264608003D+00 -6.6935801810674D-01
35  3.4000000000000D-01  1.6084729661614D+00 -6.1718245559223D-01
36  3.5000000000000D-01  1.6103285522392D+00 -5.6063612323977D-01
37  3.6000000000000D-01  1.6092329516325D+00 -4.9992304506105D-01
38  3.7000000000000D-01  1.6052346894518D+00 -4.3527378471509D-01
39  3.8000000000000D-01  1.5983909075729D+00 -3.6694464977905D-01
40  3.9000000000000D-01  1.5887671463967D+00 -2.9521665297613D-01
41  4.0000000000000D-01  1.5764370843846D+00 -2.2039423152417D-01
42  4.1000000000000D-01  1.5614822359935D+00 -1.4280372879451D-01
43  4.2000000000000D-01  1.5439916090037D+00 -6.2791645521011D-02
44  4.3000000000000D-01  1.5240613225937D+00  1.9277329170139D-02
45  4.4000000000000D-01  1.5017941878801D+00  1.0302249366997D-01
46  4.5000000000000D-01  1.4772992529894D+00  1.8804950063095D-01
47  4.6000000000000D-01  1.4506913150706D+00  2.7395289572247D-01
48  4.7000000000000D-01  1.4220904019782D+00  3.6031880704101D-01
49  4.8000000000000D-01  1.3916212266561D+00  4.4672776151031D-01
50  4.9000000000000D-01  1.3594126175305D+00  5.3275760255692D-01
51  5.0000000000000D-01  1.3255969284649D+00  6.1798648158979D-01
52  5.1000000000000D-01  1.2903094320479D+00  7.0199589437413D-01
53  5.2000000000000D-01  1.2536877001638D+00  7.8437373229709D-01
54  5.3000000000000D-01  1.2158709759398D+00  8.6471731779336D-01
55  5.4000000000000D-01  1.1769995412679D+00  9.4263639284842D-01
56  5.5000000000000D-01  1.1372140841615D+00  1.0177560295360D+00
57  5.6000000000000D-01  1.0966550702297D+00  1.0897194319759D+00
58  5.7000000000000D-01  1.0554621225279D+00  1.1581905999245D+00
59  5.8000000000000D-01  1.0137734139828D+00  1.2228568254144D+00
60  5.9000000000000D-01  9.7172507647938D-01  1.2834309954472D+00
61  6.0000000000000D-01  9.2945063055485D-01  1.3396536756741D+00
62  6.1000000000000D-01  8.8708043945309D-01  1.3912949522811D+00
63  6.2000000000000D-01  8.4474119107268D-01  1.4381560118598D+00
64  6.3000000000000D-01  8.0255541107973D-01  1.4800704419140D+00
65  6.4000000000000D-01  7.6064101016666D-01  1.5169052377325D+00
66  6.5000000000000D-01  7.1911086811818D-01  1.5485615046547D+00
67  6.6000000000000D-01  6.7807245699975D-01  1.5749748482095D+00
68  6.7000000000000D-01  6.3762750541887D-01  1.5961154481682D+00
69  6.8000000000000D-01  5.9787170542700D-01  1.6119878161750D+00
70  6.9000000000000D-01  5.5889446323397D-01  1.6226302402819D+00
71  7.0000000000000D-01  5.2077869450485D-01  1.6281139233239D+00
72  7.1000000000000D-01  4.8360066460406D-01  1.6285418256109D+00
73  7.2000000000000D-01  4.4742987374701D-01  1.6240472258373D+00
74  7.3000000000000D-01  4.1232898662172D-01  1.6147920173572D+00
75  7.4000000000000D-01  3.7835380565675D-01  1.6009647600077D+00
76  7.5000000000000D-01  3.4555328673936D-01  1.5827785104471D+00
77  7.6000000000000D-01  3.1396959583548D-01  1.5604684564721D+00
78  7.7000000000000D-01  2.8363820463419D-01  1.5342893829442D+00
79  7.8000000000000D-01  2.5458802303524D-01  1.5045129987852D+00
80  7.9000000000000D-01  2.2684156602560D-01  1.4714251559469D+00
81  8.0000000000000D-01  2.0041515224972D-01  1.4353229923164D+00
82  8.1000000000000D-01  1.7531913137141D-01  1.3965120311749D+00
83  8.2000000000000D-01  1.5155813715521D-01  1.3553032700673D+00
84  8.3000000000000D-01  1.2913136306197D-01  1.3120102917746D+00
85  8.4000000000000D-01  1.0803285705896D-01  1.2669464295009D+00
86  8.5000000000000D-01  8.8251832288851D-02  1.2204220174171D+00
87  8.6000000000000D-01  6.9772990223950D-02  1.1727417563489D+00
88  8.7000000000000D-01  5.2576852951668D-02  1.1242022226847D+00
89  8.8000000000000D-01  3.6640101293247D-02  1.0750895465343D+00
90  8.9000000000000D-01  2.1935915547932D-02  1.0256772828193D+00
91  9.0000000000000D-01  8.4343157776214D-03  9.7622449636650D-01
92  9.1000000000000D-01 -3.8975013003373D-03  9.2697407922704D-01
93  9.2000000000000D-01 -1.5094831564903D-02  8.7815131541626D-01
94  9.3000000000000D-01 -2.5195141436762D-02  8.2996270509476D-01
95  9.4000000000000D-01 -3.4237756842456D-02  7.8259505693699D-01
96  9.5000000000000D-01 -4.2263565281672D-02  7.3621485411381D-01
97  9.6000000000000D-01 -4.9314732825809D-02  6.9096789595982D-01
98  9.7000000000000D-01 -5.5434437616602D-02  6.4697921415741D-01
99  9.8000000000000D-01 -6.0666621160359D-02  6.0435325901388D-01
100  9.9000000000000D-01 -6.5055758443164D-02  5.6317434834535D-01
101  1.0000000000000D+00 -6.8646647624052D-02  5.2350736858189D-01
102  1.0100000000000D+00 -7.1484219798278D-02  4.8539871499582D-01
103  1.0200000000000D+00 -7.3613369068301D-02  4.4887745549781D-01
104  1.0300000000000D+00 -7.5078802912099D-02  4.1395670022137D-01
105  1.0400000000000D+00 -7.5924912618983D-02  3.8063515729110D-01
106  1.0500000000000D+00 -7.6195663340849D-02  3.4889885349727D-01
107  1.0600000000000D+00 -7.5934503117186D-02  3.1872299738474D-01
108  1.0700000000000D+00 -7.5184290061984D-02  2.9007396135111D-01
109  1.0800000000000D+00 -7.3987236746576D-02  2.6291135877379D-01
110  1.0900000000000D+00 -7.2384870691773D-02  2.3719019197283D-01
111  1.1000000000000D+00 -7.0418009774453D-02  2.1286304686972D-01
112  1.1100000000000D+00 -6.8126751273788D-02  1.8988231069928D-01
113  1.1200000000000D+00 -6.5550473230697D-02  1.6820238983586D-01
114  1.1300000000000D+00 -6.2727846762436D-02  1.4778190596570D-01
115  1.1400000000000D+00 -5.9696857958307D-02  1.2858584977330D-01
116  1.1500000000000D+00 -5.6494837996785D-02  1.1058767329269D-01
117  1.1600000000000D+00 -5.3158500155076D-02  9.3771303541588D-02
118  1.1700000000000D+00 -4.9723984106682D-02  7.8133089933358D-02
119  1.1800000000000D+00 -4.6226898635854D-02  6.3683542931768D-02
120  1.1900000000000D+00 -4.2702376681197D-02  5.0449112335771D-02
121  1.2000000000000D+00 -3.9185041722210D-02  3.8472329923428D-02
122  1.2100000000000D+00 -3.5709506980477D-02  2.7820615129341D-02
123  1.2200000000000D+00 -3.2308898694391D-02  1.8562119457703D-02
124  1.2300000000000D+00 -2.9012831405312D-02  1.0733286199552D-02
125  1.2400000000000D+00 -2.5845770038618D-02  4.3147466321811D-03
126  1.2500000000000D+00 -2.2827402732839D-02 -7.5982786569253D-04
127  1.2600000000000D+00 -1.9973408018867D-02 -4.5889510919609D-03
128  1.2700000000000D+00 -1.7295935302139D-02 -7.2944574383513D-03
129  1.2800000000000D+00 -1.4804132737815D-02 -9.0124005712205D-03
130  1.2900000000000D+00 -1.2504602834411D-02 -9.8856666493018D-03
131  1.3000000000000D+00 -1.0401783279430D-02 -1.0058178534192D-02
132  1.3100000000000D+00 -8.4982521454783D-03 -9.6705666127671D-03
133  1.3200000000000D+00 -6.7949668911614D-03 -8.8570803852322D-03
134  1.3300000000000D+00 -5.2914429292409D-03 -7.7435625573799D-03
135  1.3400000000000D+00 -3.9858844975455D-03 -6.4462314942920D-03
136  1.3500000000000D+00 -2.8752762381373D-03 -5.0711127571704D-03
137  1.3600000000000D+00 -1.9554464271812D-03 -3.7139267488725D-03
138  1.3700000000000D+00 -1.2214950795510D-03 -2.4612628292276D-03
139  1.3800000000000D+00 -6.6440830178835D-04 -1.3832032351846D-03
140  1.3900000000000D+00 -2.8070486325299D-04 -5.5507609283136D-04
141  1.4000000000000D+00 -6.9765158567370D-05 -4.7482232391972D-05
142  1.4100000000000D+00  6.6288187108558D-06  1.3466188580620D-04
143  1.4200000000000D+00  9.7508980558591D-06  7.1095228786045D-05
144  1.4300000000000D+00 -2.6594097270238D-06 -1.6590971313935D-05
145  1.4400000000000D+00 -1.9973612826015D-06 -1.1670300854816D-05
146  1.4500000000000D+00  6.8323706376804D-07  4.4488283398372D-06
147  1.4600000000000D+00  1.0755924751178D-07  6.7673256010372D-07
148  1.4700000000000D+00 -1.4548946874541D-08 -3.7382417782220D-07
149  1.4800000000000D+00  0.0000000000000D+00  0.0000000000000D+00
150  1.4900000000000D+00  0.0000000000000D+00  0.0000000000000D+00
151  1.5000000000000D+00  0.0000000000000D+00  0.0000000000000D+00
152  1.5100000000000D+00  0.0000000000000D+00  0.0000000000000D+00
153  1.5200000000000D+00  0.0000000000000D+00  0.0000000000000D+00
154  1.5300000000000D+00  0.0000000000000D+00  0.0000000000000D+00
155  1.5400000000000D+00  0.0000000000000D+00  0.0000000000000D+00
156  1.5500000000000D+00  0.0000000000000D+00  0.0000000000000D+00
157  1.5600000000000D+00  0.0000000000000D+00  0.0000000000000D+00
158  1.5700000000000D+00  0.0000000000000D+00  0.0000000000000D+00
159  1.5800000000000D+00  0.0000000000000D+00  0.0000000000000D+00
160  1.5900000000000D+00  0.0000000000000D+00  0.0000000000000D+00
161  1.6000000000000D+00  0.0000000000000D+00  0.0000000000000D+00
162  1.6100000000000D+00  0.0000000000000D+00  0.0000000000000D+00
163  1.6200000000000D+00  0.0000000000000D+00  0.0000000000000D+00
164  1.6300000000000D+00  0.0000000000000D+00  0.0000000000000D+00
165  1.6400000000000D+00  0.0000000000000D+00  0.0000000000000D+00
166  1.6500000000000D+00  0.0000000000000D+00  0.0000000000000D+00
167  1.6600000000000D+00  0.0000000000000D+00  0.0000000000000D+00
168  1.6700000000000D+00  0.0000000000000D+00  0.0000000000000D+00
169  1.6800000000000D+00  0.0000000000000D+00  0.0000000000000D+00
170  1.6900000000000D+00  0.0000000000000D+00  0.0000000000000D+00
171  1.7000000000000D+00  0.0000000000000D+00  0.0000000000000D+00
172  1.7100000000000D+00  0.0000000000000D+00  0.0000000000000D+00
173  1.7200000000000D+00  0.0000000000000D+00  0.0000000000000D+00
174  1.7300000000000D+00  0.0000000000000D+00  0.0000000000000D+00
175  1.7400000000000D+00  0.0000000000000D+00  0.0000000000000D+00
176  1.7500000000000D+00  0.0000000000000D+00  0.0000000000000D+00
177  1.7600000000000D+00  0.0000000000000D+00  0.0000000000000D+00
178  1.7700000000000D+00  0.0000000000000D+00  0.0000000000000D+00
179  1.7800000000000D+00  0.0000000000000D+00  0.0000000000000D+00
180  1.7900000000000D+00  0.0000000000000D+00  0.0000000000000D+00
181  1.8000000000000D+00  0.0000000000000D+00  0.0000000000000D+00
182  1.8100000000000D+00  0.0000000000000D+00  0.0000000000000D+00
183  1.8200000000000D+00  0.0000000000000D+00  0.0000000000000D+00
184  1.8300000000000D+00  0.0000000000000D+00  0.0000000000000D+00
185  1.8400000000000D+00  0.0000000000000D+00  0.0000000000000D+00
186  1.8500000000000D+00  0.0000000000000D+00  0.0000000000000D+00
187  1.8600000000000D+00  0.0000000000000D+00  0.0000000000000D+00
188  1.8700000000000D+00  0.0000000000000D+00  0.0000000000000D+00
189  1.8800000000000D+00  0.0000000000000D+00  0.0000000000000D+00
190  1.8900000000000D+00  0.0000000000000D+00  0.0000000000000D+00
191  1.9000000000000D+00  0.0000000000000D+00  0.0000000000000D+00
192  1.9100000000000D+00  0.0000000000000D+00  0.0000000000000D+00
193  1.9200000000000D+00  0.0000000000000D+00  0.0000000000000D+00
194  1.9300000000000D+00  0.0000000000000D+00  0.0000000000000D+00
195  1.9400000000000D+00  0.0000000000000D+00  0.0000000000000D+00
196  1.9500000000000D+00  0.0000000000000D+00  0.0000000000000D+00
197  1.9600000000000D+00  0.0000000000000D+00  0.0000000000000D+00
198  1.9700000000000D+00  0.0000000000000D+00  0.0000000000000D+00
199  1.9800000000000D+00  0.0000000000000D+00  0.0000000000000D+00
200  1.9900000000000D+00  0.0000000000000D+00  0.0000000000000D+00
201  2.0000000000000D+00  0.0000000000000D+00  0.0000000000000D+00
202  2.0100000000000D+00  0.0000000000000D+00  0.0000000000000D+00
203  2.0200000000000D+00  0.0000000000000D+00  0.0000000000000D+00
204  2.0300000000000D+00  0.0000000000000D+00  0.0000000000000D+00
205  2.0400000000000D+00  0.0000000000000D+00  0.0000000000000D+00
206  2.0500000000000D+00  0.0000000000000D+00  0.0000000000000D+00
207  2.0600000000000D+00  0.0000000000000D+00  0.0000000000000D+00
208  2.0700000000000D+00  0.0000000000000D+00  0.0000000000000D+00
209  2.0800000000000D+00  0.0000000000000D+00  0.0000000000000D+00
210  2.0900000000000D+00  0.0000000000000D+00  0.0000000000000D+00
211  2.1000000000000D+00  0.0000000000000D+00  0.0000000000000D+00
212  2.1100000000000D+00  0.0000000000000D+00  0.0000000000000D+00
213  2.1200000000000D+00  0.0000000000000D+00  0.0000000000000D+00
214  2.1300000000000D+00  0.0000000000000D+00  0.0000000000000D+00
215  2.1400000000000D+00  0.0000000000000D+00  0.0000000000000D+00
216  2.1500000000000D+00  0.0000000000000D+00  0.0000000000000D+00
217  2.1600000000000D+00  0.0000000000000D+00  0.0000000000000D+00
218  2.1700000000000D+00  0.0000000000000D+00  0.0000000000000D+00
219  2.1800000000000D+00  0.0000000000000D+00  0.0000000000000D+00
220  2.1900000000000D+00  0.0000000000000D+00  0.0000000000000D+00
221  2.2000000000000D+00  0.0000000000000D+00  0.0000000000000D+00
222  2.2100000000000D+00  0.0000000000000D+00  0.0000000000000D+00
223  2.2200000000000D+00  0.0000000000000D+00  0.0000000000000D+00
224  2.2300000000000D+00  0.0000000000000D+00  0.0000000000000D+00
225  2.2400000000000D+00  0.0000000000000D+00  0.0000000000000D+00
226  2.2500000000000D+00  0.0000000000000D+00  0.0000000000000D+00
227  2.2600000000000D+00  0.0000000000000D+00  0.0000000000000D+00
228  2.2700000000000D+00  0.0000000000000D+00  0.0000000000000D+00
229  2.2800000000000D+00  0.0000000000000D+00  0.0000000000000D+00
230  2.2900000000000D+00  0.0000000000000D+00  0.0000000000000D+00
231  2.3000000000000D+00  0.0000000000000D+00  0.0000000000000D+00
232  2.3100000000000D+00  0.0000000000000D+00  0.0000000000000D+00
233  2.3200000000000D+00  0.0000000000000D+00  0.0000000000000D+00
234  2.3300000000000D+00  0.0000000000000D+00  0.0000000000000D+00
235  2.3400000000000D+00  0.0000000000000D+00  0.0000000000000D+00
236  2.3500000000000D+00  0.0000000000000D+00  0.0000000000000D+00
237  2.3600000000000D+00  0.0000000000000D+00  0.0000000000000D+00
238  2.3700000000000D+00  0.0000000000000D+00  0.0000000000000D+00
239  2.3800000000000D+00  0.0000000000000D+00  0.0000000000000D+00
240  2.3900000000000D+00  0.0000000000000D+00  0.0000000000000D+00
241  2.4000000000000D+00  0.0000000000000D+00  0.0000000000000D+00
242  2.4100000000000D+00  0.0000000000000D+00  0.0000000000000D+00
243  2.4200000000000D+00  0.0000000000000D+00  0.0000000000000D+00
244  2.4300000000000D+00  0.0000000000000D+00  0.0000000000000D+00
245  2.4400000000000D+00  0.0000000000000D+00  0.0000000000000D+00
246  2.4500000000000D+00  0.0000000000000D+00  0.0000000000000D+00
247  2.4600000000000D+00  0.0000000000000D+00  0.0000000000000D+00
248  2.4700000000000D+00  0.0000000000000D+00  0.0000000000000D+00
249  2.4800000000000D+00  0.0000000000000D+00  0.0000000000000D+00
250  2.4900000000000D+00  0.0000000000000D+00  0.0000000000000D+00
251  2.5000000000000D+00  0.0000000000000D+00  0.0000000000000D+00
252  2.5100000000000D+00  0.0000000000000D+00  0.0000000000000D+00
253  2.5200000000000D+00  0.0000000000000D+00  0.0000000000000D+00
254  2.5300000000000D+00  0.0000000000000D+00  0.0000000000000D+00
255  2.5400000000000D+00  0.0000000000000D+00  0.0000000000000D+00
256  2.5500000000000D+00  0.0000000000000D+00  0.0000000000000D+00
257  2.5600000000000D+00  0.0000000000000D+00  0.0000000000000D+00
258  2.5700000000000D+00  0.0000000000000D+00  0.0000000000000D+00
259  2.5800000000000D+00  0.0000000000000D+00  0.0000000000000D+00
260  2.5900000000000D+00  0.0000000000000D+00  0.0000000000000D+00
261  2.6000000000000D+00  0.0000000000000D+00  0.0000000000000D+00
262  2.6100000000000D+00  0.0000000000000D+00  0.0000000000000D+00
263  2.6200000000000D+00  0.0000000000000D+00  0.0000000000000D+00
264  2.6300000000000D+00  0.0000000000000D+00  0.0000000000000D+00
265  2.6400000000000D+00  0.0000000000000D+00  0.0000000000000D+00
266  2.6500000000000D+00  0.0000000000000D+00  0.0000000000000D+00
267  2.6600000000000D+00  0.0000000000000D+00  0.0000000000000D+00
268  2.6700000000000D+00  0.0000000000000D+00  0.0000000000000D+00
269  2.6800000000000D+00  0.0000000000000D+00  0.0000000000000D+00
270  2.6900000000000D+00  0.0000000000000D+00  0.0000000000000D+00
271  2.7000000000000D+00  0.0000000000000D+00  0.0000000000000D+00
272  2.7100000000000D+00  0.0000000000000D+00  0.0000000000000D+00
273  2.7200000000000D+00  0.0000000000000D+00  0.0000000000000D+00
274  2.7300000000000D+00  0.0000000000000D+00  0.0000000000000D+00
275  2.7400000000000D+00  0.0000000000000D+00  0.0000000000000D+00
276  2.7500000000000D+00  0.0000000000000D+00  0.0000000000000D+00
277  2.7600000000000D+00  0.0000000000000D+00  0.0000000000000D+00
278  2.7700000000000D+00  0.0000000000000D+00  0.0000000000000D+00
279  2.7800000000000D+00  0.0000000000000D+00  0.0000000000000D+00
280  2.7900000000000D+00  0.0000000000000D+00  0.0000000000000D+00
281  2.8000000000000D+00  0.0000000000000D+00  0.0000000000000D+00
282  2.8100000000000D+00  0.0000000000000D+00  0.0000000000000D+00
283  2.8200000000000D+00  0.0000000000000D+00  0.0000000000000D+00
284  2.8300000000000D+00  0.0000000000000D+00  0.0000000000000D+00
285  2.8400000000000D+00  0.0000000000000D+00  0.0000000000000D+00
286  2.8500000000000D+00  0.0000000000000D+00  0.0000000000000D+00
287  2.8600000000000D+00  0.0000000000000D+00  0.0000000000000D+00
288  2.8700000000000D+00  0.0000000000000D+00  0.0000000000000D+00
289  2.8800000000000D+00  0.0000000000000D+00  0.0000000000000D+00
290  2.8900000000000D+00  0.0000000000000D+00  0.0000000000000D+00
291  2.9000000000000D+00  0.0000000000000D+00  0.0000000000000D+00
292  2.9100000000000D+00  0.0000000000000D+00  0.0000000000000D+00
293  2.9200000000000D+00  0.0000000000000D+00  0.0000000000000D+00
294  2.9300000000000D+00  0.0000000000000D+00  0.0000000000000D+00
295  2.9400000000000D+00  0.0000000000000D+00  0.0000000000000D+00
296  2.9500000000000D+00  0.0000000000000D+00  0.0000000000000D+00
297  2.9600000000000D+00  0.0000000000000D+00  0.0000000000000D+00
298  2.9700000000000D+00  0.0000000000000D+00  0.0000000000000D+00
299  2.9800000000000D+00  0.0000000000000D+00  0.0000000000000D+00
300  2.9900000000000D+00  0.0000000000000D+00  0.0000000000000D+00
301  3.0000000000000D+00  0.0000000000000D+00  0.0000000000000D+00
302  3.0100000000000D+00  0.0000000000000D+00  0.0000000000000D+00
303  3.0200000000000D+00  0.0000000000000D+00  0.0000000000000D+00
304  3.0300000000000D+00  0.0000000000000D+00  0.0000000000000D+00
305  3.0400000000000D+00  0.0000000000000D+00  0.0000000000000D+00
306  3.0500000000000D+00  0.0000000000000D+00  0.0000000000000D+00
307  3.0600000000000D+00  0.0000000000000D+00  0.0000000000000D+00
308  3.0700000000000D+00  0.0000000000000D+00  0.0000000000000D+00
309  3.0800000000000D+00  0.0000000000000D+00  0.0000000000000D+00
310  3.0900000000000D+00  0.0000000000000D+00  0.0000000000000D+00
311  3.1000000000000D+00  0.0000000000000D+00  0.0000000000000D+00
312  3.1100000000000D+00  0.0000000000000D+00  0.0000000000000D+00
313  3.1200000000000D+00  0.0000000000000D+00  0.0000000000000D+00
314  3.1300000000000D+00  0.0000000000000D+00  0.0000000000000D+00
315  3.1400000000000D+00  0.0000000000000D+00  0.0000000000000D+00
316  3.1500000000000D+00  0.0000000000000D+00  0.0000000000000D+00
317  3.1600000000000D+00  0.0000000000000D+00  0.0000000000000D+00
318  3.1700000000000D+00  0.0000000000000D+00  0.0000000000000D+00
319  3.1800000000000D+00  0.0000000000000D+00  0.0000000000000D+00
320  3.1900000000000D+00  0.0000000000000D+00  0.0000000000000D+00
321  3.2000000000000D+00  0.0000000000000D+00  0.0000000000000D+00
322  3.2100000000000D+00  0.0000000000000D+00  0.0000000000000D+00
323  3.2200000000000D+00  0.0000000000000D+00  0.0000000000000D+00
324  3.2300000000000D+00  0.0000000000000D+00  0.0000000000000D+00
325  3.2400000000000D+00  0.0000000000000D+00  0.0000000000000D+00
326  3.2500000000000D+00  0.0000000000000D+00  0.0000000000000D+00
327  3.2600000000000D+00  0.0000000000000D+00  0.0000000000000D+00
328  3.2700000000000D+00  0.0000000000000D+00  0.0000000000000D+00
329  3.2800000000000D+00  0.0000000000000D+00  0.0000000000000D+00
330  3.2900000000000D+00  0.0000000000000D+00  0.0000000000000D+00
331  3.3000000000000D+00  0.0000000000000D+00  0.0000000000000D+00
332  3.3100000000000D+00  0.0000000000000D+00  0.0000000000000D+00
333  3.3200000000000D+00  0.0000000000000D+00  0.0000000000000D+00
334  3.3300000000000D+00  0.0000000000000D+00  0.0000000000000D+00
335  3.3400000000000D+00  0.0000000000000D+00  0.0000000000000D+00
336  3.3500000000000D+00  0.0000000000000D+00  0.0000000000000D+00
337  3.3600000000000D+00  0.0000000000000D+00  0.0000000000000D+00
338  3.3700000000000D+00  0.0000000000000D+00  0.0000000000000D+00
339  3.3800000000000D+00  0.0000000000000D+00  0.0000000000000D+00
340  3.3900000000000D+00  0.0000000000000D+00  0.0000000000000D+00
341  3.4000000000000D+00  0.0000000000000D+00  0.0000000000000D+00
342  3.4100000000000D+00  0.0000000000000D+00  0.0000000000000D+00
343  3.4200000000000D+00  0.0000000000000D+00  0.0000000000000D+00
344  3.4300000000000D+00  0.0000000000000D+00  0.0000000000000D+00
345  3.4400000000000D+00  0.0000000000000D+00  0.0000000000000D+00
346  3.4500000000000D+00  0.0000000000000D+00  0.0000000000000D+00
347  3.4600000000000D+00  0.0000000000000D+00  0.0000000000000D+00
348  3.4700000000000D+00  0.0000000000000D+00  0.0000000000000D+00
349  3.4800000000000D+00  0.0000000000000D+00  0.0000000000000D+00
350  3.4900000000000D+00  0.0000000000000D+00  0.0000000000000D+00
351  3.5000000000000D+00  0.0000000000000D+00  0.0000000000000D+00
352  3.5100000000000D+00  0.0000000000000D+00  0.0000000000000D+00
353  3.5200000000000D+00  0.0000000000000D+00  0.0000000000000D+00
354  3.5300000000000D+00  0.0000000000000D+00  0.0000000000000D+00
355  3.5400000000000D+00  0.0000000000000D+00  0.0000000000000D+00
356  3.5500000000000D+00  0.0000000000000D+00  0.0000000000000D+00
357  3.5600000000000D+00  0.0000000000000D+00  0.0000000000000D+00
358  3.5700000000000D+00  0.0000000000000D+00  0.0000000000000D+00
359  3.5800000000000D+00  0.0000000000000D+00  0.0000000000000D+00
360  3.5900000000000D+00  0.0000000000000D+00  0.0000000000000D+00
361  3.6000000000000D+00  0.0000000000000D+00  0.0000000000000D+00
362  3.6100000000000D+00  0.0000000000000D+00  0.0000000000000D+00
363  3.6200000000000D+00  0.0000000000000D+00  0.0000000000000D+00
364  3.6300000000000D+00  0.0000000000000D+00  0.0000000000000D+00
365  3.6400000000000D+00  0.0000000000000D+00  0.0000000000000D+00
366  3.6500000000000D+00  0.0000000000000D+00  0.0000000000000D+00
367  3.6600000000000D+00  0.0000000000000D+00  0.0000000000000D+00
368  3.6700000000000D+00  0.0000000000000D+00  0.0000000000000D+00
369  3.6800000000000D+00  0.0000000000000D+00  0.0000000000000D+00
370  3.6900000000000D+00  0.0000000000000D+00  0.0000000000000D+00
371  3.7000000000000D+00  0.0000000000000D+00  0.0000000000000D+00
372  3.7100000000000D+00  0.0000000000000D+00  0.0000000000000D+00
373  3.7200000000000D+00  0.0000000000000D+00  0.0000000000000D+00
374  3.7300000000000D+00  0.0000000000000D+00  0.0000000000000D+00
375  3.7400000000000D+00  0.0000000000000D+00  0.0000000000000D+00
376  3.7500000000000D+00  0.0000000000000D+00  0.0000000000000D+00
377  3.7600000000000D+00  0.0000000000000D+00  0.0000000000000D+00
378  3.7700000000000D+00  0.0000000000000D+00  0.0000000000000D+00
379  3.7800000000000D+00  0.0000000000000D+00  0.0000000000000D+00
380  3.7900000000000D+00  0.0000000000000D+00  0.0000000000000D+00
381  3.8000000000000D+00  0.0000000000000D+00  0.0000000000000D+00
382  3.8100000000000D+00  0.0000000000000D+00  0.0000000000000D+00
383  3.8200000000000D+00  0.0000000000000D+00  0.0000000000000D+00
384  3.8300000000000D+00  0.0000000000000D+00  0.0000000000000D+00
385  3.8400000000000D+00  0.0000000000000D+00  0.0000000000000D+00
386  3.8500000000000D+00  0.0000000000000D+00  0.0000000000000D+00
387  3.8600000000000D+00  0.0000000000000D+00  0.0000000000000D+00
388  3.8700000000000D+00  0.0000000000000D+00  0.0000000000000D+00
389  3.8800000000000D+00  0.0000000000000D+00  0.0000000000000D+00
390  3.8900000000000D+00  0.0000000000000D+00  0.0000000000000D+00
391  3.9000000000000D+00  0.0000000000000D+00  0.0000000000000D+00
392  3.9100000000000D+00  0.0000000000000D+00  0.0000000000000D+00
393  3.9200000000000D+00  0.0000000000000D+00  0.0000000000000D+00
394  3.9300000000000D+00  0.0000000000000D+00  0.0000000000000D+00
395  3.9400000000000D+00  0.0000000000000D+00  0.0000000000000D+00
396  3.9500000000000D+00  0.0000000000000D+00  0.0000000000000D+00
397  3.9600000000000D+00  0.0000000000000D+00  0.0000000000000D+00
398  3.9700000000000D+00  0.0000000000000D+00  0.0000000000000D+00
399  3.9800000000000D+00  0.0000000000000D+00  0.0000000000000D+00
400  3.9900000000000D+00  0.0000000000000D+00  0.0000000000000D+00
401  4.0000000000000D+00  0.0000000000000D+00  0.0000000000000D+00
402  4.0100000000000D+00  0.0000000000000D+00  0.0000000000000D+00
403  4.0200000000000D+00  0.0000000000000D+00  0.0000000000000D+00
404  4.0300000000000D+00  0.0000000000000D+00  0.0000000000000D+00
405  4.0400000000000D+00  0.0000000000000D+00  0.0000000000000D+00
406  4.0500000000000D+00  0.0000000000000D+00  0.0000000000000D+00
407  4.0600000000000D+00  0.0000000000000D+00  0.0000000000000D+00
408  4.0700000000000D+00  0.0000000000000D+00  0.0000000000000D+00
409  4.0800000000000D+00  0.0000000000000D+00  0.0000000000000D+00
410  4.0900000000000D+00  0.0000000000000D+00  0.0000000000000D+00
411  4.1000000000000D+00  0.0000000000000D+00  0.0000000000000D+00
412  4.1100000000000D+00  0.0000000000000D+00  0.0000000000000D+00
413  4.1200000000000D+00  0.0000000000000D+00  0.0000000000000D+00
414  4.1300000000000D+00  0.0000000000000D+00  0.0000000000000D+00
415  4.1400000000000D+00  0.0000000000000D+00  0.0000000000000D+00
416  4.1500000000000D+00  0.0000000000000D+00  0.0000000000000D+00
417  4.1600000000000D+00  0.0000000000000D+00  0.0000000000000D+00
418  4.1700000000000D+00  0.0000000000000D+00  0.0000000000000D+00
419  4.1800000000000D+00  0.0000000000000D+00  0.0000000000000D+00
420  4.1900000000000D+00  0.0000000000000D+00  0.0000000000000D+00
421  4.2000000000000D+00  0.0000000000000D+00  0.0000000000000D+00
422  4.2100000000000D+00  0.0000000000000D+00  0.0000000000000D+00
423  4.2200000000000D+00  0.0000000000000D+00  0.0000000000000D+00
424  4.2300000000000D+00  0.0000000000000D+00  0.0000000000000D+00
425  4.2400000000000D+00  0.0000000000000D+00  0.0000000000000D+00
426  4.2500000000000D+00  0.0000000000000D+00  0.0000000000000D+00
427  4.2600000000000D+00  0.0000000000000D+00  0.0000000000000D+00
428  4.2700000000000D+00  0.0000000000000D+00  0.0000000000000D+00
429  4.2800000000000D+00  0.0000000000000D+00  0.0000000000000D+00
430  4.2900000000000D+00  0.0000000000000D+00  0.0000000000000D+00
431  4.3000000000000D+00  0.0000000000000D+00  0.0000000000000D+00
432  4.3100000000000D+00  0.0000000000000D+00  0.0000000000000D+00
433  4.3200000000000D+00  0.0000000000000D+00  0.0000000000000D+00
434  4.3300000000000D+00  0.0000000000000D+00  0.0000000000000D+00
435  4.3400000000000D+00  0.0000000000000D+00  0.0000000000000D+00
436  4.3500000000000D+00  0.0000000000000D+00  0.0000000000000D+00
437  4.3600000000000D+00  0.0000000000000D+00  0.0000000000000D+00
438  4.3700000000000D+00  0.0000000000000D+00  0.0000000000000D+00
439  4.3800000000000D+00  0.0000000000000D+00  0.0000000000000D+00
440  4.3900000000000D+00  0.0000000000000D+00  0.0000000000000D+00
441  4.4000000000000D+00  0.0000000000000D+00  0.0000000000000D+00
442  4.4100000000000D+00  0.0000000000000D+00  0.0000000000000D+00
443  4.4200000000000D+00  0.0000000000000D+00  0.0000000000000D+00
444  4.4300000000000D+00  0.0000000000000D+00  0.0000000000000D+00