P     ONCVPSP  r_core=  1.46  1.55  1.51
15.0000      5.0000      150725    zatom,zion,pspd
8      11   2     4   600     0    pspcod,pspxc,lmax,lloc,mmax,r2well
5.99000000  9.00000000  0.00000000    rchrg fchrg qchrg
2     2     2     0     0    nproj
0                 extension_switch
0                         6.5136642575255D+00  9.6144345580075D-01
1  0.0000000000000D+00 -1.2547951622199D-08  3.2569545976857D-08
2  1.0000000000000D-02  4.5313854959762D-02 -2.9282977828936D-02
3  2.0000000000000D-02  9.0259512295424D-02 -5.7662704274444D-02
4  3.0000000000000D-02  1.3447645543476D-01 -8.4255842541621D-02
5  4.0000000000000D-02  1.7761936880564D-01 -1.0821846699725D-01
6  5.0000000000000D-02  2.1936533887814D-01 -1.2876473228129D-01
7  6.0000000000000D-02  2.5942058503416D-01 -1.4518432247553D-01
8  7.0000000000000D-02  2.9752657863722D-01 -1.5685831286841D-01
9  8.0000000000000D-02  3.3346542122303D-01 -1.6327310942394D-01
10  9.0000000000000D-02  3.6706436793562D-01 -1.6403217052622D-01
11  1.0000000000000D-01  3.9819939988710D-01 -1.5886526113005D-01
12  1.1000000000000D-01  4.2679776866781D-01 -1.4763504018525D-01
13  1.2000000000000D-01  4.5283945738327D-01 -1.3034083709096D-01
14  1.3000000000000D-01  4.7635752491661D-01 -1.0711953086745D-01
15  1.4000000000000D-01  4.9743732316001D-01 -7.8243505533837D-02
16  1.5000000000000D-01  5.1621460025781D-01 -4.4115715638863D-02
17  1.6000000000000D-01  5.3287252598647D-01 -5.2619557817059D-03
18  1.7000000000000D-01  5.4763769779191D-01  3.7679513937123D-02
19  1.8000000000000D-01  5.6077520725858D-01  8.3970779461945D-02
20  1.9000000000000D-01  5.7258286646121D-01  1.3278926321661D-01
21  2.0000000000000D-01  5.8338471134865D-01  1.8324458942561D-01
22  2.1000000000000D-01  5.9352391466316D-01  2.3439698051453D-01
23  2.2000000000000D-01  6.0335525359192D-01  2.8527680788937D-01
24  2.3000000000000D-01  6.1323728711435D-01  3.3490489510066D-01
25  2.4000000000000D-01  6.2352440464256D-01  3.8231315424117D-01
26  2.5000000000000D-01  6.3455891090796D-01  4.2656512777768D-01
27  2.6000000000000D-01  6.4666331204664D-01  4.6677600808371D-01
28  2.7000000000000D-01  6.6013296446691D-01  5.0213171574823D-01
29  2.8000000000000D-01  6.7522924140121D-01  5.3190663513978D-01
30  2.9000000000000D-01  6.9217336217350D-01  5.5547963138533D-01
31  3.0000000000000D-01  7.1114101633998D-01  5.7234800639084D-01
32  3.1000000000000D-01  7.3225789923385D-01  5.8213909214002D-01
33  3.2000000000000D-01  7.5559625736779D-01  5.8461922646640D-01
34  3.3000000000000D-01  7.8117252197632D-01  5.7969990887997D-01
35  3.4000000000000D-01  8.0894608711282D-01  5.6744099080550D-01
36  3.5000000000000D-01  8.3881926558513D-01  5.4805081463083D-01
37  3.6000000000000D-01  8.7063843208323D-01  5.2188327806696D-01
38  3.7000000000000D-01  9.0419633859886D-01  4.8943186324645D-01
39  3.8000000000000D-01  9.3923556315012D-01  4.5132073246303D-01
40  3.9000000000000D-01  9.7545302938949D-01  4.0829305322144D-01
41  4.0000000000000D-01  1.0125055123685D+00  3.6119677308252D-01
42  4.1000000000000D-01  1.0500160250105D+00  3.1096811847731D-01
43  4.2000000000000D-01  1.0875809611335D+00  2.5861314011565D-01
44  4.3000000000000D-01  1.1247778545503D+00  2.0518766982334D-01
45  4.4000000000000D-01  1.1611736002076D+00  1.5177608872182D-01
46  4.5000000000000D-01  1.1963329727768D+00  9.9469333865740D-02
47  4.6000000000000D-01  1.2298272708371D+00  4.9342589181204D-02
48  4.7000000000000D-01  1.2612429109287D+00  2.4331163722528D-03
49  4.8000000000000D-01  1.2901897954304D+00 -4.0281317869237D-02
50  4.9000000000000D-01  1.3163092814377D+00 -7.7902970577606D-02
51  5.0000000000000D-01  1.3392815845537D+00 -1.0963317705291D-01
52  5.1000000000000D-01  1.3588324616430D+00 -1.3478952763218D-01
53  5.2000000000000D-01  1.3747390299582D+00 -1.5282079795729D-01
54  5.3000000000000D-01  1.3868345963729D+00 -1.6331930655183D-01
55  5.4000000000000D-01  1.3950123894536D+00 -1.6603042299258D-01
56  5.5000000000000D-01  1.3992281084247D+00 -1.6085900544878D-01
57  5.6000000000000D-01  1.3995012262373D+00 -1.4787260659058D-01
58  5.7000000000000D-01  1.3959150086636D+00 -1.2730135111112D-01
59  5.8000000000000D-01  1.3886152368737D+00 -9.9534454458532D-02
60  5.9000000000000D-01  1.3778076471061D+00 -6.5113420303685D-02
61  6.0000000000000D-01  1.3637541269661D+00 -2.4722021570809D-02
62  6.1000000000000D-01  1.3467677334394D+00  2.0826763838155D-02
63  6.2000000000000D-01  1.3272066219348D+00  7.0606628666924D-02
64  6.3000000000000D-01  1.3054669985744D+00  1.2359632995922D-01
65  6.4000000000000D-01  1.2819752285956D+00  1.7870025396476D-01
66  6.5000000000000D-01  1.2571792520177D+00  2.3477075820982D-01
67  6.6000000000000D-01  1.2315394731608D+00  2.9063185678417D-01
68  6.7000000000000D-01  1.2055193027911D+00  3.4510378349072D-01
69  6.8000000000000D-01  1.1795755404652D+00  3.9702794493066D-01
70  6.9000000000000D-01  1.1541487897776D+00  4.4529176256835D-01
71  7.0000000000000D-01  1.1296541005337D+00  4.8885289970486D-01
72  7.1000000000000D-01  1.1064720293926D+00  5.2676237606452D-01
73  7.2000000000000D-01  1.0849403042005D+00  5.5818608945099D-01
74  7.3000000000000D-01  1.0653462671654D+00  5.8242429043248D-01
75  7.4000000000000D-01  1.0479202584236D+00  5.9892859167950D-01
76  7.5000000000000D-01  1.0328300846070D+00  6.0731613791310D-01
77  7.6000000000000D-01  1.0201766970130D+00  6.0738061471354D-01
78  7.7000000000000D-01  1.0099911814712D+00  5.9909983320072D-01
79  7.8000000000000D-01  1.0022331370202D+00  5.8263969276380D-01
80  7.9000000000000D-01  9.9679049398058D-01  5.5835439318094D-01
81  8.0000000000000D-01  9.9348079411438D-01  5.2678284013334D-01
82  8.1000000000000D-01  9.9205392697492D-01  4.8864126256914D-01
83  8.2000000000000D-01  9.9219628778627D-01  4.4481213521608D-01
84  8.3000000000000D-01  9.9353629382630D-01  3.9632957332578D-01
85  8.4000000000000D-01  9.9565116886568D-01  3.4436143800627D-01
86  8.5000000000000D-01  9.9807487928844D-01  2.9018845784607D-01
87  8.6000000000000D-01  1.0003070816016D+00  2.3518073461017D-01
88  8.7000000000000D-01  1.0018229196173D+00  1.8077205633666D-01
89  8.8000000000000D-01  1.0020834910982D+00  1.2843248904561D-01
90  8.9000000000000D-01  1.0005467884800D+00  7.9639757492467D-02
91  9.0000000000000D-01  9.9667890674648D-01  3.5849955116655D-02
92  9.1000000000000D-01  9.8996530389088D-01 -1.5318571058129D-03
93  9.2000000000000D-01  9.7992189582735D-01 -3.1180594267629D-02
94  9.3000000000000D-01  9.6610576822953D-01 -5.1879066921307D-02
95  9.4000000000000D-01  9.4812529258825D-01 -6.2544322502135D-02
96  9.5000000000000D-01  9.2564944270711D-01 -6.2251878653745D-02
97  9.6000000000000D-01  8.9841612099932D-01 -5.0257352934112D-02
98  9.7000000000000D-01  8.6623932039594D-01 -2.6015036568314D-02
99  9.8000000000000D-01  8.2901496817479D-01  1.0806986347491D-02
100  9.9000000000000D-01  7.8672532143190D-01  6.0315511488146D-02
101  1.0000000000000D+00  7.3944180992681D-01  1.2238494804727D-01
102  1.0100000000000D+00  6.8732625046935D-01  1.9665430851821D-01
103  1.0200000000000D+00  6.3063038696459D-01  2.8252857119900D-01
104  1.0300000000000D+00  5.6969374215418D-01  3.7918444877116D-01
105  1.0400000000000D+00  5.0493979742934D-01  4.8558051713321D-01
106  1.0500000000000D+00  4.3687055023383D-01  6.0047157222354D-01
107  1.0600000000000D+00  3.6605952935122D-01  7.2242700233673D-01
108  1.0700000000000D+00  2.9314337782646D-01  8.4985288668841D-01
109  1.0800000000000D+00  2.1881214217789D-01  9.8101745571136D-01
110  1.0900000000000D+00  1.4379843099551D-01  1.1140794849683D+00
111  1.1000000000000D+00  6.8865629674937D-02  1.2471191330560D+00
112  1.1100000000000D+00 -5.2046218919489D-03  1.3781706817550D+00
113  1.1200000000000D+00 -7.7625467079659D-02  1.5052565983905D+00
114  1.1300000000000D+00 -1.4761815219931D-01  1.6264223094816D+00
115  1.1400000000000D+00 -2.1442538696314D-01  1.7397710552434D+00
116  1.1500000000000D+00 -2.7732450076159D-01  1.8434981848105D+00
117  1.1600000000000D+00 -3.3564015257466D-01  1.9359242596244D+00
118  1.1700000000000D+00 -3.8875635934015D-01  2.0155263510518D+00
119  1.1800000000000D+00 -4.3612761350116D-01  2.0809669339475D+00
120  1.1900000000000D+00 -4.7728888048388D-01  2.1311198305586D+00
121  1.2000000000000D+00 -5.1186428601185D-01  2.1650927094102D+00
122  1.2100000000000D+00 -5.3957431923549D-01  2.1822456859990D+00
123  1.2200000000000D+00 -5.6024140841691D-01  2.1822056527495D+00
124  1.2300000000000D+00 -5.7379375774196D-01  2.1648760490099D+00
125  1.2400000000000D+00 -5.8026736008066D-01  2.1304418505588D+00
126  1.2500000000000D+00 -5.7980612676159D-01  2.0793696268022D+00
127  1.2600000000000D+00 -5.7266012763746D-01  2.0124026503629D+00
128  1.2700000000000D+00 -5.5918195719585D-01  1.9305511025018D+00
129  1.2800000000000D+00 -5.3982126445078D-01  1.8350774753186D+00
130  1.2900000000000D+00 -5.1511754935643D-01  1.7274774415191D+00
131  1.3000000000000D+00 -4.8569133633480D-01  1.6094564829996D+00
132  1.3100000000000D+00 -4.5223386061866D-01  1.4829026351485D+00
133  1.3200000000000D+00 -4.1549546187468D-01  1.3498558571382D+00
134  1.3300000000000D+00 -3.7627286999584D-01  1.2124745134487D+00
135  1.3400000000000D+00 -3.3539560390534D-01  1.0729995457573D+00
136  1.3500000000000D+00 -2.9371173019624D-01  9.3371698194155D-01
137  1.3600000000000D+00 -2.5207321716319D-01  7.9691939959974D-01
138  1.3700000000000D+00 -2.1132115542333D-01  6.6486705437617D-01
139  1.3800000000000D+00 -1.7227109295668D-01  5.3974932206154D-01
140  1.3900000000000D+00 -1.3569875782760D-01  4.2364717015475D-01
141  1.4000000000000D+00 -1.0232641240516D-01  3.1849729696628D-01
142  1.4100000000000D+00 -7.2811570328527D-02  2.2606317649598D-01
143  1.4200000000000D+00 -4.7746236409356D-02  1.4793811473845D-01
144  1.4300000000000D+00 -2.7506160849070D-02  8.5084493636703D-02
145  1.4400000000000D+00 -1.2642643805689D-02  3.9047427989681D-02
146  1.4500000000000D+00 -3.8209338683724D-03  1.1766084117902D-02
147  1.4600000000000D+00 -1.5864314067118D-04  4.5626238631734D-04
148  1.4700000000000D+00  4.0154655368669D-04 -1.2546382992932D-03
149  1.4800000000000D+00 -4.7402745258929D-05  1.4766574826644D-04
150  1.4900000000000D+00 -1.1231365685293D-04  3.4931740565082D-04
151  1.5000000000000D+00  1.6686005399313D-05 -5.2116086603730D-05
152  1.5100000000000D+00  1.5306924543103D-05 -4.7772815994935D-05
153  1.5200000000000D+00  4.1349431899964D-08 -4.4874476006779D-08
154  1.5300000000000D+00  1.6769241863393D-08 -1.8198821775139D-08
155  1.5400000000000D+00  0.0000000000000D+00  0.0000000000000D+00
156  1.5500000000000D+00  0.0000000000000D+00  0.0000000000000D+00
157  1.5600000000000D+00  0.0000000000000D+00  0.0000000000000D+00
158  1.5700000000000D+00  0.0000000000000D+00  0.0000000000000D+00
159  1.5800000000000D+00  0.0000000000000D+00  0.0000000000000D+00
160  1.5900000000000D+00  0.0000000000000D+00  0.0000000000000D+00
161  1.6000000000000D+00  0.0000000000000D+00  0.0000000000000D+00
162  1.6100000000000D+00  0.0000000000000D+00  0.0000000000000D+00
163  1.6200000000000D+00  0.0000000000000D+00  0.0000000000000D+00
164  1.6300000000000D+00  0.0000000000000D+00  0.0000000000000D+00
165  1.6400000000000D+00  0.0000000000000D+00  0.0000000000000D+00
166  1.6500000000000D+00  0.0000000000000D+00  0.0000000000000D+00
167  1.6600000000000D+00  0.0000000000000D+00  0.0000000000000D+00
168  1.6700000000000D+00  0.0000000000000D+00  0.0000000000000D+00
169  1.6800000000000D+00  0.0000000000000D+00  0.0000000000000D+00
170  1.6900000000000D+00  0.0000000000000D+00  0.0000000000000D+00
171  1.7000000000000D+00  0.0000000000000D+00  0.0000000000000D+00
172  1.7100000000000D+00  0.0000000000000D+00  0.0000000000000D+00
173  1.7200000000000D+00  0.0000000000000D+00  0.0000000000000D+00
174  1.7300000000000D+00  0.0000000000000D+00  0.0000000000000D+00
175  1.7400000000000D+00  0.0000000000000D+00  0.0000000000000D+00
176  1.7500000000000D+00  0.0000000000000D+00  0.0000000000000D+00
177  1.7600000000000D+00  0.0000000000000D+00  0.0000000000000D+00
178  1.7700000000000D+00  0.0000000000000D+00  0.0000000000000D+00
179  1.7800000000000D+00  0.0000000000000D+00  0.0000000000000D+00
180  1.7900000000000D+00  0.0000000000000D+00  0.0000000000000D+00
181  1.8000000000000D+00  0.0000000000000D+00  0.0000000000000D+00
182  1.8100000000000D+00  0.0000000000000D+00  0.0000000000000D+00
183  1.8200000000000D+00  0.0000000000000D+00  0.0000000000000D+00
184  1.8300000000000D+00  0.0000000000000D+00  0.0000000000000D+00
185  1.8400000000000D+00  0.0000000000000D+00  0.0000000000000D+00
186  1.8500000000000D+00  0.0000000000000D+00  0.0000000000000D+00
187  1.8600000000000D+00  0.0000000000000D+00  0.0000000000000D+00
188  1.8700000000000D+00  0.0000000000000D+00  0.0000000000000D+00
189  1.8800000000000D+00  0.0000000000000D+00  0.0000000000000D+00
190  1.8900000000000D+00  0.0000000000000D+00  0.0000000000000D+00
191  1.9000000000000D+00  0.0000000000000D+00  0.0000000000000D+00
192  1.9100000000000D+00  0.0000000000000D+00  0.0000000000000D+00
193  1.9200000000000D+00  0.0000000000000D+00  0.0000000000000D+00
194  1.9300000000000D+00  0.0000000000000D+00  0.0000000000000D+00
195  1.9400000000000D+00  0.0000000000000D+00  0.0000000000000D+00
196  1.9500000000000D+00  0.0000000000000D+00  0.0000000000000D+00
197  1.9600000000000D+00  0.0000000000000D+00  0.0000000000000D+00
198  1.9700000000000D+00  0.0000000000000D+00  0.0000000000000D+00
199  1.9800000000000D+00  0.0000000000000D+00  0.0000000000000D+00
200  1.9900000000000D+00  0.0000000000000D+00  0.0000000000000D+00
201  2.0000000000000D+00  0.0000000000000D+00  0.0000000000000D+00
202  2.0100000000000D+00  0.0000000000000D+00  0.0000000000000D+00
203  2.0200000000000D+00  0.0000000000000D+00  0.0000000000000D+00
204  2.0300000000000D+00  0.0000000000000D+00  0.0000000000000D+00
205  2.0400000000000D+00  0.0000000000000D+00  0.0000000000000D+00
206  2.0500000000000D+00  0.0000000000000D+00  0.0000000000000D+00
207  2.0600000000000D+00  0.0000000000000D+00  0.0000000000000D+00
208  2.0700000000000D+00  0.0000000000000D+00  0.0000000000000D+00
209  2.0800000000000D+00  0.0000000000000D+00  0.0000000000000D+00
210  2.0900000000000D+00  0.0000000000000D+00  0.0000000000000D+00
211  2.1000000000000D+00  0.0000000000000D+00  0.0000000000000D+00
212  2.1100000000000D+00  0.0000000000000D+00  0.0000000000000D+00
213  2.1200000000000D+00  0.0000000000000D+00  0.0000000000000D+00
214  2.1300000000000D+00  0.0000000000000D+00  0.0000000000000D+00
215  2.1400000000000D+00  0.0000000000000D+00  0.0000000000000D+00
216  2.1500000000000D+00  0.0000000000000D+00  0.0000000000000D+00
217  2.1600000000000D+00  0.0000000000000D+00  0.0000000000000D+00
218  2.1700000000000D+00  0.0000000000000D+00  0.0000000000000D+00
219  2.1800000000000D+00  0.0000000000000D+00  0.0000000000000D+00
220  2.1900000000000D+00  0.0000000000000D+00  0.0000000000000D+00
221  2.2000000000000D+00  0.0000000000000D+00  0.0000000000000D+00
222  2.2100000000000D+00  0.0000000000000D+00  0.0000000000000D+00
223  2.2200000000000D+00  0.0000000000000D+00  0.0000000000000D+00
224  2.2300000000000D+00  0.0000000000000D+00  0.0000000000000D+00
225  2.2400000000000D+00  0.0000000000000D+00  0.0000000000000D+00
226  2.2500000000000D+00  0.0000000000000D+00  0.0000000000000D+00
227  2.2600000000000D+00  0.0000000000000D+00  0.0000000000000D+00
228  2.2700000000000D+00  0.0000000000000D+00  0.0000000000000D+00
229  2.2800000000000D+00  0.0000000000000D+00  0.0000000000000D+00
230  2.2900000000000D+00  0.0000000000000D+00  0.0000000000000D+00
231  2.3000000000000D+00  0.0000000000000D+00  0.0000000000000D+00
232  2.3100000000000D+00  0.0000000000000D+00  0.0000000000000D+00
233  2.3200000000000D+00  0.0000000000000D+00  0.0000000000000D+00
234  2.3300000000000D+00  0.0000000000000D+00  0.0000000000000D+00
235  2.3400000000000D+00  0.0000000000000D+00  0.0000000000000D+00
236  2.3500000000000D+00  0.0000000000000D+00  0.0000000000000D+00
237  2.3600000000000D+00  0.0000000000000D+00  0.0000000000000D+00
238  2.3700000000000D+00  0.0000000000000D+00  0.0000000000000D+00
239  2.3800000000000D+00  0.0000000000000D+00  0.0000000000000D+00
240  2.3900000000000D+00  0.0000000000000D+00  0.0000000000000D+00
241  2.4000000000000D+00  0.0000000000000D+00  0.0000000000000D+00
242  2.4100000000000D+00  0.0000000000000D+00  0.0000000000000D+00
243  2.4200000000000D+00  0.0000000000000D+00  0.0000000000000D+00
244  2.4300000000000D+00  0.0000000000000D+00  0.0000000000000D+00
245  2.4400000000000D+00  0.0000000000000D+00  0.0000000000000D+00
246  2.4500000000000D+00  0.0000000000000D+00  0.0000000000000D+00
247  2.4600000000000D+00  0.0000000000000D+00  0.0000000000000D+00
248  2.4700000000000D+00  0.0000000000000D+00  0.0000000000000D+00
249  2.4800000000000D+00  0.0000000000000D+00  0.0000000000000D+00
250  2.4900000000000D+00  0.0000000000000D+00  0.0000000000000D+00
251  2.5000000000000D+00  0.0000000000000D+00  0.0000000000000D+00
252  2.5100000000000D+00  0.0000000000000D+00  0.0000000000000D+00
253  2.5200000000000D+00  0.0000000000000D+00  0.0000000000000D+00
254  2.5300000000000D+00  0.0000000000000D+00  0.0000000000000D+00
255  2.5400000000000D+00  0.0000000000000D+00  0.0000000000000D+00
256  2.5500000000000D+00  0.0000000000000D+00  0.0000000000000D+00
257  2.5600000000000D+00  0.0000000000000D+00  0.0000000000000D+00
258  2.5700000000000D+00  0.0000000000000D+00  0.0000000000000D+00
259  2.5800000000000D+00  0.0000000000000D+00  0.0000000000000D+00
260  2.5900000000000D+00  0.0000000000000D+00  0.0000000000000D+00
261  2.6000000000000D+00  0.0000000000000D+00  0.0000000000000D+00
262  2.6100000000000D+00  0.0000000000000D+00  0.0000000000000D+00
263  2.6200000000000D+00  0.0000000000000D+00  0.0000000000000D+00
264  2.6300000000000D+00  0.0000000000000D+00  0.0000000000000D+00
265  2.6400000000000D+00  0.0000000000000D+00  0.0000000000000D+00
266  2.6500000000000D+00  0.0000000000000D+00  0.0000000000000D+00
267  2.6600000000000D+00  0.0000000000000D+00  0.0000000000000D+00
268  2.6700000000000D+00  0.0000000000000D+00  0.0000000000000D+00
269  2.6800000000000D+00  0.0000000000000D+00  0.0000000000000D+00
270  2.6900000000000D+00  0.0000000000000D+00  0.0000000000000D+00
271  2.7000000000000D+00  0.0000000000000D+00  0.0000000000000D+00
272  2.7100000000000D+00  0.0000000000000D+00  0.0000000000000D+00
273  2.7200000000000D+00  0.0000000000000D+00  0.0000000000000D+00
274  2.7300000000000D+00  0.0000000000000D+00  0.0000000000000D+00
275  2.7400000000000D+00  0.0000000000000D+00  0.0000000000000D+00
276  2.7500000000000D+00  0.0000000000000D+00  0.0000000000000D+00
277  2.7600000000000D+00  0.0000000000000D+00  0.0000000000000D+00
278  2.7700000000000D+00  0.0000000000000D+00  0.0000000000000D+00
279  2.7800000000000D+00  0.0000000000000D+00  0.0000000000000D+00
280  2.7900000000000D+00  0.0000000000000D+00  0.0000000000000D+00
281  2.8000000000000D+00  0.0000000000000D+00  0.0000000000000D+00
282  2.8100000000000D+00  0.0000000000000D+00  0.0000000000000D+00
283  2.8200000000000D+00  0.0000000000000D+00  0.0000000000000D+00
284  2.8300000000000D+00  0.0000000000000D+00  0.0000000000000D+00
285  2.8400000000000D+00  0.0000000000000D+00  0.0000000000000D+00
286  2.8500000000000D+00  0.0000000000000D+00  0.0000000000000D+00
287  2.8600000000000D+00  0.0000000000000D+00  0.0000000000000D+00
288  2.8700000000000D+00  0.0000000000000D+00  0.0000000000000D+00
289  2.8800000000000D+00  0.0000000000000D+00  0.0000000000000D+00
290  2.8900000000000D+00  0.0000000000000D+00  0.0000000000000D+00
291  2.9000000000000D+00  0.0000000000000D+00  0.0000000000000D+00
292  2.9100000000000D+00  0.0000000000000D+00  0.0000000000000D+00
293  2.9200000000000D+00  0.0000000000000D+00  0.0000000000000D+00
294  2.9300000000000D+00  0.0000000000000D+00  0.0000000000000D+00
295  2.9400000000000D+00  0.0000000000000D+00  0.0000000000000D+00
296  2.9500000000000D+00  0.0000000000000D+00  0.0000000000000D+00
297  2.9600000000000D+00  0.0000000000000D+00  0.0000000000000D+00
298  2.9700000000000D+00  0.0000000000000D+00  0.0000000000000D+00
299  2.9800000000000D+00  0.0000000000000D+00  0.0000000000000D+00
300  2.9900000000000D+00  0.0000000000000D+00  0.0000000000000D+00
301  3.0000000000000D+00  0.0000000000000D+00  0.0000000000000D+00
302  3.0100000000000D+00  0.0000000000000D+00  0.0000000000000D+00
303  3.0200000000000D+00  0.0000000000000D+00  0.0000000000000D+00
304  3.0300000000000D+00  0.0000000000000D+00  0.0000000000000D+00
305  3.0400000000000D+00  0.0000000000000D+00  0.0000000000000D+00
306  3.0500000000000D+00  0.0000000000000D+00  0.0000000000000D+00
307  3.0600000000000D+00  0.0000000000000D+00  0.0000000000000D+00
308  3.0700000000000D+00  0.0000000000000D+00  0.0000000000000D+00
309  3.0800000000000D+00  0.0000000000000D+00  0.0000000000000D+00
310  3.0900000000000D+00  0.0000000000000D+00  0.0000000000000D+00
311  3.1000000000000D+00  0.0000000000000D+00  0.0000000000000D+00
312  3.1100000000000D+00  0.0000000000000D+00  0.0000000000000D+00
313  3.1200000000000D+00  0.0000000000000D+00  0.0000000000000D+00
314  3.1300000000000D+00  0.0000000000000D+00  0.0000000000000D+00
315  3.1400000000000D+00  0.0000000000000D+00  0.0000000000000D+00
316  3.1500000000000D+00  0.0000000000000D+00  0.0000000000000D+00
317  3.1600000000000D+00  0.0000000000000D+00  0.0000000000000D+00
318  3.1700000000000D+00  0.0000000000000D+00  0.0000000000000D+00
319  3.1800000000000D+00  0.0000000000000D+00  0.0000000000000D+00
320  3.1900000000000D+00  0.0000000000000D+00  0.0000000000000D+00
321  3.2000000000000D+00  0.0000000000000D+00  0.0000000000000D+00
322  3.2100000000000D+00  0.0000000000000D+00  0.0000000000000D+00
323  3.2200000000000D+00  0.0000000000000D+00  0.0000000000000D+00
324  3.2300000000000D+00  0.0000000000000D+00  0.0000000000000D+00
325  3.2400000000000D+00  0.0000000000000D+00  0.0000000000000D+00
326  3.2500000000000D+00  0.0000000000000D+00  0.0000000000000D+00
327  3.2600000000000D+00  0.0000000000000D+00  0.0000000000000D+00
328  3.2700000000000D+00  0.0000000000000D+00  0.0000000000000D+00
329  3.2800000000000D+00  0.0000000000000D+00  0.0000000000000D+00
330  3.2900000000000D+00  0.0000000000000D+00  0.0000000000000D+00
331  3.3000000000000D+00  0.0000000000000D+00  0.0000000000000D+00
332  3.3100000000000D+00  0.0000000000000D+00  0.0000000000000D+00
333  3.3200000000000D+00  0.0000000000000D+00  0.0000000000000D+00
334  3.3300000000000D+00  0.0000000000000D+00  0.0000000000000D+00
335  3.3400000000000D+00  0.0000000000000D+00  0.0000000000000D+00
336  3.3500000000000D+00  0.0000000000000D+00  0.0000000000000D+00
337  3.3600000000000D+00  0.0000000000000D+00  0.0000000000000D+00
338  3.3700000000000D+00  0.0000000000000D+00  0.0000000000000D+00
339  3.3800000000000D+00  0.0000000000000D+00  0.0000000000000D+00
340  3.3900000000000D+00  0.0000000000000D+00  0.0000000000000D+00
341  3.4000000000000D+00  0.0000000000000D+00  0.0000000000000D+00
342  3.4100000000000D+00  0.0000000000000D+00  0.0000000000000D+00
343  3.4200000000000D+00  0.0000000000000D+00  0.0000000000000D+00
344  3.4300000000000D+00  0.0000000000000D+00  0.0000000000000D+00
345  3.4400000000000D+00  0.0000000000000D+00  0.0000000000000D+00
346  3.4500000000000D+00  0.0000000000000D+00  0.0000000000000D+00
347  3.4600000000000D+00  0.0000000000000D+00  0.0000000000000D+00
348  3.4700000000000D+00  0.0000000000000D+00  0.0000000000000D+00
349  3.4800000000000D+00  0.0000000000000D+00  0.0000000000000D+00
350  3.4900000000000D+00  0.0000000000000D+00  0.0000000000000D+00
351  3.5000000000000D+00  0.0000000000000D+00  0.0000000000000D+00
352  3.5100000000000D+00  0.0000000000000D+00  0.0000000000000D+00
353  3.5200000000000D+00  0.0000000000000D+00  0.0000000000000D+00
354  3.5300000000000D+00  0.0000000000000D+00  0.0000000000000D+00
355  3.5400000000000D+00  0.0000000000000D+00  0.0000000000000D+00
356  3.5500000000000D+00  0.0000000000000D+00  0.0000000000000D+00
357  3.5600000000000D+00  0.0000000000000D+00  0.0000000000000D+00
358  3.5700000000000D+00  0.0000000000000D+00  0.0000000000000D+00
359  3.5800000000000D+00  0.0000000000000D+00  0.0000000000000D+00
360  3.5900000000000D+00  0.0000000000000D+00  0.0000000000000D+00
361  3.6000000000000D+00  0.0000000000000D+00  0.0000000000000D+00
362  3.6100000000000D+00  0.0000000000000D+00  0.0000000000000D+00
363  3.6200000000000D+00  0.0000000000000D+00  0.0000000000000D+00
364  3.6300000000000D+00  0.0000000000000D+00  0.0000000000000D+00
365  3.6400000000000D+00  0.0000000000000D+00  0.0000000000000D+00
366  3.6500000000000D+00  0.0000000000000D+00  0.0000000000000D+00
367  3.6600000000000D+00  0.0000000000000D+00  0.0000000000000D+00
368  3.6700000000000D+00  0.0000000000000D+00  0.0000000000000D+00
369  3.6800000000000D+00  0.0000000000000D+00  0.0000000000000D+00
370  3.6900000000000D+00  0.0000000000000D+00  0.0000000000000D+00
371  3.7000000000000D+00  0.0000000000000D+00  0.0000000000000D+00
372  3.7100000000000D+00  0.0000000000000D+00  0.0000000000000D+00
373  3.7200000000000D+00  0.0000000000000D+00  0.0000000000000D+00
374  3.7300000000000D+00  0.0000000000000D+00  0.0000000000000D+00
375  3.7400000000000D+00  0.0000000000000D+00  0.0000000000000D+00
376  3.7500000000000D+00  0.0000000000000D+00  0.0000000000000D+00
377  3.7600000000000D+00  0.0000000000000D+00  0.0000000000000D+00
378  3.7700000000000D+00  0.0000000000000D+00  0.0000000000000D+00
379  3.7800000000000D+00  0.0000000000000D+00  0.0000000000000D+00
380  3.7900000000000D+00  0.0000000000000D+00  0.0000000000000D+00
381  3.8000000000000D+00  0.0000000000000D+00  0.0000000000000D+00
382  3.8100000000000D+00  0.0000000000000D+00  0.0000000000000D+00
383  3.8200000000000D+00  0.0000000000000D+00  0.0000000000000D+00
384  3.8300000000000D+00  0.0000000000000D+00  0.0000000000000D+00
385  3.8400000000000D+00  0.0000000000000D+00  0.0000000000000D+00
386  3.8500000000000D+00  0.0000000000000D+00  0.0000000000000D+00
387  3.8600000000000D+00  0.0000000000000D+00  0.0000000000000D+00
388  3.8700000000000D+00  0.0000000000000D+00  0.0000000000000D+00
389  3.8800000000000D+00  0.0000000000000D+00  0.0000000000000D+00
390  3.8900000000000D+00  0.0000000000000D+00  0.0000000000000D+00
391  3.9000000000000D+00  0.0000000000000D+00  0.0000000000000D+00
392  3.9100000000000D+00  0.0000000000000D+00  0.0000000000000D+00
393  3.9200000000000D+00  0.0000000000000D+00  0.0000000000000D+00
394  3.9300000000000D+00  0.0000000000000D+00  0.0000000000000D+00
395  3.9400000000000D+00  0.0000000000000D+00  0.0000000000000D+00
396  3.9500000000000D+00  0.0000000000000D+00  0.0000000000000D+00
397  3.9600000000000D+00  0.0000000000000D+00  0.0000000000000D+00
398  3.9700000000000D+00  0.0000000000000D+00  0.0000000000000D+00
399  3.9800000000000D+00  0.0000000000000D+00  0.0000000000000D+00
400  3.9900000000000D+00  0.0000000000000D+00  0.0000000000000D+00
401  4.0000000000000D+00  0.0000000000000D+00  0.0000000000000D+00
402  4.0100000000000D+00  0.0000000000000D+00  0.0000000000000D+00
403  4.0200000000000D+00  0.0000000000000D+00  0.0000000000000D+00
404  4.0300000000000D+00  0.0000000000000D+00  0.0000000000000D+00
405  4.0400000000000D+00  0.0000000000000D+00  0.0000000000000D+00
406  4.0500000000000D+00  0.0000000000000D+00  0.0000000000000D+00
407  4.0600000000000D+00  0.0000000000000D+00  0.0000000000000D+00
408  4.0700000000000D+00  0.0000000000000D+00  0.0000000000000D+00
409  4.0800000000000D+00  0.0000000000000D+00  0.0000000000000D+00
410  4.0900000000000D+00  0.0000000000000D+00  0.0000000000000D+00
411  4.1000000000000D+00  0.0000000000000D+00  0.0000000000000D+00
412  4.1100000000000D+00  0.0000000000000D+00  0.0000000000000D+00
413  4.1200000000000D+00  0.0000000000000D+00  0.0000000000000D+00
414  4.1300000000000D+00  0.0000000000000D+00  0.0000000000000D+00
415  4.1400000000000D+00  0.0000000000000D+00  0.0000000000000D+00
416  4.1500000000000D+00  0.0000000000000D+00  0.0000000000000D+00
417  4.1600000000000D+00  0.0000000000000D+00  0.0000000000000D+00
418  4.1700000000000D+00  0.0000000000000D+00  0.0000000000000D+00
419  4.1800000000000D+00  0.0000000000000D+00  0.0000000000000D+00
420  4.1900000000000D+00  0.0000000000000D+00  0.0000000000000D+00
421  4.2000000000000D+00  0.0000000000000D+00  0.0000000000000D+00
422  4.2100000000000D+00  0.0000000000000D+00  0.0000000000000D+00
423  4.2200000000000D+00  0.0000000000000D+00  0.0000000000000D+00
424  4.2300000000000D+00  0.0000000000000D+00  0.0000000000000D+00
425  4.2400000000000D+00  0.0000000000000D+00  0.0000000000000D+00
426  4.2500000000000D+00  0.0000000000000D+00  0.0000000000000D+00
427  4.2600000000000D+00  0.0000000000000D+00  0.0000000000000D+00
428  4.2700000000000D+00  0.0000000000000D+00  0.0000000000000D+00
429  4.2800000000000D+00  0.0000000000000D+00  0.0000000000000D+00
430  4.2900000000000D+00  0.0000000000000D+00  0.0000000000000D+00
431  4.3000000000000D+00  0.0000000000000D+00  0.0000000000000D+00
432  4.3100000000000D+00  0.0000000000000D+00  0.0000000000000D+00
433  4.3200000000000D+00  0.0000000000000D+00  0.0000000000000D+00
434  4.3300000000000D+00  0.0000000000000D+00  0.0000000000000D+00
435  4.3400000000000D+00  0.0000000000000D+00  0.0000000000000D+00
436  4.3500000000000D+00  0.0000000000000D+00  0.0000000000000D+00
437  4.3600000000000D+00  0.0000000000000D+00  0.0000000000000D+00
438  4.3700000000000D+00  0.0000000000000D+00  0.0000000000000D+00
439  4.3800000000000D+00  0.0000000000000D+00  0.0000000000000D+00
440  4.3900000000000D+00  0.0000000000000D+00  0.0000000000000D+00
441  4.4000000000000D+00  0.0000000000000D+00  0.0000000000000D+00
442  4.4100000000000D+00  0.0000000000000D+00  0.0000000000000D+00
443  4.4200000000000D+00  0.0000000000000D+00  0.0000000000000D+00
444  4.4300000000000D+00  0.0000000000000D+00  0.0000000000000D+00