<?xml version="1.0" encoding="UTF-8" ?>
<psml version="1.1" energy_unit="hartree" length_unit="bohr"
 uuid="7388df00-342b-11eb-6dca-e015ff5db2d0"
 xmlns="http://esl.cecam.org/PSML/ns/1.1">
<provenance creator="ONCVPSP-3.3.1+psml-3.3.1-75 (scalar-relativistic)"
 date="2020-12-01">
<annotation action="semilocal-pseudopotential-generation"
 action-cont="projectors-generation" />
<input-file name="oncvpsp-input">
<![CDATA[# atsym z nc nv iexc psfile
Cs 55 9 3 -001012 both
# n l f
1 0 2.0
2 0 2.0
2 1 6.0
3 0 2.0
3 1 6.0
3 2 10.0
4 0 2.0
4 1 6.0
4 2 10.0
5 0 2.0
5 1 6.0
6 0 1.0
# lmax
3
# l rc ep ncon nbas qcut
0 2.25 0.0 4 7 4.8
1 1.85 0.0 4 7 6.0
2 2.0 0.0 4 8 6.2
3 2.05 0.05 4 7 8.8
# lloc lpopt rc5 dvloc0
4 5 1.85 0.0
# l nproj debl
0 2 1.0
1 2 5.0
2 2 5.0
3 2 2.0
# icmod fcfact rcfact
3 5.0 1.4
# epsh1 epsh2 depsh
-12.0 12.0 0.02
# rlmax drl
6.0 0.01
 0
]]>
</input-file>
</provenance>
<pseudo-atom-spec atomic-label="Cs" atomic-number="55" z-pseudo="9"
 flavor="Hamann&apos;s oncvpsp" relativity="scalar" spin-dft="no"
 core-corrections="yes">
<annotation pseudo-energy="-20.5076710950" cutoff_hint_low="16"
 cutoff_hint_normal="20" cutoff_hint_high="24" />
<exchange-correlation>
<annotation oncvpsp-xc-code="-1012" oncvpsp-xc-type="libxc-interface" />
<libxc-info number-of-functionals="2">
<functional name="Slater exchange (LDA)" type="exchange" id="1" />
<functional name="Perdew &amp; Wang (LDA)" type="correlation" id="12" />
</libxc-info>
</exchange-correlation>
<valence-configuration total-valence-charge="9">
<shell n="5" l="s" occupation="2" />
<shell n="5" l="p" occupation="6" />
<shell n="6" l="s" occupation="1" />
</valence-configuration>
</pseudo-atom-spec>
<grid npts="457">
<annotation type="sampled from oncvpsp log grid"
 recipe="r(i:1..N) = r1*exp(a*(i-1)) + r=0; resampled"
 recipe-cont="r1: scale; a: step" scale="0.909090909091E-05"
 step="0.119285708653E-01" delta="0.500000000000E-02" rmax="44.3250217340" />
<grid-data>
  0.000000000000E+00  5.001478766148E-03  1.010994206942E-02  1.516652523997E-02
  2.019381588391E-02  2.533075473382E-02  3.065747126796E-02  3.579999718257E-02
  4.081958922404E-02  4.599109555586E-02  5.120334903089E-02  5.633035232730E-02
  6.197072366114E-02  6.736745720739E-02  7.323416643326E-02  7.866776607706E-02
  8.450451095384E-02  8.969793712724E-02  9.521053768690E-02  1.010619282556E-01
  1.072729299810E-01  1.125154581265E-01  1.180141935123E-01  1.237816572254E-01
  1.298309822696E-01  1.361759434711E-01  1.428309888448E-01  1.480348542423E-01
  1.534283158563E-01  1.590182813837E-01  1.648119101947E-01  1.708166225019E-01
  1.770401088640E-01  1.834903400354E-01  1.901755771749E-01  1.971043824259E-01
  2.042856298828E-01  2.117285169563E-01  2.168404902697E-01  2.220758870668E-01
  2.274376872841E-01  2.329289428059E-01  2.385527792010E-01  2.443123975020E-01
  2.502110760273E-01  2.562521722469E-01  2.624391246936E-01  2.687754549202E-01
  2.752647695038E-01  2.819107620987E-01  2.887172155388E-01  2.956880039908E-01
  3.028270951592E-01  3.101385525447E-01  3.176265377573E-01  3.252953128849E-01
  3.331492429192E-01  3.411927982403E-01  3.494305571610E-01  3.578672085331E-01
  3.665075544159E-01  3.753565128097E-01  3.844191204550E-01  3.937005356993E-01
  4.032060414332E-01  4.129410480976E-01  4.229110967628E-01  4.279860299240E-01
  4.331218622831E-01  4.383193246305E-01  4.435791565260E-01  4.489021064043E-01
  4.542889316812E-01  4.597403988614E-01  4.652572836477E-01  4.708403710515E-01
  4.764904555041E-01  4.822083409701E-01  4.879948410618E-01  4.938507791545E-01
  4.997769885044E-01  5.057743123664E-01  5.118436041148E-01  5.179857273642E-01
  5.242015560926E-01  5.304919747657E-01  5.368578784629E-01  5.433001730044E-01
  5.498197750805E-01  5.564176123815E-01  5.630946237300E-01  5.698517592148E-01
  5.766899803254E-01  5.836102600893E-01  5.906135832103E-01  5.977009462089E-01
  6.048733575634E-01  6.121318378541E-01  6.194774199084E-01  6.269111489473E-01
  6.344340827347E-01  6.420472917275E-01  6.497518592282E-01  6.575488815389E-01
  6.654394681174E-01  6.734247417348E-01  6.815058386356E-01  6.896839086993E-01
  6.979601156037E-01  7.063356369909E-01  7.148116646348E-01  7.233894046104E-01
  7.320700774657E-01  7.408549183953E-01  7.497451774161E-01  7.587421195451E-01
  7.678470249796E-01  7.770611892794E-01  7.863859235507E-01  7.958225546333E-01
  8.053724252889E-01  8.150368943924E-01  8.248173371251E-01  8.347151451706E-01
  8.447317269126E-01  8.548685076356E-01  8.651269297272E-01  8.755084528839E-01
  8.860145543186E-01  8.966467289704E-01  9.074064897180E-01  9.182953675946E-01
  9.293149120058E-01  9.404666909498E-01  9.517522912412E-01  9.631733187361E-01
  9.747313985610E-01  9.864281753437E-01  9.982653134478E-01  1.010244497209E+00
  1.022367431176E+00  1.034635840350E+00  1.047051470434E+00  1.059616088079E+00
  1.072331481136E+00  1.085199458910E+00  1.098221852417E+00  1.111400514646E+00
  1.124737320821E+00  1.138234168671E+00  1.151892978695E+00  1.165715694440E+00
  1.179704282773E+00  1.193860734166E+00  1.208187062976E+00  1.222685307732E+00
  1.237357531425E+00  1.252205821802E+00  1.267232291663E+00  1.282439079163E+00
  1.297828348113E+00  1.313402288291E+00  1.329163115750E+00  1.345113073139E+00
  1.361254430017E+00  1.377589483177E+00  1.394120556975E+00  1.410850003659E+00
  1.427780203703E+00  1.444913566147E+00  1.462252528941E+00  1.479799559288E+00
  1.497557154000E+00  1.515527839848E+00  1.533714173926E+00  1.552118744013E+00
  1.570744168941E+00  1.589593098969E+00  1.608668216156E+00  1.627972234750E+00
  1.647507901567E+00  1.667277996386E+00  1.687285332343E+00  1.707532756331E+00
  1.728023149407E+00  1.748759427199E+00  1.769744540326E+00  1.790981474810E+00
  1.812473252507E+00  1.834222931538E+00  1.856233606716E+00  1.878508409997E+00
  1.901050510917E+00  1.923863117048E+00  1.946949474452E+00  1.970312868146E+00
  1.993956622563E+00  2.017884102034E+00  2.042098711258E+00  2.066603895794E+00
  2.091403142543E+00  2.116499980254E+00  2.141897980017E+00  2.167600755777E+00
  2.193611964846E+00  2.219935308424E+00  2.246574532125E+00  2.273533426511E+00
  2.300815827629E+00  2.328425617561E+00  2.356366724971E+00  2.384643125671E+00
  2.413258843179E+00  2.442217949297E+00  2.471524564689E+00  2.501182859465E+00
  2.531197053779E+00  2.561571418424E+00  2.592310275445E+00  2.623417998750E+00
  2.654899014735E+00  2.686757802912E+00  2.718998896547E+00  2.751626883306E+00
  2.784646405905E+00  2.818062162776E+00  2.851878908730E+00  2.886101455634E+00
  2.920734673102E+00  2.955783489179E+00  2.991252891049E+00  3.027147925742E+00
  3.063473700851E+00  3.100235385261E+00  3.137438209884E+00  3.175087468403E+00
  3.213188518024E+00  3.251746780240E+00  3.290767741603E+00  3.330256954502E+00
  3.370220037956E+00  3.410662678412E+00  3.451590630552E+00  3.493009718119E+00
  3.534925834737E+00  3.577344944753E+00  3.620273084090E+00  3.663716361099E+00
  3.707680957433E+00  3.752173128922E+00  3.797199206469E+00  3.842765596947E+00
  3.888878784110E+00  3.935545329519E+00  3.982771873473E+00  4.030565135955E+00
  4.078931917587E+00  4.127879100598E+00  4.177413649805E+00  4.227542613602E+00
  4.278273124966E+00  4.329612402465E+00  4.381567751295E+00  4.434146564310E+00
  4.487356323082E+00  4.541204598959E+00  4.595699054147E+00  4.650847442796E+00
  4.706657612110E+00  4.763137503455E+00  4.820295153497E+00  4.878138695339E+00
  4.936676359683E+00  4.995916475999E+00  5.055867473711E+00  5.116537883395E+00
  5.177936337996E+00  5.240071574052E+00  5.302952432941E+00  5.366587862136E+00
  5.430986916482E+00  5.496158759479E+00  5.562112664593E+00  5.628858016568E+00
  5.696404312767E+00  5.764761164520E+00  5.833938298495E+00  5.903945558077E+00
  5.974792904773E+00  6.046490419631E+00  6.119048304666E+00  6.192476884322E+00
  6.266786606934E+00  6.341988046217E+00  6.418091902772E+00  6.495109005605E+00
  6.573050313673E+00  6.651926917437E+00  6.731750040446E+00  6.812531040931E+00
  6.894281413422E+00  6.977012790383E+00  7.060736943868E+00  7.145465787194E+00
  7.231211376641E+00  7.317985913161E+00  7.405801744118E+00  7.494671365048E+00
  7.584607421428E+00  7.675622710486E+00  7.767730183011E+00  7.860942945208E+00
  7.955274260550E+00  8.050737551677E+00  8.147346402297E+00  8.245114559124E+00
  8.344055933834E+00  8.444184605040E+00  8.545514820300E+00  8.648060998144E+00
  8.751837730122E+00  8.856859782883E+00  8.963142100278E+00  9.070699805481E+00
  9.179548203147E+00  9.289702781585E+00  9.401179214964E+00  9.513993365543E+00
  9.628161285930E+00  9.743699221361E+00  9.860623612017E+00  9.978951095361E+00
  1.009869850851E+01  1.021988289061E+01  1.034252148530E+01  1.046663174312E+01
  1.059223132404E+01  1.071933809992E+01  1.084797015712E+01  1.097814579901E+01
  1.110988354860E+01  1.124320215118E+01  1.137812057699E+01  1.151465802392E+01
  1.165283392021E+01  1.179266792725E+01  1.193417994237E+01  1.207739010168E+01
  1.222231878290E+01  1.236898660830E+01  1.251741444760E+01  1.266762342097E+01
  1.281963490202E+01  1.297347052084E+01  1.312915216710E+01  1.328670199310E+01
  1.344614241702E+01  1.360749612602E+01  1.377078607953E+01  1.393603551249E+01
  1.410326793864E+01  1.427250715390E+01  1.444377723975E+01  1.461710256663E+01
  1.479250779743E+01  1.497001789099E+01  1.514965810569E+01  1.533145400295E+01
  1.551543145099E+01  1.570161662840E+01  1.589003602794E+01  1.608071646028E+01
  1.627368505780E+01  1.646896927849E+01  1.666659690984E+01  1.686659607275E+01
  1.706899522563E+01  1.727382316834E+01  1.748110904636E+01  1.769088235491E+01
  1.790317294317E+01  1.811801101849E+01  1.833542715071E+01  1.855545227652E+01
  1.877811770384E+01  1.900345511628E+01  1.923149657768E+01  1.946227453661E+01
  1.969582183105E+01  1.993217169302E+01  2.017135775334E+01  2.041341404638E+01
  2.065837501494E+01  2.090627551511E+01  2.115715082130E+01  2.141103663115E+01
  2.166796907073E+01  2.192798469957E+01  2.219112051597E+01  2.245741396216E+01
  2.272690292971E+01  2.299962576486E+01  2.327562127404E+01  2.355492872933E+01
  2.383758787408E+01  2.412363892857E+01  2.441312259571E+01  2.470608006686E+01
  2.500255302766E+01  2.530258366400E+01  2.560621466796E+01  2.591348924398E+01
  2.622445111491E+01  2.653914452829E+01  2.685761426263E+01  2.717990563378E+01
  2.750606450138E+01  2.783613727540E+01  2.817017092270E+01  2.850821297378E+01
  2.885031152946E+01  2.919651526782E+01  2.954687345103E+01  2.990143593244E+01
  3.026025316363E+01  3.062337620160E+01  3.099085671601E+01  3.136274699661E+01
  3.173909996057E+01  3.211996916009E+01  3.250540879001E+01  3.289547369549E+01
  3.329021937984E+01  3.368970201240E+01  3.409397843655E+01  3.450310617779E+01
  3.491714345192E+01  3.533614917334E+01  3.576018296342E+01  3.618930515898E+01
  3.662357682089E+01  3.706305974274E+01  3.750781645965E+01  3.795791025717E+01
  3.841340518026E+01  3.887436604242E+01  3.934085843493E+01  3.981294873615E+01
  4.029070412098E+01  4.077419257043E+01  4.126348288128E+01  4.175864467585E+01
  4.225974841196E+01  4.276686539291E+01  4.328006777762E+01  4.379942859095E+01
  4.432502173405E+01
</grid-data>
</grid>
<valence-charge total-charge="9" is-unscreening-charge="yes"
 rescaled-to-z-pseudo="no">
<radfunc>
<data npts="457">
  4.441901649709E-02  4.443394155836E-02  4.448001654549E-02  4.455635578633E-02
  4.466264243071E-02  4.480266216628E-02  4.498155109075E-02  4.518699508328E-02
  4.541876252506E-02  4.569006896131E-02  4.599720967137E-02  4.633265648509E-02
  4.674030360078E-02  4.716867698577E-02  4.767747262618E-02  4.818935876582E-02
  4.878347422386E-02  4.935126656516E-02  4.999498953598E-02  5.072533703866E-02
  5.155464600071E-02  5.229885842977E-02  5.312382420215E-02  5.403893500424E-02
  5.505479551353E-02  5.618340141243E-02  5.743834681898E-02  5.847167417824E-02
  5.959198680252E-02  6.080731311664E-02  6.212651583324E-02  6.355938952538E-02
  6.511677062565E-02  6.681066148422E-02  6.865437032257E-02  7.066266914503E-02
  7.285197191651E-02  7.524053558084E-02  7.695355702363E-02  7.877071056050E-02
  8.069907742974E-02  8.274627487409E-02  8.492049959139E-02  8.723057471097E-02
  8.968600054923E-02  9.229700940726E-02  9.507462468177E-02  9.803072456668E-02
  1.011781106257E-01  1.045305815153E-01  1.081030121332E-01  1.119114384540E-01
  1.159731482973E-01  1.203067782436E-01  1.249324168761E-01  1.298717144733E-01
  1.351479992100E-01  1.407863998374E-01  1.468139747033E-01  1.532598468395E-01
  1.601553446766E-01  1.675341477462E-01  1.754324364880E-01  1.838890449926E-01
  1.929456151667E-01  2.026467504099E-01  2.130401664201E-01  2.185122777479E-01
  2.241768362054E-01  2.300407446449E-01  2.361111257535E-01  2.423953254749E-01
  2.489009160958E-01  2.556356989513E-01  2.626077066952E-01  2.698252050779E-01
  2.772966941735E-01  2.850309089876E-01  2.930368193770E-01  3.013236292056E-01
  3.099007746550E-01  3.187779216052E-01  3.279649619922E-01  3.374720090460E-01
  3.473093913056E-01  3.574876453016E-01  3.680175067908E-01  3.789099004221E-01
  3.901759277060E-01  4.018268531530E-01  4.138740884429E-01  4.263291744788E-01
  4.392037611744E-01  4.525095848191E-01  4.662584428595E-01  4.804621659314E-01
  4.951325869728E-01  5.102815072462E-01  5.259206590953E-01  5.420616652585E-01
  5.587159945662E-01  5.758949138442E-01  5.936094358527E-01  6.118702630927E-01
  6.306877273184E-01  6.500717246025E-01  6.700316458131E-01  6.905763023712E-01
  7.117138471792E-01  7.334516906245E-01  7.557964115891E-01  7.787536634202E-01
  8.023280748491E-01  8.265231458773E-01  8.513411386917E-01  8.767829637101E-01
  9.028480609118E-01  9.295342766573E-01  9.568377362646E-01  9.847527126734E-01
  1.013271491597E+00  1.042384233645E+00  1.072078833969E+00  1.102340780099E+00
  1.133153008687E+00  1.164495762033E+00  1.196346445310E+00  1.228679485574E+00
  1.261466193704E+00  1.294674630576E+00  1.328269478869E+00  1.362211922027E+00
  1.396459532025E+00  1.430966167697E+00  1.465681885502E+00  1.500552864719E+00
  1.535521349138E+00  1.570525607442E+00  1.605499914515E+00  1.640374555986E+00
  1.675075858371E+00  1.709526247157E+00  1.743644335209E+00  1.777345043790E+00
  1.810539758443E+00  1.843136521859E+00  1.875040265680E+00  1.906153083011E+00
  1.936374543124E+00  1.965602049562E+00  1.993731242460E+00  2.020656445484E+00
  2.046271157314E+00  2.070468587038E+00  2.093142232235E+00  2.114186497871E+00
  2.133497353411E+00  2.150973024800E+00  2.166514717195E+00  2.180027363476E+00
  2.191420392766E+00  2.200608512344E+00  2.207512495504E+00  2.212059967165E+00
  2.214186178296E+00  2.213834759567E+00  2.210958444138E+00  2.205519749032E+00
  2.197491604350E+00  2.186857919448E+00  2.173614075363E+00  2.157767333110E+00
  2.139337148054E+00  2.118355381405E+00  2.094866400986E+00  2.068927064779E+00
  2.040606582344E+00  2.009986251085E+00  1.977159066360E+00  1.942229206665E+00
  1.905311397500E+00  1.866530159943E+00  1.826018952429E+00  1.783919216618E+00
  1.740379340545E+00  1.695553554289E+00  1.649600775222E+00  1.602683421332E+00
  1.554966212137E+00  1.506614977232E+00  1.457795492515E+00  1.408672113115E+00
  1.359405455360E+00  1.310149692224E+00  1.261051580325E+00  1.212250212198E+00
  1.163876342444E+00  1.116051983979E+00  1.068890057678E+00  1.022494130604E+00
  9.769582411588E-01  9.323668113356E-01  8.887946451949E-01  8.463070115886E-01
  8.049598080707E-01  7.647998018690E-01  7.258649428033E-01  6.881847421378E-01
  6.517808041066E-01  6.166677685519E-01  5.828544686491E-01  5.503442956987E-01
  5.191355754077E-01  4.892219378360E-01  4.605926869898E-01  4.332331661094E-01
  4.071251169693E-01  3.822470313929E-01  3.585744934435E-01  3.360805107591E-01
  3.147358341696E-01  2.945092642684E-01  2.753679442747E-01  2.572776384901E-01
  2.402029958381E-01  2.241077981223E-01  2.089551927711E-01  1.947079099611E-01
  1.813284641235E-01  1.687793399418E-01  1.570231630401E-01  1.460228556450E-01
  1.357417775760E-01  1.261438529857E-01  1.171936833218E-01  1.088566470361E-01
  1.010989865986E-01  9.388788341055E-02  8.719152123441E-02  8.097913877632E-02
  7.522107207080E-02  6.988878732369E-02  6.495490487249E-02  6.039321492078E-02
  5.617868569719E-02  5.228746467992E-02  4.869687351410E-02  4.538539723365E-02
  4.233266838035E-02  3.951944659183E-02  3.692759420757E-02  3.454004841701E-02
  3.234079044824E-02  3.031481226844E-02  2.844808123935E-02  2.672750314251E-02
  2.514088395995E-02  2.367689076686E-02  2.232501206392E-02  2.107551784768E-02
  1.991941968956E-02  1.884843106585E-02  1.785492815456E-02  1.693191128868E-02
  1.607296723100E-02  1.527223241181E-02  1.452435724866E-02  1.382447164665E-02
  1.316815175837E-02  1.255138806492E-02  1.197055482304E-02  1.142238090900E-02
  1.090392207630E-02  1.041253463297E-02  9.945850533388E-03  9.501753871093E-03
  9.078358750836E-03  8.673988511826E-03  8.287156268479E-03  7.916546730437E-03
  7.560999260023E-03  7.219492122362E-03  6.891127881310E-03  6.575119892766E-03
  6.270779845966E-03  5.977506302867E-03  5.694774185615E-03  5.422125162361E-03
  5.159158882224E-03  4.905525010995E-03  4.660916020185E-03  4.425060683175E-03
  4.197718233513E-03  3.978673141827E-03  3.767730469259E-03  3.564711756916E-03
  3.369451412340E-03  3.181793555661E-03  3.001589289653E-03  2.828694359546E-03
  2.662967170052E-03  2.504267128610E-03  2.352453285469E-03  2.207383242698E-03
  2.068912305616E-03  1.936892852599E-03  1.811173897912E-03  1.691600827524E-03
  1.578015286124E-03  1.470255196171E-03  1.368154890891E-03  1.271545344374E-03
  1.180254483113E-03  1.094107564525E-03  1.012927609117E-03  9.365358740186E-04
  8.647523567274E-04  7.973963188499E-04  7.342868206624E-04  6.752432582195E-04
  6.200858956521E-04  5.686363861593E-04  5.207182760171E-04  4.761574867172E-04
  4.347827710873E-04  3.964261399520E-04  3.609232565557E-04  3.281137965897E-04
  2.978417722471E-04  2.699558192689E-04  2.443094464383E-04  2.207612474382E-04
  1.991750753977E-04  1.794201808240E-04  1.613713139487E-04  1.449087928015E-04
  1.299185385799E-04  1.162920800877E-04  1.039265291938E-04  9.272452939515E-05
  8.259417967423E-05  7.344893590881E-05  6.520749213306E-05  5.779364396014E-05
  5.113613646155E-05  4.516849876076E-05  3.982886753893E-05  3.505980157294E-05
  3.080808933150E-05  2.702455154778E-05  2.366384056800E-05  2.068423814794E-05
  1.804745323547E-05  1.571842113892E-05  1.366510534076E-05  1.185830307552E-05
  1.027145565146E-05  8.880464359657E-06  7.663512681804E-06  6.600895382283E-06
  5.674854949891E-06  4.869425742381E-06  4.170286082434E-06  3.564618457671E-06
  3.040977889938E-06  2.589168460600E-06  2.200127908927E-06  1.865820159706E-06
  1.579135583744E-06  1.333798750670E-06  1.124283396869E-06  9.457343022124E-07
  7.938957467482E-07  6.650462023537E-07  5.559389038019E-07  4.637479382558E-07
  3.860194912755E-07  3.206278904382E-07  2.657360940721E-07  2.197602818751E-07
  1.813382158178E-07  1.493010532570E-07  1.226483091828E-07  1.005256805948E-07
  8.220546280242E-08  6.706930465388E-08  5.459306705204E-08  4.433356637011E-08
  3.591700133957E-08  2.902887848200E-08  2.340526705902E-08  1.882522971651E-08
  1.510428942147E-08  1.208880687612E-08  9.651155309861E-09  7.685591378049E-09
  6.104731835651E-09  4.836555715577E-09  3.821860946884E-09  3.012112728384E-09
  2.367628565041E-09  1.856051720071E-09  1.451070980165E-09  1.131350122118E-09
  8.796353548301E-10  6.820133394697E-10  5.272962101781E-10  4.065133742975E-10
  3.124928090565E-10  2.395171330104E-10  1.830419549243E-10  1.394659270831E-10
  1.059435883610E-10  8.023350614151E-11  6.057544392625E-11  4.559131914292E-11
  3.420559658789E-11  2.558150803067E-11  1.907011637751E-11  1.416976993043E-11
  1.049393321311E-11  7.745748303731E-12  5.697985725047E-12  4.177296340577E-12
  3.051883723281E-12  2.221887267099E-12  1.611906035141E-12  1.165207208735E-12
  8.392554528150E-13  6.022742900558E-13  4.306108273099E-13  3.067235389350E-13
  2.176514792531E-13  1.538540934741E-13  1.083352289985E-13  7.598425594990E-14
  5.308240174205E-14  3.693431687897E-14  2.559418979405E-14  1.766296038408E-14
  1.213878201400E-14  8.307200320569E-15  5.660833452291E-15  3.840874271367E-15
  2.594665879095E-15  1.745065627191E-15  1.168417672771E-15  7.787844502388E-16
  5.167086280466E-16  3.412397733959E-16  2.243029389062E-16  1.467396116589E-16
  9.553710712124E-17  0.000000000000E+00  0.000000000000E+00  0.000000000000E+00
  0.000000000000E+00
</data>
</radfunc>
</valence-charge>
<pseudocore-charge matching-radius="1.32916311575"
 number-of-continuous-derivatives="4">
<annotation model-charge-form="Teter function with specified parameters" />
<radfunc>
<data npts="290">
  1.183709278998E+01  1.183682261868E+01  1.183598890107E+01  1.183460864746E+01
  1.183268918731E+01  1.183016452939E+01  1.182694561185E+01  1.182325791605E+01
  1.181910925213E+01  1.181426824635E+01  1.180880771361E+01  1.180286780284E+01
  1.179568255115E+01  1.178817064845E+01  1.177929920053E+01  1.177042857457E+01
  1.176020058064E+01  1.175049242136E+01  1.173956330924E+01  1.172726097276E+01
  1.171341449496E+01  1.170109743418E+01  1.168756107396E+01  1.167268625455E+01
  1.165634249490E+01  1.163838698552E+01  1.161866350642E+01  1.160260850855E+01
  1.158538545537E+01  1.156691120987E+01  1.154709700114E+01  1.152584808665E+01
  1.150306340131E+01  1.147863519420E+01  1.145244865381E+01  1.142438152331E+01
  1.139430370765E+01  1.136207687465E+01  1.133932621000E+01  1.131550952903E+01
  1.129057923034E+01  1.126448582225E+01  1.123717787191E+01  1.120860195581E+01
  1.117870261204E+01  1.114742229471E+01  1.111470133113E+01  1.108047788224E+01
  1.104468790682E+01  1.100726513039E+01  1.096814101932E+01  1.092724476101E+01
  1.088450325115E+01  1.083984108896E+01  1.079318058140E+01  1.074444175771E+01
  1.069354239534E+01  1.064039805875E+01  1.058492215255E+01  1.052702599051E+01
  1.046661888225E+01  1.040360823926E+01  1.033789970246E+01  1.026939729313E+01
  1.019800358954E+01  1.012361993160E+01  1.004614665596E+01  1.000622005763E+01
  9.965483364092E+00  9.923923960489E+00  9.881529226069E+00  9.838286545823E+00
  9.794183322790E+00  9.749206991054E+00  9.703345029456E+00  9.656584976035E+00
  9.608914443238E+00  9.560321133901E+00  9.510792858048E+00  9.460317550501E+00
  9.408883289355E+00  9.356478315318E+00  9.303091051944E+00  9.248710126780E+00
  9.193324393450E+00  9.136922954691E+00  9.079495186359E+00  9.021030762429E+00
  8.961519680991E+00  8.900952291275E+00  8.839319321700E+00  8.776611908969E+00
  8.712821628214E+00  8.647940524197E+00  8.581961143574E+00  8.514876568222E+00
  8.446680449621E+00  8.377367044294E+00  8.306931250295E+00  8.235368644724E+00
  8.162675522264E+00  8.088848934702E+00  8.013886731428E+00  7.937787600861E+00
  7.860551112780E+00  7.782177761496E+00  7.702669009845E+00  7.622027333917E+00
  7.540256268466E+00  7.457360452944E+00  7.373345678054E+00  7.288218932755E+00
  7.201988451608E+00  7.114663762369E+00  7.026255733704E+00  6.936776622895E+00
  6.846240123425E+00  6.754661412256E+00  6.662057196680E+00  6.568445760543E+00
  6.473847009679E+00  6.378282516347E+00  6.281775562468E+00  6.184351181446E+00
  6.086036198335E+00  5.986859268108E+00  5.886850911772E+00  5.786043550055E+00
  5.684471534381E+00  5.582171174840E+00  5.479180764845E+00  5.375540602148E+00
  5.271293005896E+00  5.166482329377E+00  5.061154968112E+00  4.955359362929E+00
  4.849145997656E+00  4.742567391062E+00  4.635678082669E+00  4.528534612058E+00
  4.421195491293E+00  4.313721170080E+00  4.206173993296E+00  4.098618150522E+00
  3.991119617220E+00  3.883746087222E+00  3.776566896195E+00  3.669652935784E+00
  3.563076558154E+00  3.456911470672E+00  3.351232620517E+00  3.246116069032E+00
  3.141638855681E+00  3.037878851519E+00  2.934914602132E+00  2.832825160070E+00
  2.731689906854E+00  2.631588364705E+00  2.532599998217E+00  2.434804006290E+00
  2.338279104692E+00  2.243103299745E+00  2.149353653703E+00  2.057106042485E+00
  1.966434906547E+00  1.877412995772E+00  1.790111109357E+00  1.704597831810E+00
  1.620939266256E+00  1.539198766382E+00  1.459436668451E+00  1.381710024924E+00
  1.306072341334E+00  1.232573318161E+00  1.161258599533E+00  1.092169530682E+00
  1.025342926130E+00  9.608108506676E-01  8.986004152076E-01  8.387335896457E-01
  7.812270348506E-01  7.260919559090E-01  6.733339787115E-01  6.229530519045E-01
  5.749433761545E-01  5.292933625509E-01  4.859856218374E-01  4.449969859846E-01
  4.062985634137E-01  3.698558289476E-01  3.356287492937E-01  3.035719445697E-01
  2.736348860528E-01  2.457621299789E-01  2.198935868374E-01  1.959648252043E-01
  1.739074087376E-01  1.536492645232E-01  1.351150805199E-01  1.182267294087E-01
  1.029037157153E-01  8.906364265029E-02  7.662269470955E-02  6.549613170564E-02
  5.559878956748E-02  4.684558296137E-02  3.915200455899E-02  3.243461561725E-02
  2.661152244858E-02  2.160283335620E-02  1.733109069390E-02  1.372167288871E-02
  1.070316154157E-02  8.207669096737E-03  6.171123046102E-03  4.533503204662E-03
  3.239029255272E-03  2.236296503846E-03  1.478358600806E-03  9.227568561850E-04
  5.314966879324E-04  2.709726764896E-04  1.118446322340E-04  2.886799291815E-05
  6.827314250345E-07  9.565745266323E-06  4.115239371713E-05  8.413342285503E-05
  1.299339516473E-04  1.723814651570E-04  2.073698593887E-04  2.325264965683E-04
  2.468889556470E-04  2.505977027524E-04  2.446102690955E-04  2.304417253972E-04
  2.099353050030E-04  1.850659818020E-04  1.577786888991E-04  1.298617094205E-04
  1.028546248034E-04  7.798911285412E-05  5.615989170469E-05  3.792224780617E-05
  2.351190269192E-05  1.288249376132E-05  5.755689140705E-06  1.678935492314E-06
  8.604842018276E-08  3.562835220059E-07  1.868145704475E-06  4.044967523517E-06
  6.390167067422E-06  8.511028471056E-06  1.013077608826E-05  1.108957924650E-05
  1.133587492527E-05  1.090998508965E-05  9.922399690120E-06  8.529275808392E-06
  6.907664702683E-06  5.232735232223E-06  3.658844299295E-06  2.305756688599E-06
  1.250692771784E-06  5.262436277830E-07  1.236002047309E-07  5.171761196083E-11
  8.936296492229E-08  3.134693215705E-07  5.939415048741E-07  8.618592382786E-07
  1.065063781614E-06  1.172188044807E-06  1.173333012076E-06  1.077709953020E-06
  9.089425913251E-07  6.989763876573E-07  4.816450496394E-07  2.868903396003E-07
  1.364357193500E-07  4.141321334336E-08  2.087042315429E-09  0.000000000000E+00
  0.000000000000E+00  0.000000000000E+00  0.000000000000E+00  0.000000000000E+00
  0.000000000000E+00  0.000000000000E+00
</data>
</radfunc>
</pseudocore-charge>
<semilocal-potentials set="scalar_relativistic">
<slps n="5" l="s" rc="2.27353342651" eref="-0.988495407275">
<radfunc>
<data npts="290">
  1.290778683643E+01  1.290422573199E+01  1.289324343019E+01  1.287508450231E+01
  1.284987863486E+01  1.281680842049E+01  1.277478028778E+01  1.272681802509E+01
  1.267309702001E+01  1.261072540154E+01  1.254077506750E+01  1.246516495310E+01
  1.237436589460E+01  1.228020662232E+01  1.217000348632E+01  1.206087600189E+01
  1.193635247744E+01  1.181942836341E+01  1.168925548051E+01  1.154453970208E+01
  1.138391192540E+01  1.124299058302E+01  1.109020822313E+01  1.092478889952E+01
  1.074594777148E+01  1.055289982525E+01  1.034487028065E+01  1.017856262402E+01
  1.000309918741E+01  9.818190454447E+00  9.623566069880E+00  9.418979122153E+00
  9.204210679994E+00  8.979074540377E+00  8.743422133118E+00  8.497147514757E+00
  8.240192371579E+00  7.972550939244E+00  7.788209437452E+00  7.599170430792E+00
  7.405476988512E+00  7.207185413549E+00  7.004365686307E+00  6.797101849065E+00
  6.585492323684E+00  6.369650155545E+00  6.149703177050E+00  5.925794084542E+00
  5.698080423143E+00  5.466734474855E+00  5.231943046154E+00  4.993907152393E+00
  4.752841597496E+00  4.508974448658E+00  4.262546407131E+00  4.013810077555E+00
  3.763029139672E+00  3.510477427734E+00  3.256437924228E+00  3.001201675908E+00
  2.745066641329E+00  2.488336480208E+00  2.231319295882E+00  1.974326342954E+00
  1.717670712837E+00  1.461666010293E+00  1.206625034309E+00  1.079563152267E+00
  9.528584765980E-01  8.265493059802E-01  7.006736508164E-01  5.752691960847E-01
  4.503732651462E-01  3.260227845966E-01  2.022542502421E-01  7.910369427840E-02
 -4.339334625323E-02 -1.652018596650E-01 -2.862873884114E-01 -4.066160564097E-01
 -5.261545948371E-01 -6.448703663570E-01 -7.627313877300E-01 -8.797063507723E-01
 -9.957646416294E-01 -1.110876358337E+00 -1.225012326649E+00 -1.338144114116E+00
 -1.450244042403E+00 -1.561285197840E+00 -1.671241440212E+00 -1.780087409780E+00
 -1.887798532556E+00 -1.994351023839E+00 -2.099721890033E+00 -2.203888928764E+00
 -2.306830727337E+00 -2.408526659552E+00 -2.508956880911E+00 -2.608102322272E+00
 -2.705944681967E+00 -2.802466416447E+00 -2.897650729492E+00 -2.991481560035E+00
 -3.083943568654E+00 -3.175022122780E+00 -3.264703280679E+00 -3.352973774268E+00
 -3.439820990804E+00 -3.525232953528E+00 -3.609198301298E+00 -3.691706267290E+00
 -3.772746656801E+00 -3.852309824242E+00 -3.930386649344E+00 -4.006968512662E+00
 -4.082047270415E+00 -4.155615228721E+00 -4.227665117284E+00 -4.298190062572E+00
 -4.367183560546E+00 -4.434639448982E+00 -4.500551879431E+00 -4.564915288852E+00
 -4.627724370970E+00 -4.688974047382E+00 -4.748659438448E+00 -4.806775834002E+00
 -4.863318663902E+00 -4.918283468443E+00 -4.971665868657E+00 -5.023461536515E+00
 -5.073666165044E+00 -5.122275438369E+00 -5.169285001691E+00 -5.214690431213E+00
 -5.258487204006E+00 -5.300670667839E+00 -5.341236010961E+00 -5.380178231856E+00
 -5.417492108978E+00 -5.453172170477E+00 -5.487212663942E+00 -5.519607526196E+00
 -5.550350353169E+00 -5.579434369930E+00 -5.606852400920E+00 -5.632596840508E+00
 -5.656659623968E+00 -5.679032199043E+00 -5.699705498257E+00 -5.718669912223E+00