Ga    ONCVPSP-3.3.0  r_core=   1.66857   1.75011   1.90252
31.0000     13.0000      180112    zatom,zion,pspd
8 -116133   2     4   600     0    pspcod,pspxc,lmax,lloc,mmax,r2well
5.99000000  5.00000000  0.00000000    rchrg fchrg qchrg
2     2     2     0     0    nproj
1     1           extension_switch
0                         7.0530212858251D+00  1.1567127162422D+00
1  0.0000000000000D+00  1.6708536099835D-09 -3.1269501432618D-09
2  1.0000000000000D-02 -1.7475389384371D-03  4.6381309018913D-02
3  2.0000000000000D-02 -3.1841130558711D-03  9.2181363292822D-02
4  3.0000000000000D-02 -4.0024170800200D-03  1.3682569048719D-01
5  4.0000000000000D-02 -3.9024247052755D-03  1.7975330821270D-01
6  5.0000000000000D-02 -2.5949281779926D-03  2.2042328261129D-01
7  6.0000000000000D-02  1.9504079958975D-04  2.5832106551711D-01
8  7.0000000000000D-02  4.7249464268170D-03  2.9296454009058D-01
9  8.0000000000000D-02  1.1231676332645D-02  3.2390970795050D-01
10  9.0000000000000D-02  1.9928695127850D-02  3.5075595467595D-01
11  1.0000000000000D-01  3.1003455416274D-02  3.7315083507635D-01
12  1.1000000000000D-01  4.4615094943366D-02  3.9079432478603D-01
13  1.2000000000000D-01  6.0892445494593D-02  4.0344249047643D-01
14  1.3000000000000D-01  7.9932375813864D-02  4.1091053723298D-01
15  1.4000000000000D-01  1.0179848722771D-01  4.1307519834997D-01
16  1.5000000000000D-01  1.2652017687265D-01  4.0987643988413D-01
17  1.6000000000000D-01  1.5409207947008D-01  4.0131845970240D-01
18  1.7000000000000D-01  1.8447389451777D-01  3.8746996838253D-01
19  1.8000000000000D-01  2.1759060161120D-01  3.6846374709717D-01
20  1.9000000000000D-01  2.5333306241700D-01  3.4449548545015D-01
21  2.0000000000000D-01  2.9155900363727D-01  3.1582191005528D-01
22  2.1000000000000D-01  3.3209437117332D-01  2.8275822236961D-01
23  2.2000000000000D-01  3.7473504166309D-01  2.4567487183335D-01
24  2.3000000000000D-01  4.1924887367193D-01  2.0499369764639D-01
25  2.4000000000000D-01  4.6537807710237D-01  1.6118347944961D-01
26  2.5000000000000D-01  5.1284187589536D-01  1.1475494370265D-01
27  2.6000000000000D-01  5.6133943586010D-01  6.6255278589053D-02
28  2.7000000000000D-01  6.1055302652763D-01  1.6262215769131D-02
29  2.8000000000000D-01  6.6015138330590D-01 -3.4622257819727D-02
30  2.9000000000000D-01  7.0979323395056D-01 -8.5778490698562D-02
31  3.0000000000000D-01  7.5913095148027D-01 -1.3657598919500D-01
32  3.1000000000000D-01  8.0781429417993D-01 -1.8638039772291D-01
33  3.2000000000000D-01  8.5549419226581D-01 -2.3456056133509D-01
34  3.3000000000000D-01  9.0182654014665D-01 -2.8049559371826D-01
35  3.4000000000000D-01  9.4647595301198D-01 -3.2358187344517D-01
36  3.5000000000000D-01  9.8911944671669D-01 -3.6323989177150D-01
37  3.6000000000000D-01  1.0294500006087D+00 -3.9892087656016D-01
38  3.7000000000000D-01  1.0671799640581D+00 -4.3011311902502D-01
39  3.8000000000000D-01  1.1020442689824D+00 -4.5634793288705D-01
40  3.9000000000000D-01  1.1338034126052D+00 -4.7720517920386D-01
41  4.0000000000000D-01  1.1622461770226D+00 -4.9231829453024D-01
42  4.1000000000000D-01  1.1871920548503D+00 -5.0137876514935D-01
43  4.2000000000000D-01  1.2084933532658D+00 -5.0413999583132D-01
44  4.3000000000000D-01  1.2260369521080D+00 -5.0042052786813D-01
45  4.4000000000000D-01  1.2397456953196D+00 -4.9010656793847D-01
46  4.5000000000000D-01  1.2495793988760D+00 -4.7315379660140D-01
47  4.6000000000000D-01  1.2555354624023D+00 -4.4958843282956D-01
48  4.7000000000000D-01  1.2576490758857D+00 -4.1950753889144D-01
49  4.8000000000000D-01  1.2559930172169D+00 -3.8307855799508D-01
50  4.9000000000000D-01  1.2506770406736D+00 -3.4053808532638D-01
51  5.0000000000000D-01  1.2418468608669D+00 -2.9218988136927D-01
52  5.1000000000000D-01  1.2296827410440D+00 -2.3840214459216D-01
53  5.2000000000000D-01  1.2143976989435D+00 -1.7960406864091D-01
54  5.3000000000000D-01  1.1962353475755D+00 -1.1628171699796D-01
55  5.4000000000000D-01  1.1754673923158D+00 -4.8973255584867D-02
56  5.5000000000000D-01  1.1523908095047D+00  2.1736409105204D-02
57  5.6000000000000D-01  1.1273247352934D+00  9.5221532118476D-02
58  5.7000000000000D-01  1.1006070967465D+00  1.7082191206532D-01
59  5.8000000000000D-01  1.0725910201395D+00  2.4784968726268D-01
60  5.9000000000000D-01  1.0436410539751D+00  3.2559647537656D-01
61  6.0000000000000D-01  1.0141292464242D+00  4.0334078188889D-01
62  6.1000000000000D-01  9.8443111867560D-01  4.8035559940236D-01
63  6.2000000000000D-01  9.5492157702002D-01  5.5591611732618D-01
64  6.3000000000000D-01  9.2597080738023D-01  6.2930745984726D-01
65  6.4000000000000D-01  8.9794019642840D-01  6.9983236933150D-01
66  6.5000000000000D-01  8.7117832338762D-01  7.6681875241384D-01
67  6.6000000000000D-01  8.4601706609902D-01  8.2962700704321D-01
68  6.7000000000000D-01  8.2276786394921D-01  8.8765705063539D-01
69  6.8000000000000D-01  8.0171817881538D-01  9.4035497222085D-01
70  6.9000000000000D-01  7.8312819328430D-01  9.8721923507720D-01
71  7.0000000000000D-01  7.6722778308403D-01  1.0278063607185D+00
72  7.1000000000000D-01  7.5421379793054D-01  1.0617360302822D+00
73  7.2000000000000D-01  7.4424768189468D-01  1.0886955451956D+00
74  7.3000000000000D-01  7.3745346091773D-01  1.1084435955590D+00
75  7.4000000000000D-01  7.3391612133993D-01  1.1208132917706D+00
76  7.5000000000000D-01  7.3368039925333D-01  1.1257144225499D+00
77  7.6000000000000D-01  7.3674999620792D-01  1.1231349105713D+00
78  7.7000000000000D-01  7.4308723231982D-01  1.1131414453478D+00
79  7.8000000000000D-01  7.5261314322828D-01  1.0958792816520D+00
80  7.9000000000000D-01  7.6520802262362D-01  1.0715712006438D+00
81  8.0000000000000D-01  7.8071240731980D-01  1.0405156397876D+00
82  8.1000000000000D-01  7.9892849709839D-01  1.0030840065593D+00
83  8.2000000000000D-01  8.1962199685799D-01  9.5971719974480D-01
84  8.3000000000000D-01  8.4252436402038D-01  9.1092137073350D-01
85  8.4000000000000D-01  8.6733543971828D-01  8.5726296550492D-01
86  8.5000000000000D-01  8.9372643806931D-01  7.9936309591811D-01
87  8.6000000000000D-01  9.2134326387158D-01  7.3789129634571D-01
88  8.7000000000000D-01  9.4981012538284D-01  6.7355872856932D-01
89  8.8000000000000D-01  9.7873340550861D-01  6.0711090409185D-01
90  8.9000000000000D-01  1.0077057517612D+00  5.3931999855776D-01
91  9.0000000000000D-01  1.0363103427965D+00  4.7097683773633D-01
92  9.1000000000000D-01  1.0641252872179D+00  4.0288263846605D-01
93  9.2000000000000D-01  1.0907281086795D+00  3.3584059102925D-01
94  9.3000000000000D-01  1.1157002701491D+00  2.7064737158892D-01
95  9.4000000000000D-01  1.1386316895131D+00  2.0808467455202D-01
96  9.5000000000000D-01  1.1591251985474D+00  1.4891085497209D-01
97  9.6000000000000D-01  1.1768008976006D+00  9.3852770462155D-02
98  9.7000000000000D-01  1.1913003592121D+00  4.3597910389650D-02
99  9.8000000000000D-01  1.2022906352348D+00 -1.2131024439596D-03
100  9.9000000000000D-01  1.2094680238863D+00 -3.9993555966621D-02
101  1.0000000000000D+00  1.2125615554763D+00 -7.2217161582524D-02
102  1.0100000000000D+00  1.2113361583286D+00 -9.7423963483431D-02
103  1.0200000000000D+00  1.2055954696707D+00 -1.1522557866898D-01
104  1.0300000000000D+00  1.1951842597812D+00 -1.2530970846123D-01
105  1.0400000000000D+00  1.1799904416429D+00 -1.2744386977602D-01
106  1.0500000000000D+00  1.1599466427196D+00 -1.2147830265738D-01
107  1.0600000000000D+00  1.1350313198920D+00 -1.0734801890898D-01
108  1.0700000000000D+00  1.1052694034086D+00 -8.5073965746388D-02
109  1.0800000000000D+00  1.0707324607838D+00 -5.4763287955635D-02
110  1.0900000000000D+00  1.0315383761041D+00 -1.6608680566954D-02
111  1.1000000000000D+00  9.8785054610296D-01  2.9113164835235D-02
112  1.1100000000000D+00  9.3987659887223D-01  8.2044008572252D-02
113  1.1200000000000D+00  8.8786664670580D-01  1.4174738392102D-01
114  1.1300000000000D+00  8.3211108881895D-01  2.0771276058920D-01
115  1.1400000000000D+00  7.7293798528988D-01  2.7936050992416D-01
116  1.1500000000000D+00  7.1071002786487D-01  3.5604762309951D-01
117  1.1600000000000D+00  6.4582113794464D-01  4.3707412474990D-01
118  1.1700000000000D+00  5.7869272532452D-01  5.2169011841791D-01
119  1.1800000000000D+00  5.0976964608430D-01  6.0910339113821D-01
120  1.1900000000000D+00  4.3951590081685D-01  6.9848749925911D-01
121  1.2000000000000D+00  3.6841011739068D-01  7.8899025198585D-01
122  1.2100000000000D+00  2.9694086448441D-01  8.7974250530985D-01
123  1.2200000000000D+00  2.2560184511670D-01  9.6986717343474D-01
124  1.2300000000000D+00  1.5488701990032D-01  1.0584883638979D+00
125  1.2400000000000D+00  8.5285710916971D-02  1.1447405404176D+00
126  1.2500000000000D+00  1.7277738030722D-02  1.2277776158350D+00
127  1.2600000000000D+00 -4.8671361623484D-02  1.3067818796072D+00
128  1.2700000000000D+00 -1.1211498017788D-01  1.3809726642158D+00
129  1.2800000000000D+00 -1.7262990191604D-01  1.4496146570334D+00
130  1.2900000000000D+00 -2.2982053610753D-01  1.5120257704435D+00
131  1.3000000000000D+00 -2.8332287346408D-01  1.5675844831360D+00
132  1.3100000000000D+00 -3.3280812354803D-01  1.6157365724851D+00
133  1.3200000000000D+00 -3.7798599619401D-01  1.6560011687605D+00
134  1.3300000000000D+00 -4.1860758816571D-01  1.6879760584525D+00
135  1.3400000000000D+00 -4.5446784500821D-01  1.7113421805541D+00
136  1.3500000000000D+00 -4.8540757386666D-01  1.7258672706191D+00
137  1.3600000000000D+00 -5.1131497817828D-01  1.7314085982316D+00
138  1.3700000000000D+00 -5.3212670371486D-01  1.7279147786391D+00
139  1.3800000000000D+00 -5.4782838096268D-01  1.7154266307948D+00
140  1.3900000000000D+00 -5.5845465359667D-01  1.6940770630925D+00
141  1.4000000000000D+00 -5.6408869968639D-01  1.6640899999404D+00
142  1.4100000000000D+00 -5.6486123965690D-01  1.6257783385100D+00
143  1.4200000000000D+00 -5.6094904725886D-01  1.5795409669646D+00
144  1.4300000000000D+00 -5.5257297731714D-01  1.5258588707617D+00
145  1.4400000000000D+00 -5.3999552357895D-01  1.4652903528047D+00
146  1.4500000000000D+00 -5.2351794282940D-01  1.3984654362753D+00
147  1.4600000000000D+00 -5.0347696130201D-01  1.3260794810259D+00
148  1.4700000000000D+00 -4.8024110825654D-01  1.2488860987666D+00
149  1.4800000000000D+00 -4.5420670823915D-01  1.1676894270958D+00
150  1.4900000000000D+00 -4.2579357387949D-01  1.0833358419319D+00
151  1.5000000000000D+00 -3.9544044827857D-01  9.9670520138221D-01
152  1.5100000000000D+00 -3.6360023663192D-01  9.0870169646825D-01
153  1.5200000000000D+00 -3.3073508529983D-01  8.2024441891501D-01
154  1.5300000000000D+00 -2.9731135184316D-01  7.3225772871273D-01
155  1.5400000000000D+00 -2.6379452432394D-01  6.4566153177985D-01
156  1.5500000000000D+00 -2.3064413862011D-01  5.6136156019786D-01
157  1.5600000000000D+00 -1.9830874999199D-01  4.8023975982885D-01
158  1.5700000000000D+00 -1.6722100991310D-01  4.0314489269817D-01
159  1.5800000000000D+00 -1.3779289448587D-01  3.3088340106406D-01
160  1.5900000000000D+00 -1.1041116110459D-01  2.6421079817439D-01
161  1.6000000000000D+00 -8.5433028319286D-02  2.0382337238696D-01
162  1.6100000000000D+00 -6.3182318740632D-02  1.5035074322105D-01
163  1.6200000000000D+00 -4.3961017322948D-02  1.0438534158731D-01
164  1.6300000000000D+00 -2.7957277075400D-02  6.6266656599716D-02
165  1.6400000000000D+00 -1.5352625961192D-02  3.6336796446075D-02
166  1.6500000000000D+00 -6.6068033616793D-03  1.5614060910701D-02
167  1.6600000000000D+00 -1.7605074102406D-03  4.1471556028654D-03
168  1.6700000000000D+00  1.4099893621362D-04 -3.4441521226126D-04
169  1.6800000000000D+00  3.2417041995834D-04 -7.7036294424116D-04
170  1.6900000000000D+00 -3.2615974980653D-05  7.7440380256698D-05
171  1.7000000000000D+00 -1.1058144682953D-04  2.6231225952417D-04
172  1.7100000000000D+00  4.3716240443044D-06 -1.0404310652150D-05
173  1.7200000000000D+00  2.0680446566896D-05 -4.9197849362794D-05
174  1.7300000000000D+00 -1.0583465682727D-09  6.4596000661396D-09
175  1.7400000000000D+00 -9.0841400035554D-09  5.5444892180787D-08
176  1.7500000000000D+00 -1.4946433065644D-10  9.1225296999786D-10
177  1.7600000000000D+00  0.0000000000000D+00  0.0000000000000D+00
178  1.7700000000000D+00  0.0000000000000D+00  0.0000000000000D+00
179  1.7800000000000D+00  0.0000000000000D+00  0.0000000000000D+00
180  1.7900000000000D+00  0.0000000000000D+00  0.0000000000000D+00
181  1.8000000000000D+00  0.0000000000000D+00  0.0000000000000D+00
182  1.8100000000000D+00  0.0000000000000D+00  0.0000000000000D+00
183  1.8200000000000D+00  0.0000000000000D+00  0.0000000000000D+00
184  1.8300000000000D+00  0.0000000000000D+00  0.0000000000000D+00
185  1.8400000000000D+00  0.0000000000000D+00  0.0000000000000D+00
186  1.8500000000000D+00  0.0000000000000D+00  0.0000000000000D+00
187  1.8600000000000D+00  0.0000000000000D+00  0.0000000000000D+00
188  1.8700000000000D+00  0.0000000000000D+00  0.0000000000000D+00
189  1.8800000000000D+00  0.0000000000000D+00  0.0000000000000D+00
190  1.8900000000000D+00  0.0000000000000D+00  0.0000000000000D+00
191  1.9000000000000D+00  0.0000000000000D+00  0.0000000000000D+00
192  1.9100000000000D+00  0.0000000000000D+00  0.0000000000000D+00
193  1.9200000000000D+00  0.0000000000000D+00  0.0000000000000D+00
194  1.9300000000000D+00  0.0000000000000D+00  0.0000000000000D+00
195  1.9400000000000D+00  0.0000000000000D+00  0.0000000000000D+00
196  1.9500000000000D+00  0.0000000000000D+00  0.0000000000000D+00
197  1.9600000000000D+00  0.0000000000000D+00  0.0000000000000D+00
198  1.9700000000000D+00  0.0000000000000D+00  0.0000000000000D+00
199  1.9800000000000D+00  0.0000000000000D+00  0.0000000000000D+00
200  1.9900000000000D+00  0.0000000000000D+00  0.0000000000000D+00
201  2.0000000000000D+00  0.0000000000000D+00  0.0000000000000D+00
202  2.0100000000000D+00  0.0000000000000D+00  0.0000000000000D+00
203  2.0200000000000D+00  0.0000000000000D+00  0.0000000000000D+00
204  2.0300000000000D+00  0.0000000000000D+00  0.0000000000000D+00
205  2.0400000000000D+00  0.0000000000000D+00  0.0000000000000D+00
206  2.0500000000000D+00  0.0000000000000D+00  0.0000000000000D+00
207  2.0600000000000D+00  0.0000000000000D+00  0.0000000000000D+00
208  2.0700000000000D+00  0.0000000000000D+00  0.0000000000000D+00
209  2.0800000000000D+00  0.0000000000000D+00  0.0000000000000D+00
210  2.0900000000000D+00  0.0000000000000D+00  0.0000000000000D+00
211  2.1000000000000D+00  0.0000000000000D+00  0.0000000000000D+00
212  2.1100000000000D+00  0.0000000000000D+00  0.0000000000000D+00
213  2.1200000000000D+00  0.0000000000000D+00  0.0000000000000D+00
214  2.1300000000000D+00  0.0000000000000D+00  0.0000000000000D+00
215  2.1400000000000D+00  0.0000000000000D+00  0.0000000000000D+00
216  2.1500000000000D+00  0.0000000000000D+00  0.0000000000000D+00
217  2.1600000000000D+00  0.0000000000000D+00  0.0000000000000D+00
218  2.1700000000000D+00  0.0000000000000D+00  0.0000000000000D+00
219  2.1800000000000D+00  0.0000000000000D+00  0.0000000000000D+00
220  2.1900000000000D+00  0.0000000000000D+00  0.0000000000000D+00
221  2.2000000000000D+00  0.0000000000000D+00  0.0000000000000D+00
222  2.2100000000000D+00  0.0000000000000D+00  0.0000000000000D+00
223  2.2200000000000D+00  0.0000000000000D+00  0.0000000000000D+00
224  2.2300000000000D+00  0.0000000000000D+00  0.0000000000000D+00
225  2.2400000000000D+00  0.0000000000000D+00  0.0000000000000D+00
226  2.2500000000000D+00  0.0000000000000D+00  0.0000000000000D+00
227  2.2600000000000D+00  0.0000000000000D+00  0.0000000000000D+00
228  2.2700000000000D+00  0.0000000000000D+00  0.0000000000000D+00
229  2.2800000000000D+00  0.0000000000000D+00  0.0000000000000D+00
230  2.2900000000000D+00  0.0000000000000D+00  0.0000000000000D+00
231  2.3000000000000D+00  0.0000000000000D+00  0.0000000000000D+00
232  2.3100000000000D+00  0.0000000000000D+00  0.0000000000000D+00
233  2.3200000000000D+00  0.0000000000000D+00  0.0000000000000D+00
234  2.3300000000000D+00  0.0000000000000D+00  0.0000000000000D+00
235  2.3400000000000D+00  0.0000000000000D+00  0.0000000000000D+00
236  2.3500000000000D+00  0.0000000000000D+00  0.0000000000000D+00
237  2.3600000000000D+00  0.0000000000000D+00  0.0000000000000D+00
238  2.3700000000000D+00  0.0000000000000D+00  0.0000000000000D+00
239  2.3800000000000D+00  0.0000000000000D+00  0.0000000000000D+00
240  2.3900000000000D+00  0.0000000000000D+00  0.0000000000000D+00
241  2.4000000000000D+00  0.0000000000000D+00  0.0000000000000D+00
242  2.4100000000000D+00  0.0000000000000D+00  0.0000000000000D+00
243  2.4200000000000D+00  0.0000000000000D+00  0.0000000000000D+00
244  2.4300000000000D+00  0.0000000000000D+00  0.0000000000000D+00
245  2.4400000000000D+00  0.0000000000000D+00  0.0000000000000D+00
246  2.4500000000000D+00  0.0000000000000D+00  0.0000000000000D+00
247  2.4600000000000D+00  0.0000000000000D+00  0.0000000000000D+00
248  2.4700000000000D+00  0.0000000000000D+00  0.0000000000000D+00
249  2.4800000000000D+00  0.0000000000000D+00  0.0000000000000D+00
250  2.4900000000000D+00  0.0000000000000D+00  0.0000000000000D+00
251  2.5000000000000D+00  0.0000000000000D+00  0.0000000000000D+00
252  2.5100000000000D+00  0.0000000000000D+00  0.0000000000000D+00
253  2.5200000000000D+00  0.0000000000000D+00  0.0000000000000D+00
254  2.5300000000000D+00  0.0000000000000D+00  0.0000000000000D+00
255  2.5400000000000D+00  0.0000000000000D+00  0.0000000000000D+00
256  2.5500000000000D+00  0.0000000000000D+00  0.0000000000000D+00
257  2.5600000000000D+00  0.0000000000000D+00  0.0000000000000D+00
258  2.5700000000000D+00  0.0000000000000D+00  0.0000000000000D+00
259  2.5800000000000D+00  0.0000000000000D+00  0.0000000000000D+00
260  2.5900000000000D+00  0.0000000000000D+00  0.0000000000000D+00
261  2.6000000000000D+00  0.0000000000000D+00  0.0000000000000D+00
262  2.6100000000000D+00  0.0000000000000D+00  0.0000000000000D+00
263  2.6200000000000D+00  0.0000000000000D+00  0.0000000000000D+00
264  2.6300000000000D+00  0.0000000000000D+00  0.0000000000000D+00
265  2.6400000000000D+00  0.0000000000000D+00  0.0000000000000D+00
266  2.6500000000000D+00  0.0000000000000D+00  0.0000000000000D+00
267  2.6600000000000D+00  0.0000000000000D+00  0.0000000000000D+00
268  2.6700000000000D+00  0.0000000000000D+00  0.0000000000000D+00
269  2.6800000000000D+00  0.0000000000000D+00  0.0000000000000D+00
270  2.6900000000000D+00  0.0000000000000D+00  0.0000000000000D+00
271  2.7000000000000D+00  0.0000000000000D+00  0.0000000000000D+00
272  2.7100000000000D+00  0.0000000000000D+00  0.0000000000000D+00
273  2.7200000000000D+00  0.0000000000000D+00  0.0000000000000D+00
274  2.7300000000000D+00  0.0000000000000D+00  0.0000000000000D+00
275  2.7400000000000D+00  0.0000000000000D+00  0.0000000000000D+00
276  2.7500000000000D+00  0.0000000000000D+00  0.0000000000000D+00
277  2.7600000000000D+00  0.0000000000000D+00  0.0000000000000D+00
278  2.7700000000000D+00  0.0000000000000D+00  0.0000000000000D+00
279  2.7800000000000D+00  0.0000000000000D+00  0.0000000000000D+00
280  2.7900000000000D+00  0.0000000000000D+00  0.0000000000000D+00
281  2.8000000000000D+00  0.0000000000000D+00  0.0000000000000D+00
282  2.8100000000000D+00  0.0000000000000D+00  0.0000000000000D+00
283  2.8200000000000D+00  0.0000000000000D+00  0.0000000000000D+00
284  2.8300000000000D+00  0.0000000000000D+00  0.0000000000000D+00
285  2.8400000000000D+00  0.0000000000000D+00  0.0000000000000D+00
286  2.8500000000000D+00  0.0000000000000D+00  0.0000000000000D+00
287  2.8600000000000D+00  0.0000000000000D+00  0.0000000000000D+00
288  2.8700000000000D+00  0.0000000000000D+00  0.0000000000000D+00
289  2.8800000000000D+00  0.0000000000000D+00  0.0000000000000D+00
290  2.8900000000000D+00  0.0000000000000D+00  0.0000000000000D+00
291  2.9000000000000D+00  0.0000000000000D+00  0.0000000000000D+00
292  2.9100000000000D+00  0.0000000000000D+00  0.0000000000000D+00
293  2.9200000000000D+00  0.0000000000000D+00  0.0000000000000D+00
294  2.9300000000000D+00  0.0000000000000D+00  0.0000000000000D+00
295  2.9400000000000D+00  0.0000000000000D+00  0.0000000000000D+00
296  2.9500000000000D+00  0.0000000000000D+00  0.0000000000000D+00
297  2.9600000000000D+00  0.0000000000000D+00  0.0000000000000D+00
298  2.9700000000000D+00  0.0000000000000D+00  0.0000000000000D+00
299  2.9800000000000D+00  0.0000000000000D+00  0.0000000000000D+00
300  2.9900000000000D+00  0.0000000000000D+00  0.0000000000000D+00
301  3.0000000000000D+00  0.0000000000000D+00  0.0000000000000D+00
302  3.0100000000000D+00  0.0000000000000D+00  0.0000000000000D+00
303  3.0200000000000D+00  0.0000000000000D+00  0.0000000000000D+00
304  3.0300000000000D+00  0.0000000000000D+00  0.0000000000000D+00
305  3.0400000000000D+00  0.0000000000000D+00  0.0000000000000D+00
306  3.0500000000000D+00  0.0000000000000D+00  0.0000000000000D+00
307  3.0600000000000D+00  0.0000000000000D+00  0.0000000000000D+00
308  3.0700000000000D+00  0.0000000000000D+00  0.0000000000000D+00
309  3.0800000000000D+00  0.0000000000000D+00  0.0000000000000D+00
310  3.0900000000000D+00  0.0000000000000D+00  0.0000000000000D+00
311  3.1000000000000D+00  0.0000000000000D+00  0.0000000000000D+00
312  3.1100000000000D+00  0.0000000000000D+00  0.0000000000000D+00
313  3.1200000000000D+00  0.0000000000000D+00  0.0000000000000D+00
314  3.1300000000000D+00  0.0000000000000D+00  0.0000000000000D+00
315  3.1400000000000D+00  0.0000000000000D+00  0.0000000000000D+00
316  3.1500000000000D+00  0.0000000000000D+00  0.0000000000000D+00
317  3.1600000000000D+00  0.0000000000000D+00  0.0000000000000D+00
318  3.1700000000000D+00  0.0000000000000D+00  0.0000000000000D+00
319  3.1800000000000D+00  0.0000000000000D+00  0.0000000000000D+00
320  3.1900000000000D+00  0.0000000000000D+00  0.0000000000000D+00
321  3.2000000000000D+00  0.0000000000000D+00  0.0000000000000D+00
322  3.2100000000000D+00  0.0000000000000D+00  0.0000000000000D+00
323  3.2200000000000D+00  0.0000000000000D+00  0.0000000000000D+00
324  3.2300000000000D+00  0.0000000000000D+00  0.0000000000000D+00
325  3.2400000000000D+00  0.0000000000000D+00  0.0000000000000D+00
326  3.2500000000000D+00  0.0000000000000D+00  0.0000000000000D+00
327  3.2600000000000D+00  0.0000000000000D+00  0.0000000000000D+00
328  3.2700000000000D+00  0.0000000000000D+00  0.0000000000000D+00
329  3.2800000000000D+00  0.0000000000000D+00  0.0000000000000D+00
330  3.2900000000000D+00  0.0000000000000D+00  0.0000000000000D+00
331  3.3000000000000D+00  0.0000000000000D+00  0.0000000000000D+00
332  3.3100000000000D+00  0.0000000000000D+00  0.0000000000000D+00
333  3.3200000000000D+00  0.0000000000000D+00  0.0000000000000D+00
334  3.3300000000000D+00  0.0000000000000D+00  0.0000000000000D+00
335  3.3400000000000D+00  0.0000000000000D+00  0.0000000000000D+00
336  3.3500000000000D+00  0.0000000000000D+00  0.0000000000000D+00
337  3.3600000000000D+00  0.0000000000000D+00  0.0000000000000D+00
338  3.3700000000000D+00  0.0000000000000D+00  0.0000000000000D+00
339  3.3800000000000D+00  0.0000000000000D+00  0.0000000000000D+00
340  3.3900000000000D+00  0.0000000000000D+00  0.0000000000000D+00
341  3.4000000000000D+00  0.0000000000000D+00  0.0000000000000D+00
342  3.4100000000000D+00  0.0000000000000D+00  0.0000000000000D+00
343  3.4200000000000D+00  0.0000000000000D+00  0.0000000000000D+00
344  3.4300000000000D+00  0.0000000000000D+00  0.0000000000000D+00
345  3.4400000000000D+00  0.0000000000000D+00  0.0000000000000D+00
346  3.4500000000000D+00  0.0000000000000D+00  0.0000000000000D+00
347  3.4600000000000D+00  0.0000000000000D+00  0.0000000000000D+00
348  3.4700000000000D+00  0.0000000000000D+00  0.0000000000000D+00
349  3.4800000000000D+00  0.0000000000000D+00  0.0000000000000D+00
350  3.4900000000000D+00  0.0000000000000D+00  0.0000000000000D+00
351  3.5000000000000D+00  0.0000000000000D+00  0.0000000000000D+00
352  3.5100000000000D+00  0.0000000000000D+00  0.0000000000000D+00
353  3.5200000000000D+00  0.0000000000000D+00  0.0000000000000D+00
354  3.5300000000000D+00  0.0000000000000D+00  0.0000000000000D+00
355  3.5400000000000D+00  0.0000000000000D+00  0.0000000000000D+00
356  3.5500000000000D+00  0.0000000000000D+00  0.0000000000000D+00
357  3.5600000000000D+00  0.0000000000000D+00  0.0000000000000D+00
358  3.5700000000000D+00  0.0000000000000D+00  0.0000000000000D+00
359  3.5800000000000D+00  0.0000000000000D+00  0.0000000000000D+00
360  3.5900000000000D+00  0.0000000000000D+00  0.0000000000000D+00
361  3.6000000000000D+00  0.0000000000000D+00  0.0000000000000D+00
362  3.6100000000000D+00  0.0000000000000D+00  0.0000000000000D+00
363  3.6200000000000D+00  0.0000000000000D+00  0.0000000000000D+00
364  3.6300000000000D+00  0.0000000000000D+00  0.0000000000000D+00
365  3.6400000000000D+00  0.0000000000000D+00  0.0000000000000D+00
366  3.6500000000000D+00  0.0000000000000D+00  0.0000000000000D+00
367  3.6600000000000D+00  0.0000000000000D+00  0.0000000000000D+00
368  3.6700000000000D+00  0.0000000000000D+00  0.0000000000000D+00
369  3.6800000000000D+00  0.0000000000000D+00  0.0000000000000D+00
370  3.6900000000000D+00  0.0000000000000D+00  0.0000000000000D+00
371  3.7000000000000D+00  0.0000000000000D+00  0.0000000000000D+00
372  3.7100000000000D+00  0.0000000000000D+00  0.0000000000000D+00
373  3.7200000000000D+00  0.0000000000000D+00  0.0000000000000D+00
374  3.7300000000000D+00  0.0000000000000D+00  0.0000000000000D+00
375  3.7400000000000D+00  0.0000000000000D+00  0.0000000000000D+00
376  3.7500000000000D+00  0.0000000000000D+00  0.0000000000000D+00
377  3.7600000000000D+00  0.0000000000000D+00  0.0000000000000D+00
378  3.7700000000000D+00  0.0000000000000D+00  0.0000000000000D+00
379  3.7800000000000D+00  0.0000000000000D+00  0.0000000000000D+00
380  3.7900000000000D+00  0.0000000000000D+00  0.0000000000000D+00
381  3.8000000000000D+00  0.0000000000000D+00  0.0000000000000D+00
382  3.8100000000000D+00  0.0000000000000D+00  0.0000000000000D+00
383  3.8200000000000D+00  0.0000000000000D+00  0.0000000000000D+00
384  3.8300000000000D+00  0.0000000000000D+00  0.0000000000000D+00
385  3.8400000000000D+00  0.0000000000000D+00  0.0000000000000D+00
386  3.8500000000000D+00  0.0000000000000D+00  0.0000000000000D+00
387  3.8600000000000D+00  0.0000000000000D+00  0.0000000000000D+00
388  3.8700000000000D+00  0.0000000000000D+00  0.0000000000000D+00
389  3.8800000000000D+00  0.0000000000000D+00  0.0000000000000D+00
390  3.8900000000000D+00  0.0000000000000D+00  0.0000000000000D+00
391  3.9000000000000D+00  0.0000000000000D+00  0.0000000000000D+00
392  3.9100000000000D+00  0.0000000000000D+00  0.0000000000000D+00
393  3.9200000000000D+00  0.0000000000000D+00  0.0000000000000D+00
394  3.9300000000000D+00  0.0000000000000D+00  0.0000000000000D+00
395  3.9400000000000D+00  0.0000000000000D+00  0.0000000000000D+00
396  3.9500000000000D+00  0.0000000000000D+00  0.0000000000000D+00
397  3.9600000000000D+00  0.0000000000000D+00  0.0000000000000D+00
398  3.9700000000000D+00  0.0000000000000D+00  0.0000000000000D+00
399  3.9800000000000D+00  0.0000000000000D+00  0.0000000000000D+00
400  3.9900000000000D+00  0.0000000000000D+00  0.0000000000000D+00
401  4.0000000000000D+00  0.0000000000000D+00  0.0000000000000D+00
402  4.0100000000000D+00  0.0000000000000D+00  0.0000000000000D+00
403  4.0200000000000D+00  0.0000000000000D+00  0.0000000000000D+00
404  4.0300000000000D+00  0.0000000000000D+00  0.0000000000000D+00
405  4.0400000000000D+00  0.0000000000000D+00  0.0000000000000D+00
406  4.0500000000000D+00  0.0000000000000D+00  0.0000000000000D+00
407  4.0600000000000D+00  0.0000000000000D+00  0.0000000000000D+00
408  4.0700000000000D+00  0.0000000000000D+00  0.0000000000000D+00
409  4.0800000000000D+00  0.0000000000000D+00  0.0000000000000D+00
410  4.0900000000000D+00  0.0000000000000D+00  0.0000000000000D+00
411  4.1000000000000D+00  0.0000000000000D+00  0.0000000000000D+00
412  4.1100000000000D+00  0.0000000000000D+00  0.0000000000000D+00
413  4.1200000000000D+00  0.0000000000000D+00  0.0000000000000D+00
414  4.1300000000000D+00  0.0000000000000D+00  0.0000000000000D+00
415  4.1400000000000D+00  0.0000000000000D+00  0.0000000000000D+00
416  4.1500000000000D+00  0.0000000000000D+00  0.0000000000000D+00
417  4.1600000000000D+00  0.0000000000000D+00  0.0000000000000D+00
418  4.1700000000000D+00  0.0000000000000D+00  0.0000000000000D+00
419  4.1800000000000D+00  0.0000000000000D+00  0.0000000000000D+00
420  4.1900000000000D+00  0.0000000000000D+00  0.0000000000000D+00
421  4.2000000000000D+00  0.0000000000000D+00  0.0000000000000D+00
422  4.2100000000000D+00  0.0000000000000D+00  0.0000000000000D+00
423  4.2200000000000D+00  0.0000000000000D+00  0.0000000000000D+00
424  4.2300000000000D+00  0.0000000000000D+00  0.0000000000000D+00
425  4.2400000000000D+00  0.0000000000000D+00  0.0000000000000D+00
426  4.2500000000000D+00  0.0000000000000D+00  0.0000000000000D+00
427  4.2600000000000D+00  0.0000000000000D+00  0.0000000000000D+00
428  4.2700000000000D+00  0.0000000000000D+00  0.0000000000000D+00
429  4.2800000000000D+00  0.0000000000000D+00  0.0000000000000D+00
430  4.2900000000000D+00  0.0000000000000D+00  0.0000000000000D+00
431  4.3000000000000D+00  0.0000000000000D+00  0.0000000000000D+00
432  4.3100000000000D+00  0.0000000000000D+00  0.0000000000000D+00
433  4.3200000000000D+00  0.0000000000000D+00  0.0000000000000D+00
434  4.3300000000000D+00  0.0000000000000D+00  0.0000000000000D+00
435  4.3400000000000D+00  0.0000000000000D+00  0.0000000000000D+00
436  4.3500000000000D+00  0.0000000000000D+00  0.0000000000000D+00
437  4.3600000000000D+00  0.0000000000000D+00  0.0000000000000D+00
438  4.3700000000000D+00  0.0000000000000D+00  0.0000000000000D+00
439  4.3800000000000D+00  0.0000000000000D+00  0.0000000000000D+00
440  4.3900000000000D+00  0.0000000000000D+00  0.0000000000000D+00
441  4.4000000000000D+00  0.0000000000000D+00  0.0000000000000D+00
442  4.4100000000000D+00  0.0000000000000D+00  0.0000000000000D+00
443  4.4200000000000D+00  0.0000000000000D+00  0.0000000000000D+00