Ga    ONCVPSP-3.3.0  r_core=   1.85767   1.81388   2.62545
31.0000      3.0000      180112    zatom,zion,pspd
8 -116133   2     4   600     0    pspcod,pspxc,lmax,lloc,mmax,r2well
5.99000000  0.50000000  0.00000000    rchrg fchrg qchrg
2     2     2     0     0    nproj
1     1           extension_switch
0                         6.4371827604674D+00  6.7506564826214D-01
1  0.0000000000000D+00  1.5338286196709D-11 -3.1795274746393D-11
2  1.0000000000000D-02  2.5652842561933D-02 -1.1396765574915D-02
3  2.0000000000000D-02  5.1315459266198D-02 -2.2815858289722D-02
4  3.0000000000000D-02  7.6997481459274D-02 -3.4279334068075D-02
5  4.0000000000000D-02  1.0270825568646D-01 -4.5808708002018D-02
6  5.0000000000000D-02  1.2845670326372D-01 -5.7424687930290D-02
7  6.0000000000000D-02  1.5425118220560D-01 -6.9146912787030D-02
8  7.0000000000000D-02  1.8009935227650D-01 -8.0993697273562D-02
9  8.0000000000000D-02  2.0600804391720D-01 -9.2981784374077D-02
10  9.0000000000000D-02  2.3198313177954D-01 -1.0512610719644D-01
11  1.0000000000000D-01  2.5802941357939D-01 -1.1743956157220D-01
12  1.1000000000000D-01  2.8415049495158D-01 -1.2993279079547D-01
13  1.2000000000000D-01  3.1034868096135D-01 -1.4261398381880D-01
14  1.3000000000000D-01  3.3662487489325D-01 -1.5548868815599D-01
15  1.4000000000000D-01  3.6297848490297D-01 -1.6855963866659D-01
16  1.5000000000000D-01  3.8940733907812D-01 -1.8182660331636D-01
17  1.6000000000000D-01  4.1590760941239D-01 -1.9528624692081D-01
18  1.7000000000000D-01  4.4247374515297D-01 -2.0893201378691D-01
19  1.8000000000000D-01  4.6909841593438D-01 -2.2275403007079D-01
20  1.9000000000000D-01  4.9577246506282D-01 -2.3673902656780D-01
21  2.0000000000000D-01  5.2248487326399D-01 -2.5087028254508D-01
22  2.1000000000000D-01  5.4922273315519D-01 -2.6512759111810D-01
23  2.2000000000000D-01  5.7597123464755D-01 -2.7948724655933D-01
24  2.3000000000000D-01  6.0271366142958D-01 -2.9392205381321D-01
25  2.4000000000000D-01  6.2943139862639D-01 -3.0840136037365D-01
26  2.5000000000000D-01  6.5610395167231D-01 -3.2289111056288D-01
27  2.6000000000000D-01  6.8270897637651D-01 -3.3735392213024D-01
28  2.7000000000000D-01  7.0922232010459D-01 -3.5174918497055D-01
29  2.8000000000000D-01  7.3561807394052D-01 -3.6603318164214D-01
30  2.9000000000000D-01  7.6186863563720D-01 -3.8015922924636D-01
31  3.0000000000000D-01  7.8794478310688D-01 -3.9407784211321D-01
32  3.1000000000000D-01  8.1381575814774D-01 -4.0773691462298D-01
33  3.2000000000000D-01  8.3944936004840D-01 -4.2108192338150D-01
34  3.3000000000000D-01  8.6481204865987D-01 -4.3405614785740D-01
35  3.4000000000000D-01  8.8986905647345D-01 -4.4660090848491D-01
36  3.5000000000000D-01  9.1458450919435D-01 -4.5865582113418D-01
37  3.6000000000000D-01  9.3892155425453D-01 -4.7015906675543D-01
38  3.7000000000000D-01  9.6284249666410D-01 -4.8104767491253D-01
39  3.8000000000000D-01  9.8630894156001D-01 -4.9125781983697D-01
40  3.9000000000000D-01  1.0092819427723D+00 -5.0072512755421D-01
41  4.0000000000000D-01  1.0317221566940D+00 -5.0938499256389D-01
42  4.1000000000000D-01  1.0535900007078D+00 -5.1717290248991D-01
43  4.2000000000000D-01  1.0748458153987D+00 -5.2402476906093D-01
44  4.3000000000000D-01  1.0954500297524D+00 -5.2987726373225D-01
45  4.4000000000000D-01  1.1153633285244D+00 -5.3466815622036D-01
46  4.5000000000000D-01  1.1345468209456D+00 -5.3833665418983D-01
47  4.6000000000000D-01  1.1529622099209D+00 -5.4082374230880D-01
48  4.7000000000000D-01  1.1705719608668D+00 -5.4207251887654D-01
49  4.8000000000000D-01  1.1873394693347D+00 -5.4202852822151D-01
50  4.9000000000000D-01  1.2032292265647D+00 -5.4064008707326D-01
51  5.0000000000000D-01  1.2182069821229D+00 -5.3785860312585D-01
52  5.1000000000000D-01  1.2322399027838D+00 -5.3363888403483D-01
53  5.2000000000000D-01  1.2452967268347D+00 -5.2793943512160D-01
54  5.3000000000000D-01  1.2573479129983D+00 -5.2072274410293D-01
55  5.4000000000000D-01  1.2683657831930D+00 -5.1195555121410D-01
56  5.5000000000000D-01  1.2783246583763D+00 -5.0160910315498D-01
57  5.6000000000000D-01  1.2872009867530D+00 -4.8965938935844D-01
58  5.7000000000000D-01  1.2949734636580D+00 -4.7608735915737D-01
59  5.8000000000000D-01  1.3016231424720D+00 -4.6087911851360D-01
60  5.9000000000000D-01  1.3071335359636D+00 -4.4402610506600D-01
61  6.0000000000000D-01  1.3114907075027D+00 -4.2552524035553D-01
62  6.1000000000000D-01  1.3146833516384D+00 -4.0537905819409D-01
63  6.2000000000000D-01  1.3167028635876D+00 -3.8359580825871D-01
64  6.3000000000000D-01  1.3175433972347D+00 -3.6018953411223D-01
65  6.4000000000000D-01  1.3172019113030D+00 -3.3518012497854D-01
66  6.5000000000000D-01  1.3156782034170D+00 -3.0859334073017D-01
67  6.6000000000000D-01  1.3129749318361D+00 -2.8046080968044D-01
68  6.7000000000000D-01  1.3090976247065D+00 -2.5081999891077D-01
69  6.8000000000000D-01  1.3040546767373D+00 -2.1971415700294D-01
70  6.9000000000000D-01  1.2978573332791D+00 -1.8719222918924D-01
71  7.0000000000000D-01  1.2905196618431D+00 -1.5330874507636D-01
72  7.1000000000000D-01  1.2820585111682D+00 -1.1812367924175D-01
73  7.2000000000000D-01  1.2724934580078D+00 -8.1702285145902D-02
74  7.3000000000000D-01  1.2618467418749D+00 -4.4114902943592D-02
75  7.4000000000000D-01  1.2501431880445D+00 -5.4367419194957D-03
76  7.5000000000000D-01  1.2374101191804D+00  3.4252361591401D-02
77  7.6000000000000D-01  1.2236772560090D+00  7.4868209803894D-02
78  7.7000000000000D-01  1.2089766075262D+00  1.1632253147897D-01
79  7.8000000000000D-01  1.1933423512771D+00  1.5852329106929D-01
80  7.9000000000000D-01  1.1768107043042D+00  2.0137501764736D-01
81  8.0000000000000D-01  1.1594197854083D+00  2.4477915213899D-01
82  8.1000000000000D-01  1.1412094694162D+00  2.8863441127981D-01
83  8.2000000000000D-01  1.1222212341918D+00  3.3283716661585D-01
84  8.3000000000000D-01  1.1024980011665D+00  3.7728183678123D-01
85  8.4000000000000D-01  1.0820839702018D+00  4.2186129120644D-01
86  8.5000000000000D-01  1.0610244496276D+00  4.6646726334073D-01
87  8.6000000000000D-01  1.0393656823271D+00  5.1099077141241D-01
88  8.7000000000000D-01  1.0171546687589D+00  5.5532254470102D-01
89  8.8000000000000D-01  9.9443898782822D-01  5.9935345325660D-01
90  8.9000000000000D-01  9.7126661652580D-01  6.4297493897245D-01
91  9.0000000000000D-01  9.4768574926497D-01  6.8607944590190D-01
92  9.1000000000000D-01  9.2374461784496D-01  7.2856084770325D-01
93  9.2000000000000D-01  8.9949131296764D-01  7.7031487010278D-01
94  9.3000000000000D-01  8.7497360822478D-01  8.1123950628316D-01
95  9.4000000000000D-01  8.5023878745914D-01  8.5123542313326D-01
96  9.5000000000000D-01  8.2533347638371D-01  8.9020635633486D-01
97  9.6000000000000D-01  8.0030347931948D-01  9.2805949231191D-01
98  9.7000000000000D-01  7.7519362188243D-01  9.6470583513138D-01
99  9.8000000000000D-01  7.5004760041692D-01  1.0000605565154D+00
100  9.9000000000000D-01  7.2490783893460D-01  1.0340433272072D+00
101  1.0000000000000D+00  6.9981535427475D-01  1.0665786280251D+00
102  1.0100000000000D+00  6.7480963015522D-01  1.0975960390401D+00
103  1.0200000000000D+00  6.4992850073241D-01  1.1270305054240D+00
104  1.0300000000000D+00  6.2520804423484D-01  1.1548225786286D+00
105  1.0400000000000D+00  6.0068248717777D-01  1.1809186316845D+00
106  1.0500000000000D+00  5.7638411960470D-01  1.2052710475408D+00
107  1.0600000000000D+00  5.5234322174018D-01  1.2278383795012D+00
108  1.0700000000000D+00  5.2858800237286D-01  1.2485854829565D+00
109  1.0800000000000D+00  5.0514454921920D-01  1.2674836177646D+00
110  1.0900000000000D+00  4.8203679145717D-01  1.2845105207620D+00
111  1.1000000000000D+00  4.5928647454015D-01  1.2996504480689D+00
112  1.1100000000000D+00  4.3691314734045D-01  1.3128941869820D+00
113  1.1200000000000D+00  4.1493416159482D-01  1.3242390374225D+00
114  1.1300000000000D+00  3.9336468356599D-01  1.3336887630366D+00
115  1.1400000000000D+00  3.7221771775558D-01  1.3412535122223D+00
116  1.1500000000000D+00  3.5150414244154D-01  1.3469497094955D+00
117  1.1600000000000D+00  3.3123275674292D-01  1.3507999177693D+00
118  1.1700000000000D+00  3.1141033886508D-01  1.3528326722319D+00
119  1.1800000000000D+00  2.9204171510123D-01  1.3530822866850D+00
120  1.1900000000000D+00  2.7312983911596D-01  1.3515886333199D+00
121  1.2000000000000D+00  2.5467588097801D-01  1.3483968970461D+00
122  1.2100000000000D+00  2.3667932537264D-01  1.3435573055699D+00
123  1.2200000000000D+00  2.1913807835241D-01  1.3371248365908D+00
124  1.2300000000000D+00  2.0204858195602D-01  1.3291589035542D+00
125  1.2400000000000D+00  1.8540593599538D-01  1.3197230214699D+00
126  1.2500000000000D+00  1.6920402625614D-01  1.3088844544386D+00
127  1.2600000000000D+00  1.5343565833857D-01  1.2967138465801D+00
128  1.2700000000000D+00  1.3809269634880D-01  1.2832848380997D+00
129  1.2800000000000D+00  1.2316620561694D-01  1.2686736683163D+00
130  1.2900000000000D+00  1.0864659861343D-01  1.2529587675020D+00
131  1.3000000000000D+00  9.4523783230130D-02  1.2362203393975D+00
132  1.3100000000000D+00  8.0787312577473D-02  1.2185399363168D+00
133  1.3200000000000D+00  6.7426535470477D-02  1.2000000287275D+00
134  1.3300000000000D+00  5.4430746764940D-02  1.1806835712126D+00
135  1.3400000000000D+00  4.1789336726193D-02  1.1606735667034D+00
136  1.3500000000000D+00  2.9491938656112D-02  1.1400526307914D+00
137  1.3600000000000D+00  1.7528573963784D-02  1.1189025580038D+00
138  1.3700000000000D+00  5.8897939740167D-03  1.0973038917399D+00
139  1.3800000000000D+00 -5.4331822463569D-03  1.0753354995815D+00
140  1.3900000000000D+00 -1.6448334752599D-02  1.0530741556789D+00
141  1.4000000000000D+00 -2.7162714834768D-02  1.0305941316257D+00
142  1.4100000000000D+00 -3.7582323049140D-02  1.0079667974502D+00
143  1.4200000000000D+00 -4.7711993648517D-02  9.8526023398757D-01
144  1.4300000000000D+00 -5.7555285885220D-02  9.6253885787660D-01
145  1.4400000000000D+00 -6.7114382703577D-02  9.3986306051859D-01
146  1.4500000000000D+00 -7.6389997041991D-02  9.1728886173837D-01
147  1.4600000000000D+00 -8.5381286230043D-02  8.9486757942213D-01
148  1.4700000000000D+00 -9.4085774587644D-02  8.7264551564504D-01
149  1.4800000000000D+00 -1.0249928448116D-01  8.5066366009558D-01
150  1.4900000000000D+00 -1.1061587600064D-01  8.2895741142679D-01
151  1.5000000000000D+00 -1.1842779517636D-01  8.0755631664991D-01
152  1.5100000000000D+00 -1.2592543097365D-01  7.8648382935678D-01
153  1.5200000000000D+00 -1.3309728071833D-01  7.6575708633331D-01
154  1.5300000000000D+00 -1.3992992412309D-01  7.4538670320947D-01
155  1.5400000000000D+00 -1.4640800549199D-01  7.2537658854816D-01
156  1.5500000000000D+00 -1.5251422404311D-01  7.0572377653497D-01
157  1.5600000000000D+00 -1.5822933150387D-01  6.8641827414956D-01
158  1.5700000000000D+00 -1.6353213973065D-01  6.6744294614168D-01
159  1.5800000000000D+00 -1.6839952578198D-01  6.4877334594667D-01
160  1.5900000000000D+00 -1.7280647227596D-01  6.3037776738062D-01
161  1.6000000000000D+00 -1.7672607239267D-01  6.1221703376551D-01
162  1.6100000000000D+00 -1.8012951585329D-01  5.9424405535126D-01
163  1.6200000000000D+00 -1.8298627067301D-01  5.7640491246998D-01
164  1.6300000000000D+00 -1.8526424804801D-01  5.5863979368651D-01
165  1.6400000000000D+00 -1.8693003745604D-01  5.4088410657437D-01
166  1.6500000000000D+00 -1.8794917879767D-01  5.2306987619651D-01
167  1.6600000000000D+00 -1.8828625686971D-01  5.0512566861592D-01
168  1.6700000000000D+00 -1.8790503380140D-01  4.8697674174361D-01
169  1.6800000000000D+00 -1.8676861448726D-01  4.6854552147307D-01
170  1.6900000000000D+00 -1.8483958748126D-01  4.4975184072867D-01
171  1.7000000000000D+00 -1.8208017628292D-01  4.3051327131821D-01
172  1.7100000000000D+00 -1.7845238654650D-01  4.1074542751938D-01
173  1.7200000000000D+00 -1.7391815183874D-01  3.9036227066431D-01
174  1.7300000000000D+00 -1.6843947671638D-01  3.6927640874017D-01
175  1.7400000000000D+00 -1.6197857578374D-01  3.4739938781948D-01
176  1.7500000000000D+00 -1.5449800839509D-01  3.2464197487760D-01
177  1.7600000000000D+00 -1.4596080740121D-01  3.0091442824679D-01
178  1.7700000000000D+00 -1.3633060204691D-01  2.7612675627086D-01
179  1.7800000000000D+00 -1.2557173314117D-01  2.5018895984842D-01
180  1.7900000000000D+00 -1.1364936100738D-01  2.2301126027627D-01
181  1.8000000000000D+00 -1.0043646335238D-01  1.9433741669848D-01
182  1.8100000000000D+00 -8.6113486039893D-02  1.6446116381418D-01
183  1.8200000000000D+00 -7.1185554687557D-02  1.3426121785263D-01
184  1.8300000000000D+00 -5.4383419039836D-02  1.0142243378289D-01
185  1.8400000000000D+00 -3.3656303525055D-02  6.2212656960017D-02
186  1.8500000000000D+00 -1.2030239711283D-02  2.2056405682995D-02
187  1.8600000000000D+00  1.8633124475584D-03 -3.5170420550481D-03
188  1.8700000000000D+00  3.5822987512984D-03 -6.6296680389239D-03
189  1.8800000000000D+00 -6.2889994051189D-06  1.1691718830057D-05
190  1.8900000000000D+00 -9.4857680252954D-04  1.7607610385759D-03
191  1.9000000000000D+00 -2.9133591974142D-04  5.4028344414395D-04
192  1.9100000000000D+00  1.1336858008471D-04 -2.1249667000754D-04
193  1.9200000000000D+00  8.0283981672433D-05 -1.5040956450113D-04
194  1.9300000000000D+00 -1.7668672652333D-07  4.9640177143618D-07
195  1.9400000000000D+00 -2.3921906051758D-07  6.7208651005568D-07
196  1.9500000000000D+00  0.0000000000000D+00  0.0000000000000D+00
197  1.9600000000000D+00  0.0000000000000D+00  0.0000000000000D+00
198  1.9700000000000D+00  0.0000000000000D+00  0.0000000000000D+00
199  1.9800000000000D+00  0.0000000000000D+00  0.0000000000000D+00
200  1.9900000000000D+00  0.0000000000000D+00  0.0000000000000D+00
201  2.0000000000000D+00  0.0000000000000D+00  0.0000000000000D+00
202  2.0100000000000D+00  0.0000000000000D+00  0.0000000000000D+00
203  2.0200000000000D+00  0.0000000000000D+00  0.0000000000000D+00
204  2.0300000000000D+00  0.0000000000000D+00  0.0000000000000D+00
205  2.0400000000000D+00  0.0000000000000D+00  0.0000000000000D+00
206  2.0500000000000D+00  0.0000000000000D+00  0.0000000000000D+00
207  2.0600000000000D+00  0.0000000000000D+00  0.0000000000000D+00
208  2.0700000000000D+00  0.0000000000000D+00  0.0000000000000D+00
209  2.0800000000000D+00  0.0000000000000D+00  0.0000000000000D+00
210  2.0900000000000D+00  0.0000000000000D+00  0.0000000000000D+00
211  2.1000000000000D+00  0.0000000000000D+00  0.0000000000000D+00
212  2.1100000000000D+00  0.0000000000000D+00  0.0000000000000D+00
213  2.1200000000000D+00  0.0000000000000D+00  0.0000000000000D+00
214  2.1300000000000D+00  0.0000000000000D+00  0.0000000000000D+00
215  2.1400000000000D+00  0.0000000000000D+00  0.0000000000000D+00
216  2.1500000000000D+00  0.0000000000000D+00  0.0000000000000D+00
217  2.1600000000000D+00  0.0000000000000D+00  0.0000000000000D+00
218  2.1700000000000D+00  0.0000000000000D+00  0.0000000000000D+00
219  2.1800000000000D+00  0.0000000000000D+00  0.0000000000000D+00
220  2.1900000000000D+00  0.0000000000000D+00  0.0000000000000D+00
221  2.2000000000000D+00  0.0000000000000D+00  0.0000000000000D+00
222  2.2100000000000D+00  0.0000000000000D+00  0.0000000000000D+00
223  2.2200000000000D+00  0.0000000000000D+00  0.0000000000000D+00
224  2.2300000000000D+00  0.0000000000000D+00  0.0000000000000D+00
225  2.2400000000000D+00  0.0000000000000D+00  0.0000000000000D+00
226  2.2500000000000D+00  0.0000000000000D+00  0.0000000000000D+00
227  2.2600000000000D+00  0.0000000000000D+00  0.0000000000000D+00
228  2.2700000000000D+00  0.0000000000000D+00  0.0000000000000D+00
229  2.2800000000000D+00  0.0000000000000D+00  0.0000000000000D+00
230  2.2900000000000D+00  0.0000000000000D+00  0.0000000000000D+00
231  2.3000000000000D+00  0.0000000000000D+00  0.0000000000000D+00
232  2.3100000000000D+00  0.0000000000000D+00  0.0000000000000D+00
233  2.3200000000000D+00  0.0000000000000D+00  0.0000000000000D+00
234  2.3300000000000D+00  0.0000000000000D+00  0.0000000000000D+00
235  2.3400000000000D+00  0.0000000000000D+00  0.0000000000000D+00
236  2.3500000000000D+00  0.0000000000000D+00  0.0000000000000D+00
237  2.3600000000000D+00  0.0000000000000D+00  0.0000000000000D+00
238  2.3700000000000D+00  0.0000000000000D+00  0.0000000000000D+00
239  2.3800000000000D+00  0.0000000000000D+00  0.0000000000000D+00
240  2.3900000000000D+00  0.0000000000000D+00  0.0000000000000D+00
241  2.4000000000000D+00  0.0000000000000D+00  0.0000000000000D+00
242  2.4100000000000D+00  0.0000000000000D+00  0.0000000000000D+00
243  2.4200000000000D+00  0.0000000000000D+00  0.0000000000000D+00
244  2.4300000000000D+00  0.0000000000000D+00  0.0000000000000D+00
245  2.4400000000000D+00  0.0000000000000D+00  0.0000000000000D+00
246  2.4500000000000D+00  0.0000000000000D+00  0.0000000000000D+00
247  2.4600000000000D+00  0.0000000000000D+00  0.0000000000000D+00
248  2.4700000000000D+00  0.0000000000000D+00  0.0000000000000D+00
249  2.4800000000000D+00  0.0000000000000D+00  0.0000000000000D+00
250  2.4900000000000D+00  0.0000000000000D+00  0.0000000000000D+00
251  2.5000000000000D+00  0.0000000000000D+00  0.0000000000000D+00
252  2.5100000000000D+00  0.0000000000000D+00  0.0000000000000D+00
253  2.5200000000000D+00  0.0000000000000D+00  0.0000000000000D+00
254  2.5300000000000D+00  0.0000000000000D+00  0.0000000000000D+00
255  2.5400000000000D+00  0.0000000000000D+00  0.0000000000000D+00
256  2.5500000000000D+00  0.0000000000000D+00  0.0000000000000D+00
257  2.5600000000000D+00  0.0000000000000D+00  0.0000000000000D+00
258  2.5700000000000D+00  0.0000000000000D+00  0.0000000000000D+00
259  2.5800000000000D+00  0.0000000000000D+00  0.0000000000000D+00
260  2.5900000000000D+00  0.0000000000000D+00  0.0000000000000D+00
261  2.6000000000000D+00  0.0000000000000D+00  0.0000000000000D+00
262  2.6100000000000D+00  0.0000000000000D+00  0.0000000000000D+00
263  2.6200000000000D+00  0.0000000000000D+00  0.0000000000000D+00
264  2.6300000000000D+00  0.0000000000000D+00  0.0000000000000D+00
265  2.6400000000000D+00  0.0000000000000D+00  0.0000000000000D+00
266  2.6500000000000D+00  0.0000000000000D+00  0.0000000000000D+00
267  2.6600000000000D+00  0.0000000000000D+00  0.0000000000000D+00
268  2.6700000000000D+00  0.0000000000000D+00  0.0000000000000D+00
269  2.6800000000000D+00  0.0000000000000D+00  0.0000000000000D+00
270  2.6900000000000D+00  0.0000000000000D+00  0.0000000000000D+00
271  2.7000000000000D+00  0.0000000000000D+00  0.0000000000000D+00
272  2.7100000000000D+00  0.0000000000000D+00  0.0000000000000D+00
273  2.7200000000000D+00  0.0000000000000D+00  0.0000000000000D+00
274  2.7300000000000D+00  0.0000000000000D+00  0.0000000000000D+00
275  2.7400000000000D+00  0.0000000000000D+00  0.0000000000000D+00
276  2.7500000000000D+00  0.0000000000000D+00  0.0000000000000D+00
277  2.7600000000000D+00  0.0000000000000D+00  0.0000000000000D+00
278  2.7700000000000D+00  0.0000000000000D+00  0.0000000000000D+00
279  2.7800000000000D+00  0.0000000000000D+00  0.0000000000000D+00
280  2.7900000000000D+00  0.0000000000000D+00  0.0000000000000D+00
281  2.8000000000000D+00  0.0000000000000D+00  0.0000000000000D+00
282  2.8100000000000D+00  0.0000000000000D+00  0.0000000000000D+00
283  2.8200000000000D+00  0.0000000000000D+00  0.0000000000000D+00
284  2.8300000000000D+00  0.0000000000000D+00  0.0000000000000D+00
285  2.8400000000000D+00  0.0000000000000D+00  0.0000000000000D+00
286  2.8500000000000D+00  0.0000000000000D+00  0.0000000000000D+00
287  2.8600000000000D+00  0.0000000000000D+00  0.0000000000000D+00
288  2.8700000000000D+00  0.0000000000000D+00  0.0000000000000D+00
289  2.8800000000000D+00  0.0000000000000D+00  0.0000000000000D+00
290  2.8900000000000D+00  0.0000000000000D+00  0.0000000000000D+00
291  2.9000000000000D+00  0.0000000000000D+00  0.0000000000000D+00
292  2.9100000000000D+00  0.0000000000000D+00  0.0000000000000D+00
293  2.9200000000000D+00  0.0000000000000D+00  0.0000000000000D+00
294  2.9300000000000D+00  0.0000000000000D+00  0.0000000000000D+00
295  2.9400000000000D+00  0.0000000000000D+00  0.0000000000000D+00
296  2.9500000000000D+00  0.0000000000000D+00  0.0000000000000D+00
297  2.9600000000000D+00  0.0000000000000D+00  0.0000000000000D+00
298  2.9700000000000D+00  0.0000000000000D+00  0.0000000000000D+00
299  2.9800000000000D+00  0.0000000000000D+00  0.0000000000000D+00
300  2.9900000000000D+00  0.0000000000000D+00  0.0000000000000D+00
301  3.0000000000000D+00  0.0000000000000D+00  0.0000000000000D+00
302  3.0100000000000D+00  0.0000000000000D+00  0.0000000000000D+00
303  3.0200000000000D+00  0.0000000000000D+00  0.0000000000000D+00
304  3.0300000000000D+00  0.0000000000000D+00  0.0000000000000D+00
305  3.0400000000000D+00  0.0000000000000D+00  0.0000000000000D+00
306  3.0500000000000D+00  0.0000000000000D+00  0.0000000000000D+00
307  3.0600000000000D+00  0.0000000000000D+00  0.0000000000000D+00
308  3.0700000000000D+00  0.0000000000000D+00  0.0000000000000D+00
309  3.0800000000000D+00  0.0000000000000D+00  0.0000000000000D+00
310  3.0900000000000D+00  0.0000000000000D+00  0.0000000000000D+00
311  3.1000000000000D+00  0.0000000000000D+00  0.0000000000000D+00
312  3.1100000000000D+00  0.0000000000000D+00  0.0000000000000D+00
313  3.1200000000000D+00  0.0000000000000D+00  0.0000000000000D+00
314  3.1300000000000D+00  0.0000000000000D+00  0.0000000000000D+00
315  3.1400000000000D+00  0.0000000000000D+00  0.0000000000000D+00
316  3.1500000000000D+00  0.0000000000000D+00  0.0000000000000D+00
317  3.1600000000000D+00  0.0000000000000D+00  0.0000000000000D+00
318  3.1700000000000D+00  0.0000000000000D+00  0.0000000000000D+00
319  3.1800000000000D+00  0.0000000000000D+00  0.0000000000000D+00
320  3.1900000000000D+00  0.0000000000000D+00  0.0000000000000D+00
321  3.2000000000000D+00  0.0000000000000D+00  0.0000000000000D+00
322  3.2100000000000D+00  0.0000000000000D+00  0.0000000000000D+00
323  3.2200000000000D+00  0.0000000000000D+00  0.0000000000000D+00
324  3.2300000000000D+00  0.0000000000000D+00  0.0000000000000D+00
325  3.2400000000000D+00  0.0000000000000D+00  0.0000000000000D+00
326  3.2500000000000D+00  0.0000000000000D+00  0.0000000000000D+00
327  3.2600000000000D+00  0.0000000000000D+00  0.0000000000000D+00
328  3.2700000000000D+00  0.0000000000000D+00  0.0000000000000D+00
329  3.2800000000000D+00  0.0000000000000D+00  0.0000000000000D+00
330  3.2900000000000D+00  0.0000000000000D+00  0.0000000000000D+00
331  3.3000000000000D+00  0.0000000000000D+00  0.0000000000000D+00
332  3.3100000000000D+00  0.0000000000000D+00  0.0000000000000D+00
333  3.3200000000000D+00  0.0000000000000D+00  0.0000000000000D+00
334  3.3300000000000D+00  0.0000000000000D+00  0.0000000000000D+00
335  3.3400000000000D+00  0.0000000000000D+00  0.0000000000000D+00
336  3.3500000000000D+00  0.0000000000000D+00  0.0000000000000D+00
337  3.3600000000000D+00  0.0000000000000D+00  0.0000000000000D+00
338  3.3700000000000D+00  0.0000000000000D+00  0.0000000000000D+00
339  3.3800000000000D+00  0.0000000000000D+00  0.0000000000000D+00
340  3.3900000000000D+00  0.0000000000000D+00  0.0000000000000D+00
341  3.4000000000000D+00  0.0000000000000D+00  0.0000000000000D+00
342  3.4100000000000D+00  0.0000000000000D+00  0.0000000000000D+00
343  3.4200000000000D+00  0.0000000000000D+00  0.0000000000000D+00
344  3.4300000000000D+00  0.0000000000000D+00  0.0000000000000D+00
345  3.4400000000000D+00  0.0000000000000D+00  0.0000000000000D+00
346  3.4500000000000D+00  0.0000000000000D+00  0.0000000000000D+00
347  3.4600000000000D+00  0.0000000000000D+00  0.0000000000000D+00
348  3.4700000000000D+00  0.0000000000000D+00  0.0000000000000D+00
349  3.4800000000000D+00  0.0000000000000D+00  0.0000000000000D+00
350  3.4900000000000D+00  0.0000000000000D+00  0.0000000000000D+00
351  3.5000000000000D+00  0.0000000000000D+00  0.0000000000000D+00
352  3.5100000000000D+00  0.0000000000000D+00  0.0000000000000D+00
353  3.5200000000000D+00  0.0000000000000D+00  0.0000000000000D+00
354  3.5300000000000D+00  0.0000000000000D+00  0.0000000000000D+00
355  3.5400000000000D+00  0.0000000000000D+00  0.0000000000000D+00
356  3.5500000000000D+00  0.0000000000000D+00  0.0000000000000D+00
357  3.5600000000000D+00  0.0000000000000D+00  0.0000000000000D+00
358  3.5700000000000D+00  0.0000000000000D+00  0.0000000000000D+00
359  3.5800000000000D+00  0.0000000000000D+00  0.0000000000000D+00
360  3.5900000000000D+00  0.0000000000000D+00  0.0000000000000D+00
361  3.6000000000000D+00  0.0000000000000D+00  0.0000000000000D+00
362  3.6100000000000D+00  0.0000000000000D+00  0.0000000000000D+00
363  3.6200000000000D+00  0.0000000000000D+00  0.0000000000000D+00
364  3.6300000000000D+00  0.0000000000000D+00  0.0000000000000D+00
365  3.6400000000000D+00  0.0000000000000D+00  0.0000000000000D+00
366  3.6500000000000D+00  0.0000000000000D+00  0.0000000000000D+00
367  3.6600000000000D+00  0.0000000000000D+00  0.0000000000000D+00
368  3.6700000000000D+00  0.0000000000000D+00  0.0000000000000D+00
369  3.6800000000000D+00  0.0000000000000D+00  0.0000000000000D+00
370  3.6900000000000D+00  0.0000000000000D+00  0.0000000000000D+00
371  3.7000000000000D+00  0.0000000000000D+00  0.0000000000000D+00
372  3.7100000000000D+00  0.0000000000000D+00  0.0000000000000D+00
373  3.7200000000000D+00  0.0000000000000D+00  0.0000000000000D+00
374  3.7300000000000D+00  0.0000000000000D+00  0.0000000000000D+00
375  3.7400000000000D+00  0.0000000000000D+00  0.0000000000000D+00
376  3.7500000000000D+00  0.0000000000000D+00  0.0000000000000D+00
377  3.7600000000000D+00  0.0000000000000D+00  0.0000000000000D+00
378  3.7700000000000D+00  0.0000000000000D+00  0.0000000000000D+00
379  3.7800000000000D+00  0.0000000000000D+00  0.0000000000000D+00
380  3.7900000000000D+00  0.0000000000000D+00  0.0000000000000D+00
381  3.8000000000000D+00  0.0000000000000D+00  0.0000000000000D+00
382  3.8100000000000D+00  0.0000000000000D+00  0.0000000000000D+00
383  3.8200000000000D+00  0.0000000000000D+00  0.0000000000000D+00
384  3.8300000000000D+00  0.0000000000000D+00  0.0000000000000D+00
385  3.8400000000000D+00  0.0000000000000D+00  0.0000000000000D+00
386  3.8500000000000D+00  0.0000000000000D+00  0.0000000000000D+00
387  3.8600000000000D+00  0.0000000000000D+00  0.0000000000000D+00
388  3.8700000000000D+00  0.0000000000000D+00  0.0000000000000D+00
389  3.8800000000000D+00  0.0000000000000D+00  0.0000000000000D+00
390  3.8900000000000D+00  0.0000000000000D+00  0.0000000000000D+00
391  3.9000000000000D+00  0.0000000000000D+00  0.0000000000000D+00
392  3.9100000000000D+00  0.0000000000000D+00  0.0000000000000D+00
393  3.9200000000000D+00  0.0000000000000D+00  0.0000000000000D+00
394  3.9300000000000D+00  0.0000000000000D+00  0.0000000000000D+00
395  3.9400000000000D+00  0.0000000000000D+00  0.0000000000000D+00
396  3.9500000000000D+00  0.0000000000000D+00  0.0000000000000D+00
397  3.9600000000000D+00  0.0000000000000D+00  0.0000000000000D+00
398  3.9700000000000D+00  0.0000000000000D+00  0.0000000000000D+00
399  3.9800000000000D+00  0.0000000000000D+00  0.0000000000000D+00
400  3.9900000000000D+00  0.0000000000000D+00  0.0000000000000D+00
401  4.0000000000000D+00  0.0000000000000D+00  0.0000000000000D+00
402  4.0100000000000D+00  0.0000000000000D+00  0.0000000000000D+00
403  4.0200000000000D+00  0.0000000000000D+00  0.0000000000000D+00
404  4.0300000000000D+00  0.0000000000000D+00  0.0000000000000D+00
405  4.0400000000000D+00  0.0000000000000D+00  0.0000000000000D+00
406  4.0500000000000D+00  0.0000000000000D+00  0.0000000000000D+00
407  4.0600000000000D+00  0.0000000000000D+00  0.0000000000000D+00
408  4.0700000000000D+00  0.0000000000000D+00  0.0000000000000D+00
409  4.0800000000000D+00  0.0000000000000D+00  0.0000000000000D+00
410  4.0900000000000D+00  0.0000000000000D+00  0.0000000000000D+00
411  4.1000000000000D+00  0.0000000000000D+00  0.0000000000000D+00
412  4.1100000000000D+00  0.0000000000000D+00  0.0000000000000D+00
413  4.1200000000000D+00  0.0000000000000D+00  0.0000000000000D+00
414  4.1300000000000D+00  0.0000000000000D+00  0.0000000000000D+00
415  4.1400000000000D+00  0.0000000000000D+00  0.0000000000000D+00
416  4.1500000000000D+00  0.0000000000000D+00  0.0000000000000D+00
417  4.1600000000000D+00  0.0000000000000D+00  0.0000000000000D+00
418  4.1700000000000D+00  0.0000000000000D+00  0.0000000000000D+00
419  4.1800000000000D+00  0.0000000000000D+00  0.0000000000000D+00
420  4.1900000000000D+00  0.0000000000000D+00  0.0000000000000D+00
421  4.2000000000000D+00  0.0000000000000D+00  0.0000000000000D+00
422  4.2100000000000D+00  0.0000000000000D+00  0.0000000000000D+00
423  4.2200000000000D+00  0.0000000000000D+00  0.0000000000000D+00
424  4.2300000000000D+00  0.0000000000000D+00  0.0000000000000D+00
425  4.2400000000000D+00  0.0000000000000D+00  0.0000000000000D+00
426  4.2500000000000D+00  0.0000000000000D+00  0.0000000000000D+00
427  4.2600000000000D+00  0.0000000000000D+00  0.0000000000000D+00
428  4.2700000000000D+00  0.0000000000000D+00  0.0000000000000D+00
429  4.2800000000000D+00  0.0000000000000D+00  0.0000000000000D+00
430  4.2900000000000D+00  0.0000000000000D+00  0.0000000000000D+00
431  4.3000000000000D+00  0.0000000000000D+00  0.0000000000000D+00
432  4.3100000000000D+00  0.0000000000000D+00  0.0000000000000D+00
433  4.3200000000000D+00  0.0000000000000D+00  0.0000000000000D+00
434  4.3300000000000D+00  0.0000000000000D+00  0.0000000000000D+00
435  4.3400000000000D+00  0.0000000000000D+00  0.0000000000000D+00
436  4.3500000000000D+00  0.0000000000000D+00  0.0000000000000D+00
437  4.3600000000000D+00  0.0000000000000D+00  0.0000000000000D+00
438  4.3700000000000D+00  0.0000000000000D+00  0.0000000000000D+00
439  4.3800000000000D+00  0.0000000000000D+00  0.0000000000000D+00
440  4.3900000000000D+00  0.0000000000000D+00  0.0000000000000D+00
441  4.4000000000000D+00  0.0000000000000D+00  0.0000000000000D+00
442  4.4100000000000D+00  0.0000000000000D+00  0.0000000000000D+00
443  4.4200000000000D+00  0.0000000000000D+00  0.0000000000000D+00