Pd    ONCVPSP-3.2.3.1  r_core=   1.41052   1.46191   1.55175
46.0000     18.0000      170510    zatom,zion,pspd
8      11   2     4   600     0    pspcod,pspxc,lmax,lloc,mmax,r2well
5.99000000  7.00000000  0.00000000    rchrg fchrg qchrg
2     2     2     0     0    nproj
1     1           extension_switch
0                         7.8458495723393D+00 -2.2821597774899D+00
1  0.0000000000000D+00 -1.2148643202536D-10 -9.0625795756694D-10
2  1.0000000000000D-02  6.3662790388387D-02 -5.8022747624129D-02
3  2.0000000000000D-02  1.2719896151997D-01 -1.1590283647383D-01
4  3.0000000000000D-02  1.9048236545379D-01 -1.7349681112799D-01
5  4.0000000000000D-02  2.5338779354173D-01 -2.3065964150384D-01
6  5.0000000000000D-02  3.1579143775871D-01 -2.8724398187282D-01
7  6.0000000000000D-02  3.7757134214035D-01 -3.4309948484375D-01
8  7.0000000000000D-02  4.3860784117429D-01 -3.9807218756198D-01
9  8.0000000000000D-02  4.9878398211283D-01 -4.5200398646647D-01
10  9.0000000000000D-02  5.5798592832457D-01 -5.0473221583223D-01
11  1.0000000000000D-01  6.1610334097893D-01 -5.5608934401234D-01
12  1.1000000000000D-01  6.7302973655952D-01 -6.0590279979831D-01
13  1.2000000000000D-01  7.2866281792710D-01 -6.5399493965271D-01
14  1.3000000000000D-01  7.8290477689923D-01 -7.0018316475341D-01
15  1.4000000000000D-01  8.3566256657848D-01 -7.4428019484203D-01
16  1.5000000000000D-01  8.8684814194255D-01 -7.8609450381163D-01
17  1.6000000000000D-01  9.3637866750446D-01 -8.2543091982201D-01
18  1.7000000000000D-01  9.8417669115670D-01 -8.6209139051795D-01
19  1.8000000000000D-01  1.0301702836267D+00 -8.9587591167020D-01
20  1.9000000000000D-01  1.0742931432893D+00 -9.2658361528616D-01
21  2.0000000000000D-01  1.1164846664024D+00 -9.5401401097048D-01
22  2.1000000000000D-01  1.1566899831495D+00 -9.7796837208259D-01
23  2.2000000000000D-01  1.1948599601886D+00 -9.9825125606036D-01
24  2.3000000000000D-01  1.2309511707116D+00 -1.0146721461854D+00
25  2.4000000000000D-01  1.2649258333149D+00 -1.0270472000760D+00
26  2.5000000000000D-01  1.2967517212642D+00 -1.0352010883361D+00
27  2.6000000000000D-01  1.3264020439994D+00 -1.0389689050796D+00
28  2.7000000000000D-01  1.3538553029752D+00 -1.0381981305184D+00
29  2.8000000000000D-01  1.3790951241528D+00 -1.0327506244603D+00
30  2.9000000000000D-01  1.4021100696601D+00 -1.0225046284311D+00
31  3.0000000000000D-01  1.4228934313100D+00 -1.0073567532365D+00
32  3.1000000000000D-01  1.4414430088109D+00 -9.8722392811093D-01
33  3.2000000000000D-01  1.4577608756173D+00 -9.6204528719542D-01
34  3.3000000000000D-01  1.4718531354523D+00 -9.3178396893414D-01
35  3.4000000000000D-01  1.4837296725826D+00 -8.9642880410105D-01
36  3.5000000000000D-01  1.4934038989452D+00 -8.5599586855839D-01
37  3.6000000000000D-01  1.5008925012053D+00 -8.1052987751549D-01
38  3.7000000000000D-01  1.5062151907774D+00 -7.6010539899216D-01
39  3.8000000000000D-01  1.5093944597535D+00 -7.0482786539723D-01
40  3.9000000000000D-01  1.5104553455671D+00 -6.4483436359684D-01
41  4.0000000000000D-01  1.5094252070713D+00 -5.8029418556315D-01
42  4.1000000000000D-01  1.5063335145278D+00 -5.1140912364684D-01
43  4.2000000000000D-01  1.5012116557938D+00 -4.3841349669097D-01
44  4.3000000000000D-01  1.4940927607594D+00 -3.6157389558236D-01
45  4.4000000000000D-01  1.4850115458205D+00 -2.8118863939724D-01
46  4.5000000000000D-01  1.4740041798943D+00 -1.9758693601949D-01
47  4.6000000000000D-01  1.4611081731744D+00 -1.1112774396543D-01
48  4.7000000000000D-01  1.4463622895059D+00 -2.2198335113097D-02
49  4.8000000000000D-01  1.4298064829261D+00  6.8787438922893D-02
50  4.9000000000000D-01  1.4114818585716D+00  1.6139117093663D-01
51  5.0000000000000D-01  1.3914306578058D+00  2.5515220385284D-01
52  5.1000000000000D-01  1.3696962670667D+00  3.4959020598387D-01
53  5.2000000000000D-01  1.3463232495883D+00  4.4420800072989D-01
54  5.3000000000000D-01  1.3213573988009D+00  5.3849463266100D-01
55  5.4000000000000D-01  1.2948458118851D+00  6.3192864905784D-01
56  5.5000000000000D-01  1.2668369816314D+00  7.2398157327217D-01
57  5.6000000000000D-01  1.2373809044536D+00  8.1412154373043D-01
58  5.7000000000000D-01  1.2065292021235D+00  9.0181709006197D-01
59  5.8000000000000D-01  1.1743352545358D+00  9.8654101573788D-01
60  5.9000000000000D-01  1.1408543405824D+00  1.0677743547574D+00
61  6.0000000000000D-01  1.1061437840191D+00  1.1450103683685D+00
62  6.1000000000000D-01  1.0702631010400D+00  1.2177585465529D+00
63  6.2000000000000D-01  1.0332741461518D+00  1.2855485780868D+00
64  6.3000000000000D-01  9.9524125284702D-01  1.3479342524048D+00
65  6.4000000000000D-01  9.5623136553199D-01  1.4044972562717D+00
66  6.5000000000000D-01  9.1631415915373D-01  1.4548508284053D+00
67  6.6000000000000D-01  8.7556214301202D-01  1.4986432357092D+00
68  6.7000000000000D-01  8.3405074531994D-01  1.5355610356616D+00
69  6.8000000000000D-01  7.9185837520112D-01  1.5653320906619D+00
70  6.9000000000000D-01  7.4906645897892D-01  1.5877283017709D+00
71  7.0000000000000D-01  7.0575944782188D-01  1.6025680312650D+00
72  7.1000000000000D-01  6.6202479405944D-01  1.6097181857554D+00
73  7.2000000000000D-01  6.1795289377022D-01  1.6090959342794D+00
74  7.3000000000000D-01  5.7363699357147D-01  1.6006700387483D+00
75  7.4000000000000D-01  5.2917305989625D-01  1.5844617773776D+00
76  7.5000000000000D-01  4.8465960943457D-01  1.5605454452359D+00
77  7.6000000000000D-01  4.4019749983134D-01  1.5290484197790D+00
78  7.7000000000000D-01  3.9588968017246D-01  1.4901507831559D+00
79  7.8000000000000D-01  3.5184090124774D-01  1.4440844971459D+00
80  7.9000000000000D-01  3.0815738605165D-01  1.3911321307846D+00
81  8.0000000000000D-01  2.6494646146218D-01  1.3316251449969D+00
82  8.1000000000000D-01  2.2231615252218D-01  1.2659417428518D+00
83  8.2000000000000D-01  1.8037474123055D-01  1.1945042983451D+00
84  8.3000000000000D-01  1.3923029222579D-01  1.1177763808484D+00
85  8.4000000000000D-01  9.8990148208349D-02  1.0362593964937D+00
86  8.5000000000000D-01  5.9760398393784D-02  9.5048887175965D-01
87  8.6000000000000D-01  2.1645323711908D-02  8.6103040832567D-01
88  8.7000000000000D-01 -1.5253177138123D-02  7.6847534184335D-01
89  8.8000000000000D-01 -5.0836176304858D-02  6.7343614058035D-01
90  8.9000000000000D-01 -8.5008315277769D-02  5.7654158289832D-01
91  9.0000000000000D-01 -1.1767840817866D-01  4.7843175518722D-01
92  9.1000000000000D-01 -1.4876004453748D-01  3.7975291416661D-01
93  9.2000000000000D-01 -1.7817218605294D-01  2.8115225934763D-01
94  9.3000000000000D-01 -2.0583975170499D-01  1.8327266290513D-01
95  9.4000000000000D-01 -2.3169418550903D-01  8.6747405213528D-02
96  9.5000000000000D-01 -2.5567400118177D-01 -7.8050351621447D-03
97  9.6000000000000D-01 -2.7772529802958D-01 -9.9786088182461D-02
98  9.7000000000000D-01 -2.9780224246604D-01 -1.8862204732521D-01
99  9.8000000000000D-01 -3.1586750972990D-01 -2.7376882536945D-01
100  9.9000000000000D-01 -3.3189268059182D-01 -3.5471646488088D-01
101  1.0000000000000D+00 -3.4585858811810D-01 -4.3099335920137D-01
102  1.0100000000000D+00 -3.5775560989619D-01 -5.0217014210133D-01
103  1.0200000000000D+00 -3.6758390151485D-01 -5.6786320703429D-01
104  1.0300000000000D+00 -3.7535356755507D-01 -6.2773782031576D-01
105  1.0400000000000D+00 -3.8108476679303D-01 -6.8151079582520D-01
106  1.0500000000000D+00 -3.8480774891146D-01 -7.2895270326859D-01
107  1.0600000000000D+00 -3.8656282055209D-01 -7.6988958607106D-01
108  1.0700000000000D+00 -3.8640023916221D-01 -8.0420416965916D-01
109  1.0800000000000D+00 -3.8438003375860D-01 -8.3183654599460D-01
110  1.0900000000000D+00 -3.8057175232235D-01 -8.5278432473449D-01
111  1.1000000000000D+00 -3.7505413629564D-01 -8.6710224720925D-01
112  1.1100000000000D+00 -3.6791472330173D-01 -8.7490126443165D-01
113  1.1200000000000D+00 -3.5924937991962D-01 -8.7634708585373D-01
114  1.1300000000000D+00 -3.4916176702352D-01 -8.7165821086876D-01
115  1.1400000000000D+00 -3.3776274083606D-01 -8.6110346004335D-01
116  1.1500000000000D+00 -3.2516969360054D-01 -8.4499902899990D-01
117  1.1600000000000D+00 -3.1150583835112D-01 -8.2370509240127D-01
118  1.1700000000000D+00 -2.9689944284869D-01 -7.9762199015957D-01
119  1.1800000000000D+00 -2.8148301832274D-01 -7.6718603254001D-01
120  1.1900000000000D+00 -2.6539246924471D-01 -7.3286496554453D-01
121  1.2000000000000D+00 -2.4876621079447D-01 -6.9515314152404D-01
122  1.2100000000000D+00 -2.3174426098941D-01 -6.5456644246029D-01
123  1.2200000000000D+00 -2.1446731500219D-01 -6.1163700798020D-01
124  1.2300000000000D+00 -1.9707580935581D-01 -5.6690782163843D-01
125  1.2400000000000D+00 -1.7970898389007D-01 -5.2092721079186D-01
126  1.2500000000000D+00 -1.6250394963878D-01 -4.7424331757192D-01
127  1.2600000000000D+00 -1.4559477077572D-01 -4.2739859898974D-01
128  1.2700000000000D+00 -1.2911156875236D-01 -3.8092441413147D-01
129  1.2800000000000D+00 -1.1317965682423D-01 -3.3533575724587D-01
130  1.2900000000000D+00 -9.7918712818828D-02 -2.9112619343652D-01
131  1.3000000000000D+00 -8.3441997864612D-02 -2.4876305275339D-01
132  1.3100000000000D+00 -6.9855628690468D-02 -2.0868293796200D-01
133  1.3200000000000D+00 -5.7257910259946D-02 -1.7128759545534D-01
134  1.3300000000000D+00 -4.5738735568192D-02 -1.3694019919287D-01
135  1.3400000000000D+00 -3.5379058851756D-02 -1.0596209365876D-01
136  1.3500000000000D+00 -2.6250447228105D-02 -7.8630033034217D-02
137  1.3600000000000D+00 -1.8414716451480D-02 -5.5173958576064D-02
138  1.3700000000000D+00 -1.1928211884615D-02 -3.5789293180410D-02
139  1.3800000000000D+00 -6.8063043118794D-03 -2.0526320308187D-02
140  1.3900000000000D+00 -3.1092969321319D-03 -9.5579074203387D-03
141  1.4000000000000D+00 -9.6455694771384D-04 -3.2636809267692D-03
142  1.4100000000000D+00 -1.0133579742920D-04 -7.0483872751748D-04
143  1.4200000000000D+00  5.2935723435724D-05 -2.1965905000436D-05
144  1.4300000000000D+00 -1.2119668761309D-05 -9.8298069492860D-06
145  1.4400000000000D+00 -1.5830423975233D-05 -1.9342265794003D-05
146  1.4500000000000D+00  3.3058229787939D-06  1.1107014376161D-06
147  1.4600000000000D+00  1.2415504714840D-06  7.3764192749646D-07
148  1.4700000000000D+00  2.3023444244049D-07  1.8136492745204D-06
149  1.4800000000000D+00  0.0000000000000D+00  0.0000000000000D+00
150  1.4900000000000D+00  0.0000000000000D+00  0.0000000000000D+00
151  1.5000000000000D+00  0.0000000000000D+00  0.0000000000000D+00
152  1.5100000000000D+00  0.0000000000000D+00  0.0000000000000D+00
153  1.5200000000000D+00  0.0000000000000D+00  0.0000000000000D+00
154  1.5300000000000D+00  0.0000000000000D+00  0.0000000000000D+00
155  1.5400000000000D+00  0.0000000000000D+00  0.0000000000000D+00
156  1.5500000000000D+00  0.0000000000000D+00  0.0000000000000D+00
157  1.5600000000000D+00  0.0000000000000D+00  0.0000000000000D+00
158  1.5700000000000D+00  0.0000000000000D+00  0.0000000000000D+00
159  1.5800000000000D+00  0.0000000000000D+00  0.0000000000000D+00
160  1.5900000000000D+00  0.0000000000000D+00  0.0000000000000D+00
161  1.6000000000000D+00  0.0000000000000D+00  0.0000000000000D+00
162  1.6100000000000D+00  0.0000000000000D+00  0.0000000000000D+00
163  1.6200000000000D+00  0.0000000000000D+00  0.0000000000000D+00
164  1.6300000000000D+00  0.0000000000000D+00  0.0000000000000D+00
165  1.6400000000000D+00  0.0000000000000D+00  0.0000000000000D+00
166  1.6500000000000D+00  0.0000000000000D+00  0.0000000000000D+00
167  1.6600000000000D+00  0.0000000000000D+00  0.0000000000000D+00
168  1.6700000000000D+00  0.0000000000000D+00  0.0000000000000D+00
169  1.6800000000000D+00  0.0000000000000D+00  0.0000000000000D+00
170  1.6900000000000D+00  0.0000000000000D+00  0.0000000000000D+00
171  1.7000000000000D+00  0.0000000000000D+00  0.0000000000000D+00
172  1.7100000000000D+00  0.0000000000000D+00  0.0000000000000D+00
173  1.7200000000000D+00  0.0000000000000D+00  0.0000000000000D+00
174  1.7300000000000D+00  0.0000000000000D+00  0.0000000000000D+00
175  1.7400000000000D+00  0.0000000000000D+00  0.0000000000000D+00
176  1.7500000000000D+00  0.0000000000000D+00  0.0000000000000D+00
177  1.7600000000000D+00  0.0000000000000D+00  0.0000000000000D+00
178  1.7700000000000D+00  0.0000000000000D+00  0.0000000000000D+00
179  1.7800000000000D+00  0.0000000000000D+00  0.0000000000000D+00
180  1.7900000000000D+00  0.0000000000000D+00  0.0000000000000D+00
181  1.8000000000000D+00  0.0000000000000D+00  0.0000000000000D+00
182  1.8100000000000D+00  0.0000000000000D+00  0.0000000000000D+00
183  1.8200000000000D+00  0.0000000000000D+00  0.0000000000000D+00
184  1.8300000000000D+00  0.0000000000000D+00  0.0000000000000D+00
185  1.8400000000000D+00  0.0000000000000D+00  0.0000000000000D+00
186  1.8500000000000D+00  0.0000000000000D+00  0.0000000000000D+00
187  1.8600000000000D+00  0.0000000000000D+00  0.0000000000000D+00
188  1.8700000000000D+00  0.0000000000000D+00  0.0000000000000D+00
189  1.8800000000000D+00  0.0000000000000D+00  0.0000000000000D+00
190  1.8900000000000D+00  0.0000000000000D+00  0.0000000000000D+00
191  1.9000000000000D+00  0.0000000000000D+00  0.0000000000000D+00
192  1.9100000000000D+00  0.0000000000000D+00  0.0000000000000D+00
193  1.9200000000000D+00  0.0000000000000D+00  0.0000000000000D+00
194  1.9300000000000D+00  0.0000000000000D+00  0.0000000000000D+00
195  1.9400000000000D+00  0.0000000000000D+00  0.0000000000000D+00
196  1.9500000000000D+00  0.0000000000000D+00  0.0000000000000D+00
197  1.9600000000000D+00  0.0000000000000D+00  0.0000000000000D+00
198  1.9700000000000D+00  0.0000000000000D+00  0.0000000000000D+00
199  1.9800000000000D+00  0.0000000000000D+00  0.0000000000000D+00
200  1.9900000000000D+00  0.0000000000000D+00  0.0000000000000D+00
201  2.0000000000000D+00  0.0000000000000D+00  0.0000000000000D+00
202  2.0100000000000D+00  0.0000000000000D+00  0.0000000000000D+00
203  2.0200000000000D+00  0.0000000000000D+00  0.0000000000000D+00
204  2.0300000000000D+00  0.0000000000000D+00  0.0000000000000D+00
205  2.0400000000000D+00  0.0000000000000D+00  0.0000000000000D+00
206  2.0500000000000D+00  0.0000000000000D+00  0.0000000000000D+00
207  2.0600000000000D+00  0.0000000000000D+00  0.0000000000000D+00
208  2.0700000000000D+00  0.0000000000000D+00  0.0000000000000D+00
209  2.0800000000000D+00  0.0000000000000D+00  0.0000000000000D+00
210  2.0900000000000D+00  0.0000000000000D+00  0.0000000000000D+00
211  2.1000000000000D+00  0.0000000000000D+00  0.0000000000000D+00
212  2.1100000000000D+00  0.0000000000000D+00  0.0000000000000D+00
213  2.1200000000000D+00  0.0000000000000D+00  0.0000000000000D+00
214  2.1300000000000D+00  0.0000000000000D+00  0.0000000000000D+00
215  2.1400000000000D+00  0.0000000000000D+00  0.0000000000000D+00
216  2.1500000000000D+00  0.0000000000000D+00  0.0000000000000D+00
217  2.1600000000000D+00  0.0000000000000D+00  0.0000000000000D+00
218  2.1700000000000D+00  0.0000000000000D+00  0.0000000000000D+00
219  2.1800000000000D+00  0.0000000000000D+00  0.0000000000000D+00
220  2.1900000000000D+00  0.0000000000000D+00  0.0000000000000D+00
221  2.2000000000000D+00  0.0000000000000D+00  0.0000000000000D+00
222  2.2100000000000D+00  0.0000000000000D+00  0.0000000000000D+00
223  2.2200000000000D+00  0.0000000000000D+00  0.0000000000000D+00
224  2.2300000000000D+00  0.0000000000000D+00  0.0000000000000D+00
225  2.2400000000000D+00  0.0000000000000D+00  0.0000000000000D+00
226  2.2500000000000D+00  0.0000000000000D+00  0.0000000000000D+00
227  2.2600000000000D+00  0.0000000000000D+00  0.0000000000000D+00
228  2.2700000000000D+00  0.0000000000000D+00  0.0000000000000D+00
229  2.2800000000000D+00  0.0000000000000D+00  0.0000000000000D+00
230  2.2900000000000D+00  0.0000000000000D+00  0.0000000000000D+00
231  2.3000000000000D+00  0.0000000000000D+00  0.0000000000000D+00
232  2.3100000000000D+00  0.0000000000000D+00  0.0000000000000D+00
233  2.3200000000000D+00  0.0000000000000D+00  0.0000000000000D+00
234  2.3300000000000D+00  0.0000000000000D+00  0.0000000000000D+00
235  2.3400000000000D+00  0.0000000000000D+00  0.0000000000000D+00
236  2.3500000000000D+00  0.0000000000000D+00  0.0000000000000D+00
237  2.3600000000000D+00  0.0000000000000D+00  0.0000000000000D+00
238  2.3700000000000D+00  0.0000000000000D+00  0.0000000000000D+00
239  2.3800000000000D+00  0.0000000000000D+00  0.0000000000000D+00
240  2.3900000000000D+00  0.0000000000000D+00  0.0000000000000D+00
241  2.4000000000000D+00  0.0000000000000D+00  0.0000000000000D+00
242  2.4100000000000D+00  0.0000000000000D+00  0.0000000000000D+00
243  2.4200000000000D+00  0.0000000000000D+00  0.0000000000000D+00
244  2.4300000000000D+00  0.0000000000000D+00  0.0000000000000D+00
245  2.4400000000000D+00  0.0000000000000D+00  0.0000000000000D+00
246  2.4500000000000D+00  0.0000000000000D+00  0.0000000000000D+00
247  2.4600000000000D+00  0.0000000000000D+00  0.0000000000000D+00
248  2.4700000000000D+00  0.0000000000000D+00  0.0000000000000D+00
249  2.4800000000000D+00  0.0000000000000D+00  0.0000000000000D+00
250  2.4900000000000D+00  0.0000000000000D+00  0.0000000000000D+00
251  2.5000000000000D+00  0.0000000000000D+00  0.0000000000000D+00
252  2.5100000000000D+00  0.0000000000000D+00  0.0000000000000D+00
253  2.5200000000000D+00  0.0000000000000D+00  0.0000000000000D+00
254  2.5300000000000D+00  0.0000000000000D+00  0.0000000000000D+00
255  2.5400000000000D+00  0.0000000000000D+00  0.0000000000000D+00
256  2.5500000000000D+00  0.0000000000000D+00  0.0000000000000D+00
257  2.5600000000000D+00  0.0000000000000D+00  0.0000000000000D+00
258  2.5700000000000D+00  0.0000000000000D+00  0.0000000000000D+00
259  2.5800000000000D+00  0.0000000000000D+00  0.0000000000000D+00
260  2.5900000000000D+00  0.0000000000000D+00  0.0000000000000D+00
261  2.6000000000000D+00  0.0000000000000D+00  0.0000000000000D+00
262  2.6100000000000D+00  0.0000000000000D+00  0.0000000000000D+00
263  2.6200000000000D+00  0.0000000000000D+00  0.0000000000000D+00
264  2.6300000000000D+00  0.0000000000000D+00  0.0000000000000D+00
265  2.6400000000000D+00  0.0000000000000D+00  0.0000000000000D+00
266  2.6500000000000D+00  0.0000000000000D+00  0.0000000000000D+00
267  2.6600000000000D+00  0.0000000000000D+00  0.0000000000000D+00
268  2.6700000000000D+00  0.0000000000000D+00  0.0000000000000D+00
269  2.6800000000000D+00  0.0000000000000D+00  0.0000000000000D+00
270  2.6900000000000D+00  0.0000000000000D+00  0.0000000000000D+00
271  2.7000000000000D+00  0.0000000000000D+00  0.0000000000000D+00
272  2.7100000000000D+00  0.0000000000000D+00  0.0000000000000D+00
273  2.7200000000000D+00  0.0000000000000D+00  0.0000000000000D+00
274  2.7300000000000D+00  0.0000000000000D+00  0.0000000000000D+00
275  2.7400000000000D+00  0.0000000000000D+00  0.0000000000000D+00
276  2.7500000000000D+00  0.0000000000000D+00  0.0000000000000D+00
277  2.7600000000000D+00  0.0000000000000D+00  0.0000000000000D+00
278  2.7700000000000D+00  0.0000000000000D+00  0.0000000000000D+00
279  2.7800000000000D+00  0.0000000000000D+00  0.0000000000000D+00
280  2.7900000000000D+00  0.0000000000000D+00  0.0000000000000D+00
281  2.8000000000000D+00  0.0000000000000D+00  0.0000000000000D+00
282  2.8100000000000D+00  0.0000000000000D+00  0.0000000000000D+00
283  2.8200000000000D+00  0.0000000000000D+00  0.0000000000000D+00
284  2.8300000000000D+00  0.0000000000000D+00  0.0000000000000D+00
285  2.8400000000000D+00  0.0000000000000D+00  0.0000000000000D+00
286  2.8500000000000D+00  0.0000000000000D+00  0.0000000000000D+00
287  2.8600000000000D+00  0.0000000000000D+00  0.0000000000000D+00
288  2.8700000000000D+00  0.0000000000000D+00  0.0000000000000D+00
289  2.8800000000000D+00  0.0000000000000D+00  0.0000000000000D+00
290  2.8900000000000D+00  0.0000000000000D+00  0.0000000000000D+00
291  2.9000000000000D+00  0.0000000000000D+00  0.0000000000000D+00
292  2.9100000000000D+00  0.0000000000000D+00  0.0000000000000D+00
293  2.9200000000000D+00  0.0000000000000D+00  0.0000000000000D+00
294  2.9300000000000D+00  0.0000000000000D+00  0.0000000000000D+00
295  2.9400000000000D+00  0.0000000000000D+00  0.0000000000000D+00
296  2.9500000000000D+00  0.0000000000000D+00  0.0000000000000D+00
297  2.9600000000000D+00  0.0000000000000D+00  0.0000000000000D+00
298  2.9700000000000D+00  0.0000000000000D+00  0.0000000000000D+00
299  2.9800000000000D+00  0.0000000000000D+00  0.0000000000000D+00
300  2.9900000000000D+00  0.0000000000000D+00  0.0000000000000D+00
301  3.0000000000000D+00  0.0000000000000D+00  0.0000000000000D+00
302  3.0100000000000D+00  0.0000000000000D+00  0.0000000000000D+00
303  3.0200000000000D+00  0.0000000000000D+00  0.0000000000000D+00
304  3.0300000000000D+00  0.0000000000000D+00  0.0000000000000D+00
305  3.0400000000000D+00  0.0000000000000D+00  0.0000000000000D+00
306  3.0500000000000D+00  0.0000000000000D+00  0.0000000000000D+00
307  3.0600000000000D+00  0.0000000000000D+00  0.0000000000000D+00
308  3.0700000000000D+00  0.0000000000000D+00  0.0000000000000D+00
309  3.0800000000000D+00  0.0000000000000D+00  0.0000000000000D+00
310  3.0900000000000D+00  0.0000000000000D+00  0.0000000000000D+00
311  3.1000000000000D+00  0.0000000000000D+00  0.0000000000000D+00
312  3.1100000000000D+00  0.0000000000000D+00  0.0000000000000D+00
313  3.1200000000000D+00  0.0000000000000D+00  0.0000000000000D+00
314  3.1300000000000D+00  0.0000000000000D+00  0.0000000000000D+00
315  3.1400000000000D+00  0.0000000000000D+00  0.0000000000000D+00
316  3.1500000000000D+00  0.0000000000000D+00  0.0000000000000D+00
317  3.1600000000000D+00  0.0000000000000D+00  0.0000000000000D+00
318  3.1700000000000D+00  0.0000000000000D+00  0.0000000000000D+00
319  3.1800000000000D+00  0.0000000000000D+00  0.0000000000000D+00
320  3.1900000000000D+00  0.0000000000000D+00  0.0000000000000D+00
321  3.2000000000000D+00  0.0000000000000D+00  0.0000000000000D+00
322  3.2100000000000D+00  0.0000000000000D+00  0.0000000000000D+00
323  3.2200000000000D+00  0.0000000000000D+00  0.0000000000000D+00
324  3.2300000000000D+00  0.0000000000000D+00  0.0000000000000D+00
325  3.2400000000000D+00  0.0000000000000D+00  0.0000000000000D+00
326  3.2500000000000D+00  0.0000000000000D+00  0.0000000000000D+00
327  3.2600000000000D+00  0.0000000000000D+00  0.0000000000000D+00
328  3.2700000000000D+00  0.0000000000000D+00  0.0000000000000D+00
329  3.2800000000000D+00  0.0000000000000D+00  0.0000000000000D+00
330  3.2900000000000D+00  0.0000000000000D+00  0.0000000000000D+00
331  3.3000000000000D+00  0.0000000000000D+00  0.0000000000000D+00
332  3.3100000000000D+00  0.0000000000000D+00  0.0000000000000D+00
333  3.3200000000000D+00  0.0000000000000D+00  0.0000000000000D+00
334  3.3300000000000D+00  0.0000000000000D+00  0.0000000000000D+00
335  3.3400000000000D+00  0.0000000000000D+00  0.0000000000000D+00
336  3.3500000000000D+00  0.0000000000000D+00  0.0000000000000D+00
337  3.3600000000000D+00  0.0000000000000D+00  0.0000000000000D+00
338  3.3700000000000D+00  0.0000000000000D+00  0.0000000000000D+00
339  3.3800000000000D+00  0.0000000000000D+00  0.0000000000000D+00
340  3.3900000000000D+00  0.0000000000000D+00  0.0000000000000D+00
341  3.4000000000000D+00  0.0000000000000D+00  0.0000000000000D+00
342  3.4100000000000D+00  0.0000000000000D+00  0.0000000000000D+00
343  3.4200000000000D+00  0.0000000000000D+00  0.0000000000000D+00
344  3.4300000000000D+00  0.0000000000000D+00  0.0000000000000D+00
345  3.4400000000000D+00  0.0000000000000D+00  0.0000000000000D+00
346  3.4500000000000D+00  0.0000000000000D+00  0.0000000000000D+00
347  3.4600000000000D+00  0.0000000000000D+00  0.0000000000000D+00
348  3.4700000000000D+00  0.0000000000000D+00  0.0000000000000D+00
349  3.4800000000000D+00  0.0000000000000D+00  0.0000000000000D+00
350  3.4900000000000D+00  0.0000000000000D+00  0.0000000000000D+00
351  3.5000000000000D+00  0.0000000000000D+00  0.0000000000000D+00
352  3.5100000000000D+00  0.0000000000000D+00  0.0000000000000D+00
353  3.5200000000000D+00  0.0000000000000D+00  0.0000000000000D+00
354  3.5300000000000D+00  0.0000000000000D+00  0.0000000000000D+00
355  3.5400000000000D+00  0.0000000000000D+00  0.0000000000000D+00
356  3.5500000000000D+00  0.0000000000000D+00  0.0000000000000D+00
357  3.5600000000000D+00  0.0000000000000D+00  0.0000000000000D+00
358  3.5700000000000D+00  0.0000000000000D+00  0.0000000000000D+00
359  3.5800000000000D+00  0.0000000000000D+00  0.0000000000000D+00
360  3.5900000000000D+00  0.0000000000000D+00  0.0000000000000D+00
361  3.6000000000000D+00  0.0000000000000D+00  0.0000000000000D+00
362  3.6100000000000D+00  0.0000000000000D+00  0.0000000000000D+00
363  3.6200000000000D+00  0.0000000000000D+00  0.0000000000000D+00
364  3.6300000000000D+00  0.0000000000000D+00  0.0000000000000D+00
365  3.6400000000000D+00  0.0000000000000D+00  0.0000000000000D+00
366  3.6500000000000D+00  0.0000000000000D+00  0.0000000000000D+00
367  3.6600000000000D+00  0.0000000000000D+00  0.0000000000000D+00
368  3.6700000000000D+00  0.0000000000000D+00  0.0000000000000D+00
369  3.6800000000000D+00  0.0000000000000D+00  0.0000000000000D+00
370  3.6900000000000D+00  0.0000000000000D+00  0.0000000000000D+00
371  3.7000000000000D+00  0.0000000000000D+00  0.0000000000000D+00
372  3.7100000000000D+00  0.0000000000000D+00  0.0000000000000D+00
373  3.7200000000000D+00  0.0000000000000D+00  0.0000000000000D+00
374  3.7300000000000D+00  0.0000000000000D+00  0.0000000000000D+00
375  3.7400000000000D+00  0.0000000000000D+00  0.0000000000000D+00
376  3.7500000000000D+00  0.0000000000000D+00  0.0000000000000D+00
377  3.7600000000000D+00  0.0000000000000D+00  0.0000000000000D+00
378  3.7700000000000D+00  0.0000000000000D+00  0.0000000000000D+00
379  3.7800000000000D+00  0.0000000000000D+00  0.0000000000000D+00
380  3.7900000000000D+00  0.0000000000000D+00  0.0000000000000D+00
381  3.8000000000000D+00  0.0000000000000D+00  0.0000000000000D+00
382  3.8100000000000D+00  0.0000000000000D+00  0.0000000000000D+00
383  3.8200000000000D+00  0.0000000000000D+00  0.0000000000000D+00
384  3.8300000000000D+00  0.0000000000000D+00  0.0000000000000D+00
385  3.8400000000000D+00  0.0000000000000D+00  0.0000000000000D+00
386  3.8500000000000D+00  0.0000000000000D+00  0.0000000000000D+00
387  3.8600000000000D+00  0.0000000000000D+00  0.0000000000000D+00
388  3.8700000000000D+00  0.0000000000000D+00  0.0000000000000D+00
389  3.8800000000000D+00  0.0000000000000D+00  0.0000000000000D+00
390  3.8900000000000D+00  0.0000000000000D+00  0.0000000000000D+00
391  3.9000000000000D+00  0.0000000000000D+00  0.0000000000000D+00
392  3.9100000000000D+00  0.0000000000000D+00  0.0000000000000D+00
393  3.9200000000000D+00  0.0000000000000D+00  0.0000000000000D+00
394  3.9300000000000D+00  0.0000000000000D+00  0.0000000000000D+00
395  3.9400000000000D+00  0.0000000000000D+00  0.0000000000000D+00
396  3.9500000000000D+00  0.0000000000000D+00  0.0000000000000D+00
397  3.9600000000000D+00  0.0000000000000D+00  0.0000000000000D+00
398  3.9700000000000D+00  0.0000000000000D+00  0.0000000000000D+00
399  3.9800000000000D+00  0.0000000000000D+00  0.0000000000000D+00
400  3.9900000000000D+00  0.0000000000000D+00  0.0000000000000D+00
401  4.0000000000000D+00  0.0000000000000D+00  0.0000000000000D+00
402  4.0100000000000D+00  0.0000000000000D+00  0.0000000000000D+00
403  4.0200000000000D+00  0.0000000000000D+00  0.0000000000000D+00
404  4.0300000000000D+00  0.0000000000000D+00  0.0000000000000D+00
405  4.0400000000000D+00  0.0000000000000D+00  0.0000000000000D+00
406  4.0500000000000D+00  0.0000000000000D+00  0.0000000000000D+00
407  4.0600000000000D+00  0.0000000000000D+00  0.0000000000000D+00
408  4.0700000000000D+00  0.0000000000000D+00  0.0000000000000D+00
409  4.0800000000000D+00  0.0000000000000D+00  0.0000000000000D+00
410  4.0900000000000D+00  0.0000000000000D+00  0.0000000000000D+00
411  4.1000000000000D+00  0.0000000000000D+00  0.0000000000000D+00
412  4.1100000000000D+00  0.0000000000000D+00  0.0000000000000D+00
413  4.1200000000000D+00  0.0000000000000D+00  0.0000000000000D+00
414  4.1300000000000D+00  0.0000000000000D+00  0.0000000000000D+00
415  4.1400000000000D+00  0.0000000000000D+00  0.0000000000000D+00
416  4.1500000000000D+00  0.0000000000000D+00  0.0000000000000D+00
417  4.1600000000000D+00  0.0000000000000D+00  0.0000000000000D+00
418  4.1700000000000D+00  0.0000000000000D+00  0.0000000000000D+00
419  4.1800000000000D+00  0.0000000000000D+00  0.0000000000000D+00
420  4.1900000000000D+00  0.0000000000000D+00  0.0000000000000D+00
421  4.2000000000000D+00  0.0000000000000D+00  0.0000000000000D+00
422  4.2100000000000D+00  0.0000000000000D+00  0.0000000000000D+00
423  4.2200000000000D+00  0.0000000000000D+00  0.0000000000000D+00
424  4.2300000000000D+00  0.0000000000000D+00  0.0000000000000D+00
425  4.2400000000000D+00  0.0000000000000D+00  0.0000000000000D+00
426  4.2500000000000D+00  0.0000000000000D+00  0.0000000000000D+00
427  4.2600000000000D+00  0.0000000000000D+00  0.0000000000000D+00
428  4.2700000000000D+00  0.0000000000000D+00  0.0000000000000D+00
429  4.2800000000000D+00  0.0000000000000D+00  0.0000000000000D+00
430  4.2900000000000D+00  0.0000000000000D+00  0.0000000000000D+00
431  4.3000000000000D+00  0.0000000000000D+00  0.0000000000000D+00
432  4.3100000000000D+00  0.0000000000000D+00  0.0000000000000D+00
433  4.3200000000000D+00  0.0000000000000D+00  0.0000000000000D+00
434  4.3300000000000D+00  0.0000000000000D+00  0.0000000000000D+00
435  4.3400000000000D+00  0.0000000000000D+00  0.0000000000000D+00
436  4.3500000000000D+00  0.0000000000000D+00  0.0000000000000D+00
437  4.3600000000000D+00  0.0000000000000D+00  0.0000000000000D+00
438  4.3700000000000D+00  0.0000000000000D+00  0.0000000000000D+00
439  4.3800000000000D+00  0.0000000000000D+00  0.0000000000000D+00
440  4.3900000000000D+00  0.0000000000000D+00  0.0000000000000D+00
441  4.4000000000000D+00  0.0000000000000D+00  0.0000000000000D+00
442  4.4100000000000D+00  0.0000000000000D+00  0.0000000000000D+00
443  4.4200000000000D+00  0.0000000000000D+00  0.0000000000000D+00