Pb    ONCVPSP  r_core=  2.43  2.43  2.10
82.0000     14.0000      161004    zatom,zion,pspd
8 -116133   2     4   600     0    pspcod,pspxc,lmax,lloc,mmax,r2well
5.99000000  6.00000000  0.00000000    rchrg fchrg qchrg
2     2     2     0     0    nproj
1                 extension_switch
0                         5.6305516652365D+00  9.5416256588544D-01
1  0.0000000000000D+00  1.6858181517421D-12 -5.6815177562619D-12
2  1.0000000000000D-02  1.4527643105525D-02  7.2335956099467D-03
3  2.0000000000000D-02  2.9068495685150D-02  1.4422233193601D-02
4  3.0000000000000D-02  4.3635708305148D-02  2.1521124561501D-02
5  4.0000000000000D-02  5.8242313883705D-02  2.8485820671815D-02
6  5.0000000000000D-02  7.2901169285383D-02  3.5272379890528D-02
7  6.0000000000000D-02  8.7624897416594D-02  4.1837534679283D-02
8  7.0000000000000D-02  1.0242582998706D-01  4.8138856193481D-02
9  8.0000000000000D-02  1.1731595110060D-01  5.4134916278896D-02
10  9.0000000000000D-02  1.3230684183636D-01  5.9785446362282D-02
11  1.0000000000000D-01  1.4740962597912D-01  6.5051492739838D-02
12  1.1000000000000D-01  1.6263491705441D-01  6.9895567777423D-02
13  1.2000000000000D-01  1.7799276682062D-01  7.4281796547510D-02
14  1.3000000000000D-01  1.9349261536680D-01  7.8176058440523D-02
15  1.4000000000000D-01  2.0914324296047D-01  8.1546123302029D-02
16  1.5000000000000D-01  2.2495272378550D-01  8.4361781662339D-02
17  1.6000000000000D-01  2.4092838170485D-01  8.6594968641499D-02
18  1.7000000000000D-01  2.5707674817827D-01  8.8219881130126D-02
19  1.8000000000000D-01  2.7340352245895D-01  8.9213087865283D-02
20  1.9000000000000D-01  2.8991353418750D-01  8.9553632040404D-02
21  2.0000000000000D-01  3.0661070849543D-01  8.9223126109112D-02
22  2.1000000000000D-01  3.2349803372353D-01  8.8205838464769D-02
23  2.2000000000000D-01  3.4057753185408D-01  8.6488771700297D-02
24  2.3000000000000D-01  3.5785023174837D-01  8.4061732176750D-02
25  2.4000000000000D-01  3.7531614527398D-01  8.0917390653674D-02
26  2.5000000000000D-01  3.9297424639852D-01  7.7051333759629D-02
27  2.6000000000000D-01  4.1082245331880D-01  7.2462106107628D-02
28  2.7000000000000D-01  4.2885761368629D-01  6.7151242886784D-02
29  2.8000000000000D-01  4.4707549298184D-01  6.1123292789222D-02
30  2.9000000000000D-01  4.6547076608396D-01  5.4385831158933D-02
31  3.0000000000000D-01  4.8403701206662D-01  4.6949463278017D-02
32  3.1000000000000D-01  5.0276671225408D-01  3.8827817734315D-02
33  3.2000000000000D-01  5.2165125155129D-01  3.0037529843770D-02
34  3.3000000000000D-01  5.4068092305991D-01  2.0598215130137D-02
35  3.4000000000000D-01  5.5984493598083D-01  1.0532432894247D-02
36  3.5000000000000D-01  5.7913142679567D-01 -1.3436006527086D-04
37  3.6000000000000D-01  5.9852747371047D-01 -1.1373865488381D-02
38  3.7000000000000D-01  6.1801911433602D-01 -2.3155009326030D-02
39  3.8000000000000D-01  6.3759136657074D-01 -3.5444016898044D-02
40  3.9000000000000D-01  6.5722825264273D-01 -4.8204497356859D-02
41  4.0000000000000D-01  6.7691282625949D-01 -6.1397537248592D-02
42  4.1000000000000D-01  6.9662720280486D-01 -7.4981802934463D-02
43  4.2000000000000D-01  7.1635259251436D-01 -8.8913651607604D-02
44  4.3000000000000D-01  7.3606933655189D-01 -1.0314725061300D-01
45  4.4000000000000D-01  7.5575694590261D-01 -1.1763470475140D-01
46  4.5000000000000D-01  7.7539414298873D-01 -1.3232619122231D-01
47  4.6000000000000D-01  7.9495890590748D-01 -1.4717010183561D-01
48  4.7000000000000D-01  8.1442851518277D-01 -1.6211319209755D-01
49  4.8000000000000D-01  8.3377960291508D-01 -1.7710073675302D-01
50  4.9000000000000D-01  8.5298820420693D-01 -1.9207669134430D-01
51  5.0000000000000D-01  8.7202981073494D-01 -2.0698385932495D-01
52  5.1000000000000D-01  8.9087942633281D-01 -2.2176406424777D-01
53  5.2000000000000D-01  9.0951162444383D-01 -2.3635832652711D-01
54  5.3000000000000D-01  9.2790060729579D-01 -2.5070704425848D-01
55  5.4000000000000D-01  9.4602026664597D-01 -2.6475017756254D-01
56  5.5000000000000D-01  9.6384424593879D-01 -2.7842743590605D-01
57  5.6000000000000D-01  9.8134600371470D-01 -2.9167846783960D-01
58  5.7000000000000D-01  9.9849887810416D-01 -3.0444305258043D-01
59  5.8000000000000D-01  1.0152761522378D+00 -3.1666129285925D-01
60  5.9000000000000D-01  1.0316511203996D+00 -3.2827380844151D-01
61  6.0000000000000D-01  1.0475971547486D+00 -3.3922192972790D-01
62  6.1000000000000D-01  1.0630877724308D+00 -3.4944789083366D-01
63  6.2000000000000D-01  1.0780967029030D+00 -3.5889502154418D-01
64  6.3000000000000D-01  1.0925979552860D+00 -3.6750793754299D-01
65  6.4000000000000D-01  1.1065658855692D+00 -3.7523272830933D-01
66  6.5000000000000D-01  1.1199752634808D+00 -3.8201714208545D-01
67  6.6000000000000D-01  1.1328013388456D+00 -3.8781076731812D-01
68  6.7000000000000D-01  1.1450199072474D+00 -3.9256520998570D-01
69  6.8000000000000D-01  1.1566073748173D+00 -3.9623426623023D-01
70  6.9000000000000D-01  1.1675408219702D+00 -3.9877408972464D-01
71  7.0000000000000D-01  1.1777980659126D+00 -4.0014335321696D-01
72  7.1000000000000D-01  1.1873577217503D+00 -4.0030340370771D-01
73  7.2000000000000D-01  1.1961992620249D+00 -3.9921841073229D-01
74  7.3000000000000D-01  1.2043030745132D+00 -3.9685550723783D-01
75  7.4000000000000D-01  1.2116505181275D+00 -3.9318492256343D-01
76  7.5000000000000D-01  1.2182239767603D+00 -3.8818010705346D-01
77  7.6000000000000D-01  1.2240069109188D+00 -3.8181784785684D-01
78  7.7000000000000D-01  1.2289839070051D+00 -3.7407837548898D-01
79  7.8000000000000D-01  1.2331407240985D+00 -3.6494546075934D-01
80  7.9000000000000D-01  1.2364643381080D+00 -3.5440650169483D-01
81  8.0000000000000D-01  1.2389429831650D+00 -3.4245260011780D-01
82  8.1000000000000D-01  1.2405661901367D+00 -3.2907862756785D-01
83  8.2000000000000D-01  1.2413248221472D+00 -3.1428328028776D-01
84  8.3000000000000D-01  1.2412111070006D+00 -2.9806912302625D-01
85  8.4000000000000D-01  1.2402186664089D+00 -2.8044262144416D-01
86  8.5000000000000D-01  1.2383425419375D+00 -2.6141416294482D-01
87  8.6000000000000D-01  1.2355792175859D+00 -2.4099806578492D-01
88  8.7000000000000D-01  1.2319266389357D+00 -2.1921257635823D-01
89  8.8000000000000D-01  1.2273842288029D+00 -1.9607985458138D-01
90  8.9000000000000D-01  1.2219528993419D+00 -1.7162594734806D-01
91  9.0000000000000D-01  1.2156350605602D+00 -1.4588075005585D-01
92  9.1000000000000D-01  1.2084346252107D+00 -1.1887795624759D-01
93  9.2000000000000D-01  1.2003570100376D+00 -9.0654995447798D-02
94  9.3000000000000D-01  1.1914091333650D+00 -6.1252959312350D-02
95  9.4000000000000D-01  1.1815994090247D+00 -3.0716516247963D-02
96  9.5000000000000D-01  1.1709377366304D+00  9.0618530410394D-04
97  9.6000000000000D-01  1.1594354882158D+00  3.3563624688293D-02
98  9.7000000000000D-01  1.1471054912645D+00  6.7201027689939D-02
99  9.8000000000000D-01  1.1339620081699D+00  1.0176049572017D-01
100  9.9000000000000D-01  1.1200207121705D+00  1.3718114518917D-01
101  1.0000000000000D+00  1.1052986598202D+00  1.7339925669215D-01
102  1.0100000000000D+00  1.0898142600598D+00  2.1034843359831D-01
103  1.0200000000000D+00  1.0735872399650D+00  2.4795976960001D-01
104  1.0300000000000D+00  1.0566386072589D+00  2.8616202474825D-01
105  1.0400000000000D+00  1.0389906096814D+00  3.2488180947045D-01
106  1.0500000000000D+00  1.0206666913210D+00  3.6404377603717D-01
107  1.0600000000000D+00  1.0016914460202D+00  4.0357081691820D-01
108  1.0700000000000D+00  9.8209056797391D-01  4.4338426944279D-01
109  1.0800000000000D+00  9.6189079965128D-01  4.8340412615435D-01
110  1.0900000000000D+00  9.4111987717376D-01  5.2354925022903D-01
111  1.1000000000000D+00  9.1980647329431D-01  5.6373759530716D-01
112  1.1100000000000D+00  8.9798013812557D-01  6.0388642906993D-01
113  1.1200000000000D+00  8.7567123777332D-01  6.4391255987659D-01
114  1.1300000000000D+00  8.5291089103618D-01  6.8373256576464D-01
115  1.1400000000000D+00  8.2973090433870D-01  7.2326302510439D-01
116  1.1500000000000D+00  8.0616370506877D-01  7.6242074819073D-01
117  1.1600000000000D+00  7.8224227349538D-01  8.0112300904785D-01
118  1.1700000000000D+00  7.5800007344652D-01  8.3928777671836D-01
119  1.1800000000000D+00  7.3347098193014D-01  8.7683394530801D-01
120  1.1900000000000D+00  7.0868921788340D-01  9.1368156205654D-01
121  1.2000000000000D+00  6.8368927023855D-01  9.4975205270845D-01
122  1.2100000000000D+00  6.5850582549477D-01  9.8496844346473D-01
123  1.2200000000000D+00  6.3317369498636D-01  1.0192555788049D+00
124  1.2300000000000D+00  6.0772774203859D-01  1.0525403344746D+00
125  1.2400000000000D+00  5.8220280920238D-01  1.0847518249540D+00
126  1.2500000000000D+00  5.5663364575741D-01  1.1158216047380D+00
127  1.2600000000000D+00  5.3105483567419D-01  1.1456838627638D+00
128  1.2700000000000D+00  5.0550072622186D-01  1.1742756093595D+00
129  1.2800000000000D+00  4.8000535740599D-01  1.2015368551078D+00
130  1.2900000000000D+00  4.5460239242117D-01  1.2274107810185D+00
131  1.3000000000000D+00  4.2932504929573D-01  1.2518438994660D+00
132  1.3100000000000D+00  4.0420603390230D-01  1.2747862053651D+00
133  1.3200000000000D+00  3.7927747450933D-01  1.2961913170577D+00
134  1.3300000000000D+00  3.5457085803524D-01  1.3160166064703D+00
135  1.3400000000000D+00  3.3011696816582D-01  1.3342233181037D+00
136  1.3500000000000D+00  3.0594582549441D-01  1.3507766764307D+00
137  1.3600000000000D+00  2.8208662982571D-01  1.3656459813843D+00
138  1.3700000000000D+00  2.5856770479035D-01  1.3788046915816D+00
139  1.3800000000000D+00  2.3541644490568D-01  1.3902304949997D+00
140  1.3900000000000D+00  2.1265926520032D-01  1.3999053669122D+00
141  1.4000000000000D+00  1.9032155353744D-01  1.4078156148050D+00
142  1.4100000000000D+00  1.6842762573299D-01  1.4139519101941D+00
143  1.4200000000000D+00  1.4700068357782D-01  1.4183093071992D+00
144  1.4300000000000D+00  1.2606277586426D-01  1.4208872477750D+00
145  1.4400000000000D+00  1.0563476248268D-01  1.4216895536682D+00
146  1.4500000000000D+00  8.5736281691359D-02  1.4207244049906D+00
147  1.4600000000000D+00  6.6385720599722D-02  1.4180043056007D+00
148  1.4700000000000D+00  4.7600188938228D-02  1.4135460353218D+00
149  1.4800000000000D+00  2.9395496161524D-02  1.4073705891625D+00
150  1.4900000000000D+00  1.1786131906401D-02  1.3995031038003D+00
151  1.5000000000000D+00 -5.2147501358208D-03  1.3899727714379D+00
152  1.5100000000000D+00 -2.1595344956544D-02  1.3788127414908D+00
153  1.5200000000000D+00 -3.7345205522758D-02  1.3660600102407D+00
154  1.5300000000000D+00 -5.2455248667384D-02  1.3517552989868D+00
155  1.5400000000000D+00 -6.6917757558862D-02  1.3359429209772D+00
156  1.5500000000000D+00 -8.0726380784599D-02  1.3186706376215D+00
157  1.5600000000000D+00 -9.3876128079752D-02  1.2999895044602D+00
158  1.5700000000000D+00 -1.0636336272294D-01  1.2799537073457D+00
159  1.5800000000000D+00 -1.1818579067972D-01  1.2586203894853D+00
160  1.5900000000000D+00 -1.2934244650364D-01  1.2360494697663D+00
161  1.6000000000000D+00 -1.3983367612038D-01  1.2123034531559D+00
162  1.6100000000000D+00 -1.4966111649856D-01  1.1874472335899D+00
163  1.6200000000000D+00 -1.5882767236526D-01  1.1615478902240D+00
164  1.6300000000000D+00 -1.6733748997824D-01  1.1346744775097D+00
165  1.6400000000000D+00 -1.7519592812644D-01  1.1068978099801D+00
166  1.6500000000000D+00 -1.8240952639298D-01  1.0782902422918D+00
167  1.6600000000000D+00 -1.8898597085472D-01  1.0489254453837D+00
168  1.6700000000000D+00 -1.9493405727674D-01  1.0188781793792D+00
169  1.6800000000000D+00 -2.0026365197753D-01  9.8822406406334D-01
170  1.6900000000000D+00 -2.0498565044306D-01  9.5703934762463D-01
171  1.7000000000000D+00 -2.0911193386839D-01  9.2540067445516D-01
172  1.7100000000000D+00 -2.1265532372041D-01  8.9338485275248D-01
173  1.7200000000000D+00 -2.1562953450357D-01  8.6106862266300D-01
174  1.7300000000000D+00 -2.1804912483430D-01  8.2852842576504D-01
175  1.7400000000000D+00 -2.1992944700759D-01  7.9584017654587D-01
176  1.7500000000000D+00 -2.2128659517259D-01  7.6307903674471D-01
177  1.7600000000000D+00 -2.2213735229807D-01  7.3031919308057D-01
178  1.7700000000000D+00 -2.2249913605766D-01  6.9763363934965D-01
179  1.7800000000000D+00 -2.2238994380535D-01  6.6509396320831D-01
180  1.7900000000000D+00 -2.2182829678976D-01  6.3277013878026D-01
181  1.8000000000000D+00 -2.2083318375742D-01  6.0073032517321D-01
182  1.8100000000000D+00 -2.1942400411637D-01  5.6904067214953D-01
183  1.8200000000000D+00 -2.1762051078655D-01  5.3776513289497D-01
184  1.8300000000000D+00 -2.1544275292460D-01  5.0696528508400D-01
185  1.8400000000000D+00 -2.1291101863495D-01  4.7670016020250D-01
186  1.8500000000000D+00 -2.1004577785268D-01  4.4702608209768D-01
187  1.8600000000000D+00 -2.0686762551553D-01  4.1799651490990D-01
188  1.8700000000000D+00 -2.0339722518013D-01  3.8966192092057D-01
189  1.8800000000000D+00 -1.9965525323470D-01  3.6206962887449D-01
190  1.8900000000000D+00 -1.9566234379682D-01  3.3526371264674D-01
191  1.9000000000000D+00 -1.9143903451804D-01  3.0928488142230D-01
192  1.9100000000000D+00 -1.8700571328477D-01  2.8417038044088D-01
193  1.9200000000000D+00 -1.8238256611338D-01  2.5995390402950D-01
194  1.9300000000000D+00 -1.7758952617135D-01  2.3666551960407D-01
195  1.9400000000000D+00 -1.7264622419776D-01  2.1433160405078D-01
196  1.9500000000000D+00 -1.6757194032010D-01  1.9297479177587D-01
197  1.9600000000000D+00 -1.6238555740599D-01  1.7261393475156D-01
198  1.9700000000000D+00 -1.5710551609600D-01  1.5326407495178D-01
199  1.9800000000000D+00 -1.5174977145630D-01  1.3493642812686D-01
200  1.9900000000000D+00 -1.4633575156900D-01  1.1763838041566D-01
201  2.0000000000000D+00 -1.4088031786200D-01  1.0137349592500D-01
202  2.0100000000000D+00 -1.3539972749862D-01  8.6141536691239D-02
203  2.0200000000000D+00 -1.2990959772345D-01  7.1938493835620D-02
204  2.0300000000000D+00 -1.2442487226090D-01  5.8756629916256D-02
205  2.0400000000000D+00 -1.1895978880965D-01  4.6584528884513D-02
206  2.0500000000000D+00 -1.1352785445205D-01  3.5407176846561D-02
207  2.0600000000000D+00 -1.0814180647771D-01  2.5205994863110D-02
208  2.0700000000000D+00 -1.0281360773883D-01  1.5958992677526D-02
209  2.0800000000000D+00 -9.7554418122986D-02  7.6408433574670D-03
210  2.0900000000000D+00 -9.2374565266944D-02  2.2296022220517D-04
211  2.1000000000000D+00 -8.7283454642872D-02 -6.3266546350487D-03
212  2.1100000000000D+00 -8.2289709696774D-02 -1.2042733085380D-02
213  2.1200000000000D+00 -7.7401211452523D-02 -1.6962415918675D-02
214  2.1300000000000D+00 -7.2625175987734D-02 -2.1124824478032D-02
215  2.1400000000000D+00 -6.7968217838049D-02 -2.4570702973763D-02
216  2.1500000000000D+00 -6.3436519531717D-02 -2.7341678860827D-02
217  2.1600000000000D+00 -5.9035759856054D-02 -2.9480383642166D-02
218  2.1700000000000D+00 -5.4771132951203D-02 -3.1030264271898D-02
219  2.1800000000000D+00 -5.0647358773550D-02 -3.2035421282788D-02
220  2.1900000000000D+00 -4.6668721502458D-02 -3.2540341109813D-02
221  2.2000000000000D+00 -4.2839075705622D-02 -3.2589753170220D-02
222  2.2100000000000D+00 -3.9161869406537D-02 -3.2228426157277D-02
223  2.2200000000000D+00 -3.5640162514417D-02 -3.1500983847723D-02
224  2.2300000000000D+00 -3.2276645638035D-02 -3.0451722291794D-02
225  2.2400000000000D+00 -2.9073658935651D-02 -2.9124430202920D-02
226  2.2500000000000D+00 -2.6033210880908D-02 -2.7562212761353D-02
227  2.2600000000000D+00 -2.3156996685328D-02 -2.5807320556550D-02
228  2.2700000000000D+00 -2.0446416326283D-02 -2.3900983972081D-02
229  2.2800000000000D+00 -1.7902592252280D-02 -2.1883252519093D-02
230  2.2900000000000D+00 -1.5526386331215D-02 -1.9792841950733D-02
231  2.3000000000000D+00 -1.3318416279985D-02 -1.7666987578864D-02
232  2.3100000000000D+00 -1.1279071416711D-02 -1.5541304818407D-02
233  2.3200000000000D+00 -9.4085274144812D-03 -1.3449659020520D-02
234  2.3300000000000D+00 -7.7067603898794D-03 -1.1424042437700D-02
235  2.3400000000000D+00 -6.1735599572512D-03 -9.4944606850001D-03
236  2.3500000000000D+00 -4.8092664096465D-03 -7.6908865332786D-03
237  2.3600000000000D+00 -3.6122090564235D-03 -6.0358664019141D-03
238  2.3700000000000D+00 -2.5808473802223D-03 -4.5504824551201D-03
239  2.3800000000000D+00 -1.7119285598355D-03 -3.2453856765831D-03
240  2.3900000000000D+00 -1.0116009585081D-03 -2.1662659153044D-03
241  2.4000000000000D+00 -4.8234209882232D-04 -1.3429921528626D-03
242  2.4100000000000D+00 -1.2132774111676D-04 -8.0018310748661D-04
243  2.4200000000000D+00  8.5279665218389D-05 -4.6442627210023D-04
244  2.4300000000000D+00  1.5882105864699D-04 -2.6459393956682D-04
245  2.4400000000000D+00  1.2826333319362D-04 -1.2546096280864D-04
246  2.4500000000000D+00  5.4084550187659D-05 -3.8739150669929D-05
247  2.4600000000000D+00 -1.0103222105083D-05  6.3325654643568D-06
248  2.4700000000000D+00 -2.6786306598627D-05  1.4225328124569D-05
249  2.4800000000000D+00 -1.5377973603881D-05  7.1816791970205D-06
250  2.4900000000000D+00  2.1766228800363D-06 -1.6514290505074D-06
251  2.5000000000000D+00  5.5864614464015D-06 -4.0179817387143D-06
252  2.5100000000000D+00  3.3636655343884D-06 -2.3127277498614D-06
253  2.5200000000000D+00 -1.7101493144489D-07  3.2552576399619D-07
254  2.5300000000000D+00 -4.3900748140513D-07  8.3564776816287D-07
255  2.5400000000000D+00 -2.7546480997370D-07  5.2434540050470D-07
256  2.5500000000000D+00  0.0000000000000D+00  0.0000000000000D+00
257  2.5600000000000D+00  0.0000000000000D+00  0.0000000000000D+00
258  2.5700000000000D+00  0.0000000000000D+00  0.0000000000000D+00
259  2.5800000000000D+00  0.0000000000000D+00  0.0000000000000D+00
260  2.5900000000000D+00  0.0000000000000D+00  0.0000000000000D+00
261  2.6000000000000D+00  0.0000000000000D+00  0.0000000000000D+00
262  2.6100000000000D+00  0.0000000000000D+00  0.0000000000000D+00
263  2.6200000000000D+00  0.0000000000000D+00  0.0000000000000D+00
264  2.6300000000000D+00  0.0000000000000D+00  0.0000000000000D+00
265  2.6400000000000D+00  0.0000000000000D+00  0.0000000000000D+00
266  2.6500000000000D+00  0.0000000000000D+00  0.0000000000000D+00
267  2.6600000000000D+00  0.0000000000000D+00  0.0000000000000D+00
268  2.6700000000000D+00  0.0000000000000D+00  0.0000000000000D+00
269  2.6800000000000D+00  0.0000000000000D+00  0.0000000000000D+00
270  2.6900000000000D+00  0.0000000000000D+00  0.0000000000000D+00
271  2.7000000000000D+00  0.0000000000000D+00  0.0000000000000D+00
272  2.7100000000000D+00  0.0000000000000D+00  0.0000000000000D+00
273  2.7200000000000D+00  0.0000000000000D+00  0.0000000000000D+00
274  2.7300000000000D+00  0.0000000000000D+00  0.0000000000000D+00
275  2.7400000000000D+00  0.0000000000000D+00  0.0000000000000D+00
276  2.7500000000000D+00  0.0000000000000D+00  0.0000000000000D+00
277  2.7600000000000D+00  0.0000000000000D+00  0.0000000000000D+00
278  2.7700000000000D+00  0.0000000000000D+00  0.0000000000000D+00
279  2.7800000000000D+00  0.0000000000000D+00  0.0000000000000D+00
280  2.7900000000000D+00  0.0000000000000D+00  0.0000000000000D+00
281  2.8000000000000D+00  0.0000000000000D+00  0.0000000000000D+00
282  2.8100000000000D+00  0.0000000000000D+00  0.0000000000000D+00
283  2.8200000000000D+00  0.0000000000000D+00  0.0000000000000D+00
284  2.8300000000000D+00  0.0000000000000D+00  0.0000000000000D+00
285  2.8400000000000D+00  0.0000000000000D+00  0.0000000000000D+00
286  2.8500000000000D+00  0.0000000000000D+00  0.0000000000000D+00
287  2.8600000000000D+00  0.0000000000000D+00  0.0000000000000D+00
288  2.8700000000000D+00  0.0000000000000D+00  0.0000000000000D+00
289  2.8800000000000D+00  0.0000000000000D+00  0.0000000000000D+00
290  2.8900000000000D+00  0.0000000000000D+00  0.0000000000000D+00
291  2.9000000000000D+00  0.0000000000000D+00  0.0000000000000D+00
292  2.9100000000000D+00  0.0000000000000D+00  0.0000000000000D+00
293  2.9200000000000D+00  0.0000000000000D+00  0.0000000000000D+00
294  2.9300000000000D+00  0.0000000000000D+00  0.0000000000000D+00
295  2.9400000000000D+00  0.0000000000000D+00  0.0000000000000D+00
296  2.9500000000000D+00  0.0000000000000D+00  0.0000000000000D+00
297  2.9600000000000D+00  0.0000000000000D+00  0.0000000000000D+00
298  2.9700000000000D+00  0.0000000000000D+00  0.0000000000000D+00
299  2.9800000000000D+00  0.0000000000000D+00  0.0000000000000D+00
300  2.9900000000000D+00  0.0000000000000D+00  0.0000000000000D+00
301  3.0000000000000D+00  0.0000000000000D+00  0.0000000000000D+00
302  3.0100000000000D+00  0.0000000000000D+00  0.0000000000000D+00
303  3.0200000000000D+00  0.0000000000000D+00  0.0000000000000D+00
304  3.0300000000000D+00  0.0000000000000D+00  0.0000000000000D+00
305  3.0400000000000D+00  0.0000000000000D+00  0.0000000000000D+00
306  3.0500000000000D+00  0.0000000000000D+00  0.0000000000000D+00
307  3.0600000000000D+00  0.0000000000000D+00  0.0000000000000D+00
308  3.0700000000000D+00  0.0000000000000D+00  0.0000000000000D+00
309  3.0800000000000D+00  0.0000000000000D+00  0.0000000000000D+00
310  3.0900000000000D+00  0.0000000000000D+00  0.0000000000000D+00
311  3.1000000000000D+00  0.0000000000000D+00  0.0000000000000D+00
312  3.1100000000000D+00  0.0000000000000D+00  0.0000000000000D+00
313  3.1200000000000D+00  0.0000000000000D+00  0.0000000000000D+00
314  3.1300000000000D+00  0.0000000000000D+00  0.0000000000000D+00
315  3.1400000000000D+00  0.0000000000000D+00  0.0000000000000D+00
316  3.1500000000000D+00  0.0000000000000D+00  0.0000000000000D+00
317  3.1600000000000D+00  0.0000000000000D+00  0.0000000000000D+00
318  3.1700000000000D+00  0.0000000000000D+00  0.0000000000000D+00
319  3.1800000000000D+00  0.0000000000000D+00  0.0000000000000D+00
320  3.1900000000000D+00  0.0000000000000D+00  0.0000000000000D+00
321  3.2000000000000D+00  0.0000000000000D+00  0.0000000000000D+00
322  3.2100000000000D+00  0.0000000000000D+00  0.0000000000000D+00
323  3.2200000000000D+00  0.0000000000000D+00  0.0000000000000D+00
324  3.2300000000000D+00  0.0000000000000D+00  0.0000000000000D+00
325  3.2400000000000D+00  0.0000000000000D+00  0.0000000000000D+00
326  3.2500000000000D+00  0.0000000000000D+00  0.0000000000000D+00
327  3.2600000000000D+00  0.0000000000000D+00  0.0000000000000D+00
328  3.2700000000000D+00  0.0000000000000D+00  0.0000000000000D+00
329  3.2800000000000D+00  0.0000000000000D+00  0.0000000000000D+00
330  3.2900000000000D+00  0.0000000000000D+00  0.0000000000000D+00
331  3.3000000000000D+00  0.0000000000000D+00  0.0000000000000D+00
332  3.3100000000000D+00  0.0000000000000D+00  0.0000000000000D+00
333  3.3200000000000D+00  0.0000000000000D+00  0.0000000000000D+00
334  3.3300000000000D+00  0.0000000000000D+00  0.0000000000000D+00
335  3.3400000000000D+00  0.0000000000000D+00  0.0000000000000D+00
336  3.3500000000000D+00  0.0000000000000D+00  0.0000000000000D+00
337  3.3600000000000D+00  0.0000000000000D+00  0.0000000000000D+00
338  3.3700000000000D+00  0.0000000000000D+00  0.0000000000000D+00
339  3.3800000000000D+00  0.0000000000000D+00  0.0000000000000D+00
340  3.3900000000000D+00  0.0000000000000D+00  0.0000000000000D+00
341  3.4000000000000D+00  0.0000000000000D+00  0.0000000000000D+00
342  3.4100000000000D+00  0.0000000000000D+00  0.0000000000000D+00
343  3.4200000000000D+00  0.0000000000000D+00  0.0000000000000D+00
344  3.4300000000000D+00  0.0000000000000D+00  0.0000000000000D+00
345  3.4400000000000D+00  0.0000000000000D+00  0.0000000000000D+00
346  3.4500000000000D+00  0.0000000000000D+00  0.0000000000000D+00
347  3.4600000000000D+00  0.0000000000000D+00  0.0000000000000D+00
348  3.4700000000000D+00  0.0000000000000D+00  0.0000000000000D+00
349  3.4800000000000D+00  0.0000000000000D+00  0.0000000000000D+00
350  3.4900000000000D+00  0.0000000000000D+00  0.0000000000000D+00
351  3.5000000000000D+00  0.0000000000000D+00  0.0000000000000D+00
352  3.5100000000000D+00  0.0000000000000D+00  0.0000000000000D+00
353  3.5200000000000D+00  0.0000000000000D+00  0.0000000000000D+00
354  3.5300000000000D+00  0.0000000000000D+00  0.0000000000000D+00
355  3.5400000000000D+00  0.0000000000000D+00  0.0000000000000D+00
356  3.5500000000000D+00  0.0000000000000D+00  0.0000000000000D+00
357  3.5600000000000D+00  0.0000000000000D+00  0.0000000000000D+00
358  3.5700000000000D+00  0.0000000000000D+00  0.0000000000000D+00
359  3.5800000000000D+00  0.0000000000000D+00  0.0000000000000D+00
360  3.5900000000000D+00  0.0000000000000D+00  0.0000000000000D+00
361  3.6000000000000D+00  0.0000000000000D+00  0.0000000000000D+00
362  3.6100000000000D+00  0.0000000000000D+00  0.0000000000000D+00
363  3.6200000000000D+00  0.0000000000000D+00  0.0000000000000D+00
364  3.6300000000000D+00  0.0000000000000D+00  0.0000000000000D+00
365  3.6400000000000D+00  0.0000000000000D+00  0.0000000000000D+00
366  3.6500000000000D+00  0.0000000000000D+00  0.0000000000000D+00
367  3.6600000000000D+00  0.0000000000000D+00  0.0000000000000D+00
368  3.6700000000000D+00  0.0000000000000D+00  0.0000000000000D+00
369  3.6800000000000D+00  0.0000000000000D+00  0.0000000000000D+00
370  3.6900000000000D+00  0.0000000000000D+00  0.0000000000000D+00
371  3.7000000000000D+00  0.0000000000000D+00  0.0000000000000D+00
372  3.7100000000000D+00  0.0000000000000D+00  0.0000000000000D+00
373  3.7200000000000D+00  0.0000000000000D+00  0.0000000000000D+00
374  3.7300000000000D+00  0.0000000000000D+00  0.0000000000000D+00
375  3.7400000000000D+00  0.0000000000000D+00  0.0000000000000D+00
376  3.7500000000000D+00  0.0000000000000D+00  0.0000000000000D+00
377  3.7600000000000D+00  0.0000000000000D+00  0.0000000000000D+00
378  3.7700000000000D+00  0.0000000000000D+00  0.0000000000000D+00
379  3.7800000000000D+00  0.0000000000000D+00  0.0000000000000D+00
380  3.7900000000000D+00  0.0000000000000D+00  0.0000000000000D+00
381  3.8000000000000D+00  0.0000000000000D+00  0.0000000000000D+00
382  3.8100000000000D+00  0.0000000000000D+00  0.0000000000000D+00
383  3.8200000000000D+00  0.0000000000000D+00  0.0000000000000D+00
384  3.8300000000000D+00  0.0000000000000D+00  0.0000000000000D+00
385  3.8400000000000D+00  0.0000000000000D+00  0.0000000000000D+00
386  3.8500000000000D+00  0.0000000000000D+00  0.0000000000000D+00
387  3.8600000000000D+00  0.0000000000000D+00  0.0000000000000D+00
388  3.8700000000000D+00  0.0000000000000D+00  0.0000000000000D+00
389  3.8800000000000D+00  0.0000000000000D+00  0.0000000000000D+00
390  3.8900000000000D+00  0.0000000000000D+00  0.0000000000000D+00
391  3.9000000000000D+00  0.0000000000000D+00  0.0000000000000D+00
392  3.9100000000000D+00  0.0000000000000D+00  0.0000000000000D+00
393  3.9200000000000D+00  0.0000000000000D+00  0.0000000000000D+00
394  3.9300000000000D+00  0.0000000000000D+00  0.0000000000000D+00
395  3.9400000000000D+00  0.0000000000000D+00  0.0000000000000D+00
396  3.9500000000000D+00  0.0000000000000D+00  0.0000000000000D+00
397  3.9600000000000D+00  0.0000000000000D+00  0.0000000000000D+00
398  3.9700000000000D+00  0.0000000000000D+00  0.0000000000000D+00
399  3.9800000000000D+00  0.0000000000000D+00  0.0000000000000D+00
400  3.9900000000000D+00  0.0000000000000D+00  0.0000000000000D+00
401  4.0000000000000D+00  0.0000000000000D+00  0.0000000000000D+00
402  4.0100000000000D+00  0.0000000000000D+00  0.0000000000000D+00
403  4.0200000000000D+00  0.0000000000000D+00  0.0000000000000D+00
404  4.0300000000000D+00  0.0000000000000D+00  0.0000000000000D+00
405  4.0400000000000D+00  0.0000000000000D+00  0.0000000000000D+00
406  4.0500000000000D+00  0.0000000000000D+00  0.0000000000000D+00
407  4.0600000000000D+00  0.0000000000000D+00  0.0000000000000D+00
408  4.0700000000000D+00  0.0000000000000D+00  0.0000000000000D+00
409  4.0800000000000D+00  0.0000000000000D+00  0.0000000000000D+00
410  4.0900000000000D+00  0.0000000000000D+00  0.0000000000000D+00
411  4.1000000000000D+00  0.0000000000000D+00  0.0000000000000D+00
412  4.1100000000000D+00  0.0000000000000D+00  0.0000000000000D+00
413  4.1200000000000D+00  0.0000000000000D+00  0.0000000000000D+00
414  4.1300000000000D+00  0.0000000000000D+00  0.0000000000000D+00
415  4.1400000000000D+00  0.0000000000000D+00  0.0000000000000D+00
416  4.1500000000000D+00  0.0000000000000D+00  0.0000000000000D+00
417  4.1600000000000D+00  0.0000000000000D+00  0.0000000000000D+00
418  4.1700000000000D+00  0.0000000000000D+00  0.0000000000000D+00
419  4.1800000000000D+00  0.0000000000000D+00  0.0000000000000D+00
420  4.1900000000000D+00  0.0000000000000D+00  0.0000000000000D+00
421  4.2000000000000D+00  0.0000000000000D+00  0.0000000000000D+00
422  4.2100000000000D+00  0.0000000000000D+00  0.0000000000000D+00
423  4.2200000000000D+00  0.0000000000000D+00  0.0000000000000D+00
424  4.2300000000000D+00  0.0000000000000D+00  0.0000000000000D+00
425  4.2400000000000D+00  0.0000000000000D+00  0.0000000000000D+00
426  4.2500000000000D+00  0.0000000000000D+00  0.0000000000000D+00
427  4.2600000000000D+00  0.0000000000000D+00  0.0000000000000D+00
428  4.2700000000000D+00  0.0000000000000D+00  0.0000000000000D+00
429  4.2800000000000D+00  0.0000000000000D+00  0.0000000000000D+00
430  4.2900000000000D+00  0.0000000000000D+00  0.0000000000000D+00
431  4.3000000000000D+00  0.0000000000000D+00  0.0000000000000D+00
432  4.3100000000000D+00  0.0000000000000D+00  0.0000000000000D+00
433  4.3200000000000D+00  0.0000000000000D+00  0.0000000000000D+00
434  4.3300000000000D+00  0.0000000000000D+00  0.0000000000000D+00
435  4.3400000000000D+00  0.0000000000000D+00  0.0000000000000D+00
436  4.3500000000000D+00  0.0000000000000D+00  0.0000000000000D+00
437  4.3600000000000D+00  0.0000000000000D+00  0.0000000000000D+00
438  4.3700000000000D+00  0.0000000000000D+00  0.0000000000000D+00
439  4.3800000000000D+00  0.0000000000000D+00  0.0000000000000D+00
440  4.3900000000000D+00  0.0000000000000D+00  0.0000000000000D+00
441  4.4000000000000D+00  0.0000000000000D+00  0.0000000000000D+00
442  4.4100000000000D+00  0.0000000000000D+00  0.0000000000000D+00
443  4.4200000000000D+00  0.0000000000000D+00  0.0000000000000D+00
444  4.4300000000000D+00  0.0000000000000D+00  0.0000000000000D+00