Pb    ONCVPSP  r_core=  1.40  1.51  1.40
82.0000     22.0000      161218    zatom,zion,pspd
8 -116133   2     4   600     0    pspcod,pspxc,lmax,lloc,mmax,r2well
5.99000000  6.00000000  0.00000000    rchrg fchrg qchrg
2     2     2     0     0    nproj
1                 extension_switch
0                         1.6801423831297D+01  2.1537327777897D+00
1  0.0000000000000D+00 -7.0123273854250D-10  2.0164762082331D-09
2  1.0000000000000D-02  8.3534185882183D-02 -2.6011075752636D-02
3  2.0000000000000D-02  1.6683812466834D-01 -5.1769955884231D-02
4  3.0000000000000D-02  2.4968267436616D-01 -7.7026837829405D-02
5  4.0000000000000D-02  3.3184089140683D-01 -1.0153667172241D-01
6  5.0000000000000D-02  4.1308910057951D-01 -1.2506145374157D-01
7  6.0000000000000D-02  4.9320793034067D-01 -1.4737242130598D-01
8  7.0000000000000D-02  5.7198330279454D-01 -1.6825211981615D-01
9  8.0000000000000D-02  6.4920736834190D-01 -1.8749631264648D-01
10  9.0000000000000D-02  7.2467937585030D-01 -2.0491570855997D-01
11  1.0000000000000D-01  7.9820647019563D-01 -2.2033748358608D-01
12  1.1000000000000D-01  8.6960441014701D-01 -2.3360657763780D-01
13  1.2000000000000D-01  9.3869820079732D-01 -2.4458674969372D-01
14  1.3000000000000D-01  1.0053226360592D+00 -2.5316137918078D-01
15  1.4000000000000D-01  1.0693227481323D+00 -2.5923400520449D-01
16  1.5000000000000D-01  1.1305541622779D+00 -2.6272859942340D-01
17  1.6000000000000D-01  1.1888833566891D+00 -2.6358957258840D-01
18  1.7000000000000D-01  1.2441878286968D+00 -2.6178151899967D-01
19  1.8000000000000D-01  1.2963561699765D+00 -2.5728870730625D-01
20  1.9000000000000D-01  1.3452880548002D+00 -2.5011433012038D-01
21  2.0000000000000D-01  1.3908941466814D+00 -2.4027952877481D-01
22  2.1000000000000D-01  1.4330959299754D+00 -2.2782221315380D-01
23  2.2000000000000D-01  1.4718254740948D+00 -2.1279569981803D-01
24  2.3000000000000D-01  1.5070251389651D+00 -1.9526719456576D-01
25  2.4000000000000D-01  1.5386472311598D+00 -1.7531614807560D-01
26  2.5000000000000D-01  1.5666536208033D+00 -1.5303251531903D-01
27  2.6000000000000D-01  1.5910153298019D+00 -1.2851495097296D-01
28  2.7000000000000D-01  1.6117121022443D+00 -1.0186897407726D-01
29  2.8000000000000D-01  1.6287319679052D+00 -7.3205135645045D-02
30  2.9000000000000D-01  1.6420708096723D+00 -4.2637222833301D-02
31  3.0000000000000D-01  1.6517319454103D+00 -1.0280532610490D-02
32  3.1000000000000D-01  1.6577257342708D+00  2.3749753375647D-02
33  3.2000000000000D-01  1.6600692167581D+00  5.9340062814300D-02
34  3.3000000000000D-01  1.6587857969885D+00  9.6379768031410D-02
35  3.4000000000000D-01  1.6539049745288D+00  1.3476233778732D-01
36  3.5000000000000D-01  1.6454621320033D+00  1.7438628406075D-01
37  3.6000000000000D-01  1.6334983833207D+00  2.1515588599293D-01
38  3.7000000000000D-01  1.6180604859189D+00  2.5698167720987D-01
39  3.8000000000000D-01  1.5992008188868D+00  2.9978068707949D-01
40  3.9000000000000D-01  1.5769774272050D+00  3.4347643102864D-01
41  4.0000000000000D-01  1.5514541307014D+00  3.8799864977040D-01
42  4.1000000000000D-01  1.5227006946523D+00  4.3328280209726D-01
43  4.2000000000000D-01  1.4907930573097D+00  4.7926932070410D-01
44  4.3000000000000D-01  1.4558136080395D+00  5.2590264523467D-01
45  4.4000000000000D-01  1.4178515082233D+00  5.7313005131653D-01
46  4.5000000000000D-01  1.3770030456551D+00  6.2090029868256D-01
47  4.6000000000000D-01  1.3333720118745D+00  6.6916212549489D-01
48  4.7000000000000D-01  1.2870700907370D+00  7.1786261961541D-01
49  4.8000000000000D-01  1.2382172455753D+00  7.6694550073708D-01
50  4.9000000000000D-01  1.1869420915504D+00  8.1634934993918D-01
51  5.0000000000000D-01  1.1333822392647D+00  8.6600582530115D-01
52  5.1000000000000D-01  1.0776845954206D+00  9.1583790365545D-01
53  5.2000000000000D-01  1.0200056062673D+00  9.6575818934447D-01
54  5.3000000000000D-01  9.6051142979942D-01  1.0156673309350D+00
55  5.4000000000000D-01  8.9937802315365D-01  1.0654525862256D+00
56  5.5000000000000D-01  8.3679113239678D-01  1.1149865745463D+00
57  5.6000000000000D-01  7.7294617290672D-01  1.1641262532968D+00
58  5.7000000000000D-01  7.0804798980282D-01  1.2127121529328D+00
59  5.8000000000000D-01  6.4231048938340D-01  1.2605679011832D+00
60  5.9000000000000D-01  5.7595613423877D-01  1.3075000632614D+00
61  6.0000000000000D-01  5.0921529663450D-01  1.3532983201878D+00
62  6.1000000000000D-01  4.4232546684140D-01  1.3977360022401D+00
63  6.2000000000000D-01  3.7553031533696D-01  1.4405709889389D+00
64  6.3000000000000D-01  3.0907861014809D-01  1.4815469810584D+00
65  6.4000000000000D-01  2.4322299303757D-01  1.5203951439283D+00
66  6.5000000000000D-01  1.7821862071578D-01  1.5568361148845D+00
67  6.6000000000000D-01  1.1432167972694D-01  1.5905823612732D+00
68  6.7000000000000D-01  5.1787786106823D-02  1.6213408689373D+00
69  6.8000000000000D-01 -9.1297167291096D-03  1.6488161347985D+00
70  6.9000000000000D-01 -6.8181546163343D-02  1.6727134310560D+00
71  7.0000000000000D-01 -1.2512433683023D-01  1.6927423027891D+00
72  7.1000000000000D-01 -1.7972254565610D-01  1.7086202554216D+00
73  7.2000000000000D-01 -2.3175038414068D-01  1.7200765837632D+00
74  7.3000000000000D-01 -2.8099375513585D-01  1.7268562901982D+00
75  7.4000000000000D-01 -3.2725217027905D-01  1.7287240361845D+00
76  7.5000000000000D-01 -3.7034062345805D-01  1.7254680685850D+00
77  7.6000000000000D-01 -4.1009139525035D-01  1.7169040605824D+00
78  7.7000000000000D-01 -4.4635576320651D-01  1.7028788060459D+00
79  7.8000000000000D-01 -4.7900559314605D-01  1.6832737062815D+00
80  7.9000000000000D-01 -5.0793478731237D-01  1.6580079891139D+00
81  8.0000000000000D-01 -5.3306056629108D-01  1.6270416022395D+00
82  8.1000000000000D-01 -5.5432456302795D-01  1.5903777257386D+00
83  8.2000000000000D-01 -5.7169370907668D-01  1.5480648525202D+00
84  8.3000000000000D-01 -5.8516089534598D-01  1.5001983902635D+00
85  8.4000000000000D-01 -5.9474539207685D-01  1.4469217440503D+00
86  8.5000000000000D-01 -6.0049301553279D-01  1.3884268452897D+00
87  8.6000000000000D-01 -6.0247603189840D-01  1.3249540996435D+00
88  8.7000000000000D-01 -6.0079279211599D-01  1.2567917343722D+00
89  8.8000000000000D-01 -5.9556709479126D-01  1.1842745337007D+00
90  8.9000000000000D-01 -5.8694727784033D-01  1.1077819593959D+00
91  9.0000000000000D-01 -5.7510504316417D-01  1.0277356625634D+00
92  9.1000000000000D-01 -5.6023402227775D-01  9.4459640161945D-01
93  9.2000000000000D-01 -5.4254809443543D-01  8.5886039032306D-01
94  9.3000000000000D-01 -5.2227947232589D-01  7.7105510852770D-01
95  9.4000000000000D-01 -4.9967657380495D-01  6.8173461679442D-01
96  9.5000000000000D-01 -4.7500170133857D-01  5.9147442405823D-01
97  9.6000000000000D-01 -4.4852855379145D-01  5.0086596502893D-01
98  9.7000000000000D-01 -4.2053959786739D-01  4.1051075080724D-01
99  9.8000000000000D-01 -3.9132332884210D-01  3.2101426218742D-01
100  9.9000000000000D-01 -3.6117145219410D-01  2.3297966021871D-01
101  1.0000000000000D+00 -3.3037601926199D-01  1.4700139261424D-01
102  1.0100000000000D+00 -2.9922655118035D-01  6.3658777636906D-02
103  1.0200000000000D+00 -2.6800718597459D-01 -1.6490351081803D-02
104  1.0300000000000D+00 -2.3699388383210D-01 -9.2915854736376D-02
105  1.0400000000000D+00 -2.0645172523573D-01 -1.6512127105878D-01
106  1.0500000000000D+00 -1.7663233576646D-01 -2.3264948597220D-01
107  1.0600000000000D+00 -1.4777147006549D-01 -2.9508801663866D-01
108  1.0700000000000D+00 -1.2008678569581D-01 -3.5207383146036D-01
109  1.0800000000000D+00 -9.3775835222935D-02 -4.0329763837433D-01
110  1.0900000000000D+00 -6.9014302270124D-02 -4.4850757895507D-01
111  1.1000000000000D+00 -4.5954503956636D-02 -4.8751227395509D-01
112  1.1100000000000D+00 -2.4724179050486D-02 -5.2018317340584D-01
113  1.1200000000000D+00 -5.4255770846857D-03 -5.4645617438031D-01
114  1.1300000000000D+00  1.1865140305626D-02 -5.6633247931634D-01
115  1.1400000000000D+00  2.7098178903625D-02 -5.7987867846688D-01
116  1.1500000000000D+00  4.0250069421412D-02 -5.8722605003515D-01
117  1.1600000000000D+00  5.1323304702425D-02 -5.8856908283094D-01
118  1.1700000000000D+00  6.0345663126109D-02 -5.8416323818361D-01
119  1.1800000000000D+00  6.7369229142285D-02 -5.7432197879087D-01
120  1.1900000000000D+00  7.2469125157659D-02 -5.5941310034644D-01
121  1.2000000000000D+00  7.5741974475494D-02 -5.3985441538433D-01
122  1.2100000000000D+00  7.7304118341064D-02 -5.1610884710601D-01
123  1.2200000000000D+00  7.7289613519222D-02 -4.8867899933378D-01
124  1.2300000000000D+00  7.5848039796205D-02 -4.5810127610477D-01
125  1.2400000000000D+00  7.3142150755887D-02 -4.2493963425489D-01
126  1.2500000000000D+00  6.9345402503292D-02 -3.8977905561059D-01
127  1.2600000000000D+00  6.4639396710326D-02 -3.5321882965312D-01
128  1.2700000000000D+00  5.9211280936858D-02 -3.1586575541473D-01
129  1.2800000000000D+00  5.3251140028930D-02 -2.7832734415027D-01
130  1.2900000000000D+00  4.6949341859145D-02 -2.4120490719263D-01
131  1.3000000000000D+00  4.0494084863071D-02 -2.0508721018843D-01
132  1.3100000000000D+00  3.4069509787117D-02 -1.7054576375956D-01
133  1.3200000000000D+00  2.7850535359856D-02 -1.3812055306793D-01
134  1.3300000000000D+00  2.1997820143767D-02 -1.0830624923242D-01
135  1.3400000000000D+00  1.6652457285416D-02 -8.1537802666149D-02
136  1.3500000000000D+00  1.1933848051254D-02 -5.8185210431125D-02
137  1.3600000000000D+00  7.9408354047558D-03 -3.8562424384704D-02
138  1.3700000000000D+00  4.7366707334083D-03 -2.2859213268308D-02
139  1.3800000000000D+00  2.3592600060989D-03 -1.1195820563616D-02
140  1.3900000000000D+00  9.1459898687460D-04 -4.0392062798326D-03
141  1.4000000000000D+00  2.8070139697689D-04 -8.8633245501703D-04
142  1.4100000000000D+00  5.8901515649183D-05 -9.4494998400445D-06
143  1.4200000000000D+00 -6.2002769001695D-07 -2.6952941737580D-06
144  1.4300000000000D+00 -2.0259132487019D-06 -3.3771196360223D-05
145  1.4400000000000D+00  1.0340230132805D-06  2.4492842558231D-06
146  1.4500000000000D+00  7.8054509054702D-07  2.9272641078793D-06
147  1.4600000000000D+00 -5.1962672642463D-07  1.3155803380752D-06
148  1.4700000000000D+00 -1.2432186287776D-07  3.1475555447316D-07
149  1.4800000000000D+00  0.0000000000000D+00  0.0000000000000D+00
150  1.4900000000000D+00  0.0000000000000D+00  0.0000000000000D+00
151  1.5000000000000D+00  0.0000000000000D+00  0.0000000000000D+00
152  1.5100000000000D+00  0.0000000000000D+00  0.0000000000000D+00
153  1.5200000000000D+00  0.0000000000000D+00  0.0000000000000D+00
154  1.5300000000000D+00  0.0000000000000D+00  0.0000000000000D+00
155  1.5400000000000D+00  0.0000000000000D+00  0.0000000000000D+00
156  1.5500000000000D+00  0.0000000000000D+00  0.0000000000000D+00
157  1.5600000000000D+00  0.0000000000000D+00  0.0000000000000D+00
158  1.5700000000000D+00  0.0000000000000D+00  0.0000000000000D+00
159  1.5800000000000D+00  0.0000000000000D+00  0.0000000000000D+00
160  1.5900000000000D+00  0.0000000000000D+00  0.0000000000000D+00
161  1.6000000000000D+00  0.0000000000000D+00  0.0000000000000D+00
162  1.6100000000000D+00  0.0000000000000D+00  0.0000000000000D+00
163  1.6200000000000D+00  0.0000000000000D+00  0.0000000000000D+00
164  1.6300000000000D+00  0.0000000000000D+00  0.0000000000000D+00
165  1.6400000000000D+00  0.0000000000000D+00  0.0000000000000D+00
166  1.6500000000000D+00  0.0000000000000D+00  0.0000000000000D+00
167  1.6600000000000D+00  0.0000000000000D+00  0.0000000000000D+00
168  1.6700000000000D+00  0.0000000000000D+00  0.0000000000000D+00
169  1.6800000000000D+00  0.0000000000000D+00  0.0000000000000D+00
170  1.6900000000000D+00  0.0000000000000D+00  0.0000000000000D+00
171  1.7000000000000D+00  0.0000000000000D+00  0.0000000000000D+00
172  1.7100000000000D+00  0.0000000000000D+00  0.0000000000000D+00
173  1.7200000000000D+00  0.0000000000000D+00  0.0000000000000D+00
174  1.7300000000000D+00  0.0000000000000D+00  0.0000000000000D+00
175  1.7400000000000D+00  0.0000000000000D+00  0.0000000000000D+00
176  1.7500000000000D+00  0.0000000000000D+00  0.0000000000000D+00
177  1.7600000000000D+00  0.0000000000000D+00  0.0000000000000D+00
178  1.7700000000000D+00  0.0000000000000D+00  0.0000000000000D+00
179  1.7800000000000D+00  0.0000000000000D+00  0.0000000000000D+00
180  1.7900000000000D+00  0.0000000000000D+00  0.0000000000000D+00
181  1.8000000000000D+00  0.0000000000000D+00  0.0000000000000D+00
182  1.8100000000000D+00  0.0000000000000D+00  0.0000000000000D+00
183  1.8200000000000D+00  0.0000000000000D+00  0.0000000000000D+00
184  1.8300000000000D+00  0.0000000000000D+00  0.0000000000000D+00
185  1.8400000000000D+00  0.0000000000000D+00  0.0000000000000D+00
186  1.8500000000000D+00  0.0000000000000D+00  0.0000000000000D+00
187  1.8600000000000D+00  0.0000000000000D+00  0.0000000000000D+00
188  1.8700000000000D+00  0.0000000000000D+00  0.0000000000000D+00
189  1.8800000000000D+00  0.0000000000000D+00  0.0000000000000D+00
190  1.8900000000000D+00  0.0000000000000D+00  0.0000000000000D+00
191  1.9000000000000D+00  0.0000000000000D+00  0.0000000000000D+00
192  1.9100000000000D+00  0.0000000000000D+00  0.0000000000000D+00
193  1.9200000000000D+00  0.0000000000000D+00  0.0000000000000D+00
194  1.9300000000000D+00  0.0000000000000D+00  0.0000000000000D+00
195  1.9400000000000D+00  0.0000000000000D+00  0.0000000000000D+00
196  1.9500000000000D+00  0.0000000000000D+00  0.0000000000000D+00
197  1.9600000000000D+00  0.0000000000000D+00  0.0000000000000D+00
198  1.9700000000000D+00  0.0000000000000D+00  0.0000000000000D+00
199  1.9800000000000D+00  0.0000000000000D+00  0.0000000000000D+00
200  1.9900000000000D+00  0.0000000000000D+00  0.0000000000000D+00
201  2.0000000000000D+00  0.0000000000000D+00  0.0000000000000D+00
202  2.0100000000000D+00  0.0000000000000D+00  0.0000000000000D+00
203  2.0200000000000D+00  0.0000000000000D+00  0.0000000000000D+00
204  2.0300000000000D+00  0.0000000000000D+00  0.0000000000000D+00
205  2.0400000000000D+00  0.0000000000000D+00  0.0000000000000D+00
206  2.0500000000000D+00  0.0000000000000D+00  0.0000000000000D+00
207  2.0600000000000D+00  0.0000000000000D+00  0.0000000000000D+00
208  2.0700000000000D+00  0.0000000000000D+00  0.0000000000000D+00
209  2.0800000000000D+00  0.0000000000000D+00  0.0000000000000D+00
210  2.0900000000000D+00  0.0000000000000D+00  0.0000000000000D+00
211  2.1000000000000D+00  0.0000000000000D+00  0.0000000000000D+00
212  2.1100000000000D+00  0.0000000000000D+00  0.0000000000000D+00
213  2.1200000000000D+00  0.0000000000000D+00  0.0000000000000D+00
214  2.1300000000000D+00  0.0000000000000D+00  0.0000000000000D+00
215  2.1400000000000D+00  0.0000000000000D+00  0.0000000000000D+00
216  2.1500000000000D+00  0.0000000000000D+00  0.0000000000000D+00
217  2.1600000000000D+00  0.0000000000000D+00  0.0000000000000D+00
218  2.1700000000000D+00  0.0000000000000D+00  0.0000000000000D+00
219  2.1800000000000D+00  0.0000000000000D+00  0.0000000000000D+00
220  2.1900000000000D+00  0.0000000000000D+00  0.0000000000000D+00
221  2.2000000000000D+00  0.0000000000000D+00  0.0000000000000D+00
222  2.2100000000000D+00  0.0000000000000D+00  0.0000000000000D+00
223  2.2200000000000D+00  0.0000000000000D+00  0.0000000000000D+00
224  2.2300000000000D+00  0.0000000000000D+00  0.0000000000000D+00
225  2.2400000000000D+00  0.0000000000000D+00  0.0000000000000D+00
226  2.2500000000000D+00  0.0000000000000D+00  0.0000000000000D+00
227  2.2600000000000D+00  0.0000000000000D+00  0.0000000000000D+00
228  2.2700000000000D+00  0.0000000000000D+00  0.0000000000000D+00
229  2.2800000000000D+00  0.0000000000000D+00  0.0000000000000D+00
230  2.2900000000000D+00  0.0000000000000D+00  0.0000000000000D+00
231  2.3000000000000D+00  0.0000000000000D+00  0.0000000000000D+00
232  2.3100000000000D+00  0.0000000000000D+00  0.0000000000000D+00
233  2.3200000000000D+00  0.0000000000000D+00  0.0000000000000D+00
234  2.3300000000000D+00  0.0000000000000D+00  0.0000000000000D+00
235  2.3400000000000D+00  0.0000000000000D+00  0.0000000000000D+00
236  2.3500000000000D+00  0.0000000000000D+00  0.0000000000000D+00
237  2.3600000000000D+00  0.0000000000000D+00  0.0000000000000D+00
238  2.3700000000000D+00  0.0000000000000D+00  0.0000000000000D+00
239  2.3800000000000D+00  0.0000000000000D+00  0.0000000000000D+00
240  2.3900000000000D+00  0.0000000000000D+00  0.0000000000000D+00
241  2.4000000000000D+00  0.0000000000000D+00  0.0000000000000D+00
242  2.4100000000000D+00  0.0000000000000D+00  0.0000000000000D+00
243  2.4200000000000D+00  0.0000000000000D+00  0.0000000000000D+00
244  2.4300000000000D+00  0.0000000000000D+00  0.0000000000000D+00
245  2.4400000000000D+00  0.0000000000000D+00  0.0000000000000D+00
246  2.4500000000000D+00  0.0000000000000D+00  0.0000000000000D+00
247  2.4600000000000D+00  0.0000000000000D+00  0.0000000000000D+00
248  2.4700000000000D+00  0.0000000000000D+00  0.0000000000000D+00
249  2.4800000000000D+00  0.0000000000000D+00  0.0000000000000D+00
250  2.4900000000000D+00  0.0000000000000D+00  0.0000000000000D+00
251  2.5000000000000D+00  0.0000000000000D+00  0.0000000000000D+00
252  2.5100000000000D+00  0.0000000000000D+00  0.0000000000000D+00
253  2.5200000000000D+00  0.0000000000000D+00  0.0000000000000D+00
254  2.5300000000000D+00  0.0000000000000D+00  0.0000000000000D+00
255  2.5400000000000D+00  0.0000000000000D+00  0.0000000000000D+00
256  2.5500000000000D+00  0.0000000000000D+00  0.0000000000000D+00
257  2.5600000000000D+00  0.0000000000000D+00  0.0000000000000D+00
258  2.5700000000000D+00  0.0000000000000D+00  0.0000000000000D+00
259  2.5800000000000D+00  0.0000000000000D+00  0.0000000000000D+00
260  2.5900000000000D+00  0.0000000000000D+00  0.0000000000000D+00
261  2.6000000000000D+00  0.0000000000000D+00  0.0000000000000D+00
262  2.6100000000000D+00  0.0000000000000D+00  0.0000000000000D+00
263  2.6200000000000D+00  0.0000000000000D+00  0.0000000000000D+00
264  2.6300000000000D+00  0.0000000000000D+00  0.0000000000000D+00
265  2.6400000000000D+00  0.0000000000000D+00  0.0000000000000D+00
266  2.6500000000000D+00  0.0000000000000D+00  0.0000000000000D+00
267  2.6600000000000D+00  0.0000000000000D+00  0.0000000000000D+00
268  2.6700000000000D+00  0.0000000000000D+00  0.0000000000000D+00
269  2.6800000000000D+00  0.0000000000000D+00  0.0000000000000D+00
270  2.6900000000000D+00  0.0000000000000D+00  0.0000000000000D+00
271  2.7000000000000D+00  0.0000000000000D+00  0.0000000000000D+00
272  2.7100000000000D+00  0.0000000000000D+00  0.0000000000000D+00
273  2.7200000000000D+00  0.0000000000000D+00  0.0000000000000D+00
274  2.7300000000000D+00  0.0000000000000D+00  0.0000000000000D+00
275  2.7400000000000D+00  0.0000000000000D+00  0.0000000000000D+00
276  2.7500000000000D+00  0.0000000000000D+00  0.0000000000000D+00
277  2.7600000000000D+00  0.0000000000000D+00  0.0000000000000D+00
278  2.7700000000000D+00  0.0000000000000D+00  0.0000000000000D+00
279  2.7800000000000D+00  0.0000000000000D+00  0.0000000000000D+00
280  2.7900000000000D+00  0.0000000000000D+00  0.0000000000000D+00
281  2.8000000000000D+00  0.0000000000000D+00  0.0000000000000D+00
282  2.8100000000000D+00  0.0000000000000D+00  0.0000000000000D+00
283  2.8200000000000D+00  0.0000000000000D+00  0.0000000000000D+00
284  2.8300000000000D+00  0.0000000000000D+00  0.0000000000000D+00
285  2.8400000000000D+00  0.0000000000000D+00  0.0000000000000D+00
286  2.8500000000000D+00  0.0000000000000D+00  0.0000000000000D+00
287  2.8600000000000D+00  0.0000000000000D+00  0.0000000000000D+00
288  2.8700000000000D+00  0.0000000000000D+00  0.0000000000000D+00
289  2.8800000000000D+00  0.0000000000000D+00  0.0000000000000D+00
290  2.8900000000000D+00  0.0000000000000D+00  0.0000000000000D+00
291  2.9000000000000D+00  0.0000000000000D+00  0.0000000000000D+00
292  2.9100000000000D+00  0.0000000000000D+00  0.0000000000000D+00
293  2.9200000000000D+00  0.0000000000000D+00  0.0000000000000D+00
294  2.9300000000000D+00  0.0000000000000D+00  0.0000000000000D+00
295  2.9400000000000D+00  0.0000000000000D+00  0.0000000000000D+00
296  2.9500000000000D+00  0.0000000000000D+00  0.0000000000000D+00
297  2.9600000000000D+00  0.0000000000000D+00  0.0000000000000D+00
298  2.9700000000000D+00  0.0000000000000D+00  0.0000000000000D+00
299  2.9800000000000D+00  0.0000000000000D+00  0.0000000000000D+00
300  2.9900000000000D+00  0.0000000000000D+00  0.0000000000000D+00
301  3.0000000000000D+00  0.0000000000000D+00  0.0000000000000D+00
302  3.0100000000000D+00  0.0000000000000D+00  0.0000000000000D+00
303  3.0200000000000D+00  0.0000000000000D+00  0.0000000000000D+00
304  3.0300000000000D+00  0.0000000000000D+00  0.0000000000000D+00
305  3.0400000000000D+00  0.0000000000000D+00  0.0000000000000D+00
306  3.0500000000000D+00  0.0000000000000D+00  0.0000000000000D+00
307  3.0600000000000D+00  0.0000000000000D+00  0.0000000000000D+00
308  3.0700000000000D+00  0.0000000000000D+00  0.0000000000000D+00
309  3.0800000000000D+00  0.0000000000000D+00  0.0000000000000D+00
310  3.0900000000000D+00  0.0000000000000D+00  0.0000000000000D+00
311  3.1000000000000D+00  0.0000000000000D+00  0.0000000000000D+00
312  3.1100000000000D+00  0.0000000000000D+00  0.0000000000000D+00
313  3.1200000000000D+00  0.0000000000000D+00  0.0000000000000D+00
314  3.1300000000000D+00  0.0000000000000D+00  0.0000000000000D+00
315  3.1400000000000D+00  0.0000000000000D+00  0.0000000000000D+00
316  3.1500000000000D+00  0.0000000000000D+00  0.0000000000000D+00
317  3.1600000000000D+00  0.0000000000000D+00  0.0000000000000D+00
318  3.1700000000000D+00  0.0000000000000D+00  0.0000000000000D+00
319  3.1800000000000D+00  0.0000000000000D+00  0.0000000000000D+00
320  3.1900000000000D+00  0.0000000000000D+00  0.0000000000000D+00
321  3.2000000000000D+00  0.0000000000000D+00  0.0000000000000D+00
322  3.2100000000000D+00  0.0000000000000D+00  0.0000000000000D+00
323  3.2200000000000D+00  0.0000000000000D+00  0.0000000000000D+00
324  3.2300000000000D+00  0.0000000000000D+00  0.0000000000000D+00
325  3.2400000000000D+00  0.0000000000000D+00  0.0000000000000D+00
326  3.2500000000000D+00  0.0000000000000D+00  0.0000000000000D+00
327  3.2600000000000D+00  0.0000000000000D+00  0.0000000000000D+00
328  3.2700000000000D+00  0.0000000000000D+00  0.0000000000000D+00
329  3.2800000000000D+00  0.0000000000000D+00  0.0000000000000D+00
330  3.2900000000000D+00  0.0000000000000D+00  0.0000000000000D+00
331  3.3000000000000D+00  0.0000000000000D+00  0.0000000000000D+00
332  3.3100000000000D+00  0.0000000000000D+00  0.0000000000000D+00
333  3.3200000000000D+00  0.0000000000000D+00  0.0000000000000D+00
334  3.3300000000000D+00  0.0000000000000D+00  0.0000000000000D+00
335  3.3400000000000D+00  0.0000000000000D+00  0.0000000000000D+00
336  3.3500000000000D+00  0.0000000000000D+00  0.0000000000000D+00
337  3.3600000000000D+00  0.0000000000000D+00  0.0000000000000D+00
338  3.3700000000000D+00  0.0000000000000D+00  0.0000000000000D+00
339  3.3800000000000D+00  0.0000000000000D+00  0.0000000000000D+00
340  3.3900000000000D+00  0.0000000000000D+00  0.0000000000000D+00
341  3.4000000000000D+00  0.0000000000000D+00  0.0000000000000D+00
342  3.4100000000000D+00  0.0000000000000D+00  0.0000000000000D+00
343  3.4200000000000D+00  0.0000000000000D+00  0.0000000000000D+00
344  3.4300000000000D+00  0.0000000000000D+00  0.0000000000000D+00
345  3.4400000000000D+00  0.0000000000000D+00  0.0000000000000D+00
346  3.4500000000000D+00  0.0000000000000D+00  0.0000000000000D+00
347  3.4600000000000D+00  0.0000000000000D+00  0.0000000000000D+00
348  3.4700000000000D+00  0.0000000000000D+00  0.0000000000000D+00
349  3.4800000000000D+00  0.0000000000000D+00  0.0000000000000D+00
350  3.4900000000000D+00  0.0000000000000D+00  0.0000000000000D+00
351  3.5000000000000D+00  0.0000000000000D+00  0.0000000000000D+00
352  3.5100000000000D+00  0.0000000000000D+00  0.0000000000000D+00
353  3.5200000000000D+00  0.0000000000000D+00  0.0000000000000D+00
354  3.5300000000000D+00  0.0000000000000D+00  0.0000000000000D+00
355  3.5400000000000D+00  0.0000000000000D+00  0.0000000000000D+00
356  3.5500000000000D+00  0.0000000000000D+00  0.0000000000000D+00
357  3.5600000000000D+00  0.0000000000000D+00  0.0000000000000D+00
358  3.5700000000000D+00  0.0000000000000D+00  0.0000000000000D+00
359  3.5800000000000D+00  0.0000000000000D+00  0.0000000000000D+00
360  3.5900000000000D+00  0.0000000000000D+00  0.0000000000000D+00
361  3.6000000000000D+00  0.0000000000000D+00  0.0000000000000D+00
362  3.6100000000000D+00  0.0000000000000D+00  0.0000000000000D+00
363  3.6200000000000D+00  0.0000000000000D+00  0.0000000000000D+00
364  3.6300000000000D+00  0.0000000000000D+00  0.0000000000000D+00
365  3.6400000000000D+00  0.0000000000000D+00  0.0000000000000D+00
366  3.6500000000000D+00  0.0000000000000D+00  0.0000000000000D+00
367  3.6600000000000D+00  0.0000000000000D+00  0.0000000000000D+00
368  3.6700000000000D+00  0.0000000000000D+00  0.0000000000000D+00
369  3.6800000000000D+00  0.0000000000000D+00  0.0000000000000D+00
370  3.6900000000000D+00  0.0000000000000D+00  0.0000000000000D+00
371  3.7000000000000D+00  0.0000000000000D+00  0.0000000000000D+00
372  3.7100000000000D+00  0.0000000000000D+00  0.0000000000000D+00
373  3.7200000000000D+00  0.0000000000000D+00  0.0000000000000D+00
374  3.7300000000000D+00  0.0000000000000D+00  0.0000000000000D+00
375  3.7400000000000D+00  0.0000000000000D+00  0.0000000000000D+00
376  3.7500000000000D+00  0.0000000000000D+00  0.0000000000000D+00
377  3.7600000000000D+00  0.0000000000000D+00  0.0000000000000D+00
378  3.7700000000000D+00  0.0000000000000D+00  0.0000000000000D+00
379  3.7800000000000D+00  0.0000000000000D+00  0.0000000000000D+00
380  3.7900000000000D+00  0.0000000000000D+00  0.0000000000000D+00
381  3.8000000000000D+00  0.0000000000000D+00  0.0000000000000D+00
382  3.8100000000000D+00  0.0000000000000D+00  0.0000000000000D+00
383  3.8200000000000D+00  0.0000000000000D+00  0.0000000000000D+00
384  3.8300000000000D+00  0.0000000000000D+00  0.0000000000000D+00
385  3.8400000000000D+00  0.0000000000000D+00  0.0000000000000D+00
386  3.8500000000000D+00  0.0000000000000D+00  0.0000000000000D+00
387  3.8600000000000D+00  0.0000000000000D+00  0.0000000000000D+00
388  3.8700000000000D+00  0.0000000000000D+00  0.0000000000000D+00
389  3.8800000000000D+00  0.0000000000000D+00  0.0000000000000D+00
390  3.8900000000000D+00  0.0000000000000D+00  0.0000000000000D+00
391  3.9000000000000D+00  0.0000000000000D+00  0.0000000000000D+00
392  3.9100000000000D+00  0.0000000000000D+00  0.0000000000000D+00
393  3.9200000000000D+00  0.0000000000000D+00  0.0000000000000D+00
394  3.9300000000000D+00  0.0000000000000D+00  0.0000000000000D+00
395  3.9400000000000D+00  0.0000000000000D+00  0.0000000000000D+00
396  3.9500000000000D+00  0.0000000000000D+00  0.0000000000000D+00
397  3.9600000000000D+00  0.0000000000000D+00  0.0000000000000D+00
398  3.9700000000000D+00  0.0000000000000D+00  0.0000000000000D+00
399  3.9800000000000D+00  0.0000000000000D+00  0.0000000000000D+00
400  3.9900000000000D+00  0.0000000000000D+00  0.0000000000000D+00
401  4.0000000000000D+00  0.0000000000000D+00  0.0000000000000D+00
402  4.0100000000000D+00  0.0000000000000D+00  0.0000000000000D+00
403  4.0200000000000D+00  0.0000000000000D+00  0.0000000000000D+00
404  4.0300000000000D+00  0.0000000000000D+00  0.0000000000000D+00
405  4.0400000000000D+00  0.0000000000000D+00  0.0000000000000D+00
406  4.0500000000000D+00  0.0000000000000D+00  0.0000000000000D+00
407  4.0600000000000D+00  0.0000000000000D+00  0.0000000000000D+00
408  4.0700000000000D+00  0.0000000000000D+00  0.0000000000000D+00
409  4.0800000000000D+00  0.0000000000000D+00  0.0000000000000D+00
410  4.0900000000000D+00  0.0000000000000D+00  0.0000000000000D+00
411  4.1000000000000D+00  0.0000000000000D+00  0.0000000000000D+00
412  4.1100000000000D+00  0.0000000000000D+00  0.0000000000000D+00
413  4.1200000000000D+00  0.0000000000000D+00  0.0000000000000D+00
414  4.1300000000000D+00  0.0000000000000D+00  0.0000000000000D+00
415  4.1400000000000D+00  0.0000000000000D+00  0.0000000000000D+00
416  4.1500000000000D+00  0.0000000000000D+00  0.0000000000000D+00
417  4.1600000000000D+00  0.0000000000000D+00  0.0000000000000D+00
418  4.1700000000000D+00  0.0000000000000D+00  0.0000000000000D+00
419  4.1800000000000D+00  0.0000000000000D+00  0.0000000000000D+00
420  4.1900000000000D+00  0.0000000000000D+00  0.0000000000000D+00
421  4.2000000000000D+00  0.0000000000000D+00  0.0000000000000D+00
422  4.2100000000000D+00  0.0000000000000D+00  0.0000000000000D+00
423  4.2200000000000D+00  0.0000000000000D+00  0.0000000000000D+00
424  4.2300000000000D+00  0.0000000000000D+00  0.0000000000000D+00
425  4.2400000000000D+00  0.0000000000000D+00  0.0000000000000D+00
426  4.2500000000000D+00  0.0000000000000D+00  0.0000000000000D+00
427  4.2600000000000D+00  0.0000000000000D+00  0.0000000000000D+00
428  4.2700000000000D+00  0.0000000000000D+00  0.0000000000000D+00
429  4.2800000000000D+00  0.0000000000000D+00  0.0000000000000D+00
430  4.2900000000000D+00  0.0000000000000D+00  0.0000000000000D+00
431  4.3000000000000D+00  0.0000000000000D+00  0.0000000000000D+00
432  4.3100000000000D+00  0.0000000000000D+00  0.0000000000000D+00
433  4.3200000000000D+00  0.0000000000000D+00  0.0000000000000D+00
434  4.3300000000000D+00  0.0000000000000D+00  0.0000000000000D+00
435  4.3400000000000D+00  0.0000000000000D+00  0.0000000000000D+00
436  4.3500000000000D+00  0.0000000000000D+00  0.0000000000000D+00
437  4.3600000000000D+00  0.0000000000000D+00  0.0000000000000D+00
438  4.3700000000000D+00  0.0000000000000D+00  0.0000000000000D+00
439  4.3800000000000D+00  0.0000000000000D+00  0.0000000000000D+00
440  4.3900000000000D+00  0.0000000000000D+00  0.0000000000000D+00
441  4.4000000000000D+00  0.0000000000000D+00  0.0000000000000D+00
442  4.4100000000000D+00  0.0000000000000D+00  0.0000000000000D+00
443  4.4200000000000D+00  0.0000000000000D+00  0.0000000000000D+00
444  4.4300000000000D+00  0.0000000000000D+00  0.0000000000000D+00