K     ONCVPSP-3.2.3  r_core=   1.36296   1.46408   1.61068
19.0000      9.0000      170211    zatom,zion,pspd
8      11   2     4   400     0    pspcod,pspxc,lmax,lloc,mmax,r2well
3.99000000  5.00000000  0.00000000    rchrg fchrg qchrg
2     3     2     0    nproj
3     1           extension_switch
4     3     0    nprojso
0                         7.9044482366153D-01  1.0816335541977D+01
1  0.0000000000000D+00  9.7553382039095D-10 -5.1669390987996D-11
2  1.0000000000000D-02 -3.2918414001836D-02  5.8243415613097D-02
3  2.0000000000000D-02 -6.5694600663933D-02  1.1640817336555D-01
4  3.0000000000000D-02 -9.8187322601994D-02  1.7441568331316D-01
5  4.0000000000000D-02 -1.3025730749505D-01  2.3218749112475D-01
6  5.0000000000000D-02 -1.6176819375225D-01  2.8964534535283D-01
7  6.0000000000000D-02 -1.9258743264900D-01  3.4671126409928D-01
8  7.0000000000000D-02 -2.2258713358872D-01  4.0330760093683D-01
9  8.0000000000000D-02 -2.5164484012180D-01  4.5935710999894D-01
10  9.0000000000000D-02 -2.7964422554271D-01  5.1478301021259D-01
11  1.0000000000000D-01 -3.0647569827010D-01  5.6950904872030D-01
12  1.1000000000000D-01 -3.3203690877033D-01  6.2345956361611D-01
13  1.2000000000000D-01 -3.5623315148744D-01  6.7655954620449D-01
14  1.3000000000000D-01 -3.7897765706343D-01  7.2873470307880D-01
15  1.4000000000000D-01 -4.0019177204254D-01  7.7991151840439D-01
16  1.5000000000000D-01 -4.1980502521990D-01  8.3001731687868D-01
17  1.6000000000000D-01 -4.3775508178667D-01  8.7898032792445D-01
18  1.7000000000000D-01 -4.5398758840583D-01  9.2672975174985D-01
19  1.8000000000000D-01 -4.6845591429372D-01  9.7319582797794D-01
20  1.9000000000000D-01 -4.8112079524755D-01  1.0183099076068D+00
21  2.0000000000000D-01 -4.9194988931746D-01  1.0620045291067D+00
22  2.1000000000000D-01 -5.0091725444282D-01  1.1042134994910D+00
23  2.2000000000000D-01 -5.0800275982717D-01  1.1448719812116D+00
24  2.3000000000000D-01 -5.1319144408862D-01  1.1839165857249D+00
25  2.4000000000000D-01 -5.1647283427057D-01  1.2212854745491D+00
26  2.5000000000000D-01 -5.1784024060893D-01  1.2569184685914D+00
27  2.6000000000000D-01 -5.1729004251245D-01  1.2907571664547D+00
28  2.7000000000000D-01 -5.1482098150898D-01  1.3227450723471D+00
29  2.8000000000000D-01 -5.1043347693373D-01  1.3528277341114D+00
30  2.9000000000000D-01 -5.0412897988276D-01  1.3809528917580D+00
31  3.0000000000000D-01 -4.9590938042529D-01  1.4070706367384D+00
32  3.1000000000000D-01 -4.8577648226870D-01  1.4311335820278D+00
33  3.2000000000000D-01 -4.7373155800702D-01  1.4530970429013D+00
34  3.3000000000000D-01 -4.5977499677421D-01  1.4729192280865D+00
35  3.4000000000000D-01 -4.4390605458225D-01  1.4905614407665D+00
36  3.5000000000000D-01 -4.2612271587586D-01  1.5059882886835D+00
37  3.6000000000000D-01 -4.0642167290492D-01  1.5191679023647D+00
38  3.7000000000000D-01 -3.8479842742939D-01  1.5300721602636D+00
39  3.8000000000000D-01 -3.6124751706685D-01  1.5386769193737D+00
40  3.9000000000000D-01 -3.3576286629791D-01  1.5449622496471D+00
41  4.0000000000000D-01 -3.0833825980013D-01  1.5489126703301D+00
42  4.1000000000000D-01 -2.7896793342321D-01  1.5505173861151D+00
43  4.2000000000000D-01 -2.4764727578505D-01  1.5497705208182D+00
44  4.3000000000000D-01 -2.1437363120004D-01  1.5466713461142D+00
45  4.4000000000000D-01 -1.7914719248308D-01  1.5412245027071D+00
46  4.5000000000000D-01 -1.4197197014793D-01  1.5334402111866D+00
47  4.6000000000000D-01 -1.0285682266513D-01  1.5233344697241D+00
48  4.7000000000000D-01 -6.1816530804606D-02  1.5109292356909D+00
49  4.8000000000000D-01 -1.8872897683360D-02  1.4962525882519D+00
50  4.9000000000000D-01  2.5944144994354D-02  1.4793388689877D+00
51  5.0000000000000D-01  7.2595444863028D-02  1.4602287976401D+00
52  5.1000000000000D-01  1.2103157187913D-01  1.4389695601577D+00
53  5.2000000000000D-01  1.7119181746230D-01  1.4156148663321D+00
54  5.3000000000000D-01  2.2300327076806D-01  1.3902249744806D+00
55  5.4000000000000D-01  2.7637999259933D-01  1.3628666808225D+00
56  5.5000000000000D-01  3.3122230665795D-01  1.3336132714388D+00
57  5.6000000000000D-01  3.8741622669901D-01  1.3025444349710D+00
58  5.7000000000000D-01  4.4483303668679D-01  1.2697461345262D+00
59  5.8000000000000D-01  5.0332903928773D-01  1.2353104375915D+00
60  5.9000000000000D-01  5.6274548597878D-01  1.1993353031277D+00
61  6.0000000000000D-01  6.2290869974739D-01  1.1619243254034D+00
62  6.1000000000000D-01  6.8363039881567D-01  1.1231864345424D+00
63  6.2000000000000D-01  7.4470822709878D-01  1.0832355541839D+00
64  6.3000000000000D-01  8.0592649422600D-01  1.0421902170937D+00
65  6.4000000000000D-01  8.6705712495066D-01  1.0001731400098D+00
66  6.5000000000000D-01  9.2786081472825D-01  9.5731075944783D-01
67  6.6000000000000D-01  9.8808838514113D-01  9.1373273063415D-01
68  6.7000000000000D-01  1.0474823297916D+00  8.6957139216310D-01
69  6.8000000000000D-01  1.1057785382991D+00  8.2496119938614D-01
70  6.9000000000000D-01  1.1627081831502D+00  7.8003812993538D-01
71  7.0000000000000D-01  1.2179997514406D+00  7.3493906514735D-01
72  7.1000000000000D-01  1.2713812010314D+00  6.8980115148824D-01
73  7.2000000000000D-01  1.3225822183821D+00  6.4476114637842D-01
74  7.3000000000000D-01  1.3713365533250D+00  5.9995475307307D-01
75  7.4000000000000D-01  1.4173844043741D+00  5.5551594946956D-01
76  7.5000000000000D-01  1.4604748268333D+00  5.1157631587902D-01
77  7.6000000000000D-01  1.5003681349930D+00  4.6826436691744D-01
78  7.7000000000000D-01  1.5368382691241D+00  4.2570489273805D-01
79  7.8000000000000D-01  1.5696750977832D+00  3.8401831484040D-01
80  7.9000000000000D-01  1.5986866261525D+00  3.4332006165240D-01
81  8.0000000000000D-01  1.6237010817443D+00  3.0371996898915D-01
82  8.1000000000000D-01  1.6445688498017D+00  2.6532171034845D-01
83  8.2000000000000D-01  1.6611642321045D+00  2.2822226180823D-01
84  8.3000000000000D-01  1.6733870046330D+00  1.9251140604841D-01
85  8.4000000000000D-01  1.6811637516133D+00  1.5827127973211D-01
86  8.5000000000000D-01  1.6844489558533D+00  1.2557596815196D-01
87  8.6000000000000D-01  1.6832258279259D+00  9.4491150680288D-02
88  8.7000000000000D-01  1.6775068596395D+00  6.5073800163199D-02
89  8.8000000000000D-01  1.6673340902990D+00  3.7371938971204D-02
90  8.9000000000000D-01  1.6527790774721D+00  1.1424453970476D-02
91  9.0000000000000D-01  1.6339425672682D+00 -1.2739027786607D-02
92  9.1000000000000D-01  1.6109538624755D+00 -3.5098201328384D-02
93  9.2000000000000D-01  1.5839698902268D+00 -5.5642083144902D-02
94  9.3000000000000D-01  1.5531739741221D+00 -7.4368947316989D-02
95  9.4000000000000D-01  1.5187743188902D+00 -9.1286198498507D-02
96  9.5000000000000D-01  1.4810022186446D+00 -1.0641018231093D-01
97  9.6000000000000D-01  1.4401100025592D+00 -1.1976593414540D-01
98  9.7000000000000D-01  1.3963687343331D+00 -1.3138686778216D-01
99  9.8000000000000D-01  1.3500656840196D+00 -1.4131440561495D-01
100  9.9000000000000D-01  1.3015015927085D+00 -1.4959755261707D-01
101  1.0000000000000D+00  1.2509877520993D+00 -1.5629241649422D-01
102  1.0100000000000D+00  1.1988429221785D+00 -1.6146167673675D-01
103  1.0200000000000D+00  1.1453901109794D+00 -1.6517400550917D-01
104  1.0300000000000D+00  1.0909532407851D+00 -1.6750344348591D-01
105  1.0400000000000D+00  1.0358537251072D+00 -1.6852873388076D-01
106  1.0500000000000D+00  9.8040698031526D-01 -1.6833261799403D-01
107  1.0600000000000D+00  9.2491889496866D-01 -1.6700109563699D-01
108  1.0700000000000D+00  8.6968227865810D-01 -1.6462265378018D-01
109  1.0800000000000D+00  8.1497330473621D-01 -1.6128746618534D-01
110  1.0900000000000D+00  7.6104797710321D-01 -1.5708656797973D-01
111  1.1000000000000D+00  7.0813873399510D-01 -1.5211101895812D-01
112  1.1100000000000D+00  6.5645080571136D-01 -1.4645101683559D-01
113  1.1200000000000D+00  6.0615869599968D-01 -1.4019500585591D-01
114  1.1300000000000D+00  5.5741132965472D-01 -1.3342954484701D-01
115  1.1400000000000D+00  5.1033926935436D-01 -1.2623952018960D-01
116  1.1500000000000D+00  4.6505917403418D-01 -1.1870822465568D-01
117  1.1600000000000D+00  4.2167241519105D-01 -1.1091696632616D-01
118  1.1700000000000D+00  3.8026554652298D-01 -1.0294483010171D-01
119  1.1800000000000D+00  3.4091052615573D-01 -9.4868428982278D-02
120  1.1900000000000D+00  3.0366522137563D-01 -8.6761686547329D-02
121  1.2000000000000D+00  2.6857405554180D-01 -7.8695640635699D-02
122  1.2100000000000D+00  2.3566881284053D-01 -7.0738270358460D-02
123  1.2200000000000D+00  2.0496957623295D-01 -6.2954345113013D-02
124  1.2300000000000D+00  1.7648577735359D-01 -5.5405294432700D-02
125  1.2400000000000D+00  1.5021733582028D-01 -4.8149097327668D-02
126  1.2500000000000D+00  1.2615586327417D-01 -4.1240189397020D-02
127  1.2600000000000D+00  1.0428590780023D-01 -3.4729385972340D-02
128  1.2700000000000D+00  8.4586213658551D-02 -2.8663819432398D-02
129  1.2800000000000D+00  6.7030971102696D-02 -2.3086888683989D-02
130  1.2900000000000D+00  5.1591032627723D-02 -1.8038218902763D-02
131  1.3000000000000D+00  3.8235071563992D-02 -1.3553629567045D-02
132  1.3100000000000D+00  2.6930660938555D-02 -9.6651088965405D-03
133  1.3200000000000D+00  1.7649390965862D-02 -6.4023477233644D-03
134  1.3300000000000D+00  1.0348084969828D-02 -3.7853401749519D-03
135  1.3400000000000D+00  4.9731320588163D-03 -1.8258691533456D-03
136  1.3500000000000D+00  1.6419610754004D-03 -5.9416409002880D-04
137  1.3600000000000D+00  1.7175920985153D-04 -4.5224520092320D-05
138  1.3700000000000D+00 -1.2428767593467D-04  5.7453403485244D-05
139  1.3800000000000D+00  6.6218979458665D-06 -2.8645292570995D-06
140  1.3900000000000D+00  3.2416142121952D-05 -1.3728867895945D-05
141  1.4000000000000D+00 -5.3789685729980D-06  2.3432407525008D-06
142  1.4100000000000D+00 -3.1523619880666D-06  1.3590724472153D-06
143  1.4200000000000D+00  7.4643785930127D-09 -5.3839803040239D-08
144  1.4300000000000D+00  0.0000000000000D+00  0.0000000000000D+00
145  1.4400000000000D+00  0.0000000000000D+00  0.0000000000000D+00
146  1.4500000000000D+00  0.0000000000000D+00  0.0000000000000D+00
147  1.4600000000000D+00  0.0000000000000D+00  0.0000000000000D+00
148  1.4700000000000D+00  0.0000000000000D+00  0.0000000000000D+00
149  1.4800000000000D+00  0.0000000000000D+00  0.0000000000000D+00
150  1.4900000000000D+00  0.0000000000000D+00  0.0000000000000D+00
151  1.5000000000000D+00  0.0000000000000D+00  0.0000000000000D+00
152  1.5100000000000D+00  0.0000000000000D+00  0.0000000000000D+00
153  1.5200000000000D+00  0.0000000000000D+00  0.0000000000000D+00
154  1.5300000000000D+00  0.0000000000000D+00  0.0000000000000D+00
155  1.5400000000000D+00  0.0000000000000D+00  0.0000000000000D+00
156  1.5500000000000D+00  0.0000000000000D+00  0.0000000000000D+00
157  1.5600000000000D+00  0.0000000000000D+00  0.0000000000000D+00
158  1.5700000000000D+00  0.0000000000000D+00  0.0000000000000D+00
159  1.5800000000000D+00  0.0000000000000D+00  0.0000000000000D+00
160  1.5900000000000D+00  0.0000000000000D+00  0.0000000000000D+00
161  1.6000000000000D+00  0.0000000000000D+00  0.0000000000000D+00
162  1.6100000000000D+00  0.0000000000000D+00  0.0000000000000D+00
163  1.6200000000000D+00  0.0000000000000D+00  0.0000000000000D+00
164  1.6300000000000D+00  0.0000000000000D+00  0.0000000000000D+00
165  1.6400000000000D+00  0.0000000000000D+00  0.0000000000000D+00
166  1.6500000000000D+00  0.0000000000000D+00  0.0000000000000D+00
167  1.6600000000000D+00  0.0000000000000D+00  0.0000000000000D+00
168  1.6700000000000D+00  0.0000000000000D+00  0.0000000000000D+00
169  1.6800000000000D+00  0.0000000000000D+00  0.0000000000000D+00
170  1.6900000000000D+00  0.0000000000000D+00  0.0000000000000D+00
171  1.7000000000000D+00  0.0000000000000D+00  0.0000000000000D+00
172  1.7100000000000D+00  0.0000000000000D+00  0.0000000000000D+00
173  1.7200000000000D+00  0.0000000000000D+00  0.0000000000000D+00
174  1.7300000000000D+00  0.0000000000000D+00  0.0000000000000D+00
175  1.7400000000000D+00  0.0000000000000D+00  0.0000000000000D+00
176  1.7500000000000D+00  0.0000000000000D+00  0.0000000000000D+00
177  1.7600000000000D+00  0.0000000000000D+00  0.0000000000000D+00
178  1.7700000000000D+00  0.0000000000000D+00  0.0000000000000D+00
179  1.7800000000000D+00  0.0000000000000D+00  0.0000000000000D+00
180  1.7900000000000D+00  0.0000000000000D+00  0.0000000000000D+00
181  1.8000000000000D+00  0.0000000000000D+00  0.0000000000000D+00
182  1.8100000000000D+00  0.0000000000000D+00  0.0000000000000D+00
183  1.8200000000000D+00  0.0000000000000D+00  0.0000000000000D+00
184  1.8300000000000D+00  0.0000000000000D+00  0.0000000000000D+00
185  1.8400000000000D+00  0.0000000000000D+00  0.0000000000000D+00
186  1.8500000000000D+00  0.0000000000000D+00  0.0000000000000D+00
187  1.8600000000000D+00  0.0000000000000D+00  0.0000000000000D+00
188  1.8700000000000D+00  0.0000000000000D+00  0.0000000000000D+00
189  1.8800000000000D+00  0.0000000000000D+00  0.0000000000000D+00
190  1.8900000000000D+00  0.0000000000000D+00  0.0000000000000D+00
191  1.9000000000000D+00  0.0000000000000D+00  0.0000000000000D+00
192  1.9100000000000D+00  0.0000000000000D+00  0.0000000000000D+00
193  1.9200000000000D+00  0.0000000000000D+00  0.0000000000000D+00
194  1.9300000000000D+00  0.0000000000000D+00  0.0000000000000D+00
195  1.9400000000000D+00  0.0000000000000D+00  0.0000000000000D+00
196  1.9500000000000D+00  0.0000000000000D+00  0.0000000000000D+00
197  1.9600000000000D+00  0.0000000000000D+00  0.0000000000000D+00
198  1.9700000000000D+00  0.0000000000000D+00  0.0000000000000D+00
199  1.9800000000000D+00  0.0000000000000D+00  0.0000000000000D+00
200  1.9900000000000D+00  0.0000000000000D+00  0.0000000000000D+00
201  2.0000000000000D+00  0.0000000000000D+00  0.0000000000000D+00
202  2.0100000000000D+00  0.0000000000000D+00  0.0000000000000D+00
203  2.0200000000000D+00  0.0000000000000D+00  0.0000000000000D+00
204  2.0300000000000D+00  0.0000000000000D+00  0.0000000000000D+00
205  2.0400000000000D+00  0.0000000000000D+00  0.0000000000000D+00
206  2.0500000000000D+00  0.0000000000000D+00  0.0000000000000D+00
207  2.0600000000000D+00  0.0000000000000D+00  0.0000000000000D+00
208  2.0700000000000D+00  0.0000000000000D+00  0.0000000000000D+00
209  2.0800000000000D+00  0.0000000000000D+00  0.0000000000000D+00
210  2.0900000000000D+00  0.0000000000000D+00  0.0000000000000D+00
211  2.1000000000000D+00  0.0000000000000D+00  0.0000000000000D+00
212  2.1100000000000D+00  0.0000000000000D+00  0.0000000000000D+00
213  2.1200000000000D+00  0.0000000000000D+00  0.0000000000000D+00
214  2.1300000000000D+00  0.0000000000000D+00  0.0000000000000D+00
215  2.1400000000000D+00  0.0000000000000D+00  0.0000000000000D+00
216  2.1500000000000D+00  0.0000000000000D+00  0.0000000000000D+00
217  2.1600000000000D+00  0.0000000000000D+00  0.0000000000000D+00
218  2.1700000000000D+00  0.0000000000000D+00  0.0000000000000D+00
219  2.1800000000000D+00  0.0000000000000D+00  0.0000000000000D+00
220  2.1900000000000D+00  0.0000000000000D+00  0.0000000000000D+00
221  2.2000000000000D+00  0.0000000000000D+00  0.0000000000000D+00
222  2.2100000000000D+00  0.0000000000000D+00  0.0000000000000D+00
223  2.2200000000000D+00  0.0000000000000D+00  0.0000000000000D+00
224  2.2300000000000D+00  0.0000000000000D+00  0.0000000000000D+00
225  2.2400000000000D+00  0.0000000000000D+00  0.0000000000000D+00
226  2.2500000000000D+00  0.0000000000000D+00  0.0000000000000D+00
227  2.2600000000000D+00  0.0000000000000D+00  0.0000000000000D+00
228  2.2700000000000D+00  0.0000000000000D+00  0.0000000000000D+00
229  2.2800000000000D+00  0.0000000000000D+00  0.0000000000000D+00
230  2.2900000000000D+00  0.0000000000000D+00  0.0000000000000D+00
231  2.3000000000000D+00  0.0000000000000D+00  0.0000000000000D+00
232  2.3100000000000D+00  0.0000000000000D+00  0.0000000000000D+00
233  2.3200000000000D+00  0.0000000000000D+00  0.0000000000000D+00
234  2.3300000000000D+00  0.0000000000000D+00  0.0000000000000D+00
235  2.3400000000000D+00  0.0000000000000D+00  0.0000000000000D+00
236  2.3500000000000D+00  0.0000000000000D+00  0.0000000000000D+00
237  2.3600000000000D+00  0.0000000000000D+00  0.0000000000000D+00
238  2.3700000000000D+00  0.0000000000000D+00  0.0000000000000D+00
239  2.3800000000000D+00  0.0000000000000D+00  0.0000000000000D+00
240  2.3900000000000D+00  0.0000000000000D+00  0.0000000000000D+00
241  2.4000000000000D+00  0.0000000000000D+00  0.0000000000000D+00
242  2.4100000000000D+00  0.0000000000000D+00  0.0000000000000D+00
243  2.4200000000000D+00  0.0000000000000D+00  0.0000000000000D+00
244  2.4300000000000D+00  0.0000000000000D+00  0.0000000000000D+00
245  2.4400000000000D+00  0.0000000000000D+00  0.0000000000000D+00
246  2.4500000000000D+00  0.0000000000000D+00  0.0000000000000D+00
247  2.4600000000000D+00  0.0000000000000D+00  0.0000000000000D+00
248  2.4700000000000D+00  0.0000000000000D+00  0.0000000000000D+00
249  2.4800000000000D+00  0.0000000000000D+00  0.0000000000000D+00
250  2.4900000000000D+00  0.0000000000000D+00  0.0000000000000D+00
251  2.5000000000000D+00  0.0000000000000D+00  0.0000000000000D+00
252  2.5100000000000D+00  0.0000000000000D+00  0.0000000000000D+00
253  2.5200000000000D+00  0.0000000000000D+00  0.0000000000000D+00
254  2.5300000000000D+00  0.0000000000000D+00  0.0000000000000D+00
255  2.5400000000000D+00  0.0000000000000D+00  0.0000000000000D+00
256  2.5500000000000D+00  0.0000000000000D+00  0.0000000000000D+00
257  2.5600000000000D+00  0.0000000000000D+00  0.0000000000000D+00
258  2.5700000000000D+00  0.0000000000000D+00  0.0000000000000D+00
259  2.5800000000000D+00  0.0000000000000D+00  0.0000000000000D+00
260  2.5900000000000D+00  0.0000000000000D+00  0.0000000000000D+00
261  2.6000000000000D+00  0.0000000000000D+00  0.0000000000000D+00
262  2.6100000000000D+00  0.0000000000000D+00  0.0000000000000D+00
263  2.6200000000000D+00  0.0000000000000D+00  0.0000000000000D+00
264  2.6300000000000D+00  0.0000000000000D+00  0.0000000000000D+00
265  2.6400000000000D+00  0.0000000000000D+00  0.0000000000000D+00
266  2.6500000000000D+00  0.0000000000000D+00  0.0000000000000D+00
267  2.6600000000000D+00  0.0000000000000D+00  0.0000000000000D+00
268  2.6700000000000D+00  0.0000000000000D+00  0.0000000000000D+00
269  2.6800000000000D+00  0.0000000000000D+00  0.0000000000000D+00
270  2.6900000000000D+00  0.0000000000000D+00  0.0000000000000D+00
271  2.7000000000000D+00  0.0000000000000D+00  0.0000000000000D+00
272  2.7100000000000D+00  0.0000000000000D+00  0.0000000000000D+00
273  2.7200000000000D+00  0.0000000000000D+00  0.0000000000000D+00
274  2.7300000000000D+00  0.0000000000000D+00  0.0000000000000D+00
275  2.7400000000000D+00  0.0000000000000D+00  0.0000000000000D+00
276  2.7500000000000D+00  0.0000000000000D+00  0.0000000000000D+00
277  2.7600000000000D+00  0.0000000000000D+00  0.0000000000000D+00
278  2.7700000000000D+00  0.0000000000000D+00  0.0000000000000D+00
279  2.7800000000000D+00  0.0000000000000D+00  0.0000000000000D+00
280  2.7900000000000D+00  0.0000000000000D+00  0.0000000000000D+00
281  2.8000000000000D+00  0.0000000000000D+00  0.0000000000000D+00
282  2.8100000000000D+00  0.0000000000000D+00  0.0000000000000D+00
283  2.8200000000000D+00  0.0000000000000D+00  0.0000000000000D+00
284  2.8300000000000D+00  0.0000000000000D+00  0.0000000000000D+00
285  2.8400000000000D+00  0.0000000000000D+00  0.0000000000000D+00
286  2.8500000000000D+00  0.0000000000000D+00  0.0000000000000D+00
287  2.8600000000000D+00  0.0000000000000D+00  0.0000000000000D+00
288  2.8700000000000D+00  0.0000000000000D+00  0.0000000000000D+00
289  2.8800000000000D+00  0.0000000000000D+00  0.0000000000000D+00
290  2.8900000000000D+00  0.0000000000000D+00  0.0000000000000D+00
291  2.9000000000000D+00  0.0000000000000D+00  0.0000000000000D+00
292  2.9100000000000D+00  0.0000000000000D+00  0.0000000000000D+00
293  2.9200000000000D+00  0.0000000000000D+00  0.0000000000000D+00
294  2.9300000000000D+00  0.0000000000000D+00  0.0000000000000D+00
295  2.9400000000000D+00  0.0000000000000D+00  0.0000000000000D+00
296  2.9500000000000D+00  0.0000000000000D+00  0.0000000000000D+00
297  2.9600000000000D+00  0.0000000000000D+00  0.0000000000000D+00
298  2.9700000000000D+00  0.0000000000000D+00  0.0000000000000D+00
299  2.9800000000000D+00  0.0000000000000D+00  0.0000000000000D+00
300  2.9900000000000D+00  0.0000000000000D+00  0.0000000000000D+00
301  3.0000000000000D+00  0.0000000000000D+00  0.0000000000000D+00
302  3.0100000000000D+00  0.0000000000000D+00  0.0000000000000D+00
303  3.0200000000000D+00  0.0000000000000D+00  0.0000000000000D+00
304  3.0300000000000D+00  0.0000000000000D+00  0.0000000000000D+00
305  3.0400000000000D+00  0.0000000000000D+00  0.0000000000000D+00
306  3.0500000000000D+00  0.0000000000000D+00  0.0000000000000D+00
307  3.0600000000000D+00  0.0000000000000D+00  0.0000000000000D+00
308  3.0700000000000D+00  0.0000000000000D+00  0.0000000000000D+00
309  3.0800000000000D+00  0.0000000000000D+00  0.0000000000000D+00
310  3.0900000000000D+00  0.0000000000000D+00  0.0000000000000D+00
311  3.1000000000000D+00  0.0000000000000D+00  0.0000000000000D+00
312  3.1100000000000D+00  0.0000000000000D+00  0.0000000000000D+00
313  3.1200000000000D+00  0.0000000000000D+00  0.0000000000000D+00
314  3.1300000000000D+00  0.0000000000000D+00  0.0000000000000D+00
315  3.1400000000000D+00  0.0000000000000D+00  0.0000000000000D+00
316  3.1500000000000D+00  0.0000000000000D+00  0.0000000000000D+00
317  3.1600000000000D+00  0.0000000000000D+00  0.0000000000000D+00
318  3.1700000000000D+00  0.0000000000000D+00  0.0000000000000D+00
319  3.1800000000000D+00  0.0000000000000D+00  0.0000000000000D+00
320  3.1900000000000D+00  0.0000000000000D+00  0.0000000000000D+00
321  3.2000000000000D+00  0.0000000000000D+00  0.0000000000000D+00
322  3.2100000000000D+00  0.0000000000000D+00  0.0000000000000D+00
323  3.2200000000000D+00  0.0000000000000D+00  0.0000000000000D+00
324  3.2300000000000D+00  0.0000000000000D+00  0.0000000000000D+00
325  3.2400000000000D+00  0.0000000000000D+00  0.0000000000000D+00
326  3.2500000000000D+00  0.0000000000000D+00  0.0000000000000D+00
327  3.2600000000000D+00  0.0000000000000D+00  0.0000000000000D+00
328  3.2700000000000D+00  0.0000000000000D+00  0.0000000000000D+00
329  3.2800000000000D+00  0.0000000000000D+00  0.0000000000000D+00
330  3.2900000000000D+00  0.0000000000000D+00  0.0000000000000D+00
331  3.3000000000000D+00  0.0000000000000D+00  0.0000000000000D+00
332  3.3100000000000D+00  0.0000000000000D+00  0.0000000000000D+00
333  3.3200000000000D+00  0.0000000000000D+00  0.0000000000000D+00
334  3.3300000000000D+00  0.0000000000000D+00  0.0000000000000D+00
335  3.3400000000000D+00  0.0000000000000D+00  0.0000000000000D+00
336  3.3500000000000D+00  0.0000000000000D+00  0.0000000000000D+00
337  3.3600000000000D+00  0.0000000000000D+00  0.0000000000000D+00
338  3.3700000000000D+00  0.0000000000000D+00  0.0000000000000D+00
339  3.3800000000000D+00  0.0000000000000D+00  0.0000000000000D+00
340  3.3900000000000D+00  0.0000000000000D+00  0.0000000000000D+00
341  3.4000000000000D+00  0.0000000000000D+00  0.0000000000000D+00
342  3.4100000000000D+00  0.0000000000000D+00  0.0000000000000D+00
343  3.4200000000000D+00  0.0000000000000D+00  0.0000000000000D+00
344  3.4300000000000D+00  0.0000000000000D+00  0.0000000000000D+00
345  3.4400000000000D+00  0.0000000000000D+00  0.0000000000000D+00
346  3.4500000000000D+00  0.0000000000000D+00  0.0000000000000D+00
347  3.4600000000000D+00  0.0000000000000D+00  0.0000000000000D+00
348  3.4700000000000D+00  0.0000000000000D+00  0.0000000000000D+00
349  3.4800000000000D+00  0.0000000000000D+00  0.0000000000000D+00
350  3.4900000000000D+00  0.0000000000000D+00  0.0000000000000D+00
351  3.5000000000000D+00  0.0000000000000D+00  0.0000000000000D+00
352  3.5100000000000D+00  0.0000000000000D+00  0.0000000000000D+00
353  3.5200000000000D+00  0.0000000000000D+00  0.0000000000000D+00
354  3.5300000000000D+00  0.0000000000000D+00  0.0000000000000D+00
355  3.5400000000000D+00  0.0000000000000D+00  0.0000000000000D+00
356  3.5500000000000D+00  0.0000000000000D+00  0.0000000000000D+00
357  3.5600000000000D+00  0.0000000000000D+00  0.0000000000000D+00
358  3.5700000000000D+00  0.0000000000000D+00  0.0000000000000D+00
359  3.5800000000000D+00  0.0000000000000D+00  0.0000000000000D+00
360  3.5900000000000D+00  0.0000000000000D+00  0.0000000000000D+00
361  3.6000000000000D+00  0.0000000000000D+00  0.0000000000000D+00
362  3.6100000000000D+00  0.0000000000000D+00  0.0000000000000D+00
363  3.6200000000000D+00  0.0000000000000D+00  0.0000000000000D+00
364  3.6300000000000D+00  0.0000000000000D+00  0.0000000000000D+00
365  3.6400000000000D+00  0.0000000000000D+00  0.0000000000000D+00
366  3.6500000000000D+00  0.0000000000000D+00  0.0000000000000D+00
367  3.6600000000000D+00  0.0000000000000D+00  0.0000000000000D+00
368  3.6700000000000D+00  0.0000000000000D+00  0.0000000000000D+00
369  3.6800000000000D+00  0.0000000000000D+00  0.0000000000000D+00
370  3.6900000000000D+00  0.0000000000000D+00  0.0000000000000D+00
371  3.7000000000000D+00  0.0000000000000D+00  0.0000000000000D+00
372  3.7100000000000D+00  0.0000000000000D+00  0.0000000000000D+00
373  3.7200000000000D+00  0.0000000000000D+00  0.0000000000000D+00
374  3.7300000000000D+00  0.0000000000000D+00  0.0000000000000D+00
375  3.7400000000000D+00  0.0000000000000D+00  0.0000000000000D+00
376  3.7500000000000D+00  0.0000000000000D+00  0.0000000000000D+00
377  3.7600000000000D+00  0.0000000000000D+00  0.0000000000000D+00
378  3.7700000000000D+00  0.0000000000000D+00  0.0000000000000D+00
379  3.7800000000000D+00  0.0000000000000D+00  0.0000000000000D+00
380  3.7900000000000D+00  0.0000000000000D+00  0.0000000000000D+00
381  3.8000000000000D+00  0.0000000000000D+00  0.0000000000000D+00
382  3.8100000000000D+00  0.0000000000000D+00  0.0000000000000D+00
383  3.8200000000000D+00  0.0000000000000D+00  0.0000000000000D+00
384  3.8300000000000D+00  0.0000000000000D+00  0.0000000000000D+00
385  3.8400000000000D+00  0.0000000000000D+00  0.0000000000000D+00
386  3.8500000000000D+00  0.0000000000000D+00  0.0000000000000D+00
387  3.8600000000000D+00  0.0000000000000D+00  0.0000000000000D+00
388  3.8700000000000D+00  0.0000000000000D+00  0.0000000000000D+00
389  3.8800000000000D+00  0.0000000000000D+00  0.0000000000000D+00
390  3.8900000000000D+00  0.0000000000000D+00  0.0000000000000D+00
391  3.9000000000000D+00  0.0000000000000D+00  0.0000000000000D+00
392  3.9100000000000D+00  0.0000000000000D+00  0.0000000000000D+00
393  3.9200000000000D+00  0.0000000000000D+00  0.0000000000000D+00
394  3.9300000000000D+00  0.0000000000000D+00  0.0000000000000D+00
395  3.9400000000000D+00  0.0000000000000D+00  0.0000000000000D+00
396  3.9500000000000D+00  0.0000000000000D+00  0.0000000000000D+00
397  3.9600000000000D+00  0.0000000000000D+00  0.0000000000000D+00
398  3.9700000000000D+00  0.0000000000000D+00  0.0000000000000D+00
399  3.9800000000000D+00  0.0000000000000D+00  0.0000000000000D+00
400  3.9900000000000D+00  0.0000000000000D+00  0.0000000000000D+00
1                         4.1793760383650D+00  5.0197535435239D-01  4.1591616272647D-05
1  0.0000000000000D+00  4.6003494486024D-09 -1.8971064857931D-08  2.6630057964327D-08
2  1.0000000000000D-02  1.7492193873912D-03 -1.9899345801761D-03  3.2255253207162D-03
3  2.0000000000000D-02  6.9838273987321D-03 -7.9224364095656D-03  1.2848288547029D-02
4  3.0000000000000D-02  1.5664841432939D-02 -1.7686246837316D-02  2.8707754010905D-02
5  4.0000000000000D-02  2.7727847364031D-02 -3.1098080856655D-02  5.0539355540025D-02
6  5.0000000000000D-02  4.3083825696267D-02 -4.7905808376321D-02  7.7978933495799D-02
7  6.0000000000000D-02  6.1620290014024D-02 -6.7792832938147D-02  1.1056884169949D-01
8  7.0000000000000D-02  8.3202719907329D-02 -9.0383594278509D-02  1.4776562151315D-01
9  8.0000000000000D-02  1.0767626595357D-01 -1.1525010216026D-01  1.8894911371208D-01
10  9.0000000000000D-02  1.3486770009356D-01 -1.4191939143162D-01  2.3343285472507D-01
11  1.0000000000000D-01  1.6458758092392D-01 -1.6988177258506D-01  2.8047558176347D-01
12  1.1000000000000D-01  1.9663260009810D-01 -1.9859973844578D-01  3.2929365274408D-01
13  1.2000000000000D-01  2.3078807324079D-01 -2.2751737624699D-01  3.7907417110909D-01
14  1.3000000000000D-01  2.6683053657871D-01 -2.5607012543401D-01  4.2898859353308D-01
15  1.4000000000000D-01  3.0453040891241D-01 -2.8369471523313D-01  4.7820659002839D-01
16  1.5000000000000D-01  3.4365467762449D-01 -3.0983911243743D-01  5.2590992135915D-01
17  1.6000000000000D-01  3.8396956715600D-01 -3.3397230906347D-01  5.7130609791362D-01
18  1.7000000000000D-01  4.2524314879118D-01 -3.5559378154824D-01  6.1364158755026D-01
19  1.8000000000000D-01  4.6724785166487D-01 -3.7424245795927D-01  6.5221434701159D-01
20  1.9000000000000D-01  5.0976283663342D-01 -3.8950503722015D-01  6.8638546252893D-01
21  2.0000000000000D-01  5.5257619700076D-01 -4.0102351449585D-01  7.1558969992649D-01
22  2.1000000000000D-01  5.9548695303263D-01 -4.0850177948908D-01  7.3934478248318D-01
23  2.2000000000000D-01  6.3830681067642D-01 -4.1171116927376D-01  7.5725923608341D-01
24  2.3000000000000D-01  6.8086165887896D-01 -4.1049487420917D-01  7.6903866511818D-01
25  2.4000000000000D-01  7.2299278429588D-01 -4.0477111417185D-01  7.7449034899311D-01
26  2.5000000000000D-01  7.6455778694582D-01 -3.9453502251953D-01  7.7352607748294D-01
27  2.6000000000000D-01  8.0543118540310D-01 -3.7985919654255D-01  7.6616317300773D-01
28  2.7000000000000D-01  8.4550470536488D-01 -3.6089289532234D-01  7.5252367889018D-01
29  2.8000000000000D-01  8.8468725078677D-01 -3.3785988854918D-01  7.3283172399044D-01
30  2.9000000000000D-01  9.2290456216897D-01 -3.1105498258426D-01  7.0740910560843D-01
31  3.0000000000000D-01  9.6009857190467D-01 -2.8083927251595D-01  6.7666916337150D-01
32  3.1000000000000D-01  9.9622647178558D-01 -2.4763419078659D-01  6.4110904667977D-01