H     ONCVPSP  r_core=  1.01  1.01
1.0000      1.0000      140816    zatom,zion,pspd
8    11     1     4   301     0    pspcod,pspxc,lmax,lloc,mmax,r2well
3.00000000  0.00000000  0.00000000    rchrg fchrg qchrg
2     2     0     0     0    nproj
0                 extension_switch
0                        -7.7497124112480D+00 -1.2385527703838D+00
1  0.0000000000000D+00 -0.0000000000000D+00 -0.0000000000000D+00
2  1.0000000000000D-02 -2.5707248611062D-01 -1.3009639036337D-02
3  2.0000000000000D-02 -5.1103106357927D-01 -2.6705794476341D-02
4  3.0000000000000D-02 -7.5880728117818D-01 -4.1762736961970D-02
5  4.0000000000000D-02 -9.9742286286398D-01 -5.8830444534061D-02
6  5.0000000000000D-02 -1.2240329591340D+00 -7.8522950310161D-02
7  6.0000000000000D-02 -1.4359672306133D+00 -1.0140727370438D-01
8  7.0000000000000D-02 -1.6307681004194D+00 -1.2799311440640D-01
9  8.0000000000000D-02 -1.8062255604677D+00 -1.5872347575369D-01
10  9.0000000000000D-02 -1.9604079774496D+00 -1.9396636842264D-01
11  1.0000000000000D-01 -2.0916884124474D+00 -2.3400772766110D-01
12  1.1000000000000D-01 -2.1987660464236D+00 -2.7904565692297D-01
13  1.2000000000000D-01 -2.2806823882677D+00 -3.2918608875902D-01
14  1.3000000000000D-01 -2.3368320317188D+00 -3.8443993040405D-01
15  1.4000000000000D-01 -2.3669678181857D+00 -4.4472173774018D-01
16  1.5000000000000D-01 -2.3712003661445D+00 -5.0984993404369D-01
17  1.6000000000000D-01 -2.3499920113206D+00 -5.7954856784978D-01
18  1.7000000000000D-01 -2.3041453081781D+00 -6.5345057616404D-01
19  1.8000000000000D-01 -2.2347863280285D+00 -7.3110249638280D-01
20  1.9000000000000D-01 -2.1433430714896D+00 -8.1197054848429D-01
21  2.0000000000000D-01 -2.0315194292926D+00 -8.9544797684179D-01
22  2.1000000000000D-01 -1.9012650927393D+00 -9.8086355107236D-01
23  2.2000000000000D-01 -1.7547420649671D+00 -1.0674910547005D+00
24  2.3000000000000D-01 -1.5942882692544D+00 -1.1545596343566D+00
25  2.4000000000000D-01 -1.4223790125721D+00 -1.2412648072786D+00
26  2.5000000000000D-01 -1.2415866530051D+00 -1.3267800409578D+00
27  2.6000000000000D-01 -1.0545398835980D+00 -1.4102685136947D+00
28  2.7000000000000D-01 -8.6388221080963D-01 -1.4908951877476D+00
29  2.8000000000000D-01 -6.7223152486498D-01 -1.5678386610346D+00
30  2.9000000000000D-01 -4.8214056703015D-01 -1.6403028603313D+00
31  3.0000000000000D-01 -2.9605929367310D-01 -1.7075282941689D+00
32  3.1000000000000D-01 -1.1629969996592D-01 -1.7688027057570D+00
33  3.2000000000000D-01  5.4996100005991D-02 -1.8234708927264D+00
34  3.3000000000000D-01  2.1588519941127D-01 -1.8709438929982D+00
35  3.4000000000000D-01  3.6464791891323D-01 -1.9107067256085D+00
36  3.5000000000000D-01  4.9980872224937D-01 -1.9423253344096D+00
37  3.6000000000000D-01  6.2015197203136D-01 -1.9654521115578D+00
38  3.7000000000000D-01  7.2473352130459D-01 -1.9798302887233D+00
39  3.8000000000000D-01  8.1288649665740D-01 -1.9852966653142D+00
40  3.9000000000000D-01  8.8422335954704D-01 -1.9817833060744D+00
41  4.0000000000000D-01  9.3863278311060D-01 -1.9693177297148D+00
42  4.1000000000000D-01  9.7627155583857D-01 -1.9480216062967D+00
43  4.2000000000000D-01  9.9755261436998D-01 -1.9181082938226D+00
44  4.3000000000000D-01  1.0031288753172D+00 -1.8798790653964D+00
45  4.4000000000000D-01  9.9387339742024D-01 -1.8337181562405D+00
46  4.5000000000000D-01  9.7085631716190D-01 -1.7800867296828D+00
47  4.6000000000000D-01  9.3531905270547D-01 -1.7195158768913D+00
48  4.7000000000000D-01  8.8864645390276D-01 -1.6525988116293D+00
49  4.8000000000000D-01  8.3233716326422D-01 -1.5799823460631D+00
50  4.9000000000000D-01  7.6797248639711D-01 -1.5023576798736D+00
51  5.0000000000000D-01  6.9718561012560D-01 -1.4204509862819D+00
52  5.1000000000000D-01  6.2163156812432D-01 -1.3350139668779D+00
53  5.2000000000000D-01  5.4295471848334D-01 -1.2468134273182D+00
54  5.3000000000000D-01  4.6276057398038D-01 -1.1566217290520D+00
55  5.4000000000000D-01  3.8259141716265D-01 -1.0652081622790D+00
56  5.5000000000000D-01  3.0389384814306D-01 -9.7332749687707D-01
57  5.6000000000000D-01  2.2800583638870D-01 -8.8171421856452D-01
58  5.7000000000000D-01  1.5612711427124D-01 -7.9107119582001D-01
59  5.8000000000000D-01  8.9313149625909D-02 -7.0206560544440D-01
60  5.9000000000000D-01  2.8451135770704D-02 -6.1531847231908D-01
61  6.0000000000000D-01 -2.5736539558932D-02 -5.3140335078346D-01
62  6.1000000000000D-01 -7.2711116416931D-02 -4.5083657319791D-01
63  6.2000000000000D-01 -1.1210857189496D-01 -3.7407733373221D-01
64  6.3000000000000D-01 -1.4374197286775D-01 -3.0152323040047D-01
65  6.4000000000000D-01 -1.6759891253025D-01 -2.3350701211153D-01
66  6.5000000000000D-01 -1.8382729025486D-01 -1.7029814577495D-01
67  6.6000000000000D-01 -1.9272680052087D-01 -1.1210152930829D-01
68  6.7000000000000D-01 -1.9473640443664D-01 -5.9057146868946D-02
69  6.8000000000000D-01 -1.9041435755395D-01 -1.1243771421207D-02
70  6.9000000000000D-01 -1.8042127130490D-01  3.1319074278264D-02
71  7.0000000000000D-01 -1.6550091541484D-01  6.8668574773098D-02
72  7.1000000000000D-01 -1.4645869546231D-01  1.0089489754089D-01
73  7.2000000000000D-01 -1.2414026753010D-01  1.2813613820075D-01
74  7.3000000000000D-01 -9.9410501747088D-02  1.5057400993879D-01
75  7.4000000000000D-01 -7.3132604484380D-02  1.6842885807130D-01
76  7.5000000000000D-01 -4.6148943670206D-02  1.8195446996759D-01
77  7.6000000000000D-01 -1.9260190228804D-02  1.9143280656410D-01
78  7.7000000000000D-01  6.7907304196545D-03  1.9716848519843D-01
79  7.8000000000000D-01  3.1333179945659D-02  1.9948359576540D-01
80  7.9000000000000D-01  5.3781968496352D-02  1.9871261136361D-01
81  8.0000000000000D-01  7.3647658041105D-02  1.9519751561989D-01
82  8.1000000000000D-01  9.0544190352820D-02  1.8928322479705D-01
83  8.2000000000000D-01  1.0419373213275D-01  1.8131335919375D-01
84  8.3000000000000D-01  1.1442869472838D-01  1.7162640674943D-01
85  8.4000000000000D-01  1.2119095049199D-01  1.6055230986874D-01
86  8.5000000000000D-01  1.2452833076352D-01  1.4840949456829D-01
87  8.6000000000000D-01  1.2458855055003D-01  1.3550234939103D-01
88  8.7000000000000D-01  1.2161076116156D-01  1.2211915036752D-01
89  8.8000000000000D-01  1.1591498340878D-01  1.0853041783983D-01
90  8.9000000000000D-01  1.0788971960567D-01  9.4987681389650D-02
91  9.0000000000000D-01  9.7978081719272D-02  8.1722620596856D-02
92  9.1000000000000D-01  8.6662804714647D-02  6.8946542058376D-02
93  9.2000000000000D-01  7.4450537556616D-02  5.6850147174939D-02
94  9.3000000000000D-01  6.1855818482727D-02  4.5603540818756D-02
95  9.4000000000000D-01  4.9385145057868D-02  3.5356428275282D-02
96  9.5000000000000D-01  3.7523387009395D-02  2.6239022278729D-02
97  9.6000000000000D-01  2.6714738661449D-02  1.8360785050447D-02
98  9.7000000000000D-01  1.7352102525209D-02  1.1812330877882D-02
99  9.8000000000000D-01  9.7651093538779D-03  6.6655708355679D-03
100  9.9000000000000D-01  4.2100094745730D-03  2.9739972460394D-03
101  1.0000000000000D+00  9.0722265692603D-04  8.0895463755681D-04
102  1.0100000000000D+00 -2.0689572473395D-04  6.3526925481829D-05
103  1.0200000000000D+00 -6.3943341334097D-05 -1.6030875734557D-05
104  1.0300000000000D+00  9.7527368401374D-06 -3.9523848742035D-06
105  1.0400000000000D+00  0.0000000000000D+00  0.0000000000000D+00
106  1.0500000000000D+00  0.0000000000000D+00  0.0000000000000D+00
107  1.0600000000000D+00  0.0000000000000D+00  0.0000000000000D+00
108  1.0700000000000D+00  0.0000000000000D+00  0.0000000000000D+00
109  1.0800000000000D+00  0.0000000000000D+00  0.0000000000000D+00
110  1.0900000000000D+00  0.0000000000000D+00  0.0000000000000D+00
111  1.1000000000000D+00  0.0000000000000D+00  0.0000000000000D+00
112  1.1100000000000D+00  0.0000000000000D+00  0.0000000000000D+00
113  1.1200000000000D+00  0.0000000000000D+00  0.0000000000000D+00
114  1.1300000000000D+00  0.0000000000000D+00  0.0000000000000D+00
115  1.1400000000000D+00  0.0000000000000D+00  0.0000000000000D+00
116  1.1500000000000D+00  0.0000000000000D+00  0.0000000000000D+00
117  1.1600000000000D+00  0.0000000000000D+00  0.0000000000000D+00
118  1.1700000000000D+00  0.0000000000000D+00  0.0000000000000D+00
119  1.1800000000000D+00  0.0000000000000D+00  0.0000000000000D+00
120  1.1900000000000D+00  0.0000000000000D+00  0.0000000000000D+00
121  1.2000000000000D+00  0.0000000000000D+00  0.0000000000000D+00
122  1.2100000000000D+00  0.0000000000000D+00  0.0000000000000D+00
123  1.2200000000000D+00  0.0000000000000D+00  0.0000000000000D+00
124  1.2300000000000D+00  0.0000000000000D+00  0.0000000000000D+00
125  1.2400000000000D+00  0.0000000000000D+00  0.0000000000000D+00
126  1.2500000000000D+00  0.0000000000000D+00  0.0000000000000D+00
127  1.2600000000000D+00  0.0000000000000D+00  0.0000000000000D+00
128  1.2700000000000D+00  0.0000000000000D+00  0.0000000000000D+00
129  1.2800000000000D+00  0.0000000000000D+00  0.0000000000000D+00
130  1.2900000000000D+00  0.0000000000000D+00  0.0000000000000D+00
131  1.3000000000000D+00  0.0000000000000D+00  0.0000000000000D+00
132  1.3100000000000D+00  0.0000000000000D+00  0.0000000000000D+00
133  1.3200000000000D+00  0.0000000000000D+00  0.0000000000000D+00
134  1.3300000000000D+00  0.0000000000000D+00  0.0000000000000D+00
135  1.3400000000000D+00  0.0000000000000D+00  0.0000000000000D+00
136  1.3500000000000D+00  0.0000000000000D+00  0.0000000000000D+00
137  1.3600000000000D+00  0.0000000000000D+00  0.0000000000000D+00
138  1.3700000000000D+00  0.0000000000000D+00  0.0000000000000D+00
139  1.3800000000000D+00  0.0000000000000D+00  0.0000000000000D+00
140  1.3900000000000D+00  0.0000000000000D+00  0.0000000000000D+00
141  1.4000000000000D+00  0.0000000000000D+00  0.0000000000000D+00
142  1.4100000000000D+00  0.0000000000000D+00  0.0000000000000D+00
143  1.4200000000000D+00  0.0000000000000D+00  0.0000000000000D+00
144  1.4300000000000D+00  0.0000000000000D+00  0.0000000000000D+00
145  1.4400000000000D+00  0.0000000000000D+00  0.0000000000000D+00
146  1.4500000000000D+00  0.0000000000000D+00  0.0000000000000D+00
147  1.4600000000000D+00  0.0000000000000D+00  0.0000000000000D+00
148  1.4700000000000D+00  0.0000000000000D+00  0.0000000000000D+00
149  1.4800000000000D+00  0.0000000000000D+00  0.0000000000000D+00
150  1.4900000000000D+00  0.0000000000000D+00  0.0000000000000D+00
151  1.5000000000000D+00  0.0000000000000D+00  0.0000000000000D+00
152  1.5100000000000D+00  0.0000000000000D+00  0.0000000000000D+00
153  1.5200000000000D+00  0.0000000000000D+00  0.0000000000000D+00
154  1.5300000000000D+00  0.0000000000000D+00  0.0000000000000D+00
155  1.5400000000000D+00  0.0000000000000D+00  0.0000000000000D+00
156  1.5500000000000D+00  0.0000000000000D+00  0.0000000000000D+00
157  1.5600000000000D+00  0.0000000000000D+00  0.0000000000000D+00
158  1.5700000000000D+00  0.0000000000000D+00  0.0000000000000D+00
159  1.5800000000000D+00  0.0000000000000D+00  0.0000000000000D+00
160  1.5900000000000D+00  0.0000000000000D+00  0.0000000000000D+00
161  1.6000000000000D+00  0.0000000000000D+00  0.0000000000000D+00
162  1.6100000000000D+00  0.0000000000000D+00  0.0000000000000D+00
163  1.6200000000000D+00  0.0000000000000D+00  0.0000000000000D+00
164  1.6300000000000D+00  0.0000000000000D+00  0.0000000000000D+00
165  1.6400000000000D+00  0.0000000000000D+00  0.0000000000000D+00
166  1.6500000000000D+00  0.0000000000000D+00  0.0000000000000D+00
167  1.6600000000000D+00  0.0000000000000D+00  0.0000000000000D+00
168  1.6700000000000D+00  0.0000000000000D+00  0.0000000000000D+00
169  1.6800000000000D+00  0.0000000000000D+00  0.0000000000000D+00
170  1.6900000000000D+00  0.0000000000000D+00  0.0000000000000D+00
171  1.7000000000000D+00  0.0000000000000D+00  0.0000000000000D+00
172  1.7100000000000D+00  0.0000000000000D+00  0.0000000000000D+00
173  1.7200000000000D+00  0.0000000000000D+00  0.0000000000000D+00
174  1.7300000000000D+00  0.0000000000000D+00  0.0000000000000D+00
175  1.7400000000000D+00  0.0000000000000D+00  0.0000000000000D+00
176  1.7500000000000D+00  0.0000000000000D+00  0.0000000000000D+00
177  1.7600000000000D+00  0.0000000000000D+00  0.0000000000000D+00
178  1.7700000000000D+00  0.0000000000000D+00  0.0000000000000D+00
179  1.7800000000000D+00  0.0000000000000D+00  0.0000000000000D+00
180  1.7900000000000D+00  0.0000000000000D+00  0.0000000000000D+00
181  1.8000000000000D+00  0.0000000000000D+00  0.0000000000000D+00
182  1.8100000000000D+00  0.0000000000000D+00  0.0000000000000D+00
183  1.8200000000000D+00  0.0000000000000D+00  0.0000000000000D+00
184  1.8300000000000D+00  0.0000000000000D+00  0.0000000000000D+00
185  1.8400000000000D+00  0.0000000000000D+00  0.0000000000000D+00
186  1.8500000000000D+00  0.0000000000000D+00  0.0000000000000D+00
187  1.8600000000000D+00  0.0000000000000D+00  0.0000000000000D+00
188  1.8700000000000D+00  0.0000000000000D+00  0.0000000000000D+00
189  1.8800000000000D+00  0.0000000000000D+00  0.0000000000000D+00
190  1.8900000000000D+00  0.0000000000000D+00  0.0000000000000D+00
191  1.9000000000000D+00  0.0000000000000D+00  0.0000000000000D+00
192  1.9100000000000D+00  0.0000000000000D+00  0.0000000000000D+00
193  1.9200000000000D+00  0.0000000000000D+00  0.0000000000000D+00
194  1.9300000000000D+00  0.0000000000000D+00  0.0000000000000D+00
195  1.9400000000000D+00  0.0000000000000D+00  0.0000000000000D+00
196  1.9500000000000D+00  0.0000000000000D+00  0.0000000000000D+00
197  1.9600000000000D+00  0.0000000000000D+00  0.0000000000000D+00
198  1.9700000000000D+00  0.0000000000000D+00  0.0000000000000D+00
199  1.9800000000000D+00  0.0000000000000D+00  0.0000000000000D+00
200  1.9900000000000D+00  0.0000000000000D+00  0.0000000000000D+00
201  2.0000000000000D+00  0.0000000000000D+00  0.0000000000000D+00
202  2.0100000000000D+00  0.0000000000000D+00  0.0000000000000D+00
203  2.0200000000000D+00  0.0000000000000D+00  0.0000000000000D+00
204  2.0300000000000D+00  0.0000000000000D+00  0.0000000000000D+00
205  2.0400000000000D+00  0.0000000000000D+00  0.0000000000000D+00
206  2.0500000000000D+00  0.0000000000000D+00  0.0000000000000D+00
207  2.0600000000000D+00  0.0000000000000D+00  0.0000000000000D+00
208  2.0700000000000D+00  0.0000000000000D+00  0.0000000000000D+00
209  2.0800000000000D+00  0.0000000000000D+00  0.0000000000000D+00
210  2.0900000000000D+00  0.0000000000000D+00  0.0000000000000D+00
211  2.1000000000000D+00  0.0000000000000D+00  0.0000000000000D+00
212  2.1100000000000D+00  0.0000000000000D+00  0.0000000000000D+00
213  2.1200000000000D+00  0.0000000000000D+00  0.0000000000000D+00
214  2.1300000000000D+00  0.0000000000000D+00  0.0000000000000D+00
215  2.1400000000000D+00  0.0000000000000D+00  0.0000000000000D+00
216  2.1500000000000D+00  0.0000000000000D+00  0.0000000000000D+00
217  2.1600000000000D+00  0.0000000000000D+00  0.0000000000000D+00
218  2.1700000000000D+00  0.0000000000000D+00  0.0000000000000D+00
219  2.1800000000000D+00  0.0000000000000D+00  0.0000000000000D+00
220  2.1900000000000D+00  0.0000000000000D+00  0.0000000000000D+00
221  2.2000000000000D+00  0.0000000000000D+00  0.0000000000000D+00
222  2.2100000000000D+00  0.0000000000000D+00  0.0000000000000D+00
223  2.2200000000000D+00  0.0000000000000D+00  0.0000000000000D+00
224  2.2300000000000D+00  0.0000000000000D+00  0.0000000000000D+00
225  2.2400000000000D+00  0.0000000000000D+00  0.0000000000000D+00
226  2.2500000000000D+00  0.0000000000000D+00  0.0000000000000D+00
227  2.2600000000000D+00  0.0000000000000D+00  0.0000000000000D+00
228  2.2700000000000D+00  0.0000000000000D+00  0.0000000000000D+00
229  2.2800000000000D+00  0.0000000000000D+00  0.0000000000000D+00
230  2.2900000000000D+00  0.0000000000000D+00  0.0000000000000D+00
231  2.3000000000000D+00  0.0000000000000D+00  0.0000000000000D+00
232  2.3100000000000D+00  0.0000000000000D+00  0.0000000000000D+00
233  2.3200000000000D+00  0.0000000000000D+00  0.0000000000000D+00
234  2.3300000000000D+00  0.0000000000000D+00  0.0000000000000D+00
235  2.3400000000000D+00  0.0000000000000D+00  0.0000000000000D+00
236  2.3500000000000D+00  0.0000000000000D+00  0.0000000000000D+00
237  2.3600000000000D+00  0.0000000000000D+00  0.0000000000000D+00
238  2.3700000000000D+00  0.0000000000000D+00  0.0000000000000D+00
239  2.3800000000000D+00  0.0000000000000D+00  0.0000000000000D+00
240  2.3900000000000D+00  0.0000000000000D+00  0.0000000000000D+00
241  2.4000000000000D+00  0.0000000000000D+00  0.0000000000000D+00
242  2.4100000000000D+00  0.0000000000000D+00  0.0000000000000D+00
243  2.4200000000000D+00  0.0000000000000D+00  0.0000000000000D+00
244  2.4300000000000D+00  0.0000000000000D+00  0.0000000000000D+00
245  2.4400000000000D+00  0.0000000000000D+00  0.0000000000000D+00
246  2.4500000000000D+00  0.0000000000000D+00  0.0000000000000D+00
247  2.4600000000000D+00  0.0000000000000D+00  0.0000000000000D+00
248  2.4700000000000D+00  0.0000000000000D+00  0.0000000000000D+00
249  2.4800000000000D+00  0.0000000000000D+00  0.0000000000000D+00
250  2.4900000000000D+00  0.0000000000000D+00  0.0000000000000D+00
251  2.5000000000000D+00  0.0000000000000D+00  0.0000000000000D+00
252  2.5100000000000D+00  0.0000000000000D+00  0.0000000000000D+00
253  2.5200000000000D+00  0.0000000000000D+00  0.0000000000000D+00
254  2.5300000000000D+00  0.0000000000000D+00  0.0000000000000D+00
255  2.5400000000000D+00  0.0000000000000D+00  0.0000000000000D+00
256  2.5500000000000D+00  0.0000000000000D+00  0.0000000000000D+00
257  2.5600000000000D+00  0.0000000000000D+00  0.0000000000000D+00
258  2.5700000000000D+00  0.0000000000000D+00  0.0000000000000D+00
259  2.5800000000000D+00  0.0000000000000D+00  0.0000000000000D+00
260  2.5900000000000D+00  0.0000000000000D+00  0.0000000000000D+00
261  2.6000000000000D+00  0.0000000000000D+00  0.0000000000000D+00
262  2.6100000000000D+00  0.0000000000000D+00  0.0000000000000D+00
263  2.6200000000000D+00  0.0000000000000D+00  0.0000000000000D+00
264  2.6300000000000D+00  0.0000000000000D+00  0.0000000000000D+00
265  2.6400000000000D+00  0.0000000000000D+00  0.0000000000000D+00
266  2.6500000000000D+00  0.0000000000000D+00  0.0000000000000D+00
267  2.6600000000000D+00  0.0000000000000D+00  0.0000000000000D+00
268  2.6700000000000D+00  0.0000000000000D+00  0.0000000000000D+00
269  2.6800000000000D+00  0.0000000000000D+00  0.0000000000000D+00
270  2.6900000000000D+00  0.0000000000000D+00  0.0000000000000D+00
271  2.7000000000000D+00  0.0000000000000D+00  0.0000000000000D+00
272  2.7100000000000D+00  0.0000000000000D+00  0.0000000000000D+00
273  2.7200000000000D+00  0.0000000000000D+00  0.0000000000000D+00
274  2.7300000000000D+00  0.0000000000000D+00  0.0000000000000D+00
275  2.7400000000000D+00  0.0000000000000D+00  0.0000000000000D+00
276  2.7500000000000D+00  0.0000000000000D+00  0.0000000000000D+00
277  2.7600000000000D+00  0.0000000000000D+00  0.0000000000000D+00
278  2.7700000000000D+00  0.0000000000000D+00  0.0000000000000D+00
279  2.7800000000000D+00  0.0000000000000D+00  0.0000000000000D+00
280  2.7900000000000D+00  0.0000000000000D+00  0.0000000000000D+00
281  2.8000000000000D+00  0.0000000000000D+00  0.0000000000000D+00
282  2.8100000000000D+00  0.0000000000000D+00  0.0000000000000D+00
283  2.8200000000000D+00  0.0000000000000D+00  0.0000000000000D+00
284  2.8300000000000D+00  0.0000000000000D+00  0.0000000000000D+00
285  2.8400000000000D+00  0.0000000000000D+00  0.0000000000000D+00
286  2.8500000000000D+00  0.0000000000000D+00  0.0000000000000D+00
287  2.8600000000000D+00  0.0000000000000D+00  0.0000000000000D+00
288  2.8700000000000D+00  0.0000000000000D+00  0.0000000000000D+00
289  2.8800000000000D+00  0.0000000000000D+00  0.0000000000000D+00
290  2.8900000000000D+00  0.0000000000000D+00  0.0000000000000D+00
291  2.9000000000000D+00  0.0000000000000D+00  0.0000000000000D+00
292  2.9100000000000D+00  0.0000000000000D+00  0.0000000000000D+00
293  2.9200000000000D+00  0.0000000000000D+00  0.0000000000000D+00
294  2.9300000000000D+00  0.0000000000000D+00  0.0000000000000D+00
295  2.9400000000000D+00  0.0000000000000D+00  0.0000000000000D+00
296  2.9500000000000D+00  0.0000000000000D+00  0.0000000000000D+00
297  2.9600000000000D+00  0.0000000000000D+00  0.0000000000000D+00
298  2.9700000000000D+00  0.0000000000000D+00  0.0000000000000D+00
299  2.9800000000000D+00  0.0000000000000D+00  0.0000000000000D+00
300  2.9900000000000D+00  0.0000000000000D+00  0.0000000000000D+00
301  3.0000000000000D+00  0.0000000000000D+00  0.0000000000000D+00
1                        -1.0052741013437D+02 -4.1724916612985D+00
1  0.0000000000000D+00 -0.0000000000000D+00  0.0000000000000D+00
2  1.0000000000000D-02 -1.2693704336238D-02  3.2463129266901D-04
3  2.0000000000000D-02 -5.0485859998253D-02  1.3730806344361D-03
4  3.0000000000000D-02 -1.1251585261823D-01  3.3664340809939D-03
5  4.0000000000000D-02 -1.9737004620284D-01  6.6646368754617D-03
6  5.0000000000000D-02 -3.0311238647968D-01  1.1753938035936D-02
7  6.0000000000000D-02 -4.2732629944751D-01  1.9229790270690D-02
8  7.0000000000000D-02 -5.6716696457284D-01  2.9775668290953D-02
9  8.0000000000000D-02 -7.1942281472996D-01  4.4138380771273D-02
10  9.0000000000000D-02 -8.8058491370498D-01  6.3100548799404D-02
11  1.0000000000000D-01 -1.0469226905293D+00  8.7451004511510D-02
12  1.1000000000000D-01 -1.2145643728577D+00  1.1795392527339D-01
13  1.2000000000000D-01 -1.3795803615492D+00  1.5531755987890D-01
14  1.3000000000000D-01 -1.5380677277378D+00  2.0016342274969D-01
15  1.4000000000000D-01 -1.6862339916610D+00  2.5299682952385D-01
16  1.5000000000000D-01 -1.8204783676298D+00  3.1417962170512D-01
17  1.6000000000000D-01 -1.9374687137026D+00  3.8390588144669D-01
18  1.7000000000000D-01 -2.0342125308825D+00  4.6218137163288D-01
19  1.8000000000000D-01 -2.1081204899596D+00  5.4880734484359D-01
20  1.9000000000000D-01 -2.1570611290708D+00  6.4336927105817D-01
21  2.0000000000000D-01 -2.1794055955366D+00  7.4523089001397D-01
22  2.1000000000000D-01 -2.1740614382664D+00  8.5353392665446D-01
23  2.2000000000000D-01 -2.1404948616622D+00  9.6720356286651D-01
24  2.3000000000000D-01 -2.0787409290744D+00  1.0849597336336D+00
25  2.4000000000000D-01 -1.9894016746895D+00  1.2053340456918D+00
26  2.5000000000000D-01 -1.8736318940692D+00  1.3266922224068D+00
27  2.6000000000000D-01 -1.7331137632137D+00  1.4472612482783D+00
28  2.7000000000000D-01 -1.5700197013550D+00  1.5651613026193D+00
29  2.8000000000000D-01 -1.3869656729792D+00  1.6784411301753D+00
30  2.9000000000000D-01 -1.1869550586917D+00  1.7851165769113D+00
31  3.0000000000000D-01 -9.7331476469207D-01  1.8832112359988D+00
32  3.1000000000000D-01 -7.4962497615129D-01  1.9707983076227D+00
33  3.2000000000000D-01 -5.1964447875081D-01  2.0460425731939D+00
34  3.3000000000000D-01 -2.8723160913693D-01  2.1072421590786D+00
35  3.4000000000000D-01 -5.6265727642007D-02  2.1528677962650D+00
36  3.5000000000000D-01  1.6943257198787D-01  2.1816000910882D+00
37  3.6000000000000D-01  3.8617830689915D-01  2.1923628654533D+00
38  3.7000000000000D-01  5.9049607700098D-01  2.1843523713493D+00
39  3.8000000000000D-01  7.7918720694647D-01  2.1570608984123D+00
40  3.9000000000000D-01  9.4939189749419D-01  2.1102951130334D+00
41  4.0000000000000D-01  1.0986427688796D+00  2.0441878234405D+00
42  4.1000000000000D-01  1.2249087031134D+00  1.9592030295190D+00
43  4.2000000000000D-01  1.3266295716008D+00  1.8561342302678D+00
44  4.3000000000000D-01  1.4027401695910D+00  1.7360957162228D+00
45  4.4000000000000D-01  1.4526832111515D+00  1.6005069960376D+00
46  4.5000000000000D-01  1.4764112522744D+00  1.4510706111930D+00
47  4.6000000000000D-01  1.4743776636771D+00  1.2897437520601D+00
48  4.7000000000000D-01  1.4475173062900D+00  1.1187045694981D+00
49  4.8000000000000D-01  1.3972169290914D+00  9.4031292229951D-01
50  4.9000000000000D-01  1.3252754993810D+00  7.5706642329724D-01
51  5.0000000000000D-01  1.2338579903319D+00  5.7155497641865D-01
52  5.1000000000000D-01  1.1254435855840D+00  3.8641366803901D-01
53  5.2000000000000D-01  1.0027615781412D+00  2.0426882498842D-01
54  5.3000000000000D-01  8.6872947126209D-01  2.7690034294202D-02
55  5.4000000000000D-01  7.2639303453145D-01 -1.4085455654135D-01
56  5.5000000000000D-01  5.7884273116097D-01 -2.9905676242633D-01
57  5.6000000000000D-01  4.2916755638268D-01 -4.4479764874463D-01
58  5.7000000000000D-01  2.8036733962636D-01 -5.7620267237207D-01
59  5.8000000000000D-01  1.3531396839504D-01 -6.9166207430317D-01
60  5.9000000000000D-01 -3.3314989993456D-03 -7.8987579373368D-01
61  6.0000000000000D-01 -1.3314079938007D-01 -8.6986016645748D-01
62  6.1000000000000D-01 -2.5199401396770D-01 -9.3098081977533D-01
63  6.2000000000000D-01 -3.5809087819302D-01 -9.7294910338079D-01
64  6.3000000000000D-01 -4.4998840296238D-01 -9.9582906753655D-01
65  6.4000000000000D-01 -5.2662667579885D-01 -1.0000337830550D+00
66  6.5000000000000D-01 -5.8732455342098D-01 -9.8630782451000D-01
67  6.6000000000000D-01 -6.3178739235288D-01 -9.5571050738626D-01
68  6.7000000000000D-01 -6.6010285178796D-01 -9.0958857506811D-01
69  6.8000000000000D-01 -6.7271465859658D-01 -8.4954330303132D-01
70  6.9000000000000D-01 -6.7040077621121D-01 -7.7739494251029D-01
71  7.0000000000000D-01 -6.5424253172734D-01 -6.9513962462374D-01
72  7.1000000000000D-01 -6.2558402371691D-01 -6.0490150112468D-01
73  7.2000000000000D-01 -5.8598763090049D-01 -5.0888906258276D-01
74  7.3000000000000D-01 -5.3718690716067D-01 -4.0934527155856D-01
75  7.4000000000000D-01 -4.8103605401407D-01 -3.0849860900045D-01
76  7.5000000000000D-01 -4.1946017461739D-01 -2.0851790621863D-01
77  7.6000000000000D-01 -3.5439808083741D-01 -1.1145893301207D-01
78  7.7000000000000D-01 -2.8775422393879D-01 -1.9225945143174D-02
79  7.8000000000000D-01 -2.2135213038544D-01  6.6465682556993D-02
80  7.9000000000000D-01 -1.5688930278943D-01  1.4412467409695D-01
81  8.0000000000000D-01 -9.5897815873257D-02  2.1251215099421D-01
82  8.1000000000000D-01 -3.9710645664136D-02  2.7066366569113D-01
83  8.2000000000000D-01  1.0565510587066D-02  3.1790450268849D-01
84  8.3000000000000D-01  5.4070348995617D-02  3.5385794119157D-01
85  8.4000000000000D-01  9.0202627774419D-02  3.7844634004567D-01
86  8.5000000000000D-01  1.1862521089535D-01  3.9188507514115D-01
87  8.6000000000000D-01  1.3926251057916D-01  3.9466952768693D-01
88  8.7000000000000D-01  1.5229055295045D-01  3.8755548533181D-01
89  8.8000000000000D-01  1.5812008449849D-01  3.7153347372520D-01
90  8.9000000000000D-01  1.5737331880464D-01  3.4779768048411D-01
91  9.0000000000000D-01  1.5085508901363D-01  3.1771026338334D-01
92  9.1000000000000D-01  1.3951931736011D-01  2.8276194652590D-01
93  9.2000000000000D-01  1.2443183424356D-01  2.4452989876700D-01
94  9.3000000000000D-01  1.0673067135717D-01  2.0463395415785D-01
95  9.4000000000000D-01  8.7585011851117D-02  1.6469227112189D-01
96  9.5000000000000D-01  6.8158719349849D-02  1.2628380725303D-01
97  9.6000000000000D-01  4.9558591180173D-02  9.0890020133570D-02
98  9.7000000000000D-01  3.2803411272724D-02  5.9866197302128D-02
99  9.8000000000000D-01  1.8788694986516D-02  3.4404229559090D-02
100  9.9000000000000D-01  8.2557487471728D-03  1.5500428525019D-02
101  1.0000000000000D+00  1.8570721490957D-03  4.1154675760161D-03
102  1.0100000000000D+00 -3.4985758429812D-04  1.4127545432680D-04
103  1.0200000000000D+00 -1.2040413107956D-04 -1.1392132654508D-04
104  1.0300000000000D+00  1.6514387753331D-05 -1.1076748544842D-05
105  1.0400000000000D+00  0.0000000000000D+00  0.0000000000000D+00
106  1.0500000000000D+00  0.0000000000000D+00  0.0000000000000D+00
107  1.0600000000000D+00  0.0000000000000D+00  0.0000000000000D+00
108  1.0700000000000D+00  0.0000000000000D+00  0.0000000000000D+00
109  1.0800000000000D+00  0.0000000000000D+00  0.0000000000000D+00
110  1.0900000000000D+00  0.0000000000000D+00  0.0000000000000D+00
111  1.1000000000000D+00  0.0000000000000D+00  0.0000000000000D+00
112  1.1100000000000D+00  0.0000000000000D+00  0.0000000000000D+00
113  1.1200000000000D+00  0.0000000000000D+00  0.0000000000000D+00
114  1.1300000000000D+00  0.0000000000000D+00  0.0000000000000D+00
115  1.1400000000000D+00  0.0000000000000D+00  0.0000000000000D+00
116  1.1500000000000D+00  0.0000000000000D+00  0.0000000000000D+00
117  1.1600000000000D+00  0.0000000000000D+00  0.0000000000000D+00
118  1.1700000000000D+00  0.0000000000000D+00  0.0000000000000D+00
119  1.1800000000000D+00  0.0000000000000D+00  0.0000000000000D+00
120  1.1900000000000D+00  0.0000000000000D+00  0.0000000000000D+00
121  1.2000000000000D+00  0.0000000000000D+00  0.0000000000000D+00
122  1.2100000000000D+00  0.0000000000000D+00  0.0000000000000D+00
123  1.2200000000000D+00  0.0000000000000D+00  0.0000000000000D+00
124  1.2300000000000D+00  0.0000000000000D+00  0.0000000000000D+00
125  1.2400000000000D+00  0.0000000000000D+00  0.0000000000000D+00
126  1.2500000000000D+00  0.0000000000000D+00  0.0000000000000D+00
127  1.2600000000000D+00  0.0000000000000D+00  0.0000000000000D+00
128  1.2700000000000D+00  0.0000000000000D+00  0.0000000000000D+00
129  1.2800000000000D+00  0.0000000000000D+00  0.0000000000000D+00
130  1.2900000000000D+00  0.0000000000000D+00  0.0000000000000D+00
131  1.3000000000000D+00  0.0000000000000D+00  0.0000000000000D+00
132  1.3100000000000D+00  0.0000000000000D+00  0.0000000000000D+00
133  1.3200000000000D+00  0.0000000000000D+00  0.0000000000000D+00
134  1.3300000000000D+00  0.0000000000000D+00  0.0000000000000D+00
135  1.3400000000000D+00  0.0000000000000D+00  0.0000000000000D+00
136  1.3500000000000D+00  0.0000000000000D+00  0.0000000000000D+00
137  1.3600000000000D+00  0.0000000000000D+00  0.0000000000000D+00
138  1.3700000000000D+00  0.0000000000000D+00  0.0000000000000D+00
139  1.3800000000000D+00  0.0000000000000D+00  0.0000000000000D+00
140  1.3900000000000D+00  0.0000000000000D+00  0.0000000000000D+00
141  1.4000000000000D+00  0.0000000000000D+00  0.0000000000000D+00
142  1.4100000000000D+00  0.0000000000000D+00  0.0000000000000D+00
143  1.4200000000000D+00  0.0000000000000D+00  0.0000000000000D+00