H     ONCVPSP  r_core=  1.06  0.91
1.0000      1.0000      140826    zatom,zion,pspd
8    11     1     4   301     0    pspcod,pspxc,lmax,lloc,mmax,r2well
3.00000000  0.00000000  0.00000000    rchrg fchrg qchrg
2     1     0     0     0    nproj
0                 extension_switch
0                        -5.2555146869195D+00 -1.0232866019770D+00
1  0.0000000000000D+00 -0.0000000000000D+00  0.0000000000000D+00
2  1.0000000000000D-02 -2.3190749636713D-01  2.9530625639562D-03
3  2.0000000000000D-02 -4.6139143024789D-01  5.1417370390859D-03
4  3.0000000000000D-02 -6.8605925708995D-01  5.8136214904553D-03
5  4.0000000000000D-02 -9.0358002126679D-01  4.2401090347201D-03
6  5.0000000000000D-02 -1.1117140401185D+00 -2.7215506704064D-04
7  6.0000000000000D-02 -1.3083412747195D+00 -8.3703373241368D-03
8  7.0000000000000D-02 -1.4914879815498D+00 -2.0645162134196D-02
9  8.0000000000000D-02 -1.6593512654710D+00 -3.7621491046441D-02
10  9.0000000000000D-02 -1.8103211874127D+00 -5.9749873210687D-02
11  1.0000000000000D-01 -1.9430001171850D+00 -8.7399190561222D-02
12  1.1000000000000D-01 -2.0562190647812D+00 -1.2085050446628D-01
13  1.2000000000000D-01 -2.1490507700367D+00 -1.6029219234189D-01
14  1.3000000000000D-01 -2.2208193802522D+00 -2.0581644321226D-01
15  1.4000000000000D-01 -2.2711065950354D+00 -2.5741716159793D-01
16  1.5000000000000D-01 -2.2997542187104D+00 -3.1498930528675D-01
17  1.6000000000000D-01 -2.3068631034465D+00 -3.7832966520250D-01
18  1.7000000000000D-01 -2.2927885341344D+00 -4.4713906945232D-01
19  1.8000000000000D-01 -2.2581321476504D+00 -5.2102597617439D-01
20  1.9000000000000D-01 -2.2037305367574D+00 -5.9951139803187D-01
21  2.0000000000000D-01 -2.1306407497141D+00 -6.8203507534756D-01
22  2.1000000000000D-01 -2.0401228926992D+00 -7.6796281909078D-01
23  2.2000000000000D-01 -1.9336201749813D+00 -8.5659488744974D-01
24  2.3000000000000D-01 -1.8127366696099D+00 -9.4717529091760D-01
25  2.4000000000000D-01 -1.6792132103719D+00 -1.0389018571194D+00
26  2.5000000000000D-01 -1.5349016115557D+00 -1.1309369861227D+00
27  2.6000000000000D-01 -1.3817380466984D+00 -1.2224187528477D+00
28  2.7000000000000D-01 -1.2217153156916D+00 -1.3124724791134D+00
29  2.8000000000000D-01 -1.0568551585522D+00 -1.4002222957274D+00
30  2.9000000000000D-01 -8.8918049777778D-01 -1.4848027511821D+00
31  3.0000000000000D-01 -7.2068823730489D-01 -1.5653702087466D+00
32  3.1000000000000D-01 -5.5332299064605D-01 -1.6411138800508D+00
33  3.2000000000000D-01 -3.8895229296723D-01 -1.7112662652342D+00
34  3.3000000000000D-01 -2.2934282580799D-01 -1.7751131995708D+00
35  3.4000000000000D-01 -7.6139595552591D-02 -1.8320026912844D+00
36  3.5000000000000D-01  6.9153448091003D-02 -1.8813531850568D+00
37  3.6000000000000D-01  2.0518984574420D-01 -1.9226606147945D+00
38  3.7000000000000D-01  3.3079478731338D-01 -1.9555045250291D+00
39  3.8000000000000D-01  4.4497560445305D-01 -1.9795526661104D+00
40  3.9000000000000D-01  5.4693018181108D-01 -1.9945647274526D+00
41  4.0000000000000D-01  6.3605202952578D-01 -2.0003946683820D+00
42  4.1000000000000D-01  7.1193193151262D-01 -1.9969915972459D+00
43  4.2000000000000D-01  7.7435702440646D-01 -1.9843995524394D+00
44  4.3000000000000D-01  8.2330681814026D-01 -1.9627559643027D+00
45  4.4000000000000D-01  8.5894641830374D-01 -1.9322888949952D+00
46  4.5000000000000D-01  8.8161712507675D-01 -1.8933131165581D+00
47  4.6000000000000D-01  8.9182462191269D-01 -1.8462251034013D+00
48  4.7000000000000D-01  8.9022502278928D-01 -1.7914970391478D+00
49  4.8000000000000D-01  8.7760912300494D-01 -1.7296699732781D+00
50  4.9000000000000D-01  8.5488479682389D-01 -1.6613460833957D+00
51  5.0000000000000D-01  8.2305832579037D-01 -1.5871803683008D+00
52  5.1000000000000D-01  7.8321530659835D-01 -1.5078720511233D+00
53  5.2000000000000D-01  7.3649963467911D-01 -1.4241550012634D+00
54  5.3000000000000D-01  6.8409329314894D-01 -1.3367883688577D+00
55  5.4000000000000D-01  6.2719777938088D-01 -1.2465478356533D+00
56  5.5000000000000D-01  5.6701033490241D-01 -1.1542143025119D+00
57  5.6000000000000D-01  5.0471016440653D-01 -1.0605670140285D+00
58  5.7000000000000D-01  4.4143461279726D-01 -9.6637182008189D-01
59  5.8000000000000D-01  3.7826878299208D-01 -8.7237555394639D-01
60  5.9000000000000D-01  3.1622316418431D-01 -7.7929448063158D-01
61  6.0000000000000D-01  2.5622901645805D-01 -6.8781110490547D-01
62  6.1000000000000D-01  1.9911740730613D-01 -5.9856272046539D-01
63  6.2000000000000D-01  1.4561788116421D-01 -5.1213944944007D-01
64  6.3000000000000D-01  9.6348375245506D-02 -4.2907770590211D-01
65  6.4000000000000D-01  5.1807723339719D-02 -3.4985459243376D-01
66  6.5000000000000D-01  1.2378268433316D-02 -2.7488744136531D-01
67  6.6000000000000D-01 -2.1677026394137D-02 -2.0453022147714D-01
68  6.7000000000000D-01 -5.0215231660667D-02 -1.3907069302736D-01
69  6.8000000000000D-01 -7.3205484234294D-02 -7.8732347163465D-02
70  6.9000000000000D-01 -9.0724279212248D-02 -2.3674365682856D-02
71  7.0000000000000D-01 -1.0294920196762D-01  2.6007880028805D-02
72  7.1000000000000D-01 -1.1014987462466D-01  7.0280907360240D-02
73  7.2000000000000D-01 -1.1267603709154D-01  1.0916915323514D-01
74  7.3000000000000D-01 -1.1094681318500D-01  1.4275199612502D-01
75  7.4000000000000D-01 -1.0543841500395D-01  1.7115971365032D-01
76  7.5000000000000D-01 -9.6671399673376D-02  1.9456883234085D-01
77  7.6000000000000D-01 -8.5197288275272D-02  2.1319760357402D-01
78  7.7000000000000D-01 -7.1585083229364D-02  2.2730033493363D-01
79  7.8000000000000D-01 -5.6408464374060D-02  2.3716198056605D-01
80  7.9000000000000D-01 -4.0233201543918D-02  2.4309266992099D-01
81  8.0000000000000D-01 -2.3605278425317D-02  2.4542213802366D-01
82  8.1000000000000D-01 -7.0399187183060D-03  2.4449421839687D-01
83  8.2000000000000D-01  8.9882971800732D-03  2.4066147850003D-01
84  8.3000000000000D-01  2.4054064767239D-02  2.3428006986347D-01
85  8.4000000000000D-01  3.7788607641426D-02  2.2570485634464D-01
86  8.5000000000000D-01  4.9885452070497D-02  2.1528487434910D-01
87  8.6000000000000D-01  6.0104660302985D-02  2.0335916867171D-01
88  8.7000000000000D-01  6.8275493256795D-02  1.9025303703500D-01
89  8.8000000000000D-01  7.4297507542015D-02  1.7627470563398D-01
90  8.9000000000000D-01  7.8140125634027D-02  1.6171244722349D-01
91  9.0000000000000D-01  7.9840773618674D-02  1.4683211979029D-01
92  9.1000000000000D-01  7.9501712519504D-02  1.3187509879013D-01
93  9.2000000000000D-01  7.7284113137658D-02  1.1705815458342D-01
94  9.3000000000000D-01  7.3398547197214D-02  1.0257609510443D-01
95  9.4000000000000D-01  6.8094861068837D-02  8.8604182957438D-02
96  9.5000000000000D-01  6.1653834426355D-02  7.5298869736954D-02
97  9.6000000000000D-01  5.4378724163068D-02  6.2796441875647D-02
98  9.7000000000000D-01  4.6584906115979D-02  5.1215221744632D-02
99  9.8000000000000D-01  3.8590841325354D-02  4.0656127238547D-02
100  9.9000000000000D-01  3.0708814927136D-02  3.1203565088258D-02
101  1.0000000000000D+00  2.3236007156831D-02  2.2926482748484D-02
102  1.0100000000000D+00  1.6446136006777D-02  1.5879434278186D-02
103  1.0200000000000D+00  1.0584345979169D-02  1.0104141267399D-02
104  1.0300000000000D+00  5.8538481044319D-03  5.6288288614844D-03
105  1.0400000000000D+00  2.4141713936680D-03  2.4704795488645D-03
106  1.0500000000000D+00  4.1849350534051D-04  6.8425800579601D-04
107  1.0600000000000D+00 -2.2218458022441D-04  7.6496181157668D-05
108  1.0700000000000D+00 -4.9286320365990D-05 -9.9440382316175D-06
109  1.0800000000000D+00  1.1079175836376D-05 -5.9665521381040D-06
110  1.0900000000000D+00  0.0000000000000D+00  0.0000000000000D+00
111  1.1000000000000D+00  0.0000000000000D+00  0.0000000000000D+00
112  1.1100000000000D+00  0.0000000000000D+00  0.0000000000000D+00
113  1.1200000000000D+00  0.0000000000000D+00  0.0000000000000D+00
114  1.1300000000000D+00  0.0000000000000D+00  0.0000000000000D+00
115  1.1400000000000D+00  0.0000000000000D+00  0.0000000000000D+00
116  1.1500000000000D+00  0.0000000000000D+00  0.0000000000000D+00
117  1.1600000000000D+00  0.0000000000000D+00  0.0000000000000D+00
118  1.1700000000000D+00  0.0000000000000D+00  0.0000000000000D+00
119  1.1800000000000D+00  0.0000000000000D+00  0.0000000000000D+00
120  1.1900000000000D+00  0.0000000000000D+00  0.0000000000000D+00
121  1.2000000000000D+00  0.0000000000000D+00  0.0000000000000D+00
122  1.2100000000000D+00  0.0000000000000D+00  0.0000000000000D+00
123  1.2200000000000D+00  0.0000000000000D+00  0.0000000000000D+00
124  1.2300000000000D+00  0.0000000000000D+00  0.0000000000000D+00
125  1.2400000000000D+00  0.0000000000000D+00  0.0000000000000D+00
126  1.2500000000000D+00  0.0000000000000D+00  0.0000000000000D+00
127  1.2600000000000D+00  0.0000000000000D+00  0.0000000000000D+00
128  1.2700000000000D+00  0.0000000000000D+00  0.0000000000000D+00
129  1.2800000000000D+00  0.0000000000000D+00  0.0000000000000D+00
130  1.2900000000000D+00  0.0000000000000D+00  0.0000000000000D+00
131  1.3000000000000D+00  0.0000000000000D+00  0.0000000000000D+00
132  1.3100000000000D+00  0.0000000000000D+00  0.0000000000000D+00
133  1.3200000000000D+00  0.0000000000000D+00  0.0000000000000D+00
134  1.3300000000000D+00  0.0000000000000D+00  0.0000000000000D+00
135  1.3400000000000D+00  0.0000000000000D+00  0.0000000000000D+00
136  1.3500000000000D+00  0.0000000000000D+00  0.0000000000000D+00
137  1.3600000000000D+00  0.0000000000000D+00  0.0000000000000D+00
138  1.3700000000000D+00  0.0000000000000D+00  0.0000000000000D+00
139  1.3800000000000D+00  0.0000000000000D+00  0.0000000000000D+00
140  1.3900000000000D+00  0.0000000000000D+00  0.0000000000000D+00
141  1.4000000000000D+00  0.0000000000000D+00  0.0000000000000D+00
142  1.4100000000000D+00  0.0000000000000D+00  0.0000000000000D+00
143  1.4200000000000D+00  0.0000000000000D+00  0.0000000000000D+00
144  1.4300000000000D+00  0.0000000000000D+00  0.0000000000000D+00
145  1.4400000000000D+00  0.0000000000000D+00  0.0000000000000D+00
146  1.4500000000000D+00  0.0000000000000D+00  0.0000000000000D+00
147  1.4600000000000D+00  0.0000000000000D+00  0.0000000000000D+00
148  1.4700000000000D+00  0.0000000000000D+00  0.0000000000000D+00
149  1.4800000000000D+00  0.0000000000000D+00  0.0000000000000D+00
150  1.4900000000000D+00  0.0000000000000D+00  0.0000000000000D+00
151  1.5000000000000D+00  0.0000000000000D+00  0.0000000000000D+00
152  1.5100000000000D+00  0.0000000000000D+00  0.0000000000000D+00
153  1.5200000000000D+00  0.0000000000000D+00  0.0000000000000D+00
154  1.5300000000000D+00  0.0000000000000D+00  0.0000000000000D+00
155  1.5400000000000D+00  0.0000000000000D+00  0.0000000000000D+00
156  1.5500000000000D+00  0.0000000000000D+00  0.0000000000000D+00
157  1.5600000000000D+00  0.0000000000000D+00  0.0000000000000D+00
158  1.5700000000000D+00  0.0000000000000D+00  0.0000000000000D+00
159  1.5800000000000D+00  0.0000000000000D+00  0.0000000000000D+00
160  1.5900000000000D+00  0.0000000000000D+00  0.0000000000000D+00
161  1.6000000000000D+00  0.0000000000000D+00  0.0000000000000D+00
162  1.6100000000000D+00  0.0000000000000D+00  0.0000000000000D+00
163  1.6200000000000D+00  0.0000000000000D+00  0.0000000000000D+00
164  1.6300000000000D+00  0.0000000000000D+00  0.0000000000000D+00
165  1.6400000000000D+00  0.0000000000000D+00  0.0000000000000D+00
166  1.6500000000000D+00  0.0000000000000D+00  0.0000000000000D+00
167  1.6600000000000D+00  0.0000000000000D+00  0.0000000000000D+00
168  1.6700000000000D+00  0.0000000000000D+00  0.0000000000000D+00
169  1.6800000000000D+00  0.0000000000000D+00  0.0000000000000D+00
170  1.6900000000000D+00  0.0000000000000D+00  0.0000000000000D+00
171  1.7000000000000D+00  0.0000000000000D+00  0.0000000000000D+00
172  1.7100000000000D+00  0.0000000000000D+00  0.0000000000000D+00
173  1.7200000000000D+00  0.0000000000000D+00  0.0000000000000D+00
174  1.7300000000000D+00  0.0000000000000D+00  0.0000000000000D+00
175  1.7400000000000D+00  0.0000000000000D+00  0.0000000000000D+00
176  1.7500000000000D+00  0.0000000000000D+00  0.0000000000000D+00
177  1.7600000000000D+00  0.0000000000000D+00  0.0000000000000D+00
178  1.7700000000000D+00  0.0000000000000D+00  0.0000000000000D+00
179  1.7800000000000D+00  0.0000000000000D+00  0.0000000000000D+00
180  1.7900000000000D+00  0.0000000000000D+00  0.0000000000000D+00
181  1.8000000000000D+00  0.0000000000000D+00  0.0000000000000D+00
182  1.8100000000000D+00  0.0000000000000D+00  0.0000000000000D+00
183  1.8200000000000D+00  0.0000000000000D+00  0.0000000000000D+00
184  1.8300000000000D+00  0.0000000000000D+00  0.0000000000000D+00
185  1.8400000000000D+00  0.0000000000000D+00  0.0000000000000D+00
186  1.8500000000000D+00  0.0000000000000D+00  0.0000000000000D+00
187  1.8600000000000D+00  0.0000000000000D+00  0.0000000000000D+00
188  1.8700000000000D+00  0.0000000000000D+00  0.0000000000000D+00
189  1.8800000000000D+00  0.0000000000000D+00  0.0000000000000D+00
190  1.8900000000000D+00  0.0000000000000D+00  0.0000000000000D+00
191  1.9000000000000D+00  0.0000000000000D+00  0.0000000000000D+00
192  1.9100000000000D+00  0.0000000000000D+00  0.0000000000000D+00
193  1.9200000000000D+00  0.0000000000000D+00  0.0000000000000D+00
194  1.9300000000000D+00  0.0000000000000D+00  0.0000000000000D+00
195  1.9400000000000D+00  0.0000000000000D+00  0.0000000000000D+00
196  1.9500000000000D+00  0.0000000000000D+00  0.0000000000000D+00
197  1.9600000000000D+00  0.0000000000000D+00  0.0000000000000D+00
198  1.9700000000000D+00  0.0000000000000D+00  0.0000000000000D+00
199  1.9800000000000D+00  0.0000000000000D+00  0.0000000000000D+00
200  1.9900000000000D+00  0.0000000000000D+00  0.0000000000000D+00
201  2.0000000000000D+00  0.0000000000000D+00  0.0000000000000D+00
202  2.0100000000000D+00  0.0000000000000D+00  0.0000000000000D+00
203  2.0200000000000D+00  0.0000000000000D+00  0.0000000000000D+00
204  2.0300000000000D+00  0.0000000000000D+00  0.0000000000000D+00
205  2.0400000000000D+00  0.0000000000000D+00  0.0000000000000D+00
206  2.0500000000000D+00  0.0000000000000D+00  0.0000000000000D+00
207  2.0600000000000D+00  0.0000000000000D+00  0.0000000000000D+00
208  2.0700000000000D+00  0.0000000000000D+00  0.0000000000000D+00
209  2.0800000000000D+00  0.0000000000000D+00  0.0000000000000D+00
210  2.0900000000000D+00  0.0000000000000D+00  0.0000000000000D+00
211  2.1000000000000D+00  0.0000000000000D+00  0.0000000000000D+00
212  2.1100000000000D+00  0.0000000000000D+00  0.0000000000000D+00
213  2.1200000000000D+00  0.0000000000000D+00  0.0000000000000D+00
214  2.1300000000000D+00  0.0000000000000D+00  0.0000000000000D+00
215  2.1400000000000D+00  0.0000000000000D+00  0.0000000000000D+00
216  2.1500000000000D+00  0.0000000000000D+00  0.0000000000000D+00
217  2.1600000000000D+00  0.0000000000000D+00  0.0000000000000D+00
218  2.1700000000000D+00  0.0000000000000D+00  0.0000000000000D+00
219  2.1800000000000D+00  0.0000000000000D+00  0.0000000000000D+00
220  2.1900000000000D+00  0.0000000000000D+00  0.0000000000000D+00
221  2.2000000000000D+00  0.0000000000000D+00  0.0000000000000D+00
222  2.2100000000000D+00  0.0000000000000D+00  0.0000000000000D+00
223  2.2200000000000D+00  0.0000000000000D+00  0.0000000000000D+00
224  2.2300000000000D+00  0.0000000000000D+00  0.0000000000000D+00
225  2.2400000000000D+00  0.0000000000000D+00  0.0000000000000D+00
226  2.2500000000000D+00  0.0000000000000D+00  0.0000000000000D+00
227  2.2600000000000D+00  0.0000000000000D+00  0.0000000000000D+00
228  2.2700000000000D+00  0.0000000000000D+00  0.0000000000000D+00
229  2.2800000000000D+00  0.0000000000000D+00  0.0000000000000D+00
230  2.2900000000000D+00  0.0000000000000D+00  0.0000000000000D+00
231  2.3000000000000D+00  0.0000000000000D+00  0.0000000000000D+00
232  2.3100000000000D+00  0.0000000000000D+00  0.0000000000000D+00
233  2.3200000000000D+00  0.0000000000000D+00  0.0000000000000D+00
234  2.3300000000000D+00  0.0000000000000D+00  0.0000000000000D+00
235  2.3400000000000D+00  0.0000000000000D+00  0.0000000000000D+00
236  2.3500000000000D+00  0.0000000000000D+00  0.0000000000000D+00
237  2.3600000000000D+00  0.0000000000000D+00  0.0000000000000D+00
238  2.3700000000000D+00  0.0000000000000D+00  0.0000000000000D+00
239  2.3800000000000D+00  0.0000000000000D+00  0.0000000000000D+00
240  2.3900000000000D+00  0.0000000000000D+00  0.0000000000000D+00
241  2.4000000000000D+00  0.0000000000000D+00  0.0000000000000D+00
242  2.4100000000000D+00  0.0000000000000D+00  0.0000000000000D+00
243  2.4200000000000D+00  0.0000000000000D+00  0.0000000000000D+00
244  2.4300000000000D+00  0.0000000000000D+00  0.0000000000000D+00
245  2.4400000000000D+00  0.0000000000000D+00  0.0000000000000D+00
246  2.4500000000000D+00  0.0000000000000D+00  0.0000000000000D+00
247  2.4600000000000D+00  0.0000000000000D+00  0.0000000000000D+00
248  2.4700000000000D+00  0.0000000000000D+00  0.0000000000000D+00
249  2.4800000000000D+00  0.0000000000000D+00  0.0000000000000D+00
250  2.4900000000000D+00  0.0000000000000D+00  0.0000000000000D+00
251  2.5000000000000D+00  0.0000000000000D+00  0.0000000000000D+00
252  2.5100000000000D+00  0.0000000000000D+00  0.0000000000000D+00
253  2.5200000000000D+00  0.0000000000000D+00  0.0000000000000D+00
254  2.5300000000000D+00  0.0000000000000D+00  0.0000000000000D+00
255  2.5400000000000D+00  0.0000000000000D+00  0.0000000000000D+00
256  2.5500000000000D+00  0.0000000000000D+00  0.0000000000000D+00
257  2.5600000000000D+00  0.0000000000000D+00  0.0000000000000D+00
258  2.5700000000000D+00  0.0000000000000D+00  0.0000000000000D+00
259  2.5800000000000D+00  0.0000000000000D+00  0.0000000000000D+00
260  2.5900000000000D+00  0.0000000000000D+00  0.0000000000000D+00
261  2.6000000000000D+00  0.0000000000000D+00  0.0000000000000D+00
262  2.6100000000000D+00  0.0000000000000D+00  0.0000000000000D+00
263  2.6200000000000D+00  0.0000000000000D+00  0.0000000000000D+00
264  2.6300000000000D+00  0.0000000000000D+00  0.0000000000000D+00
265  2.6400000000000D+00  0.0000000000000D+00  0.0000000000000D+00
266  2.6500000000000D+00  0.0000000000000D+00  0.0000000000000D+00
267  2.6600000000000D+00  0.0000000000000D+00  0.0000000000000D+00
268  2.6700000000000D+00  0.0000000000000D+00  0.0000000000000D+00
269  2.6800000000000D+00  0.0000000000000D+00  0.0000000000000D+00
270  2.6900000000000D+00  0.0000000000000D+00  0.0000000000000D+00
271  2.7000000000000D+00  0.0000000000000D+00  0.0000000000000D+00
272  2.7100000000000D+00  0.0000000000000D+00  0.0000000000000D+00
273  2.7200000000000D+00  0.0000000000000D+00  0.0000000000000D+00
274  2.7300000000000D+00  0.0000000000000D+00  0.0000000000000D+00
275  2.7400000000000D+00  0.0000000000000D+00  0.0000000000000D+00
276  2.7500000000000D+00  0.0000000000000D+00  0.0000000000000D+00
277  2.7600000000000D+00  0.0000000000000D+00  0.0000000000000D+00
278  2.7700000000000D+00  0.0000000000000D+00  0.0000000000000D+00
279  2.7800000000000D+00  0.0000000000000D+00  0.0000000000000D+00
280  2.7900000000000D+00  0.0000000000000D+00  0.0000000000000D+00
281  2.8000000000000D+00  0.0000000000000D+00  0.0000000000000D+00
282  2.8100000000000D+00  0.0000000000000D+00  0.0000000000000D+00
283  2.8200000000000D+00  0.0000000000000D+00  0.0000000000000D+00
284  2.8300000000000D+00  0.0000000000000D+00  0.0000000000000D+00
285  2.8400000000000D+00  0.0000000000000D+00  0.0000000000000D+00
286  2.8500000000000D+00  0.0000000000000D+00  0.0000000000000D+00
287  2.8600000000000D+00  0.0000000000000D+00  0.0000000000000D+00
288  2.8700000000000D+00  0.0000000000000D+00  0.0000000000000D+00
289  2.8800000000000D+00  0.0000000000000D+00  0.0000000000000D+00
290  2.8900000000000D+00  0.0000000000000D+00  0.0000000000000D+00
291  2.9000000000000D+00  0.0000000000000D+00  0.0000000000000D+00
292  2.9100000000000D+00  0.0000000000000D+00  0.0000000000000D+00
293  2.9200000000000D+00  0.0000000000000D+00  0.0000000000000D+00
294  2.9300000000000D+00  0.0000000000000D+00  0.0000000000000D+00
295  2.9400000000000D+00  0.0000000000000D+00  0.0000000000000D+00
296  2.9500000000000D+00  0.0000000000000D+00  0.0000000000000D+00
297  2.9600000000000D+00  0.0000000000000D+00  0.0000000000000D+00
298  2.9700000000000D+00  0.0000000000000D+00  0.0000000000000D+00
299  2.9800000000000D+00  0.0000000000000D+00  0.0000000000000D+00
300  2.9900000000000D+00  0.0000000000000D+00  0.0000000000000D+00
301  3.0000000000000D+00  0.0000000000000D+00  0.0000000000000D+00
1                        -3.8179404054454D+00
1  0.0000000000000D+00 -0.0000000000000D+00
2  1.0000000000000D-02 -4.4135132688007D-03
3  2.0000000000000D-02 -1.7404958977183D-02
4  3.0000000000000D-02 -3.8235514061571D-02
5  4.0000000000000D-02 -6.5701744780135D-02
6  5.0000000000000D-02 -9.8176613566797D-02
7  6.0000000000000D-02 -1.3366511577985D-01
8  7.0000000000000D-02 -1.6987283704424D-01
9  8.0000000000000D-02 -2.0428532192538D-01
10  9.0000000000000D-02 -2.3425580795737D-01
11  1.0000000000000D-01 -2.5709861462891D-01
12  1.1000000000000D-01 -2.7018529396846D-01
13  1.2000000000000D-01 -2.7104055262121D-01
14  1.3000000000000D-01 -2.5743494751337D-01
15  1.4000000000000D-01 -2.2747143967164D-01
16  1.5000000000000D-01 -1.7966306024851D-01
17  1.6000000000000D-01 -1.1299919886148D-01
18  1.7000000000000D-01 -2.6998339358805D-02
19  1.8000000000000D-01  7.8254512347315D-02
20  1.9000000000000D-01  2.0208706089263D-01
21  2.0000000000000D-01  3.4323637905425D-01
22  2.1000000000000D-01  4.9986346964706D-01
23  2.2000000000000D-01  6.6958529646794D-01
24  2.3000000000000D-01  8.4952375678178D-01
25  2.4000000000000D-01  1.0363701328617D+00
26  2.5000000000000D-01  1.2264638967350D+00
27  2.6000000000000D-01  1.4158824486798D+00
28  2.7000000000000D-01  1.6005412881541D+00
29  2.8000000000000D-01  1.7762997108865D+00
30  2.9000000000000D-01  1.9390705725152D+00
31  3.0000000000000D-01  2.0849303783243D+00
32  3.1000000000000D-01  2.2102266274597D+00
33  3.2000000000000D-01  2.3116790401200D+00
34  3.3000000000000D-01  2.3864732167639D+00
35  3.4000000000000D-01  2.4323410167225D+00
36  3.5000000000000D-01  2.4476286832949D+00
37  3.6000000000000D-01  2.4313483245574D+00
38  3.7000000000000D-01  2.3832124215538D+00
39  3.8000000000000D-01  2.3036494177592D+00
40  3.9000000000000D-01  2.1938008587702D+00
41  4.0000000000000D-01  2.0554988843645D+00
42  4.1000000000000D-01  1.8912257396657D+00
43  4.2000000000000D-01  1.7040556423376D+00
44  4.3000000000000D-01  1.4975807574704D+00
45  4.4000000000000D-01  1.2758232837789D+00
46  4.5000000000000D-01  1.0431360620855D+00
47  4.6000000000000D-01  8.0409446330387D-01
48  4.7000000000000D-01  5.6338356550022D-01
49  4.8000000000000D-01  3.2568053384874D-01
50  4.9000000000000D-01  9.5536684924119D-02
51  5.0000000000000D-01 -1.2273156789747D-01
52  5.1000000000000D-01 -3.2514471497191D-01
53  5.2000000000000D-01 -5.0816562123787D-01
54  5.3000000000000D-01 -6.6877642530607D-01
55  5.4000000000000D-01 -8.0453985572834D-01
56  5.5000000000000D-01 -9.1367212153010D-01
57  5.6000000000000D-01 -9.9505155855209D-01
58  5.7000000000000D-01 -1.0482583032434D+00
59  5.8000000000000D-01 -1.0735511769064D+00
60  5.9000000000000D-01 -1.0718628361297D+00
61  6.0000000000000D-01 -1.0447471678029D+00
62  6.1000000000000D-01 -9.9433141039752D-01
63  6.2000000000000D-01 -9.2324148937261D-01
64  6.3000000000000D-01 -8.3452097570273D-01
65  6.4000000000000D-01 -7.3153062955560D-01
66  6.5000000000000D-01 -6.1785724216343D-01
67  6.6000000000000D-01 -4.9720567102162D-01
68  6.7000000000000D-01 -3.7327872746149D-01
69  6.8000000000000D-01 -2.4968889847593D-01
70  6.9000000000000D-01 -1.2985817512135D-01
71  7.0000000000000D-01 -1.6917056282423D-02
72  7.1000000000000D-01  8.6382977753272D-02
73  7.2000000000000D-01  1.7772349522159D-01
74  7.3000000000000D-01  2.5527960236420D-01
75  7.4000000000000D-01  3.1775881413810D-01
76  7.5000000000000D-01  3.6441904132624D-01
77  7.6000000000000D-01  3.9508454577850D-01
78  7.7000000000000D-01  4.1012344972945D-01
79  7.8000000000000D-01  4.1041688539391D-01
80  7.9000000000000D-01  3.9731554245979D-01
81  8.0000000000000D-01  3.7258009407368D-01
82  8.1000000000000D-01  3.3830953677157D-01
83  8.2000000000000D-01  2.9685981357519D-01
84  8.3000000000000D-01  2.5075537688912D-01
85  8.4000000000000D-01  2.0259655285362D-01
86  8.5000000000000D-01  1.5496568654721D-01
87  8.6000000000000D-01  1.1033507540362D-01
88  8.7000000000000D-01  7.0979636075483D-02
89  8.8000000000000D-01  3.8897099327810D-02
90  8.9000000000000D-01  1.5738291734537D-02
91  9.0000000000000D-01  3.0891839615471D-03
92  9.1000000000000D-01 -2.9990151747493D-04
93  9.2000000000000D-01 -7.3831501944487D-06
94  9.3000000000000D-01  0.0000000000000D+00
95  9.4000000000000D-01  0.0000000000000D+00
96  9.5000000000000D-01  0.0000000000000D+00
97  9.6000000000000D-01  0.0000000000000D+00
98  9.7000000000000D-01  0.0000000000000D+00
99  9.8000000000000D-01  0.0000000000000D+00
100  9.9000000000000D-01  0.0000000000000D+00
101  1.0000000000000D+00  0.0000000000000D+00
102  1.0100000000000D+00  0.0000000000000D+00
103  1.0200000000000D+00  0.0000000000000D+00
104  1.0300000000000D+00  0.0000000000000D+00
105  1.0400000000000D+00  0.0000000000000D+00
106  1.0500000000000D+00  0.0000000000000D+00
107  1.0600000000000D+00  0.0000000000000D+00
108  1.0700000000000D+00  0.0000000000000D+00
109  1.0800000000000D+00  0.0000000000000D+00
110  1.0900000000000D+00  0.0000000000000D+00
111  1.1000000000000D+00  0.0000000000000D+00
112  1.1100000000000D+00  0.0000000000000D+00
113  1.1200000000000D+00  0.0000000000000D+00
114  1.1300000000000D+00  0.0000000000000D+00
115  1.1400000000000D+00  0.0000000000000D+00
116  1.1500000000000D+00  0.0000000000000D+00
117  1.1600000000000D+00  0.0000000000000D+00
118  1.1700000000000D+00  0.0000000000000D+00
119  1.1800000000000D+00  0.0000000000000D+00
120  1.1900000000000D+00  0.0000000000000D+00
121  1.2000000000000D+00  0.0000000000000D+00
122  1.2100000000000D+00  0.0000000000000D+00
123  1.2200000000000D+00  0.0000000000000D+00
124  1.2300000000000D+00  0.0000000000000D+00
125  1.2400000000000D+00  0.0000000000000D+00
126  1.2500000000000D+00  0.0000000000000D+00
127  1.2600000000000D+00  0.0000000000000D+00
128  1.2700000000000D+00  0.0000000000000D+00
129  1.2800000000000D+00  0.0000000000000D+00
130  1.2900000000000D+00  0.0000000000000D+00
131  1.3000000000000D+00  0.0000000000000D+00
132  1.3100000000000D+00  0.0000000000000D+00
133  1.3200000000000D+00  0.0000000000000D+00
134  1.3300000000000D+00  0.0000000000000D+00
135  1.3400000000000D+00  0.0000000000000D+00
136  1.3500000000000D+00  0.0000000000000D+00
137  1.3600000000000D+00  0.0000000000000D+00
138  1.3700000000000D+00  0.0000000000000D+00
139  1.3800000000000D+00  0.0000000000000D+00
140  1.3900000000000D+00  0.0000000000000D+00
141  1.4000000000000D+00  0.0000000000000D+00
142  1.4100000000000D+00  0.0000000000000D+00
143  1.4200000000000D+00  0.0000000000000D+00
144  1.4300000000000D+00  0.0000000000000D+00
145  1.4400000000000D+00  0.0000000000000D+00
146  1.4500000000000D+00  0.0000000000000D+00
147  1.4600000000000D+00  0.0000000000000D+00
148  1.4700000000000D+00  0.0000000000000D+00
149  1.4800000000000D+00  0.0000000000000D+00
150  1.4900000000000D+00  0.0000000000000D+00
151  1.5000000000000D+00  0.0000000000000D+00
152  1.5100000000000D+00  0.0000000000000D+00
153  1.5200000000000D+00  0.0000000000000D+00
154  1.5300000000000D+00  0.0000000000000D+00
155  1.5400000000000D+00  0.0000000000000D+00
156  1.5500000000000D+00  0.0000000000000D+00
157  1.5600000000000D+00  0.0000000000000D+00
158  1.5700000000000D+00  0.0000000000000D+00
159  1.5800000000000D+00  0.0000000000000D+00
160  1.5900000000000D+00  0.0000000000000D+00
161  1.6000000000000D+00  0.0000000000000D+00
162  1.6100000000000D+00  0.0000000000000D+00
163  1.6200000000000D+00  0.0000000000000D+00
164  1.6300000000000D+00  0.0000000000000D+00
165  1.6400000000000D+00  0.0000000000000D+00
166  1.6500000000000D+00  0.0000000000000D+00
167  1.6600000000000D+00  0.0000000000000D+00
168  1.6700000000000D+00  0.0000000000000D+00
169  1.6800000000000D+00  0.0000000000000D+00
170  1.6900000000000D+00  0.0000000000000D+00
171  1.7000000000000D+00  0.0000000000000D+00
172  1.7100000000000D+00  0.0000000000000D+00
173  1.7200000000000D+00  0.0000000000000D+00
174  1.7300000000000D+00  0.0000000000000D+00
175  1.7400000000000D+00  0.0000000000000D+00
176  1.7500000000000D+00  0.0000000000000D+00
177  1.7600000000000D+00  0.0000000000000D+00
178  1.7700000000000D+00  0.0000000000000D+00
179  1.7800000000000D+00  0.0000000000000D+00
180  1.7900000000000D+00  0.0000000000000D+00
181  1.8000000000000D+00  0.0000000000000D+00
182  1.8100000000000D+00  0.0000000000000D+00
183  1.8200000000000D+00  0.0000000000000D+00
184  1.8300000000000D+00  0.0000000000000D+00
185  1.8400000000000D+00  0.0000000000000D+00
186  1.8500000000000D+00  0.0000000000000D+00
187  1.8600000000000D+00  0.0000000000000D+00
188  1.8700000000000D+00  0.0000000000000D+00
189  1.8800000000000D+00  0.0000000000000D+00
190  1.8900000000000D+00  0.0000000000000D+00
191  1.9000000000000D+00  0.0000000000000D+00
192  1.9100000000000D+00  0.0000000000000D+00
193  1.9200000000000D+00  0.0000000000000D+00
194  1.9300000000000D+00  0.0000000000000D+00
195  1.9400000000000D+00  0.0000000000000D+00
196  1.9500000000000D+00  0.0000000000000D+00
197  1.9600000000000D+00  0.0000000000000D+00
198  1.9700000000000D+00  0.0000000000000D+00
199  1.9800000000000D+00  0.0000000000000D+00
200  1.9900000000000D+00  0.0000000000000D+00
201  2.0000000000000D+00  0.0000000000000D+00
202  2.0100000000000D+00  0.0000000000000D+00
203  2.0200000000000D+00  0.0000000000000D+00
204  2.0300000000000D+00  0.0000000000000D+00
205  2.0400000000000D+00  0.0000000000000D+00
206  2.0500000000000D+00  0.0000000000000D+00
207  2.0600000000000D+00  0.0000000000000D+00
208  2.0700000000000D+00  0.0000000000000D+00
209  2.0800000000000D+00  0.0000000000000D+00