H     ONCVPSP  r_core=  1.06  0.91
1.0000      1.0000      140908    zatom,zion,pspd
8    11     1     4   301     0    pspcod,pspxc,lmax,lloc,mmax,r2well
3.00000000  0.00000000  0.00000000    rchrg fchrg qchrg
2     1     0     0     0    nproj
0                 extension_switch
0                        -6.1306975646070D+00 -1.0380866689093D+00
1  0.0000000000000D+00 -0.0000000000000D+00 -0.0000000000000D+00
2  1.0000000000000D-02 -2.3560964183678D-01 -8.7649387241430D-03
3  2.0000000000000D-02 -4.6868033576971D-01 -1.8155593945200D-02
4  3.0000000000000D-02 -6.9670623533954D-01 -2.8787654619090D-02
5  4.0000000000000D-02 -9.1724721428679D-01 -4.1256901640853D-02
6  5.0000000000000D-02 -1.1279605274750D+00 -5.6129619150432D-02
7  6.0000000000000D-02 -1.3266310537384D+00 -7.3933438092295D-02
8  7.0000000000000D-02 -1.5111996827154D+00 -9.5148745898971D-02
9  8.0000000000000D-02 -1.6797894362804D+00 -1.2020078777355D-01
10  9.0000000000000D-02 -1.8307289510812D+00 -1.4945257447170D-01
11  1.0000000000000D-01 -1.9625729889748D+00 -1.8319869961191D-01
12  1.1000000000000D-01 -2.0741196888583D+00 -2.2166015574932D-01
13  1.2000000000000D-01 -2.1644243239552D+00 -2.6498022348933D-01
14  1.3000000000000D-01 -2.2328093826851D+00 -3.1322149189399D-01
15  1.4000000000000D-01 -2.2788708453135D+00 -3.6636405235710D-01
16  1.5000000000000D-01 -2.3024805946232D+00 -4.2430488845935D-01
17  1.6000000000000D-01 -2.3037849459013D+00 -4.8685847016437D-01
18  1.7000000000000D-01 -2.2831993543709D+00 -5.5375853901614D-01
19  1.8000000000000D-01 -2.2413994043289D+00 -6.2466105677193D-01
20  1.9000000000000D-01 -2.1793082455845D+00 -6.9914827172171D-01
21  2.0000000000000D-01 -2.0980807098906D+00 -7.7673383569689D-01
22  2.1000000000000D-01 -1.9990843337923D+00 -8.5686890803605D-01
23  2.2000000000000D-01 -1.8838776608014D+00 -9.3894913531933D-01
24  2.3000000000000D-01 -1.7541861198455D+00 -1.0223224211532D+00
25  2.4000000000000D-01 -1.6118759391392D+00 -1.1062973473979D+00
26  2.5000000000000D-01 -1.4589262989440D+00 -1.1901521909983D+00
27  2.6000000000000D-01 -1.2974006320359D+00 -1.2731442515366D+00
28  2.7000000000000D-01 -1.1294167785096D+00 -1.3545195935588D+00
29  2.8000000000000D-01 -9.5711725137493D-01 -1.4335228041680D+00
30  2.9000000000000D-01 -7.8263948456367D-01 -1.5094068143045D+00
31  3.0000000000000D-01 -6.0808674341137D-01 -1.5814425685305D+00
32  3.1000000000000D-01 -4.3550009978432D-01 -1.6489284165185D+00
33  3.2000000000000D-01 -2.6683206820671D-01 -1.7111990327174D+00
34  3.3000000000000D-01 -1.0392140002075D-01 -1.7676340346323D+00
35  3.4000000000000D-01  5.1528884767312D-02 -1.8176656090692D+00
36  3.5000000000000D-01  1.9797185093398D-01 -1.8607856832671D+00
37  3.6000000000000D-01  3.3403377336040D-01 -1.8965521005226D+00
38  3.7000000000000D-01  4.5852875492326D-01 -1.9245940366680D+00
39  3.8000000000000D-01  5.7046936334987D-01 -1.9446161454199D+00
40  3.9000000000000D-01  6.6907497179373D-01 -1.9564020001228D+00
41  4.0000000000000D-01  7.5377647235518D-01 -1.9598163660355D+00
42  4.1000000000000D-01  8.2421728972041D-01 -1.9548062523321D+00
43  4.2000000000000D-01  8.8025160000714D-01 -1.9414010465449D+00
44  4.3000000000000D-01  9.2193925167245D-01 -1.9197115340559D+00
45  4.4000000000000D-01  9.4953767532598D-01 -1.8899278799719D+00
46  4.5000000000000D-01  9.6349098058755D-01 -1.8523166182888D+00
47  4.6000000000000D-01  9.6441647981288D-01 -1.8072167065960D+00
48  4.7000000000000D-01  9.5308894795543D-01 -1.7550347210580D+00
49  4.8000000000000D-01  9.3042296837068D-01 -1.6962393122226D+00
50  4.9000000000000D-01  8.9745332881142D-01 -1.6313548717678D+00
51  5.0000000000000D-01  8.5531437326479D-01 -1.5609546606345D+00
52  5.1000000000000D-01  8.0521897053179D-01 -1.4856536488087D+00
53  5.2000000000000D-01  7.4843536843320D-01 -1.4061005161180D+00
54  5.3000000000000D-01  6.8626514510502D-01 -1.3229697265202D+00
55  5.4000000000000D-01  6.2002303091661D-01 -1.2369540702278D+00
56  5.5000000000000D-01  5.5101095360441D-01 -1.1487550515001D+00
57  5.6000000000000D-01  4.8050339688859D-01 -1.0590768469284D+00
58  5.7000000000000D-01  4.0972154117895D-01 -9.6861621179965D-01
59  5.8000000000000D-01  3.3982245191810D-01 -8.7805740243764D-01
60  5.9000000000000D-01  2.7187501446863D-01 -7.8806208448414D-01
61  6.0000000000000D-01  2.0685551369944D-01 -6.9926623523140D-01
62  6.1000000000000D-01  1.4562530192228D-01 -6.1226997519323D-01
63  6.2000000000000D-01  8.8930024121719D-02 -5.2763544199123D-01
64  6.3000000000000D-01  3.7389302377618D-02 -4.4588070428051D-01
65  6.4000000000000D-01 -8.5106500697659D-03 -3.6747438199375D-01
66  6.5000000000000D-01 -4.8413469158845D-02 -2.9283472386808D-01
67  6.6000000000000D-01 -8.2094973982902D-02 -2.2232589653664D-01
68  6.7000000000000D-01 -1.0946296346913D-01 -1.5625482171694D-01
69  6.8000000000000D-01 -1.3054782738481D-01 -9.4872269181091D-02
70  6.9000000000000D-01 -1.4549660563665D-01 -3.8372156556584D-02
71  7.0000000000000D-01 -1.5456528852885D-01  1.3108749067008D-02
72  7.1000000000000D-01 -1.5810811702924D-01  5.9489893821975D-02
73  7.2000000000000D-01 -1.5656398778331D-01  1.0074406722630D-01
74  7.3000000000000D-01 -1.5044401905144D-01  1.3689549713180D-01
75  7.4000000000000D-01 -1.4031751836721D-01  1.6801695433205D-01
76  7.5000000000000D-01 -1.2679759027245D-01  1.9422623409904D-01
77  7.6000000000000D-01 -1.1052590030554D-01  2.1568287901358D-01
78  7.7000000000000D-01 -9.2157680319732D-02  2.3258362620663D-01
79  7.8000000000000D-01 -7.2347484439810D-02  2.4515806848769D-01
80  7.9000000000000D-01 -5.1735220024431D-02  2.5366423203085D-01
81  8.0000000000000D-01 -3.0933081371864D-02  2.5838396188461D-01
82  8.1000000000000D-01 -1.0513569390832D-02  2.5961827392286D-01
83  8.2000000000000D-01  9.0011956408494D-03  2.5768273949551D-01
84  8.3000000000000D-01  2.7148692894229D-02  2.5290296383673D-01
85  8.4000000000000D-01  4.3533610588847D-02  2.4561021320257D-01
86  8.5000000000000D-01  5.7833742129554D-02  2.3613723891609D-01
87  8.6000000000000D-01  6.9804102387129D-02  2.2481433917371D-01
88  8.7000000000000D-01  7.9279236215040D-02  2.1196569177865D-01
89  8.8000000000000D-01  8.6173729798030D-02  1.9790598307221D-01
90  8.9000000000000D-01  9.0480973366714D-02  1.8293735037539D-01
91  9.0000000000000D-01  9.2270280470075D-02  1.6734662763108D-01
92  9.1000000000000D-01  9.1682503841286D-02  1.5140288156191D-01
93  9.2000000000000D-01  8.8922920051942D-02  1.3535658320161D-01
94  9.3000000000000D-01  8.4250715770873D-02  1.1944111094350D-01
95  9.4000000000000D-01  7.7967730549720D-02  1.0387399544945D-01
96  9.5000000000000D-01  7.0408710765537D-02  8.8856798434518D-02
97  9.6000000000000D-01  6.1931114988537D-02  7.4572808823876D-02
98  9.7000000000000D-01  5.2903225027751D-02  6.1188252345743D-02
99  9.8000000000000D-01  4.3693579942010D-02  4.8851931763126D-02
100  9.9000000000000D-01  3.4660198544435D-02  3.7695194189553D-02
101  1.0000000000000D+00  2.6140223132978D-02  2.7832100445757D-02
102  1.0100000000000D+00  1.8440243974717D-02  1.9359669581995D-02
103  1.0200000000000D+00  1.1830524370006D-02  1.2358977763196D-02
104  1.0300000000000D+00  6.5291826626765D-03  6.8930776031739D-03
105  1.0400000000000D+00  2.7004929427493D-03  3.0091677250443D-03
106  1.0500000000000D+00  4.9642841105089D-04  7.9777374914541D-04
107  1.0600000000000D+00 -2.0931375496523D-04  4.7797813051466D-05
108  1.0700000000000D+00 -4.9814631565018D-05 -1.8206485711709D-05
109  1.0800000000000D+00  1.0166822124276D-05 -4.6871614973373D-06
110  1.0900000000000D+00  0.0000000000000D+00  0.0000000000000D+00
111  1.1000000000000D+00  0.0000000000000D+00  0.0000000000000D+00
112  1.1100000000000D+00  0.0000000000000D+00  0.0000000000000D+00
113  1.1200000000000D+00  0.0000000000000D+00  0.0000000000000D+00
114  1.1300000000000D+00  0.0000000000000D+00  0.0000000000000D+00
115  1.1400000000000D+00  0.0000000000000D+00  0.0000000000000D+00
116  1.1500000000000D+00  0.0000000000000D+00  0.0000000000000D+00
117  1.1600000000000D+00  0.0000000000000D+00  0.0000000000000D+00
118  1.1700000000000D+00  0.0000000000000D+00  0.0000000000000D+00
119  1.1800000000000D+00  0.0000000000000D+00  0.0000000000000D+00
120  1.1900000000000D+00  0.0000000000000D+00  0.0000000000000D+00
121  1.2000000000000D+00  0.0000000000000D+00  0.0000000000000D+00
122  1.2100000000000D+00  0.0000000000000D+00  0.0000000000000D+00
123  1.2200000000000D+00  0.0000000000000D+00  0.0000000000000D+00
124  1.2300000000000D+00  0.0000000000000D+00  0.0000000000000D+00
125  1.2400000000000D+00  0.0000000000000D+00  0.0000000000000D+00
126  1.2500000000000D+00  0.0000000000000D+00  0.0000000000000D+00
127  1.2600000000000D+00  0.0000000000000D+00  0.0000000000000D+00
128  1.2700000000000D+00  0.0000000000000D+00  0.0000000000000D+00
129  1.2800000000000D+00  0.0000000000000D+00  0.0000000000000D+00
130  1.2900000000000D+00  0.0000000000000D+00  0.0000000000000D+00
131  1.3000000000000D+00  0.0000000000000D+00  0.0000000000000D+00
132  1.3100000000000D+00  0.0000000000000D+00  0.0000000000000D+00
133  1.3200000000000D+00  0.0000000000000D+00  0.0000000000000D+00
134  1.3300000000000D+00  0.0000000000000D+00  0.0000000000000D+00
135  1.3400000000000D+00  0.0000000000000D+00  0.0000000000000D+00
136  1.3500000000000D+00  0.0000000000000D+00  0.0000000000000D+00
137  1.3600000000000D+00  0.0000000000000D+00  0.0000000000000D+00
138  1.3700000000000D+00  0.0000000000000D+00  0.0000000000000D+00
139  1.3800000000000D+00  0.0000000000000D+00  0.0000000000000D+00
140  1.3900000000000D+00  0.0000000000000D+00  0.0000000000000D+00
141  1.4000000000000D+00  0.0000000000000D+00  0.0000000000000D+00
142  1.4100000000000D+00  0.0000000000000D+00  0.0000000000000D+00
143  1.4200000000000D+00  0.0000000000000D+00  0.0000000000000D+00
144  1.4300000000000D+00  0.0000000000000D+00  0.0000000000000D+00
145  1.4400000000000D+00  0.0000000000000D+00  0.0000000000000D+00
146  1.4500000000000D+00  0.0000000000000D+00  0.0000000000000D+00
147  1.4600000000000D+00  0.0000000000000D+00  0.0000000000000D+00
148  1.4700000000000D+00  0.0000000000000D+00  0.0000000000000D+00
149  1.4800000000000D+00  0.0000000000000D+00  0.0000000000000D+00
150  1.4900000000000D+00  0.0000000000000D+00  0.0000000000000D+00
151  1.5000000000000D+00  0.0000000000000D+00  0.0000000000000D+00
152  1.5100000000000D+00  0.0000000000000D+00  0.0000000000000D+00
153  1.5200000000000D+00  0.0000000000000D+00  0.0000000000000D+00
154  1.5300000000000D+00  0.0000000000000D+00  0.0000000000000D+00
155  1.5400000000000D+00  0.0000000000000D+00  0.0000000000000D+00
156  1.5500000000000D+00  0.0000000000000D+00  0.0000000000000D+00
157  1.5600000000000D+00  0.0000000000000D+00  0.0000000000000D+00
158  1.5700000000000D+00  0.0000000000000D+00  0.0000000000000D+00
159  1.5800000000000D+00  0.0000000000000D+00  0.0000000000000D+00
160  1.5900000000000D+00  0.0000000000000D+00  0.0000000000000D+00
161  1.6000000000000D+00  0.0000000000000D+00  0.0000000000000D+00
162  1.6100000000000D+00  0.0000000000000D+00  0.0000000000000D+00
163  1.6200000000000D+00  0.0000000000000D+00  0.0000000000000D+00
164  1.6300000000000D+00  0.0000000000000D+00  0.0000000000000D+00
165  1.6400000000000D+00  0.0000000000000D+00  0.0000000000000D+00
166  1.6500000000000D+00  0.0000000000000D+00  0.0000000000000D+00
167  1.6600000000000D+00  0.0000000000000D+00  0.0000000000000D+00
168  1.6700000000000D+00  0.0000000000000D+00  0.0000000000000D+00
169  1.6800000000000D+00  0.0000000000000D+00  0.0000000000000D+00
170  1.6900000000000D+00  0.0000000000000D+00  0.0000000000000D+00
171  1.7000000000000D+00  0.0000000000000D+00  0.0000000000000D+00
172  1.7100000000000D+00  0.0000000000000D+00  0.0000000000000D+00
173  1.7200000000000D+00  0.0000000000000D+00  0.0000000000000D+00
174  1.7300000000000D+00  0.0000000000000D+00  0.0000000000000D+00
175  1.7400000000000D+00  0.0000000000000D+00  0.0000000000000D+00
176  1.7500000000000D+00  0.0000000000000D+00  0.0000000000000D+00
177  1.7600000000000D+00  0.0000000000000D+00  0.0000000000000D+00
178  1.7700000000000D+00  0.0000000000000D+00  0.0000000000000D+00
179  1.7800000000000D+00  0.0000000000000D+00  0.0000000000000D+00
180  1.7900000000000D+00  0.0000000000000D+00  0.0000000000000D+00
181  1.8000000000000D+00  0.0000000000000D+00  0.0000000000000D+00
182  1.8100000000000D+00  0.0000000000000D+00  0.0000000000000D+00
183  1.8200000000000D+00  0.0000000000000D+00  0.0000000000000D+00
184  1.8300000000000D+00  0.0000000000000D+00  0.0000000000000D+00
185  1.8400000000000D+00  0.0000000000000D+00  0.0000000000000D+00
186  1.8500000000000D+00  0.0000000000000D+00  0.0000000000000D+00
187  1.8600000000000D+00  0.0000000000000D+00  0.0000000000000D+00
188  1.8700000000000D+00  0.0000000000000D+00  0.0000000000000D+00
189  1.8800000000000D+00  0.0000000000000D+00  0.0000000000000D+00
190  1.8900000000000D+00  0.0000000000000D+00  0.0000000000000D+00
191  1.9000000000000D+00  0.0000000000000D+00  0.0000000000000D+00
192  1.9100000000000D+00  0.0000000000000D+00  0.0000000000000D+00
193  1.9200000000000D+00  0.0000000000000D+00  0.0000000000000D+00
194  1.9300000000000D+00  0.0000000000000D+00  0.0000000000000D+00
195  1.9400000000000D+00  0.0000000000000D+00  0.0000000000000D+00
196  1.9500000000000D+00  0.0000000000000D+00  0.0000000000000D+00
197  1.9600000000000D+00  0.0000000000000D+00  0.0000000000000D+00
198  1.9700000000000D+00  0.0000000000000D+00  0.0000000000000D+00
199  1.9800000000000D+00  0.0000000000000D+00  0.0000000000000D+00
200  1.9900000000000D+00  0.0000000000000D+00  0.0000000000000D+00
201  2.0000000000000D+00  0.0000000000000D+00  0.0000000000000D+00
202  2.0100000000000D+00  0.0000000000000D+00  0.0000000000000D+00
203  2.0200000000000D+00  0.0000000000000D+00  0.0000000000000D+00
204  2.0300000000000D+00  0.0000000000000D+00  0.0000000000000D+00
205  2.0400000000000D+00  0.0000000000000D+00  0.0000000000000D+00
206  2.0500000000000D+00  0.0000000000000D+00  0.0000000000000D+00
207  2.0600000000000D+00  0.0000000000000D+00  0.0000000000000D+00
208  2.0700000000000D+00  0.0000000000000D+00  0.0000000000000D+00
209  2.0800000000000D+00  0.0000000000000D+00  0.0000000000000D+00
210  2.0900000000000D+00  0.0000000000000D+00  0.0000000000000D+00
211  2.1000000000000D+00  0.0000000000000D+00  0.0000000000000D+00
212  2.1100000000000D+00  0.0000000000000D+00  0.0000000000000D+00
213  2.1200000000000D+00  0.0000000000000D+00  0.0000000000000D+00
214  2.1300000000000D+00  0.0000000000000D+00  0.0000000000000D+00
215  2.1400000000000D+00  0.0000000000000D+00  0.0000000000000D+00
216  2.1500000000000D+00  0.0000000000000D+00  0.0000000000000D+00
217  2.1600000000000D+00  0.0000000000000D+00  0.0000000000000D+00
218  2.1700000000000D+00  0.0000000000000D+00  0.0000000000000D+00
219  2.1800000000000D+00  0.0000000000000D+00  0.0000000000000D+00
220  2.1900000000000D+00  0.0000000000000D+00  0.0000000000000D+00
221  2.2000000000000D+00  0.0000000000000D+00  0.0000000000000D+00
222  2.2100000000000D+00  0.0000000000000D+00  0.0000000000000D+00
223  2.2200000000000D+00  0.0000000000000D+00  0.0000000000000D+00
224  2.2300000000000D+00  0.0000000000000D+00  0.0000000000000D+00
225  2.2400000000000D+00  0.0000000000000D+00  0.0000000000000D+00
226  2.2500000000000D+00  0.0000000000000D+00  0.0000000000000D+00
227  2.2600000000000D+00  0.0000000000000D+00  0.0000000000000D+00
228  2.2700000000000D+00  0.0000000000000D+00  0.0000000000000D+00
229  2.2800000000000D+00  0.0000000000000D+00  0.0000000000000D+00
230  2.2900000000000D+00  0.0000000000000D+00  0.0000000000000D+00
231  2.3000000000000D+00  0.0000000000000D+00  0.0000000000000D+00
232  2.3100000000000D+00  0.0000000000000D+00  0.0000000000000D+00
233  2.3200000000000D+00  0.0000000000000D+00  0.0000000000000D+00
234  2.3300000000000D+00  0.0000000000000D+00  0.0000000000000D+00
235  2.3400000000000D+00  0.0000000000000D+00  0.0000000000000D+00
236  2.3500000000000D+00  0.0000000000000D+00  0.0000000000000D+00
237  2.3600000000000D+00  0.0000000000000D+00  0.0000000000000D+00
238  2.3700000000000D+00  0.0000000000000D+00  0.0000000000000D+00
239  2.3800000000000D+00  0.0000000000000D+00  0.0000000000000D+00
240  2.3900000000000D+00  0.0000000000000D+00  0.0000000000000D+00
241  2.4000000000000D+00  0.0000000000000D+00  0.0000000000000D+00
242  2.4100000000000D+00  0.0000000000000D+00  0.0000000000000D+00
243  2.4200000000000D+00  0.0000000000000D+00  0.0000000000000D+00
244  2.4300000000000D+00  0.0000000000000D+00  0.0000000000000D+00
245  2.4400000000000D+00  0.0000000000000D+00  0.0000000000000D+00
246  2.4500000000000D+00  0.0000000000000D+00  0.0000000000000D+00
247  2.4600000000000D+00  0.0000000000000D+00  0.0000000000000D+00
248  2.4700000000000D+00  0.0000000000000D+00  0.0000000000000D+00
249  2.4800000000000D+00  0.0000000000000D+00  0.0000000000000D+00
250  2.4900000000000D+00  0.0000000000000D+00  0.0000000000000D+00
251  2.5000000000000D+00  0.0000000000000D+00  0.0000000000000D+00
252  2.5100000000000D+00  0.0000000000000D+00  0.0000000000000D+00
253  2.5200000000000D+00  0.0000000000000D+00  0.0000000000000D+00
254  2.5300000000000D+00  0.0000000000000D+00  0.0000000000000D+00
255  2.5400000000000D+00  0.0000000000000D+00  0.0000000000000D+00
256  2.5500000000000D+00  0.0000000000000D+00  0.0000000000000D+00
257  2.5600000000000D+00  0.0000000000000D+00  0.0000000000000D+00
258  2.5700000000000D+00  0.0000000000000D+00  0.0000000000000D+00
259  2.5800000000000D+00  0.0000000000000D+00  0.0000000000000D+00
260  2.5900000000000D+00  0.0000000000000D+00  0.0000000000000D+00
261  2.6000000000000D+00  0.0000000000000D+00  0.0000000000000D+00
262  2.6100000000000D+00  0.0000000000000D+00  0.0000000000000D+00
263  2.6200000000000D+00  0.0000000000000D+00  0.0000000000000D+00
264  2.6300000000000D+00  0.0000000000000D+00  0.0000000000000D+00
265  2.6400000000000D+00  0.0000000000000D+00  0.0000000000000D+00
266  2.6500000000000D+00  0.0000000000000D+00  0.0000000000000D+00
267  2.6600000000000D+00  0.0000000000000D+00  0.0000000000000D+00
268  2.6700000000000D+00  0.0000000000000D+00  0.0000000000000D+00
269  2.6800000000000D+00  0.0000000000000D+00  0.0000000000000D+00
270  2.6900000000000D+00  0.0000000000000D+00  0.0000000000000D+00
271  2.7000000000000D+00  0.0000000000000D+00  0.0000000000000D+00
272  2.7100000000000D+00  0.0000000000000D+00  0.0000000000000D+00
273  2.7200000000000D+00  0.0000000000000D+00  0.0000000000000D+00
274  2.7300000000000D+00  0.0000000000000D+00  0.0000000000000D+00
275  2.7400000000000D+00  0.0000000000000D+00  0.0000000000000D+00
276  2.7500000000000D+00  0.0000000000000D+00  0.0000000000000D+00
277  2.7600000000000D+00  0.0000000000000D+00  0.0000000000000D+00
278  2.7700000000000D+00  0.0000000000000D+00  0.0000000000000D+00
279  2.7800000000000D+00  0.0000000000000D+00  0.0000000000000D+00
280  2.7900000000000D+00  0.0000000000000D+00  0.0000000000000D+00
281  2.8000000000000D+00  0.0000000000000D+00  0.0000000000000D+00
282  2.8100000000000D+00  0.0000000000000D+00  0.0000000000000D+00
283  2.8200000000000D+00  0.0000000000000D+00  0.0000000000000D+00
284  2.8300000000000D+00  0.0000000000000D+00  0.0000000000000D+00
285  2.8400000000000D+00  0.0000000000000D+00  0.0000000000000D+00
286  2.8500000000000D+00  0.0000000000000D+00  0.0000000000000D+00
287  2.8600000000000D+00  0.0000000000000D+00  0.0000000000000D+00
288  2.8700000000000D+00  0.0000000000000D+00  0.0000000000000D+00
289  2.8800000000000D+00  0.0000000000000D+00  0.0000000000000D+00
290  2.8900000000000D+00  0.0000000000000D+00  0.0000000000000D+00
291  2.9000000000000D+00  0.0000000000000D+00  0.0000000000000D+00
292  2.9100000000000D+00  0.0000000000000D+00  0.0000000000000D+00
293  2.9200000000000D+00  0.0000000000000D+00  0.0000000000000D+00
294  2.9300000000000D+00  0.0000000000000D+00  0.0000000000000D+00
295  2.9400000000000D+00  0.0000000000000D+00  0.0000000000000D+00
296  2.9500000000000D+00  0.0000000000000D+00  0.0000000000000D+00
297  2.9600000000000D+00  0.0000000000000D+00  0.0000000000000D+00
298  2.9700000000000D+00  0.0000000000000D+00  0.0000000000000D+00
299  2.9800000000000D+00  0.0000000000000D+00  0.0000000000000D+00
300  2.9900000000000D+00  0.0000000000000D+00  0.0000000000000D+00
301  3.0000000000000D+00  0.0000000000000D+00  0.0000000000000D+00
1                        -3.1919257519029D+00
1  0.0000000000000D+00 -0.0000000000000D+00
2  1.0000000000000D-02 -3.9571543068288D-03
3  2.0000000000000D-02 -1.5592848573872D-02
4  3.0000000000000D-02 -3.4207845857112D-02
5  4.0000000000000D-02 -5.8663399958069D-02
6  5.0000000000000D-02 -8.7420367830223D-02
7  6.0000000000000D-02 -1.1859227198847D-01
8  7.0000000000000D-02 -1.5001067877211D-01
9  8.0000000000000D-02 -1.7930087601648D-01
10  9.0000000000000D-02 -2.0396551191216D-01
11  1.0000000000000D-01 -2.2147360423645D-01
12  1.1000000000000D-01 -2.2935215448960D-01
13  1.2000000000000D-01 -2.2527750930641D-01
14  1.3000000000000D-01 -2.0716360445807D-01
15  1.4000000000000D-01 -1.7324430608814D-01
16  1.5000000000000D-01 -1.2214722632089D-01
17  1.6000000000000D-01 -5.2956635838754D-02
18  1.7000000000000D-01  3.4736602386766D-02
19  1.8000000000000D-01  1.4079975213961D-01
20  1.9000000000000D-01  2.6453886421817D-01
21  2.0000000000000D-01  4.0469610334991D-01
22  2.1000000000000D-01  5.5946419451326D-01
23  2.2000000000000D-01  7.2651756581891D-01
24  2.3000000000000D-01  9.0305967738221D-01
25  2.4000000000000D-01  1.0858851308446D+00
26  2.5000000000000D-01  1.2714554764021D+00
27  2.6000000000000D-01  1.4559854407128D+00
28  2.7000000000000D-01  1.6355390899611D+00
29  2.8000000000000D-01  1.8061312305301D+00
30  2.9000000000000D-01  1.9638326458009D+00
31  3.0000000000000D-01  2.1048755873232D+00
32  3.1000000000000D-01  2.2257565789463D+00
33  3.2000000000000D-01  2.3233333078961D+00
34  3.3000000000000D-01  2.3949142075780D+00
35  3.4000000000000D-01  2.4383352782647D+00
36  3.5000000000000D-01  2.4520251166139D+00
37  3.6000000000000D-01  2.4350539642105D+00
38  3.7000000000000D-01  2.3871664556555D+00
39  3.8000000000000D-01  2.3087962234591D+00
40  3.9000000000000D-01  2.2010627915548D+00
41  4.0000000000000D-01  2.0657496301931D+00
42  4.1000000000000D-01  1.9052649791158D+00
43  4.2000000000000D-01  1.7225857528301D+00
44  4.3000000000000D-01  1.5211862208746D+00
45  4.4000000000000D-01  1.3049533858555D+00
46  4.5000000000000D-01  1.0780913739782D+00
47  4.6000000000000D-01  8.4501748422829D-01
48  4.7000000000000D-01  6.1025374468828D-01
49  4.8000000000000D-01  3.7831388626498D-01
50  4.9000000000000D-01  1.5359003870630D-01
51  5.0000000000000D-01 -5.9752024388325D-02
52  5.1000000000000D-01 -2.5787085747169D-01
53  5.2000000000000D-01 -4.3735063621095D-01
54  5.3000000000000D-01 -5.9527500677511D-01
55  5.4000000000000D-01 -7.2928598066322D-01
56  5.5000000000000D-01 -8.3765392746412D-01
57  5.6000000000000D-01 -9.1928591399768D-01
58  5.7000000000000D-01 -9.7376380897961D-01
59  5.8000000000000D-01 -1.0013221475777D+00
60  5.9000000000000D-01 -1.0028434993397D+00
61  6.0000000000000D-01 -9.7980804717684D-01
62  6.1000000000000D-01 -9.3424765258080D-01
63  6.2000000000000D-01 -8.6867426794236D-01
64  6.3000000000000D-01 -7.8600219570365D-01
65  6.4000000000000D-01 -6.8945171036688D-01
66  6.5000000000000D-01 -5.8246163191793D-01
67  6.6000000000000D-01 -4.6858573383387D-01
68  6.7000000000000D-01 -3.5137747657192D-01
69  6.8000000000000D-01 -2.3430531686978D-01
70  6.9000000000000D-01 -1.2065656534016D-01
71  7.0000000000000D-01 -1.3440426268143D-02
72  7.1000000000000D-01  8.4696054904135D-02
73  7.2000000000000D-01  1.7151989240347D-01
74  7.3000000000000D-01  2.4527031006873D-01
75  7.4000000000000D-01  3.0469616203406D-01
76  7.5000000000000D-01  3.4907332421588D-01
77  7.6000000000000D-01  3.7822020561187D-01
78  7.7000000000000D-01  3.9247633903029D-01
79  7.8000000000000D-01  3.9267298247896D-01
80  7.9000000000000D-01  3.8009165973469D-01
81  8.0000000000000D-01  3.5640724191988D-01
82  8.1000000000000D-01  3.2361944505592D-01
83  8.2000000000000D-01  2.8397501354281D-01
84  8.3000000000000D-01  2.3988313497222D-01
85  8.4000000000000D-01  1.9382682817336D-01
86  8.5000000000000D-01  1.4827315923938D-01
87  8.6000000000000D-01  1.0558516710229D-01
88  8.7000000000000D-01  6.7938320698184D-02
89  8.8000000000000D-01  3.7244185413559D-02
90  8.9000000000000D-01  1.5083750544245D-02
91  9.0000000000000D-01  2.9785870474099D-03
92  9.1000000000000D-01 -2.7240206284609D-04
93  9.2000000000000D-01 -8.1245655285753D-06
94  9.3000000000000D-01  0.0000000000000D+00
95  9.4000000000000D-01  0.0000000000000D+00
96  9.5000000000000D-01  0.0000000000000D+00
97  9.6000000000000D-01  0.0000000000000D+00
98  9.7000000000000D-01  0.0000000000000D+00
99  9.8000000000000D-01  0.0000000000000D+00
100  9.9000000000000D-01  0.0000000000000D+00
101  1.0000000000000D+00  0.0000000000000D+00
102  1.0100000000000D+00  0.0000000000000D+00
103  1.0200000000000D+00  0.0000000000000D+00
104  1.0300000000000D+00  0.0000000000000D+00
105  1.0400000000000D+00  0.0000000000000D+00
106  1.0500000000000D+00  0.0000000000000D+00
107  1.0600000000000D+00  0.0000000000000D+00
108  1.0700000000000D+00  0.0000000000000D+00
109  1.0800000000000D+00  0.0000000000000D+00
110  1.0900000000000D+00  0.0000000000000D+00
111  1.1000000000000D+00  0.0000000000000D+00
112  1.1100000000000D+00  0.0000000000000D+00
113  1.1200000000000D+00  0.0000000000000D+00
114  1.1300000000000D+00  0.0000000000000D+00
115  1.1400000000000D+00  0.0000000000000D+00
116  1.1500000000000D+00  0.0000000000000D+00
117  1.1600000000000D+00  0.0000000000000D+00
118  1.1700000000000D+00  0.0000000000000D+00
119  1.1800000000000D+00  0.0000000000000D+00
120  1.1900000000000D+00  0.0000000000000D+00
121  1.2000000000000D+00  0.0000000000000D+00
122  1.2100000000000D+00  0.0000000000000D+00
123  1.2200000000000D+00  0.0000000000000D+00
124  1.2300000000000D+00  0.0000000000000D+00
125  1.2400000000000D+00  0.0000000000000D+00
126  1.2500000000000D+00  0.0000000000000D+00
127  1.2600000000000D+00  0.0000000000000D+00
128  1.2700000000000D+00  0.0000000000000D+00
129  1.2800000000000D+00  0.0000000000000D+00
130  1.2900000000000D+00  0.0000000000000D+00
131  1.3000000000000D+00  0.0000000000000D+00
132  1.3100000000000D+00  0.0000000000000D+00
133  1.3200000000000D+00  0.0000000000000D+00
134  1.3300000000000D+00  0.0000000000000D+00
135  1.3400000000000D+00  0.0000000000000D+00
136  1.3500000000000D+00  0.0000000000000D+00
137  1.3600000000000D+00  0.0000000000000D+00
138  1.3700000000000D+00  0.0000000000000D+00
139  1.3800000000000D+00  0.0000000000000D+00
140  1.3900000000000D+00  0.0000000000000D+00
141  1.4000000000000D+00  0.0000000000000D+00
142  1.4100000000000D+00  0.0000000000000D+00
143  1.4200000000000D+00  0.0000000000000D+00
144  1.4300000000000D+00  0.0000000000000D+00
145  1.4400000000000D+00  0.0000000000000D+00
146  1.4500000000000D+00  0.0000000000000D+00
147  1.4600000000000D+00  0.0000000000000D+00
148  1.4700000000000D+00  0.0000000000000D+00
149  1.4800000000000D+00  0.0000000000000D+00
150  1.4900000000000D+00  0.0000000000000D+00
151  1.5000000000000D+00  0.0000000000000D+00
152  1.5100000000000D+00  0.0000000000000D+00
153  1.5200000000000D+00  0.0000000000000D+00
154  1.5300000000000D+00  0.0000000000000D+00
155  1.5400000000000D+00  0.0000000000000D+00
156  1.5500000000000D+00  0.0000000000000D+00
157  1.5600000000000D+00  0.0000000000000D+00
158  1.5700000000000D+00  0.0000000000000D+00
159  1.5800000000000D+00  0.0000000000000D+00
160  1.5900000000000D+00  0.0000000000000D+00
161  1.6000000000000D+00  0.0000000000000D+00
162  1.6100000000000D+00  0.0000000000000D+00
163  1.6200000000000D+00  0.0000000000000D+00
164  1.6300000000000D+00  0.0000000000000D+00
165  1.6400000000000D+00  0.0000000000000D+00
166  1.6500000000000D+00  0.0000000000000D+00
167  1.6600000000000D+00  0.0000000000000D+00
168  1.6700000000000D+00  0.0000000000000D+00
169  1.6800000000000D+00  0.0000000000000D+00
170  1.6900000000000D+00  0.0000000000000D+00
171  1.7000000000000D+00  0.0000000000000D+00
172  1.7100000000000D+00  0.0000000000000D+00
173  1.7200000000000D+00  0.0000000000000D+00
174  1.7300000000000D+00  0.0000000000000D+00
175  1.7400000000000D+00  0.0000000000000D+00
176  1.7500000000000D+00  0.0000000000000D+00
177  1.7600000000000D+00  0.0000000000000D+00
178  1.7700000000000D+00  0.0000000000000D+00
179  1.7800000000000D+00  0.0000000000000D+00
180  1.7900000000000D+00  0.0000000000000D+00
181  1.8000000000000D+00  0.0000000000000D+00
182  1.8100000000000D+00  0.0000000000000D+00
183  1.8200000000000D+00  0.0000000000000D+00
184  1.8300000000000D+00  0.0000000000000D+00
185  1.8400000000000D+00  0.0000000000000D+00
186  1.8500000000000D+00  0.0000000000000D+00
187  1.8600000000000D+00  0.0000000000000D+00
188  1.8700000000000D+00  0.0000000000000D+00
189  1.8800000000000D+00  0.0000000000000D+00
190  1.8900000000000D+00  0.0000000000000D+00
191  1.9000000000000D+00  0.0000000000000D+00
192  1.9100000000000D+00  0.0000000000000D+00
193  1.9200000000000D+00  0.0000000000000D+00
194  1.9300000000000D+00  0.0000000000000D+00
195  1.9400000000000D+00  0.0000000000000D+00
196  1.9500000000000D+00  0.0000000000000D+00
197  1.9600000000000D+00  0.0000000000000D+00
198  1.9700000000000D+00  0.0000000000000D+00
199  1.9800000000000D+00  0.0000000000000D+00
200  1.9900000000000D+00  0.0000000000000D+00
201  2.0000000000000D+00  0.0000000000000D+00
202  2.0100000000000D+00  0.0000000000000D+00
203  2.0200000000000D+00  0.0000000000000D+00
204  2.0300000000000D+00  0.0000000000000D+00
205  2.0400000000000D+00  0.0000000000000D+00
206  2.0500000000000D+00  0.0000000000000D+00
207  2.0600000000000D+00  0.0000000000000D+00
208  2.0700000000000D+00  0.0000000000000D+00
209  2.0800000000000D+00  0.0000000000000D+00