H     ONCVPSP  r_core=  1.01  0.71
1.0000      1.0000      150120    zatom,zion,pspd
8      11   1     1   300     0    pspcod,pspxc,lmax,lloc,mmax,r2well
2.99000000  0.00000000  0.00000000    rchrg fchrg qchrg
2     0     0     0     0    nproj
0                 extension_switch
0                         7.4806250281676D+01 -1.4029602918760D+01
1  0.0000000000000D+00  0.0000000000000D+00 -0.0000000000000D+00
2  1.0000000000000D-02  4.5523997001954D-01 -3.5605599139270D-01
3  2.0000000000000D-02  8.9225470100989D-01 -6.9949942297257D-01
4  3.0000000000000D-02  1.2937618081434D+00 -1.0185095602953D+00
5  4.0000000000000D-02  1.6442889600903D+00 -1.3027777712921D+00
6  5.0000000000000D-02  1.9308996804757D+00 -1.5440942460049D+00
7  6.0000000000000D-02  2.1437298749680D+00 -1.7367563496998D+00
8  7.0000000000000D-02  2.2763096545028D+00 -1.8777754192873D+00
9  8.0000000000000D-02  2.3256681205579D+00 -1.9668810797235D+00
10  9.0000000000000D-02  2.2922389984445D+00 -2.0063416832592D+00
11  1.0000000000000D-01  2.1795998610179D+00 -2.0006338810463D+00
12  1.1000000000000D-01  1.9940861158676D+00 -1.9560025955501D+00
13  1.2000000000000D-01  1.7443231177875D+00 -1.8799549568888D+00
14  1.3000000000000D-01  1.4407168824203D+00 -1.7807292145102D+00
15  1.4000000000000D-01  1.0949377156556D+00 -1.6667739701229D+00
16  1.5000000000000D-01  7.1942270422801D-01 -1.5462652608840D+00
17  1.6000000000000D-01  3.2691534489388D-01 -1.4266819436929D+00
18  1.7000000000000D-01 -6.9947899891585D-02 -1.3144518327188D+00
19  1.8000000000000D-01 -4.5899922929025D-01 -1.2146764831797D+00
20  1.9000000000000D-01 -8.2885028634337D-01 -1.1309368804198D+00
21  2.0000000000000D-01 -1.1691542164779D+00 -1.0651807707510D+00
22  2.1000000000000D-01 -1.4708250201013D+00 -1.0176886353518D+00
23  2.2000000000000D-01 -1.7262164888327D+00 -9.8711698561746D-01
24  2.3000000000000D-01 -1.9292663329467D+00 -9.7061412373624D-01
25  2.4000000000000D-01 -2.0756063128752D+00 -9.6400480362592D-01
26  2.5000000000000D-01 -2.1626407841050D+00 -9.6203906275048D-01
27  2.6000000000000D-01 -2.1895879142610D+00 -9.5869756143902D-01
28  2.7000000000000D-01 -2.1574861519002D+00 -9.4754729830264D-01
29  2.8000000000000D-01 -2.0691552936943D+00 -9.2213302634727D-01
30  2.9000000000000D-01 -1.9291109056385D+00 -8.7639202226329D-01
31  3.0000000000000D-01 -1.7434253149197D+00 -8.0507252071482D-01
32  3.1000000000000D-01 -1.5195319170183D+00 -7.0413336729862D-01
33  3.2000000000000D-01 -1.2659729917740D+00 -5.7109744552960D-01
34  3.3000000000000D-01 -9.9209075646809D-01 -4.0534198203512D-01
35  3.4000000000000D-01 -7.0767542308232D-01 -2.0828046381109D-01
36  3.5000000000000D-01 -4.2257732939659D-01  1.6564606204105D-02
37  3.6000000000000D-01 -1.4630562004536D-01  2.6362891192758D-01
38  3.7000000000000D-01  1.1237004918618D-01  5.2551161897312D-01
39  3.8000000000000D-01  3.4577742544135D-01  7.9332090691901D-01
40  3.9000000000000D-01  5.4765430838852D-01  1.0571331603820D+00
41  4.0000000000000D-01  7.1338206545280D-01  1.3065468693971D+00
42  4.1000000000000D-01  8.4011999445444D-01  1.5312843887713D+00
43  4.2000000000000D-01  9.2684488283233D-01  1.7218021759476D+00
44  4.3000000000000D-01  9.7428713230109D-01  1.8698634197622D+00
45  4.4000000000000D-01  9.8477326494698D-01  1.9690312228771D+00
46  4.5000000000000D-01  9.6199014298456D-01  2.0150481343783D+00
47  4.6000000000000D-01  9.1069153868373D-01  2.0060782862737D+00
48  4.7000000000000D-01  8.3637144446596D-01  1.9427978467235D+00
49  4.8000000000000D-01  7.4492674150455D-01  1.8283458358007D+00
50  4.9000000000000D-01  6.4232635845595D-01  1.6681317661954D+00
51  5.0000000000000D-01  5.3431676121651D-01  1.4695122841188D+00
52  5.1000000000000D-01  4.2617602862886D-01  1.2413872486754D+00
53  5.2000000000000D-01  3.2249670620745D-01  9.9372675141678D-01
54  5.3000000000000D-01  2.2705056835247D-01  7.3704005210754D-01
55  5.4000000000000D-01  1.4271791119034D-01  4.8187210829703D-01
56  5.5000000000000D-01  7.1416600174532D-02  2.3823525772361D-01
57  5.6000000000000D-01  1.4170108637117D-02  1.5199221554033D-02
58  5.7000000000000D-01 -2.8876423847952D-02 -1.7961817357246D-01
59  5.8000000000000D-01 -5.8320149538806D-02 -3.4030016937147D-01
60  5.9000000000000D-01 -7.5408836363077D-02 -4.6300584758991D-01
61  6.0000000000000D-01 -8.1871976737779D-02 -5.4598729459392D-01
62  6.1000000000000D-01 -7.9785078709017D-02 -5.8978086453607D-01
63  6.2000000000000D-01 -7.1405436240216D-02 -5.9702022564016D-01
64  6.3000000000000D-01 -5.9027233639213D-02 -5.7230191137639D-01
65  6.4000000000000D-01 -4.4836101693504D-02 -5.2191184972314D-01
66  6.5000000000000D-01 -3.0802115299292D-02 -4.5339991300884D-01
67  6.6000000000000D-01 -1.8580537429161D-02 -3.7514984632374D-01
68  6.7000000000000D-01 -9.4307407703015D-03 -2.9584485532926D-01
69  6.8000000000000D-01 -4.1941745608327D-03 -2.2393370732406D-01
70  6.9000000000000D-01 -3.2812518394094D-03 -1.6711406945311D-01
71  7.0000000000000D-01 -6.7401168940996D-03 -1.3230429489007D-01
72  7.1000000000000D-01 -1.3583065224958D-02 -1.1925264280180D-01
73  7.2000000000000D-01 -2.1005334831565D-02 -1.1073140737385D-01
74  7.3000000000000D-01 -2.7883324191116D-02 -9.9447127486796D-02
75  7.4000000000000D-01 -3.4203578390720D-02 -8.6542599075971D-02
76  7.5000000000000D-01 -3.9879266213571D-02 -7.2536717027619D-02
77  7.6000000000000D-01 -4.4834927948960D-02 -5.7925895814195D-02
78  7.7000000000000D-01 -4.9008668349135D-02 -4.3179476460338D-02
79  7.8000000000000D-01 -5.2353466134806D-02 -2.8730327239237D-02
80  7.9000000000000D-01 -5.4838288916255D-02 -1.4966253868218D-02
81  8.0000000000000D-01 -5.6448796589956D-02 -2.2230609666569D-03
82  8.1000000000000D-01 -5.7187678003596D-02  9.2208074164070D-03
83  8.2000000000000D-01 -5.7074613354151D-02  1.9147971230858D-02
84  8.3000000000000D-01 -5.6145862946152D-02  2.7404124651209D-02
85  8.4000000000000D-01 -5.4453491011249D-02  3.3898355464343D-02
86  8.5000000000000D-01 -5.2064241098045D-02  3.8601814735468D-02
87  8.6000000000000D-01 -4.9058086953360D-02  4.1544814891168D-02
88  8.7000000000000D-01 -4.5526489704946D-02  4.2812469025899D-02
89  8.8000000000000D-01 -4.1570398404982D-02  4.2539016110200D-02
90  8.9000000000000D-01 -3.7298036507145D-02  4.0901005052125D-02
91  9.0000000000000D-01 -3.2822521519099D-02  3.8109534995426D-02
92  9.1000000000000D-01 -2.8259368794217D-02  3.4401769124379D-02
93  9.2000000000000D-01 -2.3723933086433D-02  3.0031954095944D-02
94  9.3000000000000D-01 -1.9328842963312D-02  2.5262186526500D-02
95  9.4000000000000D-01 -1.5181483326341D-02  2.0353170932837D-02
96  9.5000000000000D-01 -1.1381983800418D-02  1.5556183973722D-02
97  9.6000000000000D-01 -8.0199226551339D-03  1.1102205031455D-02
98  9.7000000000000D-01 -5.1729689725992D-03  7.1953527966423D-03
99  9.8000000000000D-01 -2.9049731782221D-03  4.0057967268824D-03
100  9.9000000000000D-01 -1.2643783114150D-03  1.6636879810579D-03
101  1.0000000000000D+00 -2.9714684907333D-04  2.7005181718811D-04
102  1.0100000000000D+00  3.0431903064207D-05 -1.8871480272295D-04
103  1.0200000000000D+00  1.4781889584672D-05 -4.0072870105011D-05
104  1.0300000000000D+00 -1.2901153278092D-06  9.3858879482448D-06
105  1.0400000000000D+00  0.0000000000000D+00  0.0000000000000D+00
106  1.0500000000000D+00  0.0000000000000D+00  0.0000000000000D+00
107  1.0600000000000D+00  0.0000000000000D+00  0.0000000000000D+00
108  1.0700000000000D+00  0.0000000000000D+00  0.0000000000000D+00
109  1.0800000000000D+00  0.0000000000000D+00  0.0000000000000D+00
110  1.0900000000000D+00  0.0000000000000D+00  0.0000000000000D+00
111  1.1000000000000D+00  0.0000000000000D+00  0.0000000000000D+00
112  1.1100000000000D+00  0.0000000000000D+00  0.0000000000000D+00
113  1.1200000000000D+00  0.0000000000000D+00  0.0000000000000D+00
114  1.1300000000000D+00  0.0000000000000D+00  0.0000000000000D+00
115  1.1400000000000D+00  0.0000000000000D+00  0.0000000000000D+00
116  1.1500000000000D+00  0.0000000000000D+00  0.0000000000000D+00
117  1.1600000000000D+00  0.0000000000000D+00  0.0000000000000D+00
118  1.1700000000000D+00  0.0000000000000D+00  0.0000000000000D+00
119  1.1800000000000D+00  0.0000000000000D+00  0.0000000000000D+00
120  1.1900000000000D+00  0.0000000000000D+00  0.0000000000000D+00
121  1.2000000000000D+00  0.0000000000000D+00  0.0000000000000D+00
122  1.2100000000000D+00  0.0000000000000D+00  0.0000000000000D+00
123  1.2200000000000D+00  0.0000000000000D+00  0.0000000000000D+00
124  1.2300000000000D+00  0.0000000000000D+00  0.0000000000000D+00
125  1.2400000000000D+00  0.0000000000000D+00  0.0000000000000D+00
126  1.2500000000000D+00  0.0000000000000D+00  0.0000000000000D+00
127  1.2600000000000D+00  0.0000000000000D+00  0.0000000000000D+00
128  1.2700000000000D+00  0.0000000000000D+00  0.0000000000000D+00
129  1.2800000000000D+00  0.0000000000000D+00  0.0000000000000D+00
130  1.2900000000000D+00  0.0000000000000D+00  0.0000000000000D+00
131  1.3000000000000D+00  0.0000000000000D+00  0.0000000000000D+00
132  1.3100000000000D+00  0.0000000000000D+00  0.0000000000000D+00
133  1.3200000000000D+00  0.0000000000000D+00  0.0000000000000D+00
134  1.3300000000000D+00  0.0000000000000D+00  0.0000000000000D+00
135  1.3400000000000D+00  0.0000000000000D+00  0.0000000000000D+00
136  1.3500000000000D+00  0.0000000000000D+00  0.0000000000000D+00
137  1.3600000000000D+00  0.0000000000000D+00  0.0000000000000D+00
138  1.3700000000000D+00  0.0000000000000D+00  0.0000000000000D+00
139  1.3800000000000D+00  0.0000000000000D+00  0.0000000000000D+00
140  1.3900000000000D+00  0.0000000000000D+00  0.0000000000000D+00
141  1.4000000000000D+00  0.0000000000000D+00  0.0000000000000D+00
142  1.4100000000000D+00  0.0000000000000D+00  0.0000000000000D+00
143  1.4200000000000D+00  0.0000000000000D+00  0.0000000000000D+00
144  1.4300000000000D+00  0.0000000000000D+00  0.0000000000000D+00
145  1.4400000000000D+00  0.0000000000000D+00  0.0000000000000D+00
146  1.4500000000000D+00  0.0000000000000D+00  0.0000000000000D+00
147  1.4600000000000D+00  0.0000000000000D+00  0.0000000000000D+00
148  1.4700000000000D+00  0.0000000000000D+00  0.0000000000000D+00
149  1.4800000000000D+00  0.0000000000000D+00  0.0000000000000D+00
150  1.4900000000000D+00  0.0000000000000D+00  0.0000000000000D+00
151  1.5000000000000D+00  0.0000000000000D+00  0.0000000000000D+00
152  1.5100000000000D+00  0.0000000000000D+00  0.0000000000000D+00
153  1.5200000000000D+00  0.0000000000000D+00  0.0000000000000D+00
154  1.5300000000000D+00  0.0000000000000D+00  0.0000000000000D+00
155  1.5400000000000D+00  0.0000000000000D+00  0.0000000000000D+00
156  1.5500000000000D+00  0.0000000000000D+00  0.0000000000000D+00
157  1.5600000000000D+00  0.0000000000000D+00  0.0000000000000D+00
158  1.5700000000000D+00  0.0000000000000D+00  0.0000000000000D+00
159  1.5800000000000D+00  0.0000000000000D+00  0.0000000000000D+00
160  1.5900000000000D+00  0.0000000000000D+00  0.0000000000000D+00
161  1.6000000000000D+00  0.0000000000000D+00  0.0000000000000D+00
162  1.6100000000000D+00  0.0000000000000D+00  0.0000000000000D+00
163  1.6200000000000D+00  0.0000000000000D+00  0.0000000000000D+00
164  1.6300000000000D+00  0.0000000000000D+00  0.0000000000000D+00
165  1.6400000000000D+00  0.0000000000000D+00  0.0000000000000D+00
166  1.6500000000000D+00  0.0000000000000D+00  0.0000000000000D+00
167  1.6600000000000D+00  0.0000000000000D+00  0.0000000000000D+00
168  1.6700000000000D+00  0.0000000000000D+00  0.0000000000000D+00
169  1.6800000000000D+00  0.0000000000000D+00  0.0000000000000D+00
170  1.6900000000000D+00  0.0000000000000D+00  0.0000000000000D+00
171  1.7000000000000D+00  0.0000000000000D+00  0.0000000000000D+00
172  1.7100000000000D+00  0.0000000000000D+00  0.0000000000000D+00
173  1.7200000000000D+00  0.0000000000000D+00  0.0000000000000D+00
174  1.7300000000000D+00  0.0000000000000D+00  0.0000000000000D+00
175  1.7400000000000D+00  0.0000000000000D+00  0.0000000000000D+00
176  1.7500000000000D+00  0.0000000000000D+00  0.0000000000000D+00
177  1.7600000000000D+00  0.0000000000000D+00  0.0000000000000D+00
178  1.7700000000000D+00  0.0000000000000D+00  0.0000000000000D+00
179  1.7800000000000D+00  0.0000000000000D+00  0.0000000000000D+00
180  1.7900000000000D+00  0.0000000000000D+00  0.0000000000000D+00
181  1.8000000000000D+00  0.0000000000000D+00  0.0000000000000D+00
182  1.8100000000000D+00  0.0000000000000D+00  0.0000000000000D+00
183  1.8200000000000D+00  0.0000000000000D+00  0.0000000000000D+00
184  1.8300000000000D+00  0.0000000000000D+00  0.0000000000000D+00
185  1.8400000000000D+00  0.0000000000000D+00  0.0000000000000D+00
186  1.8500000000000D+00  0.0000000000000D+00  0.0000000000000D+00
187  1.8600000000000D+00  0.0000000000000D+00  0.0000000000000D+00
188  1.8700000000000D+00  0.0000000000000D+00  0.0000000000000D+00
189  1.8800000000000D+00  0.0000000000000D+00  0.0000000000000D+00
190  1.8900000000000D+00  0.0000000000000D+00  0.0000000000000D+00
191  1.9000000000000D+00  0.0000000000000D+00  0.0000000000000D+00
192  1.9100000000000D+00  0.0000000000000D+00  0.0000000000000D+00
193  1.9200000000000D+00  0.0000000000000D+00  0.0000000000000D+00
194  1.9300000000000D+00  0.0000000000000D+00  0.0000000000000D+00
195  1.9400000000000D+00  0.0000000000000D+00  0.0000000000000D+00
196  1.9500000000000D+00  0.0000000000000D+00  0.0000000000000D+00
197  1.9600000000000D+00  0.0000000000000D+00  0.0000000000000D+00
198  1.9700000000000D+00  0.0000000000000D+00  0.0000000000000D+00
199  1.9800000000000D+00  0.0000000000000D+00  0.0000000000000D+00
200  1.9900000000000D+00  0.0000000000000D+00  0.0000000000000D+00
201  2.0000000000000D+00  0.0000000000000D+00  0.0000000000000D+00
202  2.0100000000000D+00  0.0000000000000D+00  0.0000000000000D+00
203  2.0200000000000D+00  0.0000000000000D+00  0.0000000000000D+00
204  2.0300000000000D+00  0.0000000000000D+00  0.0000000000000D+00
205  2.0400000000000D+00  0.0000000000000D+00  0.0000000000000D+00
206  2.0500000000000D+00  0.0000000000000D+00  0.0000000000000D+00
207  2.0600000000000D+00  0.0000000000000D+00  0.0000000000000D+00
208  2.0700000000000D+00  0.0000000000000D+00  0.0000000000000D+00
209  2.0800000000000D+00  0.0000000000000D+00  0.0000000000000D+00
210  2.0900000000000D+00  0.0000000000000D+00  0.0000000000000D+00
211  2.1000000000000D+00  0.0000000000000D+00  0.0000000000000D+00
212  2.1100000000000D+00  0.0000000000000D+00  0.0000000000000D+00
213  2.1200000000000D+00  0.0000000000000D+00  0.0000000000000D+00
214  2.1300000000000D+00  0.0000000000000D+00  0.0000000000000D+00
215  2.1400000000000D+00  0.0000000000000D+00  0.0000000000000D+00
216  2.1500000000000D+00  0.0000000000000D+00  0.0000000000000D+00
217  2.1600000000000D+00  0.0000000000000D+00  0.0000000000000D+00
218  2.1700000000000D+00  0.0000000000000D+00  0.0000000000000D+00
219  2.1800000000000D+00  0.0000000000000D+00  0.0000000000000D+00
220  2.1900000000000D+00  0.0000000000000D+00  0.0000000000000D+00
221  2.2000000000000D+00  0.0000000000000D+00  0.0000000000000D+00
222  2.2100000000000D+00  0.0000000000000D+00  0.0000000000000D+00
223  2.2200000000000D+00  0.0000000000000D+00  0.0000000000000D+00
224  2.2300000000000D+00  0.0000000000000D+00  0.0000000000000D+00
225  2.2400000000000D+00  0.0000000000000D+00  0.0000000000000D+00
226  2.2500000000000D+00  0.0000000000000D+00  0.0000000000000D+00
227  2.2600000000000D+00  0.0000000000000D+00  0.0000000000000D+00
228  2.2700000000000D+00  0.0000000000000D+00  0.0000000000000D+00
229  2.2800000000000D+00  0.0000000000000D+00  0.0000000000000D+00
230  2.2900000000000D+00  0.0000000000000D+00  0.0000000000000D+00
231  2.3000000000000D+00  0.0000000000000D+00  0.0000000000000D+00
232  2.3100000000000D+00  0.0000000000000D+00  0.0000000000000D+00
233  2.3200000000000D+00  0.0000000000000D+00  0.0000000000000D+00
234  2.3300000000000D+00  0.0000000000000D+00  0.0000000000000D+00
235  2.3400000000000D+00  0.0000000000000D+00  0.0000000000000D+00
236  2.3500000000000D+00  0.0000000000000D+00  0.0000000000000D+00
237  2.3600000000000D+00  0.0000000000000D+00  0.0000000000000D+00
238  2.3700000000000D+00  0.0000000000000D+00  0.0000000000000D+00
239  2.3800000000000D+00  0.0000000000000D+00  0.0000000000000D+00
240  2.3900000000000D+00  0.0000000000000D+00  0.0000000000000D+00
241  2.4000000000000D+00  0.0000000000000D+00  0.0000000000000D+00
242  2.4100000000000D+00  0.0000000000000D+00  0.0000000000000D+00
243  2.4200000000000D+00  0.0000000000000D+00  0.0000000000000D+00
244  2.4300000000000D+00  0.0000000000000D+00  0.0000000000000D+00
245  2.4400000000000D+00  0.0000000000000D+00  0.0000000000000D+00
246  2.4500000000000D+00  0.0000000000000D+00  0.0000000000000D+00
247  2.4600000000000D+00  0.0000000000000D+00  0.0000000000000D+00
248  2.4700000000000D+00  0.0000000000000D+00  0.0000000000000D+00
249  2.4800000000000D+00  0.0000000000000D+00  0.0000000000000D+00
250  2.4900000000000D+00  0.0000000000000D+00  0.0000000000000D+00
251  2.5000000000000D+00  0.0000000000000D+00  0.0000000000000D+00
252  2.5100000000000D+00  0.0000000000000D+00  0.0000000000000D+00
253  2.5200000000000D+00  0.0000000000000D+00  0.0000000000000D+00
254  2.5300000000000D+00  0.0000000000000D+00  0.0000000000000D+00
255  2.5400000000000D+00  0.0000000000000D+00  0.0000000000000D+00
256  2.5500000000000D+00  0.0000000000000D+00  0.0000000000000D+00
257  2.5600000000000D+00  0.0000000000000D+00  0.0000000000000D+00
258  2.5700000000000D+00  0.0000000000000D+00  0.0000000000000D+00
259  2.5800000000000D+00  0.0000000000000D+00  0.0000000000000D+00
260  2.5900000000000D+00  0.0000000000000D+00  0.0000000000000D+00
261  2.6000000000000D+00  0.0000000000000D+00  0.0000000000000D+00
262  2.6100000000000D+00  0.0000000000000D+00  0.0000000000000D+00
263  2.6200000000000D+00  0.0000000000000D+00  0.0000000000000D+00
264  2.6300000000000D+00  0.0000000000000D+00  0.0000000000000D+00
265  2.6400000000000D+00  0.0000000000000D+00  0.0000000000000D+00
266  2.6500000000000D+00  0.0000000000000D+00  0.0000000000000D+00
267  2.6600000000000D+00  0.0000000000000D+00  0.0000000000000D+00
268  2.6700000000000D+00  0.0000000000000D+00  0.0000000000000D+00
269  2.6800000000000D+00  0.0000000000000D+00  0.0000000000000D+00
270  2.6900000000000D+00  0.0000000000000D+00  0.0000000000000D+00
271  2.7000000000000D+00  0.0000000000000D+00  0.0000000000000D+00
272  2.7100000000000D+00  0.0000000000000D+00  0.0000000000000D+00
273  2.7200000000000D+00  0.0000000000000D+00  0.0000000000000D+00
274  2.7300000000000D+00  0.0000000000000D+00  0.0000000000000D+00
275  2.7400000000000D+00  0.0000000000000D+00  0.0000000000000D+00
276  2.7500000000000D+00  0.0000000000000D+00  0.0000000000000D+00
277  2.7600000000000D+00  0.0000000000000D+00  0.0000000000000D+00
278  2.7700000000000D+00  0.0000000000000D+00  0.0000000000000D+00
279  2.7800000000000D+00  0.0000000000000D+00  0.0000000000000D+00
280  2.7900000000000D+00  0.0000000000000D+00  0.0000000000000D+00
281  2.8000000000000D+00  0.0000000000000D+00  0.0000000000000D+00
282  2.8100000000000D+00  0.0000000000000D+00  0.0000000000000D+00
283  2.8200000000000D+00  0.0000000000000D+00  0.0000000000000D+00
284  2.8300000000000D+00  0.0000000000000D+00  0.0000000000000D+00
285  2.8400000000000D+00  0.0000000000000D+00  0.0000000000000D+00
286  2.8500000000000D+00  0.0000000000000D+00  0.0000000000000D+00
287  2.8600000000000D+00  0.0000000000000D+00  0.0000000000000D+00
288  2.8700000000000D+00  0.0000000000000D+00  0.0000000000000D+00
289  2.8800000000000D+00  0.0000000000000D+00  0.0000000000000D+00
290  2.8900000000000D+00  0.0000000000000D+00  0.0000000000000D+00
291  2.9000000000000D+00  0.0000000000000D+00  0.0000000000000D+00
292  2.9100000000000D+00  0.0000000000000D+00  0.0000000000000D+00
293  2.9200000000000D+00  0.0000000000000D+00  0.0000000000000D+00
294  2.9300000000000D+00  0.0000000000000D+00  0.0000000000000D+00
295  2.9400000000000D+00  0.0000000000000D+00  0.0000000000000D+00
296  2.9500000000000D+00  0.0000000000000D+00  0.0000000000000D+00
297  2.9600000000000D+00  0.0000000000000D+00  0.0000000000000D+00
298  2.9700000000000D+00  0.0000000000000D+00  0.0000000000000D+00
299  2.9800000000000D+00  0.0000000000000D+00  0.0000000000000D+00
300  2.9900000000000D+00  0.0000000000000D+00  0.0000000000000D+00
1
1  0.0000000000000D+00  2.9874884649904D+01
2  1.0000000000000D-02  2.9658289346816D+01
3  2.0000000000000D-02  2.8979114082015D+01
4  3.0000000000000D-02  2.7869318310697D+01
5  4.0000000000000D-02  2.6360861488059D+01
6  5.0000000000000D-02  2.4496051975124D+01
7  6.0000000000000D-02  2.2325402715562D+01
8  7.0000000000000D-02  1.9905238101638D+01
9  8.0000000000000D-02  1.7295247042381D+01
10  9.0000000000000D-02  1.4556155568016D+01
11  1.0000000000000D-01  1.1747653710508D+01
12  1.1000000000000D-01  8.9266647468914D+00
13  1.2000000000000D-01  6.1459979192462D+00
14  1.3000000000000D-01  3.4533847831760D+00
15  1.4000000000000D-01  8.9086877548429D-01
16  1.5000000000000D-01 -1.5055045510539D+00
17  1.6000000000000D-01 -3.7057560731651D+00
18  1.7000000000000D-01 -5.6858661414713D+00
19  1.8000000000000D-01 -7.4275475827910D+00
20  1.9000000000000D-01 -8.9179518436490D+00
21  2.0000000000000D-01 -1.0149343909634D+01
22  2.1000000000000D-01 -1.1118780691065D+01
23  2.2000000000000D-01 -1.1827801766544D+01
24  2.3000000000000D-01 -1.2282147526623D+01
25  2.4000000000000D-01 -1.2491497994386D+01
26  2.5000000000000D-01 -1.2469232216983D+01
27  2.6000000000000D-01 -1.2232176506666D+01
28  2.7000000000000D-01 -1.1800348310850D+01
29  2.8000000000000D-01 -1.1196649070812D+01
30  2.9000000000000D-01 -1.0446503292470D+01
31  3.0000000000000D-01 -9.5774178352799D+00
32  3.1000000000000D-01 -8.6184493320758D+00
33  3.2000000000000D-01 -7.5995753928127D+00
34  3.3000000000000D-01 -6.5509737479434D+00
35  3.4000000000000D-01 -5.5022253435017D+00
36  3.5000000000000D-01 -4.4814726316348D+00
37  3.6000000000000D-01 -3.5145718708744D+00
38  3.7000000000000D-01 -2.6242806517029D+00
39  3.8000000000000D-01 -1.8295596264875D+00
40  3.9000000000000D-01 -1.1449982847498D+00
41  4.0000000000000D-01 -5.8043238781800D-01
42  4.1000000000000D-01 -1.4079747825653D-01
43  4.2000000000000D-01  1.7380236952739D-01
44  4.3000000000000D-01  3.6779559391832D-01
45  4.4000000000000D-01  4.4964191335280D-01
46  4.5000000000000D-01  4.3116764500050D-01
47  4.6000000000000D-01  3.2678669320433D-01
48  4.7000000000000D-01  1.5266116527768D-01
49  4.8000000000000D-01 -7.4140248222204D-02
50  4.9000000000000D-01 -3.3645680311381D-01
51  5.0000000000000D-01 -6.1776613967626D-01
52  5.1000000000000D-01 -9.0279087396691D-01
53  5.2000000000000D-01 -1.1780252467217D+00
54  5.3000000000000D-01 -1.4320956765129D+00
55  5.4000000000000D-01 -1.6559578728026D+00
56  5.5000000000000D-01 -1.8431063580150D+00
57  5.6000000000000D-01 -1.9894530071682D+00
58  5.7000000000000D-01 -2.0933493426212D+00
59  5.8000000000000D-01 -2.1552862854954D+00
60  5.9000000000000D-01 -2.1777513985432D+00
61  6.0000000000000D-01 -2.1648091230191D+00
62  6.1000000000000D-01 -2.1218505310563D+00
63  6.2000000000000D-01 -2.0551493759120D+00
64  6.3000000000000D-01 -1.9715103195124D+00
65  6.4000000000000D-01 -1.8778858440448D+00
66  6.5000000000000D-01 -1.7810183830006D+00
67  6.6000000000000D-01 -1.6871231769132D+00
68  6.7000000000000D-01 -1.6015812024421D+00
69  6.8000000000000D-01 -1.5287446958371D+00
70  6.9000000000000D-01 -1.4717797325872D+00
71  7.0000000000000D-01 -1.4328314487550D+00
72  7.1000000000000D-01 -1.4096642152965D+00
73  7.2000000000000D-01 -1.3911214033493D+00
74  7.3000000000000D-01 -1.3726738538954D+00
75  7.4000000000000D-01 -1.3546586542806D+00
76  7.5000000000000D-01 -1.3370578341403D+00
77  7.6000000000000D-01 -1.3198520214737D+00
78  7.7000000000000D-01 -1.3030236655302D+00
79  7.8000000000000D-01 -1.2865569598214D+00
80  7.9000000000000D-01 -1.2704377910597D+00
81  8.0000000000000D-01 -1.2546536702940D+00
82  8.1000000000000D-01 -1.2391936561296D+00
83  8.2000000000000D-01 -1.2240482687361D+00
84  8.3000000000000D-01 -1.2092093939064D+00
85  8.4000000000000D-01 -1.1946701768677D+00
86  8.5000000000000D-01 -1.1804249059629D+00
87  8.6000000000000D-01 -1.1664688867657D+00
88  8.7000000000000D-01 -1.1527983076060D+00
89  8.8000000000000D-01 -1.1394100978970D+00
90  8.9000000000000D-01 -1.1263017810143D+00
91  9.0000000000000D-01 -1.1134713238100D+00
92  9.1000000000000D-01 -1.1009169851201D+00
93  9.2000000000000D-01 -1.0886371658277D+00
94  9.3000000000000D-01 -1.0766302631771D+00
95  9.4000000000000D-01 -1.0648945320670D+00
96  9.5000000000000D-01 -1.0534279695439D+00
97  9.6000000000000D-01 -1.0422281663324D+00
98  9.7000000000000D-01 -1.0312922207108D+00
99  9.8000000000000D-01 -1.0206166261917D+00
100  9.9000000000000D-01 -1.0101976035049D+00
101  1.0000000000000D+00 -1.0000303061002D+00
102  1.0100000000000D+00 -9.9010462337023D-01
103  1.0200000000000D+00 -9.8039885431689D-01
104  1.0300000000000D+00 -9.7088312614225D-01
105  1.0400000000000D+00 -9.6154695449163D-01
106  1.0500000000000D+00 -9.5238797268073D-01
107  1.0600000000000D+00 -9.4340367518954D-01
108  1.0700000000000D+00 -9.3458669535633D-01
109  1.0800000000000D+00 -9.2593303136867D-01
110  1.0900000000000D+00 -9.1743818312233D-01
111  1.1000000000000D+00 -9.0909778706163D-01
112  1.1100000000000D+00 -9.0090766953435D-01
113  1.1200000000000D+00 -8.9286379405255D-01
114  1.1300000000000D+00 -8.8496229374896D-01
115  1.1400000000000D+00 -8.7719942271984D-01
116  1.1500000000000D+00 -8.6957155769826D-01
117  1.1600000000000D+00 -8.6207519921753D-01
118  1.1700000000000D+00 -8.5470699043429D-01
119  1.1800000000000D+00 -8.4746367358889D-01
120  1.1900000000000D+00 -8.4034208374488D-01
121  1.2000000000000D+00 -8.3333918825424D-01
122  1.2100000000000D+00 -8.2645205106620D-01
123  1.2200000000000D+00 -8.1967781563604D-01
124  1.2300000000000D+00 -8.1301372448928D-01
125  1.2400000000000D+00 -8.0645712718449D-01
126  1.2500000000000D+00 -8.0000543679633D-01
127  1.2600000000000D+00 -7.9365614534657D-01
128  1.2700000000000D+00 -7.8740685173724D-01
129  1.2800000000000D+00 -7.8125520457976D-01
130  1.2900000000000D+00 -7.7519892358178D-01
131  1.3000000000000D+00 -7.6923582571906D-01
132  1.3100000000000D+00 -7.6336376536480D-01
133  1.3200000000000D+00 -7.5758067130764D-01
134  1.3300000000000D+00 -7.5188455115044D-01
135  1.3400000000000D+00 -7.4627343934919D-01
136  1.3500000000000D+00 -7.4074545776112D-01
137  1.3600000000000D+00 -7.3529877873553D-01
138  1.3700000000000D+00 -7.2993159942308D-01
139  1.3800000000000D+00 -7.2464221597603D-01
140  1.3900000000000D+00 -7.1942893649878D-01
141  1.4000000000000D+00 -7.1429012980472D-01
142  1.4100000000000D+00 -7.0922422494547D-01
143  1.4200000000000D+00 -7.0422965617334D-01
144  1.4300000000000D+00 -6.9930495248007D-01
145  1.4400000000000D+00 -6.9444864390393D-01
146  1.4500000000000D+00 -6.8965931853906D-01
147  1.4600000000000D+00 -6.8493560742307D-01
148  1.4700000000000D+00 -6.8027615406316D-01
149  1.4800000000000D+00 -6.7567967834940D-01
150  1.4900000000000D+00 -6.7114488940751D-01
151  1.5000000000000D+00 -6.6667057251240D-01
152  1.5100000000000D+00 -6.6225551482462D-01
153  1.5200000000000D+00 -6.5789855071578D-01
154  1.5300000000000D+00 -6.5359854397377D-01
155  1.5400000000000D+00 -6.4935437571703D-01
156  1.5500000000000D+00 -6.4516498020421D-01
157  1.5600000000000D+00 -6.4102928392283D-01
158  1.5700000000000D+00 -6.3694628454743D-01
159  1.5800000000000D+00 -6.3291495546401D-01
160  1.5900000000000D+00 -6.2893434711900D-01
161  1.6000000000000D+00 -6.2500348649005D-01
162  1.6100000000000D+00 -6.2112146547817D-01
163  1.6200000000000D+00 -6.1728736349965D-01
164  1.6300000000000D+00 -6.1350031230504D-01
165  1.6400000000000D+00 -6.0975943954060D-01
166  1.6500000000000D+00 -6.0606391554822D-01
167  1.6600000000000D+00 -6.0241291212584D-01
168  1.6700000000000D+00 -5.9880563716109D-01
169  1.6800000000000D+00 -5.9524130272539D-01
170  1.6900000000000D+00 -5.9171915334247D-01
171  1.7000000000000D+00 -5.8823843770672D-01
172  1.7100000000000D+00 -5.8479843616063D-01
173  1.7200000000000D+00 -5.8139843060578D-01
174  1.7300000000000D+00 -5.7803773644907D-01
175  1.7400000000000D+00 -5.7471566562210D-01
176  1.7500000000000D+00 -5.7143156787344D-01
177  1.7600000000000D+00 -5.6818478224006D-01
178  1.7700000000000D+00 -5.6497469207616D-01
179  1.7800000000000D+00 -5.6180066088645D-01
180  1.7900000000000D+00 -5.5866210481400D-01
181  1.8000000000000D+00 -5.5555840954304D-01
182  1.8100000000000D+00 -5.5248902040304D-01
183  1.8200000000000D+00 -5.4945335123903D-01
184  1.8300000000000D+00 -5.4645086671746D-01
185  1.8400000000000D+00 -5.4348101235523D-01
186  1.8500000000000D+00 -5.4054326815304D-01
187  1.8600000000000D+00 -5.3763711167738D-01
188  1.8700000000000D+00 -5.3476203590052D-01
189  1.8800000000000D+00 -5.3191755014157D-01
190  1.8900000000000D+00 -5.2910315847790D-01
191  1.9000000000000D+00 -5.2631840121967D-01
192  1.9100000000000D+00 -5.2356279242783D-01
193  1.9200000000000D+00 -5.2083589722161D-01
194  1.9300000000000D+00 -5.1813725358391D-01
195  1.9400000000000D+00 -5.1546643468917D-01
196  1.9500000000000D+00 -5.1282300886401D-01
197  1.9600000000000D+00 -5.1020655384096D-01
198  1.9700000000000D+00 -5.0761666855230D-01
199  1.9800000000000D+00 -5.0505293427274D-01
200  1.9900000000000D+00 -5.0251497460179D-01
201  2.0000000000000D+00 -5.0000238832135D-01
202  2.0100000000000D+00 -4.9751480588010D-01
203  2.0200000000000D+00 -4.9505185442692D-01
204  2.0300000000000D+00 -4.9261316376475D-01
205  2.0400000000000D+00 -4.9019838967065D-01
206  2.0500000000000D+00 -4.8780716486048D-01
207  2.0600000000000D+00 -4.8543916194730D-01
208  2.0700000000000D+00 -4.8309403700949D-01
209  2.0800000000000D+00 -4.8077145902021D-01
210  2.0900000000000D+00 -4.7847111385275D-01
211  2.1000000000000D+00 -4.7619266634438D-01
212  2.1100000000000D+00 -4.7393582238166D-01