Bi    ONCVPSP  r_core=  2.31  2.52  2.10
83.0000     15.0000      150122    zatom,zion,pspd
8      11   2     4   600     0    pspcod,pspxc,lmax,lloc,mmax,r2well
5.99000000  0.40000000  0.00000000    rchrg fchrg qchrg
2     2     2     0     0    nproj
0                 extension_switch
0                         5.6212784913565D+00  7.6499575037224D-01
1  0.0000000000000D+00  0.0000000000000D+00  0.0000000000000D+00
2  1.0000000000000D-02  1.2944863804755D-02  9.9092071623897D-03
3  2.0000000000000D-02  2.5906174648397D-02  1.9760878839730D-02
4  3.0000000000000D-02  3.8900313627830D-02  2.9497697077953D-02
5  4.0000000000000D-02  5.1943530137526D-02  3.9062778296373D-02
6  5.0000000000000D-02  6.5051876471720D-02  4.8399888754810D-02
7  6.0000000000000D-02  7.8241142969427D-02  5.7453657962683D-02
8  7.0000000000000D-02  9.1526793881350D-02  6.6169789352231D-02
9  8.0000000000000D-02  1.0492390413544D-01  7.4495267547521D-02
10  9.0000000000000D-02  1.1844709717713D-01  8.2378561565423D-02
11  1.0000000000000D-01  1.3211048405476D-01  8.9769823305582D-02
12  1.1000000000000D-01  1.4592760392158D-01  9.6621080686533D-02
13  1.2000000000000D-01  1.5991136611873D-01  1.0288642481146D-01
14  1.3000000000000D-01  1.7407399400633D-01  1.0852219054297D-01
15  1.4000000000000D-01  1.8842697068325D-01  1.1348712995524D-01
16  1.5000000000000D-01  2.0298098678430D-01  1.1774257798305D-01
17  1.6000000000000D-01  2.1774589044800D-01  1.2125260989907D-01
18  1.7000000000000D-01  2.3273063967908D-01  1.2398418983786D-01
19  1.8000000000000D-01  2.4794325712938D-01  1.2590731022928D-01
20  1.9000000000000D-01  2.6339078755679D-01  1.2699512126354D-01
21  2.0000000000000D-01  2.7907925795996D-01  1.2722405034182D-01
22  2.1000000000000D-01  2.9501364064107D-01  1.2657391068108D-01
23  2.2000000000000D-01  3.1119781917801D-01  1.2502799908864D-01
24  2.3000000000000D-01  3.2763455746897D-01  1.2257318236598D-01
25  2.4000000000000D-01  3.4432547194988D-01  1.1919997200631D-01
26  2.5000000000000D-01  3.6127100719214D-01  1.1490258657277D-01
27  2.6000000000000D-01  3.7847041446415D-01  1.0967900289957D-01
28  2.7000000000000D-01  3.9592173418576D-01  1.0353099348069D-01
29  2.8000000000000D-01  4.1362178150417D-01  9.6464152227445D-02
30  2.9000000000000D-01  4.3156613548323D-01  8.8487907202325D-02
31  3.0000000000000D-01  4.4974913186107D-01  7.9615520485463D-02
32  3.1000000000000D-01  4.6816385940204D-01  6.9864075129798D-02
33  3.2000000000000D-01  4.8680215988131D-01  5.9254449144456D-02
34  3.3000000000000D-01  5.0565463177926D-01  4.7811276545315D-02
35  3.4000000000000D-01  5.2471063735807D-01  3.5562895792899D-02
36  3.5000000000000D-01  5.4395831375290D-01  2.2541285110637D-02
37  3.6000000000000D-01  5.6338458739536D-01  8.7819851521697D-03
38  3.7000000000000D-01  5.8297519216805D-01 -5.6759897138424D-03
39  3.8000000000000D-01  6.0271469118778D-01 -2.0790254855759D-02
40  3.9000000000000D-01  6.2258650200883D-01 -3.6515167978701D-02
41  4.0000000000000D-01  6.4257292533968D-01 -5.2801954920141D-02
42  4.1000000000000D-01  6.6265517720172D-01 -6.9598846588750D-02
43  4.2000000000000D-01  6.8281342444069D-01 -8.6851226876139D-02
44  4.3000000000000D-01  7.0302682350804D-01 -1.0450179113671D-01
45  4.4000000000000D-01  7.2327356242687D-01 -1.2249071481464D-01
46  4.5000000000000D-01  7.4353090585358D-01 -1.4075583177400D-01
47  4.6000000000000D-01  7.6377524313438D-01 -1.5923282183734D-01
48  4.7000000000000D-01  7.8398213923267D-01 -1.7785540694332D-01
49  4.8000000000000D-01  8.0412638836234D-01 -1.9655555517811D-01
50  4.9000000000000D-01  8.2418206895518D-01 -2.1526368712453D-01
51  5.0000000000000D-01  8.4412260440181D-01 -2.3390890251649D-01
52  5.1000000000000D-01  8.6392082471509D-01 -2.5241920674591D-01
53  5.2000000000000D-01  8.8354902524854D-01 -2.7072172303853D-01
54  5.3000000000000D-01  9.0297903566986D-01 -2.8874294212347D-01
55  5.4000000000000D-01  9.2218229025751D-01 -3.0640897263058D-01
56  5.5000000000000D-01  9.4112988213087D-01 -3.2364572811912D-01
57  5.6000000000000D-01  9.5979265904846D-01 -3.4037926776339D-01
58  5.7000000000000D-01  9.7814126179908D-01 -3.5653591833342D-01
59  5.8000000000000D-01  9.9614623442473D-01 -3.7204266037804D-01
60  5.9000000000000D-01  1.0137780554328D+00 -3.8682721990319D-01
61  6.0000000000000D-01  1.0310072578752D+00 -4.0081848091932D-01
62  6.1000000000000D-01  1.0478044626447D+00 -4.1394658050090D-01
63  6.2000000000000D-01  1.0641404791276D+00 -4.2614324263418D-01
64  6.3000000000000D-01  1.0799863798080D+00 -4.3734201423410D-01
65  6.4000000000000D-01  1.0953135497100D+00 -4.4747841142327D-01
66  6.5000000000000D-01  1.1100937984268D+00 -4.5649027818577D-01
67  6.6000000000000D-01  1.1242994150325D+00 -4.6431794349318D-01
68  6.7000000000000D-01  1.1379032329735D+00 -4.7090441090893D-01
69  6.8000000000000D-01  1.1508787100534D+00 -4.7619559508650D-01
70  6.9000000000000D-01  1.1632000230596D+00 -4.8014059979731D-01
71  7.0000000000000D-01  1.1748421066383D+00 -4.8269180913398D-01
72  7.1000000000000D-01  1.1857807327986D+00 -4.8380510858151D-01
73  7.2000000000000D-01  1.1959925696975D+00 -4.8344003503498D-01
74  7.3000000000000D-01  1.2054552693075D+00 -4.8156001177848D-01
75  7.4000000000000D-01  1.2141475208026D+00 -4.7813247032784D-01
76  7.5000000000000D-01  1.2220491024768D+00 -4.7312896498765D-01
77  7.6000000000000D-01  1.2291409460269D+00 -4.6652532045666D-01
78  7.7000000000000D-01  1.2354051926870D+00 -4.5830174920750D-01
79  7.8000000000000D-01  1.2408252465612D+00 -4.4844295534875D-01
80  7.9000000000000D-01  1.2453858250018D+00 -4.3693822455849D-01
81  8.0000000000000D-01  1.2490730058928D+00 -4.2378149972751D-01
82  8.1000000000000D-01  1.2518742717051D+00 -4.0897144199794D-01
83  8.2000000000000D-01  1.2537785492672D+00 -3.9251147459966D-01
84  8.3000000000000D-01  1.2547762483401D+00 -3.7440981751175D-01
85  8.4000000000000D-01  1.2548592985891D+00 -3.5467951085784D-01
86  8.5000000000000D-01  1.2540211728282D+00 -3.3333839851120D-01
87  8.6000000000000D-01  1.2522569161830D+00 -3.1040912051739D-01
88  8.7000000000000D-01  1.2495631639277D+00 -2.8591907324308D-01
89  8.8000000000000D-01  1.2459381723115D+00 -2.5990038952633D-01
90  8.9000000000000D-01  1.2413818225131D+00 -2.3238985371819D-01
91  9.0000000000000D-01  1.2358956340290D+00 -2.0342883109784D-01
92  9.1000000000000D-01  1.2294827710565D+00 -1.7306317548165D-01
93  9.2000000000000D-01  1.2221480447517D+00 -1.4134312176467D-01
94  9.3000000000000D-01  1.2138979113371D+00 -1.0832316366773D-01
95  9.4000000000000D-01  1.2047404660489D+00 -7.4061917042245D-02
96  9.5000000000000D-01  1.1946854329316D+00 -3.8621969173455D-02
97  9.6000000000000D-01  1.1837441505124D+00 -2.0697146252797D-03
98  9.7000000000000D-01  1.1719295534096D+00  3.5524821716466D-02
99  9.8000000000000D-01  1.1592561435242D+00  7.4088168613769D-02
100  9.9000000000000D-01  1.1457399741065D+00  1.1354359851068D-01
101  1.0000000000000D+00  1.1313986343292D+00  1.5381137703516D-01
102  1.0100000000000D+00  1.1162511842107D+00  1.9480896727505D-01
103  1.0200000000000D+00  1.1003181290371D+00  2.3645126498173D-01
104  1.0300000000000D+00  1.0836213779995D+00  2.7865083924402D-01
105  1.0400000000000D+00  1.0661841973048D+00  3.2131813647618D-01
106  1.0500000000000D+00  1.0480311732625D+00  3.6436175792115D-01
107  1.0600000000000D+00  1.0291881564195D+00  4.0768889351272D-01
108  1.0700000000000D+00  1.0096821936270D+00  4.5120539682964D-01
109  1.0800000000000D+00  9.8954147853017D-01  4.9481611300502D-01
110  1.0900000000000D+00  9.6879530625081D-01  5.3842498380607D-01
111  1.1000000000000D+00  9.4747399478385D-01  5.8193566927445D-01
112  1.1100000000000D+00  9.2560880135127D-01  6.2525182518764D-01
113  1.1200000000000D+00  9.0323187849152D-01  6.6827712711642D-01
114  1.1300000000000D+00  8.8037623026894D-01  7.1091543271768D-01
115  1.1400000000000D+00  8.5707561035212D-01  7.5307138479177D-01
116  1.1500000000000D+00  8.3336438240115D-01  7.9465105404801D-01
117  1.1600000000000D+00  8.0927753957139D-01  8.3556151613530D-01
118  1.1700000000000D+00  7.8485069268288D-01  8.7571084683549D-01
119  1.1800000000000D+00  7.6011978744458D-01  9.1500967322198D-01
120  1.1900000000000D+00  7.3512110896693D-01  9.5337079779312D-01
121  1.2000000000000D+00  7.0989131979738D-01  9.9070886502864D-01
122  1.2100000000000D+00  6.8446737294323D-01  1.0269407766986D+00
123  1.2200000000000D+00  6.5888607915840D-01  1.0619876343411D+00
124  1.2300000000000D+00  6.3318443165071D-01  1.0957728895785D+00
125  1.2400000000000D+00  6.0739967938748D-01  1.1282220505441D+00
126  1.2500000000000D+00  5.8156842946954D-01  1.1592665845631D+00
127  1.2600000000000D+00  5.5572732557340D-01  1.1888405778064D+00
128  1.2700000000000D+00  5.2991311335136D-01  1.2168805619612D+00
129  1.2800000000000D+00  5.0416154124641D-01  1.2433298916570D+00
130  1.2900000000000D+00  4.7850820217439D-01  1.2681350004405D+00
131  1.3000000000000D+00  4.5298866354307D-01  1.2912450331777D+00
132  1.3100000000000D+00  4.2763705377992D-01  1.3126169800694D+00
133  1.3200000000000D+00  4.0248738401466D-01  1.3322104808657D+00
134  1.3300000000000D+00  3.7757318780170D-01  1.3499892789318D+00
135  1.3400000000000D+00  3.5292644314432D-01  1.3659246220995D+00
136  1.3500000000000D+00  3.2857906070380D-01  1.3799900831289D+00
137  1.3600000000000D+00  3.0456171138202D-01  1.3921654566120D+00
138  1.3700000000000D+00  2.8090375904222D-01  1.4024365215368D+00
139  1.3800000000000D+00  2.5763456990670D-01  1.4107911549697D+00
140  1.3900000000000D+00  2.3478114951915D-01  1.4172260922588D+00
141  1.4000000000000D+00  2.1237019550979D-01  1.4217407099865D+00
142  1.4100000000000D+00  1.9042724812421D-01  1.4243395838300D+00
143  1.4200000000000D+00  1.6897583100459D-01  1.4250342072928D+00
144  1.4300000000000D+00  1.4803959494600D-01  1.4238377070976D+00
145  1.4400000000000D+00  1.2763931723427D-01  1.4207718416046D+00
146  1.4500000000000D+00  1.0779556762674D-01  1.4158604837385D+00
147  1.4600000000000D+00  8.8527186577602D-02  1.4091331896924D+00
148  1.4700000000000D+00  6.9851211974609D-02  1.4006246772186D+00
149  1.4800000000000D+00  5.1784423996289D-02  1.3903721654122D+00
150  1.4900000000000D+00  3.4340463543472D-02  1.3784199901263D+00
151  1.5000000000000D+00  1.7533371687605D-02  1.3648136757349D+00
152  1.5100000000000D+00  1.3740486900875D-03  1.3496052430653D+00
153  1.5200000000000D+00 -1.4126855994983D-02  1.3328486767056D+00
154  1.5300000000000D+00 -2.8960822992017D-02  1.3146025510939D+00
155  1.5400000000000D+00 -4.3120717198516D-02  1.2949283993726D+00
156  1.5500000000000D+00 -5.6600461419877D-02  1.2738908916198D+00
157  1.5600000000000D+00 -6.9396347040256D-02  1.2515578341867D+00
158  1.5700000000000D+00 -8.1504810640220D-02  1.2279994803970D+00
159  1.5800000000000D+00 -9.2925424872078D-02  1.2032885726720D+00
160  1.5900000000000D+00 -1.0365720097948D-01  1.1775003383797D+00
161  1.6000000000000D+00 -1.1370272085338D-01  1.1507111918422D+00
162  1.6100000000000D+00 -1.2306387320499D-01  1.1230003775193D+00
163  1.6200000000000D+00 -1.3174579380241D-01  1.0944469968179D+00
164  1.6300000000000D+00 -1.3975328357258D-01  1.0651331210372D+00
165  1.6400000000000D+00 -1.4709390356239D-01  1.0351396064127D+00
166  1.6500000000000D+00 -1.5377520068974D-01  1.0045501771698D+00
167  1.6600000000000D+00 -1.5980707340597D-01  9.7344640801084D-01
168  1.6700000000000D+00 -1.6519960693670D-01  9.4191258681640D-01
169  1.6800000000000D+00 -1.6996492008091D-01  9.1002988270589D-01
170  1.6900000000000D+00 -1.7411541875180D-01  8.7788216497635D-01
171  1.7000000000000D+00 -1.7766528962670D-01  8.4554898983822D-01
172  1.7100000000000D+00 -1.8062904140408D-01  8.1311295341457D-01
173  1.7200000000000D+00 -1.8302273583092D-01  7.8065072031943D-01
174  1.7300000000000D+00 -1.8486277495015D-01  7.4824289775271D-01
175  1.7400000000000D+00 -1.8616685861251D-01  7.1596192968949D-01
176  1.7500000000000D+00 -1.8695308891504D-01  6.8388585624518D-01
177  1.7600000000000D+00 -1.8724052039731D-01  6.5208155498665D-01
178  1.7700000000000D+00 -1.8704878385987D-01  6.2062403997354D-01
179  1.7800000000000D+00 -1.8639796952834D-01  5.8957355970028D-01
180  1.7900000000000D+00 -1.8530905841527D-01  5.5900097517293D-01
181  1.8000000000000D+00 -1.8380290245593D-01  5.2896016706981D-01
182  1.8100000000000D+00 -1.8190150057899D-01  4.9951506797752D-01
183  1.8200000000000D+00 -1.7962634105646D-01  4.7071460869923D-01
184  1.8300000000000D+00 -1.7700002210627D-01  4.4261384012165D-01
185  1.8400000000000D+00 -1.7404458785350D-01  4.1525703170377D-01
186  1.8500000000000D+00 -1.7078275466480D-01  3.8868889115362D-01
187  1.8600000000000D+00 -1.6723710199761D-01  3.6294939397456D-01
188  1.8700000000000D+00 -1.6342992608126D-01  3.3807162863443D-01
189  1.8800000000000D+00 -1.5938436743770D-01  3.1409157882390D-01
190  1.8900000000000D+00 -1.5512173446809D-01  2.9102979278641D-01
191  1.9000000000000D+00 -1.5066576596760D-01  2.6891831534599D-01
192  1.9100000000000D+00 -1.4603666387784D-01  2.4776680512828D-01
193  1.9200000000000D+00 -1.4125747183523D-01  2.2759691024423D-01
194  1.9300000000000D+00 -1.3634829687665D-01  2.0841398389179D-01
195  1.9400000000000D+00 -1.3133038371186D-01  1.9022578089235D-01
196  1.9500000000000D+00 -1.2622410160667D-01  1.7303466707444D-01
197  1.9600000000000D+00 -1.2104810872551D-01  1.5683376344827D-01
198  1.9700000000000D+00 -1.1582326841452D-01  1.4162264553394D-01
199  1.9800000000000D+00 -1.1056555269966D-01  1.2738179651681D-01
200  1.9900000000000D+00 -1.0529472738152D-01  1.1410227538367D-01
201  2.0000000000000D+00 -1.0002585773599D-01  1.0175930959802D-01
202  2.0100000000000D+00 -9.4775283256382D-02  9.0329475303331D-02
203  2.0200000000000D+00 -8.9558699804862D-02  7.9787004361678D-02
204  2.0300000000000D+00 -8.4388973576179D-02  7.0098651689123D-02
205  2.0400000000000D+00 -7.9282093839670D-02  6.1234470477783D-02
206  2.0500000000000D+00 -7.4249150776163D-02  5.3158833688802D-02
207  2.0600000000000D+00 -6.9304007400964D-02  4.5836834987236D-02
208  2.0700000000000D+00 -6.4458517482638D-02  3.9232192695051D-02
209  2.0800000000000D+00 -5.9723478207614D-02  3.3307315184158D-02
210  2.0900000000000D+00 -5.5111564185052D-02  2.8023372928152D-02
211  2.1000000000000D+00 -5.0631322412716D-02  2.3342739959492D-02
212  2.1100000000000D+00 -4.6293870019809D-02  1.9224900804765D-02
213  2.1200000000000D+00 -4.2108131120551D-02  1.5631332770109D-02
214  2.1300000000000D+00 -3.8082218512366D-02  1.2523675723809D-02
215  2.1400000000000D+00 -3.4226042109762D-02  9.8597876145818D-03
216  2.1500000000000D+00 -3.0545507903428D-02  7.6050543557271D-03
217  2.1600000000000D+00 -2.7048801839460D-02  5.7188550841236D-03
218  2.1700000000000D+00 -2.3742518283764D-02  4.1645542395232D-03
219  2.1800000000000D+00 -2.0631874669317D-02  2.9088848707101D-03
220  2.1900000000000D+00 -1.7724215227174D-02  1.9107800521804D-03
221  2.2000000000000D+00 -1.5023101466217D-02  1.1426730649288D-03
222  2.2100000000000D+00 -1.2533603949547D-02  5.7045742672818D-04
223  2.2200000000000D+00 -1.0260515665072D-02  1.6084338809924D-04
224  2.2300000000000D+00 -8.2062614939648D-03 -1.0926339341407D-04
225  2.2400000000000D+00 -6.3751719122386D-03 -2.7278915731972D-04
226  2.2500000000000D+00 -4.7693646678084D-03 -3.5153930947560D-04
227  2.2600000000000D+00 -3.3904897331840D-03 -3.6537730071087D-04
228  2.2700000000000D+00 -2.2418913183487D-03 -3.4433064904187D-04
229  2.2800000000000D+00 -1.3232719071026D-03 -2.9764347732961D-04
230  2.2900000000000D+00 -6.4886080584263D-04 -2.4938173984070D-04
231  2.3000000000000D+00 -2.2802372258098D-04 -2.2122448915427D-04
232  2.3100000000000D+00  9.8617232206777D-06 -1.8972714525160D-04
233  2.3200000000000D+00  9.9612640510080D-05 -1.3825017777742D-04
234  2.3300000000000D+00  8.5350195032256D-05 -7.1760385115920D-05
235  2.3400000000000D+00  1.8613566844659D-05 -1.2064054094405D-05
236  2.3500000000000D+00 -4.0832935860928D-06  1.0194328988627D-05
237  2.3600000000000D+00 -3.8821978065825D-06  9.6922743380544D-06
238  2.3700000000000D+00 -2.2877892290602D-07  5.7116823872549D-07
239  2.3800000000000D+00  0.0000000000000D+00  0.0000000000000D+00
240  2.3900000000000D+00  0.0000000000000D+00  0.0000000000000D+00
241  2.4000000000000D+00  0.0000000000000D+00  0.0000000000000D+00
242  2.4100000000000D+00  0.0000000000000D+00  0.0000000000000D+00
243  2.4200000000000D+00  0.0000000000000D+00  0.0000000000000D+00
244  2.4300000000000D+00  0.0000000000000D+00  0.0000000000000D+00
245  2.4400000000000D+00  0.0000000000000D+00  0.0000000000000D+00
246  2.4500000000000D+00  0.0000000000000D+00  0.0000000000000D+00
247  2.4600000000000D+00  0.0000000000000D+00  0.0000000000000D+00
248  2.4700000000000D+00  0.0000000000000D+00  0.0000000000000D+00
249  2.4800000000000D+00  0.0000000000000D+00  0.0000000000000D+00
250  2.4900000000000D+00  0.0000000000000D+00  0.0000000000000D+00
251  2.5000000000000D+00  0.0000000000000D+00  0.0000000000000D+00
252  2.5100000000000D+00  0.0000000000000D+00  0.0000000000000D+00
253  2.5200000000000D+00  0.0000000000000D+00  0.0000000000000D+00
254  2.5300000000000D+00  0.0000000000000D+00  0.0000000000000D+00
255  2.5400000000000D+00  0.0000000000000D+00  0.0000000000000D+00
256  2.5500000000000D+00  0.0000000000000D+00  0.0000000000000D+00
257  2.5600000000000D+00  0.0000000000000D+00  0.0000000000000D+00
258  2.5700000000000D+00  0.0000000000000D+00  0.0000000000000D+00
259  2.5800000000000D+00  0.0000000000000D+00  0.0000000000000D+00
260  2.5900000000000D+00  0.0000000000000D+00  0.0000000000000D+00
261  2.6000000000000D+00  0.0000000000000D+00  0.0000000000000D+00
262  2.6100000000000D+00  0.0000000000000D+00  0.0000000000000D+00
263  2.6200000000000D+00  0.0000000000000D+00  0.0000000000000D+00
264  2.6300000000000D+00  0.0000000000000D+00  0.0000000000000D+00
265  2.6400000000000D+00  0.0000000000000D+00  0.0000000000000D+00
266  2.6500000000000D+00  0.0000000000000D+00  0.0000000000000D+00
267  2.6600000000000D+00  0.0000000000000D+00  0.0000000000000D+00
268  2.6700000000000D+00  0.0000000000000D+00  0.0000000000000D+00
269  2.6800000000000D+00  0.0000000000000D+00  0.0000000000000D+00
270  2.6900000000000D+00  0.0000000000000D+00  0.0000000000000D+00
271  2.7000000000000D+00  0.0000000000000D+00  0.0000000000000D+00
272  2.7100000000000D+00  0.0000000000000D+00  0.0000000000000D+00
273  2.7200000000000D+00  0.0000000000000D+00  0.0000000000000D+00
274  2.7300000000000D+00  0.0000000000000D+00  0.0000000000000D+00
275  2.7400000000000D+00  0.0000000000000D+00  0.0000000000000D+00
276  2.7500000000000D+00  0.0000000000000D+00  0.0000000000000D+00
277  2.7600000000000D+00  0.0000000000000D+00  0.0000000000000D+00
278  2.7700000000000D+00  0.0000000000000D+00  0.0000000000000D+00
279  2.7800000000000D+00  0.0000000000000D+00  0.0000000000000D+00
280  2.7900000000000D+00  0.0000000000000D+00  0.0000000000000D+00
281  2.8000000000000D+00  0.0000000000000D+00  0.0000000000000D+00
282  2.8100000000000D+00  0.0000000000000D+00  0.0000000000000D+00
283  2.8200000000000D+00  0.0000000000000D+00  0.0000000000000D+00
284  2.8300000000000D+00  0.0000000000000D+00  0.0000000000000D+00
285  2.8400000000000D+00  0.0000000000000D+00  0.0000000000000D+00
286  2.8500000000000D+00  0.0000000000000D+00  0.0000000000000D+00
287  2.8600000000000D+00  0.0000000000000D+00  0.0000000000000D+00
288  2.8700000000000D+00  0.0000000000000D+00  0.0000000000000D+00
289  2.8800000000000D+00  0.0000000000000D+00  0.0000000000000D+00
290  2.8900000000000D+00  0.0000000000000D+00  0.0000000000000D+00
291  2.9000000000000D+00  0.0000000000000D+00  0.0000000000000D+00
292  2.9100000000000D+00  0.0000000000000D+00  0.0000000000000D+00
293  2.9200000000000D+00  0.0000000000000D+00  0.0000000000000D+00
294  2.9300000000000D+00  0.0000000000000D+00  0.0000000000000D+00
295  2.9400000000000D+00  0.0000000000000D+00  0.0000000000000D+00
296  2.9500000000000D+00  0.0000000000000D+00  0.0000000000000D+00
297  2.9600000000000D+00  0.0000000000000D+00  0.0000000000000D+00
298  2.9700000000000D+00  0.0000000000000D+00  0.0000000000000D+00
299  2.9800000000000D+00  0.0000000000000D+00  0.0000000000000D+00
300  2.9900000000000D+00  0.0000000000000D+00  0.0000000000000D+00
301  3.0000000000000D+00  0.0000000000000D+00  0.0000000000000D+00
302  3.0100000000000D+00  0.0000000000000D+00  0.0000000000000D+00
303  3.0200000000000D+00  0.0000000000000D+00  0.0000000000000D+00
304  3.0300000000000D+00  0.0000000000000D+00  0.0000000000000D+00
305  3.0400000000000D+00  0.0000000000000D+00  0.0000000000000D+00
306  3.0500000000000D+00  0.0000000000000D+00  0.0000000000000D+00
307  3.0600000000000D+00  0.0000000000000D+00  0.0000000000000D+00
308  3.0700000000000D+00  0.0000000000000D+00  0.0000000000000D+00
309  3.0800000000000D+00  0.0000000000000D+00  0.0000000000000D+00
310  3.0900000000000D+00  0.0000000000000D+00  0.0000000000000D+00
311  3.1000000000000D+00  0.0000000000000D+00  0.0000000000000D+00
312  3.1100000000000D+00  0.0000000000000D+00  0.0000000000000D+00
313  3.1200000000000D+00  0.0000000000000D+00  0.0000000000000D+00
314  3.1300000000000D+00  0.0000000000000D+00  0.0000000000000D+00
315  3.1400000000000D+00  0.0000000000000D+00  0.0000000000000D+00
316  3.1500000000000D+00  0.0000000000000D+00  0.0000000000000D+00
317  3.1600000000000D+00  0.0000000000000D+00  0.0000000000000D+00
318  3.1700000000000D+00  0.0000000000000D+00  0.0000000000000D+00
319  3.1800000000000D+00  0.0000000000000D+00  0.0000000000000D+00
320  3.1900000000000D+00  0.0000000000000D+00  0.0000000000000D+00
321  3.2000000000000D+00  0.0000000000000D+00  0.0000000000000D+00
322  3.2100000000000D+00  0.0000000000000D+00  0.0000000000000D+00
323  3.2200000000000D+00  0.0000000000000D+00  0.0000000000000D+00
324  3.2300000000000D+00  0.0000000000000D+00  0.0000000000000D+00
325  3.2400000000000D+00  0.0000000000000D+00  0.0000000000000D+00
326  3.2500000000000D+00  0.0000000000000D+00  0.0000000000000D+00
327  3.2600000000000D+00  0.0000000000000D+00  0.0000000000000D+00
328  3.2700000000000D+00  0.0000000000000D+00  0.0000000000000D+00
329  3.2800000000000D+00  0.0000000000000D+00  0.0000000000000D+00
330  3.2900000000000D+00  0.0000000000000D+00  0.0000000000000D+00
331  3.3000000000000D+00  0.0000000000000D+00  0.0000000000000D+00
332  3.3100000000000D+00  0.0000000000000D+00  0.0000000000000D+00
333  3.3200000000000D+00  0.0000000000000D+00  0.0000000000000D+00
334  3.3300000000000D+00  0.0000000000000D+00  0.0000000000000D+00
335  3.3400000000000D+00  0.0000000000000D+00  0.0000000000000D+00
336  3.3500000000000D+00  0.0000000000000D+00  0.0000000000000D+00
337  3.3600000000000D+00  0.0000000000000D+00  0.0000000000000D+00
338  3.3700000000000D+00  0.0000000000000D+00  0.0000000000000D+00
339  3.3800000000000D+00  0.0000000000000D+00  0.0000000000000D+00
340  3.3900000000000D+00  0.0000000000000D+00  0.0000000000000D+00
341  3.4000000000000D+00  0.0000000000000D+00  0.0000000000000D+00
342  3.4100000000000D+00  0.0000000000000D+00  0.0000000000000D+00
343  3.4200000000000D+00  0.0000000000000D+00  0.0000000000000D+00
344  3.4300000000000D+00  0.0000000000000D+00  0.0000000000000D+00
345  3.4400000000000D+00  0.0000000000000D+00  0.0000000000000D+00
346  3.4500000000000D+00  0.0000000000000D+00  0.0000000000000D+00
347  3.4600000000000D+00  0.0000000000000D+00  0.0000000000000D+00
348  3.4700000000000D+00  0.0000000000000D+00  0.0000000000000D+00
349  3.4800000000000D+00  0.0000000000000D+00  0.0000000000000D+00
350  3.4900000000000D+00  0.0000000000000D+00  0.0000000000000D+00
351  3.5000000000000D+00  0.0000000000000D+00  0.0000000000000D+00
352  3.5100000000000D+00  0.0000000000000D+00  0.0000000000000D+00
353  3.5200000000000D+00  0.0000000000000D+00  0.0000000000000D+00
354  3.5300000000000D+00  0.0000000000000D+00  0.0000000000000D+00
355  3.5400000000000D+00  0.0000000000000D+00  0.0000000000000D+00
356  3.5500000000000D+00  0.0000000000000D+00  0.0000000000000D+00
357  3.5600000000000D+00  0.0000000000000D+00  0.0000000000000D+00
358  3.5700000000000D+00  0.0000000000000D+00  0.0000000000000D+00
359  3.5800000000000D+00  0.0000000000000D+00  0.0000000000000D+00
360  3.5900000000000D+00  0.0000000000000D+00  0.0000000000000D+00
361  3.6000000000000D+00  0.0000000000000D+00  0.0000000000000D+00
362  3.6100000000000D+00  0.0000000000000D+00  0.0000000000000D+00
363  3.6200000000000D+00  0.0000000000000D+00  0.0000000000000D+00
364  3.6300000000000D+00  0.0000000000000D+00  0.0000000000000D+00
365  3.6400000000000D+00  0.0000000000000D+00  0.0000000000000D+00
366  3.6500000000000D+00  0.0000000000000D+00  0.0000000000000D+00
367  3.6600000000000D+00  0.0000000000000D+00  0.0000000000000D+00
368  3.6700000000000D+00  0.0000000000000D+00  0.0000000000000D+00
369  3.6800000000000D+00  0.0000000000000D+00  0.0000000000000D+00
370  3.6900000000000D+00  0.0000000000000D+00  0.0000000000000D+00
371  3.7000000000000D+00  0.0000000000000D+00  0.0000000000000D+00
372  3.7100000000000D+00  0.0000000000000D+00  0.0000000000000D+00
373  3.7200000000000D+00  0.0000000000000D+00  0.0000000000000D+00
374  3.7300000000000D+00  0.0000000000000D+00  0.0000000000000D+00
375  3.7400000000000D+00  0.0000000000000D+00  0.0000000000000D+00
376  3.7500000000000D+00  0.0000000000000D+00  0.0000000000000D+00
377  3.7600000000000D+00  0.0000000000000D+00  0.0000000000000D+00
378  3.7700000000000D+00  0.0000000000000D+00  0.0000000000000D+00
379  3.7800000000000D+00  0.0000000000000D+00  0.0000000000000D+00
380  3.7900000000000D+00  0.0000000000000D+00  0.0000000000000D+00
381  3.8000000000000D+00  0.0000000000000D+00  0.0000000000000D+00
382  3.8100000000000D+00  0.0000000000000D+00  0.0000000000000D+00
383  3.8200000000000D+00  0.0000000000000D+00  0.0000000000000D+00
384  3.8300000000000D+00  0.0000000000000D+00  0.0000000000000D+00
385  3.8400000000000D+00  0.0000000000000D+00  0.0000000000000D+00
386  3.8500000000000D+00  0.0000000000000D+00  0.0000000000000D+00
387  3.8600000000000D+00  0.0000000000000D+00  0.0000000000000D+00
388  3.8700000000000D+00  0.0000000000000D+00  0.0000000000000D+00
389  3.8800000000000D+00  0.0000000000000D+00  0.0000000000000D+00
390  3.8900000000000D+00  0.0000000000000D+00  0.0000000000000D+00
391  3.9000000000000D+00  0.0000000000000D+00  0.0000000000000D+00
392  3.9100000000000D+00  0.0000000000000D+00  0.0000000000000D+00
393  3.9200000000000D+00  0.0000000000000D+00  0.0000000000000D+00
394  3.9300000000000D+00  0.0000000000000D+00  0.0000000000000D+00
395  3.9400000000000D+00  0.0000000000000D+00  0.0000000000000D+00
396  3.9500000000000D+00  0.0000000000000D+00  0.0000000000000D+00
397  3.9600000000000D+00  0.0000000000000D+00  0.0000000000000D+00
398  3.9700000000000D+00  0.0000000000000D+00  0.0000000000000D+00
399  3.9800000000000D+00  0.0000000000000D+00  0.0000000000000D+00
400  3.9900000000000D+00  0.0000000000000D+00  0.0000000000000D+00
401  4.0000000000000D+00  0.0000000000000D+00  0.0000000000000D+00
402  4.0100000000000D+00  0.0000000000000D+00  0.0000000000000D+00
403  4.0200000000000D+00  0.0000000000000D+00  0.0000000000000D+00
404  4.0300000000000D+00  0.0000000000000D+00  0.0000000000000D+00
405  4.0400000000000D+00  0.0000000000000D+00  0.0000000000000D+00
406  4.0500000000000D+00  0.0000000000000D+00  0.0000000000000D+00
407  4.0600000000000D+00  0.0000000000000D+00  0.0000000000000D+00
408  4.0700000000000D+00  0.0000000000000D+00  0.0000000000000D+00
409  4.0800000000000D+00  0.0000000000000D+00  0.0000000000000D+00
410  4.0900000000000D+00  0.0000000000000D+00  0.0000000000000D+00
411  4.1000000000000D+00  0.0000000000000D+00  0.0000000000000D+00
412  4.1100000000000D+00  0.0000000000000D+00  0.0000000000000D+00
413  4.1200000000000D+00  0.0000000000000D+00  0.0000000000000D+00
414  4.1300000000000D+00  0.0000000000000D+00  0.0000000000000D+00
415  4.1400000000000D+00  0.0000000000000D+00  0.0000000000000D+00
416  4.1500000000000D+00  0.0000000000000D+00  0.0000000000000D+00
417  4.1600000000000D+00  0.0000000000000D+00  0.0000000000000D+00
418  4.1700000000000D+00  0.0000000000000D+00  0.0000000000000D+00
419  4.1800000000000D+00  0.0000000000000D+00  0.0000000000000D+00
420  4.1900000000000D+00  0.0000000000000D+00  0.0000000000000D+00
421  4.2000000000000D+00  0.0000000000000D+00  0.0000000000000D+00
422  4.2100000000000D+00  0.0000000000000D+00  0.0000000000000D+00
423  4.2200000000000D+00  0.0000000000000D+00  0.0000000000000D+00
424  4.2300000000000D+00  0.0000000000000D+00  0.0000000000000D+00
425  4.2400000000000D+00  0.0000000000000D+00  0.0000000000000D+00
426  4.2500000000000D+00  0.0000000000000D+00  0.0000000000000D+00
427  4.2600000000000D+00  0.0000000000000D+00  0.0000000000000D+00
428  4.2700000000000D+00  0.0000000000000D+00  0.0000000000000D+00
429  4.2800000000000D+00  0.0000000000000D+00  0.0000000000000D+00
430  4.2900000000000D+00  0.0000000000000D+00  0.0000000000000D+00
431  4.3000000000000D+00  0.0000000000000D+00  0.0000000000000D+00
432  4.3100000000000D+00  0.0000000000000D+00  0.0000000000000D+00
433  4.3200000000000D+00  0.0000000000000D+00  0.0000000000000D+00
434  4.3300000000000D+00  0.0000000000000D+00  0.0000000000000D+00
435  4.3400000000000D+00  0.0000000000000D+00  0.0000000000000D+00
436  4.3500000000000D+00  0.0000000000000D+00  0.0000000000000D+00
437  4.3600000000000D+00  0.0000000000000D+00  0.0000000000000D+00
438  4.3700000000000D+00  0.0000000000000D+00  0.0000000000000D+00
439  4.3800000000000D+00  0.0000000000000D+00  0.0000000000000D+00
440  4.3900000000000D+00  0.0000000000000D+00  0.0000000000000D+00
441  4.4000000000000D+00  0.0000000000000D+00  0.0000000000000D+00
442  4.4100000000000D+00  0.0000000000000D+00  0.0000000000000D+00
443  4.4200000000000D+00  0.0000000000000D+00  0.0000000000000D+00
444  4.4300000000000D+00  0.0000000000000D+00  0.0000000000000D+00