Bi    ONCVPSP  r_core=  2.31  2.52  2.10
83.0000     15.0000      140908    zatom,zion,pspd
8    11     2     4   601     0    pspcod,pspxc,lmax,lloc,mmax,r2well
6.00000000  1.05000000  0.00000000    rchrg fchrg qchrg
2     2     2     0     0    nproj
0                 extension_switch
0                         5.8478700702595D+00  1.0203730450829D+00
1  0.0000000000000D+00 -0.0000000000000D+00  0.0000000000000D+00
2  1.0000000000000D-02 -1.6073019827233D-02  6.5069056019535D-03
3  2.0000000000000D-02 -3.2156460225375D-02  1.2962364831293D-02
4  3.0000000000000D-02 -4.8260688234022D-02  1.9315143371622D-02
5  4.0000000000000D-02 -6.4395963988671D-02  2.5514430307943D-02
6  5.0000000000000D-02 -8.0572387664588D-02  3.1510048051830D-02
7  6.0000000000000D-02 -9.6799846894512D-02  3.7252660142018D-02
8  7.0000000000000D-02 -1.1308796481629D-01  4.2693976221332D-02
9  8.0000000000000D-02 -1.2944604890430D-01  4.7786953501124D-02
10  9.0000000000000D-02 -1.4588304073763D-01  5.2485994030122D-02
11  1.0000000000000D-01 -1.6240746685296D-01  5.6747137106257D-02
12  1.1000000000000D-01 -1.7902739083034D-01  6.0528246171971D-02
13  1.2000000000000D-01 -1.9575036675395D-01  6.3789189561015D-02
14  1.3000000000000D-01 -2.1258339419102D-01  6.6492014463050D-02
15  1.4000000000000D-01 -2.2953287481070D-01  6.8601113560774D-02
16  1.5000000000000D-01 -2.4660457080193D-01  7.0083383653282D-02
17  1.6000000000000D-01 -2.6380356517215D-01  7.0908375882963D-02
18  1.7000000000000D-01 -2.8113422411274D-01  7.1048436789369D-02
19  1.8000000000000D-01 -2.9860016145575D-01  7.0478840034611D-02
20  1.9000000000000D-01 -3.1620420543384D-01  6.9177907939791D-02
21  2.0000000000000D-01 -3.3394836774599D-01  6.7127122769534D-02
22  2.1000000000000D-01 -3.5183381513177D-01  6.4311226959806D-02
23  2.2000000000000D-01 -3.6986084344259D-01  6.0718312290454D-02
24  2.3000000000000D-01 -3.8802885434020D-01  5.6339897480115D-02
25  2.4000000000000D-01 -4.0633633470229D-01  5.1170993881531D-02
26  2.5000000000000D-01 -4.2478083889317D-01  4.5210158716096D-02
27  2.6000000000000D-01 -4.4335897358577D-01  3.8459536870576D-02
28  2.7000000000000D-01 -4.6206638583726D-01  3.0924888875287D-02
29  2.8000000000000D-01 -4.8089775383185D-01  2.2615607043808D-02
30  2.9000000000000D-01 -4.9984678066117D-01  1.3544718521287D-02
31  3.0000000000000D-01 -5.1890619110290D-01  3.7288754040550D-03
32  3.1000000000000D-01 -5.3806773141183D-01 -6.8116680879027D-03
33  3.2000000000000D-01 -5.5732217214531D-01 -1.8053091409745D-02
34  3.3000000000000D-01 -5.7665931405176D-01 -2.9968056298771D-02
35  3.4000000000000D-01 -5.9606799683880D-01 -4.2525768177917D-02
36  3.5000000000000D-01 -6.1553611115886D-01 -5.5692050204678D-02
37  3.6000000000000D-01 -6.3505061345392D-01 -6.9429430221873D-02
38  3.7000000000000D-01 -6.5459754370108D-01 -8.3697238334471D-02
39  3.8000000000000D-01 -6.7416204637505D-01 -9.8451719844676D-02
40  3.9000000000000D-01 -6.9372839393040D-01 -1.1364615615037D-01
41  4.0000000000000D-01 -7.1328001328380D-01 -1.2923099903297D-01
42  4.1000000000000D-01 -7.3279951504357D-01 -1.4515401561041D-01
43  4.2000000000000D-01 -7.5226872543031D-01 -1.6136044383906D-01
44  4.3000000000000D-01 -7.7166872081012D-01 -1.7779315811875D-01
45  4.4000000000000D-01 -7.9097986476010D-01 -1.9439284453770D-01
46  4.5000000000000D-01 -8.1018184758220D-01 -2.1109818526894D-01
47  4.6000000000000D-01 -8.2925372817161D-01 -2.2784605157714D-01
48  4.7000000000000D-01 -8.4817397812584D-01 -2.4457170479798D-01
49  4.8000000000000D-01 -8.6692052794634D-01 -2.6120900449412D-01
50  4.9000000000000D-01 -8.8547081412167D-01 -2.7769061800755D-01
51  5.0000000000000D-01 -9.0380183104142D-01 -2.9394825015960D-01
52  5.1000000000000D-01 -9.2189018336082D-01 -3.0991287153576D-01
53  5.2000000000000D-01 -9.3971213554286D-01 -3.2551493108146D-01
54  5.3000000000000D-01 -9.5724367013865D-01 -3.4068460647223D-01
55  5.4000000000000D-01 -9.7446054683410D-01 -3.5535205378474D-01
56  5.5000000000000D-01 -9.9133834745587D-01 -3.6944759177520D-01
57  5.6000000000000D-01 -1.0078525565098D+00 -3.8290204153631D-01
58  5.7000000000000D-01 -1.0239785921735D+00 -3.9564684289966D-01
59  5.8000000000000D-01 -1.0396918985728D+00 -4.0761443755283D-01
60  5.9000000000000D-01 -1.0549679704406D+00 -4.1873835370758D-01
61  6.0000000000000D-01 -1.0697824530991D+00 -4.2895361267836D-01
62  6.1000000000000D-01 -1.0841111686904D+00 -4.3819681575719D-01
63  6.2000000000000D-01 -1.0979301991845D+00 -4.4640646922622D-01
64  6.3000000000000D-01 -1.1112159471350D+00 -4.5352321015662D-01
65  6.4000000000000D-01 -1.1239451752949D+00 -4.5948994272694D-01
66  6.5000000000000D-01 -1.1360950983524D+00 -4.6425218327627D-01
67  6.6000000000000D-01 -1.1476434267624D+00 -4.6775820500391D-01
68  6.7000000000000D-01 -1.1585684188833D+00 -4.6995921428793D-01
69  6.8000000000000D-01 -1.1688489454995D+00 -4.7080957183540D-01
70  6.9000000000000D-01 -1.1784645661599D+00 -4.7026705222747D-01
71  7.0000000000000D-01 -1.1873955594007D+00 -4.6829292092558D-01
72  7.1000000000000D-01 -1.1956229864245D+00 -4.6485213653532D-01
73  7.2000000000000D-01 -1.2031287376272D+00 -4.5991348328213D-01
74  7.3000000000000D-01 -1.2098956026102D+00 -4.5344978319870D-01
75  7.4000000000000D-01 -1.2159073120048D+00 -4.4543799848769D-01
76  7.5000000000000D-01 -1.2211485780928D+00 -4.3585932630351D-01
77  7.6000000000000D-01 -1.2256051454281D+00 -4.2469932362112D-01
78  7.7000000000000D-01 -1.2292638347279D+00 -4.1194800200130D-01
79  7.8000000000000D-01 -1.2321125844177D+00 -3.9759990825168D-01
80  7.9000000000000D-01 -1.2341404897170D+00 -3.8165419063699D-01
81  8.0000000000000D-01 -1.2353378391652D+00 -3.6411465034271D-01
82  8.1000000000000D-01 -1.2356961484892D+00 -3.4498977794663D-01
83  8.2000000000000D-01 -1.2352081909790D+00 -3.2429277264412D-01
84  8.3000000000000D-01 -1.2338680268548D+00 -3.0204155144834D-01
85  8.4000000000000D-01 -1.2316710312834D+00 -2.7825874617473D-01
86  8.5000000000000D-01 -1.2286139114021D+00 -2.5297166364237D-01
87  8.6000000000000D-01 -1.2246947280420D+00 -2.2621225188334D-01
88  8.7000000000000D-01 -1.2199129084115D+00 -1.9801703674530D-01
89  8.8000000000000D-01 -1.2142692690178D+00 -1.6842707224884D-01
90  8.9000000000000D-01 -1.2077660172507D+00 -1.3748783439458D-01
91  9.0000000000000D-01 -1.2004067604267D+00 -1.0524912487091D-01
92  9.1000000000000D-01 -1.1921965092533D+00 -7.1764954363348D-02
93  9.2000000000000D-01 -1.1831416780044D+00 -3.7093411273405D-02
94  9.3000000000000D-01 -1.1732500813922D+00 -1.2965162097396D-03
95  9.4000000000000D-01 -1.1625309281300D+00  3.5559937306598D-02
96  9.5000000000000D-01 -1.1509948111981D+00  7.3406555390406D-02
97  9.6000000000000D-01 -1.1386536948364D+00  1.1217052896026D-01
98  9.7000000000000D-01 -1.1255208983140D+00  1.5177583077959D-01
99  9.8000000000000D-01 -1.1116110716848D+00  1.9214341238724D-01
100  9.9000000000000D-01 -1.0969401813263D+00  2.3319141838629D-01
101  1.0000000000000D+00 -1.0815254951713D+00  2.7483547193473D-01
102  1.0100000000000D+00 -1.0653855305603D+00  3.1698886642978D-01
103  1.0200000000000D+00 -1.0485400318909D+00  3.5956282547609D-01
104  1.0300000000000D+00 -1.0310099361276D+00  4.0246675662591D-01
105  1.0400000000000D+00 -1.0128173345107D+00  4.4560845686495D-01
106  1.0500000000000D+00 -9.9398544098006D-01  4.8889441359992D-01
107  1.0600000000000D+00 -9.7453854414183D-01  5.3223027654688D-01
108  1.0700000000000D+00 -9.5450195429689D-01  5.7552089228070D-01
109  1.0800000000000D+00 -9.3390196140995D-01  6.1867065486395D-01
110  1.0900000000000D+00 -9.1276579900033D-01  6.6158359443352D-01
111  1.1000000000000D+00 -8.9112157603293D-01  7.0416405414947D-01
112  1.1100000000000D+00 -8.6899820892136D-01  7.4631695309251D-01
113  1.1200000000000D+00 -8.4642538712233D-01  7.8794777945733D-01
114  1.1300000000000D+00 -8.2343353714465D-01  8.2896274851550D-01
115  1.1400000000000D+00 -8.0005373614919D-01  8.6926943863654D-01
116  1.1500000000000D+00 -7.7631759526926D-01  9.0877744438239D-01
117  1.1600000000000D+00 -7.5225727917353D-01  9.4739788873625D-01
118  1.1700000000000D+00 -7.2790549669731D-01  9.8504340793972D-01
119  1.1800000000000D+00 -7.0329526103429D-01  1.0216297716142D+00
120  1.1900000000000D+00 -6.7845989613113D-01  1.0570754396673D+00
121  1.2000000000000D+00 -6.5343306962481D-01  1.0913011962772D+00
122  1.2100000000000D+00 -6.2824871942089D-01  1.1242305748546D+00
123  1.2200000000000D+00 -6.0294068781398D-01  1.1557918266660D+00
124  1.2300000000000D+00 -5.7754299706998D-01  1.1859159794390D+00
125  1.2400000000000D+00 -5.5208991160030D-01  1.2145365455839D+00
126  1.2500000000000D+00 -5.2661517715026D-01  1.2415934580703D+00
127  1.2600000000000D+00 -5.0115259503506D-01  1.2670296351846D+00
128  1.2700000000000D+00 -4.7573607808359D-01  1.2907908242790D+00
129  1.2800000000000D+00 -4.5039871615625D-01  1.3128299504831D+00
130  1.2900000000000D+00 -4.2517348886317D-01  1.3331033271463D+00
131  1.3000000000000D+00 -4.0009337763515D-01  1.3515703169070D+00
132  1.3100000000000D+00 -3.7519015800986D-01  1.3681983467855D+00
133  1.3200000000000D+00 -3.5049552403362D-01  1.3829577583242D+00
134  1.3300000000000D+00 -3.2604078248740D-01  1.3958232549764D+00
135  1.3400000000000D+00 -3.0185592302342D-01  1.4067771308748D+00
136  1.3500000000000D+00 -2.7797089370826D-01  1.4158042521481D+00
137  1.3600000000000D+00 -2.5441459274444D-01  1.4228957984913D+00
138  1.3700000000000D+00 -2.3121480061789D-01  1.4280489474331D+00
139  1.3800000000000D+00 -2.0839931644430D-01  1.4312632313066D+00
140  1.3900000000000D+00 -1.8599390092599D-01  1.4325468217199D+00
141  1.4000000000000D+00 -1.6402405450152D-01  1.4319106763945D+00
142  1.4100000000000D+00 -1.4251428133557D-01  1.4293709438939D+00
143  1.4200000000000D+00 -1.2148732051376D-01  1.4249504073195D+00
144  1.4300000000000D+00 -1.0096603618121D-01  1.4186737482586D+00
145  1.4400000000000D+00 -8.0970759707677D-02  1.4105737244025D+00
146  1.4500000000000D+00 -6.1521641669251D-02  1.4006853426684D+00
147  1.4600000000000D+00 -4.2637304645375D-02  1.3890490138855D+00
148  1.4700000000000D+00 -2.4334755260203D-02  1.3757099240773D+00
149  1.4800000000000D+00 -6.6307839109525D-03  1.3607159152384D+00
150  1.4900000000000D+00  1.0460658345011D-02  1.3441210503126D+00
151  1.5000000000000D+00  2.6925246694124D-02  1.3259809434594D+00
152  1.5100000000000D+00  4.2751519194184D-02  1.3063567353720D+00
153  1.5200000000000D+00  5.7928242500400D-02  1.2853116254715D+00
154  1.5300000000000D+00  7.2446136425363D-02  1.2629127681876D+00
155  1.5400000000000D+00  8.6297211258253D-02  1.2392298662629D+00
156  1.5500000000000D+00  9.9474444865354D-02  1.2143355455732D+00
157  1.5600000000000D+00  1.1197305316020D-01  1.1883046449145D+00
158  1.5700000000000D+00  1.2378836051247D-01  1.1612146548596D+00
159  1.5800000000000D+00  1.3491869737583D-01  1.1331441500945D+00
160  1.5900000000000D+00  1.4536181635779D-01  1.1041747793585D+00
161  1.6000000000000D+00  1.5511894560824D-01  1.0743876061724D+00
162  1.6100000000000D+00  1.6419059500148D-01  1.0438672190280D+00
163  1.6200000000000D+00  1.7258048507231D-01  1.0126963334818D+00
164  1.6300000000000D+00  1.8029196037264D-01  9.8096115002228D-01
165  1.6400000000000D+00  1.8733114270877D-01  9.4874508371169D-01
166  1.6500000000000D+00  1.9370409257975D-01  9.1613474904165D-01
167  1.6600000000000D+00  1.9941928437015D-01  8.8321317430910D-01
168  1.6700000000000D+00  2.0448533153460D-01  8.5006630854317D-01
169  1.6800000000000D+00  2.0891298598437D-01  8.1677562955363D-01
170  1.6900000000000D+00  2.1271323649704D-01  7.8342546698285D-01
171  1.7000000000000D+00  2.1589900437853D-01  7.5009451574528D-01
172  1.7100000000000D+00  2.1848347008125D-01  7.1686467443836D-01
173  1.7200000000000D+00  2.2048157723404D-01  6.8381057032238D-01
174  1.7300000000000D+00  2.2190851654790D-01  6.5101100831933D-01
175  1.7400000000000D+00  2.2278106272402D-01  6.1853523662611D-01
176  1.7500000000000D+00  2.2311624538671D-01  5.8645844652318D-01
177  1.7600000000000D+00  2.2293243057167D-01  5.5484320770268D-01
178  1.7700000000000D+00  2.2224833227689D-01  5.2376069644896D-01
179  1.7800000000000D+00  2.2108362003856D-01  4.9326583701325D-01
180  1.7900000000000D+00  2.1945855050726D-01  4.6342466784000D-01
181  1.8000000000000D+00  2.1739380878698D-01  4.3428491812774D-01
182  1.8100000000000D+00  2.1491094684662D-01  4.0590466557908D-01
183  1.8200000000000D+00  2.1203148889703D-01  3.7832606649194D-01
184  1.8300000000000D+00  2.0877791668179D-01  3.5159736539538D-01
185  1.8400000000000D+00  2.0517249833102D-01  3.2575551130554D-01
186  1.8500000000000D+00  2.0123819397914D-01  3.0083762106480D-01
187  1.8600000000000D+00  1.9699798044631D-01  2.7687585051126D-01
188  1.8700000000000D+00  1.9247477226490D-01  2.5389513623306D-01
189  1.8800000000000D+00  1.8769227194894D-01  2.3192315401103D-01
190  1.8900000000000D+00  1.8267277333881D-01  2.1097201767127D-01
191  1.9000000000000D+00  1.7744074500808D-01  1.9106495577394D-01
192  1.9100000000000D+00  1.7201766633214D-01  1.7220314006939D-01
193  1.9200000000000D+00  1.6642762062054D-01  1.5439912937286D-01
194  1.9300000000000D+00  1.6069211157850D-01  1.3764969657704D-01
195  1.9400000000000D+00  1.5483377057093D-01  1.2195362436952D-01
196  1.9500000000000D+00  1.4887446222789D-01  1.0730449638633D-01
197  1.9600000000000D+00  1.4283452537906D-01  9.3687024049731D-02
198  1.9700000000000D+00  1.3673643548025D-01  8.1091665288175D-02
199  1.9800000000000D+00  1.3059803568848D-01  6.9491311652064D-02
200  1.9900000000000D+00  1.2444089081403D-01  5.8868087216961D-02
201  2.0000000000000D+00  1.1828200694211D-01  4.9189947115591D-02
202  2.0100000000000D+00  1.1213968698442D-01  4.0425729296761D-02
203  2.0200000000000D+00  1.0603163784159D-01  3.2542070304585D-02
204  2.0300000000000D+00  9.9972819589906D-02  2.5499004223846D-02
205  2.0400000000000D+00  9.3981325502874D-02  1.9258877446747D-02
206  2.0500000000000D+00  8.8070417831022D-02  1.3779648236576D-02
207  2.0600000000000D+00  8.2256186044999D-02  9.0191176557988D-03
208  2.0700000000000D+00  7.6552691860864D-02  4.9343213333271D-03
209  2.0800000000000D+00  7.0972952730902D-02  1.4812701721510D-03
210  2.0900000000000D+00  6.5531977613803D-02 -1.3859902202306D-03
211  2.1000000000000D+00  6.0240418032876D-02 -3.7106149331574D-03
212  2.1100000000000D+00  5.5111721850194D-02 -5.5397757905622D-03
213  2.1200000000000D+00  5.0156940757387D-02 -6.9176537545307D-03
214  2.1300000000000D+00  4.5386258661121D-02 -7.8879252135658D-03
215  2.1400000000000D+00  4.0811903475961D-02 -8.4989914605083D-03
216  2.1500000000000D+00  3.6441534332239D-02 -8.7895702249426D-03
217  2.1600000000000D+00  3.2285474533257D-02 -8.8057081368276D-03
218  2.1700000000000D+00  2.8352164968015D-02 -8.5884904662313D-03
219  2.1800000000000D+00  2.4648419610843D-02 -8.1747911334416D-03
220  2.1900000000000D+00  2.1183656847532D-02 -7.6107202444543D-03
221  2.2000000000000D+00  1.7962627009555D-02 -6.9262504267136D-03
222  2.2100000000000D+00  1.4991978046948D-02 -6.1589942590480D-03
223  2.2200000000000D+00  1.2278006016676D-02 -5.3455313557314D-03
224  2.2300000000000D+00  9.8239801377182D-03 -4.5104181249878D-03
225  2.2400000000000D+00  7.6356588649785D-03 -3.6895877999570D-03
226  2.2500000000000D+00  5.7158820405978D-03 -2.9059966510455D-03
227  2.2600000000000D+00  4.0668790363822D-03 -2.1802713962607D-03
228  2.2700000000000D+00  2.6931696873298D-03 -1.5447003878119D-03
229  2.2800000000000D+00  1.5943446749647D-03 -1.0075377610251D-03
230  2.2900000000000D+00  7.8781217265185D-04 -6.0012705275829D-04
231  2.3000000000000D+00  2.8507684464789D-04 -3.4879144386089D-04
232  2.3100000000000D+00  4.7674534324124D-07 -1.9146560111290D-04
233  2.3200000000000D+00 -1.0935631722237D-04 -9.1207396150845D-05
234  2.3300000000000D+00 -9.6776681599438D-05 -2.9633956359649D-05
235  2.3400000000000D+00 -2.1341863683655D-05 -2.7372292448272D-06
236  2.3500000000000D+00  4.1842939166654D-06  8.4423390858791D-06
237  2.3600000000000D+00  3.9782240299108D-06  8.0265671793116D-06
238  2.3700000000000D+00  2.3443777313424D-07  4.7300768415306D-07
239  2.3800000000000D+00  0.0000000000000D+00  0.0000000000000D+00
240  2.3900000000000D+00  0.0000000000000D+00  0.0000000000000D+00
241  2.4000000000000D+00  0.0000000000000D+00  0.0000000000000D+00
242  2.4100000000000D+00  0.0000000000000D+00  0.0000000000000D+00
243  2.4200000000000D+00  0.0000000000000D+00  0.0000000000000D+00
244  2.4300000000000D+00  0.0000000000000D+00  0.0000000000000D+00
245  2.4400000000000D+00  0.0000000000000D+00  0.0000000000000D+00
246  2.4500000000000D+00  0.0000000000000D+00  0.0000000000000D+00
247  2.4600000000000D+00  0.0000000000000D+00  0.0000000000000D+00
248  2.4700000000000D+00  0.0000000000000D+00  0.0000000000000D+00
249  2.4800000000000D+00  0.0000000000000D+00  0.0000000000000D+00
250  2.4900000000000D+00  0.0000000000000D+00  0.0000000000000D+00
251  2.5000000000000D+00  0.0000000000000D+00  0.0000000000000D+00
252  2.5100000000000D+00  0.0000000000000D+00  0.0000000000000D+00
253  2.5200000000000D+00  0.0000000000000D+00  0.0000000000000D+00
254  2.5300000000000D+00  0.0000000000000D+00  0.0000000000000D+00
255  2.5400000000000D+00  0.0000000000000D+00  0.0000000000000D+00
256  2.5500000000000D+00  0.0000000000000D+00  0.0000000000000D+00
257  2.5600000000000D+00  0.0000000000000D+00  0.0000000000000D+00
258  2.5700000000000D+00  0.0000000000000D+00  0.0000000000000D+00
259  2.5800000000000D+00  0.0000000000000D+00  0.0000000000000D+00
260  2.5900000000000D+00  0.0000000000000D+00  0.0000000000000D+00
261  2.6000000000000D+00  0.0000000000000D+00  0.0000000000000D+00
262  2.6100000000000D+00  0.0000000000000D+00  0.0000000000000D+00
263  2.6200000000000D+00  0.0000000000000D+00  0.0000000000000D+00
264  2.6300000000000D+00  0.0000000000000D+00  0.0000000000000D+00
265  2.6400000000000D+00  0.0000000000000D+00  0.0000000000000D+00
266  2.6500000000000D+00  0.0000000000000D+00  0.0000000000000D+00
267  2.6600000000000D+00  0.0000000000000D+00  0.0000000000000D+00
268  2.6700000000000D+00  0.0000000000000D+00  0.0000000000000D+00
269  2.6800000000000D+00  0.0000000000000D+00  0.0000000000000D+00
270  2.6900000000000D+00  0.0000000000000D+00  0.0000000000000D+00
271  2.7000000000000D+00  0.0000000000000D+00  0.0000000000000D+00
272  2.7100000000000D+00  0.0000000000000D+00  0.0000000000000D+00
273  2.7200000000000D+00  0.0000000000000D+00  0.0000000000000D+00
274  2.7300000000000D+00  0.0000000000000D+00  0.0000000000000D+00
275  2.7400000000000D+00  0.0000000000000D+00  0.0000000000000D+00
276  2.7500000000000D+00  0.0000000000000D+00  0.0000000000000D+00
277  2.7600000000000D+00  0.0000000000000D+00  0.0000000000000D+00
278  2.7700000000000D+00  0.0000000000000D+00  0.0000000000000D+00
279  2.7800000000000D+00  0.0000000000000D+00  0.0000000000000D+00
280  2.7900000000000D+00  0.0000000000000D+00  0.0000000000000D+00
281  2.8000000000000D+00  0.0000000000000D+00  0.0000000000000D+00
282  2.8100000000000D+00  0.0000000000000D+00  0.0000000000000D+00
283  2.8200000000000D+00  0.0000000000000D+00  0.0000000000000D+00
284  2.8300000000000D+00  0.0000000000000D+00  0.0000000000000D+00
285  2.8400000000000D+00  0.0000000000000D+00  0.0000000000000D+00
286  2.8500000000000D+00  0.0000000000000D+00  0.0000000000000D+00
287  2.8600000000000D+00  0.0000000000000D+00  0.0000000000000D+00
288  2.8700000000000D+00  0.0000000000000D+00  0.0000000000000D+00
289  2.8800000000000D+00  0.0000000000000D+00  0.0000000000000D+00
290  2.8900000000000D+00  0.0000000000000D+00  0.0000000000000D+00
291  2.9000000000000D+00  0.0000000000000D+00  0.0000000000000D+00
292  2.9100000000000D+00  0.0000000000000D+00  0.0000000000000D+00
293  2.9200000000000D+00  0.0000000000000D+00  0.0000000000000D+00
294  2.9300000000000D+00  0.0000000000000D+00  0.0000000000000D+00
295  2.9400000000000D+00  0.0000000000000D+00  0.0000000000000D+00
296  2.9500000000000D+00  0.0000000000000D+00  0.0000000000000D+00
297  2.9600000000000D+00  0.0000000000000D+00  0.0000000000000D+00
298  2.9700000000000D+00  0.0000000000000D+00  0.0000000000000D+00
299  2.9800000000000D+00  0.0000000000000D+00  0.0000000000000D+00
300  2.9900000000000D+00  0.0000000000000D+00  0.0000000000000D+00
301  3.0000000000000D+00  0.0000000000000D+00  0.0000000000000D+00
302  3.0100000000000D+00  0.0000000000000D+00  0.0000000000000D+00
303  3.0200000000000D+00  0.0000000000000D+00  0.0000000000000D+00
304  3.0300000000000D+00  0.0000000000000D+00  0.0000000000000D+00
305  3.0400000000000D+00  0.0000000000000D+00  0.0000000000000D+00
306  3.0500000000000D+00  0.0000000000000D+00  0.0000000000000D+00
307  3.0600000000000D+00  0.0000000000000D+00  0.0000000000000D+00
308  3.0700000000000D+00  0.0000000000000D+00  0.0000000000000D+00
309  3.0800000000000D+00  0.0000000000000D+00  0.0000000000000D+00
310  3.0900000000000D+00  0.0000000000000D+00  0.0000000000000D+00
311  3.1000000000000D+00  0.0000000000000D+00  0.0000000000000D+00
312  3.1100000000000D+00  0.0000000000000D+00  0.0000000000000D+00
313  3.1200000000000D+00  0.0000000000000D+00  0.0000000000000D+00
314  3.1300000000000D+00  0.0000000000000D+00  0.0000000000000D+00
315  3.1400000000000D+00  0.0000000000000D+00  0.0000000000000D+00
316  3.1500000000000D+00  0.0000000000000D+00  0.0000000000000D+00
317  3.1600000000000D+00  0.0000000000000D+00  0.0000000000000D+00
318  3.1700000000000D+00  0.0000000000000D+00  0.0000000000000D+00
319  3.1800000000000D+00  0.0000000000000D+00  0.0000000000000D+00
320  3.1900000000000D+00  0.0000000000000D+00  0.0000000000000D+00
321  3.2000000000000D+00  0.0000000000000D+00  0.0000000000000D+00
322  3.2100000000000D+00  0.0000000000000D+00  0.0000000000000D+00
323  3.2200000000000D+00  0.0000000000000D+00  0.0000000000000D+00
324  3.2300000000000D+00  0.0000000000000D+00  0.0000000000000D+00
325  3.2400000000000D+00  0.0000000000000D+00  0.0000000000000D+00
326  3.2500000000000D+00  0.0000000000000D+00  0.0000000000000D+00
327  3.2600000000000D+00  0.0000000000000D+00  0.0000000000000D+00
328  3.2700000000000D+00  0.0000000000000D+00  0.0000000000000D+00
329  3.2800000000000D+00  0.0000000000000D+00  0.0000000000000D+00
330  3.2900000000000D+00  0.0000000000000D+00  0.0000000000000D+00
331  3.3000000000000D+00  0.0000000000000D+00  0.0000000000000D+00
332  3.3100000000000D+00  0.0000000000000D+00  0.0000000000000D+00
333  3.3200000000000D+00  0.0000000000000D+00  0.0000000000000D+00
334  3.3300000000000D+00  0.0000000000000D+00  0.0000000000000D+00
335  3.3400000000000D+00  0.0000000000000D+00  0.0000000000000D+00
336  3.3500000000000D+00  0.0000000000000D+00  0.0000000000000D+00
337  3.3600000000000D+00  0.0000000000000D+00  0.0000000000000D+00
338  3.3700000000000D+00  0.0000000000000D+00  0.0000000000000D+00
339  3.3800000000000D+00  0.0000000000000D+00  0.0000000000000D+00
340  3.3900000000000D+00  0.0000000000000D+00  0.0000000000000D+00
341  3.4000000000000D+00  0.0000000000000D+00  0.0000000000000D+00
342  3.4100000000000D+00  0.0000000000000D+00  0.0000000000000D+00
343  3.4200000000000D+00  0.0000000000000D+00  0.0000000000000D+00
344  3.4300000000000D+00  0.0000000000000D+00  0.0000000000000D+00
345  3.4400000000000D+00  0.0000000000000D+00  0.0000000000000D+00
346  3.4500000000000D+00  0.0000000000000D+00  0.0000000000000D+00
347  3.4600000000000D+00  0.0000000000000D+00  0.0000000000000D+00
348  3.4700000000000D+00  0.0000000000000D+00  0.0000000000000D+00
349  3.4800000000000D+00  0.0000000000000D+00  0.0000000000000D+00
350  3.4900000000000D+00  0.0000000000000D+00  0.0000000000000D+00
351  3.5000000000000D+00  0.0000000000000D+00  0.0000000000000D+00
352  3.5100000000000D+00  0.0000000000000D+00  0.0000000000000D+00
353  3.5200000000000D+00  0.0000000000000D+00  0.0000000000000D+00
354  3.5300000000000D+00  0.0000000000000D+00  0.0000000000000D+00
355  3.5400000000000D+00  0.0000000000000D+00  0.0000000000000D+00
356  3.5500000000000D+00  0.0000000000000D+00  0.0000000000000D+00
357  3.5600000000000D+00  0.0000000000000D+00  0.0000000000000D+00
358  3.5700000000000D+00  0.0000000000000D+00  0.0000000000000D+00
359  3.5800000000000D+00  0.0000000000000D+00  0.0000000000000D+00
360  3.5900000000000D+00  0.0000000000000D+00  0.0000000000000D+00
361  3.6000000000000D+00  0.0000000000000D+00  0.0000000000000D+00
362  3.6100000000000D+00  0.0000000000000D+00  0.0000000000000D+00
363  3.6200000000000D+00  0.0000000000000D+00  0.0000000000000D+00
364  3.6300000000000D+00  0.0000000000000D+00  0.0000000000000D+00
365  3.6400000000000D+00  0.0000000000000D+00  0.0000000000000D+00
366  3.6500000000000D+00  0.0000000000000D+00  0.0000000000000D+00
367  3.6600000000000D+00  0.0000000000000D+00  0.0000000000000D+00
368  3.6700000000000D+00  0.0000000000000D+00  0.0000000000000D+00
369  3.6800000000000D+00  0.0000000000000D+00  0.0000000000000D+00
370  3.6900000000000D+00  0.0000000000000D+00  0.0000000000000D+00
371  3.7000000000000D+00  0.0000000000000D+00  0.0000000000000D+00
372  3.7100000000000D+00  0.0000000000000D+00  0.0000000000000D+00
373  3.7200000000000D+00  0.0000000000000D+00  0.0000000000000D+00
374  3.7300000000000D+00  0.0000000000000D+00  0.0000000000000D+00
375  3.7400000000000D+00  0.0000000000000D+00  0.0000000000000D+00
376  3.7500000000000D+00  0.0000000000000D+00  0.0000000000000D+00
377  3.7600000000000D+00  0.0000000000000D+00  0.0000000000000D+00
378  3.7700000000000D+00  0.0000000000000D+00  0.0000000000000D+00
379  3.7800000000000D+00  0.0000000000000D+00  0.0000000000000D+00
380  3.7900000000000D+00  0.0000000000000D+00  0.0000000000000D+00
381  3.8000000000000D+00  0.0000000000000D+00  0.0000000000000D+00
382  3.8100000000000D+00  0.0000000000000D+00  0.0000000000000D+00
383  3.8200000000000D+00  0.0000000000000D+00  0.0000000000000D+00
384  3.8300000000000D+00  0.0000000000000D+00  0.0000000000000D+00
385  3.8400000000000D+00  0.0000000000000D+00  0.0000000000000D+00
386  3.8500000000000D+00  0.0000000000000D+00  0.0000000000000D+00
387  3.8600000000000D+00  0.0000000000000D+00  0.0000000000000D+00
388  3.8700000000000D+00  0.0000000000000D+00  0.0000000000000D+00
389  3.8800000000000D+00  0.0000000000000D+00  0.0000000000000D+00
390  3.8900000000000D+00  0.0000000000000D+00  0.0000000000000D+00
391  3.9000000000000D+00  0.0000000000000D+00  0.0000000000000D+00
392  3.9100000000000D+00  0.0000000000000D+00  0.0000000000000D+00
393  3.9200000000000D+00  0.0000000000000D+00  0.0000000000000D+00
394  3.9300000000000D+00  0.0000000000000D+00  0.0000000000000D+00
395  3.9400000000000D+00  0.0000000000000D+00  0.0000000000000D+00
396  3.9500000000000D+00  0.0000000000000D+00  0.0000000000000D+00
397  3.9600000000000D+00  0.0000000000000D+00  0.0000000000000D+00
398  3.9700000000000D+00  0.0000000000000D+00  0.0000000000000D+00
399  3.9800000000000D+00  0.0000000000000D+00  0.0000000000000D+00
400  3.9900000000000D+00  0.0000000000000D+00  0.0000000000000D+00
401  4.0000000000000D+00  0.0000000000000D+00  0.0000000000000D+00
402  4.0100000000000D+00  0.0000000000000D+00  0.0000000000000D+00
403  4.0200000000000D+00  0.0000000000000D+00  0.0000000000000D+00
404  4.0300000000000D+00  0.0000000000000D+00  0.0000000000000D+00
405  4.0400000000000D+00  0.0000000000000D+00  0.0000000000000D+00
406  4.0500000000000D+00  0.0000000000000D+00  0.0000000000000D+00
407  4.0600000000000D+00  0.0000000000000D+00  0.0000000000000D+00
408  4.0700000000000D+00  0.0000000000000D+00  0.0000000000000D+00
409  4.0800000000000D+00  0.0000000000000D+00  0.0000000000000D+00
410  4.0900000000000D+00  0.0000000000000D+00  0.0000000000000D+00
411  4.1000000000000D+00  0.0000000000000D+00  0.0000000000000D+00
412  4.1100000000000D+00  0.0000000000000D+00  0.0000000000000D+00
413  4.1200000000000D+00  0.0000000000000D+00  0.0000000000000D+00
414  4.1300000000000D+00  0.0000000000000D+00  0.0000000000000D+00
415  4.1400000000000D+00  0.0000000000000D+00  0.0000000000000D+00
416  4.1500000000000D+00  0.0000000000000D+00  0.0000000000000D+00
417  4.1600000000000D+00  0.0000000000000D+00  0.0000000000000D+00
418  4.1700000000000D+00  0.0000000000000D+00  0.0000000000000D+00
419  4.1800000000000D+00  0.0000000000000D+00  0.0000000000000D+00
420  4.1900000000000D+00  0.0000000000000D+00  0.0000000000000D+00
421  4.2000000000000D+00  0.0000000000000D+00  0.0000000000000D+00
422  4.2100000000000D+00  0.0000000000000D+00  0.0000000000000D+00
423  4.2200000000000D+00  0.0000000000000D+00  0.0000000000000D+00
424  4.2300000000000D+00  0.0000000000000D+00  0.0000000000000D+00
425  4.2400000000000D+00  0.0000000000000D+00  0.0000000000000D+00
426  4.2500000000000D+00  0.0000000000000D+00  0.0000000000000D+00
427  4.2600000000000D+00  0.0000000000000D+00  0.0000000000000D+00
428  4.2700000000000D+00  0.0000000000000D+00  0.0000000000000D+00
429  4.2800000000000D+00  0.0000000000000D+00  0.0000000000000D+00
430  4.2900000000000D+00  0.0000000000000D+00  0.0000000000000D+00
431  4.3000000000000D+00  0.0000000000000D+00  0.0000000000000D+00
432  4.3100000000000D+00  0.0000000000000D+00  0.0000000000000D+00
433  4.3200000000000D+00  0.0000000000000D+00  0.0000000000000D+00
434  4.3300000000000D+00  0.0000000000000D+00  0.0000000000000D+00
435  4.3400000000000D+00  0.0000000000000D+00  0.0000000000000D+00
436  4.3500000000000D+00  0.0000000000000D+00  0.0000000000000D+00
437  4.3600000000000D+00  0.0000000000000D+00  0.0000000000000D+00
438  4.3700000000000D+00  0.0000000000000D+00  0.0000000000000D+00
439  4.3800000000000D+00  0.0000000000000D+00  0.0000000000000D+00
440  4.3900000000000D+00  0.0000000000000D+00  0.0000000000000D+00
441  4.4000000000000D+00  0.0000000000000D+00  0.0000000000000D+00
442  4.4100000000000D+00  0.0000000000000D+00  0.0000000000000D+00
443  4.4200000000000D+00  0.0000000000000D+00  0.0000000000000D+00
444  4.4300000000000D+00  0.0000000000000D+00  0.0000000000000D+00