<?xml version="1.0" encoding="UTF-8" ?>
<psml version="1.1" energy_unit="hartree" length_unit="bohr"
 uuid="45b104b0-3a91-11eb-5d09-feb2f37b8528"
 xmlns="http://esl.cecam.org/PSML/ns/1.1">
<provenance creator="ONCVPSP-3.3.1+psml-3.3.1-75 (scalar-relativistic)"
 date="2020-12-10">
<annotation action="semilocal-pseudopotential-generation"
 action-cont="projectors-generation" />
<input-file name="oncvpsp-input">
<![CDATA[# atsym z nc nv iexc psfile
I 53 8 3 -001012 both
# n l f
1 0 2.0
2 0 2.0
2 1 6.0
3 0 2.0
3 1 6.0
3 2 10.0
4 0 2.0
4 1 6.0
4 2 10.0
5 0 2.0
5 1 5.0
# lmax
2
# l rc ep ncon nbas qcut
0 1.95 0.0 4 7 3.6
1 1.85 0.0 4 7 4.8
2 1.85 0.0 4 7 8.4
# lloc lpopt rc5 dvloc0
4 5 1.8 0.0
# l nproj debl
0 2 2.8
1 2 2.5
2 2 2.0
# icmod fcfact rcfact
3 8.8 1.25
# epsh1 epsh2 depsh
-12.0 12.0 0.02
# rlmax drl
6.0 0.01
 0
]]>
</input-file>
</provenance>
<pseudo-atom-spec atomic-label="I" atomic-number="53" z-pseudo="17"
 flavor="Hamann&apos;s oncvpsp" relativity="scalar" spin-dft="no"
 core-corrections="yes">
<annotation pseudo-energy="-107.539621574" cutoff_hint_low="32"
 cutoff_hint_normal="34" cutoff_hint_high="36" />
<exchange-correlation>
<annotation oncvpsp-xc-code="-1012" oncvpsp-xc-type="libxc-interface" />
<libxc-info number-of-functionals="2">
<functional name="Slater exchange (LDA)" type="exchange" id="1" />
<functional name="Perdew &amp; Wang (LDA)" type="correlation" id="12" />
</libxc-info>
</exchange-correlation>
<valence-configuration total-valence-charge="17">
<shell n="4" l="d" occupation="10" />
<shell n="5" l="s" occupation="2" />
<shell n="5" l="p" occupation="5" />
</valence-configuration>
</pseudo-atom-spec>
<grid npts="458">
<annotation type="sampled from oncvpsp log grid"
 recipe="r(i:1..N) = r1*exp(a*(i-1)) + r=0; resampled"
 recipe-cont="r1: scale; a: step" scale="0.943396226415E-05"
 step="0.119285708653E-01" delta="0.500000000000E-02" rmax="44.3807093700" />
<grid-data>
  0.000000000000E+00  5.007762362137E-03  1.012264367117E-02  1.518557966799E-02
  2.021918633661E-02  2.536257896747E-02  3.069598770929E-02  3.584497442415E-02
  4.087087281817E-02  4.604887635970E-02  5.126767823703E-02  5.640112283188E-02
  6.204858043287E-02  6.745209415252E-02  7.245669368045E-02  7.783260883245E-02
  8.360738932391E-02  8.874568074888E-02  9.419975812269E-02  9.998902882364E-02
  1.061340929567E-01  1.113209650746E-01  1.167613244709E-01  1.224675593053E-01
  1.284526631584E-01  1.347302646194E-01  1.413146583191E-01  1.464632781427E-01
  1.517994813805E-01  1.573301023957E-01  1.630622245526E-01  1.690031892890E-01
  1.751606055187E-01  1.815423593765E-01  1.881566243185E-01  1.950118715903E-01
  2.021168810766E-01  2.094807525460E-01  2.145384558354E-01  2.197182723131E-01
  2.250231502799E-01  2.304561092202E-01  2.360202415212E-01  2.417187142325E-01
  2.475547708689E-01  2.535317332568E-01  2.596530034246E-01  2.659220655392E-01
  2.723424878896E-01  2.789179249172E-01  2.856521192964E-01  2.925489040647E-01
  2.996122048045E-01  3.068460418773E-01  3.142545327123E-01  3.218418941502E-01
  3.296124448425E-01  3.375706077108E-01  3.457209124634E-01  3.540679981739E-01
  3.626166159218E-01  3.713716314966E-01  3.803380281675E-01  3.895209095195E-01
  3.989255023590E-01  4.085571596879E-01  4.184213637514E-01  4.234424201164E-01
  4.285237291578E-01  4.336660139077E-01  4.388700060746E-01  4.441364461475E-01
  4.494660835013E-01  4.548596765033E-01  4.603179926214E-01  4.658418085328E-01
  4.714319102352E-01  4.770890931580E-01  4.828141622759E-01  4.886079322232E-01
  4.944712274099E-01  5.004048821388E-01  5.064097407245E-01  5.124866576132E-01
  5.186364975046E-01  5.248601354746E-01  5.311584571003E-01  5.375323585855E-01
  5.439827468885E-01  5.505105398512E-01  5.571166663294E-01  5.638020663254E-01
  5.705676911213E-01  5.774145034147E-01  5.843434774557E-01  5.913555991852E-01
  5.984518663754E-01  6.056332887719E-01  6.129008882372E-01  6.202556988960E-01
  6.276987672828E-01  6.352311524901E-01  6.428539263200E-01  6.505681734359E-01
  6.583749915171E-01  6.662754914153E-01  6.742707973123E-01  6.823620468800E-01
  6.905503914426E-01  6.988369961399E-01  7.072230400936E-01  7.157097165747E-01
  7.242982331736E-01  7.329898119717E-01  7.417856897153E-01  7.506871179919E-01
  7.596953634078E-01  7.688117077687E-01  7.780374482620E-01  7.873738976411E-01
  7.968223844128E-01  8.063842530257E-01  8.160608640621E-01  8.258535944308E-01
  8.357638375640E-01  8.457930036147E-01  8.559425196581E-01  8.662138298940E-01
  8.766083958527E-01  8.871276966030E-01  8.977732289622E-01  9.085465077098E-01
  9.194490658023E-01  9.304824545919E-01  9.416482440470E-01  9.529480229756E-01
  9.643833992513E-01  9.759560000423E-01  9.876674720428E-01  9.995194817073E-01
  1.011513715488E+00  1.023651880074E+00  1.035935702635E+00  1.048366931066E+00
  1.060947334239E+00  1.073678702250E+00  1.086562846677E+00  1.099601600837E+00
  1.112796820047E+00  1.126150381888E+00  1.139664186470E+00  1.153340156708E+00
  1.167180238588E+00  1.181186401451E+00  1.195360638269E+00  1.209704965928E+00
  1.224221425519E+00  1.238912082625E+00  1.253779027617E+00  1.268824375948E+00
  1.284050268460E+00  1.299458871681E+00  1.315052378141E+00  1.330833006679E+00
  1.346803002759E+00  1.362964638792E+00  1.379320214458E+00  1.395872057031E+00
  1.412622521716E+00  1.429573991976E+00  1.446728879880E+00  1.464089626439E+00
  1.481658701956E+00  1.499438606379E+00  1.517431869656E+00  1.535641052092E+00
  1.554068744717E+00  1.572717569653E+00  1.591590180489E+00  1.610689262655E+00
  1.630017533807E+00  1.649577744213E+00  1.669372677143E+00  1.689405149269E+00
  1.709678011060E+00  1.730194147193E+00  1.750956476959E+00  1.771967954683E+00
  1.793231570139E+00  1.814750348981E+00  1.836527353168E+00  1.858565681406E+00
  1.880868469583E+00  1.903438891218E+00  1.926280157913E+00  1.949395519808E+00
  1.972788266046E+00  1.996461725238E+00  2.020419265941E+00  2.044664297132E+00
  2.069200268698E+00  2.094030671922E+00  2.119159039985E+00  2.144588948465E+00
  2.170324015847E+00  2.196367904037E+00  2.222724318885E+00  2.249397010712E+00
  2.276389774840E+00  2.303706452138E+00  2.331350929564E+00  2.359327140719E+00
  2.387639066408E+00  2.416290735204E+00  2.445286224027E+00  2.474629658715E+00
  2.504325214620E+00  2.534377117195E+00  2.564789642602E+00  2.595567118313E+00
  2.626713923733E+00  2.658234490817E+00  2.690133304707E+00  2.722414904364E+00
  2.755083883216E+00  2.788144889815E+00  2.821602628492E+00  2.855461860034E+00
  2.889727402355E+00  2.924404131183E+00  2.959496980757E+00  2.995010944526E+00
  3.030951075861E+00  3.067322488771E+00  3.104130358636E+00  3.141379922940E+00
  3.179076482015E+00  3.217225399799E+00  3.255832104597E+00  3.294902089852E+00
  3.334440914930E+00  3.374454205909E+00  3.414947656380E+00  3.455927028257E+00
  3.497398152596E+00  3.539366930427E+00  3.581839333592E+00  3.624821405595E+00
  3.668319262462E+00  3.712339093612E+00  3.756887162735E+00  3.801969808688E+00
  3.847593446392E+00  3.893764567749E+00  3.940489742562E+00  3.987775619473E+00
  4.035628926907E+00  4.084056474029E+00  4.133065151718E+00  4.182661933538E+00
  4.232853876741E+00  4.283648123262E+00  4.335051900741E+00  4.387072523550E+00
  4.439717393832E+00  4.492994002558E+00  4.546909930589E+00  4.601472849756E+00
  4.656690523953E+00  4.712570810241E+00  4.769121659963E+00  4.826351119883E+00
  4.884267333322E+00  4.942878541322E+00  5.002193083817E+00  5.062219400823E+00
  5.122966033633E+00  5.184441626037E+00  5.246654925549E+00  5.309614784656E+00
  5.373330162072E+00  5.437810124016E+00  5.503063845505E+00  5.569100611651E+00
  5.635929818990E+00  5.703560976818E+00  5.772003708540E+00  5.841267753043E+00
  5.911362966079E+00  5.982299321672E+00  6.054086913532E+00  6.126735956495E+00
  6.200256787972E+00  6.274659869428E+00  6.349955787861E+00  6.426155257316E+00
  6.503269120403E+00  6.581308349848E+00  6.660284050046E+00  6.740207458647E+00
  6.821089948151E+00  6.902943027529E+00  6.985778343859E+00  7.069607683985E+00
  7.154442976193E+00  7.240296291907E+00  7.327179847410E+00  7.415106005579E+00
  7.504087277646E+00  7.594136324978E+00  7.685265960878E+00  7.777489152408E+00
  7.870819022237E+00  7.965268850504E+00  8.060852076710E+00  8.157582301630E+00
  8.255473289250E+00  8.354538968721E+00  8.454793436346E+00  8.556250957582E+00
  8.658925969073E+00  8.762833080702E+00  8.867987077670E+00  8.974402922602E+00
  9.082095757673E+00  9.191080906765E+00  9.301373877647E+00  9.412990364178E+00
  9.525946248549E+00  9.640257603531E+00  9.755940694773E+00  9.873011983111E+00
  9.991488126908E+00  1.011138598443E+01  1.023272261624E+01  1.035551528764E+01
  1.047978147109E+01  1.060553884874E+01  1.073280531493E+01  1.086159897871E+01
  1.099193816645E+01  1.112384142445E+01  1.125732752154E+01  1.139241545180E+01
  1.152912443722E+01  1.166747393047E+01  1.180748361764E+01  1.194917342105E+01
  1.209256350210E+01  1.223767426413E+01  1.238452635529E+01  1.253314067156E+01
  1.268353835962E+01  1.283574081993E+01  1.298976970977E+01  1.314564694629E+01
  1.330339470964E+01  1.346303544616E+01  1.362459187151E+01  1.378808697397E+01
  1.395354401766E+01  1.412098654587E+01  1.429043838442E+01  1.446192364504E+01
  1.463546672878E+01  1.481109232952E+01  1.498882543748E+01  1.516869134272E+01
  1.535071563884E+01  1.553492422650E+01  1.572134331722E+01  1.590999943703E+01
  1.610091943027E+01  1.629413046344E+01  1.648966002900E+01  1.668753594935E+01
  1.688778638074E+01  1.709043981731E+01  1.729552509511E+01  1.750307139626E+01
  1.771310825301E+01  1.792566555205E+01  1.814077353867E+01  1.835846282113E+01
  1.857876437499E+01  1.880170954749E+01  1.902733006206E+01  1.925565802280E+01
  1.948672591908E+01  1.972056663011E+01  1.995721342967E+01  2.019669999082E+01
  2.043906039071E+01  2.068432911540E+01  2.093254106479E+01  2.118373155756E+01
  2.143793633625E+01  2.169519157229E+01  2.195553387116E+01  2.221900027761E+01
  2.248562828094E+01  2.275545582031E+01  2.302852129016E+01  2.330486354564E+01
  2.358452190819E+01  2.386753617108E+01  2.415394660514E+01  2.444379396440E+01
  2.473711949197E+01  2.503396492588E+01  2.533437250499E+01  2.563838497505E+01
  2.594604559475E+01  2.625739814188E+01  2.657248691959E+01  2.689135676262E+01
  2.721405304377E+01  2.754062168030E+01  2.787110914046E+01  2.820556245015E+01
  2.854402919955E+01  2.888655754994E+01  2.923319624054E+01  2.958399459543E+01
  2.993900253057E+01  3.029827056094E+01  3.066184980767E+01  3.102979200536E+01
  3.140214950943E+01  3.177897530354E+01  3.216032300718E+01  3.254624688327E+01
  3.293680184587E+01  3.333204346802E+01  3.373202798964E+01  3.413681232551E+01
  3.454645407342E+01  3.496101152230E+01  3.538054366057E+01  3.580511018449E+01
  3.623477150671E+01  3.666958876479E+01  3.710962382997E+01  3.755493931593E+01
  3.800559858772E+01  3.846166577077E+01  3.892320576002E+01  3.939028422914E+01
  3.986296763989E+01  4.034132325157E+01  4.082541913059E+01  4.131532416015E+01
  4.181110805007E+01  4.231284134668E+01  4.282059544284E+01  4.333444258815E+01
  4.385445589921E+01  4.438070937000E+01
</grid-data>
</grid>
<valence-charge total-charge="17" is-unscreening-charge="yes"
 rescaled-to-z-pseudo="no">
<radfunc>
<data npts="458">
  1.438547628289E-02  1.439653323242E-02  1.443493671864E-02  1.451272795824E-02
  1.465033470494E-02  1.488337495069E-02  1.526608823513E-02  1.582215174614E-02
  1.659741394717E-02  1.770175871092E-02  1.920457581501E-02  2.114754457759E-02
  2.392498809574E-02  2.732595714561E-02  3.123227653524E-02  3.636017334451E-02
  4.309571822965E-02  5.029817545389E-02  5.934183488979E-02  7.069673450062E-02
  8.495061974751E-02  9.892829573723E-02  1.156843982930E-01  1.357630183939E-01
  1.598109731120E-01  1.885958365618E-01  2.230266723192E-01  2.531942382812E-01
  2.876607022873E-01  3.270164957666E-01  3.719274056408E-01  4.231427931775E-01
  4.815043634343E-01  5.479554274664E-01  6.235505649738E-01  7.094655516180E-01
  8.070073612886E-01  9.176239874725E-01  9.994150375756E-01  1.088236663640E+00
  1.184633640775E+00  1.289183852435E+00  1.402498864274E+00  1.525224237358E+00
  1.658039524454E+00  1.801657886116E+00  1.956825255790E+00  2.124318975380E+00
  2.304945814668E+00  2.499539279832E+00  2.708956108226E+00  2.934071838813E+00
  3.175775340463E+00  3.434962174088E+00  3.712526659703E+00  4.009352516518E+00
  4.326301943630E+00  4.664203011542E+00  5.023835241297E+00  5.405913259472E+00
  5.811068434512E+00  6.239828424009E+00  6.692594594708E+00  7.169617318366E+00
  7.670969198312E+00  8.196516344840E+00  8.745887893324E+00  9.029319285436E+00
  9.318444048141E+00  9.613134763602E+00  9.913243038517E+00  1.021859844865E+01
  1.052900748948E+01  1.084425253930E+01  1.116409084169E+01  1.148825351494E+01
  1.181644459669E+01  1.214834013240E+01  1.248358731741E+01  1.282180370242E+01
  1.316257647332E+01  1.350546181661E+01  1.384998438228E+01  1.419563685684E+01
  1.454187965913E+01  1.488814077271E+01  1.523381572825E+01  1.557826775028E+01
  1.592082808246E+01  1.626079650573E+01  1.659744206370E+01  1.693000400940E+01
  1.725769298722E+01  1.757969246329E+01  1.789516041689E+01  1.820323130456E+01
  1.850301830742E+01  1.879361587079E+01  1.907410254375E+01  1.934354412397E+01
  1.960099711158E+01  1.984551247276E+01  2.007613971131E+01  2.029193124347E+01
  2.049194706777E+01  2.067525971803E+01  2.084095948398E+01  2.098815987977E+01
  2.111600333603E+01  2.122366708704E+01  2.131036921962E+01  2.137537484551E+01
  2.141800235443E+01  2.143762969994E+01  2.143370066572E+01  2.140573105512E+01
  2.135331474277E+01  2.127612952299E+01  2.117394268626E+01  2.104661625219E+01
  2.089411178522E+01  2.071649471767E+01  2.051393810464E+01  2.028672573527E+01
  2.003525452689E+01  1.976003613125E+01  1.946169768610E+01  1.914098165118E+01
  1.879874467425E+01  1.843595544140E+01  1.805369147582E+01  1.765313486000E+01
  1.723556686962E+01  1.680236152048E+01  1.635497804555E+01  1.589495233446E+01
  1.542388738496E+01  1.494344283240E+01  1.445532364110E+01  1.396126805793E+01
  1.346303494550E+01  1.296239062749E+01  1.246109539310E+01  1.196088981999E+01
  1.146348108542E+01  1.097052944299E+01  1.048363504715E+01  1.000432530929E+01
  9.534042967093E+00  9.074135043424E+00  8.625842861188E+00  8.190293267603E+00
  7.768491204116E+00  7.361313737717E+00  6.969505645699E+00  6.593676619423E+00
  6.234300124047E+00  5.891713921015E+00  5.566122229180E+00  5.257599469506E+00
  4.966095508300E+00  4.691442285602E+00  4.433361689639E+00  4.191474515880E+00
  3.965310330897E+00  3.754318047532E+00  3.557877009214E+00  3.375308377925E+00
  3.205886622271E+00  3.048850909376E+00  2.903416216342E+00  2.768783993443E+00
  2.644152231265E+00  2.528724806757E+00  2.421720007840E+00  2.322378161634E+00
  2.229968316651E+00  2.143793953445E+00  2.063197720352E+00  1.987565210436E+00
  1.916327812031E+00  1.848964678093E+00  1.785003868814E+00  1.724022727930E+00
  1.665647556100E+00  1.609552645440E+00  1.555458738322E+00  1.503130971885E+00
  1.452376368038E+00  1.403040928033E+00  1.355006391308E+00  1.308186720941E+00
  1.262523127425E+00  1.217974119853E+00  1.174504013904E+00  1.132080293576E+00
  1.090674286188E+00  1.050259815605E+00  1.010813666844E+00  9.723164101710E-01
  9.347521228033E-01  8.981076530442E-01  8.623722802490E-01  8.275372741526E-01
  7.935955075617E-01  7.605410994806E-01  7.283690901442E-01  6.970751473397E-01
  6.666553031745E-01  6.371057202933E-01  6.084224864067E-01  5.806014358768E-01
  5.536379969838E-01  5.275270634871E-01  5.022628889620E-01  4.778390022918E-01
  4.542481429860E-01  4.314822145274E-01  4.095322543067E-01  3.883884185831E-01
  3.680399809595E-01  3.484753429059E-01  3.296820549099E-01  3.116468468922E-01
  2.943556665875E-01  2.777937246573E-01  2.619455453771E-01  2.467950218101E-01
  2.323254744613E-01  2.185197124790E-01  2.053600965519E-01  1.928286027242E-01
  1.809068864402E-01  1.695763461359E-01  1.588181859353E-01  1.486134768505E-01
  1.389432161220E-01  1.297883843297E-01  1.211299999741E-01  1.129491712813E-01
  1.052271450373E-01  9.794535230398E-02  9.108545091042E-02  8.462936465439E-02
  7.855931918249E-02  7.285787454959E-02  6.750795448598E-02  6.249287242508E-02
  5.779635436606E-02  5.340255866367E-02  4.929609285301E-02  4.546202762983E-02
  4.188590811681E-02  3.855376255460E-02  3.545210856193E-02  3.256795711348E-02
  2.988881438625E-02  2.740268162608E-02  2.509805318573E-02  2.296391288400E-02
  2.098972883280E-02  1.916544687590E-02  1.748148277840E-02  1.592871330160E-02
  1.449846629243E-02  1.318250991096E-02  1.197304111371E-02  1.086267350409E-02
  9.844424655292E-03  8.911703004375E-03  8.058294410039E-03  7.278348460325E-03
  6.566364610119E-03  5.917178222339E-03  5.325946580678E-03  4.788134936002E-03
  4.299502642918E-03  3.856089437646E-03  3.454201903161E-03  3.090400162670E-03
  2.761484837758E-03  2.464484303127E-03  2.196642265611E-03  1.955405691176E-03
  1.738413099911E-03  1.543483245476E-03  1.368604192220E-03  1.211922800148E-03
  1.071734625077E-03  9.464742386960E-04  8.347059708773E-04  7.351150743458E-04
  6.464993098179E-04  5.677609478952E-04  4.978991823477E-04  4.360029479501E-04
  3.812441347219E-04  3.328711892675E-04  2.902030929127E-04  2.526237054653E-04
  2.195764627057E-04  1.905594151097E-04  1.651205948263E-04  1.428536975651E-04
  1.233940657848E-04  1.064149594072E-04  9.162410020900E-05  7.876047604862E-05
  6.759139117033E-05  5.790974898136E-05  4.953155391151E-05  4.229361923573E-05
  3.605146805874E-05  3.067741502247E-05  2.605881669432E-05  2.209647902284E-05
  1.870321069990E-05  1.580251174121E-05  1.332738708368E-05  1.121927549515E-05
  9.427084594377E-06  7.906323283099E-06  6.618323393668E-06  5.529542852649E-06
  4.610943148748E-06  3.837434370992E-06  3.187381547446E-06  2.642166464110E-06
  2.185799576449E-06  1.804577040970E-06  1.486778290341E-06  1.222399952029E-06
  1.002922266824E-06  8.211044996662E-07  6.708061508026E-07  5.468310706261E-07
  4.447918568903E-07  3.609921687251E-07  2.923248286076E-07  2.361838017836E-07
  1.903883433377E-07  1.531177869675E-07  1.228556173784E-07  9.834162096857E-08
  7.853104801324E-08  6.255984480101E-08  4.971512703305E-08  3.941016716151E-08
  3.116325910011E-08  2.457990473615E-08  1.933783873083E-08  1.517447199707E-08
  1.187639073532E-08  9.270597690220E-09  7.217226023322E-09  5.603494493991E-09
  4.338706071789E-09  3.350121195964E-09  2.579562134209E-09  1.980626715675E-09
  1.516408524427E-09  1.157636803332E-09  8.811631630874E-10  6.687340117898E-10
  5.059976804690E-10  3.817037542095E-10  2.870593347869E-10  2.152130428561E-10
  1.608426771395E-10  1.198267262290E-10  8.898349890179E-11  6.586460846731E-11
  4.859200837723E-11  3.572981011434E-11  2.618378889958E-11  1.912285674956E-11
  1.391790591575E-11  1.009434120716E-11  7.295363032689E-12  5.253664424527E-12
  3.769690168257E-12  2.694995646716E-12  1.919554726125E-12  1.362114580217E-12
  9.628928191670E-13  6.780685793543E-13  4.756424565240E-13  3.323369508367E-13
  2.312848166506E-13  1.603117241320E-13  1.106654495573E-13  7.607922889163E-14
  5.208418180205E-14  3.550662811906E-14  2.410209182246E-14  1.628993564437E-14
  1.096176936610E-14  7.343712531693E-15  4.897801369603E-15  3.251723835468E-15
  2.148964960262E-15  1.413592155222E-15  9.254941066219E-16  6.030499129587E-16
  3.910551084138E-16  2.523495306232E-16  1.620396489025E-16  1.035305364112E-16
  6.581392793021E-17  4.162390490209E-17  2.618886379309E-17  1.639125319417E-17
  1.020473741409E-17  6.319138183939E-18  3.891813660409E-18  2.383723392209E-18
  1.451912376938E-18  8.793795918302E-19  5.295830121540E-19  3.170904485631E-19
  1.887525772931E-19  1.116944557541E-19  6.570020036161E-20  3.841172971978E-20
  0.000000000000E+00  0.000000000000E+00  0.000000000000E+00  0.000000000000E+00
  0.000000000000E+00  0.000000000000E+00  0.000000000000E+00  0.000000000000E+00
  0.000000000000E+00  0.000000000000E+00  0.000000000000E+00  0.000000000000E+00
  0.000000000000E+00  0.000000000000E+00  0.000000000000E+00  0.000000000000E+00
  0.000000000000E+00  0.000000000000E+00  0.000000000000E+00  0.000000000000E+00
  0.000000000000E+00  0.000000000000E+00  0.000000000000E+00  0.000000000000E+00
  0.000000000000E+00  0.000000000000E+00  0.000000000000E+00  0.000000000000E+00
  0.000000000000E+00  0.000000000000E+00  0.000000000000E+00  0.000000000000E+00
  0.000000000000E+00  0.000000000000E+00
</data>
</radfunc>
</valence-charge>
<pseudocore-charge matching-radius="0.787373897641"
 number-of-continuous-derivatives="4">
<annotation model-charge-form="Teter function with specified parameters" />
<radfunc>
<data npts="291">
  1.887995710696E+02  1.887841290419E+02  1.887364820942E+02  1.886576184714E+02
  1.885479831629E+02  1.884038458086E+02  1.882201798143E+02  1.880099147431E+02
  1.877735558204E+02  1.874980063234E+02  1.871875212307E+02  1.868501731780E+02
  1.864426468310E+02  1.860172359475E+02  1.855924742609E+02  1.851034726750E+02
  1.845407156237E+02  1.840076204010E+02  1.834087140088E+02  1.827361178868E+02
  1.819810763566E+02  1.813111899016E+02  1.805768948292E+02  1.797722912549E+02
  1.788910002956E+02  1.779261383848E+02  1.768702933073E+02  1.760139332547E+02
  1.750983602491E+02  1.741198236755E+02  1.730743882028E+02  1.719579332382E+02
  1.707661540832E+02  1.694945651210E+02  1.681385054095E+02  1.666931470968E+02
  1.651535071248E+02  1.635144627371E+02  1.623639570930E+02  1.611653656535E+02
  1.599170954475E+02  1.586175429361E+02  1.572650990064E+02  1.558581545905E+02
  1.543951069541E+02  1.528743667013E+02  1.512943655426E+02  1.496535648725E+02
  1.479504652033E+02  1.461836164993E+02  1.443516294539E+02  1.424531877490E+02
  1.404870613303E+02  1.384521207288E+02  1.363473524487E+02  1.341718754353E+02
  1.319249586232E+02  1.296060395547E+02  1.272147440399E+02  1.247509068151E+02
  1.222145931320E+02  1.196061211894E+02  1.169260852899E+02  1.141753795751E+02
  1.113552221584E+02  1.084671794380E+02  1.055131903314E+02  1.040121795393E+02
  1.024955901295E+02  1.009637797417E+02  9.941713362173E+01  9.785606527539E+01
  9.628101709457E+01  9.469246095102E+01  9.309089875346E+01  9.147686296386E+01
  8.985091706813E+01  8.821365599630E+01  8.656570648746E+01  8.490772739399E+01
  8.324040991987E+01  8.156447778755E+01  7.988068732760E+01  7.818982748558E+01
  7.649271974004E+01  7.479021792581E+01  7.308320795647E+01  7.137260744013E+01
  6.965936518229E+01  6.794446056999E+01  6.622890283127E+01  6.451373016419E+01
  6.280000872990E+01  6.108883150446E+01  5.938131698425E+01  5.767860774043E+01
  5.598186881818E+01  5.429228597683E+01  5.261106376787E+01  5.093942344808E+01
  4.927860072608E+01  4.762984334117E+01  4.599440847422E+01  4.437355999156E+01
  4.276856552355E+01  4.118069338092E+01  3.961120931298E+01  3.806137311334E+01
  3.653243507988E+01  3.502563233752E+01  3.354218503351E+01  3.208329241695E+01
  3.065012881558E+01  2.924383952478E+01  2.786553662547E+01  2.651629474932E+01
  2.519714681135E+01  2.390907973216E+01  2.265303017318E+01  2.142988031065E+01
  2.024045367511E+01  1.908551108516E+01  1.796574670527E+01  1.688178425886E+01
  1.583417342897E+01  1.482338647943E+01  1.384981513032E+01  1.291376772163E+01
  1.201546669904E+01  1.115504645546E+01  1.033255156116E+01  9.547935414231E+00
  8.801059341509E+00  8.091692178061E+00  7.419510350824E+00  6.784098488996E+00
  6.184950580235E+00  5.621471687754E+00  5.092980238835E+00  4.598710890355E+00
  4.137817971410E+00  3.709379497292E+00  3.312401742789E+00  2.945824356235E+00
  2.608525988895E+00  2.299330407298E+00  2.017013049055E+00  1.760307975678E+00
  1.527915169051E+00  1.318508111554E+00  1.130741583716E+00  9.632596075635E-01
  8.147034589518E-01  6.837196680073E-01  5.689679237485E-01  4.691287969337E-01
  3.829111944667E-01  3.090594593177E-01  2.463600320192E-01  1.936475934199E-01
  1.498106135857E-01  1.137962385265E-01  8.461445477378E-02  6.134148167717E-02
  4.312235250640E-02  2.917265789862E-02  1.877943866653E-02  1.130122924519E-02
  6.167267814952E-03  2.875904071971E-03  9.922503711306E-04  1.451361602566E-04
  2.343886614216E-05  3.718762874939E-04  9.863557126624E-04  1.708983051516E-03
  2.422840931167E-03  3.046647689763E-03  3.529409316243E-03  3.845173515421E-03
  3.987989210829E-03  3.967166020563E-03  3.802916751913E-03  3.522452067884E-03
  3.156580599361E-03  2.736850425513E-03  2.293249620919E-03  1.852465133089E-03
  1.436681309095E-03  1.062882643894E-03  7.426104592832E-04  4.821108653760E-04
  2.828020342227E-04  1.419829279516E-04  5.370341396909E-05  9.717230273553E-06
  4.444043249362E-07  1.587815258826E-05  4.638248122669E-05  8.333999272049E-05
  1.196239690464E-04  1.498837553441E-04  1.706468850702E-04  1.802543765839E-04
  1.786563950049E-04  1.671033705095E-04  1.477722612554E-04  1.233687591890E-04
  9.674394204582E-05  7.055852584042E-05  4.702006613139E-05  2.770899065104E-05
  1.349915135641E-05  4.568642258009E-06  4.878811424083E-07  3.652058010899E-07
  3.026079445595E-06  7.200745870027E-06  1.169681564625E-05  1.553747320091E-05
  1.805215781778E-05  1.891385909850E-05  1.812463003913E-05  1.595760772700E-05
  1.286891188712E-05  9.395664834667E-06  6.056756252958E-06  3.270931886011E-06
  1.302734098039E-06  2.414701454289E-07  0.000000000000E+00  0.000000000000E+00
  0.000000000000E+00  0.000000000000E+00  0.000000000000E+00  0.000000000000E+00
  0.000000000000E+00  0.000000000000E+00  0.000000000000E+00  0.000000000000E+00
  0.000000000000E+00  0.000000000000E+00  0.000000000000E+00  0.000000000000E+00
  0.000000000000E+00  0.000000000000E+00  0.000000000000E+00  0.000000000000E+00
  0.000000000000E+00  0.000000000000E+00  0.000000000000E+00  0.000000000000E+00
  0.000000000000E+00  0.000000000000E+00  0.000000000000E+00  0.000000000000E+00
  0.000000000000E+00  0.000000000000E+00  0.000000000000E+00  0.000000000000E+00
  0.000000000000E+00  0.000000000000E+00  0.000000000000E+00  0.000000000000E+00
  0.000000000000E+00  0.000000000000E+00  0.000000000000E+00  0.000000000000E+00
  0.000000000000E+00  0.000000000000E+00  0.000000000000E+00  0.000000000000E+00
  0.000000000000E+00  0.000000000000E+00  0.000000000000E+00  0.000000000000E+00
  0.000000000000E+00  0.000000000000E+00  0.000000000000E+00  0.000000000000E+00
  0.000000000000E+00  0.000000000000E+00  0.000000000000E+00  0.000000000000E+00
  0.000000000000E+00  0.000000000000E+00  0.000000000000E+00  0.000000000000E+00
  0.000000000000E+00  0.000000000000E+00  0.000000000000E+00
</data>
</radfunc>
</pseudocore-charge>
<semilocal-potentials set="scalar_relativistic">
<slps n="5" l="s" rc="1.97278826605" eref="-0.648700508763">
<radfunc>
<data npts="291">
  1.701670925928E+01  1.700590886201E+01  1.697261778954E+01  1.691762801658E+01
  1.684141399689E+01  1.674162427565E+01  1.661513606811E+01  1.647124092171E+01
  1.631063867000E+01  1.612492682857E+01  1.591760509806E+01  1.569463799271E+01
  1.542841951060E+01  1.515410948219E+01  1.488380919039E+01  1.457698403334E+01
  1.422952314650E+01  1.390581569390E+01  1.354830312743E+01  1.315436673864E+01
  1.272140195136E+01  1.234522476040E+01  1.194121465637E+01  1.150822607619E+01
  1.104523065740E+01  1.055135063660E+01  1.002589473570E+01  9.610790652680E+00
  9.177555249508E+00  8.726179159343E+00  8.256754449261E+00  7.769483273446E+00
  7.264685946474E+00  6.742808218681E+00  6.204427529530E+00  5.650258015861E+00
  5.081154060730E+00  4.498112186269E+00  4.102230841120E+00  3.701030259056E+00
  3.294909905581E+00  2.884295870818E+00  2.469640029163E+00  2.051419016529E+00
  1.630133029182E+00  1.206304450559E+00  7.804763147991E-01  3.532106179951E-01
 -7.491350969795E-02 -5.033017560618E-01 -9.313466862082E-01 -1.358429891317E+00
 -1.783924207683E+00 -2.207195986464E+00 -2.627607394385E+00 -3.044518725988E+00
 -3.457290708854E+00 -3.865286784543E+00 -4.267875349824E+00 -4.664431945082E+00
 -5.054341379584E+00 -5.436999786490E+00 -5.811816604134E+00 -6.178216484067E+00
 -6.535641130596E+00 -6.883551081071E+00 -7.221427440730E+00 -7.386446913923E+00
 -7.548773590609E+00 -7.708349153492E+00 -7.865116891562E+00 -8.019021755100E+00
 -8.170010411806E+00 -8.318031304314E+00 -8.463034709397E+00 -8.604972799150E+00
 -8.743799704468E+00 -8.879471581116E+00 -9.011946678714E+00 -9.141185412938E+00
 -9.267150441240E+00 -9.389806742393E+00 -9.509121700131E+00 -9.625065191153E+00
 -9.737609677728E+00 -9.846730305123E+00 -9.952405004013E+00 -1.005461459802E+01
 -1.015334291649E+01 -1.024857691241E+01 -1.034030678572E+01 -1.042852611146E+01
 -1.051323197308E+01 -1.059442510010E+01 -1.067211001020E+01 -1.074629515490E+01
 -1.081699306828E+01 -1.088422051814E+01 -1.094799865842E+01 -1.100835318195E+01
 -1.106531447234E+01 -1.111891775344E+01 -1.116920323484E+01 -1.121621625160E+01
 -1.126000739622E+01 -1.130063264059E+01 -1.133815344546E+01 -1.137263685497E+01
 -1.140415557318E+01 -1.143278801975E+01 -1.145861836143E+01 -1.148173651610E+01
 -1.150223812574E+01 -1.152022449470E+01 -1.153580248968E+01 -1.154908439747E+01
 -1.156018773688E+01 -1.156923502109E+01 -1.157635346685E+01 -1.158167464734E+01
 -1.158533408538E+01 -1.158747078450E+01 -1.158822669543E+01 -1.158774611645E+01
 -1.158617502630E+01 -1.158366034948E+01 -1.158034915424E+01 -1.157638778465E+01
 -1.157192092921E+01 -1.156709062917E+01 -1.156203523137E+01 -1.155688829110E+01
 -1.155177743206E+01 -1.154682317137E+01 -1.154213771919E+01 -1.153782376330E+01
 -1.153397325032E+01 -1.153066617621E+01 -1.152796939969E+01 -1.152593549286E+01
 -1.152460164406E+01 -1.152398862858E+01 -1.152409986277E+01 -1.152492055767E+01
 -1.152641698780E+01 -1.152853589066E+01 -1.153120401191E+01 -1.153432781044E+01
 -1.153779333687E+01 -1.154146629754E+01 -1.154519231510E+01 -1.154879739511E+01