I     ONCVPSP-3.3.0  r_core=   1.97279   1.85857   1.85857
53.0000     17.0000      171103    zatom,zion,pspd
8   -1012   2     4   600     0    pspcod,pspxc,lmax,lloc,mmax,r2well
5.99000000  8.80000000  0.00000000    rchrg fchrg qchrg
2     2     2     0     0    nproj
1     1           extension_switch
0                         7.4372949007283D+00  1.3343471762473D+00
1  0.0000000000000D+00  8.5566137508764D-12 -4.6691178701153D-11
2  1.0000000000000D-02  1.0812661924826D-02  2.5871789922884D-02
3  2.0000000000000D-02  2.1666584757186D-02  5.1601998155394D-02
4  3.0000000000000D-02  3.2602841466025D-02  7.7049717020618D-02
5  4.0000000000000D-02  4.3662129812864D-02  1.0207538394147D-01
6  5.0000000000000D-02  5.4884586420330D-02  1.2654144668465D-01
7  6.0000000000000D-02  6.6309602841352D-02  1.5031301987035D-01
8  7.0000000000000D-02  7.7975644285932D-02  1.7325852989109D-01
9  8.0000000000000D-02  8.9920071653817D-02  1.9525034542958D-01
10  9.0000000000000D-02  1.0217896751080D-01  2.1616539082371D-01
11  1.0000000000000D-01  1.1478696663363D-01  2.3588573959597D-01
12  1.1000000000000D-01  1.2777709173381D-01  2.5429918554455D-01
13  1.2000000000000D-01  1.4118059495380D-01  2.7129978888450D-01
14  1.3000000000000D-01  1.5502680571035D-01  2.8678839502818D-01
15  1.4000000000000D-01  1.6934298543933D-01  3.0067312370549D-01
16  1.5000000000000D-01  1.8415418977360D-01  3.1286982624521D-01
17  1.6000000000000D-01  1.9948313866145D-01  3.2330250896845D-01
18  1.7000000000000D-01  2.1535009490713D-01  3.3190372078399D-01
19  1.8000000000000D-01  2.3177275158707D-01  3.3861490322228D-01
20  1.9000000000000D-01  2.4876612876657D-01  3.4338670129905D-01
21  2.0000000000000D-01  2.6634247991042D-01  3.4617923376148D-01
22  2.1000000000000D-01  2.8451120834924D-01  3.4696232143807D-01
23  2.2000000000000D-01  3.0327879412942D-01  3.4571567258729D-01
24  2.3000000000000D-01  3.2264873153990D-01  3.4242902431979D-01
25  2.4000000000000D-01  3.4262147757320D-01  3.3710223935283D-01
26  2.5000000000000D-01  3.6319441154094D-01  3.2974535754363D-01
27  2.6000000000000D-01  3.8436180602641D-01  3.2037860183942D-01
28  2.7000000000000D-01  4.0611480931792D-01  3.0903233847560D-01
29  2.8000000000000D-01  4.2844143942735D-01  2.9574699144875D-01
30  2.9000000000000D-01  4.5132658975822D-01  2.8057291148734D-01
31  3.0000000000000D-01  4.7475204644742D-01  2.6357019993948D-01
32  3.1000000000000D-01  4.9869651736372D-01  2.4480848819271D-01
33  3.2000000000000D-01  5.2313567270545D-01  2.2436667343483D-01
34  3.3000000000000D-01  5.4804219709870D-01  2.0233261175730D-01
35  3.4000000000000D-01  5.7338585305655D-01  1.7880276979089D-01
36  3.5000000000000D-01  5.9913355561907D-01  1.5388183624878D-01
37  3.6000000000000D-01  6.2524945795363D-01  1.2768229493261D-01
38  3.7000000000000D-01  6.5169504765526D-01  1.0032396093124D-01
39  3.8000000000000D-01  6.7842925344774D-01  7.1933481911352D-02
40  3.9000000000000D-01  7.0540856194752D-01  4.2643806559660D-02
41  4.0000000000000D-01  7.3258714411551D-01  1.2593622390938D-02
42  4.1000000000000D-01  7.5991699098524D-01 -1.8073234719378D-02
43  4.2000000000000D-01  7.8734805822097D-01 -4.9208396782965D-02
44  4.3000000000000D-01  8.1482841902541D-01 -8.0659603105717D-02
45  4.4000000000000D-01  8.4230442488469D-01 -1.1227136011795D-01
46  4.5000000000000D-01  8.6972087360759D-01 -1.4388561878672D-01
47  4.6000000000000D-01  8.9702118408706D-01 -1.7534246667733D-01
48  4.7000000000000D-01  9.2414757718540D-01 -2.0648083164992D-01
49  4.8000000000000D-01  9.5104126211924D-01 -2.3713919411054D-01
50  4.9000000000000D-01  9.7764262769796D-01 -2.6715630468069D-01
51  5.0000000000000D-01  1.0038914377483D+00 -2.9637190410904D-01
52  5.1000000000000D-01  1.0297270300397D+00 -3.2462744222214D-01
53  5.2000000000000D-01  1.0550885180100D+00 -3.5176679269748D-01
54  5.3000000000000D-01  1.0799149945751D+00 -3.7763696044451D-01
55  5.4000000000000D-01  1.1041457373000D+00 -4.0208877839471D-01
56  5.5000000000000D-01  1.1277204141951D+00 -4.2497759053258D-01
57  5.6000000000000D-01  1.1505792894014D+00 -4.4616391804441D-01
58  5.7000000000000D-01  1.1726634280214D+00 -4.6551410552171D-01
59  5.8000000000000D-01  1.1939148993554D+00 -4.8290094422972D-01
60  5.9000000000000D-01  1.2142769778049D+00 -4.9820426954022D-01
61  6.0000000000000D-01  1.2336943407104D+00 -5.1131152972985D-01
62  6.1000000000000D-01  1.2521132623995D+00 -5.2211832346099D-01
63  6.2000000000000D-01  1.2694818037339D+00 -5.3052890339152D-01
64  6.3000000000000D-01  1.2857499964556D+00 -5.3645664350142D-01
65  6.4000000000000D-01  1.3008700216527D+00 -5.3982446787848D-01
66  6.5000000000000D-01  1.3147963816821D+00 -5.4056523887057D-01
67  6.6000000000000D-01  1.3274860649110D+00 -5.3862210268913D-01
68  6.7000000000000D-01  1.3388987026624D+00 -5.3394879073510D-01
69  6.8000000000000D-01  1.3489967177788D+00 -5.2650987511433D-01
70  6.9000000000000D-01  1.3577454642465D+00 -5.1628097701483D-01
71  7.0000000000000D-01  1.3651133573565D+00 -5.0324892683068D-01
72  7.1000000000000D-01  1.3710719939120D+00 -4.8741187513621D-01
73  7.2000000000000D-01  1.3755962620286D+00 -4.6877935383915D-01
74  7.3000000000000D-01  1.3786644401121D+00 -4.4737228707088D-01
75  7.4000000000000D-01  1.3802582846380D+00 -4.2322295160544D-01
76  7.5000000000000D-01  1.3803631064008D+00 -3.9637488683409D-01
77  7.6000000000000D-01  1.3789678349412D+00 -3.6688275455949D-01
78  7.7000000000000D-01  1.3760650709066D+00 -3.3481214911087D-01
79  7.8000000000000D-01  1.3716511261441D+00 -3.0023935851749D-01
80  7.9000000000000D-01  1.3657260513730D+00 -2.6325107771168D-01
81  8.0000000000000D-01  1.3582936513292D+00 -2.2394407496410D-01
82  8.1000000000000D-01  1.3493614873236D+00 -1.8242481297944D-01
83  8.2000000000000D-01  1.3389408672028D+00 -1.3880902630151D-01
84  8.3000000000000D-01  1.3270468227502D+00 -9.3221256890565D-02
85  8.4000000000000D-01  1.3136980746120D+00 -4.5794349940905D-02
86  8.5000000000000D-01  1.2989169848805D+00  3.3310877959295D-03
87  8.6000000000000D-01  1.2827294975161D+00  5.4007264730950D-02
88  8.7000000000000D-01  1.2651650668333D+00  1.0607981357380D-01
89  8.8000000000000D-01  1.2462565743222D+00  1.5938843009500D-01
90  8.9000000000000D-01  1.2260402341232D+00  2.1376753857426D-01
91  9.0000000000000D-01  1.2045554875126D+00  2.6904698085862D-01
92  9.1000000000000D-01  1.1818448868005D+00  3.2505272583267D-01
93  9.2000000000000D-01  1.1579539690821D+00  3.8160759599730D-01
94  9.3000000000000D-01  1.1329311203193D+00  4.3853200776314D-01
95  9.4000000000000D-01  1.1068274302687D+00  4.9564472199229D-01
96  9.5000000000000D-01  1.0796965388028D+00  5.5276360126558D-01
97  9.6000000000000D-01  1.0515944742039D+00  6.0970637031419D-01
98  9.7000000000000D-01  1.0225794840391D+00  6.6629137603414D-01
99  9.8000000000000D-01  9.9271185925160D-01  7.2233834349939D-01
100  9.9000000000000D-01  9.6205375212341D-01  7.7766912440570D-01
101  1.0000000000000D+00  9.3066898879149D-01  8.3210843441085D-01
102  1.0100000000000D+00  8.9862287701094D-01  8.8548457588894D-01
103  1.0200000000000D+00  8.6598200987762D-01  9.3763014268908D-01
104  1.0300000000000D+00  8.3281406623218D-01  9.8838270357194D-01
105  1.0400000000000D+00  7.9918760847744D-01  1.0375854611071D+00
106  1.0500000000000D+00  7.6517187854571D-01  1.0850878829348D+00
107  1.0600000000000D+00  7.3083659275555D-01  1.1307463024341D+00
108  1.0700000000000D+00  6.9625173629658D-01  1.1744244859943D+00
109  1.0800000000000D+00  6.6148735807670D-01  1.2159941642562D+00
110  1.0900000000000D+00  6.2661336666069D-01  1.2553355248643D+00
111  1.1000000000000D+00  5.9169932801742D-01  1.2923376644811D+00
112  1.1100000000000D+00  5.5681426578166D-01  1.3268989980111D+00
113  1.1200000000000D+00  5.2202646471851D-01  1.3589276232198D+00
114  1.1300000000000D+00  4.8740327806430D-01  1.3883416391200D+00
115  1.1400000000000D+00  4.5301093939209D-01  1.4150694167864D+00
116  1.1500000000000D+00  4.1891437962932D-01  1.4390498214684D+00
117  1.1600000000000D+00  3.8517704982469D-01  1.4602323851639D+00
118  1.1700000000000D+00  3.5186075024258D-01  1.4785774289879D+00
119  1.1800000000000D+00  3.1902546632183D-01  1.4940561350296D+00
120  1.1900000000000D+00  2.8672921200893D-01  1.5066505675975D+00
121  1.2000000000000D+00  2.5502788093918D-01  1.5163536440305D+00
122  1.2100000000000D+00  2.2397510591206D-01  1.5231690554612D+00
123  1.2200000000000D+00  1.9362212705665D-01  1.5271111382676D+00
124  1.2300000000000D+00  1.6401766904592D-01  1.5282046971769D+00
125  1.2400000000000D+00  1.3520782770122D-01  1.5264847811127D+00
126  1.2500000000000D+00  1.0723596625782D-01  1.5219964133070D+00
127  1.2600000000000D+00  8.0142621531295D-02  1.5147942773500D+00
128  1.2700000000000D+00  5.3965420204117D-02  1.5049423609803D+00
129  1.2800000000000D+00  2.8739005383093D-02  1.4925135597853D+00
130  1.2900000000000D+00  4.4949735371821D-03  1.4775892431470D+00
131  1.3000000000000D+00 -1.8738178081873D-02  1.4602587848241D+00
132  1.3100000000000D+00 -4.0935093512304D-02  1.4406190609134D+00
133  1.3200000000000D+00 -6.2073589664664D-02  1.4187739180442D+00
134  1.3300000000000D+00 -8.2134677419052D-02  1.3948336146590D+00
135  1.3400000000000D+00 -1.0110257234847D-01  1.3689142385910D+00
136  1.3500000000000D+00 -1.1896469518544D-01  1.3411371041054D+00
137  1.3600000000000D+00 -1.3571166215156D-01  1.3116281316470D+00
138  1.3700000000000D+00 -1.5133726538288D-01  1.2805172137469D+00
139  1.3800000000000D+00 -1.6583844364173D-01  1.2479375704252D+00
140  1.3900000000000D+00 -1.7921524356516D-01  1.2140250975958D+00
141  1.4000000000000D+00 -1.9147077176441D-01  1.1789177118855D+00
142  1.4100000000000D+00 -2.0261113803195D-01  1.1427546953672D+00
143  1.4200000000000D+00 -2.1264539003678D-01  1.1056760436110D+00
144  1.4300000000000D+00 -2.2158543984186D-01  1.0678218203925D+00
145  1.4400000000000D+00 -2.2944598261361D-01  1.0293315225215D+00
146  1.4500000000000D+00 -2.3624440795273D-01  9.9034345774289D-01
147  1.4600000000000D+00 -2.4200070421324D-01  9.5099413920885D-01
148  1.4700000000000D+00 -2.4673735628056D-01  9.1141769916898D-01
149  1.4800000000000D+00 -2.5047923721646D-01  8.7174532496272D-01
150  1.4900000000000D+00 -2.5325349423429D-01  8.3210472005769D-01
151  1.5000000000000D+00 -2.5508942945555D-01  7.9261959234365D-01
152  1.5100000000000D+00 -2.5601837590712D-01  7.5340917270862D-01
153  1.5200000000000D+00 -2.5607356922177D-01  7.1458776510496D-01
154  1.5300000000000D+00 -2.5529001550948D-01  6.7626433119816D-01
155  1.5400000000000D+00 -2.5370435585262D-01  6.3854211021480D-01
156  1.5500000000000D+00 -2.5135472789230D-01  6.0151827642255D-01
157  1.5600000000000D+00 -2.4828062495254D-01  5.6528363491108D-01
158  1.5700000000000D+00 -2.4452275314359D-01  5.2992235694326D-01
159  1.5800000000000D+00 -2.4012288689802D-01  4.9551175582252D-01
160  1.5900000000000D+00 -2.3512372332744D-01  4.6212210323896D-01
161  1.6000000000000D+00 -2.2956873587319D-01  4.2981648736286D-01
162  1.6100000000000D+00 -2.2350202756283D-01  3.9865071132466D-01
163  1.6200000000000D+00 -2.1696818437363D-01  3.6867323363433D-01
164  1.6300000000000D+00 -2.1001212892421D-01  3.3992514794013D-01
165  1.6400000000000D+00 -2.0267897502531D-01  3.1244020385825D-01
166  1.6500000000000D+00 -1.9501388321460D-01  2.8624486520761D-01
167  1.6600000000000D+00 -1.8706191782801D-01  2.6135840735799D-01
168  1.6700000000000D+00 -1.7886790565086D-01  2.3779304933012D-01
169  1.6800000000000D+00 -1.7047629669348D-01  2.1555412193462D-01
170  1.6900000000000D+00 -1.6193102707809D-01  1.9464026732059D-01
171  1.7000000000000D+00 -1.5327538455881D-01  1.7504367062296D-01
172  1.7100000000000D+00 -1.4455187660722D-01  1.5675031893537D-01
173  1.7200000000000D+00 -1.3580210156682D-01  1.3974028773609D-01
174  1.7300000000000D+00 -1.2706662275029D-01  1.2398804993800D-01
175  1.7400000000000D+00 -1.1838484596889D-01  1.0946280712019D-01
176  1.7500000000000D+00 -1.0979490031551D-01  9.6128838262006D-02
177  1.7600000000000D+00 -1.0133352169965D-01  8.3945861145459D-02
178  1.7700000000000D+00 -9.3035945330999D-02  7.2869426621418D-02
179  1.7800000000000D+00 -8.4935783382793D-02  6.2851252939514D-02
180  1.7900000000000D+00 -7.7064955245617D-02  5.3839745359959D-02
181  1.8000000000000D+00 -6.9453562792024D-02  4.5780310924365D-02
182  1.8100000000000D+00 -6.2129726141723D-02  3.8615490239984D-02
183  1.8200000000000D+00 -5.5119605592627D-02  3.2285789012005D-02
184  1.8300000000000D+00 -4.8447463522005D-02  2.6730657471851D-02
185  1.8400000000000D+00 -4.2135719287758D-02  2.1889356950402D-02
186  1.8500000000000D+00 -3.6205063100762D-02  1.7701973560919D-02
187  1.8600000000000D+00 -3.0674534862558D-02  1.4110276453923D-02
188  1.8700000000000D+00 -2.5561436756459D-02  1.1057892430351D-02
189  1.8800000000000D+00 -2.0881288834365D-02  8.4905952592555D-03
190  1.8900000000000D+00 -1.6647845065868D-02  6.3568247605080D-03
191  1.9000000000000D+00 -1.2873061819834D-02  4.6079707428246D-03
192  1.9100000000000D+00 -9.5690357281146D-03  3.1989127667291D-03
193  1.9200000000000D+00 -6.7404155907151D-03  2.0874791143280D-03
194  1.9300000000000D+00 -4.3864133581192D-03  1.2354187850005D-03
195  1.9400000000000D+00 -2.5203505694192D-03  6.0930764359305D-04
196  1.9500000000000D+00 -1.1729411290752D-03  1.7999304365677D-04
197  1.9600000000000D+00 -3.4417095430197D-04 -8.1618205860605D-05
198  1.9700000000000D+00  5.5506448594494D-05 -1.8848656067202D-04
199  1.9800000000000D+00  1.4126968806843D-04 -1.5724660142605D-04
200  1.9900000000000D+00  6.6038438656910D-05 -5.9666007879999D-05
201  2.0000000000000D+00 -1.8078863737563D-05  1.5407737734824D-05
202  2.0100000000000D+00 -2.9989527069533D-05  2.4207229237726D-05
203  2.0200000000000D+00 -1.4688033188852D-06  1.1459793430972D-06
204  2.0300000000000D+00  6.1900393904989D-06 -5.6406943037317D-06
205  2.0400000000000D+00  3.3583065743820D-06 -2.9992585954475D-06
206  2.0500000000000D+00 -2.0810311599165D-07  3.8082296516577D-07
207  2.0600000000000D+00 -2.6908555309545D-07  4.9241914386899D-07
208  2.0700000000000D+00  0.0000000000000D+00  0.0000000000000D+00
209  2.0800000000000D+00  0.0000000000000D+00  0.0000000000000D+00
210  2.0900000000000D+00  0.0000000000000D+00  0.0000000000000D+00
211  2.1000000000000D+00  0.0000000000000D+00  0.0000000000000D+00
212  2.1100000000000D+00  0.0000000000000D+00  0.0000000000000D+00
213  2.1200000000000D+00  0.0000000000000D+00  0.0000000000000D+00
214  2.1300000000000D+00  0.0000000000000D+00  0.0000000000000D+00
215  2.1400000000000D+00  0.0000000000000D+00  0.0000000000000D+00
216  2.1500000000000D+00  0.0000000000000D+00  0.0000000000000D+00
217  2.1600000000000D+00  0.0000000000000D+00  0.0000000000000D+00
218  2.1700000000000D+00  0.0000000000000D+00  0.0000000000000D+00
219  2.1800000000000D+00  0.0000000000000D+00  0.0000000000000D+00
220  2.1900000000000D+00  0.0000000000000D+00  0.0000000000000D+00
221  2.2000000000000D+00  0.0000000000000D+00  0.0000000000000D+00
222  2.2100000000000D+00  0.0000000000000D+00  0.0000000000000D+00
223  2.2200000000000D+00  0.0000000000000D+00  0.0000000000000D+00
224  2.2300000000000D+00  0.0000000000000D+00  0.0000000000000D+00
225  2.2400000000000D+00  0.0000000000000D+00  0.0000000000000D+00
226  2.2500000000000D+00  0.0000000000000D+00  0.0000000000000D+00
227  2.2600000000000D+00  0.0000000000000D+00  0.0000000000000D+00
228  2.2700000000000D+00  0.0000000000000D+00  0.0000000000000D+00
229  2.2800000000000D+00  0.0000000000000D+00  0.0000000000000D+00
230  2.2900000000000D+00  0.0000000000000D+00  0.0000000000000D+00
231  2.3000000000000D+00  0.0000000000000D+00  0.0000000000000D+00
232  2.3100000000000D+00  0.0000000000000D+00  0.0000000000000D+00
233  2.3200000000000D+00  0.0000000000000D+00  0.0000000000000D+00
234  2.3300000000000D+00  0.0000000000000D+00  0.0000000000000D+00
235  2.3400000000000D+00  0.0000000000000D+00  0.0000000000000D+00
236  2.3500000000000D+00  0.0000000000000D+00  0.0000000000000D+00
237  2.3600000000000D+00  0.0000000000000D+00  0.0000000000000D+00
238  2.3700000000000D+00  0.0000000000000D+00  0.0000000000000D+00
239  2.3800000000000D+00  0.0000000000000D+00  0.0000000000000D+00
240  2.3900000000000D+00  0.0000000000000D+00  0.0000000000000D+00
241  2.4000000000000D+00  0.0000000000000D+00  0.0000000000000D+00
242  2.4100000000000D+00  0.0000000000000D+00  0.0000000000000D+00
243  2.4200000000000D+00  0.0000000000000D+00  0.0000000000000D+00
244  2.4300000000000D+00  0.0000000000000D+00  0.0000000000000D+00
245  2.4400000000000D+00  0.0000000000000D+00  0.0000000000000D+00
246  2.4500000000000D+00  0.0000000000000D+00  0.0000000000000D+00
247  2.4600000000000D+00  0.0000000000000D+00  0.0000000000000D+00
248  2.4700000000000D+00  0.0000000000000D+00  0.0000000000000D+00
249  2.4800000000000D+00  0.0000000000000D+00  0.0000000000000D+00
250  2.4900000000000D+00  0.0000000000000D+00  0.0000000000000D+00
251  2.5000000000000D+00  0.0000000000000D+00  0.0000000000000D+00
252  2.5100000000000D+00  0.0000000000000D+00  0.0000000000000D+00
253  2.5200000000000D+00  0.0000000000000D+00  0.0000000000000D+00
254  2.5300000000000D+00  0.0000000000000D+00  0.0000000000000D+00
255  2.5400000000000D+00  0.0000000000000D+00  0.0000000000000D+00
256  2.5500000000000D+00  0.0000000000000D+00  0.0000000000000D+00
257  2.5600000000000D+00  0.0000000000000D+00  0.0000000000000D+00
258  2.5700000000000D+00  0.0000000000000D+00  0.0000000000000D+00
259  2.5800000000000D+00  0.0000000000000D+00  0.0000000000000D+00
260  2.5900000000000D+00  0.0000000000000D+00  0.0000000000000D+00
261  2.6000000000000D+00  0.0000000000000D+00  0.0000000000000D+00
262  2.6100000000000D+00  0.0000000000000D+00  0.0000000000000D+00
263  2.6200000000000D+00  0.0000000000000D+00  0.0000000000000D+00
264  2.6300000000000D+00  0.0000000000000D+00  0.0000000000000D+00
265  2.6400000000000D+00  0.0000000000000D+00  0.0000000000000D+00
266  2.6500000000000D+00  0.0000000000000D+00  0.0000000000000D+00
267  2.6600000000000D+00  0.0000000000000D+00  0.0000000000000D+00
268  2.6700000000000D+00  0.0000000000000D+00  0.0000000000000D+00
269  2.6800000000000D+00  0.0000000000000D+00  0.0000000000000D+00
270  2.6900000000000D+00  0.0000000000000D+00  0.0000000000000D+00
271  2.7000000000000D+00  0.0000000000000D+00  0.0000000000000D+00
272  2.7100000000000D+00  0.0000000000000D+00  0.0000000000000D+00
273  2.7200000000000D+00  0.0000000000000D+00  0.0000000000000D+00
274  2.7300000000000D+00  0.0000000000000D+00  0.0000000000000D+00
275  2.7400000000000D+00  0.0000000000000D+00  0.0000000000000D+00
276  2.7500000000000D+00  0.0000000000000D+00  0.0000000000000D+00
277  2.7600000000000D+00  0.0000000000000D+00  0.0000000000000D+00
278  2.7700000000000D+00  0.0000000000000D+00  0.0000000000000D+00
279  2.7800000000000D+00  0.0000000000000D+00  0.0000000000000D+00
280  2.7900000000000D+00  0.0000000000000D+00  0.0000000000000D+00
281  2.8000000000000D+00  0.0000000000000D+00  0.0000000000000D+00
282  2.8100000000000D+00  0.0000000000000D+00  0.0000000000000D+00
283  2.8200000000000D+00  0.0000000000000D+00  0.0000000000000D+00
284  2.8300000000000D+00  0.0000000000000D+00  0.0000000000000D+00
285  2.8400000000000D+00  0.0000000000000D+00  0.0000000000000D+00
286  2.8500000000000D+00  0.0000000000000D+00  0.0000000000000D+00
287  2.8600000000000D+00  0.0000000000000D+00  0.0000000000000D+00
288  2.8700000000000D+00  0.0000000000000D+00  0.0000000000000D+00
289  2.8800000000000D+00  0.0000000000000D+00  0.0000000000000D+00
290  2.8900000000000D+00  0.0000000000000D+00  0.0000000000000D+00
291  2.9000000000000D+00  0.0000000000000D+00  0.0000000000000D+00
292  2.9100000000000D+00  0.0000000000000D+00  0.0000000000000D+00
293  2.9200000000000D+00  0.0000000000000D+00  0.0000000000000D+00
294  2.9300000000000D+00  0.0000000000000D+00  0.0000000000000D+00
295  2.9400000000000D+00  0.0000000000000D+00  0.0000000000000D+00
296  2.9500000000000D+00  0.0000000000000D+00  0.0000000000000D+00
297  2.9600000000000D+00  0.0000000000000D+00  0.0000000000000D+00
298  2.9700000000000D+00  0.0000000000000D+00  0.0000000000000D+00
299  2.9800000000000D+00  0.0000000000000D+00  0.0000000000000D+00
300  2.9900000000000D+00  0.0000000000000D+00  0.0000000000000D+00
301  3.0000000000000D+00  0.0000000000000D+00  0.0000000000000D+00
302  3.0100000000000D+00  0.0000000000000D+00  0.0000000000000D+00
303  3.0200000000000D+00  0.0000000000000D+00  0.0000000000000D+00
304  3.0300000000000D+00  0.0000000000000D+00  0.0000000000000D+00
305  3.0400000000000D+00  0.0000000000000D+00  0.0000000000000D+00
306  3.0500000000000D+00  0.0000000000000D+00  0.0000000000000D+00
307  3.0600000000000D+00  0.0000000000000D+00  0.0000000000000D+00
308  3.0700000000000D+00  0.0000000000000D+00  0.0000000000000D+00
309  3.0800000000000D+00  0.0000000000000D+00  0.0000000000000D+00
310  3.0900000000000D+00  0.0000000000000D+00  0.0000000000000D+00
311  3.1000000000000D+00  0.0000000000000D+00  0.0000000000000D+00
312  3.1100000000000D+00  0.0000000000000D+00  0.0000000000000D+00
313  3.1200000000000D+00  0.0000000000000D+00  0.0000000000000D+00
314  3.1300000000000D+00  0.0000000000000D+00  0.0000000000000D+00
315  3.1400000000000D+00  0.0000000000000D+00  0.0000000000000D+00
316  3.1500000000000D+00  0.0000000000000D+00  0.0000000000000D+00
317  3.1600000000000D+00  0.0000000000000D+00  0.0000000000000D+00
318  3.1700000000000D+00  0.0000000000000D+00  0.0000000000000D+00
319  3.1800000000000D+00  0.0000000000000D+00  0.0000000000000D+00
320  3.1900000000000D+00  0.0000000000000D+00  0.0000000000000D+00
321  3.2000000000000D+00  0.0000000000000D+00  0.0000000000000D+00
322  3.2100000000000D+00  0.0000000000000D+00  0.0000000000000D+00
323  3.2200000000000D+00  0.0000000000000D+00  0.0000000000000D+00
324  3.2300000000000D+00  0.0000000000000D+00  0.0000000000000D+00
325  3.2400000000000D+00  0.0000000000000D+00  0.0000000000000D+00
326  3.2500000000000D+00  0.0000000000000D+00  0.0000000000000D+00
327  3.2600000000000D+00  0.0000000000000D+00  0.0000000000000D+00
328  3.2700000000000D+00  0.0000000000000D+00  0.0000000000000D+00
329  3.2800000000000D+00  0.0000000000000D+00  0.0000000000000D+00
330  3.2900000000000D+00  0.0000000000000D+00  0.0000000000000D+00
331  3.3000000000000D+00  0.0000000000000D+00  0.0000000000000D+00
332  3.3100000000000D+00  0.0000000000000D+00  0.0000000000000D+00
333  3.3200000000000D+00  0.0000000000000D+00  0.0000000000000D+00
334  3.3300000000000D+00  0.0000000000000D+00  0.0000000000000D+00
335  3.3400000000000D+00  0.0000000000000D+00  0.0000000000000D+00
336  3.3500000000000D+00  0.0000000000000D+00  0.0000000000000D+00
337  3.3600000000000D+00  0.0000000000000D+00  0.0000000000000D+00
338  3.3700000000000D+00  0.0000000000000D+00  0.0000000000000D+00
339  3.3800000000000D+00  0.0000000000000D+00  0.0000000000000D+00
340  3.3900000000000D+00  0.0000000000000D+00  0.0000000000000D+00
341  3.4000000000000D+00  0.0000000000000D+00  0.0000000000000D+00
342  3.4100000000000D+00  0.0000000000000D+00  0.0000000000000D+00
343  3.4200000000000D+00  0.0000000000000D+00  0.0000000000000D+00
344  3.4300000000000D+00  0.0000000000000D+00  0.0000000000000D+00
345  3.4400000000000D+00  0.0000000000000D+00  0.0000000000000D+00
346  3.4500000000000D+00  0.0000000000000D+00  0.0000000000000D+00
347  3.4600000000000D+00  0.0000000000000D+00  0.0000000000000D+00
348  3.4700000000000D+00  0.0000000000000D+00  0.0000000000000D+00
349  3.4800000000000D+00  0.0000000000000D+00  0.0000000000000D+00
350  3.4900000000000D+00  0.0000000000000D+00  0.0000000000000D+00
351  3.5000000000000D+00  0.0000000000000D+00  0.0000000000000D+00
352  3.5100000000000D+00  0.0000000000000D+00  0.0000000000000D+00
353  3.5200000000000D+00  0.0000000000000D+00  0.0000000000000D+00
354  3.5300000000000D+00  0.0000000000000D+00  0.0000000000000D+00
355  3.5400000000000D+00  0.0000000000000D+00  0.0000000000000D+00
356  3.5500000000000D+00  0.0000000000000D+00  0.0000000000000D+00
357  3.5600000000000D+00  0.0000000000000D+00  0.0000000000000D+00
358  3.5700000000000D+00  0.0000000000000D+00  0.0000000000000D+00
359  3.5800000000000D+00  0.0000000000000D+00  0.0000000000000D+00
360  3.5900000000000D+00  0.0000000000000D+00  0.0000000000000D+00
361  3.6000000000000D+00  0.0000000000000D+00  0.0000000000000D+00
362  3.6100000000000D+00  0.0000000000000D+00  0.0000000000000D+00
363  3.6200000000000D+00  0.0000000000000D+00  0.0000000000000D+00
364  3.6300000000000D+00  0.0000000000000D+00  0.0000000000000D+00
365  3.6400000000000D+00  0.0000000000000D+00  0.0000000000000D+00
366  3.6500000000000D+00  0.0000000000000D+00  0.0000000000000D+00
367  3.6600000000000D+00  0.0000000000000D+00  0.0000000000000D+00
368  3.6700000000000D+00  0.0000000000000D+00  0.0000000000000D+00
369  3.6800000000000D+00  0.0000000000000D+00  0.0000000000000D+00
370  3.6900000000000D+00  0.0000000000000D+00  0.0000000000000D+00
371  3.7000000000000D+00  0.0000000000000D+00  0.0000000000000D+00
372  3.7100000000000D+00  0.0000000000000D+00  0.0000000000000D+00
373  3.7200000000000D+00  0.0000000000000D+00  0.0000000000000D+00
374  3.7300000000000D+00  0.0000000000000D+00  0.0000000000000D+00
375  3.7400000000000D+00  0.0000000000000D+00  0.0000000000000D+00
376  3.7500000000000D+00  0.0000000000000D+00  0.0000000000000D+00
377  3.7600000000000D+00  0.0000000000000D+00  0.0000000000000D+00
378  3.7700000000000D+00  0.0000000000000D+00  0.0000000000000D+00
379  3.7800000000000D+00  0.0000000000000D+00  0.0000000000000D+00
380  3.7900000000000D+00  0.0000000000000D+00  0.0000000000000D+00
381  3.8000000000000D+00  0.0000000000000D+00  0.0000000000000D+00
382  3.8100000000000D+00  0.0000000000000D+00  0.0000000000000D+00
383  3.8200000000000D+00  0.0000000000000D+00  0.0000000000000D+00
384  3.8300000000000D+00  0.0000000000000D+00  0.0000000000000D+00
385  3.8400000000000D+00  0.0000000000000D+00  0.0000000000000D+00
386  3.8500000000000D+00  0.0000000000000D+00  0.0000000000000D+00
387  3.8600000000000D+00  0.0000000000000D+00  0.0000000000000D+00
388  3.8700000000000D+00  0.0000000000000D+00  0.0000000000000D+00
389  3.8800000000000D+00  0.0000000000000D+00  0.0000000000000D+00
390  3.8900000000000D+00  0.0000000000000D+00  0.0000000000000D+00
391  3.9000000000000D+00  0.0000000000000D+00  0.0000000000000D+00
392  3.9100000000000D+00  0.0000000000000D+00  0.0000000000000D+00
393  3.9200000000000D+00  0.0000000000000D+00  0.0000000000000D+00
394  3.9300000000000D+00  0.0000000000000D+00  0.0000000000000D+00
395  3.9400000000000D+00  0.0000000000000D+00  0.0000000000000D+00
396  3.9500000000000D+00  0.0000000000000D+00  0.0000000000000D+00
397  3.9600000000000D+00  0.0000000000000D+00  0.0000000000000D+00
398  3.9700000000000D+00  0.0000000000000D+00  0.0000000000000D+00
399  3.9800000000000D+00  0.0000000000000D+00  0.0000000000000D+00
400  3.9900000000000D+00  0.0000000000000D+00  0.0000000000000D+00
401  4.0000000000000D+00  0.0000000000000D+00  0.0000000000000D+00
402  4.0100000000000D+00  0.0000000000000D+00  0.0000000000000D+00
403  4.0200000000000D+00  0.0000000000000D+00  0.0000000000000D+00
404  4.0300000000000D+00  0.0000000000000D+00  0.0000000000000D+00
405  4.0400000000000D+00  0.0000000000000D+00  0.0000000000000D+00
406  4.0500000000000D+00  0.0000000000000D+00  0.0000000000000D+00
407  4.0600000000000D+00  0.0000000000000D+00  0.0000000000000D+00
408  4.0700000000000D+00  0.0000000000000D+00  0.0000000000000D+00
409  4.0800000000000D+00  0.0000000000000D+00  0.0000000000000D+00
410  4.0900000000000D+00  0.0000000000000D+00  0.0000000000000D+00
411  4.1000000000000D+00  0.0000000000000D+00  0.0000000000000D+00
412  4.1100000000000D+00  0.0000000000000D+00  0.0000000000000D+00
413  4.1200000000000D+00  0.0000000000000D+00  0.0000000000000D+00
414  4.1300000000000D+00  0.0000000000000D+00  0.0000000000000D+00
415  4.1400000000000D+00  0.0000000000000D+00  0.0000000000000D+00
416  4.1500000000000D+00  0.0000000000000D+00  0.0000000000000D+00
417  4.1600000000000D+00  0.0000000000000D+00  0.0000000000000D+00
418  4.1700000000000D+00  0.0000000000000D+00  0.0000000000000D+00
419  4.1800000000000D+00  0.0000000000000D+00  0.0000000000000D+00
420  4.1900000000000D+00  0.0000000000000D+00  0.0000000000000D+00
421  4.2000000000000D+00  0.0000000000000D+00  0.0000000000000D+00
422  4.2100000000000D+00  0.0000000000000D+00  0.0000000000000D+00
423  4.2200000000000D+00  0.0000000000000D+00  0.0000000000000D+00
424  4.2300000000000D+00  0.0000000000000D+00  0.0000000000000D+00
425  4.2400000000000D+00  0.0000000000000D+00  0.0000000000000D+00
426  4.2500000000000D+00  0.0000000000000D+00  0.0000000000000D+00
427  4.2600000000000D+00  0.0000000000000D+00  0.0000000000000D+00
428  4.2700000000000D+00  0.0000000000000D+00  0.0000000000000D+00
429  4.2800000000000D+00  0.0000000000000D+00  0.0000000000000D+00
430  4.2900000000000D+00  0.0000000000000D+00  0.0000000000000D+00
431  4.3000000000000D+00  0.0000000000000D+00  0.0000000000000D+00
432  4.3100000000000D+00  0.0000000000000D+00  0.0000000000000D+00
433  4.3200000000000D+00  0.0000000000000D+00  0.0000000000000D+00
434  4.3300000000000D+00  0.0000000000000D+00  0.0000000000000D+00
435  4.3400000000000D+00  0.0000000000000D+00  0.0000000000000D+00
436  4.3500000000000D+00  0.0000000000000D+00  0.0000000000000D+00
437  4.3600000000000D+00  0.0000000000000D+00  0.0000000000000D+00
438  4.3700000000000D+00  0.0000000000000D+00  0.0000000000000D+00
439  4.3800000000000D+00  0.0000000000000D+00  0.0000000000000D+00
440  4.3900000000000D+00  0.0000000000000D+00  0.0000000000000D+00
441  4.4000000000000D+00  0.0000000000000D+00  0.0000000000000D+00
442  4.4100000000000D+00  0.0000000000000D+00  0.0000000000000D+00
443  4.4200000000000D+00  0.0000000000000D+00  0.0000000000000D+00