Er    ONCVPSP  r_core=  1.82  1.50  1.65  1.71
68.0000     22.0000      160625    zatom,zion,pspd
8      11   3     4   600     0    pspcod,pspxc,lmax,lloc,mmax,r2well
5.99000000  0.25000000  0.00000000    rchrg fchrg qchrg
2     2     2     2     0    nproj
1                 extension_switch
0                         8.2841749156135D+00  6.4151407669689D-01
1  0.0000000000000D+00 -8.7236440293736D-11  4.8587564527303D-10
2  1.0000000000000D-02  5.2764072186874D-02 -2.5108643869130D-02
3  2.0000000000000D-02  1.0544067768195D-01 -5.0023108249610D-02
4  3.0000000000000D-02  1.5794267907001D-01 -7.4550804478855D-02
5  4.0000000000000D-02  2.1018359501211D-01 -9.8502311353858D-02
6  5.0000000000000D-02  2.6207792211396D-01 -1.2169292350357D-01
7  6.0000000000000D-02  3.1354144945259D-01 -1.4394415767846D-01
8  7.0000000000000D-02  3.6449156341747D-01 -1.6508520350346D-01
9  8.0000000000000D-02  4.1484754060890D-01 -1.8495430572639D-01
10  9.0000000000000D-02  4.6453082664467D-01 -2.0340006559380D-01
11  1.0000000000000D-01  5.1346529885277D-01 -2.2028264969538D-01
12  1.1000000000000D-01  5.6157751097353D-01 -2.3547489543051D-01
13  1.2000000000000D-01  6.0879691815738D-01 -2.4886330315984D-01
14  1.3000000000000D-01  6.5505608072257D-01 -2.6034890610358D-01
15  1.4000000000000D-01  7.0029084533005D-01 -2.6984801012760D-01
16  1.5000000000000D-01  7.4444050243767D-01 -2.7729279671084D-01
17  1.6000000000000D-01  7.8744791911173D-01 -2.8263178360192D-01
18  1.7000000000000D-01  8.2925964649869D-01 -2.8583013894002D-01
19  1.8000000000000D-01  8.6982600149107D-01 -2.8686984592412D-01
20  1.9000000000000D-01  9.0910112235815D-01 -2.8574971645491D-01
21  2.0000000000000D-01  9.4704299835051D-01 -2.8248525353235D-01
22  2.1000000000000D-01  9.8361347352726D-01 -2.7710836355960D-01
23  2.2000000000000D-01  1.0187782252918D+00 -2.6966692106679D-01
24  2.3000000000000D-01  1.0525067183562D+00 -2.6022418971508D-01
25  2.4000000000000D-01  1.0847721350807D+00 -2.4885810476112D-01
26  2.5000000000000D-01  1.1155512833557D+00 -2.3566042344154D-01
27  2.6000000000000D-01  1.1448244834001D+00 -2.2073575096565D-01
28  2.7000000000000D-01  1.1725754350477D+00 -2.0420045097109D-01
29  2.8000000000000D-01  1.1987910672750D+00 -1.8618145038994D-01
30  2.9000000000000D-01  1.2234613718874D+00 -1.6681494968282D-01
31  3.0000000000000D-01  1.2465792234313D+00 -1.4624505031440D-01
32  3.1000000000000D-01  1.2681401875246D+00 -1.2462231215849D-01
33  3.2000000000000D-01  1.2881423199056D+00 -1.0210225422376D-01
34  3.3000000000000D-01  1.3065859585849D+00 -7.8843812677972D-02
35  3.4000000000000D-01  1.3234735115470D+00 -5.5007770608557D-02
36  3.5000000000000D-01  1.3388092424811D+00 -3.0755174290500D-02
37  3.6000000000000D-01  1.3525990570367D+00 -6.2457509288813D-03
38  3.7000000000000D-01  1.3648502920838D+00  1.8363657095941D-02
39  3.8000000000000D-01  1.3755715104169D+00  4.2920626531720D-02
40  3.9000000000000D-01  1.3847723032802D+00  6.7278641376992D-02
41  4.0000000000000D-01  1.3924631029986D+00  9.1298520452382D-02
42  4.1000000000000D-01  1.3986550078867D+00  1.1484977054707D-01
43  4.2000000000000D-01  1.4033596214667D+00  1.3781185189808D-01
44  4.3000000000000D-01  1.4065889078671D+00  1.6007534352205D-01
45  4.4000000000000D-01  1.4083550650908D+00  1.8154299680584D-01
46  4.5000000000000D-01  1.4086704176353D+00  2.0213066676636D-01
47  4.6000000000000D-01  1.4075473297323D+00  2.2176811150365D-01
48  4.7000000000000D-01  1.4049981402305D+00  2.4039965158557D-01
49  4.8000000000000D-01  1.4010351198979D+00  2.5798468240524D-01
50  4.9000000000000D-01  1.3956704516570D+00  2.7449803393486D-01
51  5.0000000000000D-01  1.3889162339917D+00  2.8993017374554D-01
52  5.1000000000000D-01  1.3807845074900D+00  3.0428725066367D-01
53  5.2000000000000D-01  1.3712873042013D+00  3.1759097797001D-01
54  5.3000000000000D-01  1.3604367192104D+00  3.2987835661024D-01
55  5.4000000000000D-01  1.3482450035436D+00  3.4120124045351D-01
56  5.5000000000000D-01  1.3347246772562D+00  3.5162574719686D-01
57  5.6000000000000D-01  1.3198886612797D+00  3.6123152005270D-01
58  5.7000000000000D-01  1.3037504263577D+00  3.7011084685373D-01
59  5.8000000000000D-01  1.2863241571596D+00  3.7836764465486D-01
60  5.9000000000000D-01  1.2676249294405D+00  3.8611631928529D-01
61  6.0000000000000D-01  1.2476688979181D+00  3.9348051059132D-01
62  6.1000000000000D-01  1.2264734923574D+00  4.0059173529971D-01
63  6.2000000000000D-01  1.2040576192086D+00  4.0758794050691D-01
64  6.3000000000000D-01  1.1804418660148D+00  4.1461198174669D-01
65  6.4000000000000D-01  1.1556487057195D+00  4.2181004040327D-01
66  6.5000000000000D-01  1.1297026979398D+00  4.2932999589838D-01
67  6.6000000000000D-01  1.1026306842446D+00  4.3731976858933D-01
68  6.7000000000000D-01  1.0744619744836D+00  4.4592564965895D-01
69  6.8000000000000D-01  1.0452285212568D+00  4.5529063445161D-01
70  6.9000000000000D-01  1.0149650796870D+00  4.6555277571226D-01
71  7.0000000000000D-01  9.8370934977322D-01  4.7684357301051D-01
72  7.1000000000000D-01  9.5150209874966D-01  4.8928641428368D-01
73  7.2000000000000D-01  9.1838726105212D-01  5.0299508491160D-01
74  7.3000000000000D-01  8.8441201370979D-01  5.1807235904787D-01
75  7.4000000000000D-01  8.4962682522147D-01  5.3460868707774D-01
76  7.5000000000000D-01  8.1408547624726D-01  5.5268099206876D-01
77  7.6000000000000D-01  7.7784505074338D-01  5.7235158693063D-01
78  7.7000000000000D-01  7.4096589648742D-01  5.9366722271992D-01
79  7.8000000000000D-01  7.0351155427987D-01  6.1665827712642D-01
80  7.9000000000000D-01  6.6554865546200D-01  6.4133809067814D-01
81  8.0000000000000D-01  6.2714678775457D-01  6.6770245662159D-01
82  8.1000000000000D-01  5.8837832979553D-01  6.9572926877830D-01
83  8.2000000000000D-01  5.4931825512851D-01  7.2537832999037D-01
84  8.3000000000000D-01  5.1004390676663D-01  7.5659132204597D-01
85  8.4000000000000D-01  4.7063474382128D-01  7.8929193625619D-01
86  8.5000000000000D-01  4.3117206203838D-01  8.2338616215328D-01
87  8.6000000000000D-01  3.9173869042056D-01  8.5876273012217D-01
88  8.7000000000000D-01  3.5241866642760D-01  8.9529370218330D-01
89  8.8000000000000D-01  3.1329689253391D-01  9.3283520363965D-01
90  8.9000000000000D-01  2.7445877717813D-01  9.7122828690221D-01
91  9.0000000000000D-01  2.3598986335892D-01  1.0102999175406D+00
92  9.1000000000000D-01  1.9797544831144D-01  1.0498640714851D+00
93  9.2000000000000D-01  1.6050019783509D-01  1.0897229313536D+00
94  9.3000000000000D-01  1.2364775893319D-01  1.1296681691011D+00
95  9.4000000000000D-01  8.7500374465017D-02  1.1694823016193D+00
96  9.5000000000000D-01  5.2138503500849D-02  1.2089401055360D+00
97  9.6000000000000D-01  1.7640451005356D-02  1.2478100773095D+00
98  9.7000000000000D-01 -1.5917989642193D-02  1.2858559247810D+00
99  9.8000000000000D-01 -4.8463877954223D-02  1.3228380766269D+00
100  9.9000000000000D-01 -7.9927448355581D-02  1.3585151966653D+00
101  1.0000000000000D+00 -1.1024241008212D-01  1.3926456906859D+00
102  1.0100000000000D+00 -1.3934622245012D-01  1.4249891944176D+00
103  1.0200000000000D+00 -1.6718034335796D-01  1.4553080323628D+00
104  1.0300000000000D+00 -1.9369044929038D-01  1.4833686385111D+00
105  1.0400000000000D+00 -2.1882662556331D-01  1.5089429314655D+00
106  1.0500000000000D+00 -2.4254352601758D-01  1.5318096380720D+00
107  1.0600000000000D+00 -2.6480050188165D-01  1.5517555613614D+00
108  1.0700000000000D+00 -2.8556170007817D-01  1.5685767904988D+00
109  1.0800000000000D+00 -3.0479613172349D-01  1.5820798520516D+00
110  1.0900000000000D+00 -3.2247771219090D-01  1.5920828040170D+00
111  1.1000000000000D+00 -3.3858527459202D-01  1.5984162756955D+00
112  1.1100000000000D+00 -3.5310255907335D-01  1.6009244583328D+00
113  1.1200000000000D+00 -3.6601818080571D-01  1.5994660530463D+00
114  1.1300000000000D+00 -3.7732557998073D-01  1.5939151839845D+00
115  1.1400000000000D+00 -3.8702295759322D-01  1.5841622861191D+00
116  1.1500000000000D+00 -3.9511320108669D-01  1.5701149779128D+00
117  1.1600000000000D+00 -4.0160380421600D-01  1.5516989297914D+00
118  1.1700000000000D+00 -4.0650678569481D-01  1.5288587398383D+00
119  1.1800000000000D+00 -4.0983861131334D-01  1.5015588280249D+00
120  1.1900000000000D+00 -4.1162012413205D-01  1.4697843594802D+00
121  1.2000000000000D+00 -4.1187648730468D-01  1.4335422066562D+00
122  1.2100000000000D+00 -4.1063714384424D-01  1.3928619585777D+00
123  1.2200000000000D+00 -4.0793579715649D-01  1.3477969827109D+00
124  1.2300000000000D+00 -4.0381041558057D-01  1.2984255419457D+00
125  1.2400000000000D+00 -3.9830326383200D-01  1.2448519672770D+00
126  1.2500000000000D+00 -3.9146096286882D-01  1.1872078799691D+00
127  1.2600000000000D+00 -3.8333457853038D-01  1.1256534514088D+00
128  1.2700000000000D+00 -3.7397973913327D-01  1.0603786879092D+00
129  1.2800000000000D+00 -3.6345677929827D-01  9.9160471388286D-01
130  1.2900000000000D+00 -3.5183090571912D-01  9.1958501957170D-01
131  1.3000000000000D+00 -3.3917238069347D-01  8.4460663988885D-01
132  1.3100000000000D+00 -3.2555671405057D-01  7.6699120674847D-01
133  1.3200000000000D+00 -3.1106485286365D-01  6.8709581157272D-01
134  1.3300000000000D+00 -2.9578335813073D-01  6.0531361359546D-01
135  1.3400000000000D+00 -2.7980454952643D-01  5.2207409226211D-01
136  1.3500000000000D+00 -2.6322660014211D-01  4.3784284581721D-01
137  1.3600000000000D+00 -2.4615356019617D-01  3.5312082457728D-01
138  1.3700000000000D+00 -2.2869527806482D-01  2.6844283842410D-01
139  1.3800000000000D+00 -2.1096719322682D-01  1.8437520680310D-01
140  1.3900000000000D+00 -1.9308996272264D-01  1.0151235967744D-01
141  1.4000000000000D+00 -1.7518887723248D-01  2.0472172469614D-02
142  1.4100000000000D+00 -1.5739303044652D-01 -5.8110146956403D-02
143  1.4200000000000D+00 -1.3983417738625D-01 -1.3358993058001D-01
144  1.4300000000000D+00 -1.2264523417839D-01 -2.0532291534820D-01
145  1.4400000000000D+00 -1.0595835167252D-01 -2.7267742746669D-01
146  1.4500000000000D+00 -8.9902475040361D-02 -3.3504931845839D-01
147  1.4600000000000D+00 -7.4600353896152D-02 -3.9187979411369D-01
148  1.4700000000000D+00 -6.0164767379237D-02 -4.4267738865930D-01
149  1.4800000000000D+00 -4.6694565849068D-02 -4.8704050424278D-01
150  1.4900000000000D+00 -3.4269608571149D-02 -5.2468550111590D-01
151  1.5000000000000D+00 -2.2940347908313D-02 -5.5550688494964D-01
152  1.5100000000000D+00 -1.2728450146448D-02 -5.7956848603424D-01
153  1.5200000000000D+00 -3.6310988898346D-03 -5.9707055242727D-01
154  1.5300000000000D+00  4.3707323550680D-03 -6.0829743885480D-01
155  1.5400000000000D+00  1.1300812417617D-02 -6.1354618413452D-01
156  1.5500000000000D+00  1.7190560285584D-02 -6.1314492248608D-01
157  1.5600000000000D+00  2.2079201390269D-02 -6.0745490452302D-01
158  1.5700000000000D+00  2.6012274826768D-02 -5.9686160133591D-01
159  1.5800000000000D+00  2.9041424416302D-02 -5.8177423352182D-01
160  1.5900000000000D+00  3.1223621719699D-02 -5.6262176224180D-01
161  1.6000000000000D+00  3.2620518968151D-02 -5.3984976395517D-01
162  1.6100000000000D+00  3.3297741234610D-02 -5.1391698176545D-01
163  1.6200000000000D+00  3.3324150255435D-02 -4.8529174890823D-01
164  1.6300000000000D+00  3.2771087752011D-02 -4.5444832299170D-01
165  1.6400000000000D+00  3.1711605397889D-02 -4.2186316577541D-01
166  1.6500000000000D+00  3.0219687395158D-02 -3.8801119573754D-01
167  1.6600000000000D+00  2.8369472286691D-02 -3.5336204433244D-01
168  1.6700000000000D+00  2.6234480100361D-02 -3.1837634483910D-01
169  1.6800000000000D+00  2.3886852454373D-02 -2.8350208951022D-01
170  1.6900000000000D+00  2.1396610249937D-02 -2.4917107686818D-01
171  1.7000000000000D+00  1.8830937741924D-02 -2.1579549040592D-01
172  1.7100000000000D+00  1.6253495756943D-02 -1.8376462178505D-01
173  1.7200000000000D+00  1.3723773898492D-02 -1.5344178476550D-01
174  1.7300000000000D+00  1.1296482514382D-02 -1.2516142358079D-01
175  1.7400000000000D+00  9.0209949004873D-03 -9.9226464998404D-02
176  1.7500000000000D+00  6.9408382719015D-03 -7.5905906941199D-02
177  1.7600000000000D+00  5.0945412838012D-03 -5.5446766133884D-02
178  1.7700000000000D+00  3.5098286728071D-03 -3.8013481818196D-02
179  1.7800000000000D+00  2.2035158396468D-03 -2.3693220866492D-02
180  1.7900000000000D+00  1.2069257816770D-03 -1.2756135375356D-02
181  1.8000000000000D+00  5.5184931397000D-04 -5.5015122881496D-03
182  1.8100000000000D+00  2.0363947467066D-04 -1.6098688406672D-03
183  1.8200000000000D+00  5.5143775598829D-05 -6.9862676885689D-05
184  1.8300000000000D+00  5.7196351267276D-06  1.8487053653289D-04
185  1.8400000000000D+00  1.1899369952437D-07 -1.6610529069784D-05
186  1.8500000000000D+00  1.9934902717625D-06 -8.5429242532823D-05
187  1.8600000000000D+00  3.2159813472921D-07 -1.0465420376355D-05
188  1.8700000000000D+00  5.6345881713505D-08  1.3677000060134D-05
189  1.8800000000000D+00 -2.0679559303486D-08  6.0613763903598D-06
190  1.8900000000000D+00 -2.0848351450994D-07  8.4584143373300D-07
191  1.9000000000000D+00 -1.6971504126702D-07  6.8855330920904D-07
192  1.9100000000000D+00  0.0000000000000D+00  0.0000000000000D+00
193  1.9200000000000D+00  0.0000000000000D+00  0.0000000000000D+00
194  1.9300000000000D+00  0.0000000000000D+00  0.0000000000000D+00
195  1.9400000000000D+00  0.0000000000000D+00  0.0000000000000D+00
196  1.9500000000000D+00  0.0000000000000D+00  0.0000000000000D+00
197  1.9600000000000D+00  0.0000000000000D+00  0.0000000000000D+00
198  1.9700000000000D+00  0.0000000000000D+00  0.0000000000000D+00
199  1.9800000000000D+00  0.0000000000000D+00  0.0000000000000D+00
200  1.9900000000000D+00  0.0000000000000D+00  0.0000000000000D+00
201  2.0000000000000D+00  0.0000000000000D+00  0.0000000000000D+00
202  2.0100000000000D+00  0.0000000000000D+00  0.0000000000000D+00
203  2.0200000000000D+00  0.0000000000000D+00  0.0000000000000D+00
204  2.0300000000000D+00  0.0000000000000D+00  0.0000000000000D+00
205  2.0400000000000D+00  0.0000000000000D+00  0.0000000000000D+00
206  2.0500000000000D+00  0.0000000000000D+00  0.0000000000000D+00
207  2.0600000000000D+00  0.0000000000000D+00  0.0000000000000D+00
208  2.0700000000000D+00  0.0000000000000D+00  0.0000000000000D+00
209  2.0800000000000D+00  0.0000000000000D+00  0.0000000000000D+00
210  2.0900000000000D+00  0.0000000000000D+00  0.0000000000000D+00
211  2.1000000000000D+00  0.0000000000000D+00  0.0000000000000D+00
212  2.1100000000000D+00  0.0000000000000D+00  0.0000000000000D+00
213  2.1200000000000D+00  0.0000000000000D+00  0.0000000000000D+00
214  2.1300000000000D+00  0.0000000000000D+00  0.0000000000000D+00
215  2.1400000000000D+00  0.0000000000000D+00  0.0000000000000D+00
216  2.1500000000000D+00  0.0000000000000D+00  0.0000000000000D+00
217  2.1600000000000D+00  0.0000000000000D+00  0.0000000000000D+00
218  2.1700000000000D+00  0.0000000000000D+00  0.0000000000000D+00
219  2.1800000000000D+00  0.0000000000000D+00  0.0000000000000D+00
220  2.1900000000000D+00  0.0000000000000D+00  0.0000000000000D+00
221  2.2000000000000D+00  0.0000000000000D+00  0.0000000000000D+00
222  2.2100000000000D+00  0.0000000000000D+00  0.0000000000000D+00
223  2.2200000000000D+00  0.0000000000000D+00  0.0000000000000D+00
224  2.2300000000000D+00  0.0000000000000D+00  0.0000000000000D+00
225  2.2400000000000D+00  0.0000000000000D+00  0.0000000000000D+00
226  2.2500000000000D+00  0.0000000000000D+00  0.0000000000000D+00
227  2.2600000000000D+00  0.0000000000000D+00  0.0000000000000D+00
228  2.2700000000000D+00  0.0000000000000D+00  0.0000000000000D+00
229  2.2800000000000D+00  0.0000000000000D+00  0.0000000000000D+00
230  2.2900000000000D+00  0.0000000000000D+00  0.0000000000000D+00
231  2.3000000000000D+00  0.0000000000000D+00  0.0000000000000D+00
232  2.3100000000000D+00  0.0000000000000D+00  0.0000000000000D+00
233  2.3200000000000D+00  0.0000000000000D+00  0.0000000000000D+00
234  2.3300000000000D+00  0.0000000000000D+00  0.0000000000000D+00
235  2.3400000000000D+00  0.0000000000000D+00  0.0000000000000D+00
236  2.3500000000000D+00  0.0000000000000D+00  0.0000000000000D+00
237  2.3600000000000D+00  0.0000000000000D+00  0.0000000000000D+00
238  2.3700000000000D+00  0.0000000000000D+00  0.0000000000000D+00
239  2.3800000000000D+00  0.0000000000000D+00  0.0000000000000D+00
240  2.3900000000000D+00  0.0000000000000D+00  0.0000000000000D+00
241  2.4000000000000D+00  0.0000000000000D+00  0.0000000000000D+00
242  2.4100000000000D+00  0.0000000000000D+00  0.0000000000000D+00
243  2.4200000000000D+00  0.0000000000000D+00  0.0000000000000D+00
244  2.4300000000000D+00  0.0000000000000D+00  0.0000000000000D+00
245  2.4400000000000D+00  0.0000000000000D+00  0.0000000000000D+00
246  2.4500000000000D+00  0.0000000000000D+00  0.0000000000000D+00
247  2.4600000000000D+00  0.0000000000000D+00  0.0000000000000D+00
248  2.4700000000000D+00  0.0000000000000D+00  0.0000000000000D+00
249  2.4800000000000D+00  0.0000000000000D+00  0.0000000000000D+00
250  2.4900000000000D+00  0.0000000000000D+00  0.0000000000000D+00
251  2.5000000000000D+00  0.0000000000000D+00  0.0000000000000D+00
252  2.5100000000000D+00  0.0000000000000D+00  0.0000000000000D+00
253  2.5200000000000D+00  0.0000000000000D+00  0.0000000000000D+00
254  2.5300000000000D+00  0.0000000000000D+00  0.0000000000000D+00
255  2.5400000000000D+00  0.0000000000000D+00  0.0000000000000D+00
256  2.5500000000000D+00  0.0000000000000D+00  0.0000000000000D+00
257  2.5600000000000D+00  0.0000000000000D+00  0.0000000000000D+00
258  2.5700000000000D+00  0.0000000000000D+00  0.0000000000000D+00
259  2.5800000000000D+00  0.0000000000000D+00  0.0000000000000D+00
260  2.5900000000000D+00  0.0000000000000D+00  0.0000000000000D+00
261  2.6000000000000D+00  0.0000000000000D+00  0.0000000000000D+00
262  2.6100000000000D+00  0.0000000000000D+00  0.0000000000000D+00
263  2.6200000000000D+00  0.0000000000000D+00  0.0000000000000D+00
264  2.6300000000000D+00  0.0000000000000D+00  0.0000000000000D+00
265  2.6400000000000D+00  0.0000000000000D+00  0.0000000000000D+00
266  2.6500000000000D+00  0.0000000000000D+00  0.0000000000000D+00
267  2.6600000000000D+00  0.0000000000000D+00  0.0000000000000D+00
268  2.6700000000000D+00  0.0000000000000D+00  0.0000000000000D+00
269  2.6800000000000D+00  0.0000000000000D+00  0.0000000000000D+00
270  2.6900000000000D+00  0.0000000000000D+00  0.0000000000000D+00
271  2.7000000000000D+00  0.0000000000000D+00  0.0000000000000D+00
272  2.7100000000000D+00  0.0000000000000D+00  0.0000000000000D+00
273  2.7200000000000D+00  0.0000000000000D+00  0.0000000000000D+00
274  2.7300000000000D+00  0.0000000000000D+00  0.0000000000000D+00
275  2.7400000000000D+00  0.0000000000000D+00  0.0000000000000D+00
276  2.7500000000000D+00  0.0000000000000D+00  0.0000000000000D+00
277  2.7600000000000D+00  0.0000000000000D+00  0.0000000000000D+00
278  2.7700000000000D+00  0.0000000000000D+00  0.0000000000000D+00
279  2.7800000000000D+00  0.0000000000000D+00  0.0000000000000D+00
280  2.7900000000000D+00  0.0000000000000D+00  0.0000000000000D+00
281  2.8000000000000D+00  0.0000000000000D+00  0.0000000000000D+00
282  2.8100000000000D+00  0.0000000000000D+00  0.0000000000000D+00
283  2.8200000000000D+00  0.0000000000000D+00  0.0000000000000D+00
284  2.8300000000000D+00  0.0000000000000D+00  0.0000000000000D+00
285  2.8400000000000D+00  0.0000000000000D+00  0.0000000000000D+00
286  2.8500000000000D+00  0.0000000000000D+00  0.0000000000000D+00
287  2.8600000000000D+00  0.0000000000000D+00  0.0000000000000D+00
288  2.8700000000000D+00  0.0000000000000D+00  0.0000000000000D+00
289  2.8800000000000D+00  0.0000000000000D+00  0.0000000000000D+00
290  2.8900000000000D+00  0.0000000000000D+00  0.0000000000000D+00
291  2.9000000000000D+00  0.0000000000000D+00  0.0000000000000D+00
292  2.9100000000000D+00  0.0000000000000D+00  0.0000000000000D+00
293  2.9200000000000D+00  0.0000000000000D+00  0.0000000000000D+00
294  2.9300000000000D+00  0.0000000000000D+00  0.0000000000000D+00
295  2.9400000000000D+00  0.0000000000000D+00  0.0000000000000D+00
296  2.9500000000000D+00  0.0000000000000D+00  0.0000000000000D+00
297  2.9600000000000D+00  0.0000000000000D+00  0.0000000000000D+00
298  2.9700000000000D+00  0.0000000000000D+00  0.0000000000000D+00
299  2.9800000000000D+00  0.0000000000000D+00  0.0000000000000D+00
300  2.9900000000000D+00  0.0000000000000D+00  0.0000000000000D+00
301  3.0000000000000D+00  0.0000000000000D+00  0.0000000000000D+00
302  3.0100000000000D+00  0.0000000000000D+00  0.0000000000000D+00
303  3.0200000000000D+00  0.0000000000000D+00  0.0000000000000D+00
304  3.0300000000000D+00  0.0000000000000D+00  0.0000000000000D+00
305  3.0400000000000D+00  0.0000000000000D+00  0.0000000000000D+00
306  3.0500000000000D+00  0.0000000000000D+00  0.0000000000000D+00
307  3.0600000000000D+00  0.0000000000000D+00  0.0000000000000D+00
308  3.0700000000000D+00  0.0000000000000D+00  0.0000000000000D+00
309  3.0800000000000D+00  0.0000000000000D+00  0.0000000000000D+00
310  3.0900000000000D+00  0.0000000000000D+00  0.0000000000000D+00
311  3.1000000000000D+00  0.0000000000000D+00  0.0000000000000D+00
312  3.1100000000000D+00  0.0000000000000D+00  0.0000000000000D+00
313  3.1200000000000D+00  0.0000000000000D+00  0.0000000000000D+00
314  3.1300000000000D+00  0.0000000000000D+00  0.0000000000000D+00
315  3.1400000000000D+00  0.0000000000000D+00  0.0000000000000D+00
316  3.1500000000000D+00  0.0000000000000D+00  0.0000000000000D+00
317  3.1600000000000D+00  0.0000000000000D+00  0.0000000000000D+00
318  3.1700000000000D+00  0.0000000000000D+00  0.0000000000000D+00
319  3.1800000000000D+00  0.0000000000000D+00  0.0000000000000D+00
320  3.1900000000000D+00  0.0000000000000D+00  0.0000000000000D+00
321  3.2000000000000D+00  0.0000000000000D+00  0.0000000000000D+00
322  3.2100000000000D+00  0.0000000000000D+00  0.0000000000000D+00
323  3.2200000000000D+00  0.0000000000000D+00  0.0000000000000D+00
324  3.2300000000000D+00  0.0000000000000D+00  0.0000000000000D+00
325  3.2400000000000D+00  0.0000000000000D+00  0.0000000000000D+00
326  3.2500000000000D+00  0.0000000000000D+00  0.0000000000000D+00
327  3.2600000000000D+00  0.0000000000000D+00  0.0000000000000D+00
328  3.2700000000000D+00  0.0000000000000D+00  0.0000000000000D+00
329  3.2800000000000D+00  0.0000000000000D+00  0.0000000000000D+00
330  3.2900000000000D+00  0.0000000000000D+00  0.0000000000000D+00
331  3.3000000000000D+00  0.0000000000000D+00  0.0000000000000D+00
332  3.3100000000000D+00  0.0000000000000D+00  0.0000000000000D+00
333  3.3200000000000D+00  0.0000000000000D+00  0.0000000000000D+00
334  3.3300000000000D+00  0.0000000000000D+00  0.0000000000000D+00
335  3.3400000000000D+00  0.0000000000000D+00  0.0000000000000D+00
336  3.3500000000000D+00  0.0000000000000D+00  0.0000000000000D+00
337  3.3600000000000D+00  0.0000000000000D+00  0.0000000000000D+00
338  3.3700000000000D+00  0.0000000000000D+00  0.0000000000000D+00
339  3.3800000000000D+00  0.0000000000000D+00  0.0000000000000D+00
340  3.3900000000000D+00  0.0000000000000D+00  0.0000000000000D+00
341  3.4000000000000D+00  0.0000000000000D+00  0.0000000000000D+00
342  3.4100000000000D+00  0.0000000000000D+00  0.0000000000000D+00
343  3.4200000000000D+00  0.0000000000000D+00  0.0000000000000D+00
344  3.4300000000000D+00  0.0000000000000D+00  0.0000000000000D+00
345  3.4400000000000D+00  0.0000000000000D+00  0.0000000000000D+00
346  3.4500000000000D+00  0.0000000000000D+00  0.0000000000000D+00
347  3.4600000000000D+00  0.0000000000000D+00  0.0000000000000D+00
348  3.4700000000000D+00  0.0000000000000D+00  0.0000000000000D+00
349  3.4800000000000D+00  0.0000000000000D+00  0.0000000000000D+00
350  3.4900000000000D+00  0.0000000000000D+00  0.0000000000000D+00
351  3.5000000000000D+00  0.0000000000000D+00  0.0000000000000D+00
352  3.5100000000000D+00  0.0000000000000D+00  0.0000000000000D+00
353  3.5200000000000D+00  0.0000000000000D+00  0.0000000000000D+00
354  3.5300000000000D+00  0.0000000000000D+00  0.0000000000000D+00
355  3.5400000000000D+00  0.0000000000000D+00  0.0000000000000D+00
356  3.5500000000000D+00  0.0000000000000D+00  0.0000000000000D+00
357  3.5600000000000D+00  0.0000000000000D+00  0.0000000000000D+00
358  3.5700000000000D+00  0.0000000000000D+00  0.0000000000000D+00
359  3.5800000000000D+00  0.0000000000000D+00  0.0000000000000D+00
360  3.5900000000000D+00  0.0000000000000D+00  0.0000000000000D+00
361  3.6000000000000D+00  0.0000000000000D+00  0.0000000000000D+00
362  3.6100000000000D+00  0.0000000000000D+00  0.0000000000000D+00
363  3.6200000000000D+00  0.0000000000000D+00  0.0000000000000D+00
364  3.6300000000000D+00  0.0000000000000D+00  0.0000000000000D+00
365  3.6400000000000D+00  0.0000000000000D+00  0.0000000000000D+00
366  3.6500000000000D+00  0.0000000000000D+00  0.0000000000000D+00
367  3.6600000000000D+00  0.0000000000000D+00  0.0000000000000D+00
368  3.6700000000000D+00  0.0000000000000D+00  0.0000000000000D+00
369  3.6800000000000D+00  0.0000000000000D+00  0.0000000000000D+00
370  3.6900000000000D+00  0.0000000000000D+00  0.0000000000000D+00
371  3.7000000000000D+00  0.0000000000000D+00  0.0000000000000D+00
372  3.7100000000000D+00  0.0000000000000D+00  0.0000000000000D+00
373  3.7200000000000D+00  0.0000000000000D+00  0.0000000000000D+00
374  3.7300000000000D+00  0.0000000000000D+00  0.0000000000000D+00
375  3.7400000000000D+00  0.0000000000000D+00  0.0000000000000D+00
376  3.7500000000000D+00  0.0000000000000D+00  0.0000000000000D+00
377  3.7600000000000D+00  0.0000000000000D+00  0.0000000000000D+00
378  3.7700000000000D+00  0.0000000000000D+00  0.0000000000000D+00
379  3.7800000000000D+00  0.0000000000000D+00  0.0000000000000D+00
380  3.7900000000000D+00  0.0000000000000D+00  0.0000000000000D+00
381  3.8000000000000D+00  0.0000000000000D+00  0.0000000000000D+00
382  3.8100000000000D+00  0.0000000000000D+00  0.0000000000000D+00
383  3.8200000000000D+00  0.0000000000000D+00  0.0000000000000D+00
384  3.8300000000000D+00  0.0000000000000D+00  0.0000000000000D+00
385  3.8400000000000D+00  0.0000000000000D+00  0.0000000000000D+00
386  3.8500000000000D+00  0.0000000000000D+00  0.0000000000000D+00
387  3.8600000000000D+00  0.0000000000000D+00  0.0000000000000D+00
388  3.8700000000000D+00  0.0000000000000D+00  0.0000000000000D+00
389  3.8800000000000D+00  0.0000000000000D+00  0.0000000000000D+00
390  3.8900000000000D+00  0.0000000000000D+00  0.0000000000000D+00
391  3.9000000000000D+00  0.0000000000000D+00  0.0000000000000D+00
392  3.9100000000000D+00  0.0000000000000D+00  0.0000000000000D+00
393  3.9200000000000D+00  0.0000000000000D+00  0.0000000000000D+00
394  3.9300000000000D+00  0.0000000000000D+00  0.0000000000000D+00
395  3.9400000000000D+00  0.0000000000000D+00  0.0000000000000D+00
396  3.9500000000000D+00  0.0000000000000D+00  0.0000000000000D+00
397  3.9600000000000D+00  0.0000000000000D+00  0.0000000000000D+00
398  3.9700000000000D+00  0.0000000000000D+00  0.0000000000000D+00
399  3.9800000000000D+00  0.0000000000000D+00  0.0000000000000D+00
400  3.9900000000000D+00  0.0000000000000D+00  0.0000000000000D+00
401  4.0000000000000D+00  0.0000000000000D+00  0.0000000000000D+00
402  4.0100000000000D+00  0.0000000000000D+00  0.0000000000000D+00
403  4.0200000000000D+00  0.0000000000000D+00  0.0000000000000D+00
404  4.0300000000000D+00  0.0000000000000D+00  0.0000000000000D+00
405  4.0400000000000D+00  0.0000000000000D+00  0.0000000000000D+00
406  4.0500000000000D+00  0.0000000000000D+00  0.0000000000000D+00
407  4.0600000000000D+00  0.0000000000000D+00  0.0000000000000D+00
408  4.0700000000000D+00  0.0000000000000D+00  0.0000000000000D+00
409  4.0800000000000D+00  0.0000000000000D+00  0.0000000000000D+00
410  4.0900000000000D+00  0.0000000000000D+00  0.0000000000000D+00
411  4.1000000000000D+00  0.0000000000000D+00  0.0000000000000D+00
412  4.1100000000000D+00  0.0000000000000D+00  0.0000000000000D+00
413  4.1200000000000D+00  0.0000000000000D+00  0.0000000000000D+00
414  4.1300000000000D+00  0.0000000000000D+00  0.0000000000000D+00
415  4.1400000000000D+00  0.0000000000000D+00  0.0000000000000D+00
416  4.1500000000000D+00  0.0000000000000D+00  0.0000000000000D+00
417  4.1600000000000D+00  0.0000000000000D+00  0.0000000000000D+00
418  4.1700000000000D+00  0.0000000000000D+00  0.0000000000000D+00
419  4.1800000000000D+00  0.0000000000000D+00  0.0000000000000D+00
420  4.1900000000000D+00  0.0000000000000D+00  0.0000000000000D+00
421  4.2000000000000D+00  0.0000000000000D+00  0.0000000000000D+00
422  4.2100000000000D+00  0.0000000000000D+00  0.0000000000000D+00
423  4.2200000000000D+00  0.0000000000000D+00  0.0000000000000D+00
424  4.2300000000000D+00  0.0000000000000D+00  0.0000000000000D+00
425  4.2400000000000D+00  0.0000000000000D+00  0.0000000000000D+00
426  4.2500000000000D+00  0.0000000000000D+00  0.0000000000000D+00
427  4.2600000000000D+00  0.0000000000000D+00  0.0000000000000D+00
428  4.2700000000000D+00  0.0000000000000D+00  0.0000000000000D+00
429  4.2800000000000D+00  0.0000000000000D+00  0.0000000000000D+00
430  4.2900000000000D+00  0.0000000000000D+00  0.0000000000000D+00
431  4.3000000000000D+00  0.0000000000000D+00  0.0000000000000D+00
432  4.3100000000000D+00  0.0000000000000D+00  0.0000000000000D+00
433  4.3200000000000D+00  0.0000000000000D+00  0.0000000000000D+00
434  4.3300000000000D+00  0.0000000000000D+00  0.0000000000000D+00
435  4.3400000000000D+00  0.0000000000000D+00  0.0000000000000D+00
436  4.3500000000000D+00  0.0000000000000D+00  0.0000000000000D+00
437  4.3600000000000D+00  0.0000000000000D+00  0.0000000000000D+00
438  4.3700000000000D+00  0.0000000000000D+00  0.0000000000000D+00
439  4.3800000000000D+00  0.0000000000000D+00  0.0000000000000D+00
440  4.3900000000000D+00  0.0000000000000D+00  0.0000000000000D+00
441  4.4000000000000D+00  0.0000000000000D+00  0.0000000000000D+00
442  4.4100000000000D+00  0.0000000000000D+00  0.0000000000000D+00
443  4.4200000000000D+00  0.0000000000000D+00  0.0000000000000D+00