Hg    ONCVPSP-3.2.3  r_core=   2.61057   2.45942   2.10614
80.0000     12.0000      161007    zatom,zion,pspd
8   -1012   2     4   600     0    pspcod,pspxc,lmax,lloc,mmax,r2well
5.99000000  6.00000000  0.00000000    rchrg fchrg qchrg
2     2     2     0     0    nproj
1     1           extension_switch
0                         4.9351930252179D+00  7.1259653196856D-01
1  0.0000000000000D+00  7.7912676310632D-13 -2.2368426555452D-12
2  1.0000000000000D-02  1.0996388590109D-02  7.8624833547386D-03
3  2.0000000000000D-02  2.2006507515597D-02  1.5688263826754D-02
4  3.0000000000000D-02  3.3044041745047D-02  2.3440751105980D-02
5  4.0000000000000D-02  4.4122585616868D-02  3.1083579748242D-02
6  5.0000000000000D-02  5.5255597782539D-02  3.8580720910239D-02
7  6.0000000000000D-02  6.6456356459320D-02  4.5896593248521D-02
8  7.0000000000000D-02  7.7737915094644D-02  5.2996172706447D-02
9  8.0000000000000D-02  8.9113058543676D-02  5.9845100915295D-02
10  9.0000000000000D-02  1.0059425986050D-01  6.6409791938573D-02
11  1.0000000000000D-01  1.1219363780225D-01  7.2657537091849D-02
12  1.1000000000000D-01  1.2392291514418D-01  7.8556607574398D-02
13  1.2000000000000D-01  1.3579337790198D-01  8.4076354653380D-02
14  1.3000000000000D-01  1.4781583555618D-01  8.9187307146273D-02
15  1.4000000000000D-01  1.6000058237118D-01  9.3861265952801D-02
16  1.5000000000000D-01  1.7235735989972D-01  9.8071395393678D-02
17  1.6000000000000D-01  1.8489532076107D-01  1.0179231112008D-01
18  1.7000000000000D-01  1.9762299377879D-01  1.0500016436485D-01
19  1.8000000000000D-01  2.1054825056140D-01  1.0767272231400D-01
20  1.9000000000000D-01  2.2367827360634D-01  1.0978944438538D-01
21  2.0000000000000D-01  2.3701952600456D-01  1.1133155420964D-01
22  2.1000000000000D-01  2.5057772282029D-01  1.1228210711808D-01
23  2.2000000000000D-01  2.6435780421669D-01  1.1262605295128D-01
24  2.3000000000000D-01  2.7836391039514D-01  1.1235029401240D-01
25  2.4000000000000D-01  2.9259935841187D-01  1.1144373799970D-01
26  2.5000000000000D-01  3.0706662093232D-01  1.0989734576336D-01
27  2.6000000000000D-01  3.2176730697911D-01  1.0770417374335D-01
28  2.7000000000000D-01  3.3670214472621D-01  1.0485941095645D-01
29  2.8000000000000D-01  3.5187096638704D-01  1.0136041041273D-01
30  2.9000000000000D-01  3.6727269524030D-01  9.7206714854194D-02
31  3.0000000000000D-01  3.8290533483296D-01  9.2400076721031D-02
32  3.1000000000000D-01  3.9876596039500D-01  8.6944472263983D-02
33  3.2000000000000D-01  4.1485071249626D-01  8.0846109734724D-02
34  3.3000000000000D-01  4.3115479297070D-01  7.4113431599735D-02
35  3.4000000000000D-01  4.4767246312875D-01  6.6757110737122D-02
36  3.5000000000000D-01  4.6439704427365D-01  5.8790040589891D-02
37  3.6000000000000D-01  4.8132092053221D-01  5.0227319263502D-02
38  3.7000000000000D-01  4.9843554400627D-01  4.1086227570043D-02
39  3.8000000000000D-01  5.1573144224506D-01  3.1386201035929D-02
40  3.9000000000000D-01  5.3319822803447D-01  2.1148795904863D-02
41  4.0000000000000D-01  5.5082461149336D-01  1.0397649182506D-02
42  4.1000000000000D-01  5.6859841446244D-01 -8.4156721574427D-04
43  4.2000000000000D-01  5.8650658716563D-01 -1.2541198137612D-02
44  4.3000000000000D-01  6.0453522711889D-01 -2.4671662596315D-02
45  4.4000000000000D-01  6.2266960025629D-01 -3.7201516796470D-02
46  4.5000000000000D-01  6.4089416423781D-01 -5.0097522662857D-02
47  4.6000000000000D-01  6.5919259389845D-01 -6.3324721736733D-02
48  4.7000000000000D-01  6.7754780879288D-01 -7.6846514289817D-02
49  4.8000000000000D-01  6.9594200278507D-01 -9.0624743492076D-02
50  4.9000000000000D-01  7.1435667562734D-01 -1.0461978445498D-01
51  5.0000000000000D-01  7.3277266646818D-01 -1.1879063795854D-01
52  5.1000000000000D-01  7.5117018922366D-01 -1.3309502865671D-01
53  5.2000000000000D-01  7.6952886974240D-01 -1.4748950754262D-01
54  5.3000000000000D-01  7.8782778468959D-01 -1.6192955844256D-01
55  5.4000000000000D-01  8.0604550207093D-01 -1.7636970829503D-01
56  5.5000000000000D-01  8.2416012331329D-01 -1.9076364095956D-01
57  5.6000000000000D-01  8.4214932681439D-01 -2.0506431428840D-01
58  5.7000000000000D-01  8.5999041287021D-01 -2.1922408018357D-01
59  5.8000000000000D-01  8.7766034988463D-01 -2.3319480735131D-01
60  5.9000000000000D-01  8.9513582176224D-01 -2.4692800645627D-01
61  6.0000000000000D-01  9.1239327638206D-01 -2.6037495736905D-01
62  6.1000000000000D-01  9.2940897504620D-01 -2.7348683819194D-01
63  6.2000000000000D-01  9.4615904279490D-01 -2.8621485574040D-01
64  6.3000000000000D-01  9.6261951947627D-01 -2.9851037715061D-01
65  6.4000000000000D-01  9.7876641145657D-01 -3.1032506227760D-01
66  6.5000000000000D-01  9.9457574385464D-01 -3.2161099654288D-01
67  6.6000000000000D-01  1.0100236131818D+00 -3.3232082388607D-01
68  6.7000000000000D-01  1.0250862402671D+00 -3.4240787947134D-01
69  6.8000000000000D-01  1.0397400233452D+00 -3.5182632179676D-01
70  6.9000000000000D-01  1.0539615911855D+00 -3.6053126385256D-01
71  7.0000000000000D-01  1.0677278561355D+00 -3.6847890297371D-01
72  7.1000000000000D-01  1.0810160669571D+00 -3.7562664903160D-01
73  7.2000000000000D-01  1.0938038613267D+00 -3.8193325061121D-01
74  7.3000000000000D-01  1.1060693178772D+00 -3.8735891882137D-01
75  7.4000000000000D-01  1.1177910076547D+00 -3.9186544838900D-01
76  7.5000000000000D-01  1.1289480448657D+00 -3.9541633569186D-01
77  7.6000000000000D-01  1.1395201367915D+00 -3.9797689338912D-01
78  7.7000000000000D-01  1.1494876327464D+00 -3.9951436131488D-01
79  7.8000000000000D-01  1.1588315719594D+00 -3.9999801330654D-01
80  7.9000000000000D-01  1.1675337302587D+00 -3.9939925964774D-01
81  8.0000000000000D-01  1.1755766654434D+00 -3.9769174481409D-01
82  8.1000000000000D-01  1.1829437612253D+00 -3.9485144021979D-01
83  8.2000000000000D-01  1.1896192696304D+00 -3.9085673167386D-01
84  8.3000000000000D-01  1.1955883517501D+00 -3.8568850126604D-01
85  8.4000000000000D-01  1.2008371167354D+00 -3.7933020341522D-01
86  8.5000000000000D-01  1.2053526589331D+00 -3.7176793482629D-01
87  8.6000000000000D-01  1.2091230930649D+00 -3.6299049811567D-01
88  8.7000000000000D-01  1.2121375873543D+00 -3.5298945888093D-01
89  8.8000000000000D-01  1.2143863945127D+00 -3.4175919600548D-01
90  8.9000000000000D-01  1.2158608804988D+00 -3.2929694500624D-01
91  9.0000000000000D-01  1.2165535509713D+00 -3.1560283424922D-01
92  9.1000000000000D-01  1.2164580753596D+00 -3.0067991387629D-01
93  9.2000000000000D-01  1.2155693084832D+00 -2.8453417730483D-01
94  9.3000000000000D-01  1.2138833096556D+00 -2.6717457518131D-01
95  9.4000000000000D-01  1.2113973592151D+00 -2.4861302168970D-01
96  9.5000000000000D-01  1.2081099724298D+00 -2.2886439313582D-01
97  9.6000000000000D-01  1.2040209107316D+00 -2.0794651874954D-01
98  9.7000000000000D-01  1.1991311902393D+00 -1.8588016366792D-01
99  9.8000000000000D-01  1.1934430875386D+00 -1.6268900408346D-01
100  9.9000000000000D-01  1.1869601426919D+00 -1.3839959456441D-01
101  1.0000000000000D+00  1.1796871594594D+00 -1.1304132757406D-01
102  1.0100000000000D+00  1.1716302027182D+00 -8.6646385240234D-02
103  1.0200000000000D+00  1.1627965930750D+00 -5.9249683446713D-02
104  1.0300000000000D+00  1.1531948986720D+00 -3.0888808341185D-02
105  1.0400000000000D+00  1.1428349241967D+00 -1.6039453761120D-03
106  1.0500000000000D+00  1.1317276971094D+00  2.8562198978479D-02
107  1.0600000000000D+00  1.1198854511120D+00  5.9564482691072D-02
108  1.0700000000000D+00  1.1073216068880D+00  9.1355420611080D-02
109  1.0800000000000D+00  1.0940507501496D+00  1.2388528369490D-01
110  1.0900000000000D+00  1.0800886070365D+00  1.5710220479217D-01
111  1.1000000000000D+00  1.0654520169169D+00  1.9095229074717D-01
112  1.1100000000000D+00  1.0501589026476D+00  2.2537974055383D-01
113  1.1200000000000D+00  1.0342282383578D+00  2.6032696927937D-01
114  1.1300000000000D+00  1.0176800148270D+00  2.9573473745615D-01
115  1.1400000000000D+00  1.0005352025347D+00  3.3154228562151D-01
116  1.1500000000000D+00  9.8281571246393D-01  3.6768747367119D-01
117  1.1600000000000D+00  9.6454435474858D-01  4.0410692467277D-01
118  1.1700000000000D+00  9.4574479525993D-01  4.4073617277176D-01
119  1.1800000000000D+00  9.2644151023265D-01  4.7750981480742D-01
120  1.1900000000000D+00  9.0665973903556D-01  5.1436166524650D-01
121  1.2000000000000D+00  8.8642543519922D-01  5.5122491402430D-01
122  1.2100000000000D+00  8.6576521581595D-01  5.8803228687570D-01
123  1.2200000000000D+00  8.4470630943204D-01  6.2471620772881D-01
124  1.2300000000000D+00  8.2327650255687D-01  6.6120896272393D-01
125  1.2400000000000D+00  8.0150408491760D-01  6.9744286541250D-01
126  1.2500000000000D+00  7.7941779359118D-01  7.3335042268636D-01
127  1.2600000000000D+00  7.5704675614797D-01  7.6886450098218D-01
128  1.2700000000000D+00  7.3442043294602D-01  8.0391849230040D-01
129  1.2800000000000D+00  7.1156855871576D-01  8.3844647957920D-01
130  1.2900000000000D+00  6.8852108357691D-01  8.7238340096002D-01
131  1.3000000000000D+00  6.6530811363298D-01  9.0566521248308D-01
132  1.3100000000000D+00  6.4195985128766D-01  9.3822904875497D-01
133  1.3200000000000D+00  6.1850653542994D-01  9.7001338112784D-01
134  1.3300000000000D+00  5.9497838163484D-01  1.0009581729428D+00
135  1.3400000000000D+00  5.7140552252626D-01  1.0310050313903D+00
136  1.3500000000000D+00  5.4781794844948D-01  1.0600973555447D+00
137  1.3600000000000D+00  5.2424544859811D-01  1.0881804801541D+00
138  1.3700000000000D+00  5.0071755274151D-01  1.1152018147539D+00
139  1.3800000000000D+00  4.7726347369613D-01  1.1411109777006D+00
140  1.3900000000000D+00  4.5391205068003D-01  1.1658599247423D+00
141  1.4000000000000D+00  4.3069169369447D-01  1.1894030717173D+00
142  1.4100000000000D+00  4.0763032906380D-01  1.2116974110468D+00
143  1.4200000000000D+00  3.8475534627090D-01  1.2327026216500D+00
144  1.4300000000000D+00  3.6209354621885D-01  1.2523811719499D+00
145  1.4400000000000D+00  3.3967109103909D-01  1.2706984156839D+00
146  1.4500000000000D+00  3.1751345557972D-01  1.2876226801723D+00
147  1.4600000000000D+00  2.9564538067816D-01  1.3031253468358D+00
148  1.4700000000000D+00  2.7409082834311D-01  1.3171809236537D+00
149  1.4800000000000D+00  2.5287293894755D-01  1.3297671093647D+00
150  1.4900000000000D+00  2.3201399053320D-01  1.3408648492095D+00
151  1.5000000000000D+00  2.1153536033586D-01  1.3504583819835D+00
152  1.5100000000000D+00  1.9145748859949D-01  1.3585352783350D+00
153  1.5200000000000D+00  1.7179984479555D-01  1.3650864700479D+00
154  1.5300000000000D+00  1.5258089629134D-01  1.3701062703412D+00
155  1.5400000000000D+00  1.3381807957070D-01  1.3735923849768D+00
156  1.5500000000000D+00  1.1552777404818D-01  1.3755459142169D+00
157  1.5600000000000D+00  9.7725278548744D-02  1.3759713455436D+00
158  1.5700000000000D+00  8.0424790501325D-02  1.3748765371538D+00
159  1.5800000000000D+00  6.3639387880397D-02  1.3722726922826D+00
160  1.5900000000000D+00  4.7381013954079D-02  1.3681743243320D+00
161  1.6000000000000D+00  3.1660464832827D-02  1.3625992130008D+00
162  1.6100000000000D+00  1.6487379887634D-02  1.3555683513571D+00
163  1.6200000000000D+00  1.8702349918015D-03  1.3471058841867D+00
164  1.6300000000000D+00 -1.2183661335707D-02  1.3372390375320D+00
165  1.6400000000000D+00 -2.5668168969161D-02  1.3259980398741D+00
166  1.6500000000000D+00 -3.8578314314744D-02  1.3134160348691D+00
167  1.6600000000000D+00 -5.0910285661128D-02  1.2995289861724D+00
168  1.6700000000000D+00 -6.2661425668623D-02  1.2843755743008D+00
169  1.6800000000000D+00 -7.3830221124414D-02  1.2679970861045D+00
170  1.6900000000000D+00 -8.4416289905587D-02  1.2504372968570D+00
171  1.7000000000000D+00 -9.4420365292294D-02  1.2317423455652D+00
172  1.7100000000000D+00 -1.0384427758446D-01  1.2119606035571D+00
173  1.7200000000000D+00 -1.1269093318215D-01  1.1911425369842D+00
174  1.7300000000000D+00 -1.2096429109033D-01  1.1693405633339D+00
175  1.7400000000000D+00 -1.2866933702864D-01  1.1466089026231D+00
176  1.7500000000000D+00 -1.3581205511086D-01  1.1230034234022D+00
177  1.7600000000000D+00 -1.4239939729415D-01  1.0985814842635D+00
178  1.7700000000000D+00 -1.4843925057088D-01  1.0734017710293D+00
179  1.7800000000000D+00 -1.5394040210968D-01  1.0475241302987D+00
180  1.7900000000000D+00 -1.5891250234268D-01  1.0210093996127D+00
181  1.8000000000000D+00 -1.6336602619342D-01  9.9391923485612D-01
182  1.8100000000000D+00 -1.6731223247915D-01  9.6631593525865D-01
183  1.8200000000000D+00 -1.7076312165900D-01  9.3826226654084D-01
184  1.8300000000000D+00 -1.7373139200372D-01  9.0982128265681D-01
185  1.8400000000000D+00 -1.7623039433043D-01  8.8105614662052D-01
186  1.8500000000000D+00 -1.7827408541923D-01  8.5202995091808D-01
187  1.8600000000000D+00 -1.7987698022847D-01  8.2280553797677D-01
188  1.8700000000000D+00 -1.8105410305885D-01  7.9344532117156D-01
189  1.8800000000000D+00 -1.8182093776572D-01  7.6401110690153D-01
190  1.8900000000000D+00 -1.8219337718603D-01  7.3456391809407D-01
191  1.9000000000000D+00 -1.8218767188112D-01  7.0516381981013D-01
192  1.9100000000000D+00 -1.8182037835200D-01  6.7586974714541D-01
193  1.9200000000000D+00 -1.8110830685220D-01  6.4673933618685D-01
194  1.9300000000000D+00 -1.8006846893003D-01  6.1782875818528D-01
195  1.9400000000000D+00 -1.7871802484396D-01  5.8919255758773D-01
196  1.9500000000000D+00 -1.7707423097863D-01  5.6088349428058D-01
197  1.9600000000000D+00 -1.7515438738663D-01  5.3295239032933D-01
198  1.9700000000000D+00 -1.7297578562082D-01  5.0544798196795D-01
199  1.9800000000000D+00 -1.7055565692251D-01  4.7841677661822D-01
200  1.9900000000000D+00 -1.6791112098500D-01  4.5190291605668D-01
201  2.0000000000000D+00 -1.6505913532109D-01  4.2594804532765D-01
202  2.0100000000000D+00 -1.6201644543320D-01  4.0059118826106D-01
203  2.0200000000000D+00 -1.5879953588039D-01  3.7586862972738D-01
204  2.0300000000000D+00 -1.5542458231659D-01  3.5181380463584D-01
205  2.0400000000000D+00 -1.5190740402331D-01  3.2845719106764D-01
206  2.0500000000000D+00 -1.4826342112799D-01  3.0582622831350D-01
207  2.0600000000000D+00 -1.4450760426785D-01  2.8394519847924D-01
208  2.0700000000000D+00 -1.4065443866717D-01  2.6283517866887D-01
209  2.0800000000000D+00 -1.3671789011491D-01  2.4251400341936D-01
210  2.0900000000000D+00 -1.3271135413478D-01  2.2299615524735D-01
211  2.1000000000000D+00 -1.2864756681130D-01  2.0429243289582D-01
212  2.1100000000000D+00 -1.2453866129499D-01  1.8641038174458D-01
213  2.1200000000000D+00 -1.2039618111638D-01  1.6935450274788D-01
214  2.1300000000000D+00 -1.1623110804336D-01  1.5312651436332D-01
215  2.1400000000000D+00 -1.1205389276606D-01  1.3772556371494D-01
216  2.1500000000000D+00 -1.0787455601863D-01  1.2314881816429D-01
217  2.1600000000000D+00 -1.0370264560499D-01  1.0939131050467D-01
218  2.1700000000000D+00 -9.9547232647407D-02  9.6445970801789D-02
219  2.1800000000000D+00 -9.5416900062584D-02  8.4303611500802D-02
220  2.1900000000000D+00 -9.1319764674199D-02  7.2953108174455D-02
221  2.2000000000000D+00 -8.7263472510438D-02  6.2381424252387D-02
222  2.2100000000000D+00 -8.3255205382130D-02  5.2573696977827D-02
223  2.2200000000000D+00 -7.9301687886788D-02  4.3513324050770D-02
224  2.2300000000000D+00 -7.5409194526054D-02  3.5182049342431D-02
225  2.2400000000000D+00 -7.1583558327634D-02  2.7560054954368D-02
226  2.2500000000000D+00 -6.7830180380144D-02  2.0626056694663D-02
227  2.2600000000000D+00 -6.4154040336938D-02  1.4357403132804D-02
228  2.2700000000000D+00 -6.0559707843725D-02  8.7301779711788D-03
229  2.2800000000000D+00 -5.7051354708755D-02  3.7193049347043D-03
230  2.2900000000000D+00 -5.3632767882337D-02 -7.0134464912099D-04
231  2.3000000000000D+00 -5.0307363103144D-02 -4.5588422180529D-03
232  2.3100000000000D+00 -4.7078199118372D-02 -7.8810907180977D-03
233  2.3200000000000D+00 -4.3947992494972D-02 -1.0696711795137D-02
234  2.3300000000000D+00 -4.0919132864519D-02 -1.3034932068474D-02
235  2.3400000000000D+00 -3.7993698564116D-02 -1.4925468740367D-02
236  2.3500000000000D+00 -3.5173472603831D-02 -1.6398414945174D-02
237  2.3600000000000D+00 -3.2459958881559D-02 -1.7484125123500D-02
238  2.3700000000000D+00 -2.9854398564525D-02 -1.8213100907362D-02
239  2.3800000000000D+00 -2.7357786557377D-02 -1.8615877910034D-02
240  2.3900000000000D+00 -2.4970888037737D-02 -1.8722913447650D-02
241  2.4000000000000D+00 -2.2694254900730D-02 -1.8564476064090D-02
242  2.4100000000000D+00 -2.0528242081919D-02 -1.8170536967746D-02
243  2.4200000000000D+00 -1.8473023775072D-02 -1.7570663264403D-02
244  2.4300000000000D+00 -1.6528609284242D-02 -1.6793914349818D-02
245  2.4400000000000D+00 -1.4694858581992D-02 -1.5868741046592D-02
246  2.4500000000000D+00 -1.2971497600100D-02 -1.4822887344874D-02
247  2.4600000000000D+00 -1.1358132874034D-02 -1.3683296672305D-02
248  2.4700000000000D+00 -9.8542657701726D-03 -1.2476021502934D-02
249  2.4800000000000D+00 -8.4593062654321D-03 -1.1226136462186D-02
250  2.4900000000000D+00 -7.1725858528644D-03 -9.9576570556120D-03
251  2.5000000000000D+00 -5.9933699115334D-03 -8.6934623154934D-03
252  2.5100000000000D+00 -4.9208694704263D-03 -7.4552217192913D-03
253  2.5200000000000D+00 -3.9543342420758D-03 -6.2636003330896D-03
254  2.5300000000000D+00 -3.0932918300015D-03 -5.1389528888443D-03
255  2.5400000000000D+00 -2.3358052613349D-03 -4.0954856599951D-03
256  2.5500000000000D+00 -1.6806158239832D-03 -3.1478490410825D-03
257  2.5600000000000D+00 -1.1258719130152D-03 -2.3050574729262D-03
258  2.5700000000000D+00 -6.7496551277588D-04 -1.6008607001448D-03
259  2.5800000000000D+00 -3.2851439782484D-04 -1.0537804776332D-03
260  2.5900000000000D+00 -8.4276498238963D-05 -6.8508461176605D-04
261  2.6000000000000D+00  6.3667865013339D-05 -4.4476432112180D-04
262  2.6100000000000D+00  1.2690224080601D-04 -2.9164159425344D-04
263  2.6200000000000D+00  1.1522552311413D-04 -1.6667314402842D-04
264  2.6300000000000D+00  6.5639434515148D-05 -7.3172902114293D-05
265  2.6400000000000D+00  9.2813490926758D-06 -8.8724849598182D-06
266  2.6500000000000D+00 -1.7556230209460D-05  1.5650601177578D-05
267  2.6600000000000D+00 -1.9121407223654D-05  1.5557459629474D-05
268  2.6700000000000D+00 -6.0094795589299D-06  4.5578224440199D-06
269  2.6800000000000D+00  2.9241865105591D-06 -3.1376381381959D-06
270  2.6900000000000D+00  4.3444629660978D-06 -4.5048079719637D-06
271  2.7000000000000D+00  2.1320716762179D-06 -2.1476021291373D-06
272  2.7100000000000D+00 -1.6781760515573D-07  3.7228471330163D-07
273  2.7200000000000D+00 -3.6174374087433D-07  8.0248830112363D-07
274  2.7300000000000D+00 -2.4544128154901D-07  5.4448421575952D-07
275  2.7400000000000D+00  0.0000000000000D+00  0.0000000000000D+00
276  2.7500000000000D+00  0.0000000000000D+00  0.0000000000000D+00
277  2.7600000000000D+00  0.0000000000000D+00  0.0000000000000D+00
278  2.7700000000000D+00  0.0000000000000D+00  0.0000000000000D+00
279  2.7800000000000D+00  0.0000000000000D+00  0.0000000000000D+00
280  2.7900000000000D+00  0.0000000000000D+00  0.0000000000000D+00
281  2.8000000000000D+00  0.0000000000000D+00  0.0000000000000D+00
282  2.8100000000000D+00  0.0000000000000D+00  0.0000000000000D+00
283  2.8200000000000D+00  0.0000000000000D+00  0.0000000000000D+00
284  2.8300000000000D+00  0.0000000000000D+00  0.0000000000000D+00
285  2.8400000000000D+00  0.0000000000000D+00  0.0000000000000D+00
286  2.8500000000000D+00  0.0000000000000D+00  0.0000000000000D+00
287  2.8600000000000D+00  0.0000000000000D+00  0.0000000000000D+00
288  2.8700000000000D+00  0.0000000000000D+00  0.0000000000000D+00
289  2.8800000000000D+00  0.0000000000000D+00  0.0000000000000D+00
290  2.8900000000000D+00  0.0000000000000D+00  0.0000000000000D+00
291  2.9000000000000D+00  0.0000000000000D+00  0.0000000000000D+00
292  2.9100000000000D+00  0.0000000000000D+00  0.0000000000000D+00
293  2.9200000000000D+00  0.0000000000000D+00  0.0000000000000D+00
294  2.9300000000000D+00  0.0000000000000D+00  0.0000000000000D+00
295  2.9400000000000D+00  0.0000000000000D+00  0.0000000000000D+00
296  2.9500000000000D+00  0.0000000000000D+00  0.0000000000000D+00
297  2.9600000000000D+00  0.0000000000000D+00  0.0000000000000D+00
298  2.9700000000000D+00  0.0000000000000D+00  0.0000000000000D+00
299  2.9800000000000D+00  0.0000000000000D+00  0.0000000000000D+00
300  2.9900000000000D+00  0.0000000000000D+00  0.0000000000000D+00
301  3.0000000000000D+00  0.0000000000000D+00  0.0000000000000D+00
302  3.0100000000000D+00  0.0000000000000D+00  0.0000000000000D+00
303  3.0200000000000D+00  0.0000000000000D+00  0.0000000000000D+00
304  3.0300000000000D+00  0.0000000000000D+00  0.0000000000000D+00
305  3.0400000000000D+00  0.0000000000000D+00  0.0000000000000D+00
306  3.0500000000000D+00  0.0000000000000D+00  0.0000000000000D+00
307  3.0600000000000D+00  0.0000000000000D+00  0.0000000000000D+00
308  3.0700000000000D+00  0.0000000000000D+00  0.0000000000000D+00
309  3.0800000000000D+00  0.0000000000000D+00  0.0000000000000D+00
310  3.0900000000000D+00  0.0000000000000D+00  0.0000000000000D+00
311  3.1000000000000D+00  0.0000000000000D+00  0.0000000000000D+00
312  3.1100000000000D+00  0.0000000000000D+00  0.0000000000000D+00
313  3.1200000000000D+00  0.0000000000000D+00  0.0000000000000D+00
314  3.1300000000000D+00  0.0000000000000D+00  0.0000000000000D+00
315  3.1400000000000D+00  0.0000000000000D+00  0.0000000000000D+00
316  3.1500000000000D+00  0.0000000000000D+00  0.0000000000000D+00
317  3.1600000000000D+00  0.0000000000000D+00  0.0000000000000D+00
318  3.1700000000000D+00  0.0000000000000D+00  0.0000000000000D+00
319  3.1800000000000D+00  0.0000000000000D+00  0.0000000000000D+00
320  3.1900000000000D+00  0.0000000000000D+00  0.0000000000000D+00
321  3.2000000000000D+00  0.0000000000000D+00  0.0000000000000D+00
322  3.2100000000000D+00  0.0000000000000D+00  0.0000000000000D+00
323  3.2200000000000D+00  0.0000000000000D+00  0.0000000000000D+00
324  3.2300000000000D+00  0.0000000000000D+00  0.0000000000000D+00
325  3.2400000000000D+00  0.0000000000000D+00  0.0000000000000D+00
326  3.2500000000000D+00  0.0000000000000D+00  0.0000000000000D+00
327  3.2600000000000D+00  0.0000000000000D+00  0.0000000000000D+00
328  3.2700000000000D+00  0.0000000000000D+00  0.0000000000000D+00
329  3.2800000000000D+00  0.0000000000000D+00  0.0000000000000D+00
330  3.2900000000000D+00  0.0000000000000D+00  0.0000000000000D+00
331  3.3000000000000D+00  0.0000000000000D+00  0.0000000000000D+00
332  3.3100000000000D+00  0.0000000000000D+00  0.0000000000000D+00
333  3.3200000000000D+00  0.0000000000000D+00  0.0000000000000D+00
334  3.3300000000000D+00  0.0000000000000D+00  0.0000000000000D+00
335  3.3400000000000D+00  0.0000000000000D+00  0.0000000000000D+00
336  3.3500000000000D+00  0.0000000000000D+00  0.0000000000000D+00
337  3.3600000000000D+00  0.0000000000000D+00  0.0000000000000D+00
338  3.3700000000000D+00  0.0000000000000D+00  0.0000000000000D+00
339  3.3800000000000D+00  0.0000000000000D+00  0.0000000000000D+00
340  3.3900000000000D+00  0.0000000000000D+00  0.0000000000000D+00
341  3.4000000000000D+00  0.0000000000000D+00  0.0000000000000D+00
342  3.4100000000000D+00  0.0000000000000D+00  0.0000000000000D+00
343  3.4200000000000D+00  0.0000000000000D+00  0.0000000000000D+00
344  3.4300000000000D+00  0.0000000000000D+00  0.0000000000000D+00
345  3.4400000000000D+00  0.0000000000000D+00  0.0000000000000D+00
346  3.4500000000000D+00  0.0000000000000D+00  0.0000000000000D+00
347  3.4600000000000D+00  0.0000000000000D+00  0.0000000000000D+00
348  3.4700000000000D+00  0.0000000000000D+00  0.0000000000000D+00
349  3.4800000000000D+00  0.0000000000000D+00  0.0000000000000D+00
350  3.4900000000000D+00  0.0000000000000D+00  0.0000000000000D+00
351  3.5000000000000D+00  0.0000000000000D+00  0.0000000000000D+00
352  3.5100000000000D+00  0.0000000000000D+00  0.0000000000000D+00
353  3.5200000000000D+00  0.0000000000000D+00  0.0000000000000D+00
354  3.5300000000000D+00  0.0000000000000D+00  0.0000000000000D+00
355  3.5400000000000D+00  0.0000000000000D+00  0.0000000000000D+00
356  3.5500000000000D+00  0.0000000000000D+00  0.0000000000000D+00
357  3.5600000000000D+00  0.0000000000000D+00  0.0000000000000D+00
358  3.5700000000000D+00  0.0000000000000D+00  0.0000000000000D+00
359  3.5800000000000D+00  0.0000000000000D+00  0.0000000000000D+00
360  3.5900000000000D+00  0.0000000000000D+00  0.0000000000000D+00
361  3.6000000000000D+00  0.0000000000000D+00  0.0000000000000D+00
362  3.6100000000000D+00  0.0000000000000D+00  0.0000000000000D+00
363  3.6200000000000D+00  0.0000000000000D+00  0.0000000000000D+00
364  3.6300000000000D+00  0.0000000000000D+00  0.0000000000000D+00
365  3.6400000000000D+00  0.0000000000000D+00  0.0000000000000D+00
366  3.6500000000000D+00  0.0000000000000D+00  0.0000000000000D+00
367  3.6600000000000D+00  0.0000000000000D+00  0.0000000000000D+00
368  3.6700000000000D+00  0.0000000000000D+00  0.0000000000000D+00
369  3.6800000000000D+00  0.0000000000000D+00  0.0000000000000D+00
370  3.6900000000000D+00  0.0000000000000D+00  0.0000000000000D+00
371  3.7000000000000D+00  0.0000000000000D+00  0.0000000000000D+00
372  3.7100000000000D+00  0.0000000000000D+00  0.0000000000000D+00
373  3.7200000000000D+00  0.0000000000000D+00  0.0000000000000D+00
374  3.7300000000000D+00  0.0000000000000D+00  0.0000000000000D+00
375  3.7400000000000D+00  0.0000000000000D+00  0.0000000000000D+00
376  3.7500000000000D+00  0.0000000000000D+00  0.0000000000000D+00
377  3.7600000000000D+00  0.0000000000000D+00  0.0000000000000D+00
378  3.7700000000000D+00  0.0000000000000D+00  0.0000000000000D+00
379  3.7800000000000D+00  0.0000000000000D+00  0.0000000000000D+00
380  3.7900000000000D+00  0.0000000000000D+00  0.0000000000000D+00
381  3.8000000000000D+00  0.0000000000000D+00  0.0000000000000D+00
382  3.8100000000000D+00  0.0000000000000D+00  0.0000000000000D+00
383  3.8200000000000D+00  0.0000000000000D+00  0.0000000000000D+00
384  3.8300000000000D+00  0.0000000000000D+00  0.0000000000000D+00
385  3.8400000000000D+00  0.0000000000000D+00  0.0000000000000D+00
386  3.8500000000000D+00  0.0000000000000D+00  0.0000000000000D+00
387  3.8600000000000D+00  0.0000000000000D+00  0.0000000000000D+00
388  3.8700000000000D+00  0.0000000000000D+00  0.0000000000000D+00
389  3.8800000000000D+00  0.0000000000000D+00  0.0000000000000D+00
390  3.8900000000000D+00  0.0000000000000D+00  0.0000000000000D+00
391  3.9000000000000D+00  0.0000000000000D+00  0.0000000000000D+00
392  3.9100000000000D+00  0.0000000000000D+00  0.0000000000000D+00
393  3.9200000000000D+00  0.0000000000000D+00  0.0000000000000D+00
394  3.9300000000000D+00  0.0000000000000D+00  0.0000000000000D+00
395  3.9400000000000D+00  0.0000000000000D+00  0.0000000000000D+00
396  3.9500000000000D+00  0.0000000000000D+00  0.0000000000000D+00
397  3.9600000000000D+00  0.0000000000000D+00  0.0000000000000D+00
398  3.9700000000000D+00  0.0000000000000D+00  0.0000000000000D+00
399  3.9800000000000D+00  0.0000000000000D+00  0.0000000000000D+00
400  3.9900000000000D+00  0.0000000000000D+00  0.0000000000000D+00
401  4.0000000000000D+00  0.0000000000000D+00  0.0000000000000D+00
402  4.0100000000000D+00  0.0000000000000D+00  0.0000000000000D+00
403  4.0200000000000D+00  0.0000000000000D+00  0.0000000000000D+00
404  4.0300000000000D+00  0.0000000000000D+00  0.0000000000000D+00
405  4.0400000000000D+00  0.0000000000000D+00  0.0000000000000D+00
406  4.0500000000000D+00  0.0000000000000D+00  0.0000000000000D+00
407  4.0600000000000D+00  0.0000000000000D+00  0.0000000000000D+00
408  4.0700000000000D+00  0.0000000000000D+00  0.0000000000000D+00
409  4.0800000000000D+00  0.0000000000000D+00  0.0000000000000D+00
410  4.0900000000000D+00  0.0000000000000D+00  0.0000000000000D+00
411  4.1000000000000D+00  0.0000000000000D+00  0.0000000000000D+00
412  4.1100000000000D+00  0.0000000000000D+00  0.0000000000000D+00
413  4.1200000000000D+00  0.0000000000000D+00  0.0000000000000D+00
414  4.1300000000000D+00  0.0000000000000D+00  0.0000000000000D+00
415  4.1400000000000D+00  0.0000000000000D+00  0.0000000000000D+00
416  4.1500000000000D+00  0.0000000000000D+00  0.0000000000000D+00
417  4.1600000000000D+00  0.0000000000000D+00  0.0000000000000D+00
418  4.1700000000000D+00  0.0000000000000D+00  0.0000000000000D+00
419  4.1800000000000D+00  0.0000000000000D+00  0.0000000000000D+00
420  4.1900000000000D+00  0.0000000000000D+00  0.0000000000000D+00
421  4.2000000000000D+00  0.0000000000000D+00  0.0000000000000D+00
422  4.2100000000000D+00  0.0000000000000D+00  0.0000000000000D+00
423  4.2200000000000D+00  0.0000000000000D+00  0.0000000000000D+00
424  4.2300000000000D+00  0.0000000000000D+00  0.0000000000000D+00
425  4.2400000000000D+00  0.0000000000000D+00  0.0000000000000D+00
426  4.2500000000000D+00  0.0000000000000D+00  0.0000000000000D+00
427  4.2600000000000D+00  0.0000000000000D+00  0.0000000000000D+00
428  4.2700000000000D+00  0.0000000000000D+00  0.0000000000000D+00
429  4.2800000000000D+00  0.0000000000000D+00  0.0000000000000D+00
430  4.2900000000000D+00  0.0000000000000D+00  0.0000000000000D+00
431  4.3000000000000D+00  0.0000000000000D+00  0.0000000000000D+00
432  4.3100000000000D+00  0.0000000000000D+00  0.0000000000000D+00
433  4.3200000000000D+00  0.0000000000000D+00  0.0000000000000D+00
434  4.3300000000000D+00  0.0000000000000D+00  0.0000000000000D+00
435  4.3400000000000D+00  0.0000000000000D+00  0.0000000000000D+00
436  4.3500000000000D+00  0.0000000000000D+00  0.0000000000000D+00
437  4.3600000000000D+00  0.0000000000000D+00  0.0000000000000D+00
438  4.3700000000000D+00  0.0000000000000D+00  0.0000000000000D+00
439  4.3800000000000D+00  0.0000000000000D+00  0.0000000000000D+00
440  4.3900000000000D+00  0.0000000000000D+00  0.0000000000000D+00
441  4.4000000000000D+00  0.0000000000000D+00  0.0000000000000D+00
442  4.4100000000000D+00  0.0000000000000D+00  0.0000000000000D+00
443  4.4200000000000D+00  0.0000000000000D+00  0.0000000000000D+00