Zr    ONCVPSP-3.3.0  r_core=   1.56507   1.56507   1.51006
40.0000     12.0000      171103    zatom,zion,pspd
8   -1012   2     4   600     0    pspcod,pspxc,lmax,lloc,mmax,r2well
5.99000000  5.00000000  0.00000000    rchrg fchrg qchrg
2     2     2     0     0    nproj
1     1           extension_switch
0                         1.0575222978570D+01  8.9398191006494D-01
1  0.0000000000000D+00 -2.1026125285317D-10  1.0383148507653D-09
2  1.0000000000000D-02  5.6239202732098D-02 -3.1920548220751D-02
3  2.0000000000000D-02  1.1238471308277D-01 -6.3654259848578D-02
4  3.0000000000000D-02  1.6834322505704D-01 -9.5015984546649D-02
5  4.0000000000000D-02  2.2402220130692D-01 -1.2582392355870D-01
6  5.0000000000000D-02  2.7933024719462D-01 -1.5590125343794D-01
7  6.0000000000000D-02  3.3417747269447D-01 -1.8507768804867D-01
8  7.0000000000000D-02  3.8847583833005D-01 -2.1319095949873D-01
9  8.0000000000000D-02  4.4213948155296D-01 -2.4008819969929D-01
10  9.0000000000000D-02  4.9508502022759D-01 -2.6562720552178D-01
11  1.0000000000000D-01  5.4723183018814D-01 -2.8967757201499D-01
12  1.1000000000000D-01  5.9850229417665D-01 -3.1212167983991D-01
13  1.2000000000000D-01  6.4882201984907D-01 -3.3285552495425D-01
14  1.3000000000000D-01  6.9812002494616D-01 -3.5178938061057D-01
15  1.4000000000000D-01  7.4632888816169D-01 -3.6884828389521D-01
16  1.5000000000000D-01  7.9338486469599D-01 -3.8397234130390D-01
17  1.6000000000000D-01  8.3922796595392D-01 -3.9711685019486D-01
18  1.7000000000000D-01  8.8380200332451D-01 -4.0825223535250D-01
19  1.8000000000000D-01  9.2705459646126D-01 -4.1736380230464D-01
20  1.9000000000000D-01  9.6893714695825D-01 -4.2445131143243D-01
21  2.0000000000000D-01  1.0094047787844D+00 -4.2952837926532D-01
22  2.1000000000000D-01  1.0484162472881D+00 -4.3262171563276D-01
23  2.2000000000000D-01  1.0859338190108D+00 -4.3377020752184D-01
24  2.3000000000000D-01  1.1219231249498D+00 -4.3302386253579D-01
25  2.4000000000000D-01  1.1563529902726D+00 -4.3044262673760D-01
26  2.5000000000000D-01  1.1891952438152D+00 -4.2609509337011D-01
27  2.6000000000000D-01  1.2204245109757D+00 -4.2005712044548D-01
28  2.7000000000000D-01  1.2500179938562D+00 -4.1241037647476D-01
29  2.8000000000000D-01  1.2779552426839D+00 -4.0324083464139D-01
30  2.9000000000000D-01  1.3042179226794D+00 -3.9263723649986D-01
31  3.0000000000000D-01  1.3287895806094D+00 -3.8068954678781D-01
32  3.1000000000000D-01  1.3516554152834D+00 -3.6748742116897D-01
33  3.2000000000000D-01  1.3728020562081D+00 -3.5311870867209D-01
34  3.3000000000000D-01  1.3922173545155D+00 -3.3766801025243D-01
35  3.4000000000000D-01  1.4098901901220D+00 -3.2121531428342D-01
36  3.5000000000000D-01  1.4258102988612D+00 -3.0383472888904D-01
37  3.6000000000000D-01  1.4399681230656D+00 -2.8559332986245D-01
38  3.7000000000000D-01  1.4523546887481D+00 -2.6655014149708D-01
39  3.8000000000000D-01  1.4629615121706D+00 -2.4675526599547D-01
40  3.9000000000000D-01  1.4717805381707D+00 -2.2624917524098D-01
41  4.0000000000000D-01  1.4788041121676D+00 -2.0506217663681D-01
42  4.1000000000000D-01  1.4840249872835D+00 -1.8321406246203D-01
43  4.2000000000000D-01  1.4874363675035D+00 -1.6071394979173D-01
44  4.3000000000000D-01  1.4890319872609D+00 -1.3756031550599D-01
45  4.4000000000000D-01  1.4888062272895D+00 -1.1374122830416D-01
46  4.5000000000000D-01  1.4867542660228D+00 -8.9234776973867D-02
47  4.6000000000000D-01  1.4828722652633D+00 -6.4009691477660D-02
48  4.7000000000000D-01  1.4771575882964D+00 -3.8026150742790D-02
49  4.8000000000000D-01  1.4696090480796D+00 -1.1236768409475D-02
50  4.9000000000000D-01  1.4602271826256D+00  1.6412254758519D-02
51  5.0000000000000D-01  1.4490145542066D+00  4.4979825535392D-02
52  5.1000000000000D-01  1.4359760685517D+00  7.4528515993221D-02
53  5.2000000000000D-01  1.4211193097977D+00  1.0512300250395D-01
54  5.3000000000000D-01  1.4044548865872D+00  1.3682840603728D-01
55  5.4000000000000D-01  1.3859967843925D+00  1.6970855548607D-01
56  5.5000000000000D-01  1.3657627188911D+00  2.0382419717396D-01
57  5.6000000000000D-01  1.3437744850235D+00  2.3923117484151D-01
58  5.7000000000000D-01  1.3200582962354D+00  2.7597860525574D-01
59  5.8000000000000D-01  1.2946451083490D+00  3.1410707512233D-01
60  5.9000000000000D-01  1.2675709225172D+00  3.5364688519494D-01
61  6.0000000000000D-01  1.2388770617987D+00  3.9461636735870D-01
62  6.1000000000000D-01  1.2086104160464D+00  4.3702030001855D-01
63  6.2000000000000D-01  1.1768236500280D+00  4.8084844634286D-01
64  6.3000000000000D-01  1.1435753699933D+00  5.2607423880471D-01
65  6.4000000000000D-01  1.1089302442674D+00  5.7265363204645D-01
66  6.5000000000000D-01  1.0729590738765D+00  6.2052414435955D-01
67  6.6000000000000D-01  1.0357388097020D+00  6.6960410606123D-01
68  6.7000000000000D-01  9.9735251319993D-01  7.1979213077836D-01
69  6.8000000000000D-01  9.5788925831821D-01  7.7096682312049D-01
70  6.9000000000000D-01  9.1744397287952D-01  8.2298673349902D-01
71  7.0000000000000D-01  8.7611721836842D-01  8.7569056794057D-01
72  7.1000000000000D-01  8.3401490776256D-01  9.2889765768251D-01
73  7.2000000000000D-01  7.9124796176985D-01  9.8240869016537D-01
74  7.3000000000000D-01  7.4793190456427D-01  1.0360066998003D+00
75  7.4000000000000D-01  7.0418640085038D-01  1.0894583136086D+00
76  7.5000000000000D-01  6.6013473681564D-01  1.1425152435647D+00
77  7.6000000000000D-01  6.1590324824469D-01  1.1949160142524D+00
78  7.7000000000000D-01  5.7162069976309D-01  1.2463879113037D+00
79  7.8000000000000D-01  5.2741761983484D-01  1.2966491330916D+00
80  7.9000000000000D-01  4.8342559675710D-01  1.3454111253080D+00
81  8.0000000000000D-01  4.3977654146367D-01  1.3923810754244D+00
82  8.1000000000000D-01  3.9660192346080D-01  1.4372645416426D+00
83  8.2000000000000D-01  3.5403198666624D-01  1.4797681888241D+00
84  8.3000000000000D-01  3.1219495229990D-01  1.5196026020725D+00
85  8.4000000000000D-01  2.7121621627544D-01  1.5564851471590D+00
86  8.5000000000000D-01  2.3121754876226D-01  1.5901428458504D+00
87  8.6000000000000D-01  1.9231630372281D-01  1.6203152334400D+00
88  8.7000000000000D-01  1.5462464627781D-01  1.6467571654081D+00
89  8.8000000000000D-01  1.1824880570995D-01  1.6692415401633D+00
90  8.9000000000000D-01  8.3288361784499D-02  1.6875619052377D+00
91  9.0000000000000D-01  4.9835571842857D-02  1.7015349151362D+00
92  9.1000000000000D-01  1.7974745813946D-02  1.7110026102583D+00
93  9.2000000000000D-01 -1.2218324108785D-02  1.7158344879186D+00
94  9.3000000000000D-01 -4.0676872856944D-02  1.7159293384689D+00
95  9.4000000000000D-01 -6.7343605233389D-02  1.7112168218529D+00
96  9.5000000000000D-01 -9.2171066935242D-02  1.7016587625818D+00
97  9.6000000000000D-01 -1.1512193947001D-01  1.6872501440697D+00
98  9.7000000000000D-01 -1.3616925533317D-01  1.6680197864803D+00
99  9.8000000000000D-01 -1.5529653063177D-01  1.6440306957362D+00
100  9.9000000000000D-01 -1.7249781315775D-01  1.6153800748653D+00
101  1.0000000000000D+00 -1.8777764481995D-01  1.5821989927686D+00
102  1.0100000000000D+00 -2.0115093822713D-01  1.5446517093182D+00
103  1.0200000000000D+00 -2.1264276812533D-01  1.5029346596433D+00
104  1.0300000000000D+00 -2.2228807930121D-01  1.4572751044135D+00
105  1.0400000000000D+00 -2.3013131347209D-01  1.4079294568813D+00
106  1.0500000000000D+00 -2.3622595854686D-01  1.3551813012130D+00
107  1.0600000000000D+00 -2.4063402447915D-01  1.2993391202844D+00
108  1.0700000000000D+00 -2.4342545077565D-01  1.2407337547935D+00
109  1.0800000000000D+00 -2.4467745143187D-01  1.1797156186394D+00
110  1.0900000000000D+00 -2.4447380378746D-01  1.1166516986588D+00
111  1.1000000000000D+00 -2.4290408838146D-01  1.0519223693761D+00
112  1.1100000000000D+00 -2.4006288744266D-01  9.8591805584607D-01
113  1.1200000000000D+00 -2.3604895012619D-01  9.1903577973333D-01
114  1.1300000000000D+00 -2.3096433294002D-01  8.5167562521410D-01
115  1.1400000000000D+00 -2.2491352407424D-01  7.8423716244000D-01
116  1.1500000000000D+00 -2.1800256052414D-01  7.1711586706227D-01
117  1.1600000000000D+00 -2.1033814697268D-01  6.5069957460150D-01
118  1.1700000000000D+00 -2.0202678531953D-01  5.8536500806577D-01
119  1.1800000000000D+00 -1.9317392360419D-01  5.2147441656459D-01
120  1.1900000000000D+00 -1.8388313289245D-01  4.5937236183695D-01
121  1.2000000000000D+00 -1.7425532025593D-01  3.9938268761688D-01
122  1.2100000000000D+00 -1.6438798545096D-01  3.4180570439367D-01
123  1.2200000000000D+00 -1.5437452867777D-01  2.8691562110125D-01
124  1.2300000000000D+00 -1.4430361582731D-01  2.3495825088429D-01
125  1.2400000000000D+00 -1.3425860695571D-01  1.8614901508991D-01
126  1.2500000000000D+00 -1.2431705322427D-01  1.4067126737672D-01
127  1.2600000000000D+00 -1.1455026650268D-01  9.8674955157799D-02
128  1.2700000000000D+00 -1.0502296469454D-01  6.0275630491441D-02
129  1.2800000000000D+00 -9.5792995425701D-02  2.5553820655324D-02
130  1.2900000000000D+00 -8.6911139564879D-02 -5.4452366111394D-03
131  1.3000000000000D+00 -7.8420994552138D-02 -3.2711494895860D-02
132  1.3100000000000D+00 -7.0358937447048D-02 -5.6269639918962D-02
133  1.3200000000000D+00 -6.2754166061949D-02 -7.6178278261387D-02
134  1.3300000000000D+00 -5.5628815109642D-02 -9.2528789329044D-02
135  1.3400000000000D+00 -4.8998144718094D-02 -1.0544385398006D-01
136  1.3500000000000D+00 -4.2870796395578D-02 -1.1507568337326D-01
137  1.3600000000000D+00 -3.7249110948294D-02 -1.2160397415403D-01
138  1.3700000000000D+00 -3.2129503288075D-02 -1.2523361418840D-01
139  1.3800000000000D+00 -2.7502886247938D-02 -1.2619217556070D-01
140  1.3900000000000D+00 -2.3355136715542D-02 -1.2472722623525D-01
141  1.4000000000000D+00 -1.9667596059007D-02 -1.2110349774648D-01
142  1.4100000000000D+00 -1.6417594696629D-02 -1.1559995674540D-01
143  1.4200000000000D+00 -1.3579000948817D-02 -1.0850677420816D-01
144  1.4300000000000D+00 -1.1122750905992D-02 -1.0012241332553D-01
145  1.4400000000000D+00 -9.0174697261106D-03 -9.0750258192806D-02
146  1.4500000000000D+00 -7.2299262035079D-03 -8.0696102792247D-02
147  1.4600000000000D+00 -5.7253932658286D-03 -7.0266191883654D-02
148  1.4700000000000D+00 -4.4690220752979D-03 -5.9759794718594D-02
149  1.4800000000000D+00 -3.4270887237625D-03 -4.9462599016080D-02
150  1.4900000000000D+00 -2.5684943192551D-03 -3.9639031036466D-02
151  1.5000000000000D+00 -1.8656880807435D-03 -3.0527651574617D-02
152  1.5100000000000D+00 -1.2949970842272D-03 -2.2339788337933D-02
153  1.5200000000000D+00 -8.3743664718988D-04 -1.5262823207338D-02
154  1.5300000000000D+00 -4.7777432636054D-04 -9.4174304951410D-03
155  1.5400000000000D+00 -2.0741963871257D-04 -4.9305869563250D-03
156  1.5500000000000D+00 -2.3682714775106D-05 -2.0224739729938D-03
157  1.5600000000000D+00  7.1461131725433D-05 -5.8807492201835D-04
158  1.5700000000000D+00  7.2719838164658D-05 -7.7614089083687D-05
159  1.5800000000000D+00  1.9518050311040D-05  9.3576176754236D-06
160  1.5900000000000D+00 -1.0977693915897D-05 -1.1282305621700D-05
161  1.6000000000000D+00 -4.3643925758493D-06 -6.1627138055739D-06
162  1.6100000000000D+00  2.3942785817611D-06  1.0566602331067D-06
163  1.6200000000000D+00  7.5612946752631D-07  4.6732746086376D-07
164  1.6300000000000D+00 -2.3530847104042D-07  7.1173983436987D-07
165  1.6400000000000D+00 -5.6296790105608D-08  1.7028145178181D-07
166  1.6500000000000D+00  0.0000000000000D+00  0.0000000000000D+00
167  1.6600000000000D+00  0.0000000000000D+00  0.0000000000000D+00
168  1.6700000000000D+00  0.0000000000000D+00  0.0000000000000D+00
169  1.6800000000000D+00  0.0000000000000D+00  0.0000000000000D+00
170  1.6900000000000D+00  0.0000000000000D+00  0.0000000000000D+00
171  1.7000000000000D+00  0.0000000000000D+00  0.0000000000000D+00
172  1.7100000000000D+00  0.0000000000000D+00  0.0000000000000D+00
173  1.7200000000000D+00  0.0000000000000D+00  0.0000000000000D+00
174  1.7300000000000D+00  0.0000000000000D+00  0.0000000000000D+00
175  1.7400000000000D+00  0.0000000000000D+00  0.0000000000000D+00
176  1.7500000000000D+00  0.0000000000000D+00  0.0000000000000D+00
177  1.7600000000000D+00  0.0000000000000D+00  0.0000000000000D+00
178  1.7700000000000D+00  0.0000000000000D+00  0.0000000000000D+00
179  1.7800000000000D+00  0.0000000000000D+00  0.0000000000000D+00
180  1.7900000000000D+00  0.0000000000000D+00  0.0000000000000D+00
181  1.8000000000000D+00  0.0000000000000D+00  0.0000000000000D+00
182  1.8100000000000D+00  0.0000000000000D+00  0.0000000000000D+00
183  1.8200000000000D+00  0.0000000000000D+00  0.0000000000000D+00
184  1.8300000000000D+00  0.0000000000000D+00  0.0000000000000D+00
185  1.8400000000000D+00  0.0000000000000D+00  0.0000000000000D+00
186  1.8500000000000D+00  0.0000000000000D+00  0.0000000000000D+00
187  1.8600000000000D+00  0.0000000000000D+00  0.0000000000000D+00
188  1.8700000000000D+00  0.0000000000000D+00  0.0000000000000D+00
189  1.8800000000000D+00  0.0000000000000D+00  0.0000000000000D+00
190  1.8900000000000D+00  0.0000000000000D+00  0.0000000000000D+00
191  1.9000000000000D+00  0.0000000000000D+00  0.0000000000000D+00
192  1.9100000000000D+00  0.0000000000000D+00  0.0000000000000D+00
193  1.9200000000000D+00  0.0000000000000D+00  0.0000000000000D+00
194  1.9300000000000D+00  0.0000000000000D+00  0.0000000000000D+00
195  1.9400000000000D+00  0.0000000000000D+00  0.0000000000000D+00
196  1.9500000000000D+00  0.0000000000000D+00  0.0000000000000D+00
197  1.9600000000000D+00  0.0000000000000D+00  0.0000000000000D+00
198  1.9700000000000D+00  0.0000000000000D+00  0.0000000000000D+00
199  1.9800000000000D+00  0.0000000000000D+00  0.0000000000000D+00
200  1.9900000000000D+00  0.0000000000000D+00  0.0000000000000D+00
201  2.0000000000000D+00  0.0000000000000D+00  0.0000000000000D+00
202  2.0100000000000D+00  0.0000000000000D+00  0.0000000000000D+00
203  2.0200000000000D+00  0.0000000000000D+00  0.0000000000000D+00
204  2.0300000000000D+00  0.0000000000000D+00  0.0000000000000D+00
205  2.0400000000000D+00  0.0000000000000D+00  0.0000000000000D+00
206  2.0500000000000D+00  0.0000000000000D+00  0.0000000000000D+00
207  2.0600000000000D+00  0.0000000000000D+00  0.0000000000000D+00
208  2.0700000000000D+00  0.0000000000000D+00  0.0000000000000D+00
209  2.0800000000000D+00  0.0000000000000D+00  0.0000000000000D+00
210  2.0900000000000D+00  0.0000000000000D+00  0.0000000000000D+00
211  2.1000000000000D+00  0.0000000000000D+00  0.0000000000000D+00
212  2.1100000000000D+00  0.0000000000000D+00  0.0000000000000D+00
213  2.1200000000000D+00  0.0000000000000D+00  0.0000000000000D+00
214  2.1300000000000D+00  0.0000000000000D+00  0.0000000000000D+00
215  2.1400000000000D+00  0.0000000000000D+00  0.0000000000000D+00
216  2.1500000000000D+00  0.0000000000000D+00  0.0000000000000D+00
217  2.1600000000000D+00  0.0000000000000D+00  0.0000000000000D+00
218  2.1700000000000D+00  0.0000000000000D+00  0.0000000000000D+00
219  2.1800000000000D+00  0.0000000000000D+00  0.0000000000000D+00
220  2.1900000000000D+00  0.0000000000000D+00  0.0000000000000D+00
221  2.2000000000000D+00  0.0000000000000D+00  0.0000000000000D+00
222  2.2100000000000D+00  0.0000000000000D+00  0.0000000000000D+00
223  2.2200000000000D+00  0.0000000000000D+00  0.0000000000000D+00
224  2.2300000000000D+00  0.0000000000000D+00  0.0000000000000D+00
225  2.2400000000000D+00  0.0000000000000D+00  0.0000000000000D+00
226  2.2500000000000D+00  0.0000000000000D+00  0.0000000000000D+00
227  2.2600000000000D+00  0.0000000000000D+00  0.0000000000000D+00
228  2.2700000000000D+00  0.0000000000000D+00  0.0000000000000D+00
229  2.2800000000000D+00  0.0000000000000D+00  0.0000000000000D+00
230  2.2900000000000D+00  0.0000000000000D+00  0.0000000000000D+00
231  2.3000000000000D+00  0.0000000000000D+00  0.0000000000000D+00
232  2.3100000000000D+00  0.0000000000000D+00  0.0000000000000D+00
233  2.3200000000000D+00  0.0000000000000D+00  0.0000000000000D+00
234  2.3300000000000D+00  0.0000000000000D+00  0.0000000000000D+00
235  2.3400000000000D+00  0.0000000000000D+00  0.0000000000000D+00
236  2.3500000000000D+00  0.0000000000000D+00  0.0000000000000D+00
237  2.3600000000000D+00  0.0000000000000D+00  0.0000000000000D+00
238  2.3700000000000D+00  0.0000000000000D+00  0.0000000000000D+00
239  2.3800000000000D+00  0.0000000000000D+00  0.0000000000000D+00
240  2.3900000000000D+00  0.0000000000000D+00  0.0000000000000D+00
241  2.4000000000000D+00  0.0000000000000D+00  0.0000000000000D+00
242  2.4100000000000D+00  0.0000000000000D+00  0.0000000000000D+00
243  2.4200000000000D+00  0.0000000000000D+00  0.0000000000000D+00
244  2.4300000000000D+00  0.0000000000000D+00  0.0000000000000D+00
245  2.4400000000000D+00  0.0000000000000D+00  0.0000000000000D+00
246  2.4500000000000D+00  0.0000000000000D+00  0.0000000000000D+00
247  2.4600000000000D+00  0.0000000000000D+00  0.0000000000000D+00
248  2.4700000000000D+00  0.0000000000000D+00  0.0000000000000D+00
249  2.4800000000000D+00  0.0000000000000D+00  0.0000000000000D+00
250  2.4900000000000D+00  0.0000000000000D+00  0.0000000000000D+00
251  2.5000000000000D+00  0.0000000000000D+00  0.0000000000000D+00
252  2.5100000000000D+00  0.0000000000000D+00  0.0000000000000D+00
253  2.5200000000000D+00  0.0000000000000D+00  0.0000000000000D+00
254  2.5300000000000D+00  0.0000000000000D+00  0.0000000000000D+00
255  2.5400000000000D+00  0.0000000000000D+00  0.0000000000000D+00
256  2.5500000000000D+00  0.0000000000000D+00  0.0000000000000D+00
257  2.5600000000000D+00  0.0000000000000D+00  0.0000000000000D+00
258  2.5700000000000D+00  0.0000000000000D+00  0.0000000000000D+00
259  2.5800000000000D+00  0.0000000000000D+00  0.0000000000000D+00
260  2.5900000000000D+00  0.0000000000000D+00  0.0000000000000D+00
261  2.6000000000000D+00  0.0000000000000D+00  0.0000000000000D+00
262  2.6100000000000D+00  0.0000000000000D+00  0.0000000000000D+00
263  2.6200000000000D+00  0.0000000000000D+00  0.0000000000000D+00
264  2.6300000000000D+00  0.0000000000000D+00  0.0000000000000D+00
265  2.6400000000000D+00  0.0000000000000D+00  0.0000000000000D+00
266  2.6500000000000D+00  0.0000000000000D+00  0.0000000000000D+00
267  2.6600000000000D+00  0.0000000000000D+00  0.0000000000000D+00
268  2.6700000000000D+00  0.0000000000000D+00  0.0000000000000D+00
269  2.6800000000000D+00  0.0000000000000D+00  0.0000000000000D+00
270  2.6900000000000D+00  0.0000000000000D+00  0.0000000000000D+00
271  2.7000000000000D+00  0.0000000000000D+00  0.0000000000000D+00
272  2.7100000000000D+00  0.0000000000000D+00  0.0000000000000D+00
273  2.7200000000000D+00  0.0000000000000D+00  0.0000000000000D+00
274  2.7300000000000D+00  0.0000000000000D+00  0.0000000000000D+00
275  2.7400000000000D+00  0.0000000000000D+00  0.0000000000000D+00
276  2.7500000000000D+00  0.0000000000000D+00  0.0000000000000D+00
277  2.7600000000000D+00  0.0000000000000D+00  0.0000000000000D+00
278  2.7700000000000D+00  0.0000000000000D+00  0.0000000000000D+00
279  2.7800000000000D+00  0.0000000000000D+00  0.0000000000000D+00
280  2.7900000000000D+00  0.0000000000000D+00  0.0000000000000D+00
281  2.8000000000000D+00  0.0000000000000D+00  0.0000000000000D+00
282  2.8100000000000D+00  0.0000000000000D+00  0.0000000000000D+00
283  2.8200000000000D+00  0.0000000000000D+00  0.0000000000000D+00
284  2.8300000000000D+00  0.0000000000000D+00  0.0000000000000D+00
285  2.8400000000000D+00  0.0000000000000D+00  0.0000000000000D+00
286  2.8500000000000D+00  0.0000000000000D+00  0.0000000000000D+00
287  2.8600000000000D+00  0.0000000000000D+00  0.0000000000000D+00
288  2.8700000000000D+00  0.0000000000000D+00  0.0000000000000D+00
289  2.8800000000000D+00  0.0000000000000D+00  0.0000000000000D+00
290  2.8900000000000D+00  0.0000000000000D+00  0.0000000000000D+00
291  2.9000000000000D+00  0.0000000000000D+00  0.0000000000000D+00
292  2.9100000000000D+00  0.0000000000000D+00  0.0000000000000D+00
293  2.9200000000000D+00  0.0000000000000D+00  0.0000000000000D+00
294  2.9300000000000D+00  0.0000000000000D+00  0.0000000000000D+00
295  2.9400000000000D+00  0.0000000000000D+00  0.0000000000000D+00
296  2.9500000000000D+00  0.0000000000000D+00  0.0000000000000D+00
297  2.9600000000000D+00  0.0000000000000D+00  0.0000000000000D+00
298  2.9700000000000D+00  0.0000000000000D+00  0.0000000000000D+00
299  2.9800000000000D+00  0.0000000000000D+00  0.0000000000000D+00
300  2.9900000000000D+00  0.0000000000000D+00  0.0000000000000D+00
301  3.0000000000000D+00  0.0000000000000D+00  0.0000000000000D+00
302  3.0100000000000D+00  0.0000000000000D+00  0.0000000000000D+00
303  3.0200000000000D+00  0.0000000000000D+00  0.0000000000000D+00
304  3.0300000000000D+00  0.0000000000000D+00  0.0000000000000D+00
305  3.0400000000000D+00  0.0000000000000D+00  0.0000000000000D+00
306  3.0500000000000D+00  0.0000000000000D+00  0.0000000000000D+00
307  3.0600000000000D+00  0.0000000000000D+00  0.0000000000000D+00
308  3.0700000000000D+00  0.0000000000000D+00  0.0000000000000D+00
309  3.0800000000000D+00  0.0000000000000D+00  0.0000000000000D+00
310  3.0900000000000D+00  0.0000000000000D+00  0.0000000000000D+00
311  3.1000000000000D+00  0.0000000000000D+00  0.0000000000000D+00
312  3.1100000000000D+00  0.0000000000000D+00  0.0000000000000D+00
313  3.1200000000000D+00  0.0000000000000D+00  0.0000000000000D+00
314  3.1300000000000D+00  0.0000000000000D+00  0.0000000000000D+00
315  3.1400000000000D+00  0.0000000000000D+00  0.0000000000000D+00
316  3.1500000000000D+00  0.0000000000000D+00  0.0000000000000D+00
317  3.1600000000000D+00  0.0000000000000D+00  0.0000000000000D+00
318  3.1700000000000D+00  0.0000000000000D+00  0.0000000000000D+00
319  3.1800000000000D+00  0.0000000000000D+00  0.0000000000000D+00
320  3.1900000000000D+00  0.0000000000000D+00  0.0000000000000D+00
321  3.2000000000000D+00  0.0000000000000D+00  0.0000000000000D+00
322  3.2100000000000D+00  0.0000000000000D+00  0.0000000000000D+00
323  3.2200000000000D+00  0.0000000000000D+00  0.0000000000000D+00
324  3.2300000000000D+00  0.0000000000000D+00  0.0000000000000D+00
325  3.2400000000000D+00  0.0000000000000D+00  0.0000000000000D+00
326  3.2500000000000D+00  0.0000000000000D+00  0.0000000000000D+00
327  3.2600000000000D+00  0.0000000000000D+00  0.0000000000000D+00
328  3.2700000000000D+00  0.0000000000000D+00  0.0000000000000D+00
329  3.2800000000000D+00  0.0000000000000D+00  0.0000000000000D+00
330  3.2900000000000D+00  0.0000000000000D+00  0.0000000000000D+00
331  3.3000000000000D+00  0.0000000000000D+00  0.0000000000000D+00
332  3.3100000000000D+00  0.0000000000000D+00  0.0000000000000D+00
333  3.3200000000000D+00  0.0000000000000D+00  0.0000000000000D+00
334  3.3300000000000D+00  0.0000000000000D+00  0.0000000000000D+00
335  3.3400000000000D+00  0.0000000000000D+00  0.0000000000000D+00
336  3.3500000000000D+00  0.0000000000000D+00  0.0000000000000D+00
337  3.3600000000000D+00  0.0000000000000D+00  0.0000000000000D+00
338  3.3700000000000D+00  0.0000000000000D+00  0.0000000000000D+00
339  3.3800000000000D+00  0.0000000000000D+00  0.0000000000000D+00
340  3.3900000000000D+00  0.0000000000000D+00  0.0000000000000D+00
341  3.4000000000000D+00  0.0000000000000D+00  0.0000000000000D+00
342  3.4100000000000D+00  0.0000000000000D+00  0.0000000000000D+00
343  3.4200000000000D+00  0.0000000000000D+00  0.0000000000000D+00
344  3.4300000000000D+00  0.0000000000000D+00  0.0000000000000D+00
345  3.4400000000000D+00  0.0000000000000D+00  0.0000000000000D+00
346  3.4500000000000D+00  0.0000000000000D+00  0.0000000000000D+00
347  3.4600000000000D+00  0.0000000000000D+00  0.0000000000000D+00
348  3.4700000000000D+00  0.0000000000000D+00  0.0000000000000D+00
349  3.4800000000000D+00  0.0000000000000D+00  0.0000000000000D+00
350  3.4900000000000D+00  0.0000000000000D+00  0.0000000000000D+00
351  3.5000000000000D+00  0.0000000000000D+00  0.0000000000000D+00
352  3.5100000000000D+00  0.0000000000000D+00  0.0000000000000D+00
353  3.5200000000000D+00  0.0000000000000D+00  0.0000000000000D+00
354  3.5300000000000D+00  0.0000000000000D+00  0.0000000000000D+00
355  3.5400000000000D+00  0.0000000000000D+00  0.0000000000000D+00
356  3.5500000000000D+00  0.0000000000000D+00  0.0000000000000D+00
357  3.5600000000000D+00  0.0000000000000D+00  0.0000000000000D+00
358  3.5700000000000D+00  0.0000000000000D+00  0.0000000000000D+00
359  3.5800000000000D+00  0.0000000000000D+00  0.0000000000000D+00
360  3.5900000000000D+00  0.0000000000000D+00  0.0000000000000D+00
361  3.6000000000000D+00  0.0000000000000D+00  0.0000000000000D+00
362  3.6100000000000D+00  0.0000000000000D+00  0.0000000000000D+00
363  3.6200000000000D+00  0.0000000000000D+00  0.0000000000000D+00
364  3.6300000000000D+00  0.0000000000000D+00  0.0000000000000D+00
365  3.6400000000000D+00  0.0000000000000D+00  0.0000000000000D+00
366  3.6500000000000D+00  0.0000000000000D+00  0.0000000000000D+00
367  3.6600000000000D+00  0.0000000000000D+00  0.0000000000000D+00
368  3.6700000000000D+00  0.0000000000000D+00  0.0000000000000D+00
369  3.6800000000000D+00  0.0000000000000D+00  0.0000000000000D+00
370  3.6900000000000D+00  0.0000000000000D+00  0.0000000000000D+00
371  3.7000000000000D+00  0.0000000000000D+00  0.0000000000000D+00
372  3.7100000000000D+00  0.0000000000000D+00  0.0000000000000D+00
373  3.7200000000000D+00  0.0000000000000D+00  0.0000000000000D+00
374  3.7300000000000D+00  0.0000000000000D+00  0.0000000000000D+00
375  3.7400000000000D+00  0.0000000000000D+00  0.0000000000000D+00
376  3.7500000000000D+00  0.0000000000000D+00  0.0000000000000D+00
377  3.7600000000000D+00  0.0000000000000D+00  0.0000000000000D+00
378  3.7700000000000D+00  0.0000000000000D+00  0.0000000000000D+00
379  3.7800000000000D+00  0.0000000000000D+00  0.0000000000000D+00
380  3.7900000000000D+00  0.0000000000000D+00  0.0000000000000D+00
381  3.8000000000000D+00  0.0000000000000D+00  0.0000000000000D+00
382  3.8100000000000D+00  0.0000000000000D+00  0.0000000000000D+00
383  3.8200000000000D+00  0.0000000000000D+00  0.0000000000000D+00
384  3.8300000000000D+00  0.0000000000000D+00  0.0000000000000D+00
385  3.8400000000000D+00  0.0000000000000D+00  0.0000000000000D+00
386  3.8500000000000D+00  0.0000000000000D+00  0.0000000000000D+00
387  3.8600000000000D+00  0.0000000000000D+00  0.0000000000000D+00
388  3.8700000000000D+00  0.0000000000000D+00  0.0000000000000D+00
389  3.8800000000000D+00  0.0000000000000D+00  0.0000000000000D+00
390  3.8900000000000D+00  0.0000000000000D+00  0.0000000000000D+00
391  3.9000000000000D+00  0.0000000000000D+00  0.0000000000000D+00
392  3.9100000000000D+00  0.0000000000000D+00  0.0000000000000D+00
393  3.9200000000000D+00  0.0000000000000D+00  0.0000000000000D+00
394  3.9300000000000D+00  0.0000000000000D+00  0.0000000000000D+00
395  3.9400000000000D+00  0.0000000000000D+00  0.0000000000000D+00
396  3.9500000000000D+00  0.0000000000000D+00  0.0000000000000D+00
397  3.9600000000000D+00  0.0000000000000D+00  0.0000000000000D+00
398  3.9700000000000D+00  0.0000000000000D+00  0.0000000000000D+00
399  3.9800000000000D+00  0.0000000000000D+00  0.0000000000000D+00
400  3.9900000000000D+00  0.0000000000000D+00  0.0000000000000D+00
401  4.0000000000000D+00  0.0000000000000D+00  0.0000000000000D+00
402  4.0100000000000D+00  0.0000000000000D+00  0.0000000000000D+00
403  4.0200000000000D+00  0.0000000000000D+00  0.0000000000000D+00
404  4.0300000000000D+00  0.0000000000000D+00  0.0000000000000D+00
405  4.0400000000000D+00  0.0000000000000D+00  0.0000000000000D+00
406  4.0500000000000D+00  0.0000000000000D+00  0.0000000000000D+00
407  4.0600000000000D+00  0.0000000000000D+00  0.0000000000000D+00
408  4.0700000000000D+00  0.0000000000000D+00  0.0000000000000D+00
409  4.0800000000000D+00  0.0000000000000D+00  0.0000000000000D+00
410  4.0900000000000D+00  0.0000000000000D+00  0.0000000000000D+00
411  4.1000000000000D+00  0.0000000000000D+00  0.0000000000000D+00
412  4.1100000000000D+00  0.0000000000000D+00  0.0000000000000D+00
413  4.1200000000000D+00  0.0000000000000D+00  0.0000000000000D+00
414  4.1300000000000D+00  0.0000000000000D+00  0.0000000000000D+00
415  4.1400000000000D+00  0.0000000000000D+00  0.0000000000000D+00
416  4.1500000000000D+00  0.0000000000000D+00  0.0000000000000D+00
417  4.1600000000000D+00  0.0000000000000D+00  0.0000000000000D+00
418  4.1700000000000D+00  0.0000000000000D+00  0.0000000000000D+00
419  4.1800000000000D+00  0.0000000000000D+00  0.0000000000000D+00
420  4.1900000000000D+00  0.0000000000000D+00  0.0000000000000D+00
421  4.2000000000000D+00  0.0000000000000D+00  0.0000000000000D+00
422  4.2100000000000D+00  0.0000000000000D+00  0.0000000000000D+00
423  4.2200000000000D+00  0.0000000000000D+00  0.0000000000000D+00
424  4.2300000000000D+00  0.0000000000000D+00  0.0000000000000D+00
425  4.2400000000000D+00  0.0000000000000D+00  0.0000000000000D+00
426  4.2500000000000D+00  0.0000000000000D+00  0.0000000000000D+00
427  4.2600000000000D+00  0.0000000000000D+00  0.0000000000000D+00
428  4.2700000000000D+00  0.0000000000000D+00  0.0000000000000D+00
429  4.2800000000000D+00  0.0000000000000D+00  0.0000000000000D+00
430  4.2900000000000D+00  0.0000000000000D+00  0.0000000000000D+00
431  4.3000000000000D+00  0.0000000000000D+00  0.0000000000000D+00
432  4.3100000000000D+00  0.0000000000000D+00  0.0000000000000D+00
433  4.3200000000000D+00  0.0000000000000D+00  0.0000000000000D+00
434  4.3300000000000D+00  0.0000000000000D+00  0.0000000000000D+00
435  4.3400000000000D+00  0.0000000000000D+00  0.0000000000000D+00
436  4.3500000000000D+00  0.0000000000000D+00  0.0000000000000D+00
437  4.3600000000000D+00  0.0000000000000D+00  0.0000000000000D+00
438  4.3700000000000D+00  0.0000000000000D+00  0.0000000000000D+00
439  4.3800000000000D+00  0.0000000000000D+00  0.0000000000000D+00
440  4.3900000000000D+00  0.0000000000000D+00  0.0000000000000D+00
441  4.4000000000000D+00  0.0000000000000D+00  0.0000000000000D+00
442  4.4100000000000D+00  0.0000000000000D+00  0.0000000000000D+00
443  4.4200000000000D+00  0.0000000000000D+00  0.0000000000000D+00