Ga    ONCVPSP  r_core=  1.61  1.71  1.67
31.0000     13.0000      140817    zatom,zion,pspd
8    11     2     4   601     0    pspcod,pspxc,lmax,lloc,mmax,r2well
6.00000000  0.40000000  0.00000000    rchrg fchrg qchrg
2     2     2     0     0    nproj
0                 extension_switch
0                         9.3432324933440D+00  1.4523604604693D+00
1  0.0000000000000D+00 -0.0000000000000D+00 -0.0000000000000D+00
2  1.0000000000000D-02 -5.2236540785303D-02 -3.1256142375135D-02
3  2.0000000000000D-02 -1.0423875198717D-01 -6.2287031045694D-02
4  3.0000000000000D-02 -1.5577407449934D-01 -9.2869132732832D-02
5  4.0000000000000D-02 -2.0661347664524D-01 -1.2278234165463D-01
6  5.0000000000000D-02 -2.5653318418102D-01 -1.5181165998841D-01
7  6.0000000000000D-02 -3.0531637011981D-01 -1.7974883866585D-01
8  7.0000000000000D-02 -3.5275479145072D-01 -2.0639396574675D-01
9  8.0000000000000D-02 -3.9865036019819D-01 -2.3155698999033D-01
10  9.0000000000000D-02 -4.4281663678814D-01 -2.5505916776499D-01
11  1.0000000000000D-01 -4.8508023419654D-01 -2.7673442194967D-01
12  1.1000000000000D-01 -5.2528212207272D-01 -2.9643060219730D-01
13  1.2000000000000D-01 -5.6327882075103D-01 -3.1401063665406D-01
14  1.3000000000000D-01 -5.9894347594801D-01 -3.2935356611136D-01
15  1.4000000000000D-01 -6.3216680535706D-01 -3.4235545200202D-01
16  1.5000000000000D-01 -6.6285791054770D-01 -3.5293015180171D-01
17  1.6000000000000D-01 -6.9094494640336D-01 -3.6100995431028D-01
18  1.7000000000000D-01 -7.1637564441562D-01 -3.6654607124905D-01
19  1.8000000000000D-01 -7.3911768361347D-01 -3.6950897922808D-01
20  1.9000000000000D-01 -7.5915890758369D-01 -3.6988861065799D-01
21  2.0000000000000D-01 -7.7650738458018D-01 -3.6769439084645D-01
22  2.1000000000000D-01 -7.9119131044425D-01 -3.6295512115353D-01
23  2.2000000000000D-01 -8.0325875417946D-01 -3.5571870827313D-01
24  2.3000000000000D-01 -8.1277724803124D-01 -3.4605174168250D-01
25  2.4000000000000D-01 -8.1983322493736D-01 -3.3403892226858D-01
26  2.5000000000000D-01 -8.2453130590612D-01 -3.1978234488870D-01
27  2.6000000000000D-01 -8.2699344570344D-01 -3.0340064351149D-01
28  2.7000000000000D-01 -8.2735793781260D-01 -2.8502799988196D-01
29  2.8000000000000D-01 -8.2577828968507D-01 -2.6481302707960D-01
30  2.9000000000000D-01 -8.2242197652512D-01 -2.4291753627842D-01
31  3.0000000000000D-01 -8.1746907981242D-01 -2.1951519305559D-01
32  3.1000000000000D-01 -8.1111082511029D-01 -1.9479007793189D-01
33  3.2000000000000D-01 -8.0354802576578D-01 -1.6893515785983D-01
34  3.3000000000000D-01 -7.9498943372360D-01 -1.4215067018435D-01
35  3.4000000000000D-01 -7.8565005900412D-01 -1.1464248002439D-01
36  3.5000000000000D-01 -7.7574937099997D-01 -8.6620325652642D-02
37  3.6000000000000D-01 -7.6550954184191D-01 -5.8296109973867D-02
38  3.7000000000000D-01 -7.5515355058437D-01 -2.9882060182444D-02
39  3.8000000000000D-01 -7.4490338738108D-01 -1.5889906154478D-03
40  3.9000000000000D-01 -7.3497820040534D-01  2.6375485380945D-02
41  4.0000000000000D-01 -7.2559241716516D-01  5.3808762690211D-02
42  4.1000000000000D-01 -7.1695397199879D-01  8.0514942269247D-02
43  4.2000000000000D-01 -7.0926253462702D-01  1.0630652189971D-01
44  4.3000000000000D-01 -7.0270779578113D-01  1.3100602492758D-01
45  4.4000000000000D-01 -6.9746782516794D-01  1.5444755200005D-01
46  4.5000000000000D-01 -6.9370751201492D-01  1.7647824570974D-01
47  4.6000000000000D-01 -6.9157710498251D-01  1.9695965182697D-01
48  4.7000000000000D-01 -6.9121088555605D-01  2.1576894459882D-01
49  4.8000000000000D-01 -6.9272582319716D-01  2.3280015987422D-01
50  4.9000000000000D-01 -6.9622055668166D-01  2.4796510802894D-01
51  5.0000000000000D-01 -7.0177440796793D-01  2.6119424706803D-01
52  5.1000000000000D-01 -7.0944662255354D-01  2.7243733265173D-01
53  5.2000000000000D-01 -7.1927543457648D-01  2.8166421813781D-01
54  5.3000000000000D-01 -7.3127786283437D-01  2.8886496099152D-01
55  5.4000000000000D-01 -7.4544922891725D-01  2.9405017882256D-01
56  5.5000000000000D-01 -7.6176284076233D-01  2.9725123159772D-01
57  5.6000000000000D-01 -7.8017032725863D-01  2.9851980465443D-01
58  5.7000000000000D-01 -8.0060131227287D-01  2.9792806230515D-01
59  5.8000000000000D-01 -8.2296428290113D-01  2.9556773101199D-01
60  5.9000000000000D-01 -8.4714658511600D-01  2.9154991785605D-01
61  6.0000000000000D-01 -8.7301550268106D-01  2.8600398932382D-01
62  6.1000000000000D-01 -9.0041883296003D-01  2.7907683954629D-01
63  6.2000000000000D-01 -9.2918597953546D-01  2.7093171258853D-01
64  6.3000000000000D-01 -9.5912912508113D-01  2.6174696997097D-01
65  6.4000000000000D-01 -9.9004444064907D-01  2.5171471145812D-01
66  6.5000000000000D-01 -1.0217135965879D+00  2.4103925403333D-01
67  6.6000000000000D-01 -1.0539051966607D+00  2.2993562234136D-01
68  6.7000000000000D-01 -1.0863766250565D+00  2.1862757564657D-01
69  6.8000000000000D-01 -1.1188757054569D+00  2.0734594777515D-01
70  6.9000000000000D-01 -1.1511425580373D+00  1.9632673566571D-01
71  7.0000000000000D-01 -1.1829113910992D+00  1.8580928586297D-01
72  7.1000000000000D-01 -1.2139129288601D+00  1.7603379735950D-01
73  7.2000000000000D-01 -1.2438761278832D+00  1.6723964047862D-01
74  7.3000000000000D-01 -1.2725303010082D+00  1.5966322870079D-01
75  7.4000000000000D-01 -1.2996072348774D+00  1.5353591693894D-01
76  7.5000000000000D-01 -1.3248432901817D+00  1.4908193394428D-01
77  7.6000000000000D-01 -1.3479813353490D+00  1.4651650084673D-01
78  7.7000000000000D-01 -1.3687731841571D+00  1.4604344284417D-01
79  7.8000000000000D-01 -1.3869813732312D+00  1.4785350259130D-01
80  7.9000000000000D-01 -1.4023810277386D+00  1.5212257025646D-01
81  8.0000000000000D-01 -1.4147617928925D+00  1.5900986079848D-01
82  8.1000000000000D-01 -1.4239296044700D+00  1.6865627112213D-01
83  8.2000000000000D-01 -1.4297083517304D+00  1.8118286124779D-01
84  8.3000000000000D-01 -1.4319414192080D+00  1.9668947294230D-01
85  8.4000000000000D-01 -1.4304930947116D+00  2.1525349830727D-01
86  8.5000000000000D-01 -1.4252498317974D+00  2.3692880978784D-01
87  8.6000000000000D-01 -1.4161213559912D+00  2.6174486195306D-01
88  8.7000000000000D-01 -1.4030416051219D+00  2.8970597421027D-01
89  8.8000000000000D-01 -1.3859694952846D+00  3.2079080234522D-01
90  8.9000000000000D-01 -1.3648895051970D+00  3.5495200542109D-01
91  9.0000000000000D-01 -1.3398120730491D+00  3.9211611311014D-01
92  9.1000000000000D-01 -1.3107738013889D+00  4.3218359696096D-01
93  9.2000000000000D-01 -1.2778374671511D+00  4.7502914740509D-01
94  9.3000000000000D-01 -1.2410918228949D+00  5.2050216721779D-01
95  9.4000000000000D-01 -1.2006508788177D+00  5.6842772846825D-01
96  9.5000000000000D-01 -1.1566544742475D+00  6.1860650198900D-01
97  9.6000000000000D-01 -1.1092663486499D+00  6.7081683962207D-01
98  9.7000000000000D-01 -1.0586735609461D+00  7.2481572787070D-01
99  9.8000000000000D-01 -1.0050853505546D+00  7.8034025292062D-01
100  9.9000000000000D-01 -9.4873182719581D-01  8.3710923718667D-01
101  1.0000000000000D+00 -8.8986250162684D-01  8.9482503311852D-01
102  1.0100000000000D+00 -8.2874462046565D-01  9.5317538932543D-01
103  1.0200000000000D+00 -7.6566174987873D-01  1.0118354070681D+00
104  1.0300000000000D+00 -7.0091152283966D-01  1.0704701726146D+00
105  1.0400000000000D+00 -6.3480353310804D-01  1.1287369124340D+00
106  1.0500000000000D+00 -5.6765734993744D-01  1.1862873723336D+00
107  1.0600000000000D+00 -4.9980048749495D-01  1.2427700562061D+00
108  1.0700000000000D+00 -4.3156672917608D-01  1.2978320166056D+00
109  1.0800000000000D+00 -3.6329177948775D-01  1.3511243819427D+00
110  1.0900000000000D+00 -2.9531253431661D-01  1.4023023358543D+00
111  1.1000000000000D+00 -2.2796440364270D-01  1.4510283029845D+00
112  1.1100000000000D+00 -1.6158063114357D-01  1.4969724085884D+00
113  1.1200000000000D+00 -9.6486173153516D-02  1.5398199074545D+00
114  1.1300000000000D+00 -3.2996930930206D-02  1.5792714419181D+00
115  1.1400000000000D+00  2.8581325555895D-02  1.6150440183132D+00
116  1.1500000000000D+00  8.7952702671401D-02  1.6468704888412D+00
117  1.1600000000000D+00  1.4484091665880D-01  1.6745109254402D+00
118  1.1700000000000D+00  1.9898669944691D-01  1.6977489544432D+00
119  1.1800000000000D+00  2.5014772654268D-01  1.7163914636998D+00
120  1.1900000000000D+00  2.9809908574298D-01  1.7302690387259D+00
121  1.2000000000000D+00  3.4264692871135D-01  1.7392512714357D+00
122  1.2100000000000D+00  3.8361689967608D-01  1.7432330760125D+00
123  1.2200000000000D+00  4.2085379364725D-01  1.7421343349023D+00
124  1.2300000000000D+00  4.5423801833385D-01  1.7359180669390D+00
125  1.2400000000000D+00  4.8367480127149D-01  1.7245778503011D+00
126  1.2500000000000D+00  5.0909005990553D-01  1.7081332755204D+00
127  1.2600000000000D+00  5.3044535772354D-01  1.6866460667076D+00
128  1.2700000000000D+00  5.4773133514400D-01  1.6602123182275D+00
129  1.2800000000000D+00  5.6095845870985D-01  1.6289525793892D+00
130  1.2900000000000D+00  5.7017376782093D-01  1.5930293648510D+00
131  1.3000000000000D+00  5.7545217837325D-01  1.5526372270333D+00
132  1.3100000000000D+00  5.7688667077179D-01  1.5079927883068D+00
133  1.3200000000000D+00  5.7460795801402D-01  1.4593542123825D+00
134  1.3300000000000D+00  5.6876799794791D-01  1.4070037161367D+00
135  1.3400000000000D+00  5.5953621170614D-01  1.3512445232365D+00
136  1.3500000000000D+00  5.4711721482190D-01  1.2924161782104D+00
137  1.3600000000000D+00  5.3172741859567D-01  1.2308724159968D+00
138  1.3700000000000D+00  5.1360523295898D-01  1.1669905996343D+00
139  1.3800000000000D+00  4.9300892651697D-01  1.1011669815085D+00
140  1.3900000000000D+00  4.7020788147221D-01  1.0338115871600D+00
141  1.4000000000000D+00  4.4548898854362D-01  9.6534901449748D-01
142  1.4100000000000D+00  4.1914688344041D-01  8.9621153923883D-01
143  1.4200000000000D+00  3.9148780940772D-01  8.2684306378456D-01
144  1.4300000000000D+00  3.6281989010290D-01  7.5768321635273D-01
145  1.4400000000000D+00  3.3346115719279D-01  6.8918440840777D-01
146  1.4500000000000D+00  3.0372378806413D-01  6.2178417851519D-01
147  1.4600000000000D+00  2.7392272524248D-01  5.5592265788960D-01
148  1.4700000000000D+00  2.4437007997287D-01  4.9203233552330D-01
149  1.4800000000000D+00  2.1536266568475D-01  4.3052216738687D-01
150  1.4900000000000D+00  1.8720612627308D-01  3.7181162381820D-01
151  1.5000000000000D+00  1.6016875405491D-01  3.1626661931402D-01
152  1.5100000000000D+00  1.3453414415804D-01  2.6427310529195D-01
153  1.5200000000000D+00  1.1054175871763D-01  2.1615549364620D-01
154  1.5300000000000D+00  8.8434426712072D-02  1.7224212047699D-01
155  1.5400000000000D+00  6.8422036451462D-02  1.3281592942157D-01
156  1.5500000000000D+00  5.0694590534131D-02  9.8132860373912D-02
157  1.5600000000000D+00  3.5426454594745D-02  6.8427053216259D-02
158  1.5700000000000D+00  2.2747030045912D-02  4.3872828348092D-02
159  1.5800000000000D+00  1.2789114884044D-02  2.4647998801521D-02
160  1.5900000000000D+00  5.6165029885804D-03  1.0839373213688D-02
161  1.6000000000000D+00  1.6216593721713D-03  3.1565580319411D-03
162  1.6100000000000D+00 -1.2799113632320D-04 -2.0448066935072D-04
163  1.6200000000000D+00 -3.9642444260704D-04 -7.4209196940682D-04
164  1.6300000000000D+00  1.5370991914611D-06  2.4224681765290D-06
165  1.6400000000000D+00  7.5268436730222D-06  1.1862304898016D-05
166  1.6500000000000D+00  0.0000000000000D+00  0.0000000000000D+00
167  1.6600000000000D+00  0.0000000000000D+00  0.0000000000000D+00
168  1.6700000000000D+00  0.0000000000000D+00  0.0000000000000D+00
169  1.6800000000000D+00  0.0000000000000D+00  0.0000000000000D+00
170  1.6900000000000D+00  0.0000000000000D+00  0.0000000000000D+00
171  1.7000000000000D+00  0.0000000000000D+00  0.0000000000000D+00
172  1.7100000000000D+00  0.0000000000000D+00  0.0000000000000D+00
173  1.7200000000000D+00  0.0000000000000D+00  0.0000000000000D+00
174  1.7300000000000D+00  0.0000000000000D+00  0.0000000000000D+00
175  1.7400000000000D+00  0.0000000000000D+00  0.0000000000000D+00
176  1.7500000000000D+00  0.0000000000000D+00  0.0000000000000D+00
177  1.7600000000000D+00  0.0000000000000D+00  0.0000000000000D+00
178  1.7700000000000D+00  0.0000000000000D+00  0.0000000000000D+00
179  1.7800000000000D+00  0.0000000000000D+00  0.0000000000000D+00
180  1.7900000000000D+00  0.0000000000000D+00  0.0000000000000D+00
181  1.8000000000000D+00  0.0000000000000D+00  0.0000000000000D+00
182  1.8100000000000D+00  0.0000000000000D+00  0.0000000000000D+00
183  1.8200000000000D+00  0.0000000000000D+00  0.0000000000000D+00
184  1.8300000000000D+00  0.0000000000000D+00  0.0000000000000D+00
185  1.8400000000000D+00  0.0000000000000D+00  0.0000000000000D+00
186  1.8500000000000D+00  0.0000000000000D+00  0.0000000000000D+00
187  1.8600000000000D+00  0.0000000000000D+00  0.0000000000000D+00
188  1.8700000000000D+00  0.0000000000000D+00  0.0000000000000D+00
189  1.8800000000000D+00  0.0000000000000D+00  0.0000000000000D+00
190  1.8900000000000D+00  0.0000000000000D+00  0.0000000000000D+00
191  1.9000000000000D+00  0.0000000000000D+00  0.0000000000000D+00
192  1.9100000000000D+00  0.0000000000000D+00  0.0000000000000D+00
193  1.9200000000000D+00  0.0000000000000D+00  0.0000000000000D+00
194  1.9300000000000D+00  0.0000000000000D+00  0.0000000000000D+00
195  1.9400000000000D+00  0.0000000000000D+00  0.0000000000000D+00
196  1.9500000000000D+00  0.0000000000000D+00  0.0000000000000D+00
197  1.9600000000000D+00  0.0000000000000D+00  0.0000000000000D+00
198  1.9700000000000D+00  0.0000000000000D+00  0.0000000000000D+00
199  1.9800000000000D+00  0.0000000000000D+00  0.0000000000000D+00
200  1.9900000000000D+00  0.0000000000000D+00  0.0000000000000D+00
201  2.0000000000000D+00  0.0000000000000D+00  0.0000000000000D+00
202  2.0100000000000D+00  0.0000000000000D+00  0.0000000000000D+00
203  2.0200000000000D+00  0.0000000000000D+00  0.0000000000000D+00
204  2.0300000000000D+00  0.0000000000000D+00  0.0000000000000D+00
205  2.0400000000000D+00  0.0000000000000D+00  0.0000000000000D+00
206  2.0500000000000D+00  0.0000000000000D+00  0.0000000000000D+00
207  2.0600000000000D+00  0.0000000000000D+00  0.0000000000000D+00
208  2.0700000000000D+00  0.0000000000000D+00  0.0000000000000D+00
209  2.0800000000000D+00  0.0000000000000D+00  0.0000000000000D+00
210  2.0900000000000D+00  0.0000000000000D+00  0.0000000000000D+00
211  2.1000000000000D+00  0.0000000000000D+00  0.0000000000000D+00
212  2.1100000000000D+00  0.0000000000000D+00  0.0000000000000D+00
213  2.1200000000000D+00  0.0000000000000D+00  0.0000000000000D+00
214  2.1300000000000D+00  0.0000000000000D+00  0.0000000000000D+00
215  2.1400000000000D+00  0.0000000000000D+00  0.0000000000000D+00
216  2.1500000000000D+00  0.0000000000000D+00  0.0000000000000D+00
217  2.1600000000000D+00  0.0000000000000D+00  0.0000000000000D+00
218  2.1700000000000D+00  0.0000000000000D+00  0.0000000000000D+00
219  2.1800000000000D+00  0.0000000000000D+00  0.0000000000000D+00
220  2.1900000000000D+00  0.0000000000000D+00  0.0000000000000D+00
221  2.2000000000000D+00  0.0000000000000D+00  0.0000000000000D+00
222  2.2100000000000D+00  0.0000000000000D+00  0.0000000000000D+00
223  2.2200000000000D+00  0.0000000000000D+00  0.0000000000000D+00
224  2.2300000000000D+00  0.0000000000000D+00  0.0000000000000D+00
225  2.2400000000000D+00  0.0000000000000D+00  0.0000000000000D+00
226  2.2500000000000D+00  0.0000000000000D+00  0.0000000000000D+00
227  2.2600000000000D+00  0.0000000000000D+00  0.0000000000000D+00
228  2.2700000000000D+00  0.0000000000000D+00  0.0000000000000D+00
229  2.2800000000000D+00  0.0000000000000D+00  0.0000000000000D+00
230  2.2900000000000D+00  0.0000000000000D+00  0.0000000000000D+00
231  2.3000000000000D+00  0.0000000000000D+00  0.0000000000000D+00
232  2.3100000000000D+00  0.0000000000000D+00  0.0000000000000D+00
233  2.3200000000000D+00  0.0000000000000D+00  0.0000000000000D+00
234  2.3300000000000D+00  0.0000000000000D+00  0.0000000000000D+00
235  2.3400000000000D+00  0.0000000000000D+00  0.0000000000000D+00
236  2.3500000000000D+00  0.0000000000000D+00  0.0000000000000D+00
237  2.3600000000000D+00  0.0000000000000D+00  0.0000000000000D+00
238  2.3700000000000D+00  0.0000000000000D+00  0.0000000000000D+00
239  2.3800000000000D+00  0.0000000000000D+00  0.0000000000000D+00
240  2.3900000000000D+00  0.0000000000000D+00  0.0000000000000D+00
241  2.4000000000000D+00  0.0000000000000D+00  0.0000000000000D+00
242  2.4100000000000D+00  0.0000000000000D+00  0.0000000000000D+00
243  2.4200000000000D+00  0.0000000000000D+00  0.0000000000000D+00
244  2.4300000000000D+00  0.0000000000000D+00  0.0000000000000D+00
245  2.4400000000000D+00  0.0000000000000D+00  0.0000000000000D+00
246  2.4500000000000D+00  0.0000000000000D+00  0.0000000000000D+00
247  2.4600000000000D+00  0.0000000000000D+00  0.0000000000000D+00
248  2.4700000000000D+00  0.0000000000000D+00  0.0000000000000D+00
249  2.4800000000000D+00  0.0000000000000D+00  0.0000000000000D+00
250  2.4900000000000D+00  0.0000000000000D+00  0.0000000000000D+00
251  2.5000000000000D+00  0.0000000000000D+00  0.0000000000000D+00
252  2.5100000000000D+00  0.0000000000000D+00  0.0000000000000D+00
253  2.5200000000000D+00  0.0000000000000D+00  0.0000000000000D+00
254  2.5300000000000D+00  0.0000000000000D+00  0.0000000000000D+00
255  2.5400000000000D+00  0.0000000000000D+00  0.0000000000000D+00
256  2.5500000000000D+00  0.0000000000000D+00  0.0000000000000D+00
257  2.5600000000000D+00  0.0000000000000D+00  0.0000000000000D+00
258  2.5700000000000D+00  0.0000000000000D+00  0.0000000000000D+00
259  2.5800000000000D+00  0.0000000000000D+00  0.0000000000000D+00
260  2.5900000000000D+00  0.0000000000000D+00  0.0000000000000D+00
261  2.6000000000000D+00  0.0000000000000D+00  0.0000000000000D+00
262  2.6100000000000D+00  0.0000000000000D+00  0.0000000000000D+00
263  2.6200000000000D+00  0.0000000000000D+00  0.0000000000000D+00
264  2.6300000000000D+00  0.0000000000000D+00  0.0000000000000D+00
265  2.6400000000000D+00  0.0000000000000D+00  0.0000000000000D+00
266  2.6500000000000D+00  0.0000000000000D+00  0.0000000000000D+00
267  2.6600000000000D+00  0.0000000000000D+00  0.0000000000000D+00
268  2.6700000000000D+00  0.0000000000000D+00  0.0000000000000D+00
269  2.6800000000000D+00  0.0000000000000D+00  0.0000000000000D+00
270  2.6900000000000D+00  0.0000000000000D+00  0.0000000000000D+00
271  2.7000000000000D+00  0.0000000000000D+00  0.0000000000000D+00
272  2.7100000000000D+00  0.0000000000000D+00  0.0000000000000D+00
273  2.7200000000000D+00  0.0000000000000D+00  0.0000000000000D+00
274  2.7300000000000D+00  0.0000000000000D+00  0.0000000000000D+00
275  2.7400000000000D+00  0.0000000000000D+00  0.0000000000000D+00
276  2.7500000000000D+00  0.0000000000000D+00  0.0000000000000D+00
277  2.7600000000000D+00  0.0000000000000D+00  0.0000000000000D+00
278  2.7700000000000D+00  0.0000000000000D+00  0.0000000000000D+00
279  2.7800000000000D+00  0.0000000000000D+00  0.0000000000000D+00
280  2.7900000000000D+00  0.0000000000000D+00  0.0000000000000D+00
281  2.8000000000000D+00  0.0000000000000D+00  0.0000000000000D+00
282  2.8100000000000D+00  0.0000000000000D+00  0.0000000000000D+00
283  2.8200000000000D+00  0.0000000000000D+00  0.0000000000000D+00
284  2.8300000000000D+00  0.0000000000000D+00  0.0000000000000D+00
285  2.8400000000000D+00  0.0000000000000D+00  0.0000000000000D+00
286  2.8500000000000D+00  0.0000000000000D+00  0.0000000000000D+00
287  2.8600000000000D+00  0.0000000000000D+00  0.0000000000000D+00
288  2.8700000000000D+00  0.0000000000000D+00  0.0000000000000D+00
289  2.8800000000000D+00  0.0000000000000D+00  0.0000000000000D+00
290  2.8900000000000D+00  0.0000000000000D+00  0.0000000000000D+00
291  2.9000000000000D+00  0.0000000000000D+00  0.0000000000000D+00
292  2.9100000000000D+00  0.0000000000000D+00  0.0000000000000D+00
293  2.9200000000000D+00  0.0000000000000D+00  0.0000000000000D+00
294  2.9300000000000D+00  0.0000000000000D+00  0.0000000000000D+00
295  2.9400000000000D+00  0.0000000000000D+00  0.0000000000000D+00
296  2.9500000000000D+00  0.0000000000000D+00  0.0000000000000D+00
297  2.9600000000000D+00  0.0000000000000D+00  0.0000000000000D+00
298  2.9700000000000D+00  0.0000000000000D+00  0.0000000000000D+00
299  2.9800000000000D+00  0.0000000000000D+00  0.0000000000000D+00
300  2.9900000000000D+00  0.0000000000000D+00  0.0000000000000D+00
301  3.0000000000000D+00  0.0000000000000D+00  0.0000000000000D+00
302  3.0100000000000D+00  0.0000000000000D+00  0.0000000000000D+00
303  3.0200000000000D+00  0.0000000000000D+00  0.0000000000000D+00
304  3.0300000000000D+00  0.0000000000000D+00  0.0000000000000D+00
305  3.0400000000000D+00  0.0000000000000D+00  0.0000000000000D+00
306  3.0500000000000D+00  0.0000000000000D+00  0.0000000000000D+00
307  3.0600000000000D+00  0.0000000000000D+00  0.0000000000000D+00
308  3.0700000000000D+00  0.0000000000000D+00  0.0000000000000D+00
309  3.0800000000000D+00  0.0000000000000D+00  0.0000000000000D+00
310  3.0900000000000D+00  0.0000000000000D+00  0.0000000000000D+00
311  3.1000000000000D+00  0.0000000000000D+00  0.0000000000000D+00
312  3.1100000000000D+00  0.0000000000000D+00  0.0000000000000D+00
313  3.1200000000000D+00  0.0000000000000D+00  0.0000000000000D+00
314  3.1300000000000D+00  0.0000000000000D+00  0.0000000000000D+00
315  3.1400000000000D+00  0.0000000000000D+00  0.0000000000000D+00
316  3.1500000000000D+00  0.0000000000000D+00  0.0000000000000D+00
317  3.1600000000000D+00  0.0000000000000D+00  0.0000000000000D+00
318  3.1700000000000D+00  0.0000000000000D+00  0.0000000000000D+00
319  3.1800000000000D+00  0.0000000000000D+00  0.0000000000000D+00
320  3.1900000000000D+00  0.0000000000000D+00  0.0000000000000D+00
321  3.2000000000000D+00  0.0000000000000D+00  0.0000000000000D+00
322  3.2100000000000D+00  0.0000000000000D+00  0.0000000000000D+00
323  3.2200000000000D+00  0.0000000000000D+00  0.0000000000000D+00
324  3.2300000000000D+00  0.0000000000000D+00  0.0000000000000D+00
325  3.2400000000000D+00  0.0000000000000D+00  0.0000000000000D+00
326  3.2500000000000D+00  0.0000000000000D+00  0.0000000000000D+00
327  3.2600000000000D+00  0.0000000000000D+00  0.0000000000000D+00
328  3.2700000000000D+00  0.0000000000000D+00  0.0000000000000D+00
329  3.2800000000000D+00  0.0000000000000D+00  0.0000000000000D+00
330  3.2900000000000D+00  0.0000000000000D+00  0.0000000000000D+00
331  3.3000000000000D+00  0.0000000000000D+00  0.0000000000000D+00
332  3.3100000000000D+00  0.0000000000000D+00  0.0000000000000D+00
333  3.3200000000000D+00  0.0000000000000D+00  0.0000000000000D+00
334  3.3300000000000D+00  0.0000000000000D+00  0.0000000000000D+00
335  3.3400000000000D+00  0.0000000000000D+00  0.0000000000000D+00
336  3.3500000000000D+00  0.0000000000000D+00  0.0000000000000D+00
337  3.3600000000000D+00  0.0000000000000D+00  0.0000000000000D+00
338  3.3700000000000D+00  0.0000000000000D+00  0.0000000000000D+00
339  3.3800000000000D+00  0.0000000000000D+00  0.0000000000000D+00
340  3.3900000000000D+00  0.0000000000000D+00  0.0000000000000D+00
341  3.4000000000000D+00  0.0000000000000D+00  0.0000000000000D+00
342  3.4100000000000D+00  0.0000000000000D+00  0.0000000000000D+00
343  3.4200000000000D+00  0.0000000000000D+00  0.0000000000000D+00
344  3.4300000000000D+00  0.0000000000000D+00  0.0000000000000D+00
345  3.4400000000000D+00  0.0000000000000D+00  0.0000000000000D+00
346  3.4500000000000D+00  0.0000000000000D+00  0.0000000000000D+00
347  3.4600000000000D+00  0.0000000000000D+00  0.0000000000000D+00
348  3.4700000000000D+00  0.0000000000000D+00  0.0000000000000D+00
349  3.4800000000000D+00  0.0000000000000D+00  0.0000000000000D+00
350  3.4900000000000D+00  0.0000000000000D+00  0.0000000000000D+00
351  3.5000000000000D+00  0.0000000000000D+00  0.0000000000000D+00
352  3.5100000000000D+00  0.0000000000000D+00  0.0000000000000D+00
353  3.5200000000000D+00  0.0000000000000D+00  0.0000000000000D+00
354  3.5300000000000D+00  0.0000000000000D+00  0.0000000000000D+00
355  3.5400000000000D+00  0.0000000000000D+00  0.0000000000000D+00
356  3.5500000000000D+00  0.0000000000000D+00  0.0000000000000D+00
357  3.5600000000000D+00  0.0000000000000D+00  0.0000000000000D+00
358  3.5700000000000D+00  0.0000000000000D+00  0.0000000000000D+00
359  3.5800000000000D+00  0.0000000000000D+00  0.0000000000000D+00
360  3.5900000000000D+00  0.0000000000000D+00  0.0000000000000D+00
361  3.6000000000000D+00  0.0000000000000D+00  0.0000000000000D+00
362  3.6100000000000D+00  0.0000000000000D+00  0.0000000000000D+00
363  3.6200000000000D+00  0.0000000000000D+00  0.0000000000000D+00
364  3.6300000000000D+00  0.0000000000000D+00  0.0000000000000D+00
365  3.6400000000000D+00  0.0000000000000D+00  0.0000000000000D+00
366  3.6500000000000D+00  0.0000000000000D+00  0.0000000000000D+00
367  3.6600000000000D+00  0.0000000000000D+00  0.0000000000000D+00
368  3.6700000000000D+00  0.0000000000000D+00  0.0000000000000D+00
369  3.6800000000000D+00  0.0000000000000D+00  0.0000000000000D+00
370  3.6900000000000D+00  0.0000000000000D+00  0.0000000000000D+00
371  3.7000000000000D+00  0.0000000000000D+00  0.0000000000000D+00
372  3.7100000000000D+00  0.0000000000000D+00  0.0000000000000D+00
373  3.7200000000000D+00  0.0000000000000D+00  0.0000000000000D+00
374  3.7300000000000D+00  0.0000000000000D+00  0.0000000000000D+00
375  3.7400000000000D+00  0.0000000000000D+00  0.0000000000000D+00
376  3.7500000000000D+00  0.0000000000000D+00  0.0000000000000D+00
377  3.7600000000000D+00  0.0000000000000D+00  0.0000000000000D+00
378  3.7700000000000D+00  0.0000000000000D+00  0.0000000000000D+00
379  3.7800000000000D+00  0.0000000000000D+00  0.0000000000000D+00
380  3.7900000000000D+00  0.0000000000000D+00  0.0000000000000D+00
381  3.8000000000000D+00  0.0000000000000D+00  0.0000000000000D+00
382  3.8100000000000D+00  0.0000000000000D+00  0.0000000000000D+00
383  3.8200000000000D+00  0.0000000000000D+00  0.0000000000000D+00
384  3.8300000000000D+00  0.0000000000000D+00  0.0000000000000D+00
385  3.8400000000000D+00  0.0000000000000D+00  0.0000000000000D+00
386  3.8500000000000D+00  0.0000000000000D+00  0.0000000000000D+00
387  3.8600000000000D+00  0.0000000000000D+00  0.0000000000000D+00
388  3.8700000000000D+00  0.0000000000000D+00  0.0000000000000D+00
389  3.8800000000000D+00  0.0000000000000D+00  0.0000000000000D+00
390  3.8900000000000D+00  0.0000000000000D+00  0.0000000000000D+00
391  3.9000000000000D+00  0.0000000000000D+00  0.0000000000000D+00
392  3.9100000000000D+00  0.0000000000000D+00  0.0000000000000D+00
393  3.9200000000000D+00  0.0000000000000D+00  0.0000000000000D+00
394  3.9300000000000D+00  0.0000000000000D+00  0.0000000000000D+00
395  3.9400000000000D+00  0.0000000000000D+00  0.0000000000000D+00
396  3.9500000000000D+00  0.0000000000000D+00  0.0000000000000D+00
397  3.9600000000000D+00  0.0000000000000D+00  0.0000000000000D+00
398  3.9700000000000D+00  0.0000000000000D+00  0.0000000000000D+00
399  3.9800000000000D+00  0.0000000000000D+00  0.0000000000000D+00
400  3.9900000000000D+00  0.0000000000000D+00  0.0000000000000D+00
401  4.0000000000000D+00  0.0000000000000D+00  0.0000000000000D+00
402  4.0100000000000D+00  0.0000000000000D+00  0.0000000000000D+00
403  4.0200000000000D+00  0.0000000000000D+00  0.0000000000000D+00
404  4.0300000000000D+00  0.0000000000000D+00  0.0000000000000D+00
405  4.0400000000000D+00  0.0000000000000D+00  0.0000000000000D+00
406  4.0500000000000D+00  0.0000000000000D+00  0.0000000000000D+00
407  4.0600000000000D+00  0.0000000000000D+00  0.0000000000000D+00
408  4.0700000000000D+00  0.0000000000000D+00  0.0000000000000D+00
409  4.0800000000000D+00  0.0000000000000D+00  0.0000000000000D+00
410  4.0900000000000D+00  0.0000000000000D+00  0.0000000000000D+00
411  4.1000000000000D+00  0.0000000000000D+00  0.0000000000000D+00
412  4.1100000000000D+00  0.0000000000000D+00  0.0000000000000D+00
413  4.1200000000000D+00  0.0000000000000D+00  0.0000000000000D+00
414  4.1300000000000D+00  0.0000000000000D+00  0.0000000000000D+00
415  4.1400000000000D+00  0.0000000000000D+00  0.0000000000000D+00
416  4.1500000000000D+00  0.0000000000000D+00  0.0000000000000D+00
417  4.1600000000000D+00  0.0000000000000D+00  0.0000000000000D+00
418  4.1700000000000D+00  0.0000000000000D+00  0.0000000000000D+00
419  4.1800000000000D+00  0.0000000000000D+00  0.0000000000000D+00
420  4.1900000000000D+00  0.0000000000000D+00  0.0000000000000D+00
421  4.2000000000000D+00  0.0000000000000D+00  0.0000000000000D+00
422  4.2100000000000D+00  0.0000000000000D+00  0.0000000000000D+00
423  4.2200000000000D+00  0.0000000000000D+00  0.0000000000000D+00
424  4.2300000000000D+00  0.0000000000000D+00  0.0000000000000D+00
425  4.2400000000000D+00  0.0000000000000D+00  0.0000000000000D+00
426  4.2500000000000D+00  0.0000000000000D+00  0.0000000000000D+00
427  4.2600000000000D+00  0.0000000000000D+00  0.0000000000000D+00
428  4.2700000000000D+00  0.0000000000000D+00  0.0000000000000D+00
429  4.2800000000000D+00  0.0000000000000D+00  0.0000000000000D+00
430  4.2900000000000D+00  0.0000000000000D+00  0.0000000000000D+00
431  4.3000000000000D+00  0.0000000000000D+00  0.0000000000000D+00
432  4.3100000000000D+00  0.0000000000000D+00  0.0000000000000D+00
433  4.3200000000000D+00  0.0000000000000D+00  0.0000000000000D+00
434  4.3300000000000D+00  0.0000000000000D+00  0.0000000000000D+00
435  4.3400000000000D+00  0.0000000000000D+00  0.0000000000000D+00
436  4.3500000000000D+00  0.0000000000000D+00  0.0000000000000D+00
437  4.3600000000000D+00  0.0000000000000D+00  0.0000000000000D+00
438  4.3700000000000D+00  0.0000000000000D+00  0.0000000000000D+00
439  4.3800000000000D+00  0.0000000000000D+00  0.0000000000000D+00
440  4.3900000000000D+00  0.0000000000000D+00  0.0000000000000D+00
441  4.4000000000000D+00  0.0000000000000D+00  0.0000000000000D+00
442  4.4100000000000D+00  0.0000000000000D+00  0.0000000000000D+00
443  4.4200000000000D+00  0.0000000000000D+00  0.0000000000000D+00
444  4.4300000000000D+00  0.0000000000000D+00  0.0000000000000D+00