Ga    ONCVPSP  r_core=  1.86  1.71  2.63
31.0000      3.0000      150103    zatom,zion,pspd
8    11     2     4   601     0    pspcod,pspxc,lmax,lloc,mmax,r2well
6.00000000  0.50000000  0.00000000    rchrg fchrg qchrg
2     2     2     0     0    nproj
0                 extension_switch
0                         6.2113325475604D+00  6.1580668322986D-01
1  0.0000000000000D+00 -0.0000000000000D+00 -0.0000000000000D+00
2  1.0000000000000D-02 -2.7350667977665D-02 -1.7805296947738D-02
3  2.0000000000000D-02 -5.4692540972746D-02 -3.5578945820855D-02
4  3.0000000000000D-02 -8.2016807483089D-02 -5.3289385741250D-02
5  4.0000000000000D-02 -1.0931462301328D-01 -7.0905229705966D-02
6  5.0000000000000D-02 -1.3657709369282D-01 -8.8395350233425D-02
7  6.0000000000000D-02 -1.6379526003236D-01 -1.0572896346925D-01
8  7.0000000000000D-02 -1.9096008086440D-01 -1.2287571125404D-01
9  8.0000000000000D-02 -2.1806241751539D-01 -1.3980574066766D-01
10  9.0000000000000D-02 -2.4509301825643D-01 -1.5648978058283D-01
11  1.0000000000000D-01 -2.7204250308052D-01 -1.7289921477716D-01
12  1.1000000000000D-01 -2.9890134885494D-01 -1.8900615117776D-01
13  1.2000000000000D-01 -3.2565987489750D-01 -2.0478348683752D-01
14  1.3000000000000D-01 -3.5230822902570D-01 -2.2020496827343D-01
15  1.4000000000000D-01 -3.7883637413422D-01 -2.3524524680218D-01
16  1.5000000000000D-01 -4.0523407534099D-01 -2.4987992861059D-01
17  1.6000000000000D-01 -4.3149088777192D-01 -2.6408561920982D-01
18  1.7000000000000D-01 -4.5759614501210D-01 -2.7783996213666D-01
19  1.8000000000000D-01 -4.8353894830659D-01 -2.9112167158529D-01
20  1.9000000000000D-01 -5.0930815653905D-01 -3.0391055891097D-01
21  2.0000000000000D-01 -5.3489237706122D-01 -3.1618755282247D-01
22  2.1000000000000D-01 -5.6027995741373D-01 -3.2793471323459D-01
23  2.2000000000000D-01 -5.8545897800635D-01 -3.3913523871058D-01
24  2.3000000000000D-01 -6.1041724581586D-01 -3.4977346751172D-01
25  2.4000000000000D-01 -6.3514228914087D-01 -3.5983487235106D-01
26  2.5000000000000D-01 -6.5962135347348D-01 -3.6930604890855D-01
27  2.6000000000000D-01 -6.8384139859049D-01 -3.7817469825286D-01
28  2.7000000000000D-01 -7.0778909682619D-01 -3.8642960340709D-01
29  2.8000000000000D-01 -7.3145083267047D-01 -3.9406060021843D-01
30  2.9000000000000D-01 -7.5481270371144D-01 -4.0105854287696D-01
31  3.0000000000000D-01 -7.7786052296594D-01 -4.0741526433962D-01
32  3.1000000000000D-01 -8.0057982266722D-01 -4.1312353209582D-01
33  3.2000000000000D-01 -8.2295585954300D-01 -4.1817699958515D-01
34  3.3000000000000D-01 -8.4497362167236D-01 -4.2257015336504D-01
35  3.4000000000000D-01 -8.6661783687658D-01 -4.2629825787852D-01
36  3.5000000000000D-01 -8.8787298285869D-01 -4.2935729551795D-01
37  3.6000000000000D-01 -9.0872329881080D-01 -4.3174390669572D-01
38  3.7000000000000D-01 -9.2915279909273D-01 -4.3345532471582D-01
39  3.8000000000000D-01 -9.4914528824378D-01 -4.3448931278292D-01
40  3.9000000000000D-01 -9.6868437792150D-01 -4.3484409856852D-01
41  4.0000000000000D-01 -9.8775350594124D-01 -4.3451830726384D-01
42  4.1000000000000D-01 -1.0063359566776D+00 -4.3351089759115D-01
43  4.2000000000000D-01 -1.0244148835064D+00 -4.3182109753609D-01
44  4.3000000000000D-01 -1.0419733330916D+00 -4.2944834174276D-01
45  4.4000000000000D-01 -1.0589942714949D+00 -4.2639221124284D-01
46  4.5000000000000D-01 -1.0754606121186D+00 -4.2265237602655D-01
47  4.6000000000000D-01 -1.0913552454109D+00 -4.1822854119268D-01
48  4.7000000000000D-01 -1.1066610699321D+00 -4.1312039803478D-01
49  4.8000000000000D-01 -1.1213610271343D+00 -4.0732757489229D-01
50  4.9000000000000D-01 -1.1354381352872D+00 -4.0084960001437D-01
51  5.0000000000000D-01 -1.1488755263223D+00 -3.9368586634181D-01
52  5.1000000000000D-01 -1.1616564825232D+00 -3.8583560512559D-01
53  5.2000000000000D-01 -1.1737644819955D+00 -3.7729785454059D-01
54  5.3000000000000D-01 -1.1851832338487D+00 -3.6807145519327D-01
55  5.4000000000000D-01 -1.1958967230248D+00 -3.5815503725069D-01
56  5.5000000000000D-01 -1.2058892595525D+00 -3.4754701540078D-01
57  5.6000000000000D-01 -1.2151455119551D+00 -3.3624560739676D-01
58  5.7000000000000D-01 -1.2236505722326D+00 -3.2424883342601D-01
59  5.8000000000000D-01 -1.2313899805108D+00 -3.1155455613368D-01
60  5.9000000000000D-01 -1.2383497988448D+00 -2.9816049698162D-01
61  6.0000000000000D-01 -1.2445166364228D+00 -2.8406428724259D-01
62  6.1000000000000D-01 -1.2498777175488D+00 -2.6926350945214D-01
63  6.2000000000000D-01 -1.2544209263449D+00 -2.5375575629997D-01
64  6.3000000000000D-01 -1.2581348428777D+00 -2.3753869196043D-01
65  6.4000000000000D-01 -1.2610088264232D+00 -2.2061012898855D-01
66  6.5000000000000D-01 -1.2630330375327D+00 -2.0296810365294D-01
67  6.6000000000000D-01 -1.2641984876724D+00 -1.8461095651969D-01
68  6.7000000000000D-01 -1.2644971169227D+00 -1.6553744147164D-01
69  6.8000000000000D-01 -1.2639218195566D+00 -1.4574681331363D-01
70  6.9000000000000D-01 -1.2624664965257D+00 -1.2523893358770D-01
71  7.0000000000000D-01 -1.2601260956800D+00 -1.0401437138098D-01
72  7.1000000000000D-01 -1.2568966845913D+00 -8.2074546040451D-02
73  7.2000000000000D-01 -1.2527754719188D+00 -5.9421822898639D-02
74  7.3000000000000D-01 -1.2477608546028D+00 -3.6059637665444D-02
75  7.4000000000000D-01 -1.2418524603006D+00 -1.1992621137933D-02
76  7.5000000000000D-01 -1.2350511863936D+00  1.2773276005091D-02
77  7.6000000000000D-01 -1.2273592313347D+00  3.8230667383825D-02
78  7.7000000000000D-01 -1.2187801425161D+00  6.4370582391706D-02
79  7.8000000000000D-01 -1.2093188380861D+00  9.1182357182912D-02
80  7.9000000000000D-01 -1.1989816328345D+00  1.1865351863613D-01
81  8.0000000000000D-01 -1.1877762654780D+00  1.4676966283965D-01
82  8.1000000000000D-01 -1.1757119200009D+00  1.7551434222919D-01
83  8.2000000000000D-01 -1.1627992433335D+00  2.0486895819207D-01
84  8.3000000000000D-01 -1.1490503591800D+00  2.3481266015091D-01
85  8.4000000000000D-01 -1.1344788778215D+00  2.6532225213219D-01
86  8.5000000000000D-01 -1.1190999017256D+00  2.9637210781111D-01
87  8.6000000000000D-01 -1.1029300268084D+00  3.2793409500555D-01
88  8.7000000000000D-01 -1.0859873392039D+00  3.5997751056662D-01
89  8.8000000000000D-01 -1.0682914074099D+00  3.9246902658225D-01
90  8.9000000000000D-01 -1.0498632696972D+00  4.2537264877205D-01
91  9.0000000000000D-01 -1.0307254166822D+00  4.5864968790427D-01
92  9.1000000000000D-01 -1.0109017689862D+00  4.9225874500740D-01
93  9.2000000000000D-01 -9.9041764992877D-01  5.2615571107899D-01
94  9.3000000000000D-01 -9.6929975309553D-01  5.6029378271197D-01
95  9.4000000000000D-01 -9.4757610274546D-01  5.9462351333077D-01
96  9.5000000000000D-01 -9.2527602262786D-01  6.2909278737749D-01
97  9.6000000000000D-01 -9.0243007508232D-01  6.6364695737053D-01
98  9.7000000000000D-01 -8.7907001339190D-01  6.9822890019863D-01
99  9.8000000000000D-01 -8.5522872446456D-01  7.3277911459585D-01
100  9.9000000000000D-01 -8.3094016683891D-01  7.6723583565012D-01
101  1.0000000000000D+00 -8.0623930425321D-01  8.0153516603914D-01
102  1.0100000000000D+00 -7.8116204494773D-01  8.3561121877180D-01
103  1.0200000000000D+00 -7.5574515499288D-01  8.6939626875088D-01
104  1.0300000000000D+00 -7.3002616313773D-01  9.0282096895424D-01
105  1.0400000000000D+00 -7.0404329858470D-01  9.3581453808675D-01
106  1.0500000000000D+00 -6.7783539779825D-01  9.6830497110240D-01
107  1.0600000000000D+00 -6.5144182580233D-01  1.0002192460630D+00
108  1.0700000000000D+00 -6.2490241559940D-01  1.0314834942358D+00
109  1.0800000000000D+00 -5.9825722393609D-01  1.0620235224847D+00
110  1.0900000000000D+00 -5.7154657214151D-01  1.0917648539423D+00
111  1.1000000000000D+00 -5.4481090843474D-01  1.1206330582523D+00
112  1.1100000000000D+00 -5.1809080114655D-01  1.1485538242704D+00
113  1.1200000000000D+00 -4.9142660632675D-01  1.1754537375474D+00
114  1.1300000000000D+00 -4.6485846822223D-01  1.2012603921011D+00
115  1.1400000000000D+00 -4.3842627456486D-01  1.2259025535420D+00
116  1.1500000000000D+00 -4.1216968118860D-01  1.2493101374565D+00
117  1.1600000000000D+00 -3.8612758087629D-01  1.2714155398032D+00
118  1.1700000000000D+00 -3.6033825528287D-01  1.2921533754366D+00
119  1.1800000000000D+00 -3.3483937433255D-01  1.3114605192959D+00
120  1.1900000000000D+00 -3.0966797168806D-01  1.3292761891079D+00
121  1.2000000000000D+00 -2.8485965756856D-01  1.3455440411078D+00
122  1.2100000000000D+00 -2.6044924586758D-01  1.3602106271112D+00
123  1.2200000000000D+00 -2.3647077658292D-01  1.3732253298655D+00
124  1.2300000000000D+00 -2.1295651426599D-01  1.3845430717013D+00
125  1.2400000000000D+00 -1.8993752017058D-01  1.3941228664151D+00
126  1.2500000000000D+00 -1.6744390559168D-01  1.4019271325272D+00
127  1.2600000000000D+00 -1.4550384627684D-01  1.4079244030080D+00
128  1.2700000000000D+00 -1.2414388061588D-01  1.4120885724346D+00
129  1.2800000000000D+00 -1.0338953407767D-01  1.4143971770089D+00
130  1.2900000000000D+00 -8.3264084851894D-02  1.4148348227640D+00
131  1.3000000000000D+00 -6.3788996685976D-02  1.4133920182679D+00
132  1.3100000000000D+00 -4.4984720040194D-02  1.4100629432547D+00
133  1.3200000000000D+00 -2.6868944967474D-02  1.4048503162502D+00
134  1.3300000000000D+00 -9.4577404115609D-03  1.3977622133300D+00
135  1.3400000000000D+00  7.2339093452687D-03  1.3888105907578D+00
136  1.3500000000000D+00  2.3194330324065D-02  1.3780174161077D+00
137  1.3600000000000D+00  3.8412780996608D-02  1.3654080622545D+00
138  1.3700000000000D+00  5.2880551299256D-02  1.3510143567374D+00
139  1.3800000000000D+00  6.6591544000208D-02  1.3348760328170D+00
140  1.3900000000000D+00  7.9540458431881D-02  1.3170358594030D+00
141  1.4000000000000D+00  9.1724982820645D-02  1.2975454012095D+00
142  1.4100000000000D+00  1.0314410733781D-01  1.2764604238691D+00
143  1.4200000000000D+00  1.1379843824943D-01  1.2538418313470D+00
144  1.4300000000000D+00  1.2369113832620D-01  1.2297576457656D+00
145  1.4400000000000D+00  1.3282600352581D-01  1.2042784854806D+00
146  1.4500000000000D+00  1.4120951873408D-01  1.1774820643672D+00
147  1.4600000000000D+00  1.4884902892710D-01  1.1494489109287D+00
148  1.4700000000000D+00  1.5575360243254D-01  1.1202643242585D+00
149  1.4800000000000D+00  1.6193380603276D-01  1.0900170630727D+00
150  1.4900000000000D+00  1.6740112101680D-01  1.0587991979510D+00
151  1.5000000000000D+00  1.7216867117521D-01  1.0267052917676D+00
152  1.5100000000000D+00  1.7625021506851D-01  9.9383285099045D-01
153  1.5200000000000D+00  1.7966072015671D-01  9.6028018536498D-01
154  1.5300000000000D+00  1.8241577411435D-01  9.2614771238216D-01
155  1.5400000000000D+00  1.8453173564171D-01  8.9153606440247D-01
156  1.5500000000000D+00  1.8602530098501D-01  8.5654553457374D-01
157  1.5600000000000D+00  1.8691383970675D-01  8.2127746446712D-01
158  1.5700000000000D+00  1.8721435083262D-01  7.8582884916770D-01
159  1.5800000000000D+00  1.8694477922644D-01  7.5029988404068D-01
160  1.5900000000000D+00  1.8612160362966D-01  7.1478106117804D-01
161  1.6000000000000D+00  1.8476282987859D-01  6.7936919685656D-01
162  1.6100000000000D+00  1.8288364922636D-01  6.4414551223911D-01
163  1.6200000000000D+00  1.8050140513074D-01  6.0919994895192D-01
164  1.6300000000000D+00  1.7762985009015D-01  5.7460620700227D-01
165  1.6400000000000D+00  1.7428502663226D-01  5.4044645972006D-01
166  1.6500000000000D+00  1.7047945109235D-01  5.0678953074319D-01
167  1.6600000000000D+00  1.6622770858880D-01  4.7371126485870D-01
168  1.6700000000000D+00  1.6154058732750D-01  4.4127306405713D-01
169  1.6800000000000D+00  1.5643091781657D-01  4.0954331548336D-01
170  1.6900000000000D+00  1.5090730727269D-01  3.7857404166871D-01
171  1.7000000000000D+00  1.4498055529273D-01  3.4842493348551D-01
172  1.7100000000000D+00  1.3865663716373D-01  3.1913673348661D-01
173  1.7200000000000D+00  1.3194409934321D-01  2.9075942059650D-01
174  1.7300000000000D+00  1.2484583725245D-01  2.6332055341433D-01
175  1.7400000000000D+00  1.1736797199795D-01  2.3685959407391D-01
176  1.7500000000000D+00  1.0950992099775D-01  2.1138919808929D-01
177  1.7600000000000D+00  1.0127515593120D-01  1.8693731669736D-01
178  1.7700000000000D+00  9.2659569964160D-02  1.6350137717431D-01
179  1.7800000000000D+00  8.3663095220707D-02  1.4109418173406D-01
180  1.7900000000000D+00  7.4278616597248D-02  1.1969986965799D-01
181  1.8000000000000D+00  6.4501908243223D-02  9.9313497444932D-02
182  1.8100000000000D+00  5.4322952641534D-02  7.9906289290038D-02
183  1.8200000000000D+00  4.3732936189709D-02  6.1453698514604D-02
184  1.8300000000000D+00  3.2719089249205D-02  4.3914610745901D-02
185  1.8400000000000D+00  2.0387193399928D-02  2.6280710916926D-02
186  1.8500000000000D+00  7.6117505045242D-03  9.4720338721400D-03
187  1.8600000000000D+00 -8.9080000305547D-04 -1.3089954394351D-03
188  1.8700000000000D+00 -1.6853668227473D-03 -2.2816768000386D-03
189  1.8800000000000D+00  4.9018663438967D-08  1.4845764533312D-07
190  1.8900000000000D+00  5.9588856125261D-06  1.8047047079252D-05
191  1.9000000000000D+00  1.7282472168238D-06  5.2341596927186D-06
192  1.9100000000000D+00  0.0000000000000D+00  0.0000000000000D+00
193  1.9200000000000D+00  0.0000000000000D+00  0.0000000000000D+00
194  1.9300000000000D+00  0.0000000000000D+00  0.0000000000000D+00
195  1.9400000000000D+00  0.0000000000000D+00  0.0000000000000D+00
196  1.9500000000000D+00  0.0000000000000D+00  0.0000000000000D+00
197  1.9600000000000D+00  0.0000000000000D+00  0.0000000000000D+00
198  1.9700000000000D+00  0.0000000000000D+00  0.0000000000000D+00
199  1.9800000000000D+00  0.0000000000000D+00  0.0000000000000D+00
200  1.9900000000000D+00  0.0000000000000D+00  0.0000000000000D+00
201  2.0000000000000D+00  0.0000000000000D+00  0.0000000000000D+00
202  2.0100000000000D+00  0.0000000000000D+00  0.0000000000000D+00
203  2.0200000000000D+00  0.0000000000000D+00  0.0000000000000D+00
204  2.0300000000000D+00  0.0000000000000D+00  0.0000000000000D+00
205  2.0400000000000D+00  0.0000000000000D+00  0.0000000000000D+00
206  2.0500000000000D+00  0.0000000000000D+00  0.0000000000000D+00
207  2.0600000000000D+00  0.0000000000000D+00  0.0000000000000D+00
208  2.0700000000000D+00  0.0000000000000D+00  0.0000000000000D+00
209  2.0800000000000D+00  0.0000000000000D+00  0.0000000000000D+00
210  2.0900000000000D+00  0.0000000000000D+00  0.0000000000000D+00
211  2.1000000000000D+00  0.0000000000000D+00  0.0000000000000D+00
212  2.1100000000000D+00  0.0000000000000D+00  0.0000000000000D+00
213  2.1200000000000D+00  0.0000000000000D+00  0.0000000000000D+00
214  2.1300000000000D+00  0.0000000000000D+00  0.0000000000000D+00
215  2.1400000000000D+00  0.0000000000000D+00  0.0000000000000D+00
216  2.1500000000000D+00  0.0000000000000D+00  0.0000000000000D+00
217  2.1600000000000D+00  0.0000000000000D+00  0.0000000000000D+00
218  2.1700000000000D+00  0.0000000000000D+00  0.0000000000000D+00
219  2.1800000000000D+00  0.0000000000000D+00  0.0000000000000D+00
220  2.1900000000000D+00  0.0000000000000D+00  0.0000000000000D+00
221  2.2000000000000D+00  0.0000000000000D+00  0.0000000000000D+00
222  2.2100000000000D+00  0.0000000000000D+00  0.0000000000000D+00
223  2.2200000000000D+00  0.0000000000000D+00  0.0000000000000D+00
224  2.2300000000000D+00  0.0000000000000D+00  0.0000000000000D+00
225  2.2400000000000D+00  0.0000000000000D+00  0.0000000000000D+00
226  2.2500000000000D+00  0.0000000000000D+00  0.0000000000000D+00
227  2.2600000000000D+00  0.0000000000000D+00  0.0000000000000D+00
228  2.2700000000000D+00  0.0000000000000D+00  0.0000000000000D+00
229  2.2800000000000D+00  0.0000000000000D+00  0.0000000000000D+00
230  2.2900000000000D+00  0.0000000000000D+00  0.0000000000000D+00
231  2.3000000000000D+00  0.0000000000000D+00  0.0000000000000D+00
232  2.3100000000000D+00  0.0000000000000D+00  0.0000000000000D+00
233  2.3200000000000D+00  0.0000000000000D+00  0.0000000000000D+00
234  2.3300000000000D+00  0.0000000000000D+00  0.0000000000000D+00
235  2.3400000000000D+00  0.0000000000000D+00  0.0000000000000D+00
236  2.3500000000000D+00  0.0000000000000D+00  0.0000000000000D+00
237  2.3600000000000D+00  0.0000000000000D+00  0.0000000000000D+00
238  2.3700000000000D+00  0.0000000000000D+00  0.0000000000000D+00
239  2.3800000000000D+00  0.0000000000000D+00  0.0000000000000D+00
240  2.3900000000000D+00  0.0000000000000D+00  0.0000000000000D+00
241  2.4000000000000D+00  0.0000000000000D+00  0.0000000000000D+00
242  2.4100000000000D+00  0.0000000000000D+00  0.0000000000000D+00
243  2.4200000000000D+00  0.0000000000000D+00  0.0000000000000D+00
244  2.4300000000000D+00  0.0000000000000D+00  0.0000000000000D+00
245  2.4400000000000D+00  0.0000000000000D+00  0.0000000000000D+00
246  2.4500000000000D+00  0.0000000000000D+00  0.0000000000000D+00
247  2.4600000000000D+00  0.0000000000000D+00  0.0000000000000D+00
248  2.4700000000000D+00  0.0000000000000D+00  0.0000000000000D+00
249  2.4800000000000D+00  0.0000000000000D+00  0.0000000000000D+00
250  2.4900000000000D+00  0.0000000000000D+00  0.0000000000000D+00
251  2.5000000000000D+00  0.0000000000000D+00  0.0000000000000D+00
252  2.5100000000000D+00  0.0000000000000D+00  0.0000000000000D+00
253  2.5200000000000D+00  0.0000000000000D+00  0.0000000000000D+00
254  2.5300000000000D+00  0.0000000000000D+00  0.0000000000000D+00
255  2.5400000000000D+00  0.0000000000000D+00  0.0000000000000D+00
256  2.5500000000000D+00  0.0000000000000D+00  0.0000000000000D+00
257  2.5600000000000D+00  0.0000000000000D+00  0.0000000000000D+00
258  2.5700000000000D+00  0.0000000000000D+00  0.0000000000000D+00
259  2.5800000000000D+00  0.0000000000000D+00  0.0000000000000D+00
260  2.5900000000000D+00  0.0000000000000D+00  0.0000000000000D+00
261  2.6000000000000D+00  0.0000000000000D+00  0.0000000000000D+00
262  2.6100000000000D+00  0.0000000000000D+00  0.0000000000000D+00
263  2.6200000000000D+00  0.0000000000000D+00  0.0000000000000D+00
264  2.6300000000000D+00  0.0000000000000D+00  0.0000000000000D+00
265  2.6400000000000D+00  0.0000000000000D+00  0.0000000000000D+00
266  2.6500000000000D+00  0.0000000000000D+00  0.0000000000000D+00
267  2.6600000000000D+00  0.0000000000000D+00  0.0000000000000D+00
268  2.6700000000000D+00  0.0000000000000D+00  0.0000000000000D+00
269  2.6800000000000D+00  0.0000000000000D+00  0.0000000000000D+00
270  2.6900000000000D+00  0.0000000000000D+00  0.0000000000000D+00
271  2.7000000000000D+00  0.0000000000000D+00  0.0000000000000D+00
272  2.7100000000000D+00  0.0000000000000D+00  0.0000000000000D+00
273  2.7200000000000D+00  0.0000000000000D+00  0.0000000000000D+00
274  2.7300000000000D+00  0.0000000000000D+00  0.0000000000000D+00
275  2.7400000000000D+00  0.0000000000000D+00  0.0000000000000D+00
276  2.7500000000000D+00  0.0000000000000D+00  0.0000000000000D+00
277  2.7600000000000D+00  0.0000000000000D+00  0.0000000000000D+00
278  2.7700000000000D+00  0.0000000000000D+00  0.0000000000000D+00
279  2.7800000000000D+00  0.0000000000000D+00  0.0000000000000D+00
280  2.7900000000000D+00  0.0000000000000D+00  0.0000000000000D+00
281  2.8000000000000D+00  0.0000000000000D+00  0.0000000000000D+00
282  2.8100000000000D+00  0.0000000000000D+00  0.0000000000000D+00
283  2.8200000000000D+00  0.0000000000000D+00  0.0000000000000D+00
284  2.8300000000000D+00  0.0000000000000D+00  0.0000000000000D+00
285  2.8400000000000D+00  0.0000000000000D+00  0.0000000000000D+00
286  2.8500000000000D+00  0.0000000000000D+00  0.0000000000000D+00
287  2.8600000000000D+00  0.0000000000000D+00  0.0000000000000D+00
288  2.8700000000000D+00  0.0000000000000D+00  0.0000000000000D+00
289  2.8800000000000D+00  0.0000000000000D+00  0.0000000000000D+00
290  2.8900000000000D+00  0.0000000000000D+00  0.0000000000000D+00
291  2.9000000000000D+00  0.0000000000000D+00  0.0000000000000D+00
292  2.9100000000000D+00  0.0000000000000D+00  0.0000000000000D+00
293  2.9200000000000D+00  0.0000000000000D+00  0.0000000000000D+00
294  2.9300000000000D+00  0.0000000000000D+00  0.0000000000000D+00
295  2.9400000000000D+00  0.0000000000000D+00  0.0000000000000D+00
296  2.9500000000000D+00  0.0000000000000D+00  0.0000000000000D+00
297  2.9600000000000D+00  0.0000000000000D+00  0.0000000000000D+00
298  2.9700000000000D+00  0.0000000000000D+00  0.0000000000000D+00
299  2.9800000000000D+00  0.0000000000000D+00  0.0000000000000D+00
300  2.9900000000000D+00  0.0000000000000D+00  0.0000000000000D+00
301  3.0000000000000D+00  0.0000000000000D+00  0.0000000000000D+00
302  3.0100000000000D+00  0.0000000000000D+00  0.0000000000000D+00
303  3.0200000000000D+00  0.0000000000000D+00  0.0000000000000D+00
304  3.0300000000000D+00  0.0000000000000D+00  0.0000000000000D+00
305  3.0400000000000D+00  0.0000000000000D+00  0.0000000000000D+00
306  3.0500000000000D+00  0.0000000000000D+00  0.0000000000000D+00
307  3.0600000000000D+00  0.0000000000000D+00  0.0000000000000D+00
308  3.0700000000000D+00  0.0000000000000D+00  0.0000000000000D+00
309  3.0800000000000D+00  0.0000000000000D+00  0.0000000000000D+00
310  3.0900000000000D+00  0.0000000000000D+00  0.0000000000000D+00
311  3.1000000000000D+00  0.0000000000000D+00  0.0000000000000D+00
312  3.1100000000000D+00  0.0000000000000D+00  0.0000000000000D+00
313  3.1200000000000D+00  0.0000000000000D+00  0.0000000000000D+00
314  3.1300000000000D+00  0.0000000000000D+00  0.0000000000000D+00
315  3.1400000000000D+00  0.0000000000000D+00  0.0000000000000D+00
316  3.1500000000000D+00  0.0000000000000D+00  0.0000000000000D+00
317  3.1600000000000D+00  0.0000000000000D+00  0.0000000000000D+00
318  3.1700000000000D+00  0.0000000000000D+00  0.0000000000000D+00
319  3.1800000000000D+00  0.0000000000000D+00  0.0000000000000D+00
320  3.1900000000000D+00  0.0000000000000D+00  0.0000000000000D+00
321  3.2000000000000D+00  0.0000000000000D+00  0.0000000000000D+00
322  3.2100000000000D+00  0.0000000000000D+00  0.0000000000000D+00
323  3.2200000000000D+00  0.0000000000000D+00  0.0000000000000D+00
324  3.2300000000000D+00  0.0000000000000D+00  0.0000000000000D+00
325  3.2400000000000D+00  0.0000000000000D+00  0.0000000000000D+00
326  3.2500000000000D+00  0.0000000000000D+00  0.0000000000000D+00
327  3.2600000000000D+00  0.0000000000000D+00  0.0000000000000D+00
328  3.2700000000000D+00  0.0000000000000D+00  0.0000000000000D+00
329  3.2800000000000D+00  0.0000000000000D+00  0.0000000000000D+00
330  3.2900000000000D+00  0.0000000000000D+00  0.0000000000000D+00
331  3.3000000000000D+00  0.0000000000000D+00  0.0000000000000D+00
332  3.3100000000000D+00  0.0000000000000D+00  0.0000000000000D+00
333  3.3200000000000D+00  0.0000000000000D+00  0.0000000000000D+00
334  3.3300000000000D+00  0.0000000000000D+00  0.0000000000000D+00
335  3.3400000000000D+00  0.0000000000000D+00  0.0000000000000D+00
336  3.3500000000000D+00  0.0000000000000D+00  0.0000000000000D+00
337  3.3600000000000D+00  0.0000000000000D+00  0.0000000000000D+00
338  3.3700000000000D+00  0.0000000000000D+00  0.0000000000000D+00
339  3.3800000000000D+00  0.0000000000000D+00  0.0000000000000D+00
340  3.3900000000000D+00  0.0000000000000D+00  0.0000000000000D+00
341  3.4000000000000D+00  0.0000000000000D+00  0.0000000000000D+00
342  3.4100000000000D+00  0.0000000000000D+00  0.0000000000000D+00
343  3.4200000000000D+00  0.0000000000000D+00  0.0000000000000D+00
344  3.4300000000000D+00  0.0000000000000D+00  0.0000000000000D+00
345  3.4400000000000D+00  0.0000000000000D+00  0.0000000000000D+00
346  3.4500000000000D+00  0.0000000000000D+00  0.0000000000000D+00
347  3.4600000000000D+00  0.0000000000000D+00  0.0000000000000D+00
348  3.4700000000000D+00  0.0000000000000D+00  0.0000000000000D+00
349  3.4800000000000D+00  0.0000000000000D+00  0.0000000000000D+00
350  3.4900000000000D+00  0.0000000000000D+00  0.0000000000000D+00
351  3.5000000000000D+00  0.0000000000000D+00  0.0000000000000D+00
352  3.5100000000000D+00  0.0000000000000D+00  0.0000000000000D+00
353  3.5200000000000D+00  0.0000000000000D+00  0.0000000000000D+00
354  3.5300000000000D+00  0.0000000000000D+00  0.0000000000000D+00
355  3.5400000000000D+00  0.0000000000000D+00  0.0000000000000D+00
356  3.5500000000000D+00  0.0000000000000D+00  0.0000000000000D+00
357  3.5600000000000D+00  0.0000000000000D+00  0.0000000000000D+00
358  3.5700000000000D+00  0.0000000000000D+00  0.0000000000000D+00
359  3.5800000000000D+00  0.0000000000000D+00  0.0000000000000D+00
360  3.5900000000000D+00  0.0000000000000D+00  0.0000000000000D+00
361  3.6000000000000D+00  0.0000000000000D+00  0.0000000000000D+00
362  3.6100000000000D+00  0.0000000000000D+00  0.0000000000000D+00
363  3.6200000000000D+00  0.0000000000000D+00  0.0000000000000D+00
364  3.6300000000000D+00  0.0000000000000D+00  0.0000000000000D+00
365  3.6400000000000D+00  0.0000000000000D+00  0.0000000000000D+00
366  3.6500000000000D+00  0.0000000000000D+00  0.0000000000000D+00
367  3.6600000000000D+00  0.0000000000000D+00  0.0000000000000D+00
368  3.6700000000000D+00  0.0000000000000D+00  0.0000000000000D+00
369  3.6800000000000D+00  0.0000000000000D+00  0.0000000000000D+00
370  3.6900000000000D+00  0.0000000000000D+00  0.0000000000000D+00
371  3.7000000000000D+00  0.0000000000000D+00  0.0000000000000D+00
372  3.7100000000000D+00  0.0000000000000D+00  0.0000000000000D+00
373  3.7200000000000D+00  0.0000000000000D+00  0.0000000000000D+00
374  3.7300000000000D+00  0.0000000000000D+00  0.0000000000000D+00
375  3.7400000000000D+00  0.0000000000000D+00  0.0000000000000D+00
376  3.7500000000000D+00  0.0000000000000D+00  0.0000000000000D+00
377  3.7600000000000D+00  0.0000000000000D+00  0.0000000000000D+00
378  3.7700000000000D+00  0.0000000000000D+00  0.0000000000000D+00
379  3.7800000000000D+00  0.0000000000000D+00  0.0000000000000D+00
380  3.7900000000000D+00  0.0000000000000D+00  0.0000000000000D+00
381  3.8000000000000D+00  0.0000000000000D+00  0.0000000000000D+00
382  3.8100000000000D+00  0.0000000000000D+00  0.0000000000000D+00
383  3.8200000000000D+00  0.0000000000000D+00  0.0000000000000D+00
384  3.8300000000000D+00  0.0000000000000D+00  0.0000000000000D+00
385  3.8400000000000D+00  0.0000000000000D+00  0.0000000000000D+00
386  3.8500000000000D+00  0.0000000000000D+00  0.0000000000000D+00
387  3.8600000000000D+00  0.0000000000000D+00  0.0000000000000D+00
388  3.8700000000000D+00  0.0000000000000D+00  0.0000000000000D+00
389  3.8800000000000D+00  0.0000000000000D+00  0.0000000000000D+00
390  3.8900000000000D+00  0.0000000000000D+00  0.0000000000000D+00
391  3.9000000000000D+00  0.0000000000000D+00  0.0000000000000D+00
392  3.9100000000000D+00  0.0000000000000D+00  0.0000000000000D+00
393  3.9200000000000D+00  0.0000000000000D+00  0.0000000000000D+00
394  3.9300000000000D+00  0.0000000000000D+00  0.0000000000000D+00
395  3.9400000000000D+00  0.0000000000000D+00  0.0000000000000D+00
396  3.9500000000000D+00  0.0000000000000D+00  0.0000000000000D+00
397  3.9600000000000D+00  0.0000000000000D+00  0.0000000000000D+00
398  3.9700000000000D+00  0.0000000000000D+00  0.0000000000000D+00
399  3.9800000000000D+00  0.0000000000000D+00  0.0000000000000D+00
400  3.9900000000000D+00  0.0000000000000D+00  0.0000000000000D+00
401  4.0000000000000D+00  0.0000000000000D+00  0.0000000000000D+00
402  4.0100000000000D+00  0.0000000000000D+00  0.0000000000000D+00
403  4.0200000000000D+00  0.0000000000000D+00  0.0000000000000D+00
404  4.0300000000000D+00  0.0000000000000D+00  0.0000000000000D+00
405  4.0400000000000D+00  0.0000000000000D+00  0.0000000000000D+00
406  4.0500000000000D+00  0.0000000000000D+00  0.0000000000000D+00
407  4.0600000000000D+00  0.0000000000000D+00  0.0000000000000D+00
408  4.0700000000000D+00  0.0000000000000D+00  0.0000000000000D+00
409  4.0800000000000D+00  0.0000000000000D+00  0.0000000000000D+00
410  4.0900000000000D+00  0.0000000000000D+00  0.0000000000000D+00
411  4.1000000000000D+00  0.0000000000000D+00  0.0000000000000D+00
412  4.1100000000000D+00  0.0000000000000D+00  0.0000000000000D+00
413  4.1200000000000D+00  0.0000000000000D+00  0.0000000000000D+00
414  4.1300000000000D+00  0.0000000000000D+00  0.0000000000000D+00
415  4.1400000000000D+00  0.0000000000000D+00  0.0000000000000D+00
416  4.1500000000000D+00  0.0000000000000D+00  0.0000000000000D+00
417  4.1600000000000D+00  0.0000000000000D+00  0.0000000000000D+00
418  4.1700000000000D+00  0.0000000000000D+00  0.0000000000000D+00
419  4.1800000000000D+00  0.0000000000000D+00  0.0000000000000D+00
420  4.1900000000000D+00  0.0000000000000D+00  0.0000000000000D+00
421  4.2000000000000D+00  0.0000000000000D+00  0.0000000000000D+00
422  4.2100000000000D+00  0.0000000000000D+00  0.0000000000000D+00
423  4.2200000000000D+00  0.0000000000000D+00  0.0000000000000D+00
424  4.2300000000000D+00  0.0000000000000D+00  0.0000000000000D+00
425  4.2400000000000D+00  0.0000000000000D+00  0.0000000000000D+00
426  4.2500000000000D+00  0.0000000000000D+00  0.0000000000000D+00
427  4.2600000000000D+00  0.0000000000000D+00  0.0000000000000D+00
428  4.2700000000000D+00  0.0000000000000D+00  0.0000000000000D+00
429  4.2800000000000D+00  0.0000000000000D+00  0.0000000000000D+00
430  4.2900000000000D+00  0.0000000000000D+00  0.0000000000000D+00
431  4.3000000000000D+00  0.0000000000000D+00  0.0000000000000D+00
432  4.3100000000000D+00  0.0000000000000D+00  0.0000000000000D+00
433  4.3200000000000D+00  0.0000000000000D+00  0.0000000000000D+00
434  4.3300000000000D+00  0.0000000000000D+00  0.0000000000000D+00
435  4.3400000000000D+00  0.0000000000000D+00  0.0000000000000D+00
436  4.3500000000000D+00  0.0000000000000D+00  0.0000000000000D+00
437  4.3600000000000D+00  0.0000000000000D+00  0.0000000000000D+00
438  4.3700000000000D+00  0.0000000000000D+00  0.0000000000000D+00
439  4.3800000000000D+00  0.0000000000000D+00  0.0000000000000D+00
440  4.3900000000000D+00  0.0000000000000D+00  0.0000000000000D+00
441  4.4000000000000D+00  0.0000000000000D+00  0.0000000000000D+00
442  4.4100000000000D+00  0.0000000000000D+00  0.0000000000000D+00
443  4.4200000000000D+00  0.0000000000000D+00  0.0000000000000D+00
444  4.4300000000000D+00  0.0000000000000D+00  0.0000000000000D+00