Lu    ONCVPSP-3.2.3.1  r_core=   2.05661   1.80371   1.80371   2.51896
71.0000     11.0000      170524    zatom,zion,pspd
8      11   3     4   600     0    pspcod,pspxc,lmax,lloc,mmax,r2well
5.99000000  0.25000000  0.00000000    rchrg fchrg qchrg
2     2     2     1     0    nproj
1     1           extension_switch
0                         3.0644559233533D+00 -2.0705536467739D-01
1  0.0000000000000D+00 -2.0257961974579D-11 -3.3114455622041D-11
2  1.0000000000000D-02  5.3663161705117D-02  1.1117921708374D-02
3  2.0000000000000D-02  1.0723904043340D-01  2.2217561792450D-02
4  3.0000000000000D-02  1.6064057267506D-01  3.3280781605250D-02
5  4.0000000000000D-02  2.1378113296116D-01  4.4289727352719D-02
6  5.0000000000000D-02  2.6657475065599D-01  5.5226969774323D-02
7  6.0000000000000D-02  3.1893632409023D-01  6.6075640552163D-02
8  7.0000000000000D-02  3.7078183117231D-01  7.6819564397142D-02
9  8.0000000000000D-02  4.2202853563568D-01  8.7443385793837D-02
10  9.0000000000000D-02  4.7259518810484D-01  9.7932689426570D-02
11  1.0000000000000D-01  5.2240222119234D-01  1.0827411335753D-01
12  1.1000000000000D-01  5.7137193787368D-01  1.1845545408331D-01
13  1.2000000000000D-01  6.1942869242464D-01  1.2846576265820D-01
14  1.3000000000000D-01  6.6649906324850D-01  1.3829543114123D-01
15  1.4000000000000D-01  7.1251201696601D-01  1.4793626869750D-01
16  1.5000000000000D-01  7.5739906319060D-01  1.5738156676403D-01
17  1.6000000000000D-01  8.0109439946342D-01  1.6662615277354D-01
18  1.7000000000000D-01  8.4353504587780D-01  1.7566643201721D-01
19  1.8000000000000D-01  8.8466096898000D-01  1.8450041731837D-01
20  1.9000000000000D-01  9.2441519459230D-01  1.9312774628195D-01
21  2.0000000000000D-01  9.6274390926496D-01  2.0154968597963D-01
22  2.1000000000000D-01  9.9959655012592D-01  2.0976912502683D-01
23  2.2000000000000D-01  1.0349258829589D+00  2.1779055310377D-01
24  2.3000000000000D-01  1.0686880684044D+00  2.2562002806903D-01
25  2.4000000000000D-01  1.1008427162389D+00  2.3326513090875D-01
26  2.5000000000000D-01  1.1313529277536D+00  2.4073490885766D-01
27  2.6000000000000D-01  1.1601853263095D+00  2.4803980711845D-01
28  2.7000000000000D-01  1.1873100762126D+00  2.5519158969331D-01
29  2.8000000000000D-01  1.2127008901040D+00  2.6220324992450D-01
30  2.9000000000000D-01  1.2363350251235D+00  2.6908891141967D-01
31  3.0000000000000D-01  1.2581932681513D+00  2.7586372011119D-01
32  3.1000000000000D-01  1.2782599104914D+00  2.8254372826666D-01
33  3.2000000000000D-01  1.2965227124009D+00  2.8914577132920D-01
34  3.3000000000000D-01  1.3129728579206D+00  2.9568733852149D-01
35  3.4000000000000D-01  1.3276049004985D+00  3.0218643819519D-01
36  3.5000000000000D-01  1.3404166999390D+00  3.0866145894782D-01
37  3.6000000000000D-01  1.3514093512399D+00  3.1513102756213D-01
38  3.7000000000000D-01  1.3605871059129D+00  3.2161386484743D-01
39  3.8000000000000D-01  1.3679572864042D+00  3.2812864047922D-01
40  3.9000000000000D-01  1.3735301942532D+00  3.3469382794146D-01
41  4.0000000000000D-01  1.3773190126456D+00  3.4132756067590D-01
42  4.1000000000000D-01  1.3793397040231D+00  3.4804749053448D-01
43  4.2000000000000D-01  1.3796109034236D+00  3.5487064961388D-01
44  4.3000000000000D-01  1.3781538082246D+00  3.6181331652680D-01
45  4.4000000000000D-01  1.3749920649611D+00  3.6889088813122D-01
46  4.5000000000000D-01  1.3701516538812D+00  3.7611775769893D-01
47  4.6000000000000D-01  1.3636607718930D+00  3.8350720045592D-01
48  4.7000000000000D-01  1.3555497145382D+00  3.9107126737306D-01
49  4.8000000000000D-01  1.3458507576105D+00  3.9882068802289D-01
50  4.9000000000000D-01  1.3345980390121D+00  4.0676478325123D-01
51  5.0000000000000D-01  1.3218274414142D+00  4.1491138833842D-01
52  5.1000000000000D-01  1.3075764762575D+00  4.2326678724632D-01
53  5.2000000000000D-01  1.2918841695959D+00  4.3183565846409D-01
54  5.3000000000000D-01  1.2747909502472D+00  4.4062103287849D-01
55  5.4000000000000D-01  1.2563385406793D+00  4.4962426400410D-01
56  5.5000000000000D-01  1.2365698510171D+00  4.5884501081570D-01
57  5.6000000000000D-01  1.2155288765121D+00  4.6828123332987D-01
58  5.7000000000000D-01  1.1932605987737D+00  4.7792920098705D-01
59  5.8000000000000D-01  1.1698108910142D+00  4.8778351378793D-01
60  5.9000000000000D-01  1.1452264275139D+00  4.9783713604201D-01
61  6.0000000000000D-01  1.1195545974652D+00  5.0808144248969D-01
62  6.1000000000000D-01  1.0928434233084D+00  5.1850627646614D-01
63  6.2000000000000D-01  1.0651414836237D+00  5.2910001968225D-01
64  6.3000000000000D-01  1.0364978406003D+00  5.3984967310975D-01
65  6.4000000000000D-01  1.0069619720565D+00  5.5074094837216D-01
66  6.5000000000000D-01  9.7658370794076D-01  5.6175836896196D-01
67  6.6000000000000D-01  9.4541317120437D-01  5.7288538052812D-01
68  6.7000000000000D-01  9.1350072289197D-01  5.8410446940774D-01
69  6.8000000000000D-01  8.8089691126245D-01  5.9539728850976D-01
70  6.9000000000000D-01  8.4765242471467D-01  6.0674478960088D-01
71  7.0000000000000D-01  8.1381804826094D-01  6.1812736099166D-01
72  7.1000000000000D-01  7.7944462326161D-01  6.2952496957630D-01
73  7.2000000000000D-01  7.4458301010744D-01  6.4091730614261D-01
74  7.3000000000000D-01  7.0928405351370D-01  6.5228393283954D-01
75  7.4000000000000D-01  6.7359855007057D-01  6.6360443166831D-01
76  7.5000000000000D-01  6.3757721767851D-01  6.7485855285059D-01
77  7.6000000000000D-01  6.0127066648560D-01  6.8602636192214D-01
78  7.7000000000000D-01  5.6472937093556D-01  6.9708838440472D-01
79  7.8000000000000D-01  5.2800364253114D-01  7.0802574692056D-01
80  7.9000000000000D-01  4.9114360291741D-01  7.1882031363499D-01
81  8.0000000000000D-01  4.5419915689292D-01  7.2945481694083D-01
82  8.1000000000000D-01  4.1721996496446D-01  7.3991298133544D-01
83  8.2000000000000D-01  3.8025541507251D-01  7.5017963948561D-01
84  8.3000000000000D-01  3.4335459312925D-01  7.6024083952763D-01
85  8.4000000000000D-01  3.0656625202987D-01  7.7008394270917D-01
86  8.5000000000000D-01  2.6993877881979D-01  7.7969771054553D-01
87  8.6000000000000D-01  2.3352015972570D-01  7.8907238073529D-01
88  8.7000000000000D-01  1.9735794278648D-01  7.9819973115868D-01
89  8.8000000000000D-01  1.6149919785139D-01  8.0707313136552D-01
90  8.9000000000000D-01  1.2599047374622D-01  8.1568758104793D-01
91  9.0000000000000D-01  9.0877752444327D-02  8.2403973508585D-01
92  9.1000000000000D-01  5.6206400117135D-02  8.3212791484907D-01
93  9.2000000000000D-01  2.2021114978567D-02  8.3995210553932D-01
94  9.3000000000000D-01 -1.1634128121341D-02  8.4751393945633D-01
95  9.4000000000000D-01 -4.4716136356121D-02  8.5481666517554D-01
96  9.5000000000000D-01 -7.7182560795591D-02  8.6186510272826D-01
97  9.6000000000000D-01 -1.0899196140812D-01  8.6866558497919D-01
98  9.7000000000000D-01 -1.4010387506566D-01  8.7522588549955D-01
99  9.8000000000000D-01 -1.7047888638198D-01  8.8155513333555D-01
100  9.9000000000000D-01 -2.0007870117132D-01  8.8766371517385D-01
101  1.0000000000000D+00 -2.2886622227552D-01  8.9356316549850D-01
102  1.0100000000000D+00 -2.5680562746489D-01  8.9926604543348D-01
103  1.0200000000000D+00 -2.8386244908171D-01  9.0478581105047D-01
104  1.0300000000000D+00 -3.1000365505837D-01  9.1013667200850D-01
105  1.0400000000000D+00 -3.3519773090785D-01  9.1533344147106D-01
106  1.0500000000000D+00 -3.5941476225268D-01  9.2039137832228D-01
107  1.0600000000000D+00 -3.8262651743124D-01  9.2532602276620D-01
108  1.0700000000000D+00 -4.0480652969279D-01  9.3015302645999D-01
109  1.0800000000000D+00 -4.2593017847179D-01  9.3488797838099D-01
110  1.0900000000000D+00 -4.4597476921336D-01  9.3954622767359D-01
111  1.1000000000000D+00 -4.6491961120669D-01  9.4414270476009D-01
112  1.1100000000000D+00 -4.8274609287336D-01  9.4869174202488D-01
113  1.1200000000000D+00 -4.9943775394919D-01  9.5320689540635D-01
114  1.1300000000000D+00 -5.1498035399680D-01  9.5770076823782D-01
115  1.1400000000000D+00 -5.2936193668890D-01  9.6218483867977D-01
116  1.1500000000000D+00 -5.4257288930567D-01  9.6666929208201D-01
117  1.1600000000000D+00 -5.5460599690219D-01  9.7116285959522D-01
118  1.1700000000000D+00 -5.6545649061545D-01  9.7567266432675D-01
119  1.1800000000000D+00 -5.7512208960453D-01  9.8020407629110D-01
120  1.1900000000000D+00 -5.8360303612821D-01  9.8476057738631D-01
121  1.2000000000000D+00 -5.9090212330617D-01  9.8934363754735D-01
122  1.2100000000000D+00 -5.9702471513627D-01  9.9395260317593D-01
123  1.2200000000000D+00 -6.0197875837067D-01  9.9858459888725D-01
124  1.2300000000000D+00 -6.0577478589378D-01  1.0032344435353D+00
125  1.2400000000000D+00 -6.0842591129716D-01  1.0078945813750D+00
126  1.2500000000000D+00 -6.0994781438378D-01  1.0125550291452D+00
127  1.2600000000000D+00 -6.1035871736764D-01  1.0172033397886D+00
128  1.2700000000000D+00 -6.0967935161881D-01  1.0218245833595D+00
129  1.2800000000000D+00 -6.0793291483762D-01  1.0264013455974D+00
130  1.2900000000000D+00 -6.0514501857104D-01  1.0309137445905D+00
131  1.3000000000000D+00 -6.0134362609856D-01  1.0353394657192D+00
132  1.3100000000000D+00 -5.9655898073019D-01  1.0396538150397D+00
133  1.3200000000000D+00 -5.9082352459904D-01  1.0438297911870D+00
134  1.3300000000000D+00 -5.8417180816175D-01  1.0478381756094D+00
135  1.3400000000000D+00 -5.7664039060031D-01  1.0516476409883D+00
136  1.3500000000000D+00 -5.6826773139925D-01  1.0552248775314D+00
137  1.3600000000000D+00 -5.5909407348556D-01  1.0585347365930D+00
138  1.3700000000000D+00 -5.4916131825803D-01  1.0615403912041D+00
139  1.3800000000000D+00 -5.3851289299433D-01  1.0642035127562D+00
140  1.3900000000000D+00 -5.2719361114019D-01  1.0664844630505D+00
141  1.4000000000000D+00 -5.1524952596249D-01  1.0683425009726D+00
142  1.4100000000000D+00 -5.0272777823499D-01  1.0697360026581D+00
143  1.4200000000000D+00 -4.8967643851653D-01  1.0706226942432D+00
144  1.4300000000000D+00 -4.7614434471519D-01  1.0709598960133D+00
145  1.4400000000000D+00 -4.6218093564793D-01  1.0707047767189D+00
146  1.4500000000000D+00 -4.4783608127306D-01  1.0698146169077D+00
147  1.4600000000000D+00 -4.3315991040085D-01  1.0682470798268D+00
148  1.4700000000000D+00 -4.1820263659368D-01  1.0659604886628D+00
149  1.4800000000000D+00 -4.0301438307196D-01  1.0629141086472D+00
150  1.4900000000000D+00 -3.8764500737629D-01  1.0590684326841D+00
151  1.5000000000000D+00 -3.7214392660760D-01  1.0543854690246D+00
152  1.5100000000000D+00 -3.5655994396580D-01  1.0488290296607D+00
153  1.5200000000000D+00 -3.4094107744010D-01  1.0423650179100D+00
154  1.5300000000000D+00 -3.2533439129700D-01  1.0349617139784D+00
155  1.5400000000000D+00 -3.0978583120136D-01  1.0265900569906D+00
156  1.5500000000000D+00 -2.9434006358175D-01  1.0172239223407D+00
157  1.5600000000000D+00 -2.7904031995368D-01  1.0068403930542D+00
158  1.5700000000000D+00 -2.6392824683681D-01  9.9542002397154D-01
159  1.5800000000000D+00 -2.4904376175733D-01  9.8294709784007D-01
160  1.5900000000000D+00 -2.3442491604618D-01  9.6940987198753D-01
161  1.6000000000000D+00 -2.2010776461784D-01  9.5480081522170D-01
162  1.6100000000000D+00 -2.0612624354967D-01  9.3911683342625D-01
163  1.6200000000000D+00 -1.9251205527803D-01  9.2235948417853D-01
164  1.6300000000000D+00 -1.7929456235628D-01  9.0453517862178D-01
165  1.6400000000000D+00 -1.6650068918912D-01  8.8565537166927D-01
166  1.6500000000000D+00 -1.5415483278940D-01  8.6573673857727D-01
167  1.6600000000000D+00 -1.4227878162066D-01  8.4480133962640D-01
168  1.6700000000000D+00 -1.3089164355146D-01  8.2287677097904D-01
169  1.6800000000000D+00 -1.2000978174352D-01  7.9999630391033D-01
170  1.6900000000000D+00 -1.0964675939839D-01  7.7619901066497D-01
171  1.7000000000000D+00 -9.9813291966622D-02  7.5152987955183D-01
172  1.7100000000000D+00 -9.0517207648450D-02  7.2603991770517D-01
173  1.7200000000000D+00 -8.1763414553214D-02  6.9978624457152D-01
174  1.7300000000000D+00 -7.3553875279016D-02  6.7283217467861D-01
175  1.7400000000000D+00 -6.5887587031478D-02  6.4524729321001D-01
176  1.7500000000000D+00 -5.8760564111970D-02  6.1710754060873D-01
177  1.7600000000000D+00 -5.2165846941842D-02  5.8849519112157D-01
178  1.7700000000000D+00 -4.6093436477014D-02  5.5949917651966D-01
179  1.7800000000000D+00 -4.0530443996041D-02  5.3021449255369D-01
180  1.7900000000000D+00 -3.5460967523351D-02  5.0074274268114D-01
181  1.8000000000000D+00 -3.0865823685246D-02  4.7119348351359D-01
182  1.8100000000000D+00 -2.6723104918571D-02  4.4168174706958D-01
183  1.8200000000000D+00 -2.3008741420039D-02  4.1232545938547D-01
184  1.8300000000000D+00 -1.9697088926381D-02  3.8324320596362D-01
185  1.8400000000000D+00 -1.6761776427282D-02  3.5455102258268D-01
186  1.8500000000000D+00 -1.4176216095285D-02  3.2636072075427D-01
187  1.8600000000000D+00 -1.1913595872187D-02  2.9878068166898D-01
188  1.8700000000000D+00 -9.9470465180393D-03  2.7191590015704D-01
189  1.8800000000000D+00 -8.2499769400337D-03  2.4586709362115D-01
190  1.8900000000000D+00 -6.7962365845021D-03  2.2073068386391D-01
191  1.9000000000000D+00 -5.5603456136366D-03  1.9659841731389D-01
192  1.9100000000000D+00 -4.5176942760061D-03  1.7355711183274D-01
193  1.9200000000000D+00 -3.6447376615311D-03  1.5168839532081D-01
194  1.9300000000000D+00 -2.9191816457906D-03  1.3106845723575D-01
195  1.9400000000000D+00 -2.3201582307091D-03  1.1176781575890D-01
196  1.9500000000000D+00 -1.8283896170136D-03  9.3851101705821D-02
197  1.9600000000000D+00 -1.4263407464822D-03  7.7376859708010D-02
198  1.9700000000000D+00 -1.0983579508718D-03  6.2397370330239D-02
199  1.9800000000000D+00 -8.3079553411704D-04  4.8958490406289D-02
200  1.9900000000000D+00 -6.1226790839557D-04  3.7106406498421D-02
201  2.0000000000000D+00 -4.3324521457080D-04  2.6863080511399D-02
202  2.0100000000000D+00 -2.8635065652282D-04  1.8230949919587D-02
203  2.0200000000000D+00 -1.6706326732207D-04  1.1226882271403D-02
204  2.0300000000000D+00 -7.4664693449143D-05  5.9880960704903D-03
205  2.0400000000000D+00 -8.8487797977008D-06  2.5750067644578D-03
206  2.0500000000000D+00  2.8573684283887D-05  7.0613959704111D-04
207  2.0600000000000D+00  3.6800038884110D-05 -5.5392477152983D-05
208  2.0700000000000D+00  2.2142019474299D-05 -1.7010743021881D-04
209  2.0800000000000D+00  2.2084727733422D-06 -2.1963746395311D-05
210  2.0900000000000D+00 -5.4031879296953D-06  6.1587653899661D-05
211  2.1000000000000D+00 -3.4117403919726D-06  4.2172789082420D-05
212  2.1100000000000D+00  6.1721130790333D-07 -5.6994417284965D-06
213  2.1200000000000D+00  1.1395841678161D-06 -1.1143455003337D-05
214  2.1300000000000D+00  2.0237471279614D-07 -2.0654685602458D-06
215  2.1400000000000D+00 -9.6984255428227D-08 -2.8447546854939D-07
216  2.1500000000000D+00 -7.8528769408698D-08 -2.3034159898952D-07
217  2.1600000000000D+00  0.0000000000000D+00  0.0000000000000D+00
218  2.1700000000000D+00  0.0000000000000D+00  0.0000000000000D+00
219  2.1800000000000D+00  0.0000000000000D+00  0.0000000000000D+00
220  2.1900000000000D+00  0.0000000000000D+00  0.0000000000000D+00
221  2.2000000000000D+00  0.0000000000000D+00  0.0000000000000D+00
222  2.2100000000000D+00  0.0000000000000D+00  0.0000000000000D+00
223  2.2200000000000D+00  0.0000000000000D+00  0.0000000000000D+00
224  2.2300000000000D+00  0.0000000000000D+00  0.0000000000000D+00
225  2.2400000000000D+00  0.0000000000000D+00  0.0000000000000D+00
226  2.2500000000000D+00  0.0000000000000D+00  0.0000000000000D+00
227  2.2600000000000D+00  0.0000000000000D+00  0.0000000000000D+00
228  2.2700000000000D+00  0.0000000000000D+00  0.0000000000000D+00
229  2.2800000000000D+00  0.0000000000000D+00  0.0000000000000D+00
230  2.2900000000000D+00  0.0000000000000D+00  0.0000000000000D+00
231  2.3000000000000D+00  0.0000000000000D+00  0.0000000000000D+00
232  2.3100000000000D+00  0.0000000000000D+00  0.0000000000000D+00
233  2.3200000000000D+00  0.0000000000000D+00  0.0000000000000D+00
234  2.3300000000000D+00  0.0000000000000D+00  0.0000000000000D+00
235  2.3400000000000D+00  0.0000000000000D+00  0.0000000000000D+00
236  2.3500000000000D+00  0.0000000000000D+00  0.0000000000000D+00
237  2.3600000000000D+00  0.0000000000000D+00  0.0000000000000D+00
238  2.3700000000000D+00  0.0000000000000D+00  0.0000000000000D+00
239  2.3800000000000D+00  0.0000000000000D+00  0.0000000000000D+00
240  2.3900000000000D+00  0.0000000000000D+00  0.0000000000000D+00
241  2.4000000000000D+00  0.0000000000000D+00  0.0000000000000D+00
242  2.4100000000000D+00  0.0000000000000D+00  0.0000000000000D+00
243  2.4200000000000D+00  0.0000000000000D+00  0.0000000000000D+00
244  2.4300000000000D+00  0.0000000000000D+00  0.0000000000000D+00
245  2.4400000000000D+00  0.0000000000000D+00  0.0000000000000D+00
246  2.4500000000000D+00  0.0000000000000D+00  0.0000000000000D+00
247  2.4600000000000D+00  0.0000000000000D+00  0.0000000000000D+00
248  2.4700000000000D+00  0.0000000000000D+00  0.0000000000000D+00
249  2.4800000000000D+00  0.0000000000000D+00  0.0000000000000D+00
250  2.4900000000000D+00  0.0000000000000D+00  0.0000000000000D+00
251  2.5000000000000D+00  0.0000000000000D+00  0.0000000000000D+00
252  2.5100000000000D+00  0.0000000000000D+00  0.0000000000000D+00
253  2.5200000000000D+00  0.0000000000000D+00  0.0000000000000D+00
254  2.5300000000000D+00  0.0000000000000D+00  0.0000000000000D+00
255  2.5400000000000D+00  0.0000000000000D+00  0.0000000000000D+00
256  2.5500000000000D+00  0.0000000000000D+00  0.0000000000000D+00
257  2.5600000000000D+00  0.0000000000000D+00  0.0000000000000D+00
258  2.5700000000000D+00  0.0000000000000D+00  0.0000000000000D+00
259  2.5800000000000D+00  0.0000000000000D+00  0.0000000000000D+00
260  2.5900000000000D+00  0.0000000000000D+00  0.0000000000000D+00
261  2.6000000000000D+00  0.0000000000000D+00  0.0000000000000D+00
262  2.6100000000000D+00  0.0000000000000D+00  0.0000000000000D+00
263  2.6200000000000D+00  0.0000000000000D+00  0.0000000000000D+00
264  2.6300000000000D+00  0.0000000000000D+00  0.0000000000000D+00
265  2.6400000000000D+00  0.0000000000000D+00  0.0000000000000D+00
266  2.6500000000000D+00  0.0000000000000D+00  0.0000000000000D+00
267  2.6600000000000D+00  0.0000000000000D+00  0.0000000000000D+00
268  2.6700000000000D+00  0.0000000000000D+00  0.0000000000000D+00
269  2.6800000000000D+00  0.0000000000000D+00  0.0000000000000D+00
270  2.6900000000000D+00  0.0000000000000D+00  0.0000000000000D+00
271  2.7000000000000D+00  0.0000000000000D+00  0.0000000000000D+00
272  2.7100000000000D+00  0.0000000000000D+00  0.0000000000000D+00
273  2.7200000000000D+00  0.0000000000000D+00  0.0000000000000D+00
274  2.7300000000000D+00  0.0000000000000D+00  0.0000000000000D+00
275  2.7400000000000D+00  0.0000000000000D+00  0.0000000000000D+00
276  2.7500000000000D+00  0.0000000000000D+00  0.0000000000000D+00
277  2.7600000000000D+00  0.0000000000000D+00  0.0000000000000D+00
278  2.7700000000000D+00  0.0000000000000D+00  0.0000000000000D+00
279  2.7800000000000D+00  0.0000000000000D+00  0.0000000000000D+00
280  2.7900000000000D+00  0.0000000000000D+00  0.0000000000000D+00
281  2.8000000000000D+00  0.0000000000000D+00  0.0000000000000D+00
282  2.8100000000000D+00  0.0000000000000D+00  0.0000000000000D+00
283  2.8200000000000D+00  0.0000000000000D+00  0.0000000000000D+00
284  2.8300000000000D+00  0.0000000000000D+00  0.0000000000000D+00
285  2.8400000000000D+00  0.0000000000000D+00  0.0000000000000D+00
286  2.8500000000000D+00  0.0000000000000D+00  0.0000000000000D+00
287  2.8600000000000D+00  0.0000000000000D+00  0.0000000000000D+00
288  2.8700000000000D+00  0.0000000000000D+00  0.0000000000000D+00
289  2.8800000000000D+00  0.0000000000000D+00  0.0000000000000D+00
290  2.8900000000000D+00  0.0000000000000D+00  0.0000000000000D+00
291  2.9000000000000D+00  0.0000000000000D+00  0.0000000000000D+00
292  2.9100000000000D+00  0.0000000000000D+00  0.0000000000000D+00
293  2.9200000000000D+00  0.0000000000000D+00  0.0000000000000D+00
294  2.9300000000000D+00  0.0000000000000D+00  0.0000000000000D+00
295  2.9400000000000D+00  0.0000000000000D+00  0.0000000000000D+00
296  2.9500000000000D+00  0.0000000000000D+00  0.0000000000000D+00
297  2.9600000000000D+00  0.0000000000000D+00  0.0000000000000D+00
298  2.9700000000000D+00  0.0000000000000D+00  0.0000000000000D+00
299  2.9800000000000D+00  0.0000000000000D+00  0.0000000000000D+00
300  2.9900000000000D+00  0.0000000000000D+00  0.0000000000000D+00
301  3.0000000000000D+00  0.0000000000000D+00  0.0000000000000D+00
302  3.0100000000000D+00  0.0000000000000D+00  0.0000000000000D+00
303  3.0200000000000D+00  0.0000000000000D+00  0.0000000000000D+00
304  3.0300000000000D+00  0.0000000000000D+00  0.0000000000000D+00
305  3.0400000000000D+00  0.0000000000000D+00  0.0000000000000D+00
306  3.0500000000000D+00  0.0000000000000D+00  0.0000000000000D+00
307  3.0600000000000D+00  0.0000000000000D+00  0.0000000000000D+00
308  3.0700000000000D+00  0.0000000000000D+00  0.0000000000000D+00
309  3.0800000000000D+00  0.0000000000000D+00  0.0000000000000D+00
310  3.0900000000000D+00  0.0000000000000D+00  0.0000000000000D+00
311  3.1000000000000D+00  0.0000000000000D+00  0.0000000000000D+00
312  3.1100000000000D+00  0.0000000000000D+00  0.0000000000000D+00
313  3.1200000000000D+00  0.0000000000000D+00  0.0000000000000D+00
314  3.1300000000000D+00  0.0000000000000D+00  0.0000000000000D+00
315  3.1400000000000D+00  0.0000000000000D+00  0.0000000000000D+00
316  3.1500000000000D+00  0.0000000000000D+00  0.0000000000000D+00
317  3.1600000000000D+00  0.0000000000000D+00  0.0000000000000D+00
318  3.1700000000000D+00  0.0000000000000D+00  0.0000000000000D+00
319  3.1800000000000D+00  0.0000000000000D+00  0.0000000000000D+00
320  3.1900000000000D+00  0.0000000000000D+00  0.0000000000000D+00
321  3.2000000000000D+00  0.0000000000000D+00  0.0000000000000D+00
322  3.2100000000000D+00  0.0000000000000D+00  0.0000000000000D+00
323  3.2200000000000D+00  0.0000000000000D+00  0.0000000000000D+00
324  3.2300000000000D+00  0.0000000000000D+00  0.0000000000000D+00
325  3.2400000000000D+00  0.0000000000000D+00  0.0000000000000D+00
326  3.2500000000000D+00  0.0000000000000D+00  0.0000000000000D+00
327  3.2600000000000D+00  0.0000000000000D+00  0.0000000000000D+00
328  3.2700000000000D+00  0.0000000000000D+00  0.0000000000000D+00
329  3.2800000000000D+00  0.0000000000000D+00  0.0000000000000D+00
330  3.2900000000000D+00  0.0000000000000D+00  0.0000000000000D+00
331  3.3000000000000D+00  0.0000000000000D+00  0.0000000000000D+00
332  3.3100000000000D+00  0.0000000000000D+00  0.0000000000000D+00
333  3.3200000000000D+00  0.0000000000000D+00  0.0000000000000D+00
334  3.3300000000000D+00  0.0000000000000D+00  0.0000000000000D+00
335  3.3400000000000D+00  0.0000000000000D+00  0.0000000000000D+00
336  3.3500000000000D+00  0.0000000000000D+00  0.0000000000000D+00
337  3.3600000000000D+00  0.0000000000000D+00  0.0000000000000D+00
338  3.3700000000000D+00  0.0000000000000D+00  0.0000000000000D+00
339  3.3800000000000D+00  0.0000000000000D+00  0.0000000000000D+00
340  3.3900000000000D+00  0.0000000000000D+00  0.0000000000000D+00
341  3.4000000000000D+00  0.0000000000000D+00  0.0000000000000D+00
342  3.4100000000000D+00  0.0000000000000D+00  0.0000000000000D+00
343  3.4200000000000D+00  0.0000000000000D+00  0.0000000000000D+00
344  3.4300000000000D+00  0.0000000000000D+00  0.0000000000000D+00
345  3.4400000000000D+00  0.0000000000000D+00  0.0000000000000D+00
346  3.4500000000000D+00  0.0000000000000D+00  0.0000000000000D+00
347  3.4600000000000D+00  0.0000000000000D+00  0.0000000000000D+00
348  3.4700000000000D+00  0.0000000000000D+00  0.0000000000000D+00
349  3.4800000000000D+00  0.0000000000000D+00  0.0000000000000D+00
350  3.4900000000000D+00  0.0000000000000D+00  0.0000000000000D+00
351  3.5000000000000D+00  0.0000000000000D+00  0.0000000000000D+00
352  3.5100000000000D+00  0.0000000000000D+00  0.0000000000000D+00
353  3.5200000000000D+00  0.0000000000000D+00  0.0000000000000D+00
354  3.5300000000000D+00  0.0000000000000D+00  0.0000000000000D+00
355  3.5400000000000D+00  0.0000000000000D+00  0.0000000000000D+00
356  3.5500000000000D+00  0.0000000000000D+00  0.0000000000000D+00
357  3.5600000000000D+00  0.0000000000000D+00  0.0000000000000D+00
358  3.5700000000000D+00  0.0000000000000D+00  0.0000000000000D+00
359  3.5800000000000D+00  0.0000000000000D+00  0.0000000000000D+00
360  3.5900000000000D+00  0.0000000000000D+00  0.0000000000000D+00
361  3.6000000000000D+00  0.0000000000000D+00  0.0000000000000D+00
362  3.6100000000000D+00  0.0000000000000D+00  0.0000000000000D+00
363  3.6200000000000D+00  0.0000000000000D+00  0.0000000000000D+00
364  3.6300000000000D+00  0.0000000000000D+00  0.0000000000000D+00
365  3.6400000000000D+00  0.0000000000000D+00  0.0000000000000D+00
366  3.6500000000000D+00  0.0000000000000D+00  0.0000000000000D+00
367  3.6600000000000D+00  0.0000000000000D+00  0.0000000000000D+00
368  3.6700000000000D+00  0.0000000000000D+00  0.0000000000000D+00
369  3.6800000000000D+00  0.0000000000000D+00  0.0000000000000D+00
370  3.6900000000000D+00  0.0000000000000D+00  0.0000000000000D+00
371  3.7000000000000D+00  0.0000000000000D+00  0.0000000000000D+00
372  3.7100000000000D+00  0.0000000000000D+00  0.0000000000000D+00
373  3.7200000000000D+00  0.0000000000000D+00  0.0000000000000D+00
374  3.7300000000000D+00  0.0000000000000D+00  0.0000000000000D+00
375  3.7400000000000D+00  0.0000000000000D+00  0.0000000000000D+00
376  3.7500000000000D+00  0.0000000000000D+00  0.0000000000000D+00
377  3.7600000000000D+00  0.0000000000000D+00  0.0000000000000D+00
378  3.7700000000000D+00  0.0000000000000D+00  0.0000000000000D+00
379  3.7800000000000D+00  0.0000000000000D+00  0.0000000000000D+00
380  3.7900000000000D+00  0.0000000000000D+00  0.0000000000000D+00
381  3.8000000000000D+00  0.0000000000000D+00  0.0000000000000D+00
382  3.8100000000000D+00  0.0000000000000D+00  0.0000000000000D+00
383  3.8200000000000D+00  0.0000000000000D+00  0.0000000000000D+00
384  3.8300000000000D+00  0.0000000000000D+00  0.0000000000000D+00
385  3.8400000000000D+00  0.0000000000000D+00  0.0000000000000D+00
386  3.8500000000000D+00  0.0000000000000D+00  0.0000000000000D+00
387  3.8600000000000D+00  0.0000000000000D+00  0.0000000000000D+00
388  3.8700000000000D+00  0.0000000000000D+00  0.0000000000000D+00
389  3.8800000000000D+00  0.0000000000000D+00  0.0000000000000D+00
390  3.8900000000000D+00  0.0000000000000D+00  0.0000000000000D+00
391  3.9000000000000D+00  0.0000000000000D+00  0.0000000000000D+00
392  3.9100000000000D+00  0.0000000000000D+00  0.0000000000000D+00
393  3.9200000000000D+00  0.0000000000000D+00  0.0000000000000D+00
394  3.9300000000000D+00  0.0000000000000D+00  0.0000000000000D+00
395  3.9400000000000D+00  0.0000000000000D+00  0.0000000000000D+00
396  3.9500000000000D+00  0.0000000000000D+00  0.0000000000000D+00
397  3.9600000000000D+00  0.0000000000000D+00  0.0000000000000D+00
398  3.9700000000000D+00  0.0000000000000D+00  0.0000000000000D+00
399  3.9800000000000D+00  0.0000000000000D+00  0.0000000000000D+00
400  3.9900000000000D+00  0.0000000000000D+00  0.0000000000000D+00
401  4.0000000000000D+00  0.0000000000000D+00  0.0000000000000D+00
402  4.0100000000000D+00  0.0000000000000D+00  0.0000000000000D+00
403  4.0200000000000D+00  0.0000000000000D+00  0.0000000000000D+00
404  4.0300000000000D+00  0.0000000000000D+00  0.0000000000000D+00
405  4.0400000000000D+00  0.0000000000000D+00  0.0000000000000D+00
406  4.0500000000000D+00  0.0000000000000D+00  0.0000000000000D+00
407  4.0600000000000D+00  0.0000000000000D+00  0.0000000000000D+00
408  4.0700000000000D+00  0.0000000000000D+00  0.0000000000000D+00
409  4.0800000000000D+00  0.0000000000000D+00  0.0000000000000D+00
410  4.0900000000000D+00  0.0000000000000D+00  0.0000000000000D+00
411  4.1000000000000D+00  0.0000000000000D+00  0.0000000000000D+00
412  4.1100000000000D+00  0.0000000000000D+00  0.0000000000000D+00
413  4.1200000000000D+00  0.0000000000000D+00  0.0000000000000D+00
414  4.1300000000000D+00  0.0000000000000D+00  0.0000000000000D+00
415  4.1400000000000D+00  0.0000000000000D+00  0.0000000000000D+00
416  4.1500000000000D+00  0.0000000000000D+00  0.0000000000000D+00
417  4.1600000000000D+00  0.0000000000000D+00  0.0000000000000D+00
418  4.1700000000000D+00  0.0000000000000D+00  0.0000000000000D+00
419  4.1800000000000D+00  0.0000000000000D+00  0.0000000000000D+00
420  4.1900000000000D+00  0.0000000000000D+00  0.0000000000000D+00
421  4.2000000000000D+00  0.0000000000000D+00  0.0000000000000D+00
422  4.2100000000000D+00  0.0000000000000D+00  0.0000000000000D+00
423  4.2200000000000D+00  0.0000000000000D+00  0.0000000000000D+00
424  4.2300000000000D+00  0.0000000000000D+00  0.0000000000000D+00
425  4.2400000000000D+00  0.0000000000000D+00  0.0000000000000D+00
426  4.2500000000000D+00  0.0000000000000D+00  0.0000000000000D+00
427  4.2600000000000D+00  0.0000000000000D+00  0.0000000000000D+00
428  4.2700000000000D+00  0.0000000000000D+00  0.0000000000000D+00
429  4.2800000000000D+00  0.0000000000000D+00  0.0000000000000D+00
430  4.2900000000000D+00  0.0000000000000D+00  0.0000000000000D+00
431  4.3000000000000D+00  0.0000000000000D+00  0.0000000000000D+00
432  4.3100000000000D+00  0.0000000000000D+00  0.0000000000000D+00
433  4.3200000000000D+00  0.0000000000000D+00  0.0000000000000D+00
434  4.3300000000000D+00  0.0000000000000D+00  0.0000000000000D+00
435  4.3400000000000D+00  0.0000000000000D+00  0.0000000000000D+00
436  4.3500000000000D+00  0.0000000000000D+00  0.0000000000000D+00
437  4.3600000000000D+00  0.0000000000000D+00  0.0000000000000D+00
438  4.3700000000000D+00  0.0000000000000D+00  0.0000000000000D+00
439  4.3800000000000D+00  0.0000000000000D+00  0.0000000000000D+00
440  4.3900000000000D+00  0.0000000000000D+00  0.0000000000000D+00
441  4.4000000000000D+00  0.0000000000000D+00  0.0000000000000D+00
442  4.4100000000000D+00  0.0000000000000D+00  0.0000000000000D+00
443  4.4200000000000D+00  0.0000000000000D+00  0.0000000000000D+00