Ag    ONCVPSP-3.2.3.1  r_core=   1.41384   1.46535   1.61207
47.0000     19.0000      170510    zatom,zion,pspd
8      11   2     4   600     0    pspcod,pspxc,lmax,lloc,mmax,r2well
5.99000000  7.00000000  0.00000000    rchrg fchrg qchrg
2     2     2     0     0    nproj
1     1           extension_switch
0                         9.5575656383103D+00 -4.1474188761573D-01
1  0.0000000000000D+00 -3.3361313711566D-11 -3.1732341199131D-09
2  1.0000000000000D-02  7.8494028852152D-02  7.3986952508936D-02
3  2.0000000000000D-02  1.5680340851982D-01  1.4744734261709D-01
4  3.0000000000000D-02  2.3474403272571D-01  2.1985935792618D-01
5  4.0000000000000D-02  3.1213287920823D-01  2.9071062829673D-01
6  5.0000000000000D-02  3.8878854724135D-01  3.5950280343537D-01
7  6.0000000000000D-02  4.6453178979280D-01  4.2575596052574D-01
8  7.0000000000000D-02  5.3918603857295D-01  4.8901278903765D-01
9  8.0000000000000D-02  6.1257792026027D-01  5.4884250302258D-01
10  9.0000000000000D-02  6.8453776223014D-01  6.0484443508164D-01
11  1.0000000000000D-01  7.5490008616203D-01  6.5665127071609D-01
12  1.1000000000000D-01  8.2350408795491D-01  7.0393188687477D-01
13  1.2000000000000D-01  8.9019410244186D-01  7.4639376411993D-01
14  1.3000000000000D-01  9.5482005146089D-01  7.8378494786112D-01
15  1.4000000000000D-01  1.0172378739103D+00  8.1589554046505D-01
16  1.5000000000000D-01  1.0773099364918D+00  8.4255871264431D-01
17  1.6000000000000D-01  1.1349054239236D+00  8.6365122925932D-01
18  1.7000000000000D-01  1.1899007074850D+00  8.7909349143836D-01
19  1.8000000000000D-01  1.2421796908392D+00  8.8884910362617D-01
20  1.9000000000000D-01  1.2916341321617D+00  8.9292398071310D-01
21  2.0000000000000D-01  1.3381639416892D+00  8.9136501667824D-01
22  2.1000000000000D-01  1.3816774538847D+00  8.8425834210278D-01
23  2.2000000000000D-01  1.4220916734998D+00  8.7172720339117D-01
24  2.3000000000000D-01  1.4593324948964D+00  8.5392950148893D-01
25  2.4000000000000D-01  1.4933348940683D+00  8.3105503223833D-01
26  2.5000000000000D-01  1.5240430928851D+00  8.0332247419745D-01
27  2.6000000000000D-01  1.5514106951507D+00  7.7097617270999D-01
28  2.7000000000000D-01  1.5754007941475D+00  7.3428277120941D-01
29  2.8000000000000D-01  1.5959860514023D+00  6.9352774213610D-01
30  2.9000000000000D-01  1.6131487464819D+00  6.4901187042200D-01
31  3.0000000000000D-01  1.6268807976878D+00  6.0104774224288D-01
32  3.1000000000000D-01  1.6371837535854D+00  5.4995629066133D-01
33  3.2000000000000D-01  1.6440687553619D+00  4.9606344789811D-01
34  3.3000000000000D-01  1.6475564700655D+00  4.3969695130735D-01
35  3.4000000000000D-01  1.6476769948397D+00  3.8118334673369D-01
36  3.5000000000000D-01  1.6444697323203D+00  3.2084522884996D-01
37  3.6000000000000D-01  1.6379832374203D+00  2.5899875337738D-01
38  3.7000000000000D-01  1.6282750357888D+00  1.9595145085016D-01
39  3.8000000000000D-01  1.6154114142825D+00  1.3200036588737D-01
40  3.9000000000000D-01  1.5994671838557D+00  6.7430539866646D-02
41  4.0000000000000D-01  1.5805254153308D+00  2.5138485535262D-03
42  4.1000000000000D-01  1.5586771485818D+00 -6.2491800268494D-02
43  4.2000000000000D-01  1.5340210757280D+00 -1.2734291069525D-01
44  4.3000000000000D-01  1.5066631990125D+00 -1.9181049218658D-01
45  4.4000000000000D-01  1.4767164641115D+00 -2.5567981707673D-01
46  4.5000000000000D-01  1.4443003697075D+00 -3.1874986267479D-01
47  4.6000000000000D-01  1.4095405542421D+00 -3.8083246428404D-01
48  4.7000000000000D-01  1.3725683608567D+00 -4.4175121078083D-01
49  4.8000000000000D-01  1.3335203816261D+00 -5.0134011915570D-01
50  4.9000000000000D-01  1.2925379822897D+00 -5.5944212855422D-01
51  5.0000000000000D-01  1.2497668087908D+00 -6.1590745778595D-01
52  5.1000000000000D-01  1.2053562770418D+00 -6.7059187293225D-01
53  5.2000000000000D-01  1.1594590474480D+00 -7.2335491353148D-01
54  5.3000000000000D-01  1.1122304858331D+00 -7.7405812680843D-01
55  5.4000000000000D-01  1.0638281125282D+00 -8.2256335952369D-01
56  5.5000000000000D-01  1.0144110415008D+00 -8.6873115623245D-01
57  5.6000000000000D-01  9.6413941151398D-01 -9.1241931106805D-01
58  5.7000000000000D-01  9.1317381142073D-01 -9.5348161761584D-01
59  5.8000000000000D-01  8.6167470180516D-01 -9.9176685805933D-01
60  5.9000000000000D-01  8.0980183528554D-01 -1.0271180685897D+00
61  6.0000000000000D-01  7.5771367789096D-01 -1.0593721131629D+00
62  6.1000000000000D-01  7.0556683400967D-01 -1.0883595920977D+00
63  6.2000000000000D-01  6.5351547748386D-01 -1.1139051058526D+00
64  6.3000000000000D-01  6.0171079148984D-01 -1.1358278876855D+00
65  6.4000000000000D-01  5.5030041989245D-01 -1.1539428118533D+00
66  6.5000000000000D-01  4.9942793279672D-01 -1.1680617767465D+00
67  6.6000000000000D-01  4.4923230903693D-01 -1.1779954548938D+00
68  6.7000000000000D-01  3.9984743834069D-01 -1.1835553942978D+00
69  6.8000000000000D-01  3.5140164588374D-01 -1.1845564482072D+00
70  6.9000000000000D-01  3.0401724190761D-01 -1.1808195032683D+00
71  7.0000000000000D-01  2.5781009900556D-01 -1.1721744691867D+00
72  7.1000000000000D-01  2.1288925959364D-01 -1.1584634866979D+00
73  7.2000000000000D-01  1.6935657596992D-01 -1.1395443048810D+00
74  7.3000000000000D-01  1.2730638522892D-01 -1.1152937737810D+00
75  7.4000000000000D-01  8.6825221135963D-02 -1.0856113940061D+00
76  7.5000000000000D-01  4.7991564882495D-02 -1.0504228615639D+00
77  7.6000000000000D-01  1.0875636435165D-02 -1.0096835437301D+00
78  7.7000000000000D-01 -2.4460772038422D-02 -9.6338182028705D-01
79  7.8000000000000D-01 -5.7964419435391D-02 -9.1154222407249D-01
80  7.9000000000000D-01 -8.9590694712433D-02 -8.5422831545967D-01
81  8.0000000000000D-01 -1.1930365093577D-01 -7.9154522717715D-01
82  8.1000000000000D-01 -1.4707599401508D-01 -7.2364181875946D-01
83  8.2000000000000D-01 -1.7288902606590D-01 -6.5071238387092D-01
84  8.3000000000000D-01 -1.9673254367111D-01 -5.7299785873731D-01
85  8.4000000000000D-01 -2.1860469164533D-01 -4.9078648588794D-01
86  8.5000000000000D-01 -2.3851177324343D-01 -4.0441389428892D-01
87  8.6000000000000D-01 -2.5646801809227D-01 -3.1426256464315D-01
88  8.7000000000000D-01 -2.7249530946010D-01 -2.2076065704444D-01
89  8.8000000000000D-01 -2.8662287280714D-01 -1.2438018718642D-01
90  8.9000000000000D-01 -2.9888692787982D-01 -2.5634546810948D-02
91  9.0000000000000D-01 -3.0933030691677D-01  7.4924626097821D-02
92  9.1000000000000D-01 -3.1800204182306D-01  1.7671121185684D-01
93  9.2000000000000D-01 -3.2495692343676D-01  2.7910898280095D-01
94  9.3000000000000D-01 -3.3025503625582D-01  3.8147655066564D-01
95  9.4000000000000D-01 -3.3396127220983D-01  4.8315284245145D-01
96  9.5000000000000D-01 -3.3614482724595D-01  5.8346305042723D-01
97  9.6000000000000D-01 -3.3687868465426D-01  6.8172499312928D-01
98  9.7000000000000D-01 -3.3623908917320D-01  7.7725581638253D-01
99  9.8000000000000D-01 -3.3430501599751D-01  8.6937895623599D-01
100  9.9000000000000D-01 -3.3115763885214D-01  9.5743127960815D-01
101  1.0000000000000D+00 -3.2687980129700D-01  1.0407703134275D+00
102  1.0100000000000D+00 -3.2155549538741D-01  1.1187814692276D+00
103  1.0200000000000D+00 -3.1526935173063D-01  1.1908851676628D+00
104  1.0300000000000D+00 -3.0810614486515D-01  1.2565437661360D+00
105  1.0400000000000D+00 -3.0015031771470D-01  1.3152681929430D+00
106  1.0500000000000D+00 -2.9148552867373D-01  1.3666241929429D+00
107  1.0600000000000D+00 -2.8219422464035D-01  1.4102380926924D+00
108  1.0700000000000D+00 -2.7235724302266D-01  1.4458019976935D+00
109  1.0800000000000D+00 -2.6205344546363D-01  1.4730783395610D+00
110  1.0900000000000D+00 -2.5135938566345D-01  1.4919036984518D+00
111  1.1000000000000D+00 -2.4034901332061D-01  1.5021918342676D+00
112  1.1100000000000D+00 -2.2909341582643D-01  1.5039358694270D+00
113  1.1200000000000D+00 -2.1766059891779D-01  1.4972095770412D+00
114  1.1300000000000D+00 -2.0611530713933D-01  1.4821677375958D+00
115  1.1400000000000D+00 -1.9451888443484D-01  1.4590455419978D+00
116  1.1500000000000D+00 -1.8292917482253D-01  1.4281570294396D+00
117  1.1600000000000D+00 -1.7140046262268D-01  1.3898925629318D+00
118  1.1700000000000D+00 -1.5998345137163D-01  1.3447153553797D+00
119  1.1800000000000D+00 -1.4872527999396D-01  1.2931570766653D+00
120  1.1900000000000D+00 -1.3766957447817D-01  1.2358125828367D+00
121  1.2000000000000D+00 -1.2685653294420D-01  1.1733338200753D+00
122  1.2100000000000D+00 -1.1632304158155D-01  1.1064229696947D+00
123  1.2200000000000D+00 -1.0610281858278D-01  1.0358249127329D+00
124  1.2300000000000D+00 -9.6226582939857D-02  9.6231910186320D-01
125  1.2400000000000D+00 -8.6722244755932D-02  8.8671093576176D-01
126  1.2500000000000D+00 -7.7615113360553D-02  8.0982274468446D-01
127  1.2600000000000D+00 -6.8928119456582D-02  7.3248449893088D-01
128  1.2700000000000D+00 -6.0682047393946D-02  6.5552435647641D-01
129  1.2800000000000D+00 -5.2895773463526D-02  5.7975917512750D-01
130  1.2900000000000D+00 -4.5586506224483D-02  5.0598511118008D-01
131  1.3000000000000D+00 -3.8770024739716D-02  4.3496843138506D-01
132  1.3100000000000D+00 -3.2460910724673D-02  3.6743666328880D-01
133  1.3200000000000D+00 -2.6672770817188D-02  3.0407020229002D-01
134  1.3300000000000D+00 -2.1418445017569D-02  2.4549449951142D-01
135  1.3400000000000D+00 -1.6710197944838D-02  1.9227293685249D-01
136  1.3500000000000D+00 -1.2559889587904D-02  1.4490049389895D-01
137  1.3600000000000D+00 -8.9791222865771D-03  1.0379831052729D-01
138  1.3700000000000D+00 -5.9810283652739D-03  6.9329124396444D-02
139  1.3800000000000D+00 -3.5722583772144D-03  4.1697064788284D-02
140  1.3900000000000D+00 -1.7568054600226D-03  2.0979845976595D-02
141  1.4000000000000D+00 -5.9558430970515D-04  7.9248085012105D-03
142  1.4100000000000D+00 -5.5096298841147D-05  1.9247138208999D-03
143  1.4200000000000D+00  6.2815890322044D-05  1.0844582065723D-04
144  1.4300000000000D+00  5.4465017629155D-06 -1.3189734046200D-05
145  1.4400000000000D+00 -1.6230236297235D-05  5.7604942209514D-05
146  1.4500000000000D+00  1.3224925959796D-06 -2.1212518728172D-06
147  1.4600000000000D+00  2.4928518003775D-06 -5.4572194707048D-06
148  1.4700000000000D+00 -6.1482938266159D-08 -2.0680335723626D-06
149  1.4800000000000D+00 -3.6530903643362D-08 -1.2287495896207D-06
150  1.4900000000000D+00  0.0000000000000D+00  0.0000000000000D+00
151  1.5000000000000D+00  0.0000000000000D+00  0.0000000000000D+00
152  1.5100000000000D+00  0.0000000000000D+00  0.0000000000000D+00
153  1.5200000000000D+00  0.0000000000000D+00  0.0000000000000D+00
154  1.5300000000000D+00  0.0000000000000D+00  0.0000000000000D+00
155  1.5400000000000D+00  0.0000000000000D+00  0.0000000000000D+00
156  1.5500000000000D+00  0.0000000000000D+00  0.0000000000000D+00
157  1.5600000000000D+00  0.0000000000000D+00  0.0000000000000D+00
158  1.5700000000000D+00  0.0000000000000D+00  0.0000000000000D+00
159  1.5800000000000D+00  0.0000000000000D+00  0.0000000000000D+00
160  1.5900000000000D+00  0.0000000000000D+00  0.0000000000000D+00
161  1.6000000000000D+00  0.0000000000000D+00  0.0000000000000D+00
162  1.6100000000000D+00  0.0000000000000D+00  0.0000000000000D+00
163  1.6200000000000D+00  0.0000000000000D+00  0.0000000000000D+00
164  1.6300000000000D+00  0.0000000000000D+00  0.0000000000000D+00
165  1.6400000000000D+00  0.0000000000000D+00  0.0000000000000D+00
166  1.6500000000000D+00  0.0000000000000D+00  0.0000000000000D+00
167  1.6600000000000D+00  0.0000000000000D+00  0.0000000000000D+00
168  1.6700000000000D+00  0.0000000000000D+00  0.0000000000000D+00
169  1.6800000000000D+00  0.0000000000000D+00  0.0000000000000D+00
170  1.6900000000000D+00  0.0000000000000D+00  0.0000000000000D+00
171  1.7000000000000D+00  0.0000000000000D+00  0.0000000000000D+00
172  1.7100000000000D+00  0.0000000000000D+00  0.0000000000000D+00
173  1.7200000000000D+00  0.0000000000000D+00  0.0000000000000D+00
174  1.7300000000000D+00  0.0000000000000D+00  0.0000000000000D+00
175  1.7400000000000D+00  0.0000000000000D+00  0.0000000000000D+00
176  1.7500000000000D+00  0.0000000000000D+00  0.0000000000000D+00
177  1.7600000000000D+00  0.0000000000000D+00  0.0000000000000D+00
178  1.7700000000000D+00  0.0000000000000D+00  0.0000000000000D+00
179  1.7800000000000D+00  0.0000000000000D+00  0.0000000000000D+00
180  1.7900000000000D+00  0.0000000000000D+00  0.0000000000000D+00
181  1.8000000000000D+00  0.0000000000000D+00  0.0000000000000D+00
182  1.8100000000000D+00  0.0000000000000D+00  0.0000000000000D+00
183  1.8200000000000D+00  0.0000000000000D+00  0.0000000000000D+00
184  1.8300000000000D+00  0.0000000000000D+00  0.0000000000000D+00
185  1.8400000000000D+00  0.0000000000000D+00  0.0000000000000D+00
186  1.8500000000000D+00  0.0000000000000D+00  0.0000000000000D+00
187  1.8600000000000D+00  0.0000000000000D+00  0.0000000000000D+00
188  1.8700000000000D+00  0.0000000000000D+00  0.0000000000000D+00
189  1.8800000000000D+00  0.0000000000000D+00  0.0000000000000D+00
190  1.8900000000000D+00  0.0000000000000D+00  0.0000000000000D+00
191  1.9000000000000D+00  0.0000000000000D+00  0.0000000000000D+00
192  1.9100000000000D+00  0.0000000000000D+00  0.0000000000000D+00
193  1.9200000000000D+00  0.0000000000000D+00  0.0000000000000D+00
194  1.9300000000000D+00  0.0000000000000D+00  0.0000000000000D+00
195  1.9400000000000D+00  0.0000000000000D+00  0.0000000000000D+00
196  1.9500000000000D+00  0.0000000000000D+00  0.0000000000000D+00
197  1.9600000000000D+00  0.0000000000000D+00  0.0000000000000D+00
198  1.9700000000000D+00  0.0000000000000D+00  0.0000000000000D+00
199  1.9800000000000D+00  0.0000000000000D+00  0.0000000000000D+00
200  1.9900000000000D+00  0.0000000000000D+00  0.0000000000000D+00
201  2.0000000000000D+00  0.0000000000000D+00  0.0000000000000D+00
202  2.0100000000000D+00  0.0000000000000D+00  0.0000000000000D+00
203  2.0200000000000D+00  0.0000000000000D+00  0.0000000000000D+00
204  2.0300000000000D+00  0.0000000000000D+00  0.0000000000000D+00
205  2.0400000000000D+00  0.0000000000000D+00  0.0000000000000D+00
206  2.0500000000000D+00  0.0000000000000D+00  0.0000000000000D+00
207  2.0600000000000D+00  0.0000000000000D+00  0.0000000000000D+00
208  2.0700000000000D+00  0.0000000000000D+00  0.0000000000000D+00
209  2.0800000000000D+00  0.0000000000000D+00  0.0000000000000D+00
210  2.0900000000000D+00  0.0000000000000D+00  0.0000000000000D+00
211  2.1000000000000D+00  0.0000000000000D+00  0.0000000000000D+00
212  2.1100000000000D+00  0.0000000000000D+00  0.0000000000000D+00
213  2.1200000000000D+00  0.0000000000000D+00  0.0000000000000D+00
214  2.1300000000000D+00  0.0000000000000D+00  0.0000000000000D+00
215  2.1400000000000D+00  0.0000000000000D+00  0.0000000000000D+00
216  2.1500000000000D+00  0.0000000000000D+00  0.0000000000000D+00
217  2.1600000000000D+00  0.0000000000000D+00  0.0000000000000D+00
218  2.1700000000000D+00  0.0000000000000D+00  0.0000000000000D+00
219  2.1800000000000D+00  0.0000000000000D+00  0.0000000000000D+00
220  2.1900000000000D+00  0.0000000000000D+00  0.0000000000000D+00
221  2.2000000000000D+00  0.0000000000000D+00  0.0000000000000D+00
222  2.2100000000000D+00  0.0000000000000D+00  0.0000000000000D+00
223  2.2200000000000D+00  0.0000000000000D+00  0.0000000000000D+00
224  2.2300000000000D+00  0.0000000000000D+00  0.0000000000000D+00
225  2.2400000000000D+00  0.0000000000000D+00  0.0000000000000D+00
226  2.2500000000000D+00  0.0000000000000D+00  0.0000000000000D+00
227  2.2600000000000D+00  0.0000000000000D+00  0.0000000000000D+00
228  2.2700000000000D+00  0.0000000000000D+00  0.0000000000000D+00
229  2.2800000000000D+00  0.0000000000000D+00  0.0000000000000D+00
230  2.2900000000000D+00  0.0000000000000D+00  0.0000000000000D+00
231  2.3000000000000D+00  0.0000000000000D+00  0.0000000000000D+00
232  2.3100000000000D+00  0.0000000000000D+00  0.0000000000000D+00
233  2.3200000000000D+00  0.0000000000000D+00  0.0000000000000D+00
234  2.3300000000000D+00  0.0000000000000D+00  0.0000000000000D+00
235  2.3400000000000D+00  0.0000000000000D+00  0.0000000000000D+00
236  2.3500000000000D+00  0.0000000000000D+00  0.0000000000000D+00
237  2.3600000000000D+00  0.0000000000000D+00  0.0000000000000D+00
238  2.3700000000000D+00  0.0000000000000D+00  0.0000000000000D+00
239  2.3800000000000D+00  0.0000000000000D+00  0.0000000000000D+00
240  2.3900000000000D+00  0.0000000000000D+00  0.0000000000000D+00
241  2.4000000000000D+00  0.0000000000000D+00  0.0000000000000D+00
242  2.4100000000000D+00  0.0000000000000D+00  0.0000000000000D+00
243  2.4200000000000D+00  0.0000000000000D+00  0.0000000000000D+00
244  2.4300000000000D+00  0.0000000000000D+00  0.0000000000000D+00
245  2.4400000000000D+00  0.0000000000000D+00  0.0000000000000D+00
246  2.4500000000000D+00  0.0000000000000D+00  0.0000000000000D+00
247  2.4600000000000D+00  0.0000000000000D+00  0.0000000000000D+00
248  2.4700000000000D+00  0.0000000000000D+00  0.0000000000000D+00
249  2.4800000000000D+00  0.0000000000000D+00  0.0000000000000D+00
250  2.4900000000000D+00  0.0000000000000D+00  0.0000000000000D+00
251  2.5000000000000D+00  0.0000000000000D+00  0.0000000000000D+00
252  2.5100000000000D+00  0.0000000000000D+00  0.0000000000000D+00
253  2.5200000000000D+00  0.0000000000000D+00  0.0000000000000D+00
254  2.5300000000000D+00  0.0000000000000D+00  0.0000000000000D+00
255  2.5400000000000D+00  0.0000000000000D+00  0.0000000000000D+00
256  2.5500000000000D+00  0.0000000000000D+00  0.0000000000000D+00
257  2.5600000000000D+00  0.0000000000000D+00  0.0000000000000D+00
258  2.5700000000000D+00  0.0000000000000D+00  0.0000000000000D+00
259  2.5800000000000D+00  0.0000000000000D+00  0.0000000000000D+00
260  2.5900000000000D+00  0.0000000000000D+00  0.0000000000000D+00
261  2.6000000000000D+00  0.0000000000000D+00  0.0000000000000D+00
262  2.6100000000000D+00  0.0000000000000D+00  0.0000000000000D+00
263  2.6200000000000D+00  0.0000000000000D+00  0.0000000000000D+00
264  2.6300000000000D+00  0.0000000000000D+00  0.0000000000000D+00
265  2.6400000000000D+00  0.0000000000000D+00  0.0000000000000D+00
266  2.6500000000000D+00  0.0000000000000D+00  0.0000000000000D+00
267  2.6600000000000D+00  0.0000000000000D+00  0.0000000000000D+00
268  2.6700000000000D+00  0.0000000000000D+00  0.0000000000000D+00
269  2.6800000000000D+00  0.0000000000000D+00  0.0000000000000D+00
270  2.6900000000000D+00  0.0000000000000D+00  0.0000000000000D+00
271  2.7000000000000D+00  0.0000000000000D+00  0.0000000000000D+00
272  2.7100000000000D+00  0.0000000000000D+00  0.0000000000000D+00
273  2.7200000000000D+00  0.0000000000000D+00  0.0000000000000D+00
274  2.7300000000000D+00  0.0000000000000D+00  0.0000000000000D+00
275  2.7400000000000D+00  0.0000000000000D+00  0.0000000000000D+00
276  2.7500000000000D+00  0.0000000000000D+00  0.0000000000000D+00
277  2.7600000000000D+00  0.0000000000000D+00  0.0000000000000D+00
278  2.7700000000000D+00  0.0000000000000D+00  0.0000000000000D+00
279  2.7800000000000D+00  0.0000000000000D+00  0.0000000000000D+00
280  2.7900000000000D+00  0.0000000000000D+00  0.0000000000000D+00
281  2.8000000000000D+00  0.0000000000000D+00  0.0000000000000D+00
282  2.8100000000000D+00  0.0000000000000D+00  0.0000000000000D+00
283  2.8200000000000D+00  0.0000000000000D+00  0.0000000000000D+00
284  2.8300000000000D+00  0.0000000000000D+00  0.0000000000000D+00
285  2.8400000000000D+00  0.0000000000000D+00  0.0000000000000D+00
286  2.8500000000000D+00  0.0000000000000D+00  0.0000000000000D+00
287  2.8600000000000D+00  0.0000000000000D+00  0.0000000000000D+00
288  2.8700000000000D+00  0.0000000000000D+00  0.0000000000000D+00
289  2.8800000000000D+00  0.0000000000000D+00  0.0000000000000D+00
290  2.8900000000000D+00  0.0000000000000D+00  0.0000000000000D+00
291  2.9000000000000D+00  0.0000000000000D+00  0.0000000000000D+00
292  2.9100000000000D+00  0.0000000000000D+00  0.0000000000000D+00
293  2.9200000000000D+00  0.0000000000000D+00  0.0000000000000D+00
294  2.9300000000000D+00  0.0000000000000D+00  0.0000000000000D+00
295  2.9400000000000D+00  0.0000000000000D+00  0.0000000000000D+00
296  2.9500000000000D+00  0.0000000000000D+00  0.0000000000000D+00
297  2.9600000000000D+00  0.0000000000000D+00  0.0000000000000D+00
298  2.9700000000000D+00  0.0000000000000D+00  0.0000000000000D+00
299  2.9800000000000D+00  0.0000000000000D+00  0.0000000000000D+00
300  2.9900000000000D+00  0.0000000000000D+00  0.0000000000000D+00
301  3.0000000000000D+00  0.0000000000000D+00  0.0000000000000D+00
302  3.0100000000000D+00  0.0000000000000D+00  0.0000000000000D+00
303  3.0200000000000D+00  0.0000000000000D+00  0.0000000000000D+00
304  3.0300000000000D+00  0.0000000000000D+00  0.0000000000000D+00
305  3.0400000000000D+00  0.0000000000000D+00  0.0000000000000D+00
306  3.0500000000000D+00  0.0000000000000D+00  0.0000000000000D+00
307  3.0600000000000D+00  0.0000000000000D+00  0.0000000000000D+00
308  3.0700000000000D+00  0.0000000000000D+00  0.0000000000000D+00
309  3.0800000000000D+00  0.0000000000000D+00  0.0000000000000D+00
310  3.0900000000000D+00  0.0000000000000D+00  0.0000000000000D+00
311  3.1000000000000D+00  0.0000000000000D+00  0.0000000000000D+00
312  3.1100000000000D+00  0.0000000000000D+00  0.0000000000000D+00
313  3.1200000000000D+00  0.0000000000000D+00  0.0000000000000D+00
314  3.1300000000000D+00  0.0000000000000D+00  0.0000000000000D+00
315  3.1400000000000D+00  0.0000000000000D+00  0.0000000000000D+00
316  3.1500000000000D+00  0.0000000000000D+00  0.0000000000000D+00
317  3.1600000000000D+00  0.0000000000000D+00  0.0000000000000D+00
318  3.1700000000000D+00  0.0000000000000D+00  0.0000000000000D+00
319  3.1800000000000D+00  0.0000000000000D+00  0.0000000000000D+00
320  3.1900000000000D+00  0.0000000000000D+00  0.0000000000000D+00
321  3.2000000000000D+00  0.0000000000000D+00  0.0000000000000D+00
322  3.2100000000000D+00  0.0000000000000D+00  0.0000000000000D+00
323  3.2200000000000D+00  0.0000000000000D+00  0.0000000000000D+00
324  3.2300000000000D+00  0.0000000000000D+00  0.0000000000000D+00
325  3.2400000000000D+00  0.0000000000000D+00  0.0000000000000D+00
326  3.2500000000000D+00  0.0000000000000D+00  0.0000000000000D+00
327  3.2600000000000D+00  0.0000000000000D+00  0.0000000000000D+00
328  3.2700000000000D+00  0.0000000000000D+00  0.0000000000000D+00
329  3.2800000000000D+00  0.0000000000000D+00  0.0000000000000D+00
330  3.2900000000000D+00  0.0000000000000D+00  0.0000000000000D+00
331  3.3000000000000D+00  0.0000000000000D+00  0.0000000000000D+00
332  3.3100000000000D+00  0.0000000000000D+00  0.0000000000000D+00
333  3.3200000000000D+00  0.0000000000000D+00  0.0000000000000D+00
334  3.3300000000000D+00  0.0000000000000D+00  0.0000000000000D+00
335  3.3400000000000D+00  0.0000000000000D+00  0.0000000000000D+00
336  3.3500000000000D+00  0.0000000000000D+00  0.0000000000000D+00
337  3.3600000000000D+00  0.0000000000000D+00  0.0000000000000D+00
338  3.3700000000000D+00  0.0000000000000D+00  0.0000000000000D+00
339  3.3800000000000D+00  0.0000000000000D+00  0.0000000000000D+00
340  3.3900000000000D+00  0.0000000000000D+00  0.0000000000000D+00
341  3.4000000000000D+00  0.0000000000000D+00  0.0000000000000D+00
342  3.4100000000000D+00  0.0000000000000D+00  0.0000000000000D+00
343  3.4200000000000D+00  0.0000000000000D+00  0.0000000000000D+00
344  3.4300000000000D+00  0.0000000000000D+00  0.0000000000000D+00
345  3.4400000000000D+00  0.0000000000000D+00  0.0000000000000D+00
346  3.4500000000000D+00  0.0000000000000D+00  0.0000000000000D+00
347  3.4600000000000D+00  0.0000000000000D+00  0.0000000000000D+00
348  3.4700000000000D+00  0.0000000000000D+00  0.0000000000000D+00
349  3.4800000000000D+00  0.0000000000000D+00  0.0000000000000D+00
350  3.4900000000000D+00  0.0000000000000D+00  0.0000000000000D+00
351  3.5000000000000D+00  0.0000000000000D+00  0.0000000000000D+00
352  3.5100000000000D+00  0.0000000000000D+00  0.0000000000000D+00
353  3.5200000000000D+00  0.0000000000000D+00  0.0000000000000D+00
354  3.5300000000000D+00  0.0000000000000D+00  0.0000000000000D+00
355  3.5400000000000D+00  0.0000000000000D+00  0.0000000000000D+00
356  3.5500000000000D+00  0.0000000000000D+00  0.0000000000000D+00
357  3.5600000000000D+00  0.0000000000000D+00  0.0000000000000D+00
358  3.5700000000000D+00  0.0000000000000D+00  0.0000000000000D+00
359  3.5800000000000D+00  0.0000000000000D+00  0.0000000000000D+00
360  3.5900000000000D+00  0.0000000000000D+00  0.0000000000000D+00
361  3.6000000000000D+00  0.0000000000000D+00  0.0000000000000D+00
362  3.6100000000000D+00  0.0000000000000D+00  0.0000000000000D+00
363  3.6200000000000D+00  0.0000000000000D+00  0.0000000000000D+00
364  3.6300000000000D+00  0.0000000000000D+00  0.0000000000000D+00
365  3.6400000000000D+00  0.0000000000000D+00  0.0000000000000D+00
366  3.6500000000000D+00  0.0000000000000D+00  0.0000000000000D+00
367  3.6600000000000D+00  0.0000000000000D+00  0.0000000000000D+00
368  3.6700000000000D+00  0.0000000000000D+00  0.0000000000000D+00
369  3.6800000000000D+00  0.0000000000000D+00  0.0000000000000D+00
370  3.6900000000000D+00  0.0000000000000D+00  0.0000000000000D+00
371  3.7000000000000D+00  0.0000000000000D+00  0.0000000000000D+00
372  3.7100000000000D+00  0.0000000000000D+00  0.0000000000000D+00
373  3.7200000000000D+00  0.0000000000000D+00  0.0000000000000D+00
374  3.7300000000000D+00  0.0000000000000D+00  0.0000000000000D+00
375  3.7400000000000D+00  0.0000000000000D+00  0.0000000000000D+00
376  3.7500000000000D+00  0.0000000000000D+00  0.0000000000000D+00
377  3.7600000000000D+00  0.0000000000000D+00  0.0000000000000D+00
378  3.7700000000000D+00  0.0000000000000D+00  0.0000000000000D+00
379  3.7800000000000D+00  0.0000000000000D+00  0.0000000000000D+00
380  3.7900000000000D+00  0.0000000000000D+00  0.0000000000000D+00
381  3.8000000000000D+00  0.0000000000000D+00  0.0000000000000D+00
382  3.8100000000000D+00  0.0000000000000D+00  0.0000000000000D+00
383  3.8200000000000D+00  0.0000000000000D+00  0.0000000000000D+00
384  3.8300000000000D+00  0.0000000000000D+00  0.0000000000000D+00
385  3.8400000000000D+00  0.0000000000000D+00  0.0000000000000D+00
386  3.8500000000000D+00  0.0000000000000D+00  0.0000000000000D+00
387  3.8600000000000D+00  0.0000000000000D+00  0.0000000000000D+00
388  3.8700000000000D+00  0.0000000000000D+00  0.0000000000000D+00
389  3.8800000000000D+00  0.0000000000000D+00  0.0000000000000D+00
390  3.8900000000000D+00  0.0000000000000D+00  0.0000000000000D+00
391  3.9000000000000D+00  0.0000000000000D+00  0.0000000000000D+00
392  3.9100000000000D+00  0.0000000000000D+00  0.0000000000000D+00
393  3.9200000000000D+00  0.0000000000000D+00  0.0000000000000D+00
394  3.9300000000000D+00  0.0000000000000D+00  0.0000000000000D+00
395  3.9400000000000D+00  0.0000000000000D+00  0.0000000000000D+00
396  3.9500000000000D+00  0.0000000000000D+00  0.0000000000000D+00
397  3.9600000000000D+00  0.0000000000000D+00  0.0000000000000D+00
398  3.9700000000000D+00  0.0000000000000D+00  0.0000000000000D+00
399  3.9800000000000D+00  0.0000000000000D+00  0.0000000000000D+00
400  3.9900000000000D+00  0.0000000000000D+00  0.0000000000000D+00
401  4.0000000000000D+00  0.0000000000000D+00  0.0000000000000D+00
402  4.0100000000000D+00  0.0000000000000D+00  0.0000000000000D+00
403  4.0200000000000D+00  0.0000000000000D+00  0.0000000000000D+00
404  4.0300000000000D+00  0.0000000000000D+00  0.0000000000000D+00
405  4.0400000000000D+00  0.0000000000000D+00  0.0000000000000D+00
406  4.0500000000000D+00  0.0000000000000D+00  0.0000000000000D+00
407  4.0600000000000D+00  0.0000000000000D+00  0.0000000000000D+00
408  4.0700000000000D+00  0.0000000000000D+00  0.0000000000000D+00
409  4.0800000000000D+00  0.0000000000000D+00  0.0000000000000D+00
410  4.0900000000000D+00  0.0000000000000D+00  0.0000000000000D+00
411  4.1000000000000D+00  0.0000000000000D+00  0.0000000000000D+00
412  4.1100000000000D+00  0.0000000000000D+00  0.0000000000000D+00
413  4.1200000000000D+00  0.0000000000000D+00  0.0000000000000D+00
414  4.1300000000000D+00  0.0000000000000D+00  0.0000000000000D+00
415  4.1400000000000D+00  0.0000000000000D+00  0.0000000000000D+00
416  4.1500000000000D+00  0.0000000000000D+00  0.0000000000000D+00
417  4.1600000000000D+00  0.0000000000000D+00  0.0000000000000D+00
418  4.1700000000000D+00  0.0000000000000D+00  0.0000000000000D+00
419  4.1800000000000D+00  0.0000000000000D+00  0.0000000000000D+00
420  4.1900000000000D+00  0.0000000000000D+00  0.0000000000000D+00
421  4.2000000000000D+00  0.0000000000000D+00  0.0000000000000D+00
422  4.2100000000000D+00  0.0000000000000D+00  0.0000000000000D+00
423  4.2200000000000D+00  0.0000000000000D+00  0.0000000000000D+00
424  4.2300000000000D+00  0.0000000000000D+00  0.0000000000000D+00
425  4.2400000000000D+00  0.0000000000000D+00  0.0000000000000D+00
426  4.2500000000000D+00  0.0000000000000D+00  0.0000000000000D+00
427  4.2600000000000D+00  0.0000000000000D+00  0.0000000000000D+00
428  4.2700000000000D+00  0.0000000000000D+00  0.0000000000000D+00
429  4.2800000000000D+00  0.0000000000000D+00  0.0000000000000D+00
430  4.2900000000000D+00  0.0000000000000D+00  0.0000000000000D+00
431  4.3000000000000D+00  0.0000000000000D+00  0.0000000000000D+00
432  4.3100000000000D+00  0.0000000000000D+00  0.0000000000000D+00
433  4.3200000000000D+00  0.0000000000000D+00  0.0000000000000D+00
434  4.3300000000000D+00  0.0000000000000D+00  0.0000000000000D+00
435  4.3400000000000D+00  0.0000000000000D+00  0.0000000000000D+00
436  4.3500000000000D+00  0.0000000000000D+00  0.0000000000000D+00
437  4.3600000000000D+00  0.0000000000000D+00  0.0000000000000D+00
438  4.3700000000000D+00  0.0000000000000D+00  0.0000000000000D+00
439  4.3800000000000D+00  0.0000000000000D+00  0.0000000000000D+00
440  4.3900000000000D+00  0.0000000000000D+00  0.0000000000000D+00
441  4.4000000000000D+00  0.0000000000000D+00  0.0000000000000D+00
442  4.4100000000000D+00  0.0000000000000D+00  0.0000000000000D+00
443  4.4200000000000D+00  0.0000000000000D+00  0.0000000000000D+00