Rh    ONCVPSP-3.2.3  r_core=   1.40787   1.40787   1.35838
45.0000     17.0000      170222    zatom,zion,pspd
8      11   2     4   600     0    pspcod,pspxc,lmax,lloc,mmax,r2well
5.99000000  7.00000000  0.00000000    rchrg fchrg qchrg
2     4     4     0    nproj
3     1           extension_switch
4     4     0    nprojso
0                         1.5065169668025D+00  1.6324605854877D+01
1  0.0000000000000D+00 -3.9531172779661D-10  1.7281220898724D-10
2  1.0000000000000D-02 -3.6606770764403D-02  7.9192352952846D-02
3  2.0000000000000D-02 -7.3045891110104D-02  1.5821587553314D-01
4  3.0000000000000D-02 -1.0914983976981D-01  2.3690195731476D-01
5  4.0000000000000D-02 -1.4475136016053D-01  3.1508243035347D-01
6  5.0000000000000D-02 -1.7968360857774D-01  3.9258979685600D-01
7  6.0000000000000D-02 -2.1378032112822D-01  4.6925746443899D-01
8  7.0000000000000D-02 -2.4687600517885D-01  5.4491999130240D-01
9  8.0000000000000D-02 -2.7880616070308D-01  6.1941334346968D-01
10  9.0000000000000D-02 -3.0940753642223D-01  6.9257516603451D-01
11  1.0000000000000D-01 -3.3851842506886D-01  7.6424507010497D-01
12  1.1000000000000D-01 -3.6597900145276D-01  8.3426493685306D-01
13  1.2000000000000D-01 -3.9163170629279D-01  9.0247923976373D-01
14  1.3000000000000D-01 -4.1532167799950D-01  9.6873538583689D-01
15  1.4000000000000D-01 -4.3689723376281D-01  1.0328840761322D+00
16  1.5000000000000D-01 -4.5621040042587D-01  1.0947796856646D+00
17  1.6000000000000D-01 -4.7311749472206D-01  1.1542806622618D+00
18  1.7000000000000D-01 -4.8747975152637D-01  1.2112499435901D+00
19  1.8000000000000D-01 -4.9916399783811D-01  1.2655553911446D+00
20  1.9000000000000D-01 -5.0804336927938D-01  1.3170702395916D+00
21  2.0000000000000D-01 -5.1399806497503D-01  1.3656735594474D+00
22  2.1000000000000D-01 -5.1691613578724D-01  1.4112507306854D+00
23  2.2000000000000D-01 -5.1669430002138D-01  1.4536939244884D+00
24  2.3000000000000D-01 -5.1323877991268D-01  1.4929025900052D+00
25  2.4000000000000D-01 -5.0646615145413D-01  1.5287839426440D+00
26  2.5000000000000D-01 -4.9630419944722D-01  1.5612534501327D+00
27  2.6000000000000D-01 -4.8269276905680D-01  1.5902353123133D+00
28  2.7000000000000D-01 -4.6558460463948D-01  1.6156629304076D+00
29  2.8000000000000D-01 -4.4494616619864D-01  1.6374793613109D+00
30  2.9000000000000D-01 -4.2075841350681D-01  1.6556377523248D+00
31  3.0000000000000D-01 -3.9301754773236D-01  1.6701017516534D+00
32  3.1000000000000D-01 -3.6173570031844D-01  1.6808458899403D+00
33  3.2000000000000D-01 -3.2694155889103D-01  1.6878559281363D+00
34  3.3000000000000D-01 -2.8868092012257D-01  1.6911291670487D+00
35  3.4000000000000D-01 -2.4701715974880D-01  1.6906747140388D+00
36  3.5000000000000D-01 -2.0203161033031D-01  1.6865137025042D+00
37  3.6000000000000D-01 -1.5382383786339D-01  1.6786794600056D+00
38  3.7000000000000D-01 -1.0251180897652D-01  1.6672176211702D+00
39  3.8000000000000D-01 -4.8231941194092D-02  1.6521861818320D+00
40  3.9000000000000D-01  8.8609703982390D-03  1.6336554912402D+00
41  4.0000000000000D-01  6.8593955796730D-02  1.6117081795858D+00
42  4.1000000000000D-01  1.3077620669345D-01  1.5864390185581D+00
43  4.2000000000000D-01  1.9519955058895D-01  1.5579547131411D+00
44  4.3000000000000D-01  2.6163906472536D-01  1.5263736233922D+00
45  4.4000000000000D-01  3.2985383088890D-01  1.4918254155095D+00
46  4.5000000000000D-01  3.9958783080987D-01  1.4544506420783D+00
47  4.6000000000000D-01  4.7057098052589D-01  1.4144002519939D+00
48  4.7000000000000D-01  5.4252030068928D-01  1.3718350311756D+00
49  4.8000000000000D-01  6.1514121840163D-01  1.3269249758123D+00
50  4.9000000000000D-01  6.8812899476506D-01  1.2798486005042D+00
51  5.0000000000000D-01  7.6117027096444D-01  1.2307921842880D+00
52  5.1000000000000D-01  8.3394472435149D-01  1.1799489581401D+00
53  5.2000000000000D-01  9.0612682470620D-01  1.1275182381428D+00
54  5.3000000000000D-01  9.7738767961776D-01  1.0737045090652D+00
55  5.4000000000000D-01  1.0473969567701D+00  1.0187164636453D+00
56  5.5000000000000D-01  1.1158248698482D+00  9.6276600336013D-01
57  5.6000000000000D-01  1.1823442138182D+00  9.0606720692449D-01
58  5.7000000000000D-01  1.2466324344814D+00  8.4883527317363D-01
59  5.8000000000000D-01  1.3083737164812D+00  7.9128544533672D-01
60  5.9000000000000D-01  1.3672610733494D+00  7.3363192401224D-01
61  6.0000000000000D-01  1.4229984227395D+00  6.7608677639388D-01
62  6.1000000000000D-01  1.4753026296979D+00  6.1885884947135D-01
63  6.2000000000000D-01  1.5239055006963D+00  5.6215269503863D-01
64  6.3000000000000D-01  1.5685557111748D+00  5.0616751438051D-01
65  6.4000000000000D-01  1.6090206495442D+00  4.5109613047677D-01
66  6.5000000000000D-01  1.6450881609559D+00  3.9712399545890D-01
67  6.6000000000000D-01  1.6765681746837D+00  3.4442824087891D-01
68  6.7000000000000D-01  1.7032941996491D+00  2.9317677810275D-01
69  6.8000000000000D-01  1.7251246734862D+00  2.4352745582401D-01
70  6.9000000000000D-01  1.7419441515465D+00  1.9562728130816D-01
71  7.0000000000000D-01  1.7536643234103D+00  1.4961171152696D-01
72  7.1000000000000D-01  1.7602248457623D+00  1.0560401983305D-01
73  7.2000000000000D-01  1.7615939819239D+00  6.3714743251449D-02
74  7.3000000000000D-01  1.7577690398765D+00  2.4041214844526D-02
75  7.4000000000000D-01  1.7487766022563D+00 -1.3332815064363D-02
76  7.5000000000000D-01  1.7346725435412D+00 -4.8337465735972D-02
77  7.6000000000000D-01  1.7155418314571D+00 -8.0916918602526D-02
78  7.7000000000000D-01  1.6914981114964D+00 -1.1102951404824D-01
79  7.8000000000000D-01  1.6626830753512D+00 -1.3864775163159D-01
80  7.9000000000000D-01  1.6292656159811D+00 -1.6375819380847D-01
81  8.0000000000000D-01  1.5914407739658D+00 -1.8636127403339D-01
82  8.1000000000000D-01  1.5494284816993D+00 -2.0647101093163D-01
83  8.2000000000000D-01  1.5034721138535D+00 -2.2411463104153D-01
84  8.3000000000000D-01  1.4538368543546D+00 -2.3933210341420D-01
85  8.4000000000000D-01  1.4008078918524D+00 -2.5217559012135D-01
86  8.5000000000000D-01  1.3446884573135D+00 -2.6270881745108D-01
87  8.6000000000000D-01  1.2857977188981D+00 -2.7100637326095D-01
88  8.7000000000000D-01  1.2244685506927D+00 -2.7715293659839D-01
89  8.8000000000000D-01  1.1610451931276D+00 -2.8124244628544D-01
90  8.9000000000000D-01  1.0958808240192D+00 -2.8337721569041D-01
91  9.0000000000000D-01  1.0293350601019D+00 -2.8366700136862D-01
92  9.1000000000000D-01  9.6177140967148D-01 -2.8222803364209D-01
93  9.2000000000000D-01  8.9355469751336D-01 -2.7918201750009D-01
94  9.3000000000000D-01  8.2504848364689D-01 -2.7465511243470D-01
95  9.4000000000000D-01  7.5661249756533D-01 -2.6877689997557D-01
96  9.5000000000000D-01  6.8860010958883D-01 -2.6167934775327D-01
97  9.6000000000000D-01  6.2135586067455D-01 -2.5349577890100D-01
98  9.7000000000000D-01  5.5521307152861D-01 -2.4435985549409D-01
99  9.8000000000000D-01  4.9049155119004D-01 -2.3440458454154D-01
100  9.9000000000000D-01  4.2749542433000D-01 -2.2376135476114D-01
101  1.0000000000000D+00  3.6651109541687D-01 -2.1255901201320D-01
102  1.0100000000000D+00  3.0780536660471D-01 -2.0092298083097D-01
103  1.0200000000000D+00  2.5162372473025D-01 -1.8897443897350D-01
104  1.0300000000000D+00  1.9818881117113D-01 -1.7682955134595D-01
105  1.0400000000000D+00  1.4769908646744D-01 -1.6459876896252D-01
106  1.0500000000000D+00  1.0032769984875D-01 -1.5238619798284D-01
107  1.0600000000000D+00  5.6221571546497D-02 -1.4028904301369D-01
108  1.0700000000000D+00  1.5500693787369D-02 -1.2839712812350D-01
109  1.0800000000000D+00 -2.1742345892843D-02 -1.1679249816571D-01
110  1.0900000000000D+00 -5.5442617792023D-02 -1.0554910208452D-01
111  1.1000000000000D+00 -8.5562880334985D-02 -9.4732559143063D-02
112  1.1100000000000D+00 -1.1209339104565D-01 -8.4400007918180D-02
113  1.1200000000000D+00 -1.3505150364608D-01 -7.4600037158166D-02
114  1.1300000000000D+00 -1.5448105928989D-01 -6.5372696596602D-02
115  1.1400000000000D+00 -1.7045158177822D-01 -5.6749585090157D-02
116  1.1500000000000D+00 -1.8305728912035D-01 -4.8754012450598D-02
117  1.1600000000000D+00 -1.9241593565248D-01 -4.1401230598059D-02
118  1.1700000000000D+00 -1.9866750099655D-01 -3.4698728824608D-02
119  1.1800000000000D+00 -2.0197274343907D-01 -2.8646587431124D-02
120  1.1900000000000D+00 -2.0251163756729D-01 -2.3237883070376D-02
121  1.2000000000000D+00 -2.0048171704619D-01 -1.8459138683852D-02
122  1.2100000000000D+00 -1.9609634465939D-01 -1.4290810389603D-02
123  1.2200000000000D+00 -1.8958293276866D-01 -1.0707803237778D-02
124  1.2300000000000D+00 -1.8118113839918D-01 -7.6800072663754D-03
125  1.2400000000000D+00 -1.7114105738629D-01 -5.1728451428602D-03
126  1.2500000000000D+00 -1.5972144254168D-01 -3.1478224542403D-03
127  1.2600000000000D+00 -1.4718797106096D-01 -1.5630714852242D-03
128  1.2700000000000D+00 -1.3381159750373D-01 -3.7387659342325D-04
129  1.2800000000000D+00 -1.1986693982500D-01  4.6680863036130D-04
130  1.2900000000000D+00 -1.0563101365221D-01  1.0079342211110D-03
131  1.3000000000000D+00 -9.1381166422965D-02  1.2997305265265D-03
132  1.3100000000000D+00 -7.7396257436966D-02  1.3939084255827D-03
133  1.3200000000000D+00 -6.3951673231092D-02  1.3423254862129D-03
134  1.3300000000000D+00 -5.1308789082188D-02  1.1942801297014D-03
135  1.3400000000000D+00 -3.9704172941614D-02  9.9364636961223D-04
136  1.3500000000000D+00 -2.9342052155116D-02  7.7681368893715D-04
137  1.3600000000000D+00 -2.0396550092411D-02  5.7271265169395D-04
138  1.3700000000000D+00 -1.3006351059424D-02  4.0201447569672D-04
139  1.3800000000000D+00 -7.2327893678874D-03  2.7378242440773D-04
140  1.3900000000000D+00 -3.2424690228298D-03  1.9851934504351D-04
141  1.4000000000000D+00 -1.1585286578412D-03  1.8086953040036D-04
142  1.4100000000000D+00 -3.4304649156791D-04  1.4150038800142D-04
143  1.4200000000000D+00 -4.9647428147233D-05  4.1386860569455D-05
144  1.4300000000000D+00  1.1778909857331D-05 -1.5336444530539D-05
145  1.4400000000000D+00  2.0340911286986D-06 -4.3809127759171D-06
146  1.4500000000000D+00 -4.1303240464180D-06  3.6909637934094D-06
147  1.4600000000000D+00  2.3260354519963D-07 -7.9897038576985D-08
148  1.4700000000000D+00  1.1819051214784D-06 -4.0597282816155D-07
149  1.4800000000000D+00  0.0000000000000D+00  0.0000000000000D+00
150  1.4900000000000D+00  0.0000000000000D+00  0.0000000000000D+00
151  1.5000000000000D+00  0.0000000000000D+00  0.0000000000000D+00
152  1.5100000000000D+00  0.0000000000000D+00  0.0000000000000D+00
153  1.5200000000000D+00  0.0000000000000D+00  0.0000000000000D+00
154  1.5300000000000D+00  0.0000000000000D+00  0.0000000000000D+00
155  1.5400000000000D+00  0.0000000000000D+00  0.0000000000000D+00
156  1.5500000000000D+00  0.0000000000000D+00  0.0000000000000D+00
157  1.5600000000000D+00  0.0000000000000D+00  0.0000000000000D+00
158  1.5700000000000D+00  0.0000000000000D+00  0.0000000000000D+00
159  1.5800000000000D+00  0.0000000000000D+00  0.0000000000000D+00
160  1.5900000000000D+00  0.0000000000000D+00  0.0000000000000D+00
161  1.6000000000000D+00  0.0000000000000D+00  0.0000000000000D+00
162  1.6100000000000D+00  0.0000000000000D+00  0.0000000000000D+00
163  1.6200000000000D+00  0.0000000000000D+00  0.0000000000000D+00
164  1.6300000000000D+00  0.0000000000000D+00  0.0000000000000D+00
165  1.6400000000000D+00  0.0000000000000D+00  0.0000000000000D+00
166  1.6500000000000D+00  0.0000000000000D+00  0.0000000000000D+00
167  1.6600000000000D+00  0.0000000000000D+00  0.0000000000000D+00
168  1.6700000000000D+00  0.0000000000000D+00  0.0000000000000D+00
169  1.6800000000000D+00  0.0000000000000D+00  0.0000000000000D+00
170  1.6900000000000D+00  0.0000000000000D+00  0.0000000000000D+00
171  1.7000000000000D+00  0.0000000000000D+00  0.0000000000000D+00
172  1.7100000000000D+00  0.0000000000000D+00  0.0000000000000D+00
173  1.7200000000000D+00  0.0000000000000D+00  0.0000000000000D+00
174  1.7300000000000D+00  0.0000000000000D+00  0.0000000000000D+00
175  1.7400000000000D+00  0.0000000000000D+00  0.0000000000000D+00
176  1.7500000000000D+00  0.0000000000000D+00  0.0000000000000D+00
177  1.7600000000000D+00  0.0000000000000D+00  0.0000000000000D+00
178  1.7700000000000D+00  0.0000000000000D+00  0.0000000000000D+00
179  1.7800000000000D+00  0.0000000000000D+00  0.0000000000000D+00
180  1.7900000000000D+00  0.0000000000000D+00  0.0000000000000D+00
181  1.8000000000000D+00  0.0000000000000D+00  0.0000000000000D+00
182  1.8100000000000D+00  0.0000000000000D+00  0.0000000000000D+00
183  1.8200000000000D+00  0.0000000000000D+00  0.0000000000000D+00
184  1.8300000000000D+00  0.0000000000000D+00  0.0000000000000D+00
185  1.8400000000000D+00  0.0000000000000D+00  0.0000000000000D+00
186  1.8500000000000D+00  0.0000000000000D+00  0.0000000000000D+00
187  1.8600000000000D+00  0.0000000000000D+00  0.0000000000000D+00
188  1.8700000000000D+00  0.0000000000000D+00  0.0000000000000D+00
189  1.8800000000000D+00  0.0000000000000D+00  0.0000000000000D+00
190  1.8900000000000D+00  0.0000000000000D+00  0.0000000000000D+00
191  1.9000000000000D+00  0.0000000000000D+00  0.0000000000000D+00
192  1.9100000000000D+00  0.0000000000000D+00  0.0000000000000D+00
193  1.9200000000000D+00  0.0000000000000D+00  0.0000000000000D+00
194  1.9300000000000D+00  0.0000000000000D+00  0.0000000000000D+00
195  1.9400000000000D+00  0.0000000000000D+00  0.0000000000000D+00
196  1.9500000000000D+00  0.0000000000000D+00  0.0000000000000D+00
197  1.9600000000000D+00  0.0000000000000D+00  0.0000000000000D+00
198  1.9700000000000D+00  0.0000000000000D+00  0.0000000000000D+00
199  1.9800000000000D+00  0.0000000000000D+00  0.0000000000000D+00
200  1.9900000000000D+00  0.0000000000000D+00  0.0000000000000D+00
201  2.0000000000000D+00  0.0000000000000D+00  0.0000000000000D+00
202  2.0100000000000D+00  0.0000000000000D+00  0.0000000000000D+00
203  2.0200000000000D+00  0.0000000000000D+00  0.0000000000000D+00
204  2.0300000000000D+00  0.0000000000000D+00  0.0000000000000D+00
205  2.0400000000000D+00  0.0000000000000D+00  0.0000000000000D+00
206  2.0500000000000D+00  0.0000000000000D+00  0.0000000000000D+00
207  2.0600000000000D+00  0.0000000000000D+00  0.0000000000000D+00
208  2.0700000000000D+00  0.0000000000000D+00  0.0000000000000D+00
209  2.0800000000000D+00  0.0000000000000D+00  0.0000000000000D+00
210  2.0900000000000D+00  0.0000000000000D+00  0.0000000000000D+00
211  2.1000000000000D+00  0.0000000000000D+00  0.0000000000000D+00
212  2.1100000000000D+00  0.0000000000000D+00  0.0000000000000D+00
213  2.1200000000000D+00  0.0000000000000D+00  0.0000000000000D+00
214  2.1300000000000D+00  0.0000000000000D+00  0.0000000000000D+00
215  2.1400000000000D+00  0.0000000000000D+00  0.0000000000000D+00
216  2.1500000000000D+00  0.0000000000000D+00  0.0000000000000D+00
217  2.1600000000000D+00  0.0000000000000D+00  0.0000000000000D+00
218  2.1700000000000D+00  0.0000000000000D+00  0.0000000000000D+00
219  2.1800000000000D+00  0.0000000000000D+00  0.0000000000000D+00
220  2.1900000000000D+00  0.0000000000000D+00  0.0000000000000D+00
221  2.2000000000000D+00  0.0000000000000D+00  0.0000000000000D+00
222  2.2100000000000D+00  0.0000000000000D+00  0.0000000000000D+00
223  2.2200000000000D+00  0.0000000000000D+00  0.0000000000000D+00
224  2.2300000000000D+00  0.0000000000000D+00  0.0000000000000D+00
225  2.2400000000000D+00  0.0000000000000D+00  0.0000000000000D+00
226  2.2500000000000D+00  0.0000000000000D+00  0.0000000000000D+00
227  2.2600000000000D+00  0.0000000000000D+00  0.0000000000000D+00
228  2.2700000000000D+00  0.0000000000000D+00  0.0000000000000D+00
229  2.2800000000000D+00  0.0000000000000D+00  0.0000000000000D+00
230  2.2900000000000D+00  0.0000000000000D+00  0.0000000000000D+00
231  2.3000000000000D+00  0.0000000000000D+00  0.0000000000000D+00
232  2.3100000000000D+00  0.0000000000000D+00  0.0000000000000D+00
233  2.3200000000000D+00  0.0000000000000D+00  0.0000000000000D+00
234  2.3300000000000D+00  0.0000000000000D+00  0.0000000000000D+00
235  2.3400000000000D+00  0.0000000000000D+00  0.0000000000000D+00
236  2.3500000000000D+00  0.0000000000000D+00  0.0000000000000D+00
237  2.3600000000000D+00  0.0000000000000D+00  0.0000000000000D+00
238  2.3700000000000D+00  0.0000000000000D+00  0.0000000000000D+00
239  2.3800000000000D+00  0.0000000000000D+00  0.0000000000000D+00
240  2.3900000000000D+00  0.0000000000000D+00  0.0000000000000D+00
241  2.4000000000000D+00  0.0000000000000D+00  0.0000000000000D+00
242  2.4100000000000D+00  0.0000000000000D+00  0.0000000000000D+00
243  2.4200000000000D+00  0.0000000000000D+00  0.0000000000000D+00
244  2.4300000000000D+00  0.0000000000000D+00  0.0000000000000D+00
245  2.4400000000000D+00  0.0000000000000D+00  0.0000000000000D+00
246  2.4500000000000D+00  0.0000000000000D+00  0.0000000000000D+00
247  2.4600000000000D+00  0.0000000000000D+00  0.0000000000000D+00
248  2.4700000000000D+00  0.0000000000000D+00  0.0000000000000D+00
249  2.4800000000000D+00  0.0000000000000D+00  0.0000000000000D+00
250  2.4900000000000D+00  0.0000000000000D+00  0.0000000000000D+00
251  2.5000000000000D+00  0.0000000000000D+00  0.0000000000000D+00
252  2.5100000000000D+00  0.0000000000000D+00  0.0000000000000D+00
253  2.5200000000000D+00  0.0000000000000D+00  0.0000000000000D+00
254  2.5300000000000D+00  0.0000000000000D+00  0.0000000000000D+00
255  2.5400000000000D+00  0.0000000000000D+00  0.0000000000000D+00
256  2.5500000000000D+00  0.0000000000000D+00  0.0000000000000D+00
257  2.5600000000000D+00  0.0000000000000D+00  0.0000000000000D+00
258  2.5700000000000D+00  0.0000000000000D+00  0.0000000000000D+00
259  2.5800000000000D+00  0.0000000000000D+00  0.0000000000000D+00
260  2.5900000000000D+00  0.0000000000000D+00  0.0000000000000D+00
261  2.6000000000000D+00  0.0000000000000D+00  0.0000000000000D+00
262  2.6100000000000D+00  0.0000000000000D+00  0.0000000000000D+00
263  2.6200000000000D+00  0.0000000000000D+00  0.0000000000000D+00
264  2.6300000000000D+00  0.0000000000000D+00  0.0000000000000D+00
265  2.6400000000000D+00  0.0000000000000D+00  0.0000000000000D+00
266  2.6500000000000D+00  0.0000000000000D+00  0.0000000000000D+00
267  2.6600000000000D+00  0.0000000000000D+00  0.0000000000000D+00
268  2.6700000000000D+00  0.0000000000000D+00  0.0000000000000D+00
269  2.6800000000000D+00  0.0000000000000D+00  0.0000000000000D+00
270  2.6900000000000D+00  0.0000000000000D+00  0.0000000000000D+00
271  2.7000000000000D+00  0.0000000000000D+00  0.0000000000000D+00
272  2.7100000000000D+00  0.0000000000000D+00  0.0000000000000D+00
273  2.7200000000000D+00  0.0000000000000D+00  0.0000000000000D+00
274  2.7300000000000D+00  0.0000000000000D+00  0.0000000000000D+00
275  2.7400000000000D+00  0.0000000000000D+00  0.0000000000000D+00
276  2.7500000000000D+00  0.0000000000000D+00  0.0000000000000D+00
277  2.7600000000000D+00  0.0000000000000D+00  0.0000000000000D+00
278  2.7700000000000D+00  0.0000000000000D+00  0.0000000000000D+00
279  2.7800000000000D+00  0.0000000000000D+00  0.0000000000000D+00
280  2.7900000000000D+00  0.0000000000000D+00  0.0000000000000D+00
281  2.8000000000000D+00  0.0000000000000D+00  0.0000000000000D+00
282  2.8100000000000D+00  0.0000000000000D+00  0.0000000000000D+00
283  2.8200000000000D+00  0.0000000000000D+00  0.0000000000000D+00
284  2.8300000000000D+00  0.0000000000000D+00  0.0000000000000D+00
285  2.8400000000000D+00  0.0000000000000D+00  0.0000000000000D+00
286  2.8500000000000D+00  0.0000000000000D+00  0.0000000000000D+00
287  2.8600000000000D+00  0.0000000000000D+00  0.0000000000000D+00
288  2.8700000000000D+00  0.0000000000000D+00  0.0000000000000D+00
289  2.8800000000000D+00  0.0000000000000D+00  0.0000000000000D+00
290  2.8900000000000D+00  0.0000000000000D+00  0.0000000000000D+00
291  2.9000000000000D+00  0.0000000000000D+00  0.0000000000000D+00
292  2.9100000000000D+00  0.0000000000000D+00  0.0000000000000D+00
293  2.9200000000000D+00  0.0000000000000D+00  0.0000000000000D+00
294  2.9300000000000D+00  0.0000000000000D+00  0.0000000000000D+00
295  2.9400000000000D+00  0.0000000000000D+00  0.0000000000000D+00
296  2.9500000000000D+00  0.0000000000000D+00  0.0000000000000D+00
297  2.9600000000000D+00  0.0000000000000D+00  0.0000000000000D+00
298  2.9700000000000D+00  0.0000000000000D+00  0.0000000000000D+00
299  2.9800000000000D+00  0.0000000000000D+00  0.0000000000000D+00
300  2.9900000000000D+00  0.0000000000000D+00  0.0000000000000D+00
301  3.0000000000000D+00  0.0000000000000D+00  0.0000000000000D+00
302  3.0100000000000D+00  0.0000000000000D+00  0.0000000000000D+00
303  3.0200000000000D+00  0.0000000000000D+00  0.0000000000000D+00
304  3.0300000000000D+00  0.0000000000000D+00  0.0000000000000D+00
305  3.0400000000000D+00  0.0000000000000D+00  0.0000000000000D+00
306  3.0500000000000D+00  0.0000000000000D+00  0.0000000000000D+00
307  3.0600000000000D+00  0.0000000000000D+00  0.0000000000000D+00
308  3.0700000000000D+00  0.0000000000000D+00  0.0000000000000D+00
309  3.0800000000000D+00  0.0000000000000D+00  0.0000000000000D+00
310  3.0900000000000D+00  0.0000000000000D+00  0.0000000000000D+00
311  3.1000000000000D+00  0.0000000000000D+00  0.0000000000000D+00
312  3.1100000000000D+00  0.0000000000000D+00  0.0000000000000D+00
313  3.1200000000000D+00  0.0000000000000D+00  0.0000000000000D+00
314  3.1300000000000D+00  0.0000000000000D+00  0.0000000000000D+00
315  3.1400000000000D+00  0.0000000000000D+00  0.0000000000000D+00
316  3.1500000000000D+00  0.0000000000000D+00  0.0000000000000D+00
317  3.1600000000000D+00  0.0000000000000D+00  0.0000000000000D+00
318  3.1700000000000D+00  0.0000000000000D+00  0.0000000000000D+00
319  3.1800000000000D+00  0.0000000000000D+00  0.0000000000000D+00
320  3.1900000000000D+00  0.0000000000000D+00  0.0000000000000D+00
321  3.2000000000000D+00  0.0000000000000D+00  0.0000000000000D+00
322  3.2100000000000D+00  0.0000000000000D+00  0.0000000000000D+00
323  3.2200000000000D+00  0.0000000000000D+00  0.0000000000000D+00
324  3.2300000000000D+00  0.0000000000000D+00  0.0000000000000D+00
325  3.2400000000000D+00  0.0000000000000D+00  0.0000000000000D+00
326  3.2500000000000D+00  0.0000000000000D+00  0.0000000000000D+00
327  3.2600000000000D+00  0.0000000000000D+00  0.0000000000000D+00
328  3.2700000000000D+00  0.0000000000000D+00  0.0000000000000D+00
329  3.2800000000000D+00  0.0000000000000D+00  0.0000000000000D+00
330  3.2900000000000D+00  0.0000000000000D+00  0.0000000000000D+00
331  3.3000000000000D+00  0.0000000000000D+00  0.0000000000000D+00
332  3.3100000000000D+00  0.0000000000000D+00  0.0000000000000D+00
333  3.3200000000000D+00  0.0000000000000D+00  0.0000000000000D+00
334  3.3300000000000D+00  0.0000000000000D+00  0.0000000000000D+00
335  3.3400000000000D+00  0.0000000000000D+00  0.0000000000000D+00
336  3.3500000000000D+00  0.0000000000000D+00  0.0000000000000D+00
337  3.3600000000000D+00  0.0000000000000D+00  0.0000000000000D+00
338  3.3700000000000D+00  0.0000000000000D+00  0.0000000000000D+00
339  3.3800000000000D+00  0.0000000000000D+00  0.0000000000000D+00
340  3.3900000000000D+00  0.0000000000000D+00  0.0000000000000D+00
341  3.4000000000000D+00  0.0000000000000D+00  0.0000000000000D+00
342  3.4100000000000D+00  0.0000000000000D+00  0.0000000000000D+00
343  3.4200000000000D+00  0.0000000000000D+00  0.0000000000000D+00
344  3.4300000000000D+00  0.0000000000000D+00  0.0000000000000D+00
345  3.4400000000000D+00  0.0000000000000D+00  0.0000000000000D+00
346  3.4500000000000D+00  0.0000000000000D+00  0.0000000000000D+00
347  3.4600000000000D+00  0.0000000000000D+00  0.0000000000000D+00
348  3.4700000000000D+00  0.0000000000000D+00  0.0000000000000D+00
349  3.4800000000000D+00  0.0000000000000D+00  0.0000000000000D+00
350  3.4900000000000D+00  0.0000000000000D+00  0.0000000000000D+00
351  3.5000000000000D+00  0.0000000000000D+00  0.0000000000000D+00
352  3.5100000000000D+00  0.0000000000000D+00  0.0000000000000D+00
353  3.5200000000000D+00  0.0000000000000D+00  0.0000000000000D+00
354  3.5300000000000D+00  0.0000000000000D+00  0.0000000000000D+00
355  3.5400000000000D+00  0.0000000000000D+00  0.0000000000000D+00
356  3.5500000000000D+00  0.0000000000000D+00  0.0000000000000D+00
357  3.5600000000000D+00  0.0000000000000D+00  0.0000000000000D+00
358  3.5700000000000D+00  0.0000000000000D+00  0.0000000000000D+00
359  3.5800000000000D+00  0.0000000000000D+00  0.0000000000000D+00
360  3.5900000000000D+00  0.0000000000000D+00  0.0000000000000D+00
361  3.6000000000000D+00  0.0000000000000D+00  0.0000000000000D+00
362  3.6100000000000D+00  0.0000000000000D+00  0.0000000000000D+00
363  3.6200000000000D+00  0.0000000000000D+00  0.0000000000000D+00
364  3.6300000000000D+00  0.0000000000000D+00  0.0000000000000D+00
365  3.6400000000000D+00  0.0000000000000D+00  0.0000000000000D+00
366  3.6500000000000D+00  0.0000000000000D+00  0.0000000000000D+00
367  3.6600000000000D+00  0.0000000000000D+00  0.0000000000000D+00
368  3.6700000000000D+00  0.0000000000000D+00  0.0000000000000D+00
369  3.6800000000000D+00  0.0000000000000D+00  0.0000000000000D+00
370  3.6900000000000D+00  0.0000000000000D+00  0.0000000000000D+00
371  3.7000000000000D+00  0.0000000000000D+00  0.0000000000000D+00
372  3.7100000000000D+00  0.0000000000000D+00  0.0000000000000D+00
373  3.7200000000000D+00  0.0000000000000D+00  0.0000000000000D+00
374  3.7300000000000D+00  0.0000000000000D+00  0.0000000000000D+00
375  3.7400000000000D+00  0.0000000000000D+00  0.0000000000000D+00
376  3.7500000000000D+00  0.0000000000000D+00  0.0000000000000D+00
377  3.7600000000000D+00  0.0000000000000D+00  0.0000000000000D+00
378  3.7700000000000D+00  0.0000000000000D+00  0.0000000000000D+00
379  3.7800000000000D+00  0.0000000000000D+00  0.0000000000000D+00
380  3.7900000000000D+00  0.0000000000000D+00  0.0000000000000D+00
381  3.8000000000000D+00  0.0000000000000D+00  0.0000000000000D+00
382  3.8100000000000D+00  0.0000000000000D+00  0.0000000000000D+00
383  3.8200000000000D+00  0.0000000000000D+00  0.0000000000000D+00
384  3.8300000000000D+00  0.0000000000000D+00  0.0000000000000D+00
385  3.8400000000000D+00  0.0000000000000D+00  0.0000000000000D+00
386  3.8500000000000D+00  0.0000000000000D+00  0.0000000000000D+00
387  3.8600000000000D+00  0.0000000000000D+00  0.0000000000000D+00
388  3.8700000000000D+00  0.0000000000000D+00  0.0000000000000D+00
389  3.8800000000000D+00  0.0000000000000D+00  0.0000000000000D+00
390  3.8900000000000D+00  0.0000000000000D+00  0.0000000000000D+00
391  3.9000000000000D+00  0.0000000000000D+00  0.0000000000000D+00
392  3.9100000000000D+00  0.0000000000000D+00  0.0000000000000D+00
393  3.9200000000000D+00  0.0000000000000D+00  0.0000000000000D+00
394  3.9300000000000D+00  0.0000000000000D+00  0.0000000000000D+00
395  3.9400000000000D+00  0.0000000000000D+00  0.0000000000000D+00
396  3.9500000000000D+00  0.0000000000000D+00  0.0000000000000D+00
397  3.9600000000000D+00  0.0000000000000D+00  0.0000000000000D+00
398  3.9700000000000D+00  0.0000000000000D+00  0.0000000000000D+00
399  3.9800000000000D+00  0.0000000000000D+00  0.0000000000000D+00
400  3.9900000000000D+00  0.0000000000000D+00  0.0000000000000D+00
401  4.0000000000000D+00  0.0000000000000D+00  0.0000000000000D+00
402  4.0100000000000D+00  0.0000000000000D+00  0.0000000000000D+00
403  4.0200000000000D+00  0.0000000000000D+00  0.0000000000000D+00
404  4.0300000000000D+00  0.0000000000000D+00  0.0000000000000D+00
405  4.0400000000000D+00  0.0000000000000D+00  0.0000000000000D+00
406  4.0500000000000D+00  0.0000000000000D+00  0.0000000000000D+00
407  4.0600000000000D+00  0.0000000000000D+00  0.0000000000000D+00
408  4.0700000000000D+00  0.0000000000000D+00  0.0000000000000D+00
409  4.0800000000000D+00  0.0000000000000D+00  0.0000000000000D+00
410  4.0900000000000D+00  0.0000000000000D+00  0.0000000000000D+00
411  4.1000000000000D+00  0.0000000000000D+00  0.0000000000000D+00
412  4.1100000000000D+00  0.0000000000000D+00  0.0000000000000D+00
413  4.1200000000000D+00  0.0000000000000D+00  0.0000000000000D+00
414  4.1300000000000D+00  0.0000000000000D+00  0.0000000000000D+00
415  4.1400000000000D+00  0.0000000000000D+00  0.0000000000000D+00
416  4.1500000000000D+00  0.0000000000000D+00  0.0000000000000D+00
417  4.1600000000000D+00  0.0000000000000D+00  0.0000000000000D+00
418  4.1700000000000D+00  0.0000000000000D+00  0.0000000000000D+00
419  4.1800000000000D+00  0.0000000000000D+00  0.0000000000000D+00
420  4.1900000000000D+00  0.0000000000000D+00  0.0000000000000D+00
421  4.2000000000000D+00  0.0000000000000D+00  0.0000000000000D+00
422  4.2100000000000D+00  0.0000000000000D+00  0.0000000000000D+00
423  4.2200000000000D+00  0.0000000000000D+00  0.0000000000000D+00
424  4.2300000000000D+00  0.0000000000000D+00  0.0000000000000D+00
425  4.2400000000000D+00  0.0000000000000D+00  0.0000000000000D+00
426  4.2500000000000D+00  0.0000000000000D+00  0.0000000000000D+00
427  4.2600000000000D+00  0.0000000000000D+00  0.0000000000000D+00
428  4.2700000000000D+00  0.0000000000000D+00  0.0000000000000D+00
429  4.2800000000000D+00  0.0000000000000D+00  0.0000000000000D+00
430  4.2900000000000D+00  0.0000000000000D+00  0.0000000000000D+00
431  4.3000000000000D+00  0.0000000000000D+00  0.0000000000000D+00
432  4.3100000000000D+00  0.0000000000000D+00  0.0000000000000D+00
433  4.3200000000000D+00  0.0000000000000D+00  0.0000000000000D+00
434  4.3300000000000D+00  0.0000000000000D+00  0.0000000000000D+00
435  4.3400000000000D+00  0.0000000000000D+00  0.0000000000000D+00
436  4.3500000000000D+00  0.0000000000000D+00  0.0000000000000D+00
437  4.3600000000000D+00  0.0000000000000D+00  0.0000000000000D+00
438  4.3700000000000D+00  0.0000000000000D+00  0.0000000000000D+00
439  4.3800000000000D+00  0.0000000000000D+00  0.0000000000000D+00
440  4.3900000000000D+00  0.0000000000000D+00  0.0000000000000D+00
441  4.4000000000000D+00  0.0000000000000D+00  0.0000000000000D+00
442  4.4100000000000D+00  0.0000000000000D+00  0.0000000000000D+00
443  4.4200000000000D+00  0.0000000000000D+00  0.0000000000000D+00