As    ONCVPSP  r_core=  1.77  1.61  1.81
33.0000     15.0000      151028    zatom,zion,pspd
8   -1013   2     4   600     0    pspcod,pspxc,lmax,lloc,mmax,r2well
5.99000000  0.20000000  0.00000000    rchrg fchrg qchrg
2     2     2     0     0    nproj
0                 extension_switch
0                         7.5694432839955D+00  7.8958977792226D-01
1  0.0000000000000D+00  6.5475402877269D-13 -4.5973766460428D-11
2  1.0000000000000D-02  3.1701489656954D-02 -8.3442811766893D-03
3  2.0000000000000D-02  6.3392083041655D-02 -1.6719143981258D-02
4  3.0000000000000D-02  9.5060844741900D-02 -2.5154828400068D-02
5  4.0000000000000D-02  1.2669676122514D-01 -3.3680893252236D-02
6  5.0000000000000D-02  1.5828870217703D-01 -4.2325880883852D-02
7  6.0000000000000D-02  1.8982538231806D-01 -5.1116988163098D-02
8  7.0000000000000D-02  2.2129532385677D-01 -6.0079745822584D-02
9  8.0000000000000D-02  2.5268681973769D-01 -6.9237708149238D-02
10  9.0000000000000D-02  2.8398789784097D-01 -7.8612154965241D-02
11  1.0000000000000D-01  3.1518628629003D-01 -8.8221807775669D-02
12  1.1000000000000D-01  3.4626938002199D-01 -9.8082561880571D-02
13  1.2000000000000D-01  3.7722420877464D-01 -1.0820723616106D-01
14  1.3000000000000D-01  4.0803740664162D-01 -1.1860534215155D-01
15  1.4000000000000D-01  4.3869518334601D-01 -1.2928287390357D-01
16  1.5000000000000D-01  4.6918329738007D-01 -1.4024212003172D-01
17  1.6000000000000D-01  4.9948703115665D-01 -1.5148149920948D-01
18  1.7000000000000D-01  5.2959116831497D-01 -1.6299542025235D-01
19  1.8000000000000D-01  5.5947997332034D-01 -1.7477416778959D-01
20  1.9000000000000D-01  5.8913717349426D-01 -1.8680381438313D-01
21  2.0000000000000D-01  6.1854594360718D-01 -1.9906615980512D-01
22  2.1000000000000D-01  6.4768889316241D-01 -2.1153869803374D-01
23  2.2000000000000D-01  6.7654805649480D-01 -2.2419461237198D-01
24  2.3000000000000D-01  7.0510488580304D-01 -2.3700279893618D-01
25  2.4000000000000D-01  7.3334024722864D-01 -2.4992791860174D-01
26  2.5000000000000D-01  7.6123442008905D-01 -2.6293047733295D-01
27  2.6000000000000D-01  7.8876709936558D-01 -2.7596693466332D-01
28  2.7000000000000D-01  8.1591740153999D-01 -2.8898983993295D-01
29  2.8000000000000D-01  8.4266387386586D-01 -3.0194799573170D-01
30  2.9000000000000D-01  8.6898450715303D-01 -3.1478664784094D-01
31  3.0000000000000D-01  8.9485675213442D-01 -3.2744770081471D-01
32  3.1000000000000D-01  9.2025753947540D-01 -3.3986995819298D-01
33  3.2000000000000D-01  9.4516330347605D-01 -3.5198938619664D-01
34  3.3000000000000D-01  9.6955000950588D-01 -3.6373939961652D-01
35  3.4000000000000D-01  9.9339318520003D-01 -3.7505116847816D-01
36  3.5000000000000D-01  1.0166679554335D+00 -3.8585394394040D-01
37  3.6000000000000D-01  1.0393490810785D+00 -3.9607540177061D-01
38  3.7000000000000D-01  1.0614110015360D+00 -4.0564200163214D-01
39  3.8000000000000D-01  1.0828278810211D+00 -4.1447936032240D-01
40  3.9000000000000D-01  1.1035736585638D+00 -4.2251263701155D-01
41  4.0000000000000D-01  1.1236221016784D+00 -4.2966692845482D-01
42  4.1000000000000D-01  1.1429468636323D+00 -4.3586767208397D-01
43  4.2000000000000D-01  1.1615215442354D+00 -4.4104105482841D-01
44  4.3000000000000D-01  1.1793197540522D+00 -4.4511442547192D-01
45  4.4000000000000D-01  1.1963151819229D+00 -4.4801670831842D-01
46  4.5000000000000D-01  1.2124816656628D+00 -4.4967881592043D-01
47  4.6000000000000D-01  1.2277932657927D+00 -4.5003405861478D-01
48  4.7000000000000D-01  1.2422243421357D+00 -4.4901854861488D-01
49  4.8000000000000D-01  1.2557496330973D+00 -4.4657159642468D-01
50  4.9000000000000D-01  1.2683443374292D+00 -4.4263609736781D-01
51  5.0000000000000D-01  1.2799841982594D+00 -4.3715890606656D-01
52  5.1000000000000D-01  1.2906455891527D+00 -4.3009119675698D-01
53  5.2000000000000D-01  1.3003056019501D+00 -4.2138880739129D-01
54  5.3000000000000D-01  1.3089421361162D+00 -4.1101256555384D-01
55  5.4000000000000D-01  1.3165339893095D+00 -3.9892859430341D-01
56  5.5000000000000D-01  1.3230609488711D+00 -3.8510859615212D-01
57  5.6000000000000D-01  1.3285038839147D+00 -3.6953011349734D-01
58  5.7000000000000D-01  1.3328448376829D+00 -3.5217676394090D-01
59  5.8000000000000D-01  1.3360671198226D+00 -3.3303844905389D-01
60  5.9000000000000D-01  1.3381553982165D+00 -3.1211153528034D-01
61  6.0000000000000D-01  1.3390957899982D+00 -2.8939900581310D-01
62  6.1000000000000D-01  1.3388759513634D+00 -2.6491058242416D-01
63  6.2000000000000D-01  1.3374851657831D+00 -2.3866281638433D-01
64  6.3000000000000D-01  1.3349144302126D+00 -2.1067914776754D-01
65  6.4000000000000D-01  1.3311565388857D+00 -1.8098993259681D-01
66  6.5000000000000D-01  1.3262061642748D+00 -1.4963243745654D-01
67  6.6000000000000D-01  1.3200599347952D+00 -1.1665080136414D-01
68  6.7000000000000D-01  1.3127165088301D+00 -8.2095964864895D-02
69  6.8000000000000D-01  1.3041766446487D+00 -4.6025566484316D-02
70  6.9000000000000D-01  1.2944432657961D+00 -8.5038068439844D-03
71  7.0000000000000D-01  1.2835215215325D+00  3.0398719084811D-02
72  7.1000000000000D-01  1.2714188419074D+00  7.0605220948041D-02
73  7.2000000000000D-01  1.2581449870619D+00  1.1203294239080D-01
74  7.3000000000000D-01  1.2437120903603D+00  1.5459341988890D-01
75  7.4000000000000D-01  1.2281346949659D+00  1.9819276991054D-01
76  7.5000000000000D-01  1.2114297834908D+00  2.4273200313922D-01
77  7.6000000000000D-01  1.1936168003632D+00  2.8810736434753D-01
78  7.7000000000000D-01  1.1747176665790D+00  3.3421069637657D-01
79  7.8000000000000D-01  1.1547567865222D+00  3.8092982654986D-01
80  7.9000000000000D-01  1.1337610465641D+00  4.2814897373286D-01
81  8.0000000000000D-01  1.1117598051768D+00  4.7574917414225D-01
82  8.1000000000000D-01  1.0887848743256D+00  5.2360872391138D-01
83  8.2000000000000D-01  1.0648704919326D+00  5.7160363633192D-01
84  8.3000000000000D-01  1.0400532852404D+00  6.1960811161617D-01
85  8.4000000000000D-01  1.0143722249340D+00  6.6749501696136D-01
86  8.5000000000000D-01  9.8786856992172D-01  7.1513637464508D-01
87  8.6000000000000D-01  9.6058580270756D-01  7.6240385584222D-01
88  8.7000000000000D-01  9.3256955533190D-01  8.0916927782626D-01
89  8.8000000000000D-01  9.0386752589666D-01  8.5530510220456D-01
90  8.9000000000000D-01  8.7452938573403D-01  9.0068493183431D-01
91  9.0000000000000D-01  8.4460667732145D-01  9.4518400407828D-01
92  9.1000000000000D-01  8.1415270309037D-01  9.8867967808214D-01
93  9.2000000000000D-01  7.8322240532182D-01  1.0310519137912D+00
94  9.3000000000000D-01  7.5187223736734D-01  1.0721837404731D+00
95  9.4000000000000D-01  7.2016002648046D-01  1.1119617125713D+00
96  9.5000000000000D-01  6.8814482859013D-01  1.1502763507877D+00
97  9.6000000000000D-01  6.5588677539333D-01  1.1870225663719D+00
98  9.7000000000000D-01  6.2344691419054D-01  1.2221000666901D+00
99  9.8000000000000D-01  5.9088704093135D-01  1.2554137402472D+00
100  9.9000000000000D-01  5.5826952698297D-01  1.2868740194458D+00
101  1.0000000000000D+00  5.2565714017657D-01  1.3163972194894D+00
102  1.0100000000000D+00  4.9311286072740D-01  1.3439058519620D+00
103  1.0200000000000D+00  4.6069969266471D-01  1.3693289117505D+00
104  1.0300000000000D+00  4.2848047144482D-01  1.3926021361182D+00
105  1.0400000000000D+00  3.9651766845650D-01  1.4136682348867D+00
106  1.0500000000000D+00  3.6487319315839D-01  1.4324770908218D+00
107  1.0600000000000D+00  3.3360819362166D-01  1.4489859294890D+00
108  1.0700000000000D+00  3.0278285627520D-01  1.4631594579878D+00
109  1.0800000000000D+00  2.7245620567522D-01  1.4749699721350D+00
110  1.0900000000000D+00  2.4268590514224D-01  1.4843974318356D+00
111  1.1000000000000D+00  2.1352805912257D-01  1.4914295045087D+00
112  1.1100000000000D+00  1.8503701814748D-01  1.4960615766298D+00
113  1.1200000000000D+00  1.5726518726950D-01  1.4982967335771D+00
114  1.1300000000000D+00  1.3026283886022D-01  1.4981457081400D+00
115  1.1400000000000D+00  1.0407793065507D-01  1.4956267981712D+00
116  1.1500000000000D+00  7.8755929926163D-02  1.4907657540284D+00
117  1.1600000000000D+00  5.4339644655876D-02  1.4835956365804D+00
118  1.1700000000000D+00  3.0869062567478D-02  1.4741566466903D+00
119  1.1800000000000D+00  8.3811988591530D-03  1.4624959271797D+00
120  1.1900000000000D+00 -1.3090046541827D-02  1.4486673384399D+00
121  1.2000000000000D+00 -3.3514021413009D-02  1.4327312089341D+00
122  1.2100000000000D+00 -5.2863442599089D-02  1.4147540619403D+00
123  1.2200000000000D+00 -7.1114505569005D-02  1.3948083199587D+00
124  1.2300000000000D+00 -8.8246981489040D-02  1.3729719883202D+00
125  1.2400000000000D+00 -1.0424430118010D-01  1.3493283195759D+00
126  1.2500000000000D+00 -1.1909362534029D-01  1.3239654602943D+00
127  1.2600000000000D+00 -1.3278590051251D-01  1.2969760819815D+00
128  1.2700000000000D+00 -1.4531590032187D-01  1.2684569978441D+00
129  1.2800000000000D+00 -1.5668225152167D-01  1.2385087671420D+00
130  1.2900000000000D+00 -1.6688744451099D-01  1.2072352889208D+00
131  1.3000000000000D+00 -1.7593782804432D-01  1.1747433868822D+00
132  1.3100000000000D+00 -1.8384358784612D-01  1.1411423871800D+00
133  1.3200000000000D+00 -1.9061870901998D-01  1.1065436908961D+00
134  1.3300000000000D+00 -1.9628092217298D-01  1.0710603429055D+00
135  1.3400000000000D+00 -2.0085163317327D-01  1.0348065988773D+00
136  1.3500000000000D+00 -2.0435583668441D-01  9.9789749201627D-01
137  1.3600000000000D+00 -2.0682201357619D-01  9.6044840116113D-01
138  1.3700000000000D+00 -2.0828201239040D-01  9.2257462182745D-01
139  1.3800000000000D+00 -2.0877091524535D-01  8.8439094157553D-01
140  1.3900000000000D+00 -2.0832688843699D-01  8.4601122121015D-01
141  1.4000000000000D+00 -2.0699101824112D-01  8.0754798308185D-01
142  1.4100000000000D+00 -2.0480713245510D-01  7.6911200767544D-01
143  1.4200000000000D+00 -2.0182160815511D-01  7.3081193979333D-01
144  1.4300000000000D+00 -1.9808316648206D-01  6.9275390517158D-01
145  1.4400000000000D+00 -1.9364265503969D-01  6.5504113868249D-01
146  1.4500000000000D+00 -1.8855281877522D-01  6.1777362488410D-01
147  1.4600000000000D+00 -1.8286806020318D-01  5.8104775163309D-01
148  1.4700000000000D+00 -1.7664418978761D-01  5.4495597762000D-01
149  1.4800000000000D+00 -1.6993816760688D-01  5.0958651406826D-01
150  1.4900000000000D+00 -1.6280783713379D-01  4.7502302143278D-01
151  1.5000000000000D+00 -1.5531165235664D-01  4.4134432112507D-01
152  1.5100000000000D+00 -1.4750839923002D-01  4.0862412276506D-01
153  1.5200000000000D+00 -1.3945691264880D-01  3.7693076705735D-01
154  1.5300000000000D+00 -1.3121579011003D-01  3.4632698431905D-01
155  1.5400000000000D+00 -1.2284310322713D-01  3.1686966887577D-01
156  1.5500000000000D+00 -1.1439610823079D-01  2.8860966814560D-01
157  1.5600000000000D+00 -1.0593095681904D-01  2.6159158780134D-01
158  1.5700000000000D+00 -9.7502408906641D-02  2.3585361484554D-01
159  1.5800000000000D+00 -8.9163547708068D-02  2.1142735052897D-01
160  1.5900000000000D+00 -8.0965518877252D-02  1.8833778314329D-01
161  1.6000000000000D+00 -7.2957188139504D-02  1.6660274518926D-01
162  1.6100000000000D+00 -6.5184919510621D-02  1.4623307279263D-01
163  1.6200000000000D+00 -5.7692526805189D-02  1.2723384522859D-01
164  1.6300000000000D+00 -5.0521201108119D-02  1.0960532171657D-01
165  1.6400000000000D+00 -4.3709530260450D-02  9.3344284228911D-02
166  1.6500000000000D+00 -3.7293397525042D-02  7.8444578637633D-02
167  1.6600000000000D+00 -3.1305759462521D-02  6.4896798394204D-02
168  1.6700000000000D+00 -2.5776505113535D-02  5.2688433961386D-02
169  1.6800000000000D+00 -2.0732323341054D-02  4.1804019754049D-02
170  1.6900000000000D+00 -1.6196569326869D-02  3.2225196195320D-02
171  1.7000000000000D+00 -1.2189146804932D-02  2.3930800844466D-02
172  1.7100000000000D+00 -8.7280285640814D-03  1.6899605523428D-02
173  1.7200000000000D+00 -5.8225131000154D-03  1.1099501011201D-02
174  1.7300000000000D+00 -3.4737351307114D-03  6.4894663072167D-03
175  1.7400000000000D+00 -1.7044681565097D-03  3.0648423607768D-03
176  1.7500000000000D+00 -5.3771957994308D-04  8.2048942807325D-04
177  1.7600000000000D+00  6.7856393872363D-05 -3.3189190479322D-04
178  1.7700000000000D+00  2.2333919638055D-04 -5.7600753015115D-04
179  1.7800000000000D+00  1.1267762971451D-04 -2.7205903636317D-04
180  1.7900000000000D+00 -2.1384477965347D-05  5.0825529068174D-05
181  1.8000000000000D+00 -3.6962339248383D-05  8.6686374863559D-05
182  1.8100000000000D+00  2.0040841171983D-06 -4.8556655577671D-06
183  1.8200000000000D+00  8.3961482673710D-06 -2.0220854546324D-05
184  1.8300000000000D+00  4.1568691145807D-07 -9.9666537516160D-07
185  1.8400000000000D+00 -5.8993813918820D-07  1.6353699862837D-06
186  1.8500000000000D+00 -1.8306809814348D-07  5.0748384154625D-07
187  1.8600000000000D+00  0.0000000000000D+00  0.0000000000000D+00
188  1.8700000000000D+00  0.0000000000000D+00  0.0000000000000D+00
189  1.8800000000000D+00  0.0000000000000D+00  0.0000000000000D+00
190  1.8900000000000D+00  0.0000000000000D+00  0.0000000000000D+00
191  1.9000000000000D+00  0.0000000000000D+00  0.0000000000000D+00
192  1.9100000000000D+00  0.0000000000000D+00  0.0000000000000D+00
193  1.9200000000000D+00  0.0000000000000D+00  0.0000000000000D+00
194  1.9300000000000D+00  0.0000000000000D+00  0.0000000000000D+00
195  1.9400000000000D+00  0.0000000000000D+00  0.0000000000000D+00
196  1.9500000000000D+00  0.0000000000000D+00  0.0000000000000D+00
197  1.9600000000000D+00  0.0000000000000D+00  0.0000000000000D+00
198  1.9700000000000D+00  0.0000000000000D+00  0.0000000000000D+00
199  1.9800000000000D+00  0.0000000000000D+00  0.0000000000000D+00
200  1.9900000000000D+00  0.0000000000000D+00  0.0000000000000D+00
201  2.0000000000000D+00  0.0000000000000D+00  0.0000000000000D+00
202  2.0100000000000D+00  0.0000000000000D+00  0.0000000000000D+00
203  2.0200000000000D+00  0.0000000000000D+00  0.0000000000000D+00
204  2.0300000000000D+00  0.0000000000000D+00  0.0000000000000D+00
205  2.0400000000000D+00  0.0000000000000D+00  0.0000000000000D+00
206  2.0500000000000D+00  0.0000000000000D+00  0.0000000000000D+00
207  2.0600000000000D+00  0.0000000000000D+00  0.0000000000000D+00
208  2.0700000000000D+00  0.0000000000000D+00  0.0000000000000D+00
209  2.0800000000000D+00  0.0000000000000D+00  0.0000000000000D+00
210  2.0900000000000D+00  0.0000000000000D+00  0.0000000000000D+00
211  2.1000000000000D+00  0.0000000000000D+00  0.0000000000000D+00
212  2.1100000000000D+00  0.0000000000000D+00  0.0000000000000D+00
213  2.1200000000000D+00  0.0000000000000D+00  0.0000000000000D+00
214  2.1300000000000D+00  0.0000000000000D+00  0.0000000000000D+00
215  2.1400000000000D+00  0.0000000000000D+00  0.0000000000000D+00
216  2.1500000000000D+00  0.0000000000000D+00  0.0000000000000D+00
217  2.1600000000000D+00  0.0000000000000D+00  0.0000000000000D+00
218  2.1700000000000D+00  0.0000000000000D+00  0.0000000000000D+00
219  2.1800000000000D+00  0.0000000000000D+00  0.0000000000000D+00
220  2.1900000000000D+00  0.0000000000000D+00  0.0000000000000D+00
221  2.2000000000000D+00  0.0000000000000D+00  0.0000000000000D+00
222  2.2100000000000D+00  0.0000000000000D+00  0.0000000000000D+00
223  2.2200000000000D+00  0.0000000000000D+00  0.0000000000000D+00
224  2.2300000000000D+00  0.0000000000000D+00  0.0000000000000D+00
225  2.2400000000000D+00  0.0000000000000D+00  0.0000000000000D+00
226  2.2500000000000D+00  0.0000000000000D+00  0.0000000000000D+00
227  2.2600000000000D+00  0.0000000000000D+00  0.0000000000000D+00
228  2.2700000000000D+00  0.0000000000000D+00  0.0000000000000D+00
229  2.2800000000000D+00  0.0000000000000D+00  0.0000000000000D+00
230  2.2900000000000D+00  0.0000000000000D+00  0.0000000000000D+00
231  2.3000000000000D+00  0.0000000000000D+00  0.0000000000000D+00
232  2.3100000000000D+00  0.0000000000000D+00  0.0000000000000D+00
233  2.3200000000000D+00  0.0000000000000D+00  0.0000000000000D+00
234  2.3300000000000D+00  0.0000000000000D+00  0.0000000000000D+00
235  2.3400000000000D+00  0.0000000000000D+00  0.0000000000000D+00
236  2.3500000000000D+00  0.0000000000000D+00  0.0000000000000D+00
237  2.3600000000000D+00  0.0000000000000D+00  0.0000000000000D+00
238  2.3700000000000D+00  0.0000000000000D+00  0.0000000000000D+00
239  2.3800000000000D+00  0.0000000000000D+00  0.0000000000000D+00
240  2.3900000000000D+00  0.0000000000000D+00  0.0000000000000D+00
241  2.4000000000000D+00  0.0000000000000D+00  0.0000000000000D+00
242  2.4100000000000D+00  0.0000000000000D+00  0.0000000000000D+00
243  2.4200000000000D+00  0.0000000000000D+00  0.0000000000000D+00
244  2.4300000000000D+00  0.0000000000000D+00  0.0000000000000D+00
245  2.4400000000000D+00  0.0000000000000D+00  0.0000000000000D+00
246  2.4500000000000D+00  0.0000000000000D+00  0.0000000000000D+00
247  2.4600000000000D+00  0.0000000000000D+00  0.0000000000000D+00
248  2.4700000000000D+00  0.0000000000000D+00  0.0000000000000D+00
249  2.4800000000000D+00  0.0000000000000D+00  0.0000000000000D+00
250  2.4900000000000D+00  0.0000000000000D+00  0.0000000000000D+00
251  2.5000000000000D+00  0.0000000000000D+00  0.0000000000000D+00
252  2.5100000000000D+00  0.0000000000000D+00  0.0000000000000D+00
253  2.5200000000000D+00  0.0000000000000D+00  0.0000000000000D+00
254  2.5300000000000D+00  0.0000000000000D+00  0.0000000000000D+00
255  2.5400000000000D+00  0.0000000000000D+00  0.0000000000000D+00
256  2.5500000000000D+00  0.0000000000000D+00  0.0000000000000D+00
257  2.5600000000000D+00  0.0000000000000D+00  0.0000000000000D+00
258  2.5700000000000D+00  0.0000000000000D+00  0.0000000000000D+00
259  2.5800000000000D+00  0.0000000000000D+00  0.0000000000000D+00
260  2.5900000000000D+00  0.0000000000000D+00  0.0000000000000D+00
261  2.6000000000000D+00  0.0000000000000D+00  0.0000000000000D+00
262  2.6100000000000D+00  0.0000000000000D+00  0.0000000000000D+00
263  2.6200000000000D+00  0.0000000000000D+00  0.0000000000000D+00
264  2.6300000000000D+00  0.0000000000000D+00  0.0000000000000D+00
265  2.6400000000000D+00  0.0000000000000D+00  0.0000000000000D+00
266  2.6500000000000D+00  0.0000000000000D+00  0.0000000000000D+00
267  2.6600000000000D+00  0.0000000000000D+00  0.0000000000000D+00
268  2.6700000000000D+00  0.0000000000000D+00  0.0000000000000D+00
269  2.6800000000000D+00  0.0000000000000D+00  0.0000000000000D+00
270  2.6900000000000D+00  0.0000000000000D+00  0.0000000000000D+00
271  2.7000000000000D+00  0.0000000000000D+00  0.0000000000000D+00
272  2.7100000000000D+00  0.0000000000000D+00  0.0000000000000D+00
273  2.7200000000000D+00  0.0000000000000D+00  0.0000000000000D+00
274  2.7300000000000D+00  0.0000000000000D+00  0.0000000000000D+00
275  2.7400000000000D+00  0.0000000000000D+00  0.0000000000000D+00
276  2.7500000000000D+00  0.0000000000000D+00  0.0000000000000D+00
277  2.7600000000000D+00  0.0000000000000D+00  0.0000000000000D+00
278  2.7700000000000D+00  0.0000000000000D+00  0.0000000000000D+00
279  2.7800000000000D+00  0.0000000000000D+00  0.0000000000000D+00
280  2.7900000000000D+00  0.0000000000000D+00  0.0000000000000D+00
281  2.8000000000000D+00  0.0000000000000D+00  0.0000000000000D+00
282  2.8100000000000D+00  0.0000000000000D+00  0.0000000000000D+00
283  2.8200000000000D+00  0.0000000000000D+00  0.0000000000000D+00
284  2.8300000000000D+00  0.0000000000000D+00  0.0000000000000D+00
285  2.8400000000000D+00  0.0000000000000D+00  0.0000000000000D+00
286  2.8500000000000D+00  0.0000000000000D+00  0.0000000000000D+00
287  2.8600000000000D+00  0.0000000000000D+00  0.0000000000000D+00
288  2.8700000000000D+00  0.0000000000000D+00  0.0000000000000D+00
289  2.8800000000000D+00  0.0000000000000D+00  0.0000000000000D+00
290  2.8900000000000D+00  0.0000000000000D+00  0.0000000000000D+00
291  2.9000000000000D+00  0.0000000000000D+00  0.0000000000000D+00
292  2.9100000000000D+00  0.0000000000000D+00  0.0000000000000D+00
293  2.9200000000000D+00  0.0000000000000D+00  0.0000000000000D+00
294  2.9300000000000D+00  0.0000000000000D+00  0.0000000000000D+00
295  2.9400000000000D+00  0.0000000000000D+00  0.0000000000000D+00
296  2.9500000000000D+00  0.0000000000000D+00  0.0000000000000D+00
297  2.9600000000000D+00  0.0000000000000D+00  0.0000000000000D+00
298  2.9700000000000D+00  0.0000000000000D+00  0.0000000000000D+00
299  2.9800000000000D+00  0.0000000000000D+00  0.0000000000000D+00
300  2.9900000000000D+00  0.0000000000000D+00  0.0000000000000D+00
301  3.0000000000000D+00  0.0000000000000D+00  0.0000000000000D+00
302  3.0100000000000D+00  0.0000000000000D+00  0.0000000000000D+00
303  3.0200000000000D+00  0.0000000000000D+00  0.0000000000000D+00
304  3.0300000000000D+00  0.0000000000000D+00  0.0000000000000D+00
305  3.0400000000000D+00  0.0000000000000D+00  0.0000000000000D+00
306  3.0500000000000D+00  0.0000000000000D+00  0.0000000000000D+00
307  3.0600000000000D+00  0.0000000000000D+00  0.0000000000000D+00
308  3.0700000000000D+00  0.0000000000000D+00  0.0000000000000D+00
309  3.0800000000000D+00  0.0000000000000D+00  0.0000000000000D+00
310  3.0900000000000D+00  0.0000000000000D+00  0.0000000000000D+00
311  3.1000000000000D+00  0.0000000000000D+00  0.0000000000000D+00
312  3.1100000000000D+00  0.0000000000000D+00  0.0000000000000D+00
313  3.1200000000000D+00  0.0000000000000D+00  0.0000000000000D+00
314  3.1300000000000D+00  0.0000000000000D+00  0.0000000000000D+00
315  3.1400000000000D+00  0.0000000000000D+00  0.0000000000000D+00
316  3.1500000000000D+00  0.0000000000000D+00  0.0000000000000D+00
317  3.1600000000000D+00  0.0000000000000D+00  0.0000000000000D+00
318  3.1700000000000D+00  0.0000000000000D+00  0.0000000000000D+00
319  3.1800000000000D+00  0.0000000000000D+00  0.0000000000000D+00
320  3.1900000000000D+00  0.0000000000000D+00  0.0000000000000D+00
321  3.2000000000000D+00  0.0000000000000D+00  0.0000000000000D+00
322  3.2100000000000D+00  0.0000000000000D+00  0.0000000000000D+00
323  3.2200000000000D+00  0.0000000000000D+00  0.0000000000000D+00
324  3.2300000000000D+00  0.0000000000000D+00  0.0000000000000D+00
325  3.2400000000000D+00  0.0000000000000D+00  0.0000000000000D+00
326  3.2500000000000D+00  0.0000000000000D+00  0.0000000000000D+00
327  3.2600000000000D+00  0.0000000000000D+00  0.0000000000000D+00
328  3.2700000000000D+00  0.0000000000000D+00  0.0000000000000D+00
329  3.2800000000000D+00  0.0000000000000D+00  0.0000000000000D+00
330  3.2900000000000D+00  0.0000000000000D+00  0.0000000000000D+00
331  3.3000000000000D+00  0.0000000000000D+00  0.0000000000000D+00
332  3.3100000000000D+00  0.0000000000000D+00  0.0000000000000D+00
333  3.3200000000000D+00  0.0000000000000D+00  0.0000000000000D+00
334  3.3300000000000D+00  0.0000000000000D+00  0.0000000000000D+00
335  3.3400000000000D+00  0.0000000000000D+00  0.0000000000000D+00
336  3.3500000000000D+00  0.0000000000000D+00  0.0000000000000D+00
337  3.3600000000000D+00  0.0000000000000D+00  0.0000000000000D+00
338  3.3700000000000D+00  0.0000000000000D+00  0.0000000000000D+00
339  3.3800000000000D+00  0.0000000000000D+00  0.0000000000000D+00
340  3.3900000000000D+00  0.0000000000000D+00  0.0000000000000D+00
341  3.4000000000000D+00  0.0000000000000D+00  0.0000000000000D+00
342  3.4100000000000D+00  0.0000000000000D+00  0.0000000000000D+00
343  3.4200000000000D+00  0.0000000000000D+00  0.0000000000000D+00
344  3.4300000000000D+00  0.0000000000000D+00  0.0000000000000D+00
345  3.4400000000000D+00  0.0000000000000D+00  0.0000000000000D+00
346  3.4500000000000D+00  0.0000000000000D+00  0.0000000000000D+00
347  3.4600000000000D+00  0.0000000000000D+00  0.0000000000000D+00
348  3.4700000000000D+00  0.0000000000000D+00  0.0000000000000D+00
349  3.4800000000000D+00  0.0000000000000D+00  0.0000000000000D+00
350  3.4900000000000D+00  0.0000000000000D+00  0.0000000000000D+00
351  3.5000000000000D+00  0.0000000000000D+00  0.0000000000000D+00
352  3.5100000000000D+00  0.0000000000000D+00  0.0000000000000D+00
353  3.5200000000000D+00  0.0000000000000D+00  0.0000000000000D+00
354  3.5300000000000D+00  0.0000000000000D+00  0.0000000000000D+00
355  3.5400000000000D+00  0.0000000000000D+00  0.0000000000000D+00
356  3.5500000000000D+00  0.0000000000000D+00  0.0000000000000D+00
357  3.5600000000000D+00  0.0000000000000D+00  0.0000000000000D+00
358  3.5700000000000D+00  0.0000000000000D+00  0.0000000000000D+00
359  3.5800000000000D+00  0.0000000000000D+00  0.0000000000000D+00
360  3.5900000000000D+00  0.0000000000000D+00  0.0000000000000D+00
361  3.6000000000000D+00  0.0000000000000D+00  0.0000000000000D+00
362  3.6100000000000D+00  0.0000000000000D+00  0.0000000000000D+00
363  3.6200000000000D+00  0.0000000000000D+00  0.0000000000000D+00
364  3.6300000000000D+00  0.0000000000000D+00  0.0000000000000D+00
365  3.6400000000000D+00  0.0000000000000D+00  0.0000000000000D+00
366  3.6500000000000D+00  0.0000000000000D+00  0.0000000000000D+00
367  3.6600000000000D+00  0.0000000000000D+00  0.0000000000000D+00
368  3.6700000000000D+00  0.0000000000000D+00  0.0000000000000D+00
369  3.6800000000000D+00  0.0000000000000D+00  0.0000000000000D+00
370  3.6900000000000D+00  0.0000000000000D+00  0.0000000000000D+00
371  3.7000000000000D+00  0.0000000000000D+00  0.0000000000000D+00
372  3.7100000000000D+00  0.0000000000000D+00  0.0000000000000D+00
373  3.7200000000000D+00  0.0000000000000D+00  0.0000000000000D+00
374  3.7300000000000D+00  0.0000000000000D+00  0.0000000000000D+00
375  3.7400000000000D+00  0.0000000000000D+00  0.0000000000000D+00
376  3.7500000000000D+00  0.0000000000000D+00  0.0000000000000D+00
377  3.7600000000000D+00  0.0000000000000D+00  0.0000000000000D+00
378  3.7700000000000D+00  0.0000000000000D+00  0.0000000000000D+00
379  3.7800000000000D+00  0.0000000000000D+00  0.0000000000000D+00
380  3.7900000000000D+00  0.0000000000000D+00  0.0000000000000D+00
381  3.8000000000000D+00  0.0000000000000D+00  0.0000000000000D+00
382  3.8100000000000D+00  0.0000000000000D+00  0.0000000000000D+00
383  3.8200000000000D+00  0.0000000000000D+00  0.0000000000000D+00
384  3.8300000000000D+00  0.0000000000000D+00  0.0000000000000D+00
385  3.8400000000000D+00  0.0000000000000D+00  0.0000000000000D+00
386  3.8500000000000D+00  0.0000000000000D+00  0.0000000000000D+00
387  3.8600000000000D+00  0.0000000000000D+00  0.0000000000000D+00
388  3.8700000000000D+00  0.0000000000000D+00  0.0000000000000D+00
389  3.8800000000000D+00  0.0000000000000D+00  0.0000000000000D+00
390  3.8900000000000D+00  0.0000000000000D+00  0.0000000000000D+00
391  3.9000000000000D+00  0.0000000000000D+00  0.0000000000000D+00
392  3.9100000000000D+00  0.0000000000000D+00  0.0000000000000D+00
393  3.9200000000000D+00  0.0000000000000D+00  0.0000000000000D+00
394  3.9300000000000D+00  0.0000000000000D+00  0.0000000000000D+00
395  3.9400000000000D+00  0.0000000000000D+00  0.0000000000000D+00
396  3.9500000000000D+00  0.0000000000000D+00  0.0000000000000D+00
397  3.9600000000000D+00  0.0000000000000D+00  0.0000000000000D+00
398  3.9700000000000D+00  0.0000000000000D+00  0.0000000000000D+00
399  3.9800000000000D+00  0.0000000000000D+00  0.0000000000000D+00
400  3.9900000000000D+00  0.0000000000000D+00  0.0000000000000D+00
401  4.0000000000000D+00  0.0000000000000D+00  0.0000000000000D+00
402  4.0100000000000D+00  0.0000000000000D+00  0.0000000000000D+00
403  4.0200000000000D+00  0.0000000000000D+00  0.0000000000000D+00
404  4.0300000000000D+00  0.0000000000000D+00  0.0000000000000D+00
405  4.0400000000000D+00  0.0000000000000D+00  0.0000000000000D+00
406  4.0500000000000D+00  0.0000000000000D+00  0.0000000000000D+00
407  4.0600000000000D+00  0.0000000000000D+00  0.0000000000000D+00
408  4.0700000000000D+00  0.0000000000000D+00  0.0000000000000D+00
409  4.0800000000000D+00  0.0000000000000D+00  0.0000000000000D+00
410  4.0900000000000D+00  0.0000000000000D+00  0.0000000000000D+00
411  4.1000000000000D+00  0.0000000000000D+00  0.0000000000000D+00
412  4.1100000000000D+00  0.0000000000000D+00  0.0000000000000D+00
413  4.1200000000000D+00  0.0000000000000D+00  0.0000000000000D+00
414  4.1300000000000D+00  0.0000000000000D+00  0.0000000000000D+00
415  4.1400000000000D+00  0.0000000000000D+00  0.0000000000000D+00
416  4.1500000000000D+00  0.0000000000000D+00  0.0000000000000D+00
417  4.1600000000000D+00  0.0000000000000D+00  0.0000000000000D+00
418  4.1700000000000D+00  0.0000000000000D+00  0.0000000000000D+00
419  4.1800000000000D+00  0.0000000000000D+00  0.0000000000000D+00
420  4.1900000000000D+00  0.0000000000000D+00  0.0000000000000D+00
421  4.2000000000000D+00  0.0000000000000D+00  0.0000000000000D+00
422  4.2100000000000D+00  0.0000000000000D+00  0.0000000000000D+00
423  4.2200000000000D+00  0.0000000000000D+00  0.0000000000000D+00
424  4.2300000000000D+00  0.0000000000000D+00  0.0000000000000D+00
425  4.2400000000000D+00  0.0000000000000D+00  0.0000000000000D+00
426  4.2500000000000D+00  0.0000000000000D+00  0.0000000000000D+00
427  4.2600000000000D+00  0.0000000000000D+00  0.0000000000000D+00
428  4.2700000000000D+00  0.0000000000000D+00  0.0000000000000D+00
429  4.2800000000000D+00  0.0000000000000D+00  0.0000000000000D+00
430  4.2900000000000D+00  0.0000000000000D+00  0.0000000000000D+00
431  4.3000000000000D+00  0.0000000000000D+00  0.0000000000000D+00
432  4.3100000000000D+00  0.0000000000000D+00  0.0000000000000D+00
433  4.3200000000000D+00  0.0000000000000D+00  0.0000000000000D+00
434  4.3300000000000D+00  0.0000000000000D+00  0.0000000000000D+00
435  4.3400000000000D+00  0.0000000000000D+00  0.0000000000000D+00
436  4.3500000000000D+00  0.0000000000000D+00  0.0000000000000D+00
437  4.3600000000000D+00  0.0000000000000D+00  0.0000000000000D+00
438  4.3700000000000D+00  0.0000000000000D+00  0.0000000000000D+00
439  4.3800000000000D+00  0.0000000000000D+00  0.0000000000000D+00
440  4.3900000000000D+00  0.0000000000000D+00  0.0000000000000D+00
441  4.4000000000000D+00  0.0000000000000D+00  0.0000000000000D+00
442  4.4100000000000D+00  0.0000000000000D+00  0.0000000000000D+00
443  4.4200000000000D+00  0.0000000000000D+00  0.0000000000000D+00
444  4.4300000000000D+00  0.0000000000000D+00  0.0000000000000D+00