As    ONCVPSP  r_core=  1.77  1.61  1.81
33.0000     15.0000      160905    zatom,zion,pspd
8   -1013   2     4   600     0    pspcod,pspxc,lmax,lloc,mmax,r2well
5.99000000  5.00000000  0.00000000    rchrg fchrg qchrg
2     3     2     0    nproj
3                 extension_switch
4     3     0    nprojso
0                         7.8902435826040D-01  7.5682330977809D+00
1  0.0000000000000D+00 -4.5675088711228D-11  5.6693538752484D-13
2  1.0000000000000D-02 -8.3818585511901D-03  3.1700188455838D-02
3  2.0000000000000D-02 -1.6794044179742D-02  6.3389419288945D-02
4  3.0000000000000D-02 -2.5266544111369D-02  9.5056696277330D-02
5  4.0000000000000D-02 -3.3828667972687D-02  1.2669094615646D-01
6  5.0000000000000D-02 -4.2508714240602D-02  1.5828098048782D-01
7  6.0000000000000D-02 -5.1333642958097D-02  1.8981545799487D-01
8  7.0000000000000D-02 -6.0328756751561D-02  2.2128284752159D-01
9  8.0000000000000D-02 -6.9517392139117D-02  2.5267139176822D-01
10  9.0000000000000D-02 -7.8920623062839D-02  2.8396907195808D-01
11  1.0000000000000D-01 -8.8556978510410D-02  3.1516357358844D-01
12  1.1000000000000D-01 -9.8442176014209D-02  3.4624225341753D-01
13  1.2000000000000D-01 -1.0858887272830D-01  3.7719210783823D-01
14  1.3000000000000D-01 -1.1900643568682D-01  4.0799974278780D-01
15  1.4000000000000D-01 -1.2970073274126D-01  4.3865134534108D-01
16  1.5000000000000D-01 -1.4067394555996D-01  4.6913265713299D-01
17  1.6000000000000D-01 -1.5192440595100D-01  4.9942894975341D-01
18  1.7000000000000D-01 -1.6344645664015D-01  5.2952500225568D-01
19  1.8000000000000D-01 -1.7523033750020D-01  5.5940508091661D-01
20  1.9000000000000D-01 -1.8726209808632D-01  5.8905292138308D-01
21  2.0000000000000D-01 -1.9952353718526D-01  6.1845171333659D-01
22  2.1000000000000D-01 -2.1199216993612D-01  6.4758408780345D-01
23  2.2000000000000D-01 -2.2464122292569D-01  6.7643210723372D-01
24  2.3000000000000D-01 -2.3743965750467D-01  7.0497725846762D-01
25  2.4000000000000D-01 -2.5035222141268D-01  7.3320044870250D-01
26  2.5000000000000D-01 -2.6333952864030D-01  7.6108200456830D-01
27  2.6000000000000D-01 -2.7635816729677D-01  7.8860167441269D-01
28  2.7000000000000D-01 -2.8936083509319D-01  8.1573863389076D-01
29  2.8000000000000D-01 -3.0229650189399D-01  8.4247149494675D-01
30  2.9000000000000D-01 -3.1511059863449D-01  8.6877831826732D-01
31  3.0000000000000D-01 -3.2774523175124D-01  8.9463662927771D-01
32  3.1000000000000D-01 -3.4013942212453D-01  9.2002343774284D-01
33  3.2000000000000D-01 -3.5222936739005D-01  9.4491526102588D-01
34  3.3000000000000D-01 -3.6394872634049D-01  9.6928815104680D-01
35  3.4000000000000D-01 -3.7522892400743D-01  9.9311772497190D-01
36  3.5000000000000D-01 -3.8599947589159D-01  1.0163791996547D+00
37  3.6000000000000D-01 -3.9618832969392D-01  1.0390474298355D+00
38  3.7000000000000D-01 -4.0572222279453D-01  1.0610969500950D+00
39  3.8000000000000D-01 -4.1452705362847D-01  1.0825020205439D+00
40  3.9000000000000D-01 -4.2252826502042D-01  1.1032366762148D+00
41  4.0000000000000D-01 -4.2965123746321D-01  1.1232747801122D+00
42  4.1000000000000D-01 -4.3582169025778D-01  1.1425900798568D+00
43  4.2000000000000D-01 -4.4096608837793D-01  1.1611562678468D+00
44  4.3000000000000D-01 -4.4501205287799D-01  1.1789470448448D+00
45  4.4000000000000D-01 -4.4788877263002D-01  1.1959361868783D+00
46  4.5000000000000D-01 -4.4952741515621D-01  1.2120976153290D+00
47  4.6000000000000D-01 -4.4986153431420D-01  1.2274054700659D+00
48  4.7000000000000D-01 -4.4882747259658D-01  1.2418341854623D+00
49  4.8000000000000D-01 -4.4636475582165D-01  1.2553585691176D+00
50  4.9000000000000D-01 -4.4241647802131D-01  1.2679538830871D+00
51  5.0000000000000D-01 -4.3692967437122D-01  1.2795959274072D+00
52  5.1000000000000D-01 -4.2985568006102D-01  1.2902611256823D+00
53  5.2000000000000D-01 -4.2115047306553D-01  1.2999266124863D+00
54  5.3000000000000D-01 -4.1077499885331D-01  1.3085703223101D+00
55  5.4000000000000D-01 -3.9869547515386D-01  1.3161710797732D+00
56  5.5000000000000D-01 -3.8488367500189D-01  1.3227086907973D+00
57  5.6000000000000D-01 -3.6931718638292D-01  1.3281640344282D+00
58  5.7000000000000D-01 -3.5197964692014D-01  1.3325191549715D+00
59  5.8000000000000D-01 -3.3286095216707D-01  1.3357573540983D+00
60  5.9000000000000D-01 -3.1195743620337D-01  1.3378632825584D+00
61  6.0000000000000D-01 -2.8927202337100D-01  1.3388230311308D+00
62  6.1000000000000D-01 -2.6481435013523D-01  1.3386242204238D+00
63  6.2000000000000D-01 -2.3860085620703D-01  1.3372560891319D+00
64  6.3000000000000D-01 -2.1065484422227D-01  1.3347095803444D+00
65  6.4000000000000D-01 -1.8100650743424D-01  1.3309774254926D+00
66  6.5000000000000D-01 -1.4969292504207D-01  1.3260542255190D+00
67  6.6000000000000D-01 -1.1675802494541D-01  1.3199365288442D+00
68  6.7000000000000D-01 -8.2252513884575D-02  1.3126229057063D+00
69  6.8000000000000D-01 -4.6233775096338D-02  1.3041140184467D+00
70  6.9000000000000D-01 -8.7657337837906D-03  1.2944126873157D+00
71  7.0000000000000D-01  3.0081309131265D-02  1.2835239513763D+00
72  7.1000000000000D-01  7.0230874341135D-02  1.2714551240875D+00
73  7.2000000000000D-01  1.1160053177305D-01  1.2582158431588D+00
74  7.3000000000000D-01  1.5410215754324D-01  1.2438181142737D+00
75  7.4000000000000D-01  1.9764221913535D-01  1.2282763482936D+00
76  7.5000000000000D-01  2.4212208754610D-01  1.2116073915688D+00
77  7.6000000000000D-01  2.8743837500050D-01  1.1938305489965D+00
78  7.7000000000000D-01  3.3348329670418D-01  1.1749675994882D+00
79  7.8000000000000D-01  3.8014505497520D-01  1.1550428035272D+00
80  7.9000000000000D-01  4.2730824398109D-01  1.1340829025218D+00
81  8.0000000000000D-01  4.7485427319926D-01  1.1121171096861D+00
82  8.1000000000000D-01  5.2266180762242D-01  1.0891770922058D+00
83  8.2000000000000D-01  5.7060722264365D-01  1.0652969444812D+00
84  8.3000000000000D-01  6.1856507148120D-01  1.0405131522660D+00
85  8.4000000000000D-01  6.6640856293915D-01  1.0148645475617D+00
86  8.5000000000000D-01  7.1401004724830D-01  9.8839225415711D-01
87  8.6000000000000D-01  7.6124150769265D-01  9.6113962374568D-01
88  8.7000000000000D-01  8.0797505569884D-01  9.3315216259102D-01
89  8.8000000000000D-01  8.5408342705228D-01  9.0447744875188D-01
90  8.9000000000000D-01  8.9944047690109D-01  8.7516503992202D-01
91  9.0000000000000D-01  9.4392167121925D-01  8.4526637198316D-01
92  9.1000000000000D-01  9.8740457242399D-01  8.1483464841447D-01
93  9.2000000000000D-01  1.0297693168770D+00  7.8392472074767D-01
94  9.3000000000000D-01  1.0708990820462D+00  7.5259296030286D-01
95  9.4000000000000D-01  1.1106805411650D+00  7.2089712148676D-01
96  9.5000000000000D-01  1.1490043032932D+00  6.8889619698166D-01
97  9.6000000000000D-01  1.1857653367683D+00  6.5665026519960D-01
98  9.7000000000000D-01  1.2208633741259D+00  6.2422033042295D-01
99  9.8000000000000D-01  1.2542032966669D+00  5.9166815609658D-01
100  9.9000000000000D-01  1.2856954969624D+00  5.5905609178259D-01
101  1.0000000000000D+00  1.3152562177060D+00  5.2644689433107D-01
102  1.0100000000000D+00  1.3428078654458D+00  4.9390354386201D-01
103  1.0200000000000D+00  1.3682792978655D+00  4.6148905519363D-01
104  1.0300000000000D+00  1.3916060834216D+00  4.2926628539031D-01
105  1.0400000000000D+00  1.4127307322910D+00  3.9729773813931D-01
106  1.0500000000000D+00  1.4316028977226D+00  3.6564536569699D-01
107  1.0600000000000D+00  1.4481795470521D+00  3.3437036917826D-01
108  1.0700000000000D+00  1.4624251017851D+00  3.0353299798824D-01
109  1.0800000000000D+00  1.4743115463110D+00  2.7319234921971D-01
110  1.0900000000000D+00  1.4838185049752D+00  2.4340616786150D-01
111  1.1000000000000D+00  1.4909332873715D+00  2.1423064867739D-01
112  1.1100000000000D+00  1.4956509019025D+00  1.8572024063168D-01
113  1.1200000000000D+00  1.4979740377833D+00  1.5792745474414D-01
114  1.1300000000000D+00  1.4979130158363D+00  1.3090267626221D-01
115  1.1400000000000D+00  1.4954857085417D+00  1.0469398203960D-01
116  1.1500000000000D+00  1.4907174299775D+00  7.9346964006856D-02
117  1.1600000000000D+00  1.4836407964062D+00  5.4904559610619D-02
118  1.1700000000000D+00  1.4742955584064D+00  3.1406890082585D-02
119  1.1800000000000D+00  1.4627284055360D+00  8.8911073893133D-03
120  1.1900000000000D+00  1.4489927446754D+00 -1.2608749315513D-02
121  1.2000000000000D+00  1.4331484532783D+00 -3.3061886939491D-02
122  1.2100000000000D+00  1.4152616088610D+00 -5.2440880635736D-02
123  1.2200000000000D+00  1.3954041961376D+00 -7.0721784184148D-02
124  1.2300000000000D+00  1.3736537933176D+00 -8.7884227885666D-02
125  1.2400000000000D+00  1.3500932391324D+00 -1.0391150333250D-01
126  1.2500000000000D+00  1.3248102821946D+00 -1.1879063443020D-01
127  1.2600000000000D+00  1.2978972143935D+00 -1.3251243414625D-01
128  1.2700000000000D+00  1.2694504900260D+00 -1.4507154650498D-01
129  1.2800000000000D+00  1.2395703323975D+00 -1.5646647336273D-01
130  1.2900000000000D+00  1.2083603296648D+00 -1.6669958562145D-01
131  1.3000000000000D+00  1.1759270216663D+00 -1.7577711859716D-01
132  1.3100000000000D+00  1.1423794795131D+00 -1.8370915125136D-01
133  1.3200000000000D+00  1.1078288796834D+00 -1.9050956917162D-01
134  1.3300000000000D+00  1.0723880743180D+00 -1.9619601121813D-01
135  1.3400000000000D+00  1.0361711594516D+00 -2.0078979975077D-01
136  1.3500000000000D+00  9.9929304277985D-01 -2.0431585457754D-01
137  1.3600000000000D+00  9.6186901256544D-01 -2.0680259072124D-01
138  1.3700000000000D+00  9.2401430926897D-01 -2.0828180018072D-01
139  1.3800000000000D+00  8.8584370127849D-01 -2.0878851806892D-01
140  1.3900000000000D+00  8.4747106624078D-01 -2.0836087338365D-01
141  1.4000000000000D+00  8.0900897926286D-01 -2.0703992491500D-01
142  1.4100000000000D+00  7.7056830916960D-01 -2.0486948282735D-01
143  1.4200000000000D+00  7.3225782412396D-01 -2.0189591639122D-01
144  1.4300000000000D+00  6.9418380745348D-01 -1.9816794867947D-01
145  1.4400000000000D+00  6.5644968483810D-01 -1.9373643881105D-01
146  1.4500000000000D+00  6.1915566362677D-01 -1.8865415261451D-01
147  1.4600000000000D+00  5.8239838500698D-01 -1.8297552257347D-01
148  1.4700000000000D+00  5.4627058989181D-01 -1.7675639787064D-01
149  1.4800000000000D+00  5.1086079878017D-01 -1.7005378565828D-01
150  1.4900000000000D+00  4.7625300643199D-01 -1.6292558438886D-01
151  1.5000000000000D+00  4.4252639140209D-01 -1.5543031043644D-01
152  1.5100000000000D+00  4.0975504094334D-01 -1.4762681899985D-01
153  1.5200000000000D+00  3.7800769139240D-01 -1.3957402048531D-01
154  1.5300000000000D+00  3.4734748408122D-01 -1.3133059353770D-01
155  1.5400000000000D+00  3.1783173700516D-01 -1.2295469588825D-01
156  1.5500000000000D+00  2.8951173108719D-01 -1.1450367415895D-01
157  1.5600000000000D+00  2.6243251244307D-01 -1.0603377398954D-01
158  1.5700000000000D+00  2.3663271250365D-01 -9.7599852042941D-02
159  1.5800000000000D+00  2.1214437794019D-01 -8.9255090328835D-02
160  1.5900000000000D+00  1.8899294046906D-01 -8.1050734557584D-02
161  1.6000000000000D+00  1.6719667092174D-01 -7.3035751047029D-02
162  1.6100000000000D+00  1.4676683572715D-01 -6.5256604131410D-02
163  1.6200000000000D+00  1.2770893372806D-01 -5.7757206723434D-02
164  1.6300000000000D+00  1.1002363032316D-01 -5.0578846905702D-02
165  1.6400000000000D+00  9.3708097839061D-02 -4.3760206517608D-02
166  1.6500000000000D+00  7.8756554171718D-02 -3.7337259047502D-02
167  1.6600000000000D+00  6.5159943922421D-02 -3.1343046878047D-02
168  1.6700000000000D+00  5.2906085495953D-02 -2.5807539809174D-02
169  1.6800000000000D+00  4.1979815840317D-02 -2.0757501776271D-02
170  1.6900000000000D+00  3.2363050445237D-02 -1.6216356775499D-02
171  1.7000000000000D+00  2.4034872580378D-02 -1.2204070565048D-02
172  1.7100000000000D+00  1.6974282052817D-02 -8.7386719321586D-03
173  1.7200000000000D+00  1.1149323931341D-02 -5.8295038317666D-03
174  1.7300000000000D+00  6.5190657183884D-03 -3.4777370353761D-03
175  1.7400000000000D+00  3.0790975750748D-03 -1.7061832499345D-03
176  1.7500000000000D+00  8.2450653503458D-04 -5.3786777952668D-04
177  1.7600000000000D+00 -3.3323106526824D-04  6.8534026160596D-05
178  1.7700000000000D+00 -5.7856022555764D-04  2.2409405687662D-04
179  1.7800000000000D+00 -2.7328369612430D-04  1.1300738544468D-04
180  1.7900000000000D+00  5.1053995624902D-05 -2.1444202927831D-05
181  1.8000000000000D+00  8.7077319513939D-05 -3.7062384318263D-05
182  1.8100000000000D+00 -4.8772968427720D-06  2.0098809652840D-06
183  1.8200000000000D+00 -2.0311016582275D-05  8.4200724612020D-06
184  1.8300000000000D+00 -1.0011123463652D-06  4.1685817698373D-07
185  1.8400000000000D+00  1.6425184838955D-06 -5.9225528370357D-07
186  1.8500000000000D+00  5.0970214508598D-07 -1.8378714851736D-07
187  1.8600000000000D+00  0.0000000000000D+00  0.0000000000000D+00
188  1.8700000000000D+00  0.0000000000000D+00  0.0000000000000D+00
189  1.8800000000000D+00  0.0000000000000D+00  0.0000000000000D+00
190  1.8900000000000D+00  0.0000000000000D+00  0.0000000000000D+00
191  1.9000000000000D+00  0.0000000000000D+00  0.0000000000000D+00
192  1.9100000000000D+00  0.0000000000000D+00  0.0000000000000D+00
193  1.9200000000000D+00  0.0000000000000D+00  0.0000000000000D+00
194  1.9300000000000D+00  0.0000000000000D+00  0.0000000000000D+00
195  1.9400000000000D+00  0.0000000000000D+00  0.0000000000000D+00
196  1.9500000000000D+00  0.0000000000000D+00  0.0000000000000D+00
197  1.9600000000000D+00  0.0000000000000D+00  0.0000000000000D+00
198  1.9700000000000D+00  0.0000000000000D+00  0.0000000000000D+00
199  1.9800000000000D+00  0.0000000000000D+00  0.0000000000000D+00
200  1.9900000000000D+00  0.0000000000000D+00  0.0000000000000D+00
201  2.0000000000000D+00  0.0000000000000D+00  0.0000000000000D+00
202  2.0100000000000D+00  0.0000000000000D+00  0.0000000000000D+00
203  2.0200000000000D+00  0.0000000000000D+00  0.0000000000000D+00
204  2.0300000000000D+00  0.0000000000000D+00  0.0000000000000D+00
205  2.0400000000000D+00  0.0000000000000D+00  0.0000000000000D+00
206  2.0500000000000D+00  0.0000000000000D+00  0.0000000000000D+00
207  2.0600000000000D+00  0.0000000000000D+00  0.0000000000000D+00
208  2.0700000000000D+00  0.0000000000000D+00  0.0000000000000D+00
209  2.0800000000000D+00  0.0000000000000D+00  0.0000000000000D+00
210  2.0900000000000D+00  0.0000000000000D+00  0.0000000000000D+00
211  2.1000000000000D+00  0.0000000000000D+00  0.0000000000000D+00
212  2.1100000000000D+00  0.0000000000000D+00  0.0000000000000D+00
213  2.1200000000000D+00  0.0000000000000D+00  0.0000000000000D+00
214  2.1300000000000D+00  0.0000000000000D+00  0.0000000000000D+00
215  2.1400000000000D+00  0.0000000000000D+00  0.0000000000000D+00
216  2.1500000000000D+00  0.0000000000000D+00  0.0000000000000D+00
217  2.1600000000000D+00  0.0000000000000D+00  0.0000000000000D+00
218  2.1700000000000D+00  0.0000000000000D+00  0.0000000000000D+00
219  2.1800000000000D+00  0.0000000000000D+00  0.0000000000000D+00
220  2.1900000000000D+00  0.0000000000000D+00  0.0000000000000D+00
221  2.2000000000000D+00  0.0000000000000D+00  0.0000000000000D+00
222  2.2100000000000D+00  0.0000000000000D+00  0.0000000000000D+00
223  2.2200000000000D+00  0.0000000000000D+00  0.0000000000000D+00
224  2.2300000000000D+00  0.0000000000000D+00  0.0000000000000D+00
225  2.2400000000000D+00  0.0000000000000D+00  0.0000000000000D+00
226  2.2500000000000D+00  0.0000000000000D+00  0.0000000000000D+00
227  2.2600000000000D+00  0.0000000000000D+00  0.0000000000000D+00
228  2.2700000000000D+00  0.0000000000000D+00  0.0000000000000D+00
229  2.2800000000000D+00  0.0000000000000D+00  0.0000000000000D+00
230  2.2900000000000D+00  0.0000000000000D+00  0.0000000000000D+00
231  2.3000000000000D+00  0.0000000000000D+00  0.0000000000000D+00
232  2.3100000000000D+00  0.0000000000000D+00  0.0000000000000D+00
233  2.3200000000000D+00  0.0000000000000D+00  0.0000000000000D+00
234  2.3300000000000D+00  0.0000000000000D+00  0.0000000000000D+00
235  2.3400000000000D+00  0.0000000000000D+00  0.0000000000000D+00
236  2.3500000000000D+00  0.0000000000000D+00  0.0000000000000D+00
237  2.3600000000000D+00  0.0000000000000D+00  0.0000000000000D+00
238  2.3700000000000D+00  0.0000000000000D+00  0.0000000000000D+00
239  2.3800000000000D+00  0.0000000000000D+00  0.0000000000000D+00
240  2.3900000000000D+00  0.0000000000000D+00  0.0000000000000D+00
241  2.4000000000000D+00  0.0000000000000D+00  0.0000000000000D+00
242  2.4100000000000D+00  0.0000000000000D+00  0.0000000000000D+00
243  2.4200000000000D+00  0.0000000000000D+00  0.0000000000000D+00
244  2.4300000000000D+00  0.0000000000000D+00  0.0000000000000D+00
245  2.4400000000000D+00  0.0000000000000D+00  0.0000000000000D+00
246  2.4500000000000D+00  0.0000000000000D+00  0.0000000000000D+00
247  2.4600000000000D+00  0.0000000000000D+00  0.0000000000000D+00
248  2.4700000000000D+00  0.0000000000000D+00  0.0000000000000D+00
249  2.4800000000000D+00  0.0000000000000D+00  0.0000000000000D+00
250  2.4900000000000D+00  0.0000000000000D+00  0.0000000000000D+00
251  2.5000000000000D+00  0.0000000000000D+00  0.0000000000000D+00
252  2.5100000000000D+00  0.0000000000000D+00  0.0000000000000D+00
253  2.5200000000000D+00  0.0000000000000D+00  0.0000000000000D+00
254  2.5300000000000D+00  0.0000000000000D+00  0.0000000000000D+00
255  2.5400000000000D+00  0.0000000000000D+00  0.0000000000000D+00
256  2.5500000000000D+00  0.0000000000000D+00  0.0000000000000D+00
257  2.5600000000000D+00  0.0000000000000D+00  0.0000000000000D+00
258  2.5700000000000D+00  0.0000000000000D+00  0.0000000000000D+00
259  2.5800000000000D+00  0.0000000000000D+00  0.0000000000000D+00
260  2.5900000000000D+00  0.0000000000000D+00  0.0000000000000D+00
261  2.6000000000000D+00  0.0000000000000D+00  0.0000000000000D+00
262  2.6100000000000D+00  0.0000000000000D+00  0.0000000000000D+00
263  2.6200000000000D+00  0.0000000000000D+00  0.0000000000000D+00
264  2.6300000000000D+00  0.0000000000000D+00  0.0000000000000D+00
265  2.6400000000000D+00  0.0000000000000D+00  0.0000000000000D+00
266  2.6500000000000D+00  0.0000000000000D+00  0.0000000000000D+00
267  2.6600000000000D+00  0.0000000000000D+00  0.0000000000000D+00
268  2.6700000000000D+00  0.0000000000000D+00  0.0000000000000D+00
269  2.6800000000000D+00  0.0000000000000D+00  0.0000000000000D+00
270  2.6900000000000D+00  0.0000000000000D+00  0.0000000000000D+00
271  2.7000000000000D+00  0.0000000000000D+00  0.0000000000000D+00
272  2.7100000000000D+00  0.0000000000000D+00  0.0000000000000D+00
273  2.7200000000000D+00  0.0000000000000D+00  0.0000000000000D+00
274  2.7300000000000D+00  0.0000000000000D+00  0.0000000000000D+00
275  2.7400000000000D+00  0.0000000000000D+00  0.0000000000000D+00
276  2.7500000000000D+00  0.0000000000000D+00  0.0000000000000D+00
277  2.7600000000000D+00  0.0000000000000D+00  0.0000000000000D+00
278  2.7700000000000D+00  0.0000000000000D+00  0.0000000000000D+00
279  2.7800000000000D+00  0.0000000000000D+00  0.0000000000000D+00
280  2.7900000000000D+00  0.0000000000000D+00  0.0000000000000D+00
281  2.8000000000000D+00  0.0000000000000D+00  0.0000000000000D+00
282  2.8100000000000D+00  0.0000000000000D+00  0.0000000000000D+00
283  2.8200000000000D+00  0.0000000000000D+00  0.0000000000000D+00
284  2.8300000000000D+00  0.0000000000000D+00  0.0000000000000D+00
285  2.8400000000000D+00  0.0000000000000D+00  0.0000000000000D+00
286  2.8500000000000D+00  0.0000000000000D+00  0.0000000000000D+00
287  2.8600000000000D+00  0.0000000000000D+00  0.0000000000000D+00
288  2.8700000000000D+00  0.0000000000000D+00  0.0000000000000D+00
289  2.8800000000000D+00  0.0000000000000D+00  0.0000000000000D+00
290  2.8900000000000D+00  0.0000000000000D+00  0.0000000000000D+00
291  2.9000000000000D+00  0.0000000000000D+00  0.0000000000000D+00
292  2.9100000000000D+00  0.0000000000000D+00  0.0000000000000D+00
293  2.9200000000000D+00  0.0000000000000D+00  0.0000000000000D+00
294  2.9300000000000D+00  0.0000000000000D+00  0.0000000000000D+00
295  2.9400000000000D+00  0.0000000000000D+00  0.0000000000000D+00
296  2.9500000000000D+00  0.0000000000000D+00  0.0000000000000D+00
297  2.9600000000000D+00  0.0000000000000D+00  0.0000000000000D+00
298  2.9700000000000D+00  0.0000000000000D+00  0.0000000000000D+00
299  2.9800000000000D+00  0.0000000000000D+00  0.0000000000000D+00
300  2.9900000000000D+00  0.0000000000000D+00  0.0000000000000D+00
301  3.0000000000000D+00  0.0000000000000D+00  0.0000000000000D+00
302  3.0100000000000D+00  0.0000000000000D+00  0.0000000000000D+00
303  3.0200000000000D+00  0.0000000000000D+00  0.0000000000000D+00
304  3.0300000000000D+00  0.0000000000000D+00  0.0000000000000D+00
305  3.0400000000000D+00  0.0000000000000D+00  0.0000000000000D+00
306  3.0500000000000D+00  0.0000000000000D+00  0.0000000000000D+00
307  3.0600000000000D+00  0.0000000000000D+00  0.0000000000000D+00
308  3.0700000000000D+00  0.0000000000000D+00  0.0000000000000D+00
309  3.0800000000000D+00  0.0000000000000D+00  0.0000000000000D+00
310  3.0900000000000D+00  0.0000000000000D+00  0.0000000000000D+00
311  3.1000000000000D+00  0.0000000000000D+00  0.0000000000000D+00
312  3.1100000000000D+00  0.0000000000000D+00  0.0000000000000D+00
313  3.1200000000000D+00  0.0000000000000D+00  0.0000000000000D+00
314  3.1300000000000D+00  0.0000000000000D+00  0.0000000000000D+00
315  3.1400000000000D+00  0.0000000000000D+00  0.0000000000000D+00
316  3.1500000000000D+00  0.0000000000000D+00  0.0000000000000D+00
317  3.1600000000000D+00  0.0000000000000D+00  0.0000000000000D+00
318  3.1700000000000D+00  0.0000000000000D+00  0.0000000000000D+00
319  3.1800000000000D+00  0.0000000000000D+00  0.0000000000000D+00
320  3.1900000000000D+00  0.0000000000000D+00  0.0000000000000D+00
321  3.2000000000000D+00  0.0000000000000D+00  0.0000000000000D+00
322  3.2100000000000D+00  0.0000000000000D+00  0.0000000000000D+00
323  3.2200000000000D+00  0.0000000000000D+00  0.0000000000000D+00
324  3.2300000000000D+00  0.0000000000000D+00  0.0000000000000D+00
325  3.2400000000000D+00  0.0000000000000D+00  0.0000000000000D+00
326  3.2500000000000D+00  0.0000000000000D+00  0.0000000000000D+00
327  3.2600000000000D+00  0.0000000000000D+00  0.0000000000000D+00
328  3.2700000000000D+00  0.0000000000000D+00  0.0000000000000D+00
329  3.2800000000000D+00  0.0000000000000D+00  0.0000000000000D+00
330  3.2900000000000D+00  0.0000000000000D+00  0.0000000000000D+00
331  3.3000000000000D+00  0.0000000000000D+00  0.0000000000000D+00
332  3.3100000000000D+00  0.0000000000000D+00  0.0000000000000D+00
333  3.3200000000000D+00  0.0000000000000D+00  0.0000000000000D+00
334  3.3300000000000D+00  0.0000000000000D+00  0.0000000000000D+00
335  3.3400000000000D+00  0.0000000000000D+00  0.0000000000000D+00
336  3.3500000000000D+00  0.0000000000000D+00  0.0000000000000D+00
337  3.3600000000000D+00  0.0000000000000D+00  0.0000000000000D+00
338  3.3700000000000D+00  0.0000000000000D+00  0.0000000000000D+00
339  3.3800000000000D+00  0.0000000000000D+00  0.0000000000000D+00
340  3.3900000000000D+00  0.0000000000000D+00  0.0000000000000D+00
341  3.4000000000000D+00  0.0000000000000D+00  0.0000000000000D+00
342  3.4100000000000D+00  0.0000000000000D+00  0.0000000000000D+00
343  3.4200000000000D+00  0.0000000000000D+00  0.0000000000000D+00
344  3.4300000000000D+00  0.0000000000000D+00  0.0000000000000D+00
345  3.4400000000000D+00  0.0000000000000D+00  0.0000000000000D+00
346  3.4500000000000D+00  0.0000000000000D+00  0.0000000000000D+00
347  3.4600000000000D+00  0.0000000000000D+00  0.0000000000000D+00
348  3.4700000000000D+00  0.0000000000000D+00  0.0000000000000D+00
349  3.4800000000000D+00  0.0000000000000D+00  0.0000000000000D+00
350  3.4900000000000D+00  0.0000000000000D+00  0.0000000000000D+00
351  3.5000000000000D+00  0.0000000000000D+00  0.0000000000000D+00
352  3.5100000000000D+00  0.0000000000000D+00  0.0000000000000D+00
353  3.5200000000000D+00  0.0000000000000D+00  0.0000000000000D+00
354  3.5300000000000D+00  0.0000000000000D+00  0.0000000000000D+00
355  3.5400000000000D+00  0.0000000000000D+00  0.0000000000000D+00
356  3.5500000000000D+00  0.0000000000000D+00  0.0000000000000D+00
357  3.5600000000000D+00  0.0000000000000D+00  0.0000000000000D+00
358  3.5700000000000D+00  0.0000000000000D+00  0.0000000000000D+00
359  3.5800000000000D+00  0.0000000000000D+00  0.0000000000000D+00
360  3.5900000000000D+00  0.0000000000000D+00  0.0000000000000D+00
361  3.6000000000000D+00  0.0000000000000D+00  0.0000000000000D+00
362  3.6100000000000D+00  0.0000000000000D+00  0.0000000000000D+00
363  3.6200000000000D+00  0.0000000000000D+00  0.0000000000000D+00
364  3.6300000000000D+00  0.0000000000000D+00  0.0000000000000D+00
365  3.6400000000000D+00  0.0000000000000D+00  0.0000000000000D+00
366  3.6500000000000D+00  0.0000000000000D+00  0.0000000000000D+00
367  3.6600000000000D+00  0.0000000000000D+00  0.0000000000000D+00
368  3.6700000000000D+00  0.0000000000000D+00  0.0000000000000D+00
369  3.6800000000000D+00  0.0000000000000D+00  0.0000000000000D+00
370  3.6900000000000D+00  0.0000000000000D+00  0.0000000000000D+00
371  3.7000000000000D+00  0.0000000000000D+00  0.0000000000000D+00
372  3.7100000000000D+00  0.0000000000000D+00  0.0000000000000D+00
373  3.7200000000000D+00  0.0000000000000D+00  0.0000000000000D+00
374  3.7300000000000D+00  0.0000000000000D+00  0.0000000000000D+00
375  3.7400000000000D+00  0.0000000000000D+00  0.0000000000000D+00
376  3.7500000000000D+00  0.0000000000000D+00  0.0000000000000D+00
377  3.7600000000000D+00  0.0000000000000D+00  0.0000000000000D+00
378  3.7700000000000D+00  0.0000000000000D+00  0.0000000000000D+00
379  3.7800000000000D+00  0.0000000000000D+00  0.0000000000000D+00
380  3.7900000000000D+00  0.0000000000000D+00  0.0000000000000D+00
381  3.8000000000000D+00  0.0000000000000D+00  0.0000000000000D+00
382  3.8100000000000D+00  0.0000000000000D+00  0.0000000000000D+00
383  3.8200000000000D+00  0.0000000000000D+00  0.0000000000000D+00
384  3.8300000000000D+00  0.0000000000000D+00  0.0000000000000D+00
385  3.8400000000000D+00  0.0000000000000D+00  0.0000000000000D+00
386  3.8500000000000D+00  0.0000000000000D+00  0.0000000000000D+00
387  3.8600000000000D+00  0.0000000000000D+00  0.0000000000000D+00
388  3.8700000000000D+00  0.0000000000000D+00  0.0000000000000D+00
389  3.8800000000000D+00  0.0000000000000D+00  0.0000000000000D+00
390  3.8900000000000D+00  0.0000000000000D+00  0.0000000000000D+00
391  3.9000000000000D+00  0.0000000000000D+00  0.0000000000000D+00
392  3.9100000000000D+00  0.0000000000000D+00  0.0000000000000D+00
393  3.9200000000000D+00  0.0000000000000D+00  0.0000000000000D+00
394  3.9300000000000D+00  0.0000000000000D+00  0.0000000000000D+00
395  3.9400000000000D+00  0.0000000000000D+00  0.0000000000000D+00
396  3.9500000000000D+00  0.0000000000000D+00  0.0000000000000D+00
397  3.9600000000000D+00  0.0000000000000D+00  0.0000000000000D+00
398  3.9700000000000D+00  0.0000000000000D+00  0.0000000000000D+00
399  3.9800000000000D+00  0.0000000000000D+00  0.0000000000000D+00
400  3.9900000000000D+00  0.0000000000000D+00  0.0000000000000D+00
401  4.0000000000000D+00  0.0000000000000D+00  0.0000000000000D+00
402  4.0100000000000D+00  0.0000000000000D+00  0.0000000000000D+00
403  4.0200000000000D+00  0.0000000000000D+00  0.0000000000000D+00
404  4.0300000000000D+00  0.0000000000000D+00  0.0000000000000D+00
405  4.0400000000000D+00  0.0000000000000D+00  0.0000000000000D+00
406  4.0500000000000D+00  0.0000000000000D+00  0.0000000000000D+00
407  4.0600000000000D+00  0.0000000000000D+00  0.0000000000000D+00
408  4.0700000000000D+00  0.0000000000000D+00  0.0000000000000D+00
409  4.0800000000000D+00  0.0000000000000D+00  0.0000000000000D+00
410  4.0900000000000D+00  0.0000000000000D+00  0.0000000000000D+00
411  4.1000000000000D+00  0.0000000000000D+00  0.0000000000000D+00
412  4.1100000000000D+00  0.0000000000000D+00  0.0000000000000D+00
413  4.1200000000000D+00  0.0000000000000D+00  0.0000000000000D+00
414  4.1300000000000D+00  0.0000000000000D+00  0.0000000000000D+00
415  4.1400000000000D+00  0.0000000000000D+00  0.0000000000000D+00
416  4.1500000000000D+00  0.0000000000000D+00  0.0000000000000D+00
417  4.1600000000000D+00  0.0000000000000D+00  0.0000000000000D+00
418  4.1700000000000D+00  0.0000000000000D+00  0.0000000000000D+00
419  4.1800000000000D+00  0.0000000000000D+00  0.0000000000000D+00
420  4.1900000000000D+00  0.0000000000000D+00  0.0000000000000D+00
421  4.2000000000000D+00  0.0000000000000D+00  0.0000000000000D+00
422  4.2100000000000D+00  0.0000000000000D+00  0.0000000000000D+00
423  4.2200000000000D+00  0.0000000000000D+00  0.0000000000000D+00
424  4.2300000000000D+00  0.0000000000000D+00  0.0000000000000D+00
425  4.2400000000000D+00  0.0000000000000D+00  0.0000000000000D+00
426  4.2500000000000D+00  0.0000000000000D+00  0.0000000000000D+00
427  4.2600000000000D+00  0.0000000000000D+00  0.0000000000000D+00
428  4.2700000000000D+00  0.0000000000000D+00  0.0000000000000D+00
429  4.2800000000000D+00  0.0000000000000D+00  0.0000000000000D+00
430  4.2900000000000D+00  0.0000000000000D+00  0.0000000000000D+00
431  4.3000000000000D+00  0.0000000000000D+00  0.0000000000000D+00
432  4.3100000000000D+00  0.0000000000000D+00  0.0000000000000D+00
433  4.3200000000000D+00  0.0000000000000D+00  0.0000000000000D+00
434  4.3300000000000D+00  0.0000000000000D+00  0.0000000000000D+00
435  4.3400000000000D+00  0.0000000000000D+00  0.0000000000000D+00
436  4.3500000000000D+00  0.0000000000000D+00  0.0000000000000D+00
437  4.3600000000000D+00  0.0000000000000D+00  0.0000000000000D+00
438  4.3700000000000D+00  0.0000000000000D+00  0.0000000000000D+00
439  4.3800000000000D+00  0.0000000000000D+00  0.0000000000000D+00
440  4.3900000000000D+00  0.0000000000000D+00  0.0000000000000D+00
441  4.4000000000000D+00  0.0000000000000D+00  0.0000000000000D+00
442  4.4100000000000D+00  0.0000000000000D+00  0.0000000000000D+00
443  4.4200000000000D+00  0.0000000000000D+00  0.0000000000000D+00