He    ONCVPSP  r_core=  1.26  1.14
2.0000      2.0000      161004    zatom,zion,pspd
8 -116133   1     4   600     0    pspcod,pspxc,lmax,lloc,mmax,r2well
5.99000000  0.00000000  0.00000000    rchrg fchrg qchrg
2     1     0     0     0    nproj
1                 extension_switch
0                        -4.0196513412309D+00 -1.2229737093419D+00
1  0.0000000000000D+00  4.5888619570889D-09 -7.6191845610474D-09
2  1.0000000000000D-02  1.1161226966788D-01 -2.0323065475097D-02
3  2.0000000000000D-02  2.2290020143170D-01 -4.0549541139691D-02
4  3.0000000000000D-02  3.3353847659589D-01 -6.0579645545435D-02
5  4.0000000000000D-02  4.4319986890822D-01 -8.0307309113322D-02
6  5.0000000000000D-02  5.5155442464238D-01 -9.9617265931220D-02
7  6.0000000000000D-02  6.5826879996256D-01 -1.1838242302610D-01
8  7.0000000000000D-02  7.6300580248219D-01 -1.3646159044901D-01
9  8.0000000000000D-02  8.6542417934014D-01 -1.5369764789155D-01
10  9.0000000000000D-02  9.6517868855139D-01 -1.6991621430715D-01
11  1.0000000000000D-01  1.0619204839545D+00 -1.8492487631583D-01
12  1.1000000000000D-01  1.1552978369010D+00 -1.9851301923482D-01
13  1.2000000000000D-01  1.2449572100504D+00 -2.1045229162805D-01
14  1.3000000000000D-01  1.3305446904085D+00 -2.2049772055764D-01
15  1.4000000000000D-01  1.4117077802255D+00 -2.2838948051316D-01
16  1.5000000000000D-01  1.4880975357397D+00 -2.3385530456855D-01
17  1.6000000000000D-01  1.5593710351653D+00 -2.3661351195140D-01
18  1.7000000000000D-01  1.6251941489678D+00 -2.3637661218706D-01
19  1.8000000000000D-01  1.6852445774988D+00 -2.3285543257675D-01
20  1.9000000000000D-01  1.7392151136539D+00 -2.2576370324980D-01
21  2.0000000000000D-01  1.7868170815050D+00 -2.1482302264554D-01
22  2.1000000000000D-01  1.8277838959979D+00 -1.9976811625962D-01
23  2.2000000000000D-01  1.8618746839124D+00 -1.8035229303909D-01
24  2.3000000000000D-01  1.8888779024638D+00 -1.5635299710494D-01
25  2.4000000000000D-01  1.9086148892738D+00 -1.2757734766749D-01
26  2.5000000000000D-01  1.9209432760102D+00 -9.3867557187090D-02
27  2.6000000000000D-01  1.9257601978487D+00 -5.5106117094079D-02
28  2.7000000000000D-01  1.9230052320458D+00 -1.1220641752629D-02
29  2.8000000000000D-01  1.9126630013440D+00  3.7811735171064D-02
30  2.9000000000000D-01  1.8947653816160D+00  9.1960512240056D-02
31  3.0000000000000D-01  1.8693932580520D+00  1.5113861246560D-01
32  3.1000000000000D-01  1.8366777802187D+00  2.1519989962838D-01
33  3.2000000000000D-01  1.7968010733842D+00  2.8393749103878D-01
34  3.3000000000000D-01  1.7499963714826D+00  3.5708292647843D-01
35  3.4000000000000D-01  1.6965475458580D+00  4.3430623917158D-01
36  3.5000000000000D-01  1.6367880133299D+00  5.1521695968319D-01
37  3.6000000000000D-01  1.5710990169928D+00  5.9936606789430D-01
38  3.7000000000000D-01  1.4999072833336D+00  6.8624889194530D-01
39  3.8000000000000D-01  1.4236820695442D+00  7.7530893655158D-01
40  3.9000000000000D-01  1.3429316251332D+00  8.6594260668378D-01
41  4.0000000000000D-01  1.2581991019206D+00  9.5750477656231D-01
42  4.1000000000000D-01  1.1700579560586D+00  1.0493151385339D+00
43  4.2000000000000D-01  1.0791068946735D+00  1.1406652519614D+00
44  4.3000000000000D-01  9.8596442791676D-01  1.2308261990320D+00
45  4.4000000000000D-01  8.9126309449006D-01  1.3190567426184D+00
46  4.5000000000000D-01  7.9564343493275D-01  1.4046118712384D+00
47  4.6000000000000D-01  6.9974779201797D-01  1.4867516079355D+00
48  4.7000000000000D-01  6.0421402139270D-01  1.5647499537138D+00
49  4.8000000000000D-01  5.0966919804470D-01  1.6379038321241D+00
50  4.9000000000000D-01  4.1672340523261D-01  1.7055418998003D+00
51  5.0000000000000D-01  3.2596369214682D-01  1.7670330882359D+00
52  5.1000000000000D-01  2.3794828477626D-01  1.8217947448677D+00
53  5.2000000000000D-01  1.5320113126092D-01  1.8693002465737D+00
54  5.3000000000000D-01  7.2206858461926D-02  1.9090859659054D+00
55  5.4000000000000D-01 -4.5937893461480D-03  1.9407574796506D+00
56  5.5000000000000D-01 -7.6807965782190D-02  1.9639949205282D+00
57  5.6000000000000D-01 -1.4409413586090D-01  1.9785573857114D+00
58  5.7000000000000D-01 -2.0616484092841D-01  1.9842863303277D+00
59  5.8000000000000D-01 -2.6278877806186D-01  1.9811078897420D+00
60  5.9000000000000D-01 -3.1379216740641D-01  1.9690340911395D+00
61  6.0000000000000D-01 -3.5905939177312D-01  1.9481629322770D+00
62  6.1000000000000D-01 -3.9853290397231D-01  1.9186773231172D+00
63  6.2000000000000D-01 -4.3221240850640D-01  1.8808429038891D+00
64  6.3000000000000D-01 -4.6015333536306D-01  1.8350047708906D+00
65  6.4000000000000D-01 -4.8246463435090D-01  1.7815831584499D+00
66  6.5000000000000D-01 -4.9930592870526D-01  1.7210681418763D+00
67  6.6000000000000D-01 -5.1088407627589D-01  1.6540134415123D+00
68  6.7000000000000D-01 -5.1744919533529D-01  1.5810294218851D+00
69  6.8000000000000D-01 -5.1929021984148D-01  1.5027753923328D+00
70  6.9000000000000D-01 -5.1673005564156D-01  1.4199513259986D+00
71  7.0000000000000D-01 -5.1012041454440D-01  1.3332891226485D+00
72  7.1000000000000D-01 -4.9983640731931D-01  1.2435435471990D+00
73  7.2000000000000D-01 -4.8627097945810D-01  1.1514829800857D+00
74  7.3000000000000D-01 -4.6982927487900D-01  1.0578801175189D+00
75  7.4000000000000D-01 -4.5092301268686D-01  9.6350275931435D-01
76  7.5000000000000D-01 -4.2996496061588D-01  8.6910481931744D-01
77  7.6000000000000D-01 -4.0736358592607D-01  7.7541768856676D-01
78  7.7000000000000D-01 -3.8351796034905D-01  6.8314207432597D-01
79  7.8000000000000D-01 -3.5881299025965D-01  5.9294042909222D-01
80  7.9000000000000D-01 -3.3361503672406D-01  5.0543007287929D-01
81  8.0000000000000D-01 -3.0826798253431D-01  4.2117709962522D-01
82  8.1000000000000D-01 -2.8308979494338D-01  3.4069114475043D-01
83  8.2000000000000D-01 -2.5836962371818D-01  2.6442107593975D-01
84  8.3000000000000D-01 -2.3436546449679D-01  1.9275165341565D-01
85  8.4000000000000D-01 -2.1130240745033D-01  1.2600118959860D-01
86  8.5000000000000D-01 -1.8937148108980D-01  6.4420221409905D-02
87  8.6000000000000D-01 -1.6872909090857D-01  8.1911918623324D-03
88  8.7000000000000D-01 -1.4949704259445D-01 -4.2570878700338D-02
89  8.8000000000000D-01 -1.3176312995835D-01 -8.7816767022742D-02
90  8.9000000000000D-01 -1.1558225867792D-01 -1.2756051710510D-01
91  9.0000000000000D-01 -1.0097806860299D-01 -1.6187606984242D-01
92  9.1000000000000D-01 -8.7945009856319D-02 -1.9089312811918D-01
93  9.2000000000000D-01 -7.6450821415770D-02 -2.1479234401970D-01
94  9.3000000000000D-01 -6.6439355389075D-02 -2.3379992373572D-01
95  9.4000000000000D-01 -5.7833685874939D-02 -2.4818175277944D-01
96  9.5000000000000D-01 -5.0539438208974D-02 -2.5823714913924D-01
97  9.6000000000000D-01 -4.4448272550519D-02 -2.6429235499528D-01
98  9.7000000000000D-01 -3.9441455247190D-02 -2.6669387843035D-01
99  9.8000000000000D-01 -3.5393452627648D-02 -2.6580179411884D-01
100  9.9000000000000D-01 -3.2175483190284D-02 -2.6198311057221D-01
101  1.0000000000000D+00 -2.9658938562983D-02 -2.5560537319131D-01
102  1.0100000000000D+00 -2.7718781132562D-02 -2.4703020848818D-01
103  1.0200000000000D+00 -2.6236164282671D-02 -2.3660857487219D-01
104  1.0300000000000D+00 -2.5099722414652D-02 -2.2467894645862D-01
105  1.0400000000000D+00 -2.4206500175144D-02 -2.1156595734155D-01
106  1.0500000000000D+00 -2.3463684039252D-02 -1.9757680528788D-01
107  1.0600000000000D+00 -2.2790033802230D-02 -1.8299811292104D-01
108  1.0700000000000D+00 -2.2116914712915D-02 -1.6809348568127D-01
109  1.0800000000000D+00 -2.1388956258651D-02 -1.5310169602148D-01
110  1.0900000000000D+00 -2.0564334670458D-02 -1.3823550615622D-01
111  1.1000000000000D+00 -1.9614686329488D-02 -1.2368112108679D-01
112  1.1100000000000D+00 -1.8524671244836D-02 -1.0959824189255D-01
113  1.1200000000000D+00 -1.7291211132184D-02 -9.6120680975965D-02
114  1.1300000000000D+00 -1.5922433857103D-02 -8.3357489059669D-02
115  1.1400000000000D+00 -1.4436360417092D-02 -7.1394536667781D-02
116  1.1500000000000D+00 -1.2859377654893D-02 -6.0296480675109D-02
117  1.1600000000000D+00 -1.1224541948565D-02 -5.0109043718556D-02
118  1.1700000000000D+00 -9.5697621297036D-03 -4.0861529129134D-02
119  1.1800000000000D+00 -7.9359113629921D-03 -3.2569491625325D-02
120  1.1900000000000D+00 -6.3649205655203D-03 -2.5237478320690D-02
121  1.2000000000000D+00 -4.8979027855403D-03 -1.8861760652257D-02
122  1.2100000000000D+00 -3.5733562058284D-03 -1.3432980717845D-02
123  1.2200000000000D+00 -2.4254928461704D-03 -8.9386357789778D-03
124  1.2300000000000D+00 -1.4833003811239D-03 -5.3672671432505D-03
125  1.2400000000000D+00 -7.6304814641930D-04 -2.6904485295948D-03
126  1.2500000000000D+00 -2.9025387020867D-04 -9.3670579485938D-04
127  1.2600000000000D+00 -7.2304244864501D-05 -1.0711695515494D-04
128  1.2700000000000D+00 -7.6291996054359D-06  7.6027302227705D-05
129  1.2800000000000D+00 -6.5650112695632D-09 -3.8368604531070D-07
130  1.2900000000000D+00 -8.5586551935903D-07 -1.6032398238102D-05
131  1.3000000000000D+00  1.0028328415461D-08  3.2732769500310D-06
132  1.3100000000000D+00  1.0529325728105D-08  5.8826539010882D-07
133  1.3200000000000D+00  8.1761952146854D-08 -1.0300359530403D-07
134  1.3300000000000D+00  0.0000000000000D+00  0.0000000000000D+00
135  1.3400000000000D+00  0.0000000000000D+00  0.0000000000000D+00
136  1.3500000000000D+00  0.0000000000000D+00  0.0000000000000D+00
137  1.3600000000000D+00  0.0000000000000D+00  0.0000000000000D+00
138  1.3700000000000D+00  0.0000000000000D+00  0.0000000000000D+00
139  1.3800000000000D+00  0.0000000000000D+00  0.0000000000000D+00
140  1.3900000000000D+00  0.0000000000000D+00  0.0000000000000D+00
141  1.4000000000000D+00  0.0000000000000D+00  0.0000000000000D+00
142  1.4100000000000D+00  0.0000000000000D+00  0.0000000000000D+00
143  1.4200000000000D+00  0.0000000000000D+00  0.0000000000000D+00
144  1.4300000000000D+00  0.0000000000000D+00  0.0000000000000D+00
145  1.4400000000000D+00  0.0000000000000D+00  0.0000000000000D+00
146  1.4500000000000D+00  0.0000000000000D+00  0.0000000000000D+00
147  1.4600000000000D+00  0.0000000000000D+00  0.0000000000000D+00
148  1.4700000000000D+00  0.0000000000000D+00  0.0000000000000D+00
149  1.4800000000000D+00  0.0000000000000D+00  0.0000000000000D+00
150  1.4900000000000D+00  0.0000000000000D+00  0.0000000000000D+00
151  1.5000000000000D+00  0.0000000000000D+00  0.0000000000000D+00
152  1.5100000000000D+00  0.0000000000000D+00  0.0000000000000D+00
153  1.5200000000000D+00  0.0000000000000D+00  0.0000000000000D+00
154  1.5300000000000D+00  0.0000000000000D+00  0.0000000000000D+00
155  1.5400000000000D+00  0.0000000000000D+00  0.0000000000000D+00
156  1.5500000000000D+00  0.0000000000000D+00  0.0000000000000D+00
157  1.5600000000000D+00  0.0000000000000D+00  0.0000000000000D+00
158  1.5700000000000D+00  0.0000000000000D+00  0.0000000000000D+00
159  1.5800000000000D+00  0.0000000000000D+00  0.0000000000000D+00
160  1.5900000000000D+00  0.0000000000000D+00  0.0000000000000D+00
161  1.6000000000000D+00  0.0000000000000D+00  0.0000000000000D+00
162  1.6100000000000D+00  0.0000000000000D+00  0.0000000000000D+00
163  1.6200000000000D+00  0.0000000000000D+00  0.0000000000000D+00
164  1.6300000000000D+00  0.0000000000000D+00  0.0000000000000D+00
165  1.6400000000000D+00  0.0000000000000D+00  0.0000000000000D+00
166  1.6500000000000D+00  0.0000000000000D+00  0.0000000000000D+00
167  1.6600000000000D+00  0.0000000000000D+00  0.0000000000000D+00
168  1.6700000000000D+00  0.0000000000000D+00  0.0000000000000D+00
169  1.6800000000000D+00  0.0000000000000D+00  0.0000000000000D+00
170  1.6900000000000D+00  0.0000000000000D+00  0.0000000000000D+00
171  1.7000000000000D+00  0.0000000000000D+00  0.0000000000000D+00
172  1.7100000000000D+00  0.0000000000000D+00  0.0000000000000D+00
173  1.7200000000000D+00  0.0000000000000D+00  0.0000000000000D+00
174  1.7300000000000D+00  0.0000000000000D+00  0.0000000000000D+00
175  1.7400000000000D+00  0.0000000000000D+00  0.0000000000000D+00
176  1.7500000000000D+00  0.0000000000000D+00  0.0000000000000D+00
177  1.7600000000000D+00  0.0000000000000D+00  0.0000000000000D+00
178  1.7700000000000D+00  0.0000000000000D+00  0.0000000000000D+00
179  1.7800000000000D+00  0.0000000000000D+00  0.0000000000000D+00
180  1.7900000000000D+00  0.0000000000000D+00  0.0000000000000D+00
181  1.8000000000000D+00  0.0000000000000D+00  0.0000000000000D+00
182  1.8100000000000D+00  0.0000000000000D+00  0.0000000000000D+00
183  1.8200000000000D+00  0.0000000000000D+00  0.0000000000000D+00
184  1.8300000000000D+00  0.0000000000000D+00  0.0000000000000D+00
185  1.8400000000000D+00  0.0000000000000D+00  0.0000000000000D+00
186  1.8500000000000D+00  0.0000000000000D+00  0.0000000000000D+00
187  1.8600000000000D+00  0.0000000000000D+00  0.0000000000000D+00
188  1.8700000000000D+00  0.0000000000000D+00  0.0000000000000D+00
189  1.8800000000000D+00  0.0000000000000D+00  0.0000000000000D+00
190  1.8900000000000D+00  0.0000000000000D+00  0.0000000000000D+00
191  1.9000000000000D+00  0.0000000000000D+00  0.0000000000000D+00
192  1.9100000000000D+00  0.0000000000000D+00  0.0000000000000D+00
193  1.9200000000000D+00  0.0000000000000D+00  0.0000000000000D+00
194  1.9300000000000D+00  0.0000000000000D+00  0.0000000000000D+00
195  1.9400000000000D+00  0.0000000000000D+00  0.0000000000000D+00
196  1.9500000000000D+00  0.0000000000000D+00  0.0000000000000D+00
197  1.9600000000000D+00  0.0000000000000D+00  0.0000000000000D+00
198  1.9700000000000D+00  0.0000000000000D+00  0.0000000000000D+00
199  1.9800000000000D+00  0.0000000000000D+00  0.0000000000000D+00
200  1.9900000000000D+00  0.0000000000000D+00  0.0000000000000D+00
201  2.0000000000000D+00  0.0000000000000D+00  0.0000000000000D+00
202  2.0100000000000D+00  0.0000000000000D+00  0.0000000000000D+00
203  2.0200000000000D+00  0.0000000000000D+00  0.0000000000000D+00
204  2.0300000000000D+00  0.0000000000000D+00  0.0000000000000D+00
205  2.0400000000000D+00  0.0000000000000D+00  0.0000000000000D+00
206  2.0500000000000D+00  0.0000000000000D+00  0.0000000000000D+00
207  2.0600000000000D+00  0.0000000000000D+00  0.0000000000000D+00
208  2.0700000000000D+00  0.0000000000000D+00  0.0000000000000D+00
209  2.0800000000000D+00  0.0000000000000D+00  0.0000000000000D+00
210  2.0900000000000D+00  0.0000000000000D+00  0.0000000000000D+00
211  2.1000000000000D+00  0.0000000000000D+00  0.0000000000000D+00
212  2.1100000000000D+00  0.0000000000000D+00  0.0000000000000D+00
213  2.1200000000000D+00  0.0000000000000D+00  0.0000000000000D+00
214  2.1300000000000D+00  0.0000000000000D+00  0.0000000000000D+00
215  2.1400000000000D+00  0.0000000000000D+00  0.0000000000000D+00
216  2.1500000000000D+00  0.0000000000000D+00  0.0000000000000D+00
217  2.1600000000000D+00  0.0000000000000D+00  0.0000000000000D+00
218  2.1700000000000D+00  0.0000000000000D+00  0.0000000000000D+00
219  2.1800000000000D+00  0.0000000000000D+00  0.0000000000000D+00
220  2.1900000000000D+00  0.0000000000000D+00  0.0000000000000D+00
221  2.2000000000000D+00  0.0000000000000D+00  0.0000000000000D+00
222  2.2100000000000D+00  0.0000000000000D+00  0.0000000000000D+00
223  2.2200000000000D+00  0.0000000000000D+00  0.0000000000000D+00
224  2.2300000000000D+00  0.0000000000000D+00  0.0000000000000D+00
225  2.2400000000000D+00  0.0000000000000D+00  0.0000000000000D+00
226  2.2500000000000D+00  0.0000000000000D+00  0.0000000000000D+00
227  2.2600000000000D+00  0.0000000000000D+00  0.0000000000000D+00
228  2.2700000000000D+00  0.0000000000000D+00  0.0000000000000D+00
229  2.2800000000000D+00  0.0000000000000D+00  0.0000000000000D+00
230  2.2900000000000D+00  0.0000000000000D+00  0.0000000000000D+00
231  2.3000000000000D+00  0.0000000000000D+00  0.0000000000000D+00
232  2.3100000000000D+00  0.0000000000000D+00  0.0000000000000D+00
233  2.3200000000000D+00  0.0000000000000D+00  0.0000000000000D+00
234  2.3300000000000D+00  0.0000000000000D+00  0.0000000000000D+00
235  2.3400000000000D+00  0.0000000000000D+00  0.0000000000000D+00
236  2.3500000000000D+00  0.0000000000000D+00  0.0000000000000D+00
237  2.3600000000000D+00  0.0000000000000D+00  0.0000000000000D+00
238  2.3700000000000D+00  0.0000000000000D+00  0.0000000000000D+00
239  2.3800000000000D+00  0.0000000000000D+00  0.0000000000000D+00
240  2.3900000000000D+00  0.0000000000000D+00  0.0000000000000D+00
241  2.4000000000000D+00  0.0000000000000D+00  0.0000000000000D+00
242  2.4100000000000D+00  0.0000000000000D+00  0.0000000000000D+00
243  2.4200000000000D+00  0.0000000000000D+00  0.0000000000000D+00
244  2.4300000000000D+00  0.0000000000000D+00  0.0000000000000D+00
245  2.4400000000000D+00  0.0000000000000D+00  0.0000000000000D+00
246  2.4500000000000D+00  0.0000000000000D+00  0.0000000000000D+00
247  2.4600000000000D+00  0.0000000000000D+00  0.0000000000000D+00
248  2.4700000000000D+00  0.0000000000000D+00  0.0000000000000D+00
249  2.4800000000000D+00  0.0000000000000D+00  0.0000000000000D+00
250  2.4900000000000D+00  0.0000000000000D+00  0.0000000000000D+00
251  2.5000000000000D+00  0.0000000000000D+00  0.0000000000000D+00
252  2.5100000000000D+00  0.0000000000000D+00  0.0000000000000D+00
253  2.5200000000000D+00  0.0000000000000D+00  0.0000000000000D+00
254  2.5300000000000D+00  0.0000000000000D+00  0.0000000000000D+00
255  2.5400000000000D+00  0.0000000000000D+00  0.0000000000000D+00
256  2.5500000000000D+00  0.0000000000000D+00  0.0000000000000D+00
257  2.5600000000000D+00  0.0000000000000D+00  0.0000000000000D+00
258  2.5700000000000D+00  0.0000000000000D+00  0.0000000000000D+00
259  2.5800000000000D+00  0.0000000000000D+00  0.0000000000000D+00
260  2.5900000000000D+00  0.0000000000000D+00  0.0000000000000D+00
261  2.6000000000000D+00  0.0000000000000D+00  0.0000000000000D+00
262  2.6100000000000D+00  0.0000000000000D+00  0.0000000000000D+00
263  2.6200000000000D+00  0.0000000000000D+00  0.0000000000000D+00
264  2.6300000000000D+00  0.0000000000000D+00  0.0000000000000D+00
265  2.6400000000000D+00  0.0000000000000D+00  0.0000000000000D+00
266  2.6500000000000D+00  0.0000000000000D+00  0.0000000000000D+00
267  2.6600000000000D+00  0.0000000000000D+00  0.0000000000000D+00
268  2.6700000000000D+00  0.0000000000000D+00  0.0000000000000D+00
269  2.6800000000000D+00  0.0000000000000D+00  0.0000000000000D+00
270  2.6900000000000D+00  0.0000000000000D+00  0.0000000000000D+00
271  2.7000000000000D+00  0.0000000000000D+00  0.0000000000000D+00
272  2.7100000000000D+00  0.0000000000000D+00  0.0000000000000D+00
273  2.7200000000000D+00  0.0000000000000D+00  0.0000000000000D+00
274  2.7300000000000D+00  0.0000000000000D+00  0.0000000000000D+00
275  2.7400000000000D+00  0.0000000000000D+00  0.0000000000000D+00
276  2.7500000000000D+00  0.0000000000000D+00  0.0000000000000D+00
277  2.7600000000000D+00  0.0000000000000D+00  0.0000000000000D+00
278  2.7700000000000D+00  0.0000000000000D+00  0.0000000000000D+00
279  2.7800000000000D+00  0.0000000000000D+00  0.0000000000000D+00
280  2.7900000000000D+00  0.0000000000000D+00  0.0000000000000D+00
281  2.8000000000000D+00  0.0000000000000D+00  0.0000000000000D+00
282  2.8100000000000D+00  0.0000000000000D+00  0.0000000000000D+00
283  2.8200000000000D+00  0.0000000000000D+00  0.0000000000000D+00
284  2.8300000000000D+00  0.0000000000000D+00  0.0000000000000D+00
285  2.8400000000000D+00  0.0000000000000D+00  0.0000000000000D+00
286  2.8500000000000D+00  0.0000000000000D+00  0.0000000000000D+00
287  2.8600000000000D+00  0.0000000000000D+00  0.0000000000000D+00
288  2.8700000000000D+00  0.0000000000000D+00  0.0000000000000D+00
289  2.8800000000000D+00  0.0000000000000D+00  0.0000000000000D+00
290  2.8900000000000D+00  0.0000000000000D+00  0.0000000000000D+00
291  2.9000000000000D+00  0.0000000000000D+00  0.0000000000000D+00
292  2.9100000000000D+00  0.0000000000000D+00  0.0000000000000D+00
293  2.9200000000000D+00  0.0000000000000D+00  0.0000000000000D+00
294  2.9300000000000D+00  0.0000000000000D+00  0.0000000000000D+00
295  2.9400000000000D+00  0.0000000000000D+00  0.0000000000000D+00
296  2.9500000000000D+00  0.0000000000000D+00  0.0000000000000D+00
297  2.9600000000000D+00  0.0000000000000D+00  0.0000000000000D+00
298  2.9700000000000D+00  0.0000000000000D+00  0.0000000000000D+00
299  2.9800000000000D+00  0.0000000000000D+00  0.0000000000000D+00
300  2.9900000000000D+00  0.0000000000000D+00  0.0000000000000D+00
301  3.0000000000000D+00  0.0000000000000D+00  0.0000000000000D+00
302  3.0100000000000D+00  0.0000000000000D+00  0.0000000000000D+00
303  3.0200000000000D+00  0.0000000000000D+00  0.0000000000000D+00
304  3.0300000000000D+00  0.0000000000000D+00  0.0000000000000D+00
305  3.0400000000000D+00  0.0000000000000D+00  0.0000000000000D+00
306  3.0500000000000D+00  0.0000000000000D+00  0.0000000000000D+00
307  3.0600000000000D+00  0.0000000000000D+00  0.0000000000000D+00
308  3.0700000000000D+00  0.0000000000000D+00  0.0000000000000D+00
309  3.0800000000000D+00  0.0000000000000D+00  0.0000000000000D+00
310  3.0900000000000D+00  0.0000000000000D+00  0.0000000000000D+00
311  3.1000000000000D+00  0.0000000000000D+00  0.0000000000000D+00
312  3.1100000000000D+00  0.0000000000000D+00  0.0000000000000D+00
313  3.1200000000000D+00  0.0000000000000D+00  0.0000000000000D+00
314  3.1300000000000D+00  0.0000000000000D+00  0.0000000000000D+00
315  3.1400000000000D+00  0.0000000000000D+00  0.0000000000000D+00
316  3.1500000000000D+00  0.0000000000000D+00  0.0000000000000D+00
317  3.1600000000000D+00  0.0000000000000D+00  0.0000000000000D+00
318  3.1700000000000D+00  0.0000000000000D+00  0.0000000000000D+00
319  3.1800000000000D+00  0.0000000000000D+00  0.0000000000000D+00
320  3.1900000000000D+00  0.0000000000000D+00  0.0000000000000D+00
321  3.2000000000000D+00  0.0000000000000D+00  0.0000000000000D+00
322  3.2100000000000D+00  0.0000000000000D+00  0.0000000000000D+00
323  3.2200000000000D+00  0.0000000000000D+00  0.0000000000000D+00
324  3.2300000000000D+00  0.0000000000000D+00  0.0000000000000D+00
325  3.2400000000000D+00  0.0000000000000D+00  0.0000000000000D+00
326  3.2500000000000D+00  0.0000000000000D+00  0.0000000000000D+00
327  3.2600000000000D+00  0.0000000000000D+00  0.0000000000000D+00
328  3.2700000000000D+00  0.0000000000000D+00  0.0000000000000D+00
329  3.2800000000000D+00  0.0000000000000D+00  0.0000000000000D+00
330  3.2900000000000D+00  0.0000000000000D+00  0.0000000000000D+00
331  3.3000000000000D+00  0.0000000000000D+00  0.0000000000000D+00
332  3.3100000000000D+00  0.0000000000000D+00  0.0000000000000D+00
333  3.3200000000000D+00  0.0000000000000D+00  0.0000000000000D+00
334  3.3300000000000D+00  0.0000000000000D+00  0.0000000000000D+00
335  3.3400000000000D+00  0.0000000000000D+00  0.0000000000000D+00
336  3.3500000000000D+00  0.0000000000000D+00  0.0000000000000D+00
337  3.3600000000000D+00  0.0000000000000D+00  0.0000000000000D+00
338  3.3700000000000D+00  0.0000000000000D+00  0.0000000000000D+00
339  3.3800000000000D+00  0.0000000000000D+00  0.0000000000000D+00
340  3.3900000000000D+00  0.0000000000000D+00  0.0000000000000D+00
341  3.4000000000000D+00  0.0000000000000D+00  0.0000000000000D+00
342  3.4100000000000D+00  0.0000000000000D+00  0.0000000000000D+00
343  3.4200000000000D+00  0.0000000000000D+00  0.0000000000000D+00
344  3.4300000000000D+00  0.0000000000000D+00  0.0000000000000D+00
345  3.4400000000000D+00  0.0000000000000D+00  0.0000000000000D+00
346  3.4500000000000D+00  0.0000000000000D+00  0.0000000000000D+00
347  3.4600000000000D+00  0.0000000000000D+00  0.0000000000000D+00
348  3.4700000000000D+00  0.0000000000000D+00  0.0000000000000D+00
349  3.4800000000000D+00  0.0000000000000D+00  0.0000000000000D+00
350  3.4900000000000D+00  0.0000000000000D+00  0.0000000000000D+00
351  3.5000000000000D+00  0.0000000000000D+00  0.0000000000000D+00
352  3.5100000000000D+00  0.0000000000000D+00  0.0000000000000D+00
353  3.5200000000000D+00  0.0000000000000D+00  0.0000000000000D+00
354  3.5300000000000D+00  0.0000000000000D+00  0.0000000000000D+00
355  3.5400000000000D+00  0.0000000000000D+00  0.0000000000000D+00
356  3.5500000000000D+00  0.0000000000000D+00  0.0000000000000D+00
357  3.5600000000000D+00  0.0000000000000D+00  0.0000000000000D+00
358  3.5700000000000D+00  0.0000000000000D+00  0.0000000000000D+00
359  3.5800000000000D+00  0.0000000000000D+00  0.0000000000000D+00
360  3.5900000000000D+00  0.0000000000000D+00  0.0000000000000D+00
361  3.6000000000000D+00  0.0000000000000D+00  0.0000000000000D+00
362  3.6100000000000D+00  0.0000000000000D+00  0.0000000000000D+00
363  3.6200000000000D+00  0.0000000000000D+00  0.0000000000000D+00
364  3.6300000000000D+00  0.0000000000000D+00  0.0000000000000D+00
365  3.6400000000000D+00  0.0000000000000D+00  0.0000000000000D+00
366  3.6500000000000D+00  0.0000000000000D+00  0.0000000000000D+00
367  3.6600000000000D+00  0.0000000000000D+00  0.0000000000000D+00
368  3.6700000000000D+00  0.0000000000000D+00  0.0000000000000D+00
369  3.6800000000000D+00  0.0000000000000D+00  0.0000000000000D+00
370  3.6900000000000D+00  0.0000000000000D+00  0.0000000000000D+00
371  3.7000000000000D+00  0.0000000000000D+00  0.0000000000000D+00
372  3.7100000000000D+00  0.0000000000000D+00  0.0000000000000D+00
373  3.7200000000000D+00  0.0000000000000D+00  0.0000000000000D+00
374  3.7300000000000D+00  0.0000000000000D+00  0.0000000000000D+00
375  3.7400000000000D+00  0.0000000000000D+00  0.0000000000000D+00
376  3.7500000000000D+00  0.0000000000000D+00  0.0000000000000D+00
377  3.7600000000000D+00  0.0000000000000D+00  0.0000000000000D+00
378  3.7700000000000D+00  0.0000000000000D+00  0.0000000000000D+00
379  3.7800000000000D+00  0.0000000000000D+00  0.0000000000000D+00
380  3.7900000000000D+00  0.0000000000000D+00  0.0000000000000D+00
381  3.8000000000000D+00  0.0000000000000D+00  0.0000000000000D+00
382  3.8100000000000D+00  0.0000000000000D+00  0.0000000000000D+00
383  3.8200000000000D+00  0.0000000000000D+00  0.0000000000000D+00
384  3.8300000000000D+00  0.0000000000000D+00  0.0000000000000D+00
385  3.8400000000000D+00  0.0000000000000D+00  0.0000000000000D+00
386  3.8500000000000D+00  0.0000000000000D+00  0.0000000000000D+00
387  3.8600000000000D+00  0.0000000000000D+00  0.0000000000000D+00
388  3.8700000000000D+00  0.0000000000000D+00  0.0000000000000D+00
389  3.8800000000000D+00  0.0000000000000D+00  0.0000000000000D+00
390  3.8900000000000D+00  0.0000000000000D+00  0.0000000000000D+00
391  3.9000000000000D+00  0.0000000000000D+00  0.0000000000000D+00
392  3.9100000000000D+00  0.0000000000000D+00  0.0000000000000D+00
393  3.9200000000000D+00  0.0000000000000D+00  0.0000000000000D+00
394  3.9300000000000D+00  0.0000000000000D+00  0.0000000000000D+00
395  3.9400000000000D+00  0.0000000000000D+00  0.0000000000000D+00
396  3.9500000000000D+00  0.0000000000000D+00  0.0000000000000D+00
397  3.9600000000000D+00  0.0000000000000D+00  0.0000000000000D+00
398  3.9700000000000D+00  0.0000000000000D+00  0.0000000000000D+00
399  3.9800000000000D+00  0.0000000000000D+00  0.0000000000000D+00
400  3.9900000000000D+00  0.0000000000000D+00  0.0000000000000D+00
401  4.0000000000000D+00  0.0000000000000D+00  0.0000000000000D+00
402  4.0100000000000D+00  0.0000000000000D+00  0.0000000000000D+00
403  4.0200000000000D+00  0.0000000000000D+00  0.0000000000000D+00
404  4.0300000000000D+00  0.0000000000000D+00  0.0000000000000D+00
405  4.0400000000000D+00  0.0000000000000D+00  0.0000000000000D+00
406  4.0500000000000D+00  0.0000000000000D+00  0.0000000000000D+00
407  4.0600000000000D+00  0.0000000000000D+00  0.0000000000000D+00
408  4.0700000000000D+00  0.0000000000000D+00  0.0000000000000D+00
409  4.0800000000000D+00  0.0000000000000D+00  0.0000000000000D+00
410  4.0900000000000D+00  0.0000000000000D+00  0.0000000000000D+00
411  4.1000000000000D+00  0.0000000000000D+00  0.0000000000000D+00
412  4.1100000000000D+00  0.0000000000000D+00  0.0000000000000D+00
413  4.1200000000000D+00  0.0000000000000D+00  0.0000000000000D+00
414  4.1300000000000D+00  0.0000000000000D+00  0.0000000000000D+00
415  4.1400000000000D+00  0.0000000000000D+00  0.0000000000000D+00
416  4.1500000000000D+00  0.0000000000000D+00  0.0000000000000D+00
417  4.1600000000000D+00  0.0000000000000D+00  0.0000000000000D+00
418  4.1700000000000D+00  0.0000000000000D+00  0.0000000000000D+00
419  4.1800000000000D+00  0.0000000000000D+00  0.0000000000000D+00
420  4.1900000000000D+00  0.0000000000000D+00  0.0000000000000D+00
421  4.2000000000000D+00  0.0000000000000D+00  0.0000000000000D+00
422  4.2100000000000D+00  0.0000000000000D+00  0.0000000000000D+00
423  4.2200000000000D+00  0.0000000000000D+00  0.0000000000000D+00
424  4.2300000000000D+00  0.0000000000000D+00  0.0000000000000D+00
425  4.2400000000000D+00  0.0000000000000D+00  0.0000000000000D+00
426  4.2500000000000D+00  0.0000000000000D+00  0.0000000000000D+00
427  4.2600000000000D+00  0.0000000000000D+00  0.0000000000000D+00
428  4.2700000000000D+00  0.0000000000000D+00  0.0000000000000D+00
429  4.2800000000000D+00  0.0000000000000D+00  0.0000000000000D+00
430  4.2900000000000D+00  0.0000000000000D+00  0.0000000000000D+00
431  4.3000000000000D+00  0.0000000000000D+00  0.0000000000000D+00
432  4.3100000000000D+00  0.0000000000000D+00  0.0000000000000D+00
433  4.3200000000000D+00  0.0000000000000D+00  0.0000000000000D+00
434  4.3300000000000D+00  0.0000000000000D+00  0.0000000000000D+00
435  4.3400000000000D+00  0.0000000000000D+00  0.0000000000000D+00
436  4.3500000000000D+00  0.0000000000000D+00  0.0000000000000D+00
437  4.3600000000000D+00  0.0000000000000D+00  0.0000000000000D+00
438  4.3700000000000D+00  0.0000000000000D+00  0.0000000000000D+00
439  4.3800000000000D+00  0.0000000000000D+00  0.0000000000000D+00
440  4.3900000000000D+00  0.0000000000000D+00  0.0000000000000D+00
441  4.4000000000000D+00  0.0000000000000D+00  0.0000000000000D+00
442  4.4100000000000D+00  0.0000000000000D+00  0.0000000000000D+00
443  4.4200000000000D+00  0.0000000000000D+00  0.0000000000000D+00
444  4.4300000000000D+00  0.0000000000000D+00  0.0000000000000D+00