Ne    ONCVPSP-3.2.3  r_core=   1.31204   1.70576
10.0000      8.0000      170211    zatom,zion,pspd
8      11   1     4   400     0    pspcod,pspxc,lmax,lloc,mmax,r2well
3.99000000  0.00000000  0.00000000    rchrg fchrg qchrg
2     2     0     0    nproj
3     1           extension_switch
2     0     0    nprojso
0                        -4.7646965528038D-01  2.1772333670312D+00
1  0.0000000000000D+00  7.0623749903742D-10  2.1863449939374D-09
2  1.0000000000000D-02  7.4610456006185D-03  5.2382533584537D-02
3  2.0000000000000D-02  1.5068807458981D-02  1.0487406625023D-01
4  3.0000000000000D-02  2.2968471384820D-02  1.5758018673902D-01
5  4.0000000000000D-02  3.1302178625275D-02  2.1059970980809D-01
6  5.0000000000000D-02  4.0207544235556D-02  2.6402140540899D-01
7  6.0000000000000D-02  4.9816223725473D-02  3.1792086570353D-01
8  7.0000000000000D-02  6.0252543235700D-02  3.7235755326643D-01
9  8.0000000000000D-02  7.1632207791416D-02  4.2737207163822D-01
10  9.0000000000000D-02  8.4061101313138D-02  4.8298369670702D-01
11  1.0000000000000D-01  9.7634191044809D-02  5.3918820424431D-01
12  1.1000000000000D-01  1.1243454789915D-01  5.9595602533558D-01
13  1.2000000000000D-01  1.2853249293274D-01  6.5323075747181D-01
14  1.3000000000000D-01  1.4598487876279D-01  7.1092805474930D-01
15  1.4000000000000D-01  1.6483451323995D-01  7.6893491601237D-01
16  1.5000000000000D-01  1.8510973111350D-01  8.2710938492045D-01
17  1.6000000000000D-01  2.0682411778424D-01  8.8528067088342D-01
18  1.7000000000000D-01  2.2997638755599D-01  9.4324969464621D-01
19  1.8000000000000D-01  2.5455041708598D-01  1.0007900570751D+00
20  1.9000000000000D-01  2.8051543301861D-01  1.0576494244652D+00
21  2.0000000000000D-01  3.0782635108414D-01  1.1135513185137D+00
22  2.1000000000000D-01  3.3642426227380D-01  1.1681972940431D+00
23  2.2000000000000D-01  3.6623706008389D-01  1.2212694826799D+00
24  2.3000000000000D-01  3.9718020127249D-01  1.2724334760468D+00
25  2.4000000000000D-01  4.2915759111035D-01  1.3213415176700D+00
26  2.5000000000000D-01  4.6206258274962D-01  1.3676359687896D+00
27  2.6000000000000D-01  4.9577907909499D-01  1.4109530096370D+00
28  2.7000000000000D-01  5.3018272445578D-01  1.4509265345526D+00
29  2.8000000000000D-01  5.6514217229781D-01  1.4871921966011D+00
30  2.9000000000000D-01  6.0052041461030D-01  1.5193915551289D+00
31  3.0000000000000D-01  6.3617615776530D-01  1.5471762780363D+00
32  3.1000000000000D-01  6.7196522928271D-01  1.5702123494138D+00
33  3.2000000000000D-01  7.0774199962795D-01  1.5881842326471D+00
34  3.3000000000000D-01  7.4336080306458D-01  1.6007989391296D+00
35  3.4000000000000D-01  7.7867734166264D-01  1.6077899533367D+00
36  3.5000000000000D-01  8.1355005682422D-01  1.6089209662143D+00
37  3.6000000000000D-01  8.4784145312681D-01  1.6039893705992D+00
38  3.7000000000000D-01  8.8141935989894D-01  1.5928294747016D+00
39  3.8000000000000D-01  9.1415811672320D-01  1.5753153925245D+00
40  3.9000000000000D-01  9.4593967000033D-01  1.5513635734294D+00
41  4.0000000000000D-01  9.7665456879449D-01  1.5209349368570D+00
42  4.1000000000000D-01  1.0062028494007D+00  1.4840365824277D+00
43  4.2000000000000D-01  1.0344947994171D+00  1.4407230502307D+00
44  4.3000000000000D-01  1.0614515935525D+00  1.3910971110239D+00
45  4.4000000000000D-01  1.0870057949345D+00  1.3353100712359D+00
46  4.5000000000000D-01  1.1111017172912D+00  1.2735615830443D+00
47  4.6000000000000D-01  1.1336956450372D+00  1.2060989553307D+00
48  4.7000000000000D-01  1.1547559099873D+00  1.1332159669234D+00
49  4.8000000000000D-01  1.1742628251257D+00  1.0552511891648D+00
50  4.9000000000000D-01  1.1922084775568D+00  9.7258583042740D-01
51  5.0000000000000D-01  1.2085963844347D+00  8.8564112066823D-01
52  5.1000000000000D-01  1.2234410172955D+00  7.9487525941276D-01
53  5.2000000000000D-01  1.2367672017742D+00  7.0077995561914D-01
54  5.3000000000000D-01  1.2486094011666D+00  6.0387659263687D-01
55  5.4000000000000D-01  1.2590108936693D+00  5.0471205588727D-01
56  5.5000000000000D-01  1.2680228543908D+00  4.0385426490273D-01
57  5.6000000000000D-01  1.2757033543486D+00  3.0188745491042D-01
58  5.7000000000000D-01  1.2821162896500D+00  1.9940725621198D-01
59  5.8000000000000D-01  1.2873302548694D+00  9.7015622127382D-02
60  5.9000000000000D-01  1.2914173752941D+00 -4.6843417636989D-03
61  6.0000000000000D-01  1.2944521131827D+00 -1.0509359298592D-01
62  6.1000000000000D-01  1.2965100634774D+00 -2.0362235727883D-01
63  6.2000000000000D-01  1.2976667545210D+00 -2.9969526845643D-01
64  6.3000000000000D-01  1.2979964692481D+00 -3.9275638850635D-01
65  6.4000000000000D-01  1.2975711020595D+00 -4.8227405452512D-01
66  6.5000000000000D-01  1.2964590661346D+00 -5.6774550080401D-01
67  6.6000000000000D-01  1.2947242653089D+00 -6.4870120669996D-01
68  6.7000000000000D-01  1.2924251438450D+00 -7.2470892380391D-01
69  6.8000000000000D-01  1.2896138264573D+00 -7.9537733933976D-01
70  6.9000000000000D-01  1.2863353598380D+00 -8.6035933665884D-01
71  7.0000000000000D-01  1.2826270656720D+00 -9.1935481807303D-01
72  7.1000000000000D-01  1.2785180137545D+00 -9.7211306005276D-01
73  7.2000000000000D-01  1.2740286223339D+00 -1.0184345759671D+00
74  7.3000000000000D-01  1.2691703912235D+00 -1.0581724669857D+00
75  7.4000000000000D-01  1.2639457715780D+00 -1.0912332474306D+00
76  7.5000000000000D-01  1.2583481745272D+00 -1.1175771367084D+00
77  7.6000000000000D-01  1.2523621191224D+00 -1.1372178159105D+00
78  7.7000000000000D-01  1.2459635183143D+00 -1.1502216531135D+00
79  7.8000000000000D-01  1.2391200999344D+00 -1.1567064073907D+00
80  7.9000000000000D-01  1.2317919579558D+00 -1.1568394273490D+00
81  8.0000000000000D-01  1.2239322276528D+00 -1.1508353656722D+00
82  8.1000000000000D-01  1.2154878767001D+00 -1.1389534365684D+00
83  8.2000000000000D-01  1.2064006027604D+00 -1.1214942481239D+00
84  8.3000000000000D-01  1.1966078267299D+00 -1.0987962463144D+00
85  8.4000000000000D-01  1.1860437695581D+00 -1.0712318117423D+00
86  8.5000000000000D-01  1.1746405994457D+00 -1.0392030540155D+00
87  8.6000000000000D-01  1.1623296352707D+00 -1.0031373520092D+00
88  8.7000000000000D-01  1.1490425913049D+00 -9.6348269101715D-01
89  8.8000000000000D-01  1.1347128476771D+00 -9.2070284996896D-01
90  8.9000000000000D-01  1.1192767306162D+00 -8.7527249343796D-01
91  9.0000000000000D-01  1.1026747862801D+00 -8.2767222407357D-01
92  9.1000000000000D-01  1.0848530319449D+00 -7.7838365134661D-01
93  9.2000000000000D-01  1.0657641684939D+00 -7.2788453209452D-01
94  9.3000000000000D-01  1.0453687385055D+00 -6.7664403729883D-01
95  9.4000000000000D-01  1.0236362147982D+00 -6.2511819783066D-01
96  9.5000000000000D-01  1.0005460050254D+00 -5.7374557958677D-01
97  9.6000000000000D-01  9.7608835884594D-01 -5.2294323549543D-01
98  9.7000000000000D-01  9.5026516526616D-01 -4.7310297844101D-01
99  9.8000000000000D-01  9.2309062900461D-01 -4.2458801513413D-01
100  9.9000000000000D-01  8.9459181612056D-01 -3.7772997645965D-01
101  1.0000000000000D+00  8.6480906064889D-01 -3.3282637497522D-01
102  1.0100000000000D+00  8.3379622560804D-01 -2.9013851495731D-01
103  1.0200000000000D+00  8.0162081344745D-01 -2.4988987485796D-01
104  1.0300000000000D+00  7.6836392281299D-01 -2.1226497612202D-01
105  1.0400000000000D+00  7.3412005025931D-01 -1.7740874659217D-01
106  1.0500000000000D+00  6.9899673744333D-01 -1.4542638048969D-01
107  1.0600000000000D+00  6.6311406618624D-01 -1.1638369087690D-01
108  1.0700000000000D+00  6.2660400558402D-01 -9.0307944613303D-02
109  1.0800000000000D+00  5.8960961719464D-01 -6.7189163731115D-02
110  1.0900000000000D+00  5.5228412599010D-01 -4.6981871673094D-02
111  1.1000000000000D+00  5.1478986641395D-01 -2.9607257371876D-02
112  1.1100000000000D+00  4.7729711451167D-01 -1.4955724748872D-02
113  1.1200000000000D+00  4.3998281840936D-01 -2.8897908553612D-03
114  1.1300000000000D+00  4.0302924079344D-01  6.7527087327829D-03
115  1.1400000000000D+00  3.6662252796686D-01  1.4155151749414D-02
116  1.1500000000000D+00  3.3095122130194D-01  1.9518447002961D-02
117  1.1600000000000D+00  2.9620472744890D-01  2.3057188636064D-02
118  1.1700000000000D+00  2.6257176428969D-01  2.4995699657205D-02
119  1.1800000000000D+00  2.3023880001723D-01  2.5564018899103D-02
120  1.1900000000000D+00  1.9938850294582D-01  2.4993886500126D-02
121  1.2000000000000D+00  1.7019821946584D-01  2.3514782511635D-02
122  1.2100000000000D+00  1.4283849745691D-01  2.1350073047406D-02
123  1.2200000000000D+00  1.1747167204670D-01  1.8713317196526D-02
124  1.2300000000000D+00  9.4250529757996D-02  1.5804785354089D-02
125  1.2400000000000D+00  7.3317066304208D-02  1.2808237228850D-02
126  1.2500000000000D+00  5.4801352698702D-02  9.8880059879575D-03
127  1.2600000000000D+00  3.8820522400981D-02  7.1864289553729D-03
128  1.2700000000000D+00  2.5483277841838D-02  4.8227812067992D-03
129  1.2800000000000D+00  1.4864314035443D-02  2.8863462961511D-03
130  1.2900000000000D+00  6.9996090687137D-03  1.4328566599333D-03
131  1.3000000000000D+00  2.1721832727226D-03  5.5553664812620D-04
132  1.3100000000000D+00  1.3825054659432D-04  1.8726477913809D-04
133  1.3200000000000D+00 -1.7894797140273D-04  4.5348414024435D-05
134  1.3300000000000D+00  2.9996131953345D-05 -3.9316922284984D-06
135  1.3400000000000D+00  3.4625875666555D-05 -2.9593688909070D-06
136  1.3500000000000D+00 -1.0268688534766D-05  1.7476973587712D-06
137  1.3600000000000D+00  2.6339162099540D-09 -1.5605596408676D-08
138  1.3700000000000D+00  6.4497201591250D-08 -3.8213717418887D-07
139  1.3800000000000D+00  0.0000000000000D+00  0.0000000000000D+00
140  1.3900000000000D+00  0.0000000000000D+00  0.0000000000000D+00
141  1.4000000000000D+00  0.0000000000000D+00  0.0000000000000D+00
142  1.4100000000000D+00  0.0000000000000D+00  0.0000000000000D+00
143  1.4200000000000D+00  0.0000000000000D+00  0.0000000000000D+00
144  1.4300000000000D+00  0.0000000000000D+00  0.0000000000000D+00
145  1.4400000000000D+00  0.0000000000000D+00  0.0000000000000D+00
146  1.4500000000000D+00  0.0000000000000D+00  0.0000000000000D+00
147  1.4600000000000D+00  0.0000000000000D+00  0.0000000000000D+00
148  1.4700000000000D+00  0.0000000000000D+00  0.0000000000000D+00
149  1.4800000000000D+00  0.0000000000000D+00  0.0000000000000D+00
150  1.4900000000000D+00  0.0000000000000D+00  0.0000000000000D+00
151  1.5000000000000D+00  0.0000000000000D+00  0.0000000000000D+00
152  1.5100000000000D+00  0.0000000000000D+00  0.0000000000000D+00
153  1.5200000000000D+00  0.0000000000000D+00  0.0000000000000D+00
154  1.5300000000000D+00  0.0000000000000D+00  0.0000000000000D+00
155  1.5400000000000D+00  0.0000000000000D+00  0.0000000000000D+00
156  1.5500000000000D+00  0.0000000000000D+00  0.0000000000000D+00
157  1.5600000000000D+00  0.0000000000000D+00  0.0000000000000D+00
158  1.5700000000000D+00  0.0000000000000D+00  0.0000000000000D+00
159  1.5800000000000D+00  0.0000000000000D+00  0.0000000000000D+00
160  1.5900000000000D+00  0.0000000000000D+00  0.0000000000000D+00
161  1.6000000000000D+00  0.0000000000000D+00  0.0000000000000D+00
162  1.6100000000000D+00  0.0000000000000D+00  0.0000000000000D+00
163  1.6200000000000D+00  0.0000000000000D+00  0.0000000000000D+00
164  1.6300000000000D+00  0.0000000000000D+00  0.0000000000000D+00
165  1.6400000000000D+00  0.0000000000000D+00  0.0000000000000D+00
166  1.6500000000000D+00  0.0000000000000D+00  0.0000000000000D+00
167  1.6600000000000D+00  0.0000000000000D+00  0.0000000000000D+00
168  1.6700000000000D+00  0.0000000000000D+00  0.0000000000000D+00
169  1.6800000000000D+00  0.0000000000000D+00  0.0000000000000D+00
170  1.6900000000000D+00  0.0000000000000D+00  0.0000000000000D+00
171  1.7000000000000D+00  0.0000000000000D+00  0.0000000000000D+00
172  1.7100000000000D+00  0.0000000000000D+00  0.0000000000000D+00
173  1.7200000000000D+00  0.0000000000000D+00  0.0000000000000D+00
174  1.7300000000000D+00  0.0000000000000D+00  0.0000000000000D+00
175  1.7400000000000D+00  0.0000000000000D+00  0.0000000000000D+00
176  1.7500000000000D+00  0.0000000000000D+00  0.0000000000000D+00
177  1.7600000000000D+00  0.0000000000000D+00  0.0000000000000D+00
178  1.7700000000000D+00  0.0000000000000D+00  0.0000000000000D+00
179  1.7800000000000D+00  0.0000000000000D+00  0.0000000000000D+00
180  1.7900000000000D+00  0.0000000000000D+00  0.0000000000000D+00
181  1.8000000000000D+00  0.0000000000000D+00  0.0000000000000D+00
182  1.8100000000000D+00  0.0000000000000D+00  0.0000000000000D+00
183  1.8200000000000D+00  0.0000000000000D+00  0.0000000000000D+00
184  1.8300000000000D+00  0.0000000000000D+00  0.0000000000000D+00
185  1.8400000000000D+00  0.0000000000000D+00  0.0000000000000D+00
186  1.8500000000000D+00  0.0000000000000D+00  0.0000000000000D+00
187  1.8600000000000D+00  0.0000000000000D+00  0.0000000000000D+00
188  1.8700000000000D+00  0.0000000000000D+00  0.0000000000000D+00
189  1.8800000000000D+00  0.0000000000000D+00  0.0000000000000D+00
190  1.8900000000000D+00  0.0000000000000D+00  0.0000000000000D+00
191  1.9000000000000D+00  0.0000000000000D+00  0.0000000000000D+00
192  1.9100000000000D+00  0.0000000000000D+00  0.0000000000000D+00
193  1.9200000000000D+00  0.0000000000000D+00  0.0000000000000D+00
194  1.9300000000000D+00  0.0000000000000D+00  0.0000000000000D+00
195  1.9400000000000D+00  0.0000000000000D+00  0.0000000000000D+00
196  1.9500000000000D+00  0.0000000000000D+00  0.0000000000000D+00
197  1.9600000000000D+00  0.0000000000000D+00  0.0000000000000D+00
198  1.9700000000000D+00  0.0000000000000D+00  0.0000000000000D+00
199  1.9800000000000D+00  0.0000000000000D+00  0.0000000000000D+00
200  1.9900000000000D+00  0.0000000000000D+00  0.0000000000000D+00
201  2.0000000000000D+00  0.0000000000000D+00  0.0000000000000D+00
202  2.0100000000000D+00  0.0000000000000D+00  0.0000000000000D+00
203  2.0200000000000D+00  0.0000000000000D+00  0.0000000000000D+00
204  2.0300000000000D+00  0.0000000000000D+00  0.0000000000000D+00
205  2.0400000000000D+00  0.0000000000000D+00  0.0000000000000D+00
206  2.0500000000000D+00  0.0000000000000D+00  0.0000000000000D+00
207  2.0600000000000D+00  0.0000000000000D+00  0.0000000000000D+00
208  2.0700000000000D+00  0.0000000000000D+00  0.0000000000000D+00
209  2.0800000000000D+00  0.0000000000000D+00  0.0000000000000D+00
210  2.0900000000000D+00  0.0000000000000D+00  0.0000000000000D+00
211  2.1000000000000D+00  0.0000000000000D+00  0.0000000000000D+00
212  2.1100000000000D+00  0.0000000000000D+00  0.0000000000000D+00
213  2.1200000000000D+00  0.0000000000000D+00  0.0000000000000D+00
214  2.1300000000000D+00  0.0000000000000D+00  0.0000000000000D+00
215  2.1400000000000D+00  0.0000000000000D+00  0.0000000000000D+00
216  2.1500000000000D+00  0.0000000000000D+00  0.0000000000000D+00
217  2.1600000000000D+00  0.0000000000000D+00  0.0000000000000D+00
218  2.1700000000000D+00  0.0000000000000D+00  0.0000000000000D+00
219  2.1800000000000D+00  0.0000000000000D+00  0.0000000000000D+00
220  2.1900000000000D+00  0.0000000000000D+00  0.0000000000000D+00
221  2.2000000000000D+00  0.0000000000000D+00  0.0000000000000D+00
222  2.2100000000000D+00  0.0000000000000D+00  0.0000000000000D+00
223  2.2200000000000D+00  0.0000000000000D+00  0.0000000000000D+00
224  2.2300000000000D+00  0.0000000000000D+00  0.0000000000000D+00
225  2.2400000000000D+00  0.0000000000000D+00  0.0000000000000D+00
226  2.2500000000000D+00  0.0000000000000D+00  0.0000000000000D+00
227  2.2600000000000D+00  0.0000000000000D+00  0.0000000000000D+00
228  2.2700000000000D+00  0.0000000000000D+00  0.0000000000000D+00
229  2.2800000000000D+00  0.0000000000000D+00  0.0000000000000D+00
230  2.2900000000000D+00  0.0000000000000D+00  0.0000000000000D+00
231  2.3000000000000D+00  0.0000000000000D+00  0.0000000000000D+00
232  2.3100000000000D+00  0.0000000000000D+00  0.0000000000000D+00
233  2.3200000000000D+00  0.0000000000000D+00  0.0000000000000D+00
234  2.3300000000000D+00  0.0000000000000D+00  0.0000000000000D+00
235  2.3400000000000D+00  0.0000000000000D+00  0.0000000000000D+00
236  2.3500000000000D+00  0.0000000000000D+00  0.0000000000000D+00
237  2.3600000000000D+00  0.0000000000000D+00  0.0000000000000D+00
238  2.3700000000000D+00  0.0000000000000D+00  0.0000000000000D+00
239  2.3800000000000D+00  0.0000000000000D+00  0.0000000000000D+00
240  2.3900000000000D+00  0.0000000000000D+00  0.0000000000000D+00
241  2.4000000000000D+00  0.0000000000000D+00  0.0000000000000D+00
242  2.4100000000000D+00  0.0000000000000D+00  0.0000000000000D+00
243  2.4200000000000D+00  0.0000000000000D+00  0.0000000000000D+00
244  2.4300000000000D+00  0.0000000000000D+00  0.0000000000000D+00
245  2.4400000000000D+00  0.0000000000000D+00  0.0000000000000D+00
246  2.4500000000000D+00  0.0000000000000D+00  0.0000000000000D+00
247  2.4600000000000D+00  0.0000000000000D+00  0.0000000000000D+00
248  2.4700000000000D+00  0.0000000000000D+00  0.0000000000000D+00
249  2.4800000000000D+00  0.0000000000000D+00  0.0000000000000D+00
250  2.4900000000000D+00  0.0000000000000D+00  0.0000000000000D+00
251  2.5000000000000D+00  0.0000000000000D+00  0.0000000000000D+00
252  2.5100000000000D+00  0.0000000000000D+00  0.0000000000000D+00
253  2.5200000000000D+00  0.0000000000000D+00  0.0000000000000D+00
254  2.5300000000000D+00  0.0000000000000D+00  0.0000000000000D+00
255  2.5400000000000D+00  0.0000000000000D+00  0.0000000000000D+00
256  2.5500000000000D+00  0.0000000000000D+00  0.0000000000000D+00
257  2.5600000000000D+00  0.0000000000000D+00  0.0000000000000D+00
258  2.5700000000000D+00  0.0000000000000D+00  0.0000000000000D+00
259  2.5800000000000D+00  0.0000000000000D+00  0.0000000000000D+00
260  2.5900000000000D+00  0.0000000000000D+00  0.0000000000000D+00
261  2.6000000000000D+00  0.0000000000000D+00  0.0000000000000D+00
262  2.6100000000000D+00  0.0000000000000D+00  0.0000000000000D+00
263  2.6200000000000D+00  0.0000000000000D+00  0.0000000000000D+00
264  2.6300000000000D+00  0.0000000000000D+00  0.0000000000000D+00
265  2.6400000000000D+00  0.0000000000000D+00  0.0000000000000D+00
266  2.6500000000000D+00  0.0000000000000D+00  0.0000000000000D+00
267  2.6600000000000D+00  0.0000000000000D+00  0.0000000000000D+00
268  2.6700000000000D+00  0.0000000000000D+00  0.0000000000000D+00
269  2.6800000000000D+00  0.0000000000000D+00  0.0000000000000D+00
270  2.6900000000000D+00  0.0000000000000D+00  0.0000000000000D+00
271  2.7000000000000D+00  0.0000000000000D+00  0.0000000000000D+00
272  2.7100000000000D+00  0.0000000000000D+00  0.0000000000000D+00
273  2.7200000000000D+00  0.0000000000000D+00  0.0000000000000D+00
274  2.7300000000000D+00  0.0000000000000D+00  0.0000000000000D+00
275  2.7400000000000D+00  0.0000000000000D+00  0.0000000000000D+00
276  2.7500000000000D+00  0.0000000000000D+00  0.0000000000000D+00
277  2.7600000000000D+00  0.0000000000000D+00  0.0000000000000D+00
278  2.7700000000000D+00  0.0000000000000D+00  0.0000000000000D+00
279  2.7800000000000D+00  0.0000000000000D+00  0.0000000000000D+00
280  2.7900000000000D+00  0.0000000000000D+00  0.0000000000000D+00
281  2.8000000000000D+00  0.0000000000000D+00  0.0000000000000D+00
282  2.8100000000000D+00  0.0000000000000D+00  0.0000000000000D+00
283  2.8200000000000D+00  0.0000000000000D+00  0.0000000000000D+00
284  2.8300000000000D+00  0.0000000000000D+00  0.0000000000000D+00
285  2.8400000000000D+00  0.0000000000000D+00  0.0000000000000D+00
286  2.8500000000000D+00  0.0000000000000D+00  0.0000000000000D+00
287  2.8600000000000D+00  0.0000000000000D+00  0.0000000000000D+00
288  2.8700000000000D+00  0.0000000000000D+00  0.0000000000000D+00
289  2.8800000000000D+00  0.0000000000000D+00  0.0000000000000D+00
290  2.8900000000000D+00  0.0000000000000D+00  0.0000000000000D+00
291  2.9000000000000D+00  0.0000000000000D+00  0.0000000000000D+00
292  2.9100000000000D+00  0.0000000000000D+00  0.0000000000000D+00
293  2.9200000000000D+00  0.0000000000000D+00  0.0000000000000D+00
294  2.9300000000000D+00  0.0000000000000D+00  0.0000000000000D+00
295  2.9400000000000D+00  0.0000000000000D+00  0.0000000000000D+00
296  2.9500000000000D+00  0.0000000000000D+00  0.0000000000000D+00
297  2.9600000000000D+00  0.0000000000000D+00  0.0000000000000D+00
298  2.9700000000000D+00  0.0000000000000D+00  0.0000000000000D+00
299  2.9800000000000D+00  0.0000000000000D+00  0.0000000000000D+00
300  2.9900000000000D+00  0.0000000000000D+00  0.0000000000000D+00
301  3.0000000000000D+00  0.0000000000000D+00  0.0000000000000D+00
302  3.0100000000000D+00  0.0000000000000D+00  0.0000000000000D+00
303  3.0200000000000D+00  0.0000000000000D+00  0.0000000000000D+00
304  3.0300000000000D+00  0.0000000000000D+00  0.0000000000000D+00
305  3.0400000000000D+00  0.0000000000000D+00  0.0000000000000D+00
306  3.0500000000000D+00  0.0000000000000D+00  0.0000000000000D+00
307  3.0600000000000D+00  0.0000000000000D+00  0.0000000000000D+00
308  3.0700000000000D+00  0.0000000000000D+00  0.0000000000000D+00
309  3.0800000000000D+00  0.0000000000000D+00  0.0000000000000D+00
310  3.0900000000000D+00  0.0000000000000D+00  0.0000000000000D+00
311  3.1000000000000D+00  0.0000000000000D+00  0.0000000000000D+00
312  3.1100000000000D+00  0.0000000000000D+00  0.0000000000000D+00
313  3.1200000000000D+00  0.0000000000000D+00  0.0000000000000D+00
314  3.1300000000000D+00  0.0000000000000D+00  0.0000000000000D+00
315  3.1400000000000D+00  0.0000000000000D+00  0.0000000000000D+00
316  3.1500000000000D+00  0.0000000000000D+00  0.0000000000000D+00
317  3.1600000000000D+00  0.0000000000000D+00  0.0000000000000D+00
318  3.1700000000000D+00  0.0000000000000D+00  0.0000000000000D+00
319  3.1800000000000D+00  0.0000000000000D+00  0.0000000000000D+00
320  3.1900000000000D+00  0.0000000000000D+00  0.0000000000000D+00
321  3.2000000000000D+00  0.0000000000000D+00  0.0000000000000D+00
322  3.2100000000000D+00  0.0000000000000D+00  0.0000000000000D+00
323  3.2200000000000D+00  0.0000000000000D+00  0.0000000000000D+00
324  3.2300000000000D+00  0.0000000000000D+00  0.0000000000000D+00
325  3.2400000000000D+00  0.0000000000000D+00  0.0000000000000D+00
326  3.2500000000000D+00  0.0000000000000D+00  0.0000000000000D+00
327  3.2600000000000D+00  0.0000000000000D+00  0.0000000000000D+00
328  3.2700000000000D+00  0.0000000000000D+00  0.0000000000000D+00
329  3.2800000000000D+00  0.0000000000000D+00  0.0000000000000D+00
330  3.2900000000000D+00  0.0000000000000D+00  0.0000000000000D+00
331  3.3000000000000D+00  0.0000000000000D+00  0.0000000000000D+00
332  3.3100000000000D+00  0.0000000000000D+00  0.0000000000000D+00
333  3.3200000000000D+00  0.0000000000000D+00  0.0000000000000D+00
334  3.3300000000000D+00  0.0000000000000D+00  0.0000000000000D+00
335  3.3400000000000D+00  0.0000000000000D+00  0.0000000000000D+00
336  3.3500000000000D+00  0.0000000000000D+00  0.0000000000000D+00
337  3.3600000000000D+00  0.0000000000000D+00  0.0000000000000D+00
338  3.3700000000000D+00  0.0000000000000D+00  0.0000000000000D+00
339  3.3800000000000D+00  0.0000000000000D+00  0.0000000000000D+00
340  3.3900000000000D+00  0.0000000000000D+00  0.0000000000000D+00
341  3.4000000000000D+00  0.0000000000000D+00  0.0000000000000D+00
342  3.4100000000000D+00  0.0000000000000D+00  0.0000000000000D+00
343  3.4200000000000D+00  0.0000000000000D+00  0.0000000000000D+00
344  3.4300000000000D+00  0.0000000000000D+00  0.0000000000000D+00
345  3.4400000000000D+00  0.0000000000000D+00  0.0000000000000D+00
346  3.4500000000000D+00  0.0000000000000D+00  0.0000000000000D+00
347  3.4600000000000D+00  0.0000000000000D+00  0.0000000000000D+00
348  3.4700000000000D+00  0.0000000000000D+00  0.0000000000000D+00
349  3.4800000000000D+00  0.0000000000000D+00  0.0000000000000D+00
350  3.4900000000000D+00  0.0000000000000D+00  0.0000000000000D+00
351  3.5000000000000D+00  0.0000000000000D+00  0.0000000000000D+00
352  3.5100000000000D+00  0.0000000000000D+00  0.0000000000000D+00
353  3.5200000000000D+00  0.0000000000000D+00  0.0000000000000D+00
354  3.5300000000000D+00  0.0000000000000D+00  0.0000000000000D+00
355  3.5400000000000D+00  0.0000000000000D+00  0.0000000000000D+00
356  3.5500000000000D+00  0.0000000000000D+00  0.0000000000000D+00
357  3.5600000000000D+00  0.0000000000000D+00  0.0000000000000D+00
358  3.5700000000000D+00  0.0000000000000D+00  0.0000000000000D+00
359  3.5800000000000D+00  0.0000000000000D+00  0.0000000000000D+00
360  3.5900000000000D+00  0.0000000000000D+00  0.0000000000000D+00
361  3.6000000000000D+00  0.0000000000000D+00  0.0000000000000D+00
362  3.6100000000000D+00  0.0000000000000D+00  0.0000000000000D+00
363  3.6200000000000D+00  0.0000000000000D+00  0.0000000000000D+00
364  3.6300000000000D+00  0.0000000000000D+00  0.0000000000000D+00
365  3.6400000000000D+00  0.0000000000000D+00  0.0000000000000D+00
366  3.6500000000000D+00  0.0000000000000D+00  0.0000000000000D+00
367  3.6600000000000D+00  0.0000000000000D+00  0.0000000000000D+00
368  3.6700000000000D+00  0.0000000000000D+00  0.0000000000000D+00
369  3.6800000000000D+00  0.0000000000000D+00  0.0000000000000D+00
370  3.6900000000000D+00  0.0000000000000D+00  0.0000000000000D+00
371  3.7000000000000D+00  0.0000000000000D+00  0.0000000000000D+00
372  3.7100000000000D+00  0.0000000000000D+00  0.0000000000000D+00
373  3.7200000000000D+00  0.0000000000000D+00  0.0000000000000D+00
374  3.7300000000000D+00  0.0000000000000D+00  0.0000000000000D+00
375  3.7400000000000D+00  0.0000000000000D+00  0.0000000000000D+00
376  3.7500000000000D+00  0.0000000000000D+00  0.0000000000000D+00
377  3.7600000000000D+00  0.0000000000000D+00  0.0000000000000D+00
378  3.7700000000000D+00  0.0000000000000D+00  0.0000000000000D+00
379  3.7800000000000D+00  0.0000000000000D+00  0.0000000000000D+00
380  3.7900000000000D+00  0.0000000000000D+00  0.0000000000000D+00
381  3.8000000000000D+00  0.0000000000000D+00  0.0000000000000D+00
382  3.8100000000000D+00  0.0000000000000D+00  0.0000000000000D+00
383  3.8200000000000D+00  0.0000000000000D+00  0.0000000000000D+00
384  3.8300000000000D+00  0.0000000000000D+00  0.0000000000000D+00
385  3.8400000000000D+00  0.0000000000000D+00  0.0000000000000D+00
386  3.8500000000000D+00  0.0000000000000D+00  0.0000000000000D+00
387  3.8600000000000D+00  0.0000000000000D+00  0.0000000000000D+00
388  3.8700000000000D+00  0.0000000000000D+00  0.0000000000000D+00
389  3.8800000000000D+00  0.0000000000000D+00  0.0000000000000D+00
390  3.8900000000000D+00  0.0000000000000D+00  0.0000000000000D+00
391  3.9000000000000D+00  0.0000000000000D+00  0.0000000000000D+00
392  3.9100000000000D+00  0.0000000000000D+00  0.0000000000000D+00
393  3.9200000000000D+00  0.0000000000000D+00  0.0000000000000D+00
394  3.9300000000000D+00  0.0000000000000D+00  0.0000000000000D+00
395  3.9400000000000D+00  0.0000000000000D+00  0.0000000000000D+00
396  3.9500000000000D+00  0.0000000000000D+00  0.0000000000000D+00
397  3.9600000000000D+00  0.0000000000000D+00  0.0000000000000D+00
398  3.9700000000000D+00  0.0000000000000D+00  0.0000000000000D+00
399  3.9800000000000D+00  0.0000000000000D+00  0.0000000000000D+00
400  3.9900000000000D+00  0.0000000000000D+00  0.0000000000000D+00
1                        -5.1800082427837D+00 -1.7184959709553D+00
1  0.0000000000000D+00 -1.2044767960795D-11  1.1565856605777D-10
2  1.0000000000000D-02  1.4860802711072D-03 -5.0489158786327D-04
3  2.0000000000000D-02  5.9391942803270D-03 -2.0165205540191D-03
4  3.0000000000000D-02  1.3343974757410D-02 -4.5257554610386D-03
5  4.0000000000000D-02  2.3674853402833D-02 -8.0173971628909D-03
6  5.0000000000000D-02  3.6896126651099D-02 -1.2470208912228D-02
7  6.0000000000000D-02  5.2962047811102D-02 -1.7856958972006D-02
8  7.0000000000000D-02  7.1816945650282D-02 -2.4144476183097D-02
9  8.0000000000000D-02  9.3395369501326D-02 -3.1293719055218D-02
10  9.0000000000000D-02  1.1762226097692D-01 -3.9259859053697D-02
11  1.0000000000000D-01  1.4441315237863D-01 -4.7992378848050D-02
12  1.1000000000000D-01  1.7367439187936D-01 -5.7435186367832D-02
13  1.2000000000000D-01  2.0530339554425D-01 -6.7526745574952D-02
14  1.3000000000000D-01  2.3918892623130D-01 -7.8200224908243D-02
15  1.4000000000000D-01  2.7521139938010D-01 -8.9383664384078D-02
16  1.5000000000000D-01  3.1324321565406D-01 -1.0100016234493D-01
17  1.6000000000000D-01  3.5314912034809D-01 -1.1296808283543D-01
18  1.7000000000000D-01  3.9478658940959D-01 -1.2520128455120D-01
19  1.8000000000000D-01  4.3800624184532D-01 -1.3760937224999D-01
20  1.9000000000000D-01  4.8265227820119D-01 -1.5009797143650D-01
21  2.0000000000000D-01  5.2856294470473D-01 -1.6256902703161D-01
22  2.1000000000000D-01  5.7557102255337D-01 -1.7492112661489D-01
23  2.2000000000000D-01  6.2350434171400D-01 -1.8704984868514D-01
24  2.3000000000000D-01  6.7218631847272D-01 -1.9884813621993D-01
25  2.4000000000000D-01  7.2143651583825D-01 -2.1020669563061D-01
26  2.5000000000000D-01  7.7107122575900D-01 -2.2101442100777D-01
27  2.6000000000000D-01  8.2090407196355D-01 -2.3115884333288D-01
28  2.7000000000000D-01  8.7074663207839D-01 -2.4052660409794D-01
29  2.8000000000000D-01  9.2040907751583D-01 -2.4900395252834D-01
30  2.9000000000000D-01  9.6970082946170D-01 -2.5647726534630D-01
31  3.0000000000000D-01  1.0184312291265D+00 -2.6283358774600D-01
32  3.1000000000000D-01  1.0664102202579D+00 -2.6796119397949D-01
33  3.2000000000000D-01  1.1134490417496D+00 -2.7175016567735D-01
34  3.3000000000000D-01  1.1593609280165D+00 -2.7409298575167D-01
35  3.4000000000000D-01  1.2039618146560D+00 -2.7488514545615D-01
36  3.5000000000000D-01  1.2470710467584D+00 -2.7402576190973D-01
37  3.6000000000000D-01  1.2885120870927D+00 -2.7141820313063D-01
38  3.7000000000000D-01  1.3281132212612D+00 -2.6697071737944D-01
39  3.8000000000000D-01  1.3657082567949D+00 -2.6059706337631D-01
40  3.9000000000000D-01  1.4011372130588D+00 -2.5221713774052D-01
41  4.0000000000000D-01  1.4342469987413D+00 -2.4175759580493D-01
42  4.1000000000000D-01  1.4648920736311D+00 -2.2915246178458D-01
43  4.2000000000000D-01  1.4929350913256D+00 -2.1434372413133D-01