Re    ONCVPSP-3.2.3.1  r_core=   1.60865   1.60865   1.60865   2.01786
75.0000     15.0000      170501    zatom,zion,pspd
8      11   3     4   600     0    pspcod,pspxc,lmax,lloc,mmax,r2well
5.99000000  4.00000000  0.00000000    rchrg fchrg qchrg
2     2     2     2     0    nproj
1     1           extension_switch
0                         6.3200425048913D+00 -9.6515454992163D-01
1  0.0000000000000D+00  1.7433487986551D-10  1.9403725848299D-09
2  1.0000000000000D-02  5.3502283480373D-02 -6.1310878595877D-02
3  2.0000000000000D-02  1.0694789401317D-01 -1.2223120196900D-01
4  3.0000000000000D-02  1.6027998995778D-01 -1.8237406549572D-01
5  4.0000000000000D-02  2.1344139585106D-01 -2.4135982380029D-01
6  5.0000000000000D-02  2.6637444435990D-01 -2.9881961600263D-01
7  6.0000000000000D-02  3.1902082874535D-01 -3.5439876710765D-01
8  7.0000000000000D-02  3.7132146913514D-01 -4.0776002655418D-01
9  8.0000000000000D-02  4.2321639572709D-01 -4.5858660688220D-01
10  9.0000000000000D-02  4.7464465183188D-01 -5.0658498785954D-01
11  1.0000000000000D-01  5.2554421941226D-01 -5.5148745420668D-01
12  1.1000000000000D-01  5.7585196948987D-01 -5.9305433823723D-01
13  1.2000000000000D-01  6.2550363947437D-01 -6.3107594225524D-01
14  1.3000000000000D-01  6.7443383912510D-01 -6.6537411937746D-01
15  1.4000000000000D-01  7.2257608648805D-01 -6.9580349553376D-01
16  1.5000000000000D-01  7.6986287476448D-01 -7.2225231969485D-01
17  1.6000000000000D-01  8.1622577066624D-01 -7.4464293383166D-01
18  1.7000000000000D-01  8.6159554440187D-01 -7.6293185867362D-01
19  1.8000000000000D-01  9.0590233102176D-01 -7.7710949594893D-01
20  1.9000000000000D-01  9.4907582243421D-01 -7.8719945240469D-01
21  2.0000000000000D-01  9.9104548899347D-01 -7.9325749546263D-01
22  2.1000000000000D-01  1.0317408291587D+00 -7.9537015481394D-01
23  2.2000000000000D-01  1.0710916453364D+00 -7.9365298854023D-01
24  2.3000000000000D-01  1.1090283436499D+00 -7.8824853641503D-01
25  2.4000000000000D-01  1.1454822550373D+00 -7.7932398684384D-01
26  2.5000000000000D-01  1.1803859747594D+00 -7.6706858739256D-01
27  2.6000000000000D-01  1.2136737171183D+00 -7.5169083199166D-01
28  2.7000000000000D-01  1.2452816819339D+00 -7.3341546064902D-01
29  2.8000000000000D-01  1.2751484291186D+00 -7.1248030982165D-01
30  2.9000000000000D-01  1.3032152575151D+00 -6.8913305345786D-01
31  3.0000000000000D-01  1.3294265840419D+00 -6.6362787610018D-01
32  3.1000000000000D-01  1.3537303191029D+00 -6.3622212031974D-01
33  3.2000000000000D-01  1.3760782341897D+00 -6.0717295111848D-01
34  3.3000000000000D-01  1.3964263176099D+00 -5.7673407978252D-01
35  3.4000000000000D-01  1.4147351143415D+00 -5.4515258899475D-01
36  3.5000000000000D-01  1.4309700461140D+00 -5.1266589982535D-01
37  3.6000000000000D-01  1.4451017079745D+00 -4.7949891952273D-01
38  3.7000000000000D-01  1.4571061377921D+00 -4.4586140684755D-01
39  3.8000000000000D-01  1.4669650553940D+00 -4.1194558904563D-01
40  3.9000000000000D-01  1.4746660683105D+00 -3.7792406147699D-01
41  4.0000000000000D-01  1.4802028414199D+00 -3.4394799743740D-01
42  4.1000000000000D-01  1.4835752281401D+00 -3.1014569186822D-01
43  4.2000000000000D-01  1.4847893611946D+00 -2.7662145849248D-01
44  4.3000000000000D-01  1.4838577013884D+00 -2.4345489548812D-01
45  4.4000000000000D-01  1.4807990432598D+00 -2.1070053016545D-01
46  4.5000000000000D-01  1.4756384769215D+00 -1.7838784830915D-01
47  4.6000000000000D-01  1.4684073058597D+00 -1.4652170893271D-01
48  4.7000000000000D-01  1.4591429209283D+00 -1.1508314023481D-01
49  4.8000000000000D-01  1.4478886312373D+00 -8.4030507599714D-02
50  4.9000000000000D-01  1.4346934530998D+00 -5.3301039612582D-02
51  5.0000000000000D-01  1.4196118586492D+00 -2.2812693319541D-02
52  5.1000000000000D-01  1.4027034861813D+00  7.5336645846155D-03
53  5.2000000000000D-01  1.3840328146869D+00  3.7851788258416D-02
54  5.3000000000000D-01  1.3636688054380D+00  6.8267326514971D-02
55  5.4000000000000D-01  1.3416845138480D+00  9.8914875175568D-02
56  5.5000000000000D-01  1.3181566751608D+00  1.2993484646349D-01
57  5.6000000000000D-01  1.2931652678070D+00  1.6147019671561D-01
58  5.7000000000000D-01  1.2667930585207D+00  1.9366305599800D-01
59  5.8000000000000D-01  1.2391251335083D+00  2.2665130499495D-01
60  5.9000000000000D-01  1.2102484201218D+00  2.6056514578660D-01
61  6.0000000000000D-01  1.1802512035914D+00  2.9552371380345D-01
62  6.1000000000000D-01  1.1492226434303D+00  3.3163177834128D-01
63  6.2000000000000D-01  1.1172522941269D+00  3.6897657852827D-01
64  6.3000000000000D-01  1.0844296346888D+00  4.0762484055064D-01
65  6.4000000000000D-01  1.0508436115025D+00  4.4762002027768D-01
66  6.5000000000000D-01  1.0165821988191D+00  4.8897981319865D-01
67  6.6000000000000D-01  9.8173198097205D-01  5.3169397079181D-01
68  6.7000000000000D-01  9.4637776018258D-01  5.7572245914295D-01
69  6.8000000000000D-01  9.1060219351050D-01  6.2099399185146D-01
70  6.9000000000000D-01  8.7448546217054D-01  6.6740496500227D-01
71  7.0000000000000D-01  8.3810497605591D-01  7.1481881735501D-01
72  7.1000000000000D-01  8.0153511589947D-01  7.6306583390182D-01
73  7.2000000000000D-01  7.6484701506324D-01  8.1194340567678D-01
74  7.3000000000000D-01  7.2810838247888D-01  8.6121675315588D-01
75  7.4000000000000D-01  6.9138336777900D-01  9.1062011491728D-01
76  7.5000000000000D-01  6.5473246915991D-01  9.5985839743310D-01
77  7.6000000000000D-01  6.1821248401042D-01  1.0086092760369D+00
78  7.7000000000000D-01  5.8187650183343D-01  1.0565257313194D+00
79  7.8000000000000D-01  5.4577393848424D-01  1.1032389995324D+00
80  7.9000000000000D-01  5.0995061025479D-01  1.1483619100495D+00
81  8.0000000000000D-01  4.7444884585715D-01  1.1914925776877D+00
82  8.1000000000000D-01  4.3930763390470D-01  1.2322184127324D+00
83  8.2000000000000D-01  4.0456280306170D-01  1.2701204069338D+00
84  8.3000000000000D-01  3.7024723163842D-01  1.3047776495976D+00
85  8.4000000000000D-01  3.3639108305232D-01  1.3357720242444D+00
86  8.5000000000000D-01  3.0302206326258D-01  1.3626930331991D+00
87  8.6000000000000D-01  2.7016569601787D-01  1.3851426949492D+00
88  8.7000000000000D-01  2.3784561154069D-01  1.4027404572093D+00
89  8.8000000000000D-01  2.0608384410765D-01  1.4151280673839D+00
90  8.9000000000000D-01  1.7490113387709D-01  1.4219743415533D+00
91  9.0000000000000D-01  1.4431722826418D-01  1.4229797732358D+00
92  9.1000000000000D-01  1.1435117817112D-01  1.4178809240112D+00
93  9.2000000000000D-01  8.5021624445924D-02  1.4064545396185D+00
94  9.3000000000000D-01  5.6347070067272D-02  1.3885213373716D+00
95  9.4000000000000D-01  2.8346133734317D-02  1.3639494136310D+00
96  9.5000000000000D-01  1.0377807777972D-03  1.3326572236334D+00
97  9.6000000000000D-01 -2.5558472401403D-02  1.2946160901482D+00
98  9.7000000000000D-01 -5.1422383823845D-02  1.2498522021281D+00
99  9.8000000000000D-01 -7.6532844418580D-02  1.1984480698747D+00
100  9.9000000000000D-01 -1.0086777214860D-01  1.1405434089147D+00
101  1.0000000000000D+00 -1.2440404395082D-01  1.0763354309576D+00
102  1.0100000000000D+00 -1.4711746717110D-01  1.0060785267935D+00
103  1.0200000000000D+00 -1.6898279165391D-01  9.3008333274025D-01
104  1.0300000000000D+00 -1.8997376309146D-01  8.4871517936344D-01
105  1.0400000000000D+00 -2.1006321772016D-01  7.6239192779680D-01
106  1.0500000000000D+00 -2.2922321783902D-01  6.7158120673873D-01
107  1.0600000000000D+00 -2.4742522710186D-01  5.7679706977553D-01
108  1.0700000000000D+00 -2.6464032397045D-01  4.7859609973555D-01
109  1.0800000000000D+00 -2.8083945115379D-01  3.7757299374889D-01
110  1.0900000000000D+00 -2.9599369840124D-01  2.7435566833724D-01
111  1.1000000000000D+00 -3.1007461544938D-01  1.6959993081818D-01
112  1.1100000000000D+00 -3.2305455151365D-01  6.3983768276830D-02
113  1.1200000000000D+00 -3.3490701727462D-01 -4.1798689317579D-02
114  1.1300000000000D+00 -3.4560706495670D-01 -1.4704347106658D-01
115  1.1400000000000D+00 -3.5513168176288D-01 -2.5104326742355D-01
116  1.1500000000000D+00 -3.6346019164067D-01 -3.5309406471678D-01
117  1.1600000000000D+00 -3.7057466017082D-01 -4.5250184178101D-01
118  1.1700000000000D+00 -3.7646029722521D-01 -5.4858925698747D-01
119  1.1800000000000D+00 -3.8110585192396D-01 -6.4070225278859D-01
120  1.1900000000000D+00 -3.8450399441638D-01 -7.2821650511036D-01
121  1.2000000000000D+00 -3.8665167910584D-01 -8.1054364640022D-01
122  1.2100000000000D+00 -3.8755048394629D-01 -8.8713719138819D-01
123  1.2200000000000D+00 -3.8720692070501D-01 -9.5749809835684D-01
124  1.2300000000000D+00 -3.8563271135207D-01 -1.0211799022166D+00
125  1.2400000000000D+00 -3.8284502594182D-01 -1.0777933584302D+00
126  1.2500000000000D+00 -3.7886667774457D-01 -1.1270105420224D+00
127  1.2600000000000D+00 -3.7372627195843D-01 -1.1685683532770D+00
128  1.2700000000000D+00 -3.6745830461352D-01 -1.2022713853656D+00
129  1.2800000000000D+00 -3.6010320875576D-01 -1.2279941152919D+00
130  1.2900000000000D+00 -3.5170734592902D-01 -1.2456823913955D+00
131  1.3000000000000D+00 -3.4232294114068D-01 -1.2553541927618D+00
132  1.3100000000000D+00 -3.3200796015835D-01 -1.2570996443505D+00
133  1.3200000000000D+00 -3.2082592916152D-01 -1.2510802864871D+00
134  1.3300000000000D+00 -3.0884569660739D-01 -1.2375275952951D+00
135  1.3400000000000D+00 -2.9614113830573D-01 -1.2167407649955D+00
136  1.3500000000000D+00 -2.8279080774211D-01 -1.1890837761011D+00
137  1.3600000000000D+00 -2.6887753310503D-01 -1.1549817662174D+00
138  1.3700000000000D+00 -2.5448796451170D-01 -1.1149167457778D+00
139  1.3800000000000D+00 -2.3971207483675D-01 -1.0694226998744D+00
140  1.3900000000000D+00 -2.2464261762961D-01 -1.0190801183921D+00
141  1.4000000000000D+00 -2.0937454755284D-01 -9.6451002103420D-01
142  1.4100000000000D+00 -1.9400440763751D-01 -9.0636752959530D-01
143  1.4200000000000D+00 -1.7862968922878D-01 -8.4533505958508D-01
144  1.4300000000000D+00 -1.6334817058059D-01 -7.8211520441833D-01
145  1.4400000000000D+00 -1.4825723983196D-01 -7.1742338248976D-01
146  1.4500000000000D+00 -1.3345320938271D-01 -6.5198033366939D-01
147  1.4600000000000D+00 -1.1903062776049D-01 -5.8650454007861D-01
148  1.4700000000000D+00 -1.0508159611326D-01 -5.2170465914575D-01
149  1.4800000000000D+00 -9.1695095679118D-02 -4.5827204726215D-01
150  1.4900000000000D+00 -7.8956333503423D-02 -3.9687346364034D-01
151  1.5000000000000D+00 -6.6946112137191D-02 -3.3814402534364D-01
152  1.5100000000000D+00 -5.5740230905254D-02 -2.8268050697926D-01
153  1.5200000000000D+00 -4.5408923592624D-02 -2.3103504525230D-01
154  1.5300000000000D+00 -3.6016339485135D-02 -1.8370933396132D-01
155  1.5400000000000D+00 -2.7620072526743D-02 -1.4114936855130D-01
156  1.5500000000000D+00 -2.0270743532984D-02 -1.0374080142681D-01
157  1.5600000000000D+00 -1.4016101896390D-02 -7.1827896256657D-02
158  1.5700000000000D+00 -8.8791259025083D-03 -4.5599273843323D-02
159  1.5800000000000D+00 -4.8696358963881D-03 -2.5142314089861D-02
160  1.5900000000000D+00 -2.0976486494076D-03 -1.1046217202818D-02
161  1.6000000000000D+00 -5.7744111473835D-04 -3.3742412811458D-03
162  1.6100000000000D+00  1.2216547377415D-05 -3.3511938712087D-04
163  1.6200000000000D+00  7.8327375608793D-05  2.2329363504606D-04
164  1.6300000000000D+00 -1.2255450527880D-05 -4.1759726129967D-05
165  1.6400000000000D+00 -2.7041140326048D-05 -9.8910207549879D-05
166  1.6500000000000D+00  2.4005101193303D-06  7.4826983972355D-06
167  1.6600000000000D+00  4.8260232084662D-06  1.5764856464037D-05
168  1.6700000000000D+00  3.8099307448479D-08  7.5656146612037D-07
169  1.6800000000000D+00  7.0567771309897D-08  1.4013077952994D-06
170  1.6900000000000D+00  0.0000000000000D+00  0.0000000000000D+00
171  1.7000000000000D+00  0.0000000000000D+00  0.0000000000000D+00
172  1.7100000000000D+00  0.0000000000000D+00  0.0000000000000D+00
173  1.7200000000000D+00  0.0000000000000D+00  0.0000000000000D+00
174  1.7300000000000D+00  0.0000000000000D+00  0.0000000000000D+00
175  1.7400000000000D+00  0.0000000000000D+00  0.0000000000000D+00
176  1.7500000000000D+00  0.0000000000000D+00  0.0000000000000D+00
177  1.7600000000000D+00  0.0000000000000D+00  0.0000000000000D+00
178  1.7700000000000D+00  0.0000000000000D+00  0.0000000000000D+00
179  1.7800000000000D+00  0.0000000000000D+00  0.0000000000000D+00
180  1.7900000000000D+00  0.0000000000000D+00  0.0000000000000D+00
181  1.8000000000000D+00  0.0000000000000D+00  0.0000000000000D+00
182  1.8100000000000D+00  0.0000000000000D+00  0.0000000000000D+00
183  1.8200000000000D+00  0.0000000000000D+00  0.0000000000000D+00
184  1.8300000000000D+00  0.0000000000000D+00  0.0000000000000D+00
185  1.8400000000000D+00  0.0000000000000D+00  0.0000000000000D+00
186  1.8500000000000D+00  0.0000000000000D+00  0.0000000000000D+00
187  1.8600000000000D+00  0.0000000000000D+00  0.0000000000000D+00
188  1.8700000000000D+00  0.0000000000000D+00  0.0000000000000D+00
189  1.8800000000000D+00  0.0000000000000D+00  0.0000000000000D+00
190  1.8900000000000D+00  0.0000000000000D+00  0.0000000000000D+00
191  1.9000000000000D+00  0.0000000000000D+00  0.0000000000000D+00
192  1.9100000000000D+00  0.0000000000000D+00  0.0000000000000D+00
193  1.9200000000000D+00  0.0000000000000D+00  0.0000000000000D+00
194  1.9300000000000D+00  0.0000000000000D+00  0.0000000000000D+00
195  1.9400000000000D+00  0.0000000000000D+00  0.0000000000000D+00
196  1.9500000000000D+00  0.0000000000000D+00  0.0000000000000D+00
197  1.9600000000000D+00  0.0000000000000D+00  0.0000000000000D+00
198  1.9700000000000D+00  0.0000000000000D+00  0.0000000000000D+00
199  1.9800000000000D+00  0.0000000000000D+00  0.0000000000000D+00
200  1.9900000000000D+00  0.0000000000000D+00  0.0000000000000D+00
201  2.0000000000000D+00  0.0000000000000D+00  0.0000000000000D+00
202  2.0100000000000D+00  0.0000000000000D+00  0.0000000000000D+00
203  2.0200000000000D+00  0.0000000000000D+00  0.0000000000000D+00
204  2.0300000000000D+00  0.0000000000000D+00  0.0000000000000D+00
205  2.0400000000000D+00  0.0000000000000D+00  0.0000000000000D+00
206  2.0500000000000D+00  0.0000000000000D+00  0.0000000000000D+00
207  2.0600000000000D+00  0.0000000000000D+00  0.0000000000000D+00
208  2.0700000000000D+00  0.0000000000000D+00  0.0000000000000D+00
209  2.0800000000000D+00  0.0000000000000D+00  0.0000000000000D+00
210  2.0900000000000D+00  0.0000000000000D+00  0.0000000000000D+00
211  2.1000000000000D+00  0.0000000000000D+00  0.0000000000000D+00
212  2.1100000000000D+00  0.0000000000000D+00  0.0000000000000D+00
213  2.1200000000000D+00  0.0000000000000D+00  0.0000000000000D+00
214  2.1300000000000D+00  0.0000000000000D+00  0.0000000000000D+00
215  2.1400000000000D+00  0.0000000000000D+00  0.0000000000000D+00
216  2.1500000000000D+00  0.0000000000000D+00  0.0000000000000D+00
217  2.1600000000000D+00  0.0000000000000D+00  0.0000000000000D+00
218  2.1700000000000D+00  0.0000000000000D+00  0.0000000000000D+00
219  2.1800000000000D+00  0.0000000000000D+00  0.0000000000000D+00
220  2.1900000000000D+00  0.0000000000000D+00  0.0000000000000D+00
221  2.2000000000000D+00  0.0000000000000D+00  0.0000000000000D+00
222  2.2100000000000D+00  0.0000000000000D+00  0.0000000000000D+00
223  2.2200000000000D+00  0.0000000000000D+00  0.0000000000000D+00
224  2.2300000000000D+00  0.0000000000000D+00  0.0000000000000D+00
225  2.2400000000000D+00  0.0000000000000D+00  0.0000000000000D+00
226  2.2500000000000D+00  0.0000000000000D+00  0.0000000000000D+00
227  2.2600000000000D+00  0.0000000000000D+00  0.0000000000000D+00
228  2.2700000000000D+00  0.0000000000000D+00  0.0000000000000D+00
229  2.2800000000000D+00  0.0000000000000D+00  0.0000000000000D+00
230  2.2900000000000D+00  0.0000000000000D+00  0.0000000000000D+00
231  2.3000000000000D+00  0.0000000000000D+00  0.0000000000000D+00
232  2.3100000000000D+00  0.0000000000000D+00  0.0000000000000D+00
233  2.3200000000000D+00  0.0000000000000D+00  0.0000000000000D+00
234  2.3300000000000D+00  0.0000000000000D+00  0.0000000000000D+00
235  2.3400000000000D+00  0.0000000000000D+00  0.0000000000000D+00
236  2.3500000000000D+00  0.0000000000000D+00  0.0000000000000D+00
237  2.3600000000000D+00  0.0000000000000D+00  0.0000000000000D+00
238  2.3700000000000D+00  0.0000000000000D+00  0.0000000000000D+00
239  2.3800000000000D+00  0.0000000000000D+00  0.0000000000000D+00
240  2.3900000000000D+00  0.0000000000000D+00  0.0000000000000D+00
241  2.4000000000000D+00  0.0000000000000D+00  0.0000000000000D+00
242  2.4100000000000D+00  0.0000000000000D+00  0.0000000000000D+00
243  2.4200000000000D+00  0.0000000000000D+00  0.0000000000000D+00
244  2.4300000000000D+00  0.0000000000000D+00  0.0000000000000D+00
245  2.4400000000000D+00  0.0000000000000D+00  0.0000000000000D+00
246  2.4500000000000D+00  0.0000000000000D+00  0.0000000000000D+00
247  2.4600000000000D+00  0.0000000000000D+00  0.0000000000000D+00
248  2.4700000000000D+00  0.0000000000000D+00  0.0000000000000D+00
249  2.4800000000000D+00  0.0000000000000D+00  0.0000000000000D+00
250  2.4900000000000D+00  0.0000000000000D+00  0.0000000000000D+00
251  2.5000000000000D+00  0.0000000000000D+00  0.0000000000000D+00
252  2.5100000000000D+00  0.0000000000000D+00  0.0000000000000D+00
253  2.5200000000000D+00  0.0000000000000D+00  0.0000000000000D+00
254  2.5300000000000D+00  0.0000000000000D+00  0.0000000000000D+00
255  2.5400000000000D+00  0.0000000000000D+00  0.0000000000000D+00
256  2.5500000000000D+00  0.0000000000000D+00  0.0000000000000D+00
257  2.5600000000000D+00  0.0000000000000D+00  0.0000000000000D+00
258  2.5700000000000D+00  0.0000000000000D+00  0.0000000000000D+00
259  2.5800000000000D+00  0.0000000000000D+00  0.0000000000000D+00
260  2.5900000000000D+00  0.0000000000000D+00  0.0000000000000D+00
261  2.6000000000000D+00  0.0000000000000D+00  0.0000000000000D+00
262  2.6100000000000D+00  0.0000000000000D+00  0.0000000000000D+00
263  2.6200000000000D+00  0.0000000000000D+00  0.0000000000000D+00
264  2.6300000000000D+00  0.0000000000000D+00  0.0000000000000D+00
265  2.6400000000000D+00  0.0000000000000D+00  0.0000000000000D+00
266  2.6500000000000D+00  0.0000000000000D+00  0.0000000000000D+00
267  2.6600000000000D+00  0.0000000000000D+00  0.0000000000000D+00
268  2.6700000000000D+00  0.0000000000000D+00  0.0000000000000D+00
269  2.6800000000000D+00  0.0000000000000D+00  0.0000000000000D+00
270  2.6900000000000D+00  0.0000000000000D+00  0.0000000000000D+00
271  2.7000000000000D+00  0.0000000000000D+00  0.0000000000000D+00
272  2.7100000000000D+00  0.0000000000000D+00  0.0000000000000D+00
273  2.7200000000000D+00  0.0000000000000D+00  0.0000000000000D+00
274  2.7300000000000D+00  0.0000000000000D+00  0.0000000000000D+00
275  2.7400000000000D+00  0.0000000000000D+00  0.0000000000000D+00
276  2.7500000000000D+00  0.0000000000000D+00  0.0000000000000D+00
277  2.7600000000000D+00  0.0000000000000D+00  0.0000000000000D+00
278  2.7700000000000D+00  0.0000000000000D+00  0.0000000000000D+00
279  2.7800000000000D+00  0.0000000000000D+00  0.0000000000000D+00
280  2.7900000000000D+00  0.0000000000000D+00  0.0000000000000D+00
281  2.8000000000000D+00  0.0000000000000D+00  0.0000000000000D+00
282  2.8100000000000D+00  0.0000000000000D+00  0.0000000000000D+00
283  2.8200000000000D+00  0.0000000000000D+00  0.0000000000000D+00
284  2.8300000000000D+00  0.0000000000000D+00  0.0000000000000D+00
285  2.8400000000000D+00  0.0000000000000D+00  0.0000000000000D+00
286  2.8500000000000D+00  0.0000000000000D+00  0.0000000000000D+00
287  2.8600000000000D+00  0.0000000000000D+00  0.0000000000000D+00
288  2.8700000000000D+00  0.0000000000000D+00  0.0000000000000D+00
289  2.8800000000000D+00  0.0000000000000D+00  0.0000000000000D+00
290  2.8900000000000D+00  0.0000000000000D+00  0.0000000000000D+00
291  2.9000000000000D+00  0.0000000000000D+00  0.0000000000000D+00
292  2.9100000000000D+00  0.0000000000000D+00  0.0000000000000D+00
293  2.9200000000000D+00  0.0000000000000D+00  0.0000000000000D+00
294  2.9300000000000D+00  0.0000000000000D+00  0.0000000000000D+00
295  2.9400000000000D+00  0.0000000000000D+00  0.0000000000000D+00
296  2.9500000000000D+00  0.0000000000000D+00  0.0000000000000D+00
297  2.9600000000000D+00  0.0000000000000D+00  0.0000000000000D+00
298  2.9700000000000D+00  0.0000000000000D+00  0.0000000000000D+00
299  2.9800000000000D+00  0.0000000000000D+00  0.0000000000000D+00
300  2.9900000000000D+00  0.0000000000000D+00  0.0000000000000D+00
301  3.0000000000000D+00  0.0000000000000D+00  0.0000000000000D+00
302  3.0100000000000D+00  0.0000000000000D+00  0.0000000000000D+00
303  3.0200000000000D+00  0.0000000000000D+00  0.0000000000000D+00
304  3.0300000000000D+00  0.0000000000000D+00  0.0000000000000D+00
305  3.0400000000000D+00  0.0000000000000D+00  0.0000000000000D+00
306  3.0500000000000D+00  0.0000000000000D+00  0.0000000000000D+00
307  3.0600000000000D+00  0.0000000000000D+00  0.0000000000000D+00
308  3.0700000000000D+00  0.0000000000000D+00  0.0000000000000D+00
309  3.0800000000000D+00  0.0000000000000D+00  0.0000000000000D+00
310  3.0900000000000D+00  0.0000000000000D+00  0.0000000000000D+00
311  3.1000000000000D+00  0.0000000000000D+00  0.0000000000000D+00
312  3.1100000000000D+00  0.0000000000000D+00  0.0000000000000D+00
313  3.1200000000000D+00  0.0000000000000D+00  0.0000000000000D+00
314  3.1300000000000D+00  0.0000000000000D+00  0.0000000000000D+00
315  3.1400000000000D+00  0.0000000000000D+00  0.0000000000000D+00
316  3.1500000000000D+00  0.0000000000000D+00  0.0000000000000D+00
317  3.1600000000000D+00  0.0000000000000D+00  0.0000000000000D+00
318  3.1700000000000D+00  0.0000000000000D+00  0.0000000000000D+00
319  3.1800000000000D+00  0.0000000000000D+00  0.0000000000000D+00
320  3.1900000000000D+00  0.0000000000000D+00  0.0000000000000D+00
321  3.2000000000000D+00  0.0000000000000D+00  0.0000000000000D+00
322  3.2100000000000D+00  0.0000000000000D+00  0.0000000000000D+00
323  3.2200000000000D+00  0.0000000000000D+00  0.0000000000000D+00
324  3.2300000000000D+00  0.0000000000000D+00  0.0000000000000D+00
325  3.2400000000000D+00  0.0000000000000D+00  0.0000000000000D+00
326  3.2500000000000D+00  0.0000000000000D+00  0.0000000000000D+00
327  3.2600000000000D+00  0.0000000000000D+00  0.0000000000000D+00
328  3.2700000000000D+00  0.0000000000000D+00  0.0000000000000D+00
329  3.2800000000000D+00  0.0000000000000D+00  0.0000000000000D+00
330  3.2900000000000D+00  0.0000000000000D+00  0.0000000000000D+00
331  3.3000000000000D+00  0.0000000000000D+00  0.0000000000000D+00
332  3.3100000000000D+00  0.0000000000000D+00  0.0000000000000D+00
333  3.3200000000000D+00  0.0000000000000D+00  0.0000000000000D+00
334  3.3300000000000D+00  0.0000000000000D+00  0.0000000000000D+00
335  3.3400000000000D+00  0.0000000000000D+00  0.0000000000000D+00
336  3.3500000000000D+00  0.0000000000000D+00  0.0000000000000D+00
337  3.3600000000000D+00  0.0000000000000D+00  0.0000000000000D+00
338  3.3700000000000D+00  0.0000000000000D+00  0.0000000000000D+00
339  3.3800000000000D+00  0.0000000000000D+00  0.0000000000000D+00
340  3.3900000000000D+00  0.0000000000000D+00  0.0000000000000D+00
341  3.4000000000000D+00  0.0000000000000D+00  0.0000000000000D+00
342  3.4100000000000D+00  0.0000000000000D+00  0.0000000000000D+00
343  3.4200000000000D+00  0.0000000000000D+00  0.0000000000000D+00
344  3.4300000000000D+00  0.0000000000000D+00  0.0000000000000D+00
345  3.4400000000000D+00  0.0000000000000D+00  0.0000000000000D+00
346  3.4500000000000D+00  0.0000000000000D+00  0.0000000000000D+00
347  3.4600000000000D+00  0.0000000000000D+00  0.0000000000000D+00
348  3.4700000000000D+00  0.0000000000000D+00  0.0000000000000D+00
349  3.4800000000000D+00  0.0000000000000D+00  0.0000000000000D+00
350  3.4900000000000D+00  0.0000000000000D+00  0.0000000000000D+00
351  3.5000000000000D+00  0.0000000000000D+00  0.0000000000000D+00
352  3.5100000000000D+00  0.0000000000000D+00  0.0000000000000D+00
353  3.5200000000000D+00  0.0000000000000D+00  0.0000000000000D+00
354  3.5300000000000D+00  0.0000000000000D+00  0.0000000000000D+00
355  3.5400000000000D+00  0.0000000000000D+00  0.0000000000000D+00
356  3.5500000000000D+00  0.0000000000000D+00  0.0000000000000D+00
357  3.5600000000000D+00  0.0000000000000D+00  0.0000000000000D+00
358  3.5700000000000D+00  0.0000000000000D+00  0.0000000000000D+00
359  3.5800000000000D+00  0.0000000000000D+00  0.0000000000000D+00
360  3.5900000000000D+00  0.0000000000000D+00  0.0000000000000D+00
361  3.6000000000000D+00  0.0000000000000D+00  0.0000000000000D+00
362  3.6100000000000D+00  0.0000000000000D+00  0.0000000000000D+00
363  3.6200000000000D+00  0.0000000000000D+00  0.0000000000000D+00
364  3.6300000000000D+00  0.0000000000000D+00  0.0000000000000D+00
365  3.6400000000000D+00  0.0000000000000D+00  0.0000000000000D+00
366  3.6500000000000D+00  0.0000000000000D+00  0.0000000000000D+00
367  3.6600000000000D+00  0.0000000000000D+00  0.0000000000000D+00
368  3.6700000000000D+00  0.0000000000000D+00  0.0000000000000D+00
369  3.6800000000000D+00  0.0000000000000D+00  0.0000000000000D+00
370  3.6900000000000D+00  0.0000000000000D+00  0.0000000000000D+00
371  3.7000000000000D+00  0.0000000000000D+00  0.0000000000000D+00
372  3.7100000000000D+00  0.0000000000000D+00  0.0000000000000D+00
373  3.7200000000000D+00  0.0000000000000D+00  0.0000000000000D+00
374  3.7300000000000D+00  0.0000000000000D+00  0.0000000000000D+00
375  3.7400000000000D+00  0.0000000000000D+00  0.0000000000000D+00
376  3.7500000000000D+00  0.0000000000000D+00  0.0000000000000D+00
377  3.7600000000000D+00  0.0000000000000D+00  0.0000000000000D+00
378  3.7700000000000D+00  0.0000000000000D+00  0.0000000000000D+00
379  3.7800000000000D+00  0.0000000000000D+00  0.0000000000000D+00
380  3.7900000000000D+00  0.0000000000000D+00  0.0000000000000D+00
381  3.8000000000000D+00  0.0000000000000D+00  0.0000000000000D+00
382  3.8100000000000D+00  0.0000000000000D+00  0.0000000000000D+00
383  3.8200000000000D+00  0.0000000000000D+00  0.0000000000000D+00
384  3.8300000000000D+00  0.0000000000000D+00  0.0000000000000D+00
385  3.8400000000000D+00  0.0000000000000D+00  0.0000000000000D+00
386  3.8500000000000D+00  0.0000000000000D+00  0.0000000000000D+00
387  3.8600000000000D+00  0.0000000000000D+00  0.0000000000000D+00
388  3.8700000000000D+00  0.0000000000000D+00  0.0000000000000D+00
389  3.8800000000000D+00  0.0000000000000D+00  0.0000000000000D+00
390  3.8900000000000D+00  0.0000000000000D+00  0.0000000000000D+00
391  3.9000000000000D+00  0.0000000000000D+00  0.0000000000000D+00
392  3.9100000000000D+00  0.0000000000000D+00  0.0000000000000D+00
393  3.9200000000000D+00  0.0000000000000D+00  0.0000000000000D+00
394  3.9300000000000D+00  0.0000000000000D+00  0.0000000000000D+00
395  3.9400000000000D+00  0.0000000000000D+00  0.0000000000000D+00
396  3.9500000000000D+00  0.0000000000000D+00  0.0000000000000D+00
397  3.9600000000000D+00  0.0000000000000D+00  0.0000000000000D+00
398  3.9700000000000D+00  0.0000000000000D+00  0.0000000000000D+00
399  3.9800000000000D+00  0.0000000000000D+00  0.0000000000000D+00
400  3.9900000000000D+00  0.0000000000000D+00  0.0000000000000D+00
401  4.0000000000000D+00  0.0000000000000D+00  0.0000000000000D+00
402  4.0100000000000D+00  0.0000000000000D+00  0.0000000000000D+00
403  4.0200000000000D+00  0.0000000000000D+00  0.0000000000000D+00
404  4.0300000000000D+00  0.0000000000000D+00  0.0000000000000D+00
405  4.0400000000000D+00  0.0000000000000D+00  0.0000000000000D+00
406  4.0500000000000D+00  0.0000000000000D+00  0.0000000000000D+00
407  4.0600000000000D+00  0.0000000000000D+00  0.0000000000000D+00
408  4.0700000000000D+00  0.0000000000000D+00  0.0000000000000D+00
409  4.0800000000000D+00  0.0000000000000D+00  0.0000000000000D+00
410  4.0900000000000D+00  0.0000000000000D+00  0.0000000000000D+00
411  4.1000000000000D+00  0.0000000000000D+00  0.0000000000000D+00
412  4.1100000000000D+00  0.0000000000000D+00  0.0000000000000D+00
413  4.1200000000000D+00  0.0000000000000D+00  0.0000000000000D+00
414  4.1300000000000D+00  0.0000000000000D+00  0.0000000000000D+00
415  4.1400000000000D+00  0.0000000000000D+00  0.0000000000000D+00
416  4.1500000000000D+00  0.0000000000000D+00  0.0000000000000D+00
417  4.1600000000000D+00  0.0000000000000D+00  0.0000000000000D+00
418  4.1700000000000D+00  0.0000000000000D+00  0.0000000000000D+00
419  4.1800000000000D+00  0.0000000000000D+00  0.0000000000000D+00
420  4.1900000000000D+00  0.0000000000000D+00  0.0000000000000D+00
421  4.2000000000000D+00  0.0000000000000D+00  0.0000000000000D+00
422  4.2100000000000D+00  0.0000000000000D+00  0.0000000000000D+00
423  4.2200000000000D+00  0.0000000000000D+00  0.0000000000000D+00
424  4.2300000000000D+00  0.0000000000000D+00  0.0000000000000D+00
425  4.2400000000000D+00  0.0000000000000D+00  0.0000000000000D+00
426  4.2500000000000D+00  0.0000000000000D+00  0.0000000000000D+00
427  4.2600000000000D+00  0.0000000000000D+00  0.0000000000000D+00
428  4.2700000000000D+00  0.0000000000000D+00  0.0000000000000D+00
429  4.2800000000000D+00  0.0000000000000D+00  0.0000000000000D+00
430  4.2900000000000D+00  0.0000000000000D+00  0.0000000000000D+00
431  4.3000000000000D+00  0.0000000000000D+00  0.0000000000000D+00
432  4.3100000000000D+00  0.0000000000000D+00  0.0000000000000D+00
433  4.3200000000000D+00  0.0000000000000D+00  0.0000000000000D+00
434  4.3300000000000D+00  0.0000000000000D+00  0.0000000000000D+00
435  4.3400000000000D+00  0.0000000000000D+00  0.0000000000000D+00
436  4.3500000000000D+00  0.0000000000000D+00  0.0000000000000D+00
437  4.3600000000000D+00  0.0000000000000D+00  0.0000000000000D+00
438  4.3700000000000D+00  0.0000000000000D+00  0.0000000000000D+00
439  4.3800000000000D+00  0.0000000000000D+00  0.0000000000000D+00
440  4.3900000000000D+00  0.0000000000000D+00  0.0000000000000D+00
441  4.4000000000000D+00  0.0000000000000D+00  0.0000000000000D+00
442  4.4100000000000D+00  0.0000000000000D+00  0.0000000000000D+00
443  4.4200000000000D+00  0.0000000000000D+00  0.0000000000000D+00