Ca    ONCVPSP  r_core=  1.46  1.46  1.85
20.0000     10.0000      151027    zatom,zion,pspd
8   -1013   2     4   400     0    pspcod,pspxc,lmax,lloc,mmax,r2well
3.99000000  0.00000000  0.00000000    rchrg fchrg qchrg
2     2     2     0     0    nproj
1                 extension_switch
0                         9.6886392051645D+00  8.8945417270135D-01
1  0.0000000000000D+00 -5.7064752922997D-10  2.4172693846580D-09
2  1.0000000000000D-02  7.0352780549197D-02 -4.0367157450738D-02
3  2.0000000000000D-02  1.4053568131969D-01 -8.0421241646710D-02
4  3.0000000000000D-02  2.1037976792648D-01 -1.1985244369914D-01
5  4.0000000000000D-02  2.7971798613720D-01 -1.5835743931612D-01
6  5.0000000000000D-02  3.4838607550906D-01 -1.9564252138925D-01
7  6.0000000000000D-02  4.1622345171043D-01 -2.3142660266997D-01
8  7.0000000000000D-02  4.8307404776860D-01 -2.6544404811258D-01
9  8.0000000000000D-02  5.4878710505587D-01 -2.9744729887826D-01
10  9.0000000000000D-02  6.1321790552445D-01 -3.2720925295178D-01
11  1.0000000000000D-01  6.7622843751607D-01 -3.5452537078008D-01
12  1.1000000000000D-01  7.3768798839469D-01 -3.7921547824880D-01
13  1.2000000000000D-01  7.9747365826533D-01 -4.0112524361775D-01
14  1.3000000000000D-01  8.5547079013685D-01 -4.2012730967558D-01
15  1.4000000000000D-01  9.1157331304343D-01 -4.3612206728484D-01
16  1.5000000000000D-01  9.6568399584478D-01 -4.4903806160132D-01
17  1.6000000000000D-01  1.0177146106594D+00 -4.5883202749384D-01
18  1.7000000000000D-01  1.0675860061325D+00 -4.6548855598874D-01
19  1.8000000000000D-01  1.1152280919829D+00 -4.6901939884231D-01
20  1.9000000000000D-01  1.1605797374898D+00 -4.6946242352948D-01
21  2.0000000000000D-01  1.2035885877620D+00 -4.6688023595321D-01
22  2.1000000000000D-01  1.2442108027504D+00 -4.6135849295658D-01
23  2.2000000000000D-01  1.2824107250132D+00 -4.5300393118733D-01
24  2.3000000000000D-01  1.3181604832008D+00 -4.4194214295994D-01
25  2.4000000000000D-01  1.3514395390842D+00 -4.2831513342268D-01
26  2.5000000000000D-01  1.3822341866883D+00 -4.1227869651202D-01
27  2.6000000000000D-01  1.4105370127086D+00 -3.9399964981913D-01
28  2.7000000000000D-01  1.4363463278626D+00 -3.7365297055986D-01
29  2.8000000000000D-01  1.4596655791651D+00 -3.5141887630130D-01
30  2.9000000000000D-01  1.4805027533010D+00 -3.2747989493016D-01
31  3.0000000000000D-01  1.4988697813012D+00 -3.0201796853462D-01
32  3.1000000000000D-01  1.5147819546107D+00 -2.7521163540739D-01
33  3.2000000000000D-01  1.5282573623620D+00 -2.4723333326726D-01
34  3.3000000000000D-01  1.5393163592515D+00 -2.1824686504907D-01
35  3.4000000000000D-01  1.5479810728459D+00 -1.8840506625304D-01
36  3.5000000000000D-01  1.5542749584523D+00 -1.5784770989995D-01
37  3.6000000000000D-01  1.5582224088518D+00 -1.2669968165157D-01
38  3.7000000000000D-01  1.5598484252610D+00 -9.5069453669401D-02
39  3.8000000000000D-01  1.5591783548346D+00 -6.3047881355181D-02
40  3.9000000000000D-01  1.5562376988973D+00 -3.0707342304048D-02
41  4.0000000000000D-01  1.5510519948841D+00  1.8987683267967D-03
42  4.1000000000000D-01  1.5436467737156D+00  3.4736177205199D-02
43  4.2000000000000D-01  1.5340475930387D+00  6.7789503678381D-02
44  4.3000000000000D-01  1.5222801454534D+00  1.0106166443850D-01
45  4.4000000000000D-01  1.5083704395399D+00  1.3457291998289D-01
46  4.5000000000000D-01  1.4923450502118D+00  1.6835957641993D-01
47  4.6000000000000D-01  1.4742314336759D+00  2.0247236158606D-01
48  4.7000000000000D-01  1.4540583010952D+00  2.3697449961865D-01
49  4.8000000000000D-01  1.4318560439419D+00  2.7193951299914D-01
50  4.9000000000000D-01  1.4076572030151D+00  3.0744878556643D-01
51  5.0000000000000D-01  1.3814969722001D+00  3.4358892403173D-01
52  5.1000000000000D-01  1.3534137272680D+00  3.8044895904390D-01
53  5.2000000000000D-01  1.3234495693800D+00  4.1811742979964D-01
54  5.3000000000000D-01  1.2916508724778D+00  4.5667939851722D-01
55  5.4000000000000D-01  1.2580688234133D+00  4.9621344275886D-01
56  5.5000000000000D-01  1.2227599435127D+00  5.3678867456162D-01
57  5.6000000000000D-01  1.1857865802805D+00  5.7846183559925D-01
58  5.7000000000000D-01  1.1472173581354D+00  6.2127451713703D-01
59  5.8000000000000D-01  1.1071275774252D+00  6.6525055235654D-01
60  5.9000000000000D-01  1.0655995514957D+00  7.1039362672772D-01
61  6.0000000000000D-01  1.0227228722786D+00  7.5668514951106D-01
62  6.1000000000000D-01  9.7859459571459D-01  8.0408242620739D-01
63  6.2000000000000D-01  9.3331933931792D-01  8.5251716789803D-01
64  6.3000000000000D-01  8.8700928532222D-01  9.0189436893470D-01
65  6.4000000000000D-01  8.3978408409116D-01  9.5209157948131D-01
66  6.5000000000000D-01  7.9177065383205D-01  1.0029585939581D+00
67  6.6000000000000D-01  7.4310287408868D-01  1.0543175706234D+00
68  6.7000000000000D-01  6.9392117198617D-01  1.1059635914346D+00
69  6.8000000000000D-01  6.4437200175438D-01  1.1576656649793D+00
70  6.9000000000000D-01  5.9460721962306D-01  1.2091681688234D+00
71  7.0000000000000D-01  5.4478335775604D-01  1.2601927211219D+00
72  7.1000000000000D-01  4.9506080243469D-01  1.3104404649338D+00
73  7.2000000000000D-01  4.4560288321501D-01  1.3595947423614D+00
74  7.3000000000000D-01  3.9657488121468D-01  1.4073241296246D+00
75  7.4000000000000D-01  3.4814296603866D-01  1.4532857984659D+00
76  7.5000000000000D-01  3.0047307209461D-01  1.4971291639895D+00
77  7.6000000000000D-01  2.5372972615965D-01  1.5384997742635D+00
78  7.7000000000000D-01  2.0807483903140D-01  1.5770433927824D+00
79  7.8000000000000D-01  1.6366647490034D-01  1.6124102213197D+00
80  7.9000000000000D-01  1.2065761271108D-01  1.6442592078261D+00
81  8.0000000000000D-01  7.9194914224537D-02  1.6722623818944D+00
82  8.1000000000000D-01  3.9417513741058D-02  1.6961091589739D+00
83  8.2000000000000D-01  1.4558444907399D-03  1.7155105539867D+00
84  8.3000000000000D-01 -3.4569483461619D-02  1.7302032453017D+00
85  8.4000000000000D-01 -6.8548739314339D-02  1.7399534311613D+00
86  8.5000000000000D-01 -1.0038404771497D-01  1.7445604226215D+00
87  8.6000000000000D-01 -1.2999027188628D-01  1.7438599198437D+00
88  8.7000000000000D-01 -1.5729579149970D-01  1.7377269221305D+00
89  8.8000000000000D-01 -1.8224316423851D-01  1.7260782263897D+00
90  8.9000000000000D-01 -2.0478966129288D-01  1.7088744736820D+00
91  9.0000000000000D-01 -2.2490766847750D-01  1.6861217091017D+00
92  9.1000000000000D-01 -2.4258494624163D-01  1.6578724263766D+00
93  9.2000000000000D-01 -2.5782474353055D-01  1.6242260751731D+00
94  9.3000000000000D-01 -2.7064576223360D-01  1.5853290160711D+00
95  9.4000000000000D-01 -2.8108197079439D-01  1.5413739154221D+00
96  9.5000000000000D-01 -2.8918226743770D-01  1.4925985797435D+00
97  9.6000000000000D-01 -2.9500999535684D-01  1.4392842367917D+00
98  9.7000000000000D-01 -2.9864231409952D-01  1.3817532779994D+00
99  9.8000000000000D-01 -3.0016943319651D-01  1.3203664841674D+00
100  9.9000000000000D-01 -2.9969371588275D-01  1.2555197635205D+00
101  1.0000000000000D+00 -2.9732866243497D-01  1.1876404379541D+00
102  1.0100000000000D+00 -2.9319778421064D-01  1.1171831195738D+00
103  1.0200000000000D+00 -2.8743338090951D-01  1.0446252254186D+00
104  1.0300000000000D+00 -2.8017523484678D-01  9.7046218339113D-01
105  1.0400000000000D+00 -2.7156923713972D-01  8.9520238693503D-01
106  1.0500000000000D+00 -2.6176596154918D-01  8.1936195942808D-01
107  1.0600000000000D+00 -2.5091920249796D-01  7.4345939246971D-01
108  1.0700000000000D+00 -2.3918449418696D-01  6.6801012391595D-01
109  1.0800000000000D+00 -2.2671762801006D-01  5.9352112272207D-01
110  1.0900000000000D+00 -2.1367318542884D-01  5.2048554758418D-01
111  1.1000000000000D+00 -2.0020310333298D-01  4.4937754590314D-01
112  1.1100000000000D+00 -1.8645528837172D-01  3.8064725753056D-01
113  1.1200000000000D+00 -1.7257229610994D-01  3.1471608529647D-01
114  1.1300000000000D+00 -1.5869008985618D-01  2.5197229037439D-01
115  1.1400000000000D+00 -1.4493689306919D-01  1.9276696683564D-01
116  1.1500000000000D+00 -1.3143214783089D-01  1.3741044414083D-01
117  1.1600000000000D+00 -1.1828559038842D-01  8.6169160428075D-02
118  1.1700000000000D+00 -1.0559645296764D-01  3.9263042305901D-02
119  1.1800000000000D+00 -9.3452799803306D-02 -3.1365781365777D-03
120  1.1900000000000D+00 -8.1931002865574D-02 -4.0908488202732D-02
121  1.2000000000000D+00 -7.1095360993265D-02 -7.3982547502515D-02
122  1.2100000000000D+00 -6.0997864070226D-02 -1.0234006333668D-01
123  1.2200000000000D+00 -5.1678102315773D-02 -1.2601358922430D-01
124  1.2300000000000D+00 -4.3163317809778D-02 -1.4508615902988D-01
125  1.2400000000000D+00 -3.5468593613855D-02 -1.5968997617529D-01
126  1.2500000000000D+00 -2.8597174941700D-02 -1.7000458104847D-01
127  1.2600000000000D+00 -2.2540913201225D-02 -1.7625453423012D-01
128  1.2700000000000D+00 -1.7280821342802D-02 -1.7870666476920D-01
129  1.2800000000000D+00 -1.2787738540322D-02 -1.7766687934259D-01
130  1.2900000000000D+00 -9.0230583449740D-03 -1.7347676118215D-01
131  1.3000000000000D+00 -5.9396382025891D-03 -1.6650930955324D-01
132  1.3100000000000D+00 -3.4823934941119D-03 -1.5716645988664D-01
133  1.3200000000000D+00 -1.5897463615298D-03 -1.4587207546127D-01
134  1.3300000000000D+00 -1.9575890132729D-04 -1.3306129011313D-01
135  1.3400000000000D+00  7.6751862198991D-04 -1.1916925126694D-01
136  1.3500000000000D+00  1.3680851110899D-03 -1.0462208210287D-01
137  1.3600000000000D+00  1.6729218748508D-03 -8.9832838387720D-02
138  1.3700000000000D+00  1.7466418785322D-03 -7.5195828437578D-02
139  1.3800000000000D+00  1.6502637094546D-03 -6.1081553000982D-02
140  1.3900000000000D+00  1.4400497212402D-03 -4.7831905808098D-02
141  1.4000000000000D+00  1.1664430917108D-03 -3.5755798897992D-02
142  1.4100000000000D+00  8.7323835495693D-04 -2.5128165559749D-02
143  1.4200000000000D+00  5.9634751730514D-04 -1.6177634097577D-02
144  1.4300000000000D+00  3.6099011926268D-04 -9.0467075535275D-03
145  1.4400000000000D+00  1.9197944932164D-04 -3.9865114506303D-03
146  1.4500000000000D+00  1.0619267286425D-04 -1.1915245136910D-03
147  1.4600000000000D+00  6.3703948770457D-05 -1.2118888727651D-04
148  1.4700000000000D+00  2.0618339639911D-05  5.6206734886271D-05
149  1.4800000000000D+00 -4.3979460422572D-06 -2.0450485804075D-05
150  1.4900000000000D+00 -3.1007121995446D-06 -1.8979810141291D-05
151  1.5000000000000D+00  1.2521340077961D-06  4.1460462234799D-06
152  1.5100000000000D+00  4.1360736706157D-07  1.5806374573835D-06
153  1.5200000000000D+00 -1.9440592359973D-07  5.2377270499596D-07
154  1.5300000000000D+00 -4.7283512137950D-09  1.2739227589173D-08
155  1.5400000000000D+00  0.0000000000000D+00  0.0000000000000D+00
156  1.5500000000000D+00  0.0000000000000D+00  0.0000000000000D+00
157  1.5600000000000D+00  0.0000000000000D+00  0.0000000000000D+00
158  1.5700000000000D+00  0.0000000000000D+00  0.0000000000000D+00
159  1.5800000000000D+00  0.0000000000000D+00  0.0000000000000D+00
160  1.5900000000000D+00  0.0000000000000D+00  0.0000000000000D+00
161  1.6000000000000D+00  0.0000000000000D+00  0.0000000000000D+00
162  1.6100000000000D+00  0.0000000000000D+00  0.0000000000000D+00
163  1.6200000000000D+00  0.0000000000000D+00  0.0000000000000D+00
164  1.6300000000000D+00  0.0000000000000D+00  0.0000000000000D+00
165  1.6400000000000D+00  0.0000000000000D+00  0.0000000000000D+00
166  1.6500000000000D+00  0.0000000000000D+00  0.0000000000000D+00
167  1.6600000000000D+00  0.0000000000000D+00  0.0000000000000D+00
168  1.6700000000000D+00  0.0000000000000D+00  0.0000000000000D+00
169  1.6800000000000D+00  0.0000000000000D+00  0.0000000000000D+00
170  1.6900000000000D+00  0.0000000000000D+00  0.0000000000000D+00
171  1.7000000000000D+00  0.0000000000000D+00  0.0000000000000D+00
172  1.7100000000000D+00  0.0000000000000D+00  0.0000000000000D+00
173  1.7200000000000D+00  0.0000000000000D+00  0.0000000000000D+00
174  1.7300000000000D+00  0.0000000000000D+00  0.0000000000000D+00
175  1.7400000000000D+00  0.0000000000000D+00  0.0000000000000D+00
176  1.7500000000000D+00  0.0000000000000D+00  0.0000000000000D+00
177  1.7600000000000D+00  0.0000000000000D+00  0.0000000000000D+00
178  1.7700000000000D+00  0.0000000000000D+00  0.0000000000000D+00
179  1.7800000000000D+00  0.0000000000000D+00  0.0000000000000D+00
180  1.7900000000000D+00  0.0000000000000D+00  0.0000000000000D+00
181  1.8000000000000D+00  0.0000000000000D+00  0.0000000000000D+00
182  1.8100000000000D+00  0.0000000000000D+00  0.0000000000000D+00
183  1.8200000000000D+00  0.0000000000000D+00  0.0000000000000D+00
184  1.8300000000000D+00  0.0000000000000D+00  0.0000000000000D+00
185  1.8400000000000D+00  0.0000000000000D+00  0.0000000000000D+00
186  1.8500000000000D+00  0.0000000000000D+00  0.0000000000000D+00
187  1.8600000000000D+00  0.0000000000000D+00  0.0000000000000D+00
188  1.8700000000000D+00  0.0000000000000D+00  0.0000000000000D+00
189  1.8800000000000D+00  0.0000000000000D+00  0.0000000000000D+00
190  1.8900000000000D+00  0.0000000000000D+00  0.0000000000000D+00
191  1.9000000000000D+00  0.0000000000000D+00  0.0000000000000D+00
192  1.9100000000000D+00  0.0000000000000D+00  0.0000000000000D+00
193  1.9200000000000D+00  0.0000000000000D+00  0.0000000000000D+00
194  1.9300000000000D+00  0.0000000000000D+00  0.0000000000000D+00
195  1.9400000000000D+00  0.0000000000000D+00  0.0000000000000D+00
196  1.9500000000000D+00  0.0000000000000D+00  0.0000000000000D+00
197  1.9600000000000D+00  0.0000000000000D+00  0.0000000000000D+00
198  1.9700000000000D+00  0.0000000000000D+00  0.0000000000000D+00
199  1.9800000000000D+00  0.0000000000000D+00  0.0000000000000D+00
200  1.9900000000000D+00  0.0000000000000D+00  0.0000000000000D+00
201  2.0000000000000D+00  0.0000000000000D+00  0.0000000000000D+00
202  2.0100000000000D+00  0.0000000000000D+00  0.0000000000000D+00
203  2.0200000000000D+00  0.0000000000000D+00  0.0000000000000D+00
204  2.0300000000000D+00  0.0000000000000D+00  0.0000000000000D+00
205  2.0400000000000D+00  0.0000000000000D+00  0.0000000000000D+00
206  2.0500000000000D+00  0.0000000000000D+00  0.0000000000000D+00
207  2.0600000000000D+00  0.0000000000000D+00  0.0000000000000D+00
208  2.0700000000000D+00  0.0000000000000D+00  0.0000000000000D+00
209  2.0800000000000D+00  0.0000000000000D+00  0.0000000000000D+00
210  2.0900000000000D+00  0.0000000000000D+00  0.0000000000000D+00
211  2.1000000000000D+00  0.0000000000000D+00  0.0000000000000D+00
212  2.1100000000000D+00  0.0000000000000D+00  0.0000000000000D+00
213  2.1200000000000D+00  0.0000000000000D+00  0.0000000000000D+00
214  2.1300000000000D+00  0.0000000000000D+00  0.0000000000000D+00
215  2.1400000000000D+00  0.0000000000000D+00  0.0000000000000D+00
216  2.1500000000000D+00  0.0000000000000D+00  0.0000000000000D+00
217  2.1600000000000D+00  0.0000000000000D+00  0.0000000000000D+00
218  2.1700000000000D+00  0.0000000000000D+00  0.0000000000000D+00
219  2.1800000000000D+00  0.0000000000000D+00  0.0000000000000D+00
220  2.1900000000000D+00  0.0000000000000D+00  0.0000000000000D+00
221  2.2000000000000D+00  0.0000000000000D+00  0.0000000000000D+00
222  2.2100000000000D+00  0.0000000000000D+00  0.0000000000000D+00
223  2.2200000000000D+00  0.0000000000000D+00  0.0000000000000D+00
224  2.2300000000000D+00  0.0000000000000D+00  0.0000000000000D+00
225  2.2400000000000D+00  0.0000000000000D+00  0.0000000000000D+00
226  2.2500000000000D+00  0.0000000000000D+00  0.0000000000000D+00
227  2.2600000000000D+00  0.0000000000000D+00  0.0000000000000D+00
228  2.2700000000000D+00  0.0000000000000D+00  0.0000000000000D+00
229  2.2800000000000D+00  0.0000000000000D+00  0.0000000000000D+00
230  2.2900000000000D+00  0.0000000000000D+00  0.0000000000000D+00
231  2.3000000000000D+00  0.0000000000000D+00  0.0000000000000D+00
232  2.3100000000000D+00  0.0000000000000D+00  0.0000000000000D+00
233  2.3200000000000D+00  0.0000000000000D+00  0.0000000000000D+00
234  2.3300000000000D+00  0.0000000000000D+00  0.0000000000000D+00
235  2.3400000000000D+00  0.0000000000000D+00  0.0000000000000D+00
236  2.3500000000000D+00  0.0000000000000D+00  0.0000000000000D+00
237  2.3600000000000D+00  0.0000000000000D+00  0.0000000000000D+00
238  2.3700000000000D+00  0.0000000000000D+00  0.0000000000000D+00
239  2.3800000000000D+00  0.0000000000000D+00  0.0000000000000D+00
240  2.3900000000000D+00  0.0000000000000D+00  0.0000000000000D+00
241  2.4000000000000D+00  0.0000000000000D+00  0.0000000000000D+00
242  2.4100000000000D+00  0.0000000000000D+00  0.0000000000000D+00
243  2.4200000000000D+00  0.0000000000000D+00  0.0000000000000D+00
244  2.4300000000000D+00  0.0000000000000D+00  0.0000000000000D+00
245  2.4400000000000D+00  0.0000000000000D+00  0.0000000000000D+00
246  2.4500000000000D+00  0.0000000000000D+00  0.0000000000000D+00
247  2.4600000000000D+00  0.0000000000000D+00  0.0000000000000D+00
248  2.4700000000000D+00  0.0000000000000D+00  0.0000000000000D+00
249  2.4800000000000D+00  0.0000000000000D+00  0.0000000000000D+00
250  2.4900000000000D+00  0.0000000000000D+00  0.0000000000000D+00
251  2.5000000000000D+00  0.0000000000000D+00  0.0000000000000D+00
252  2.5100000000000D+00  0.0000000000000D+00  0.0000000000000D+00
253  2.5200000000000D+00  0.0000000000000D+00  0.0000000000000D+00
254  2.5300000000000D+00  0.0000000000000D+00  0.0000000000000D+00
255  2.5400000000000D+00  0.0000000000000D+00  0.0000000000000D+00
256  2.5500000000000D+00  0.0000000000000D+00  0.0000000000000D+00
257  2.5600000000000D+00  0.0000000000000D+00  0.0000000000000D+00
258  2.5700000000000D+00  0.0000000000000D+00  0.0000000000000D+00
259  2.5800000000000D+00  0.0000000000000D+00  0.0000000000000D+00
260  2.5900000000000D+00  0.0000000000000D+00  0.0000000000000D+00
261  2.6000000000000D+00  0.0000000000000D+00  0.0000000000000D+00
262  2.6100000000000D+00  0.0000000000000D+00  0.0000000000000D+00
263  2.6200000000000D+00  0.0000000000000D+00  0.0000000000000D+00
264  2.6300000000000D+00  0.0000000000000D+00  0.0000000000000D+00
265  2.6400000000000D+00  0.0000000000000D+00  0.0000000000000D+00
266  2.6500000000000D+00  0.0000000000000D+00  0.0000000000000D+00
267  2.6600000000000D+00  0.0000000000000D+00  0.0000000000000D+00
268  2.6700000000000D+00  0.0000000000000D+00  0.0000000000000D+00
269  2.6800000000000D+00  0.0000000000000D+00  0.0000000000000D+00
270  2.6900000000000D+00  0.0000000000000D+00  0.0000000000000D+00
271  2.7000000000000D+00  0.0000000000000D+00  0.0000000000000D+00
272  2.7100000000000D+00  0.0000000000000D+00  0.0000000000000D+00
273  2.7200000000000D+00  0.0000000000000D+00  0.0000000000000D+00
274  2.7300000000000D+00  0.0000000000000D+00  0.0000000000000D+00
275  2.7400000000000D+00  0.0000000000000D+00  0.0000000000000D+00
276  2.7500000000000D+00  0.0000000000000D+00  0.0000000000000D+00
277  2.7600000000000D+00  0.0000000000000D+00  0.0000000000000D+00
278  2.7700000000000D+00  0.0000000000000D+00  0.0000000000000D+00
279  2.7800000000000D+00  0.0000000000000D+00  0.0000000000000D+00
280  2.7900000000000D+00  0.0000000000000D+00  0.0000000000000D+00
281  2.8000000000000D+00  0.0000000000000D+00  0.0000000000000D+00
282  2.8100000000000D+00  0.0000000000000D+00  0.0000000000000D+00
283  2.8200000000000D+00  0.0000000000000D+00  0.0000000000000D+00
284  2.8300000000000D+00  0.0000000000000D+00  0.0000000000000D+00
285  2.8400000000000D+00  0.0000000000000D+00  0.0000000000000D+00
286  2.8500000000000D+00  0.0000000000000D+00  0.0000000000000D+00
287  2.8600000000000D+00  0.0000000000000D+00  0.0000000000000D+00
288  2.8700000000000D+00  0.0000000000000D+00  0.0000000000000D+00
289  2.8800000000000D+00  0.0000000000000D+00  0.0000000000000D+00
290  2.8900000000000D+00  0.0000000000000D+00  0.0000000000000D+00
291  2.9000000000000D+00  0.0000000000000D+00  0.0000000000000D+00
292  2.9100000000000D+00  0.0000000000000D+00  0.0000000000000D+00
293  2.9200000000000D+00  0.0000000000000D+00  0.0000000000000D+00
294  2.9300000000000D+00  0.0000000000000D+00  0.0000000000000D+00
295  2.9400000000000D+00  0.0000000000000D+00  0.0000000000000D+00
296  2.9500000000000D+00  0.0000000000000D+00  0.0000000000000D+00
297  2.9600000000000D+00  0.0000000000000D+00  0.0000000000000D+00
298  2.9700000000000D+00  0.0000000000000D+00  0.0000000000000D+00
299  2.9800000000000D+00  0.0000000000000D+00  0.0000000000000D+00
300  2.9900000000000D+00  0.0000000000000D+00  0.0000000000000D+00
301  3.0000000000000D+00  0.0000000000000D+00  0.0000000000000D+00
302  3.0100000000000D+00  0.0000000000000D+00  0.0000000000000D+00
303  3.0200000000000D+00  0.0000000000000D+00  0.0000000000000D+00
304  3.0300000000000D+00  0.0000000000000D+00  0.0000000000000D+00
305  3.0400000000000D+00  0.0000000000000D+00  0.0000000000000D+00
306  3.0500000000000D+00  0.0000000000000D+00  0.0000000000000D+00
307  3.0600000000000D+00  0.0000000000000D+00  0.0000000000000D+00
308  3.0700000000000D+00  0.0000000000000D+00  0.0000000000000D+00
309  3.0800000000000D+00  0.0000000000000D+00  0.0000000000000D+00
310  3.0900000000000D+00  0.0000000000000D+00  0.0000000000000D+00
311  3.1000000000000D+00  0.0000000000000D+00  0.0000000000000D+00
312  3.1100000000000D+00  0.0000000000000D+00  0.0000000000000D+00
313  3.1200000000000D+00  0.0000000000000D+00  0.0000000000000D+00
314  3.1300000000000D+00  0.0000000000000D+00  0.0000000000000D+00
315  3.1400000000000D+00  0.0000000000000D+00  0.0000000000000D+00
316  3.1500000000000D+00  0.0000000000000D+00  0.0000000000000D+00
317  3.1600000000000D+00  0.0000000000000D+00  0.0000000000000D+00
318  3.1700000000000D+00  0.0000000000000D+00  0.0000000000000D+00
319  3.1800000000000D+00  0.0000000000000D+00  0.0000000000000D+00
320  3.1900000000000D+00  0.0000000000000D+00  0.0000000000000D+00
321  3.2000000000000D+00  0.0000000000000D+00  0.0000000000000D+00
322  3.2100000000000D+00  0.0000000000000D+00  0.0000000000000D+00
323  3.2200000000000D+00  0.0000000000000D+00  0.0000000000000D+00
324  3.2300000000000D+00  0.0000000000000D+00  0.0000000000000D+00
325  3.2400000000000D+00  0.0000000000000D+00  0.0000000000000D+00
326  3.2500000000000D+00  0.0000000000000D+00  0.0000000000000D+00
327  3.2600000000000D+00  0.0000000000000D+00  0.0000000000000D+00
328  3.2700000000000D+00  0.0000000000000D+00  0.0000000000000D+00
329  3.2800000000000D+00  0.0000000000000D+00  0.0000000000000D+00
330  3.2900000000000D+00  0.0000000000000D+00  0.0000000000000D+00
331  3.3000000000000D+00  0.0000000000000D+00  0.0000000000000D+00
332  3.3100000000000D+00  0.0000000000000D+00  0.0000000000000D+00
333  3.3200000000000D+00  0.0000000000000D+00  0.0000000000000D+00
334  3.3300000000000D+00  0.0000000000000D+00  0.0000000000000D+00
335  3.3400000000000D+00  0.0000000000000D+00  0.0000000000000D+00
336  3.3500000000000D+00  0.0000000000000D+00  0.0000000000000D+00
337  3.3600000000000D+00  0.0000000000000D+00  0.0000000000000D+00
338  3.3700000000000D+00  0.0000000000000D+00  0.0000000000000D+00
339  3.3800000000000D+00  0.0000000000000D+00  0.0000000000000D+00
340  3.3900000000000D+00  0.0000000000000D+00  0.0000000000000D+00
341  3.4000000000000D+00  0.0000000000000D+00  0.0000000000000D+00
342  3.4100000000000D+00  0.0000000000000D+00  0.0000000000000D+00
343  3.4200000000000D+00  0.0000000000000D+00  0.0000000000000D+00
344  3.4300000000000D+00  0.0000000000000D+00  0.0000000000000D+00
345  3.4400000000000D+00  0.0000000000000D+00  0.0000000000000D+00
346  3.4500000000000D+00  0.0000000000000D+00  0.0000000000000D+00
347  3.4600000000000D+00  0.0000000000000D+00  0.0000000000000D+00
348  3.4700000000000D+00  0.0000000000000D+00  0.0000000000000D+00
349  3.4800000000000D+00  0.0000000000000D+00  0.0000000000000D+00
350  3.4900000000000D+00  0.0000000000000D+00  0.0000000000000D+00
351  3.5000000000000D+00  0.0000000000000D+00  0.0000000000000D+00
352  3.5100000000000D+00  0.0000000000000D+00  0.0000000000000D+00
353  3.5200000000000D+00  0.0000000000000D+00  0.0000000000000D+00
354  3.5300000000000D+00  0.0000000000000D+00  0.0000000000000D+00
355  3.5400000000000D+00  0.0000000000000D+00  0.0000000000000D+00
356  3.5500000000000D+00  0.0000000000000D+00  0.0000000000000D+00
357  3.5600000000000D+00  0.0000000000000D+00  0.0000000000000D+00
358  3.5700000000000D+00  0.0000000000000D+00  0.0000000000000D+00
359  3.5800000000000D+00  0.0000000000000D+00  0.0000000000000D+00
360  3.5900000000000D+00  0.0000000000000D+00  0.0000000000000D+00
361  3.6000000000000D+00  0.0000000000000D+00  0.0000000000000D+00
362  3.6100000000000D+00  0.0000000000000D+00  0.0000000000000D+00
363  3.6200000000000D+00  0.0000000000000D+00  0.0000000000000D+00
364  3.6300000000000D+00  0.0000000000000D+00  0.0000000000000D+00
365  3.6400000000000D+00  0.0000000000000D+00  0.0000000000000D+00
366  3.6500000000000D+00  0.0000000000000D+00  0.0000000000000D+00
367  3.6600000000000D+00  0.0000000000000D+00  0.0000000000000D+00
368  3.6700000000000D+00  0.0000000000000D+00  0.0000000000000D+00
369  3.6800000000000D+00  0.0000000000000D+00  0.0000000000000D+00
370  3.6900000000000D+00  0.0000000000000D+00  0.0000000000000D+00
371  3.7000000000000D+00  0.0000000000000D+00  0.0000000000000D+00
372  3.7100000000000D+00  0.0000000000000D+00  0.0000000000000D+00
373  3.7200000000000D+00  0.0000000000000D+00  0.0000000000000D+00
374  3.7300000000000D+00  0.0000000000000D+00  0.0000000000000D+00
375  3.7400000000000D+00  0.0000000000000D+00  0.0000000000000D+00
376  3.7500000000000D+00  0.0000000000000D+00  0.0000000000000D+00
377  3.7600000000000D+00  0.0000000000000D+00  0.0000000000000D+00
378  3.7700000000000D+00  0.0000000000000D+00  0.0000000000000D+00
379  3.7800000000000D+00  0.0000000000000D+00  0.0000000000000D+00
380  3.7900000000000D+00  0.0000000000000D+00  0.0000000000000D+00
381  3.8000000000000D+00  0.0000000000000D+00  0.0000000000000D+00
382  3.8100000000000D+00  0.0000000000000D+00  0.0000000000000D+00
383  3.8200000000000D+00  0.0000000000000D+00  0.0000000000000D+00
384  3.8300000000000D+00  0.0000000000000D+00  0.0000000000000D+00
385  3.8400000000000D+00  0.0000000000000D+00  0.0000000000000D+00
386  3.8500000000000D+00  0.0000000000000D+00  0.0000000000000D+00
387  3.8600000000000D+00  0.0000000000000D+00  0.0000000000000D+00
388  3.8700000000000D+00  0.0000000000000D+00  0.0000000000000D+00
389  3.8800000000000D+00  0.0000000000000D+00  0.0000000000000D+00
390  3.8900000000000D+00  0.0000000000000D+00  0.0000000000000D+00
391  3.9000000000000D+00  0.0000000000000D+00  0.0000000000000D+00
392  3.9100000000000D+00  0.0000000000000D+00  0.0000000000000D+00
393  3.9200000000000D+00  0.0000000000000D+00  0.0000000000000D+00
394  3.9300000000000D+00  0.0000000000000D+00  0.0000000000000D+00
395  3.9400000000000D+00  0.0000000000000D+00  0.0000000000000D+00
396  3.9500000000000D+00  0.0000000000000D+00  0.0000000000000D+00
397  3.9600000000000D+00  0.0000000000000D+00  0.0000000000000D+00
398  3.9700000000000D+00  0.0000000000000D+00  0.0000000000000D+00
399  3.9800000000000D+00  0.0000000000000D+00  0.0000000000000D+00
400  3.9900000000000D+00  0.0000000000000D+00  0.0000000000000D+00
1                         2.7819177650970D+00  5.6378239339639D-01
1  0.0000000000000D+00  1.5945273518225D-08 -3.2823064044507D-08
2  1.0000000000000D-02  2.5378772241636D-03 -2.1477506959692D-03
3  2.0000000000000D-02  1.0119080831129D-02 -8.5348076389755D-03
4  3.0000000000000D-02  2.2646864410368D-02 -1.8993660516589D-02
5  4.0000000000000D-02  3.9961767388743D-02 -3.3248690305657D-02
6  5.0000000000000D-02  6.1844258235097D-02 -5.0921450652008D-02
7  6.0000000000000D-02  8.8018371573070D-02 -7.1537931211663D-02
8  7.0000000000000D-02  1.1815627710271D-01 -9.4537675009377D-02
9  8.0000000000000D-02  1.5188370228615D-01 -1.1928458904726D-01
10  9.0000000000000D-02  1.8878611611471D-01 -1.4507925728792D-01
11  1.0000000000000D-01  2.2841556819016D-01 -1.7117253825351D-01
12  1.1000000000000D-01  2.7029806604346D-01 -1.9678020628437D-01
13  1.2000000000000D-01  3.1394136427093D-01 -2.2109837638425D-01
14  1.3000000000000D-01  3.5884303185015D-01 -2.4331943787567D-01
15  1.4000000000000D-01  4.0449865903191D-01 -2.6264821205646D-01
16  1.5000000000000D-01  4.5041006257535D-01 -2.7831804386670D-01
17  1.6000000000000D-01  4.9609334785326D-01 -2.8960653734711D-01
18  1.7000000000000D-01  5.4108668851035D-01 -2.9585064941252D-01
19  1.8000000000000D-01  5.8495768888101D-01 -2.9646086611385D-01
20  1.9000000000000D-01  6.2731020119462D-01 -2.9093419997497D-01
21  2.0000000000000D-01  6.6779047860868D-01 -2.7886576594005D-01
22  2.1000000000000D-01  7.0609255616870D-01 -2.5995871665254D-01
23  2.2000000000000D-01  7.4196276472081D-01 -2.3403234483669D-01
24  2.3000000000000D-01  7.7520329738753D-01 -2.0102819102628D-01
25  2.4000000000000D-01  8.0567476422262D-01 -1.6101402828895D-01
26  2.5000000000000D-01  8.3329768782262D-01 -1.1418563137865D-01
27  2.6000000000000D-01  8.5805291070952D-01 -6.0866275324426D-02
28  2.7000000000000D-01  8.7998090391156D-01 -1.5039472100256D-03
29  2.8000000000000D-01  8.9917998504845D-01  6.3333705830239D-02
30  2.9000000000000D-01  9.1580347305801D-01  1.3296663023243D-01
31  3.0000000000000D-01  9.3005582516806D-01  2.0661172072052D-01
32  3.1000000000000D-01  9.4218781950832D-01  2.8339413868216D-01
33  3.2000000000000D-01  9.5249086357193D-01  3.6236042190769D-01
34  3.3000000000000D-01  9.6129052428630D-01  4.4249318120104D-01
35  3.4000000000000D-01  9.6893938947301D-01  5.2272715038716D-01
36  3.5000000000000D-01  9.7580938272131D-01  6.0196633097848D-01
37  3.6000000000000D-01  9.8228366395518D-01  6.7910195166561D-01
38  3.7000000000000D-01  9.8874825605625D-01  7.5303094624841D-01
39  3.8000000000000D-01  9.9558354366523D-01  8.2267464192769D-01
40  3.9000000000000D-01  1.0031557936129D+00  8.8699734326549D-01
41  4.0000000000000D-01  1.0118088472566D+00  9.4502449573718D-01
42  4.1000000000000D-01  1.0218561332888D+00  9.9586011670321D-01
43  4.2000000000000D-01  1.0335731453562D+00  1.0387031907938D+00