Y     ONCVPSP  r_core=  1.61  1.41  1.46
39.0000     11.0000      140817    zatom,zion,pspd
8    11     2     4   601     0    pspcod,pspxc,lmax,lloc,mmax,r2well
6.00000000  0.35000000  0.00000000    rchrg fchrg qchrg
2     2     2     0     0    nproj
0                 extension_switch
0                         1.0859357671974D+01  8.9434994624332D-01
1  0.0000000000000D+00 -0.0000000000000D+00 -0.0000000000000D+00
2  1.0000000000000D-02 -4.9767070528808D-02 -1.9845488500464D-02
3  2.0000000000000D-02 -9.9492997355095D-02 -3.9684328964292D-02
4  3.0000000000000D-02 -1.4913649521447D-01 -5.9509363814566D-02
5  4.0000000000000D-02 -1.9865599753315D-01 -7.9312421686593D-02
6  5.0000000000000D-02 -2.4800952029476D-01 -9.9083823724188D-02
7  6.0000000000000D-02 -2.9715453129299D-01 -1.1881190558792D-01
8  7.0000000000000D-02 -3.4604782649845D-01 -1.3848256021771D-01
9  8.0000000000000D-02 -3.9464541521281D-01 -1.5807880623145D-01
10  9.0000000000000D-02 -4.4290241561193D-01 -1.7758038663352D-01
11  1.0000000000000D-01 -4.9077296219831D-01 -1.9696340226993D-01
12  1.1000000000000D-01 -5.3821012658847D-01 -2.1619998419217D-01
13  1.2000000000000D-01 -5.8516585295196D-01 -2.3525800877254D-01
14  1.3000000000000D-01 -6.3159090930333D-01 -2.5410085907867D-01
15  1.4000000000000D-01 -6.7743485572411D-01 -2.7268723566109D-01
16  1.5000000000000D-01 -7.2264603044165D-01 -2.9097101944436D-01
17  1.6000000000000D-01 -7.6717155457018D-01 -3.0890118910969D-01
18  1.7000000000000D-01 -8.1095735613868D-01 -3.2642179475453D-01
19  1.8000000000000D-01 -8.5394821389514D-01 -3.4347198932152D-01
20  1.9000000000000D-01 -8.9608782121881D-01 -3.5998611867567D-01
21  2.0000000000000D-01 -9.3731887021540D-01 -3.7589387077699D-01
22  2.1000000000000D-01 -9.7758315615909D-01 -3.9112048402263D-01
23  2.2000000000000D-01 -1.0168217018208D+00 -4.0558701398561D-01
24  2.3000000000000D-01 -1.0549749016006D+00 -4.1921065780947D-01
25  2.4000000000000D-01 -1.0919826845567D+00 -4.3190513408609D-01
26  2.5000000000000D-01 -1.1277846964632D+00 -4.4358111790607D-01
27  2.6000000000000D-01 -1.1623204983573D+00 -4.5414672500231D-01
28  2.7000000000000D-01 -1.1955297831947D+00 -4.6350804780240D-01
29  2.8000000000000D-01 -1.2273526062493D+00 -4.7156973287940D-01
30  2.9000000000000D-01 -1.2577296306205D+00 -4.7823560201849D-01
31  3.0000000000000D-01 -1.2866023851147D+00 -4.8340930982801D-01
32  3.1000000000000D-01 -1.3139135331526D+00 -4.8699503383032D-01
33  3.2000000000000D-01 -1.3396071498023D+00 -4.8889818908842D-01
34  3.3000000000000D-01 -1.3636290089399D+00 -4.8902617165111D-01
35  3.4000000000000D-01 -1.3859268747344D+00 -4.8728911571810D-01
36  3.5000000000000D-01 -1.4064507922368D+00 -4.8360065031063D-01
37  3.6000000000000D-01 -1.4251533905129D+00 -4.7787868901911D-01
38  3.7000000000000D-01 -1.4419901737950D+00 -4.7004618977981D-01
39  3.8000000000000D-01 -1.4569198109237D+00 -4.6003190989411D-01
40  3.9000000000000D-01 -1.4699044340894D+00 -4.4777118414286D-01
41  4.0000000000000D-01 -1.4809099112914D+00 -4.3320663396249D-01
42  4.1000000000000D-01 -1.4899061201368D+00 -4.1628887791807D-01
43  4.2000000000000D-01 -1.4968672087943D+00 -3.9697720650716D-01
44  4.3000000000000D-01 -1.5017718431026D+00 -3.7524021812714D-01
45  4.4000000000000D-01 -1.5046034381588D+00 -3.5105641136922D-01
46  4.5000000000000D-01 -1.5053503724409D+00 -3.2441472814107D-01
47  4.6000000000000D-01 -1.5040061825274D+00 -2.9531504219848D-01
48  4.7000000000000D-01 -1.5005697364937D+00 -2.6376858776545D-01
49  4.8000000000000D-01 -1.4950453771026D+00 -2.2979830546517D-01
50  4.9000000000000D-01 -1.4874430685517D+00 -1.9343919070766D-01
51  5.0000000000000D-01 -1.4777784821580D+00 -1.5473848006561D-01
52  5.1000000000000D-01 -1.4660730654455D+00 -1.1375578950159D-01
53  5.2000000000000D-01 -1.4523540955361D+00 -7.0563205704959D-02
54  5.3000000000000D-01 -1.4366547117714D+00 -2.5245314954262D-02
55  5.4000000000000D-01 -1.4190138634118D+00  2.2100982735994D-02
56  5.5000000000000D-01 -1.3994763149796D+00  7.1366531589703D-02
57  5.6000000000000D-01 -1.3780925334800D+00  1.2243027091252D-01
58  5.7000000000000D-01 -1.3549186113842D+00  1.7515951265111D-01
59  5.8000000000000D-01 -1.3300161162512D+00  2.2941040090879D-01
60  5.9000000000000D-01 -1.3034519404420D+00  2.8502838766643D-01
61  6.0000000000000D-01 -1.2752980947873D+00  3.4184883341334D-01
62  6.1000000000000D-01 -1.2456314960046D+00  3.9969766686782D-01
63  6.2000000000000D-01 -1.2145337161919D+00  4.5839208371674D-01
64  6.3000000000000D-01 -1.1820906971927D+00  5.1774140357408D-01
65  6.4000000000000D-01 -1.1483924491647D+00  5.7754792041713D-01
66  6.5000000000000D-01 -1.1135327519738D+00  6.3760774200075D-01
67  6.6000000000000D-01 -1.0776087585462D+00  6.9771192978007D-01
68  6.7000000000000D-01 -1.0407206461902D+00  7.5764745944714D-01
69  6.8000000000000D-01 -1.0029712415712D+00  8.1719825793631D-01
70  6.9000000000000D-01 -9.6446565190533D-01  8.7614621395246D-01
71  7.0000000000000D-01 -9.2531071953903D-01  9.3427269177945D-01
72  7.1000000000000D-01 -8.8561470555837D-01  9.9135935635678D-01
73  7.2000000000000D-01 -8.4548682017886D-01  1.0471894405930D+00
74  7.3000000000000D-01 -8.0503677467346D-01  1.1015489344122D+00
75  7.4000000000000D-01 -7.6437436272459D-01  1.1542276793151D+00
76  7.5000000000000D-01 -7.2360892910530D-01  1.2050207630796D+00
77  7.6000000000000D-01 -6.8284894740598D-01  1.2537295930322D+00
78  7.7000000000000D-01 -6.4220160738790D-01  1.3001629323458D+00
79  7.8000000000000D-01 -6.0177235263842D-01  1.3441380584225D+00
80  7.9000000000000D-01 -5.6166444730764D-01  1.3854818247188D+00
81  8.0000000000000D-01 -5.2197855439312D-01  1.4240316746334D+00
82  8.1000000000000D-01 -4.8281232808164D-01  1.4596366002532D+00
83  8.2000000000000D-01 -4.4426002255483D-01  1.4921580391226D+00
84  8.3000000000000D-01 -4.0641211954977D-01  1.5214707026144D+00
85  8.4000000000000D-01 -3.6935497683848D-01  1.5474633299271D+00
86  8.5000000000000D-01 -3.3317049965239D-01  1.5700393622174D+00
87  8.6000000000000D-01 -2.9793583693166D-01  1.5891175318856D+00
88  8.7000000000000D-01 -2.6372310412417D-01  1.6046323625718D+00
89  8.8000000000000D-01 -2.3059913409500D-01  1.6165345759913D+00
90  8.9000000000000D-01 -1.9862525753455D-01  1.6247914023379D+00
91  9.0000000000000D-01 -1.6785711406830D-01  1.6293867916278D+00
92  9.1000000000000D-01 -1.3834449507351D-01  1.6303215240411D+00
93  9.2000000000000D-01 -1.1013121899342D-01  1.6276132180607D+00
94  9.3000000000000D-01 -8.3255039704964D-02  1.6212962360106D+00
95  9.4000000000000D-01 -5.7747588239786D-02  1.6114214874651D+00
96  9.5000000000000D-01 -3.3634347876047D-02  1.5980561319485D+00
97  9.6000000000000D-01 -1.0934770512484D-02  1.5812829951420D+00
98  9.7000000000000D-01  1.0337987163574D-02  1.5612006445783D+00
99  9.8000000000000D-01  3.0176761095010D-02  1.5379223405345D+00
100  9.9000000000000D-01  4.8580282436798D-02  1.5115753887427D+00
101  1.0000000000000D+00  6.5553072695000D-02  1.4823004348452D+00
102  1.0100000000000D+00  8.1105279528108D-02  1.4502506247491D+00
103  1.0200000000000D+00  9.5252475308364D-02  1.4155906925953D+00
104  1.0300000000000D+00  1.0801537000452D-01  1.3784960533020D+00
105  1.0400000000000D+00  1.1941992654790D-01  1.3391518000330D+00
106  1.0500000000000D+00  1.2949667716592D-01  1.2977513569111D+00
107  1.0600000000000D+00  1.3828058125699D-01  1.2544954617438D+00
108  1.0700000000000D+00  1.4581072750090D-01  1.2095910135190D+00
109  1.0800000000000D+00  1.5213002950170D-01  1.1632504774628D+00
110  1.0900000000000D+00  1.5728498159760D-01  1.1156890860717D+00
111  1.1000000000000D+00  1.6132512617118D-01  1.0671247652417D+00
112  1.1100000000000D+00  1.6430278948047D-01  1.0177766508464D+00
113  1.1200000000000D+00  1.6627286536605D-01  9.6786480216503D-01
114  1.1300000000000D+00  1.6729222697377D-01  9.1760681017321D-01
115  1.1400000000000D+00  1.6741935368012D-01  8.6721740629788D-01
116  1.1500000000000D+00  1.6671410532413D-01  8.1690799825973D-01
117  1.1600000000000D+00  1.6523770950845D-01  7.6688705689917D-01
118  1.1700000000000D+00  1.6305145757990D-01  7.1735383361815D-01
119  1.1800000000000D+00  1.6021697121577D-01  6.6850106357822D-01
120  1.1900000000000D+00  1.5679610733599D-01  6.2051478278639D-01
121  1.2000000000000D+00  1.5285048105366D-01  5.7357237085201D-01
122  1.2100000000000D+00  1.4844012545654D-01  5.2783738192068D-01
123  1.2200000000000D+00  1.4362449881558D-01  4.8346461196351D-01
124  1.2300000000000D+00  1.3846274039717D-01  4.4060108590300D-01
125  1.2400000000000D+00  1.3301050200933D-01  3.9937364415335D-01
126  1.2500000000000D+00  1.2732240135674D-01  3.5989960950214D-01
127  1.2600000000000D+00  1.2145216545444D-01  3.2228711686300D-01
128  1.2700000000000D+00  1.1544911805426D-01  2.8662220613228D-01
129  1.2800000000000D+00  1.0936079539100D-01  2.5297939109847D-01
130  1.2900000000000D+00  1.0323362283750D-01  2.2142386119915D-01
131  1.3000000000000D+00  9.7108469984528D-02  1.9199612038646D-01
132  1.3100000000000D+00  9.1024469214725D-02  1.6472609326168D-01
133  1.3200000000000D+00  8.5018941551551D-02  1.3963250787720D-01
134  1.3300000000000D+00  7.9123027936106D-02  1.1670897355342D-01
135  1.3400000000000D+00  7.3366713317613D-02  9.5940947098059D-02
136  1.3500000000000D+00  6.7776370476531D-02  7.7297597186149D-02
137  1.3600000000000D+00  6.2373110937585D-02  6.0727563032604D-02
138  1.3700000000000D+00  5.7177191944180D-02  4.6172400576425D-02
139  1.3800000000000D+00  5.2202846173042D-02  3.3551389995075D-02
140  1.3900000000000D+00  4.7461385869361D-02  2.2771407065234D-02
141  1.4000000000000D+00  4.2961991795325D-02  1.3728559600865D-02
142  1.4100000000000D+00  3.8707014962505D-02  6.2964194924390D-03
143  1.4200000000000D+00  3.4698591675207D-02  3.4433753810415D-04
144  1.4300000000000D+00  3.0934249075340D-02 -4.2700928197652D-03
145  1.4400000000000D+00  2.7411000052814D-02 -7.6873978889844D-03
146  1.4500000000000D+00  2.4124615593439D-02 -1.0051706886203D-02
147  1.4600000000000D+00  2.1069809613215D-02 -1.1498851646708D-02
148  1.4700000000000D+00  1.8240947211931D-02 -1.2170735273451D-02
149  1.4800000000000D+00  1.5632018142922D-02 -1.2195415891081D-02
150  1.4900000000000D+00  1.3237002795123D-02 -1.1703099574621D-02
151  1.5000000000000D+00  1.1050034729358D-02 -1.0814309423412D-02
152  1.5100000000000D+00  9.0660696070213D-03 -9.6404281847986D-03
153  1.5200000000000D+00  7.2799826655679D-03 -8.2915371925171D-03
154  1.5300000000000D+00  5.6889318983248D-03 -6.8553551554933D-03
155  1.5400000000000D+00  4.2891377547078D-03 -5.4283517684340D-03
156  1.5500000000000D+00  3.0806824237311D-03 -4.0729451618386D-03
157  1.5600000000000D+00  2.0623621318840D-03 -2.8635419847268D-03
158  1.5700000000000D+00  1.2370903893388D-03 -1.8409082783478D-03
159  1.5800000000000D+00  6.0722245494708D-04 -1.0514351023765D-03
160  1.5900000000000D+00  1.8939806766159D-04 -5.3512474321493D-04
161  1.6000000000000D+00 -2.3081355834594D-05 -2.8347956026053D-04
162  1.6100000000000D+00 -7.7571798844878D-05 -1.3398246616235D-04
163  1.6200000000000D+00 -3.0737481192669D-05 -2.7464878256762D-05
164  1.6300000000000D+00  4.3556470305211D-06  1.2670283405936D-05
165  1.6400000000000D+00  2.4522788159973D-06  7.1335136597010D-06
166  1.6500000000000D+00  0.0000000000000D+00  0.0000000000000D+00
167  1.6600000000000D+00  0.0000000000000D+00  0.0000000000000D+00
168  1.6700000000000D+00  0.0000000000000D+00  0.0000000000000D+00
169  1.6800000000000D+00  0.0000000000000D+00  0.0000000000000D+00
170  1.6900000000000D+00  0.0000000000000D+00  0.0000000000000D+00
171  1.7000000000000D+00  0.0000000000000D+00  0.0000000000000D+00
172  1.7100000000000D+00  0.0000000000000D+00  0.0000000000000D+00
173  1.7200000000000D+00  0.0000000000000D+00  0.0000000000000D+00
174  1.7300000000000D+00  0.0000000000000D+00  0.0000000000000D+00
175  1.7400000000000D+00  0.0000000000000D+00  0.0000000000000D+00
176  1.7500000000000D+00  0.0000000000000D+00  0.0000000000000D+00
177  1.7600000000000D+00  0.0000000000000D+00  0.0000000000000D+00
178  1.7700000000000D+00  0.0000000000000D+00  0.0000000000000D+00
179  1.7800000000000D+00  0.0000000000000D+00  0.0000000000000D+00
180  1.7900000000000D+00  0.0000000000000D+00  0.0000000000000D+00
181  1.8000000000000D+00  0.0000000000000D+00  0.0000000000000D+00
182  1.8100000000000D+00  0.0000000000000D+00  0.0000000000000D+00
183  1.8200000000000D+00  0.0000000000000D+00  0.0000000000000D+00
184  1.8300000000000D+00  0.0000000000000D+00  0.0000000000000D+00
185  1.8400000000000D+00  0.0000000000000D+00  0.0000000000000D+00
186  1.8500000000000D+00  0.0000000000000D+00  0.0000000000000D+00
187  1.8600000000000D+00  0.0000000000000D+00  0.0000000000000D+00
188  1.8700000000000D+00  0.0000000000000D+00  0.0000000000000D+00
189  1.8800000000000D+00  0.0000000000000D+00  0.0000000000000D+00
190  1.8900000000000D+00  0.0000000000000D+00  0.0000000000000D+00
191  1.9000000000000D+00  0.0000000000000D+00  0.0000000000000D+00
192  1.9100000000000D+00  0.0000000000000D+00  0.0000000000000D+00
193  1.9200000000000D+00  0.0000000000000D+00  0.0000000000000D+00
194  1.9300000000000D+00  0.0000000000000D+00  0.0000000000000D+00
195  1.9400000000000D+00  0.0000000000000D+00  0.0000000000000D+00
196  1.9500000000000D+00  0.0000000000000D+00  0.0000000000000D+00
197  1.9600000000000D+00  0.0000000000000D+00  0.0000000000000D+00
198  1.9700000000000D+00  0.0000000000000D+00  0.0000000000000D+00
199  1.9800000000000D+00  0.0000000000000D+00  0.0000000000000D+00
200  1.9900000000000D+00  0.0000000000000D+00  0.0000000000000D+00
201  2.0000000000000D+00  0.0000000000000D+00  0.0000000000000D+00
202  2.0100000000000D+00  0.0000000000000D+00  0.0000000000000D+00
203  2.0200000000000D+00  0.0000000000000D+00  0.0000000000000D+00
204  2.0300000000000D+00  0.0000000000000D+00  0.0000000000000D+00
205  2.0400000000000D+00  0.0000000000000D+00  0.0000000000000D+00
206  2.0500000000000D+00  0.0000000000000D+00  0.0000000000000D+00
207  2.0600000000000D+00  0.0000000000000D+00  0.0000000000000D+00
208  2.0700000000000D+00  0.0000000000000D+00  0.0000000000000D+00
209  2.0800000000000D+00  0.0000000000000D+00  0.0000000000000D+00
210  2.0900000000000D+00  0.0000000000000D+00  0.0000000000000D+00
211  2.1000000000000D+00  0.0000000000000D+00  0.0000000000000D+00
212  2.1100000000000D+00  0.0000000000000D+00  0.0000000000000D+00
213  2.1200000000000D+00  0.0000000000000D+00  0.0000000000000D+00
214  2.1300000000000D+00  0.0000000000000D+00  0.0000000000000D+00
215  2.1400000000000D+00  0.0000000000000D+00  0.0000000000000D+00
216  2.1500000000000D+00  0.0000000000000D+00  0.0000000000000D+00
217  2.1600000000000D+00  0.0000000000000D+00  0.0000000000000D+00
218  2.1700000000000D+00  0.0000000000000D+00  0.0000000000000D+00
219  2.1800000000000D+00  0.0000000000000D+00  0.0000000000000D+00
220  2.1900000000000D+00  0.0000000000000D+00  0.0000000000000D+00
221  2.2000000000000D+00  0.0000000000000D+00  0.0000000000000D+00
222  2.2100000000000D+00  0.0000000000000D+00  0.0000000000000D+00
223  2.2200000000000D+00  0.0000000000000D+00  0.0000000000000D+00
224  2.2300000000000D+00  0.0000000000000D+00  0.0000000000000D+00
225  2.2400000000000D+00  0.0000000000000D+00  0.0000000000000D+00
226  2.2500000000000D+00  0.0000000000000D+00  0.0000000000000D+00
227  2.2600000000000D+00  0.0000000000000D+00  0.0000000000000D+00
228  2.2700000000000D+00  0.0000000000000D+00  0.0000000000000D+00
229  2.2800000000000D+00  0.0000000000000D+00  0.0000000000000D+00
230  2.2900000000000D+00  0.0000000000000D+00  0.0000000000000D+00
231  2.3000000000000D+00  0.0000000000000D+00  0.0000000000000D+00
232  2.3100000000000D+00  0.0000000000000D+00  0.0000000000000D+00
233  2.3200000000000D+00  0.0000000000000D+00  0.0000000000000D+00
234  2.3300000000000D+00  0.0000000000000D+00  0.0000000000000D+00
235  2.3400000000000D+00  0.0000000000000D+00  0.0000000000000D+00
236  2.3500000000000D+00  0.0000000000000D+00  0.0000000000000D+00
237  2.3600000000000D+00  0.0000000000000D+00  0.0000000000000D+00
238  2.3700000000000D+00  0.0000000000000D+00  0.0000000000000D+00
239  2.3800000000000D+00  0.0000000000000D+00  0.0000000000000D+00
240  2.3900000000000D+00  0.0000000000000D+00  0.0000000000000D+00
241  2.4000000000000D+00  0.0000000000000D+00  0.0000000000000D+00
242  2.4100000000000D+00  0.0000000000000D+00  0.0000000000000D+00
243  2.4200000000000D+00  0.0000000000000D+00  0.0000000000000D+00
244  2.4300000000000D+00  0.0000000000000D+00  0.0000000000000D+00
245  2.4400000000000D+00  0.0000000000000D+00  0.0000000000000D+00
246  2.4500000000000D+00  0.0000000000000D+00  0.0000000000000D+00
247  2.4600000000000D+00  0.0000000000000D+00  0.0000000000000D+00
248  2.4700000000000D+00  0.0000000000000D+00  0.0000000000000D+00
249  2.4800000000000D+00  0.0000000000000D+00  0.0000000000000D+00
250  2.4900000000000D+00  0.0000000000000D+00  0.0000000000000D+00
251  2.5000000000000D+00  0.0000000000000D+00  0.0000000000000D+00
252  2.5100000000000D+00  0.0000000000000D+00  0.0000000000000D+00
253  2.5200000000000D+00  0.0000000000000D+00  0.0000000000000D+00
254  2.5300000000000D+00  0.0000000000000D+00  0.0000000000000D+00
255  2.5400000000000D+00  0.0000000000000D+00  0.0000000000000D+00
256  2.5500000000000D+00  0.0000000000000D+00  0.0000000000000D+00
257  2.5600000000000D+00  0.0000000000000D+00  0.0000000000000D+00
258  2.5700000000000D+00  0.0000000000000D+00  0.0000000000000D+00
259  2.5800000000000D+00  0.0000000000000D+00  0.0000000000000D+00
260  2.5900000000000D+00  0.0000000000000D+00  0.0000000000000D+00
261  2.6000000000000D+00  0.0000000000000D+00  0.0000000000000D+00
262  2.6100000000000D+00  0.0000000000000D+00  0.0000000000000D+00
263  2.6200000000000D+00  0.0000000000000D+00  0.0000000000000D+00
264  2.6300000000000D+00  0.0000000000000D+00  0.0000000000000D+00
265  2.6400000000000D+00  0.0000000000000D+00  0.0000000000000D+00
266  2.6500000000000D+00  0.0000000000000D+00  0.0000000000000D+00
267  2.6600000000000D+00  0.0000000000000D+00  0.0000000000000D+00
268  2.6700000000000D+00  0.0000000000000D+00  0.0000000000000D+00
269  2.6800000000000D+00  0.0000000000000D+00  0.0000000000000D+00
270  2.6900000000000D+00  0.0000000000000D+00  0.0000000000000D+00
271  2.7000000000000D+00  0.0000000000000D+00  0.0000000000000D+00
272  2.7100000000000D+00  0.0000000000000D+00  0.0000000000000D+00
273  2.7200000000000D+00  0.0000000000000D+00  0.0000000000000D+00
274  2.7300000000000D+00  0.0000000000000D+00  0.0000000000000D+00
275  2.7400000000000D+00  0.0000000000000D+00  0.0000000000000D+00
276  2.7500000000000D+00  0.0000000000000D+00  0.0000000000000D+00
277  2.7600000000000D+00  0.0000000000000D+00  0.0000000000000D+00
278  2.7700000000000D+00  0.0000000000000D+00  0.0000000000000D+00
279  2.7800000000000D+00  0.0000000000000D+00  0.0000000000000D+00
280  2.7900000000000D+00  0.0000000000000D+00  0.0000000000000D+00
281  2.8000000000000D+00  0.0000000000000D+00  0.0000000000000D+00
282  2.8100000000000D+00  0.0000000000000D+00  0.0000000000000D+00
283  2.8200000000000D+00  0.0000000000000D+00  0.0000000000000D+00
284  2.8300000000000D+00  0.0000000000000D+00  0.0000000000000D+00
285  2.8400000000000D+00  0.0000000000000D+00  0.0000000000000D+00
286  2.8500000000000D+00  0.0000000000000D+00  0.0000000000000D+00
287  2.8600000000000D+00  0.0000000000000D+00  0.0000000000000D+00
288  2.8700000000000D+00  0.0000000000000D+00  0.0000000000000D+00
289  2.8800000000000D+00  0.0000000000000D+00  0.0000000000000D+00
290  2.8900000000000D+00  0.0000000000000D+00  0.0000000000000D+00
291  2.9000000000000D+00  0.0000000000000D+00  0.0000000000000D+00
292  2.9100000000000D+00  0.0000000000000D+00  0.0000000000000D+00
293  2.9200000000000D+00  0.0000000000000D+00  0.0000000000000D+00
294  2.9300000000000D+00  0.0000000000000D+00  0.0000000000000D+00
295  2.9400000000000D+00  0.0000000000000D+00  0.0000000000000D+00
296  2.9500000000000D+00  0.0000000000000D+00  0.0000000000000D+00
297  2.9600000000000D+00  0.0000000000000D+00  0.0000000000000D+00
298  2.9700000000000D+00  0.0000000000000D+00  0.0000000000000D+00
299  2.9800000000000D+00  0.0000000000000D+00  0.0000000000000D+00
300  2.9900000000000D+00  0.0000000000000D+00  0.0000000000000D+00
301  3.0000000000000D+00  0.0000000000000D+00  0.0000000000000D+00
302  3.0100000000000D+00  0.0000000000000D+00  0.0000000000000D+00
303  3.0200000000000D+00  0.0000000000000D+00  0.0000000000000D+00
304  3.0300000000000D+00  0.0000000000000D+00  0.0000000000000D+00
305  3.0400000000000D+00  0.0000000000000D+00  0.0000000000000D+00
306  3.0500000000000D+00  0.0000000000000D+00  0.0000000000000D+00
307  3.0600000000000D+00  0.0000000000000D+00  0.0000000000000D+00
308  3.0700000000000D+00  0.0000000000000D+00  0.0000000000000D+00
309  3.0800000000000D+00  0.0000000000000D+00  0.0000000000000D+00
310  3.0900000000000D+00  0.0000000000000D+00  0.0000000000000D+00
311  3.1000000000000D+00  0.0000000000000D+00  0.0000000000000D+00
312  3.1100000000000D+00  0.0000000000000D+00  0.0000000000000D+00
313  3.1200000000000D+00  0.0000000000000D+00  0.0000000000000D+00
314  3.1300000000000D+00  0.0000000000000D+00  0.0000000000000D+00
315  3.1400000000000D+00  0.0000000000000D+00  0.0000000000000D+00
316  3.1500000000000D+00  0.0000000000000D+00  0.0000000000000D+00
317  3.1600000000000D+00  0.0000000000000D+00  0.0000000000000D+00
318  3.1700000000000D+00  0.0000000000000D+00  0.0000000000000D+00
319  3.1800000000000D+00  0.0000000000000D+00  0.0000000000000D+00
320  3.1900000000000D+00  0.0000000000000D+00  0.0000000000000D+00
321  3.2000000000000D+00  0.0000000000000D+00  0.0000000000000D+00
322  3.2100000000000D+00  0.0000000000000D+00  0.0000000000000D+00
323  3.2200000000000D+00  0.0000000000000D+00  0.0000000000000D+00
324  3.2300000000000D+00  0.0000000000000D+00  0.0000000000000D+00
325  3.2400000000000D+00  0.0000000000000D+00  0.0000000000000D+00
326  3.2500000000000D+00  0.0000000000000D+00  0.0000000000000D+00
327  3.2600000000000D+00  0.0000000000000D+00  0.0000000000000D+00
328  3.2700000000000D+00  0.0000000000000D+00  0.0000000000000D+00
329  3.2800000000000D+00  0.0000000000000D+00  0.0000000000000D+00
330  3.2900000000000D+00  0.0000000000000D+00  0.0000000000000D+00
331  3.3000000000000D+00  0.0000000000000D+00  0.0000000000000D+00
332  3.3100000000000D+00  0.0000000000000D+00  0.0000000000000D+00
333  3.3200000000000D+00  0.0000000000000D+00  0.0000000000000D+00
334  3.3300000000000D+00  0.0000000000000D+00  0.0000000000000D+00
335  3.3400000000000D+00  0.0000000000000D+00  0.0000000000000D+00
336  3.3500000000000D+00  0.0000000000000D+00  0.0000000000000D+00
337  3.3600000000000D+00  0.0000000000000D+00  0.0000000000000D+00
338  3.3700000000000D+00  0.0000000000000D+00  0.0000000000000D+00
339  3.3800000000000D+00  0.0000000000000D+00  0.0000000000000D+00
340  3.3900000000000D+00  0.0000000000000D+00  0.0000000000000D+00
341  3.4000000000000D+00  0.0000000000000D+00  0.0000000000000D+00
342  3.4100000000000D+00  0.0000000000000D+00  0.0000000000000D+00
343  3.4200000000000D+00  0.0000000000000D+00  0.0000000000000D+00
344  3.4300000000000D+00  0.0000000000000D+00  0.0000000000000D+00
345  3.4400000000000D+00  0.0000000000000D+00  0.0000000000000D+00
346  3.4500000000000D+00  0.0000000000000D+00  0.0000000000000D+00
347  3.4600000000000D+00  0.0000000000000D+00  0.0000000000000D+00
348  3.4700000000000D+00  0.0000000000000D+00  0.0000000000000D+00
349  3.4800000000000D+00  0.0000000000000D+00  0.0000000000000D+00
350  3.4900000000000D+00  0.0000000000000D+00  0.0000000000000D+00
351  3.5000000000000D+00  0.0000000000000D+00  0.0000000000000D+00
352  3.5100000000000D+00  0.0000000000000D+00  0.0000000000000D+00
353  3.5200000000000D+00  0.0000000000000D+00  0.0000000000000D+00
354  3.5300000000000D+00  0.0000000000000D+00  0.0000000000000D+00
355  3.5400000000000D+00  0.0000000000000D+00  0.0000000000000D+00
356  3.5500000000000D+00  0.0000000000000D+00  0.0000000000000D+00
357  3.5600000000000D+00  0.0000000000000D+00  0.0000000000000D+00
358  3.5700000000000D+00  0.0000000000000D+00  0.0000000000000D+00
359  3.5800000000000D+00  0.0000000000000D+00  0.0000000000000D+00
360  3.5900000000000D+00  0.0000000000000D+00  0.0000000000000D+00
361  3.6000000000000D+00  0.0000000000000D+00  0.0000000000000D+00
362  3.6100000000000D+00  0.0000000000000D+00  0.0000000000000D+00
363  3.6200000000000D+00  0.0000000000000D+00  0.0000000000000D+00
364  3.6300000000000D+00  0.0000000000000D+00  0.0000000000000D+00
365  3.6400000000000D+00  0.0000000000000D+00  0.0000000000000D+00
366  3.6500000000000D+00  0.0000000000000D+00  0.0000000000000D+00
367  3.6600000000000D+00  0.0000000000000D+00  0.0000000000000D+00
368  3.6700000000000D+00  0.0000000000000D+00  0.0000000000000D+00
369  3.6800000000000D+00  0.0000000000000D+00  0.0000000000000D+00
370  3.6900000000000D+00  0.0000000000000D+00  0.0000000000000D+00
371  3.7000000000000D+00  0.0000000000000D+00  0.0000000000000D+00
372  3.7100000000000D+00  0.0000000000000D+00  0.0000000000000D+00
373  3.7200000000000D+00  0.0000000000000D+00  0.0000000000000D+00
374  3.7300000000000D+00  0.0000000000000D+00  0.0000000000000D+00
375  3.7400000000000D+00  0.0000000000000D+00  0.0000000000000D+00
376  3.7500000000000D+00  0.0000000000000D+00  0.0000000000000D+00
377  3.7600000000000D+00  0.0000000000000D+00  0.0000000000000D+00
378  3.7700000000000D+00  0.0000000000000D+00  0.0000000000000D+00
379  3.7800000000000D+00  0.0000000000000D+00  0.0000000000000D+00
380  3.7900000000000D+00  0.0000000000000D+00  0.0000000000000D+00
381  3.8000000000000D+00  0.0000000000000D+00  0.0000000000000D+00
382  3.8100000000000D+00  0.0000000000000D+00  0.0000000000000D+00
383  3.8200000000000D+00  0.0000000000000D+00  0.0000000000000D+00
384  3.8300000000000D+00  0.0000000000000D+00  0.0000000000000D+00
385  3.8400000000000D+00  0.0000000000000D+00  0.0000000000000D+00
386  3.8500000000000D+00  0.0000000000000D+00  0.0000000000000D+00
387  3.8600000000000D+00  0.0000000000000D+00  0.0000000000000D+00
388  3.8700000000000D+00  0.0000000000000D+00  0.0000000000000D+00
389  3.8800000000000D+00  0.0000000000000D+00  0.0000000000000D+00
390  3.8900000000000D+00  0.0000000000000D+00  0.0000000000000D+00
391  3.9000000000000D+00  0.0000000000000D+00  0.0000000000000D+00
392  3.9100000000000D+00  0.0000000000000D+00  0.0000000000000D+00
393  3.9200000000000D+00  0.0000000000000D+00  0.0000000000000D+00
394  3.9300000000000D+00  0.0000000000000D+00  0.0000000000000D+00
395  3.9400000000000D+00  0.0000000000000D+00  0.0000000000000D+00
396  3.9500000000000D+00  0.0000000000000D+00  0.0000000000000D+00
397  3.9600000000000D+00  0.0000000000000D+00  0.0000000000000D+00
398  3.9700000000000D+00  0.0000000000000D+00  0.0000000000000D+00
399  3.9800000000000D+00  0.0000000000000D+00  0.0000000000000D+00
400  3.9900000000000D+00  0.0000000000000D+00  0.0000000000000D+00
401  4.0000000000000D+00  0.0000000000000D+00  0.0000000000000D+00
402  4.0100000000000D+00  0.0000000000000D+00  0.0000000000000D+00
403  4.0200000000000D+00  0.0000000000000D+00  0.0000000000000D+00
404  4.0300000000000D+00  0.0000000000000D+00  0.0000000000000D+00
405  4.0400000000000D+00  0.0000000000000D+00  0.0000000000000D+00
406  4.0500000000000D+00  0.0000000000000D+00  0.0000000000000D+00
407  4.0600000000000D+00  0.0000000000000D+00  0.0000000000000D+00
408  4.0700000000000D+00  0.0000000000000D+00  0.0000000000000D+00
409  4.0800000000000D+00  0.0000000000000D+00  0.0000000000000D+00
410  4.0900000000000D+00  0.0000000000000D+00  0.0000000000000D+00
411  4.1000000000000D+00  0.0000000000000D+00  0.0000000000000D+00
412  4.1100000000000D+00  0.0000000000000D+00  0.0000000000000D+00
413  4.1200000000000D+00  0.0000000000000D+00  0.0000000000000D+00
414  4.1300000000000D+00  0.0000000000000D+00  0.0000000000000D+00
415  4.1400000000000D+00  0.0000000000000D+00  0.0000000000000D+00
416  4.1500000000000D+00  0.0000000000000D+00  0.0000000000000D+00
417  4.1600000000000D+00  0.0000000000000D+00  0.0000000000000D+00
418  4.1700000000000D+00  0.0000000000000D+00  0.0000000000000D+00
419  4.1800000000000D+00  0.0000000000000D+00  0.0000000000000D+00
420  4.1900000000000D+00  0.0000000000000D+00  0.0000000000000D+00
421  4.2000000000000D+00  0.0000000000000D+00  0.0000000000000D+00
422  4.2100000000000D+00  0.0000000000000D+00  0.0000000000000D+00
423  4.2200000000000D+00  0.0000000000000D+00  0.0000000000000D+00
424  4.2300000000000D+00  0.0000000000000D+00  0.0000000000000D+00
425  4.2400000000000D+00  0.0000000000000D+00  0.0000000000000D+00
426  4.2500000000000D+00  0.0000000000000D+00  0.0000000000000D+00
427  4.2600000000000D+00  0.0000000000000D+00  0.0000000000000D+00
428  4.2700000000000D+00  0.0000000000000D+00  0.0000000000000D+00
429  4.2800000000000D+00  0.0000000000000D+00  0.0000000000000D+00
430  4.2900000000000D+00  0.0000000000000D+00  0.0000000000000D+00
431  4.3000000000000D+00  0.0000000000000D+00  0.0000000000000D+00
432  4.3100000000000D+00  0.0000000000000D+00  0.0000000000000D+00
433  4.3200000000000D+00  0.0000000000000D+00  0.0000000000000D+00
434  4.3300000000000D+00  0.0000000000000D+00  0.0000000000000D+00
435  4.3400000000000D+00  0.0000000000000D+00  0.0000000000000D+00
436  4.3500000000000D+00  0.0000000000000D+00  0.0000000000000D+00
437  4.3600000000000D+00  0.0000000000000D+00  0.0000000000000D+00
438  4.3700000000000D+00  0.0000000000000D+00  0.0000000000000D+00
439  4.3800000000000D+00  0.0000000000000D+00  0.0000000000000D+00
440  4.3900000000000D+00  0.0000000000000D+00  0.0000000000000D+00
441  4.4000000000000D+00  0.0000000000000D+00  0.0000000000000D+00
442  4.4100000000000D+00  0.0000000000000D+00  0.0000000000000D+00
443  4.4200000000000D+00  0.0000000000000D+00  0.0000000000000D+00
444  4.4300000000000D+00  0.0000000000000D+00  0.0000000000000D+00