Y     ONCVPSP  r_core=  1.61  1.51  1.57
39.0000     11.0000      141211    zatom,zion,pspd
8    11     2     4   601     0    pspcod,pspxc,lmax,lloc,mmax,r2well
6.00000000  0.20000000  0.00000000    rchrg fchrg qchrg
2     2     2     0     0    nproj
0                 extension_switch
0                         1.0207310217455D+01  8.7709443383595D-01
1  0.0000000000000D+00 -0.0000000000000D+00 -0.0000000000000D+00
2  1.0000000000000D-02 -4.9605854595571D-02 -1.1426106204932D-02
3  2.0000000000000D-02 -9.9175165161729D-02 -2.2897917667540D-02
4  3.0000000000000D-02 -1.4867119678188D-01 -3.4460249588962D-02
5  4.0000000000000D-02 -1.9805683499163D-01 -4.6156145189029D-02
6  5.0000000000000D-02 -2.4729440155379D-01 -5.8026009982299D-02
7  6.0000000000000D-02 -2.9634547684335D-01 -7.0106770200094D-02
8  7.0000000000000D-02 -3.4517073096446D-01 -8.2431063114847D-02
9  8.0000000000000D-02 -3.9372976565363D-01 -9.5026466782998D-02
10  9.0000000000000D-02 -4.4198096893721D-01 -1.0791477641062D-01
11  1.0000000000000D-01 -4.8988138441129D-01 -1.2111133419091D-01
12  1.1000000000000D-01 -5.3738659689771D-01 -1.3462441905272D-01
13  1.2000000000000D-01 -5.8445063609633D-01 -1.4845470227761D-01
14  1.3000000000000D-01 -6.3102589971378D-01 -1.6259477444283D-01
15  1.4000000000000D-01 -6.7706309739868D-01 -1.7702874862698D-01
16  1.5000000000000D-01 -7.2251121662623D-01 -1.9173194408940D-01
17  1.6000000000000D-01 -7.6731751153565D-01 -2.0667065424303D-01
18  1.7000000000000D-01 -8.1142751549101D-01 -2.2180200174786D-01
19  1.8000000000000D-01 -8.5478507798870D-01 -2.3707388322932D-01
20  1.9000000000000D-01 -8.9733242631608D-01 -2.5242500503438D-01
21  2.0000000000000D-01 -9.3901025210738D-01 -2.6778501113591D-01
22  2.1000000000000D-01 -9.7975782294340D-01 -2.8307470305964D-01
23  2.2000000000000D-01 -1.0195131185465D+00 -2.9820635146994D-01
24  2.3000000000000D-01 -1.0582129914014D+00 -3.1308409797189D-01
25  2.4000000000000D-01 -1.0957933507904D+00 -3.2760444453772D-01
26  2.5000000000000D-01 -1.1321893703079D+00 -3.4165682963172D-01
27  2.6000000000000D-01 -1.1673357159857D+00 -3.5512428332069D-01
28  2.7000000000000D-01 -1.2011667967183D+00 -3.6788416407840D-01
29  2.8000000000000D-01 -1.2336170320311D+00 -3.7980896365375D-01
30  2.9000000000000D-01 -1.2646211385955D+00 -3.9076718198674D-01
31  3.0000000000000D-01 -1.2941144323140D+00 -4.0062426254289D-01
32  3.1000000000000D-01 -1.3220331443291D+00 -4.0924358202615D-01
33  3.2000000000000D-01 -1.3483147475008D+00 -4.1648748303104D-01
34  3.3000000000000D-01 -1.3728982955988D+00 -4.2221835526434D-01
35  3.4000000000000D-01 -1.3957247684078D+00 -4.2629974413069D-01
36  3.5000000000000D-01 -1.4167374164988D+00 -4.2859746568438D-01
37  3.6000000000000D-01 -1.4358821213719D+00 -4.2898077591902D-01
38  3.7000000000000D-01 -1.4531077421453D+00 -4.2732350402067D-01
39  3.8000000000000D-01 -1.4683664607006D+00 -4.2350518487224D-01
40  3.9000000000000D-01 -1.4816141382895D+00 -4.1741223196804D-01
41  4.0000000000000D-01 -1.4928106415427D+00 -4.0893901646008D-01
42  4.1000000000000D-01 -1.5019201703966D+00 -3.9798895432333D-01
43  4.2000000000000D-01 -1.5089115711606D+00 -3.8447554787615D-01
44  4.3000000000000D-01 -1.5137586334810D+00 -3.6832337683442D-01
45  4.4000000000000D-01 -1.5164403691725D+00 -3.4946903170484D-01
46  4.5000000000000D-01 -1.5169412705666D+00 -3.2786198135641D-01
47  4.6000000000000D-01 -1.5152515460471D+00 -3.0346536670496D-01
48  4.7000000000000D-01 -1.5113673304555D+00 -2.7625671255062D-01
49  4.8000000000000D-01 -1.5052908597054D+00 -2.4622852208462D-01
50  4.9000000000000D-01 -1.4970306500615D+00 -2.1338888717856D-01
51  5.0000000000000D-01 -1.4866016047195D+00 -1.7776185972446D-01
52  5.1000000000000D-01 -1.4740251007923D+00 -1.3938775799598D-01
53  5.2000000000000D-01 -1.4593290579213D+00 -9.8323412739296D-02
54  5.3000000000000D-01 -1.4425479826958D+00 -5.4642334806927D-02
55  5.4000000000000D-01 -1.4237229109944D+00 -8.4345435523808D-03
56  5.5000000000000D-01 -1.4029014209913D+00  4.0193366857991D-02
57  5.6000000000000D-01 -1.3801375038000D+00  9.1118634800034D-02
58  5.7000000000000D-01 -1.3554914785616D+00  1.4420258682132D-01
59  5.8000000000000D-01 -1.3290298192173D+00  1.9929118656029D-01
60  5.9000000000000D-01 -1.3008249830059D+00  2.5621557234110D-01
61  6.0000000000000D-01 -1.2709551703746D+00  3.1479282563838D-01
62  6.1000000000000D-01 -1.2395040817035D+00  3.7482673444916D-01
63  6.2000000000000D-01 -1.2065606236264D+00  4.3610873876251D-01
64  6.3000000000000D-01 -1.1722185802986D+00  4.9841896553255D-01
65  6.4000000000000D-01 -1.1365762620106D+00  5.6152734884131D-01
66  6.5000000000000D-01 -1.0997361574196D+00  6.2519473503417D-01
67  6.6000000000000D-01 -1.0618044746120D+00  6.8917432771781D-01
68  6.7000000000000D-01 -1.0228907349574D+00  7.5321297164824D-01
69  6.8000000000000D-01 -9.8310733752758D-01  8.1705252162856D-01
70  6.9000000000000D-01 -9.4256913094080D-01  8.8043118308650D-01
71  7.0000000000000D-01 -9.0139278263965D-01  9.4308547532690D-01
72  7.1000000000000D-01 -8.5969641120074D-01  1.0047513700699D+00
73  7.2000000000000D-01 -8.1759904372571D-01  1.0651659635047D+00
74  7.3000000000000D-01 -7.7522009860442D-01  1.1240690588752D+00
75  7.4000000000000D-01 -7.3267890304952D-01  1.1812046303160D+00
76  7.5000000000000D-01 -6.9009408210701D-01  1.2363226684955D+00
77  7.6000000000000D-01 -6.4758307443541D-01  1.2891806194949D+00
78  7.7000000000000D-01 -6.0526166051685D-01  1.3395447711867D+00
79  7.8000000000000D-01 -5.6324343524721D-01  1.3871917926275D+00
80  7.9000000000000D-01 -5.2163931565665D-01  1.4319101466464D+00
81  8.0000000000000D-01 -4.8055706371290D-01  1.4735014362624D+00
82  8.1000000000000D-01 -4.4010082720279D-01  1.5117816747790D+00
83  8.2000000000000D-01 -4.0037070155533D-01  1.5465824699463D+00
84  8.3000000000000D-01 -3.6146231532159D-01  1.5777521131824D+00
85  8.4000000000000D-01 -3.2346644186284D-01  1.6051565655011D+00
86  8.5000000000000D-01 -2.8646863962206D-01  1.6286803325004D+00
87  8.6000000000000D-01 -2.5054892316653D-01  1.6482272215153D+00
88  8.7000000000000D-01 -2.1578146698956D-01  1.6637209748308D+00
89  8.8000000000000D-01 -1.8223434384970D-01  1.6751057736901D+00
90  8.9000000000000D-01 -1.4996929920287D-01  1.6823466087196D+00
91  9.0000000000000D-01 -1.1904156304533D-01  1.6854295133359D+00
92  9.1000000000000D-01 -8.9499700231420D-02  1.6843616577093D+00
93  9.2000000000000D-01 -6.1385500054024D-02  1.6791713019458D+00
94  9.3000000000000D-01 -3.4733905577155D-02  1.6699076083225D+00
95  9.4000000000000D-01 -9.5729828828815D-03  1.6566403136815D+00
96  9.5000000000000D-01  1.4076069960745D-02  1.6394592644528D+00
97  9.6000000000000D-01  3.6198760557117D-02  1.6184735903227D+00
98  9.7000000000000D-01  5.6787541082900D-02  1.5938116748365D+00
99  9.8000000000000D-01  7.5841435007910D-02  1.5656197190153D+00
100  9.9000000000000D-01  9.3365885335835D-02  1.5340608059081D+00
101  1.0000000000000D+00  1.0937259072035D-01  1.4993138810335D+00
102  1.0100000000000D+00  1.2387927629304D-01  1.4615725621705D+00
103  1.0200000000000D+00  1.3690942501244D-01  1.4210438612579D+00
104  1.0300000000000D+00  1.4849193434745D-01  1.3779469610755D+00
105  1.0400000000000D+00  1.5866111982548D-01  1.3325116363198D+00
106  1.0500000000000D+00  1.6745598068759D-01  1.2849765863837D+00
107  1.0600000000000D+00  1.7491997721976D-01  1.2355879835418D+00
108  1.0700000000000D+00  1.8110065870854D-01  1.1845979064725D+00
109  1.0800000000000D+00  1.8604933886065D-01  1.1322636141463D+00
110  1.0900000000000D+00  1.8982061980846D-01  1.0788435064679D+00
111  1.1000000000000D+00  1.9247192061987D-01  1.0245973269729D+00
112  1.1100000000000D+00  1.9406311180277D-01  9.6978412250676D-01
113  1.1200000000000D+00  1.9465630222197D-01  9.1466195440509D-01
114  1.1300000000000D+00  1.9431502038258D-01  8.5948324051618D-01
115  1.1400000000000D+00  1.9310386639296D-01  8.0449446031208D-01
116  1.1500000000000D+00  1.9108828457988D-01  7.4993565980189D-01
117  1.1600000000000D+00  1.8833459100700D-01  6.9604104838299D-01
118  1.1700000000000D+00  1.8490830622472D-01  6.4303067894274D-01
119  1.1800000000000D+00  1.8087465292526D-01  5.9111438768396D-01
120  1.1900000000000D+00  1.7629847075002D-01  5.4049165187475D-01
121  1.2000000000000D+00  1.7124364921145D-01  4.9134911049707D-01
122  1.2100000000000D+00  1.6577159778429D-01  4.4385425434422D-01
123  1.2200000000000D+00  1.5994256665725D-01  3.9816223776271D-01
124  1.2300000000000D+00  1.5381593209107D-01  3.5441704992863D-01
125  1.2400000000000D+00  1.4744660734954D-01  3.1273654089065D-01
126  1.2500000000000D+00  1.4088801978734D-01  2.7322609196415D-01
127  1.2600000000000D+00  1.3419222404308D-01  2.3597880813489D-01
128  1.2700000000000D+00  1.2740613356924D-01  2.0106085100038D-01
129  1.2800000000000D+00  1.2057456343212D-01  1.6852453030678D-01
130  1.2900000000000D+00  1.1374087446904D-01  1.3841042671132D-01
131  1.3000000000000D+00  1.0694250969793D-01  1.1073136085248D-01
132  1.3100000000000D+00  1.0021511662963D-01  8.5488542504724D-02
133  1.3200000000000D+00  9.3592345912808D-02  6.2670296160302D-02
134  1.3300000000000D+00  8.7101912247827D-02  4.2239758417109D-02
135  1.3400000000000D+00  8.0770491634130D-02  2.4151848372503D-02
136  1.3500000000000D+00  7.4621386829664D-02  8.3454332803649D-03
137  1.3600000000000D+00  6.8673506942024D-02 -5.2579380618058D-03
138  1.3700000000000D+00  6.2945046739670D-02 -1.6743712209611D-02
139  1.3800000000000D+00  5.7449457984750D-02 -2.6214403062975D-02
140  1.3900000000000D+00  5.2198266749171D-02 -3.3780781883607D-02
141  1.4000000000000D+00  4.7201408321975D-02 -3.9562401096623D-02
142  1.4100000000000D+00  4.2464555339298D-02 -4.3689795769434D-02
143  1.4200000000000D+00  3.7993201564548D-02 -4.6298223971376D-02
144  1.4300000000000D+00  3.3789459747155D-02 -4.7530723712405D-02
145  1.4400000000000D+00  2.9854176827923D-02 -4.7533724699390D-02
146  1.4500000000000D+00  2.6186898298775D-02 -4.6459189360435D-02
147  1.4600000000000D+00  2.2784773332657D-02 -4.4458566225985D-02
148  1.4700000000000D+00  1.9644831157856D-02 -4.1689019412509D-02
149  1.4800000000000D+00  1.6761830656906D-02 -3.8303120423682D-02
150  1.4900000000000D+00  1.4130324204859D-02 -3.4456654038599D-02
151  1.5000000000000D+00  1.1743527126509D-02 -3.0302409772982D-02
152  1.5100000000000D+00  9.5941232554517D-03 -2.5988952407329D-02
153  1.5200000000000D+00  7.6736273810350D-03 -2.1668981687947D-02
154  1.5300000000000D+00  5.9751718978806D-03 -1.7471319990306D-02
155  1.5400000000000D+00  4.4903926791675D-03 -1.3538015463516D-02
156  1.5500000000000D+00  3.2161577472259D-03 -9.9630081155965D-03
157  1.5600000000000D+00  2.1475495458097D-03 -6.8570388820258D-03
158  1.5700000000000D+00  1.2852514727998D-03 -4.2829730198141D-03
159  1.5800000000000D+00  6.2912392907048D-04 -2.3116466782322D-03
160  1.5900000000000D+00  1.9490602478778D-04 -1.0184481235374D-03
161  1.6000000000000D+00 -2.5664428434512D-05 -3.7939354118591D-04
162  1.6100000000000D+00 -8.1643783380388D-05 -9.3521453719856D-05
163  1.6200000000000D+00 -3.2225090847174D-05  2.9658646788631D-08
164  1.6300000000000D+00  4.6095766091249D-06  1.2700726401587D-05
165  1.6400000000000D+00  2.5952440567530D-06  7.1506534124882D-06
166  1.6500000000000D+00  0.0000000000000D+00  0.0000000000000D+00
167  1.6600000000000D+00  0.0000000000000D+00  0.0000000000000D+00
168  1.6700000000000D+00  0.0000000000000D+00  0.0000000000000D+00
169  1.6800000000000D+00  0.0000000000000D+00  0.0000000000000D+00
170  1.6900000000000D+00  0.0000000000000D+00  0.0000000000000D+00
171  1.7000000000000D+00  0.0000000000000D+00  0.0000000000000D+00
172  1.7100000000000D+00  0.0000000000000D+00  0.0000000000000D+00
173  1.7200000000000D+00  0.0000000000000D+00  0.0000000000000D+00
174  1.7300000000000D+00  0.0000000000000D+00  0.0000000000000D+00
175  1.7400000000000D+00  0.0000000000000D+00  0.0000000000000D+00
176  1.7500000000000D+00  0.0000000000000D+00  0.0000000000000D+00
177  1.7600000000000D+00  0.0000000000000D+00  0.0000000000000D+00
178  1.7700000000000D+00  0.0000000000000D+00  0.0000000000000D+00
179  1.7800000000000D+00  0.0000000000000D+00  0.0000000000000D+00
180  1.7900000000000D+00  0.0000000000000D+00  0.0000000000000D+00
181  1.8000000000000D+00  0.0000000000000D+00  0.0000000000000D+00
182  1.8100000000000D+00  0.0000000000000D+00  0.0000000000000D+00
183  1.8200000000000D+00  0.0000000000000D+00  0.0000000000000D+00
184  1.8300000000000D+00  0.0000000000000D+00  0.0000000000000D+00
185  1.8400000000000D+00  0.0000000000000D+00  0.0000000000000D+00
186  1.8500000000000D+00  0.0000000000000D+00  0.0000000000000D+00
187  1.8600000000000D+00  0.0000000000000D+00  0.0000000000000D+00
188  1.8700000000000D+00  0.0000000000000D+00  0.0000000000000D+00
189  1.8800000000000D+00  0.0000000000000D+00  0.0000000000000D+00
190  1.8900000000000D+00  0.0000000000000D+00  0.0000000000000D+00
191  1.9000000000000D+00  0.0000000000000D+00  0.0000000000000D+00
192  1.9100000000000D+00  0.0000000000000D+00  0.0000000000000D+00
193  1.9200000000000D+00  0.0000000000000D+00  0.0000000000000D+00
194  1.9300000000000D+00  0.0000000000000D+00  0.0000000000000D+00
195  1.9400000000000D+00  0.0000000000000D+00  0.0000000000000D+00
196  1.9500000000000D+00  0.0000000000000D+00  0.0000000000000D+00
197  1.9600000000000D+00  0.0000000000000D+00  0.0000000000000D+00
198  1.9700000000000D+00  0.0000000000000D+00  0.0000000000000D+00
199  1.9800000000000D+00  0.0000000000000D+00  0.0000000000000D+00
200  1.9900000000000D+00  0.0000000000000D+00  0.0000000000000D+00
201  2.0000000000000D+00  0.0000000000000D+00  0.0000000000000D+00
202  2.0100000000000D+00  0.0000000000000D+00  0.0000000000000D+00
203  2.0200000000000D+00  0.0000000000000D+00  0.0000000000000D+00
204  2.0300000000000D+00  0.0000000000000D+00  0.0000000000000D+00
205  2.0400000000000D+00  0.0000000000000D+00  0.0000000000000D+00
206  2.0500000000000D+00  0.0000000000000D+00  0.0000000000000D+00
207  2.0600000000000D+00  0.0000000000000D+00  0.0000000000000D+00
208  2.0700000000000D+00  0.0000000000000D+00  0.0000000000000D+00
209  2.0800000000000D+00  0.0000000000000D+00  0.0000000000000D+00
210  2.0900000000000D+00  0.0000000000000D+00  0.0000000000000D+00
211  2.1000000000000D+00  0.0000000000000D+00  0.0000000000000D+00
212  2.1100000000000D+00  0.0000000000000D+00  0.0000000000000D+00
213  2.1200000000000D+00  0.0000000000000D+00  0.0000000000000D+00
214  2.1300000000000D+00  0.0000000000000D+00  0.0000000000000D+00
215  2.1400000000000D+00  0.0000000000000D+00  0.0000000000000D+00
216  2.1500000000000D+00  0.0000000000000D+00  0.0000000000000D+00
217  2.1600000000000D+00  0.0000000000000D+00  0.0000000000000D+00
218  2.1700000000000D+00  0.0000000000000D+00  0.0000000000000D+00
219  2.1800000000000D+00  0.0000000000000D+00  0.0000000000000D+00
220  2.1900000000000D+00  0.0000000000000D+00  0.0000000000000D+00
221  2.2000000000000D+00  0.0000000000000D+00  0.0000000000000D+00
222  2.2100000000000D+00  0.0000000000000D+00  0.0000000000000D+00
223  2.2200000000000D+00  0.0000000000000D+00  0.0000000000000D+00
224  2.2300000000000D+00  0.0000000000000D+00  0.0000000000000D+00
225  2.2400000000000D+00  0.0000000000000D+00  0.0000000000000D+00
226  2.2500000000000D+00  0.0000000000000D+00  0.0000000000000D+00
227  2.2600000000000D+00  0.0000000000000D+00  0.0000000000000D+00
228  2.2700000000000D+00  0.0000000000000D+00  0.0000000000000D+00
229  2.2800000000000D+00  0.0000000000000D+00  0.0000000000000D+00
230  2.2900000000000D+00  0.0000000000000D+00  0.0000000000000D+00
231  2.3000000000000D+00  0.0000000000000D+00  0.0000000000000D+00
232  2.3100000000000D+00  0.0000000000000D+00  0.0000000000000D+00
233  2.3200000000000D+00  0.0000000000000D+00  0.0000000000000D+00
234  2.3300000000000D+00  0.0000000000000D+00  0.0000000000000D+00
235  2.3400000000000D+00  0.0000000000000D+00  0.0000000000000D+00
236  2.3500000000000D+00  0.0000000000000D+00  0.0000000000000D+00
237  2.3600000000000D+00  0.0000000000000D+00  0.0000000000000D+00
238  2.3700000000000D+00  0.0000000000000D+00  0.0000000000000D+00
239  2.3800000000000D+00  0.0000000000000D+00  0.0000000000000D+00
240  2.3900000000000D+00  0.0000000000000D+00  0.0000000000000D+00
241  2.4000000000000D+00  0.0000000000000D+00  0.0000000000000D+00
242  2.4100000000000D+00  0.0000000000000D+00  0.0000000000000D+00
243  2.4200000000000D+00  0.0000000000000D+00  0.0000000000000D+00
244  2.4300000000000D+00  0.0000000000000D+00  0.0000000000000D+00
245  2.4400000000000D+00  0.0000000000000D+00  0.0000000000000D+00
246  2.4500000000000D+00  0.0000000000000D+00  0.0000000000000D+00
247  2.4600000000000D+00  0.0000000000000D+00  0.0000000000000D+00
248  2.4700000000000D+00  0.0000000000000D+00  0.0000000000000D+00
249  2.4800000000000D+00  0.0000000000000D+00  0.0000000000000D+00
250  2.4900000000000D+00  0.0000000000000D+00  0.0000000000000D+00
251  2.5000000000000D+00  0.0000000000000D+00  0.0000000000000D+00
252  2.5100000000000D+00  0.0000000000000D+00  0.0000000000000D+00
253  2.5200000000000D+00  0.0000000000000D+00  0.0000000000000D+00
254  2.5300000000000D+00  0.0000000000000D+00  0.0000000000000D+00
255  2.5400000000000D+00  0.0000000000000D+00  0.0000000000000D+00
256  2.5500000000000D+00  0.0000000000000D+00  0.0000000000000D+00
257  2.5600000000000D+00  0.0000000000000D+00  0.0000000000000D+00
258  2.5700000000000D+00  0.0000000000000D+00  0.0000000000000D+00
259  2.5800000000000D+00  0.0000000000000D+00  0.0000000000000D+00
260  2.5900000000000D+00  0.0000000000000D+00  0.0000000000000D+00
261  2.6000000000000D+00  0.0000000000000D+00  0.0000000000000D+00
262  2.6100000000000D+00  0.0000000000000D+00  0.0000000000000D+00
263  2.6200000000000D+00  0.0000000000000D+00  0.0000000000000D+00
264  2.6300000000000D+00  0.0000000000000D+00  0.0000000000000D+00
265  2.6400000000000D+00  0.0000000000000D+00  0.0000000000000D+00
266  2.6500000000000D+00  0.0000000000000D+00  0.0000000000000D+00
267  2.6600000000000D+00  0.0000000000000D+00  0.0000000000000D+00
268  2.6700000000000D+00  0.0000000000000D+00  0.0000000000000D+00
269  2.6800000000000D+00  0.0000000000000D+00  0.0000000000000D+00
270  2.6900000000000D+00  0.0000000000000D+00  0.0000000000000D+00
271  2.7000000000000D+00  0.0000000000000D+00  0.0000000000000D+00
272  2.7100000000000D+00  0.0000000000000D+00  0.0000000000000D+00
273  2.7200000000000D+00  0.0000000000000D+00  0.0000000000000D+00
274  2.7300000000000D+00  0.0000000000000D+00  0.0000000000000D+00
275  2.7400000000000D+00  0.0000000000000D+00  0.0000000000000D+00
276  2.7500000000000D+00  0.0000000000000D+00  0.0000000000000D+00
277  2.7600000000000D+00  0.0000000000000D+00  0.0000000000000D+00
278  2.7700000000000D+00  0.0000000000000D+00  0.0000000000000D+00
279  2.7800000000000D+00  0.0000000000000D+00  0.0000000000000D+00
280  2.7900000000000D+00  0.0000000000000D+00  0.0000000000000D+00
281  2.8000000000000D+00  0.0000000000000D+00  0.0000000000000D+00
282  2.8100000000000D+00  0.0000000000000D+00  0.0000000000000D+00
283  2.8200000000000D+00  0.0000000000000D+00  0.0000000000000D+00
284  2.8300000000000D+00  0.0000000000000D+00  0.0000000000000D+00
285  2.8400000000000D+00  0.0000000000000D+00  0.0000000000000D+00
286  2.8500000000000D+00  0.0000000000000D+00  0.0000000000000D+00
287  2.8600000000000D+00  0.0000000000000D+00  0.0000000000000D+00
288  2.8700000000000D+00  0.0000000000000D+00  0.0000000000000D+00
289  2.8800000000000D+00  0.0000000000000D+00  0.0000000000000D+00
290  2.8900000000000D+00  0.0000000000000D+00  0.0000000000000D+00
291  2.9000000000000D+00  0.0000000000000D+00  0.0000000000000D+00
292  2.9100000000000D+00  0.0000000000000D+00  0.0000000000000D+00
293  2.9200000000000D+00  0.0000000000000D+00  0.0000000000000D+00
294  2.9300000000000D+00  0.0000000000000D+00  0.0000000000000D+00
295  2.9400000000000D+00  0.0000000000000D+00  0.0000000000000D+00
296  2.9500000000000D+00  0.0000000000000D+00  0.0000000000000D+00
297  2.9600000000000D+00  0.0000000000000D+00  0.0000000000000D+00
298  2.9700000000000D+00  0.0000000000000D+00  0.0000000000000D+00
299  2.9800000000000D+00  0.0000000000000D+00  0.0000000000000D+00
300  2.9900000000000D+00  0.0000000000000D+00  0.0000000000000D+00
301  3.0000000000000D+00  0.0000000000000D+00  0.0000000000000D+00
302  3.0100000000000D+00  0.0000000000000D+00  0.0000000000000D+00
303  3.0200000000000D+00  0.0000000000000D+00  0.0000000000000D+00
304  3.0300000000000D+00  0.0000000000000D+00  0.0000000000000D+00
305  3.0400000000000D+00  0.0000000000000D+00  0.0000000000000D+00
306  3.0500000000000D+00  0.0000000000000D+00  0.0000000000000D+00
307  3.0600000000000D+00  0.0000000000000D+00  0.0000000000000D+00
308  3.0700000000000D+00  0.0000000000000D+00  0.0000000000000D+00
309  3.0800000000000D+00  0.0000000000000D+00  0.0000000000000D+00
310  3.0900000000000D+00  0.0000000000000D+00  0.0000000000000D+00
311  3.1000000000000D+00  0.0000000000000D+00  0.0000000000000D+00
312  3.1100000000000D+00  0.0000000000000D+00  0.0000000000000D+00
313  3.1200000000000D+00  0.0000000000000D+00  0.0000000000000D+00
314  3.1300000000000D+00  0.0000000000000D+00  0.0000000000000D+00
315  3.1400000000000D+00  0.0000000000000D+00  0.0000000000000D+00
316  3.1500000000000D+00  0.0000000000000D+00  0.0000000000000D+00
317  3.1600000000000D+00  0.0000000000000D+00  0.0000000000000D+00
318  3.1700000000000D+00  0.0000000000000D+00  0.0000000000000D+00
319  3.1800000000000D+00  0.0000000000000D+00  0.0000000000000D+00
320  3.1900000000000D+00  0.0000000000000D+00  0.0000000000000D+00
321  3.2000000000000D+00  0.0000000000000D+00  0.0000000000000D+00
322  3.2100000000000D+00  0.0000000000000D+00  0.0000000000000D+00
323  3.2200000000000D+00  0.0000000000000D+00  0.0000000000000D+00
324  3.2300000000000D+00  0.0000000000000D+00  0.0000000000000D+00
325  3.2400000000000D+00  0.0000000000000D+00  0.0000000000000D+00
326  3.2500000000000D+00  0.0000000000000D+00  0.0000000000000D+00
327  3.2600000000000D+00  0.0000000000000D+00  0.0000000000000D+00
328  3.2700000000000D+00  0.0000000000000D+00  0.0000000000000D+00
329  3.2800000000000D+00  0.0000000000000D+00  0.0000000000000D+00
330  3.2900000000000D+00  0.0000000000000D+00  0.0000000000000D+00
331  3.3000000000000D+00  0.0000000000000D+00  0.0000000000000D+00
332  3.3100000000000D+00  0.0000000000000D+00  0.0000000000000D+00
333  3.3200000000000D+00  0.0000000000000D+00  0.0000000000000D+00
334  3.3300000000000D+00  0.0000000000000D+00  0.0000000000000D+00
335  3.3400000000000D+00  0.0000000000000D+00  0.0000000000000D+00
336  3.3500000000000D+00  0.0000000000000D+00  0.0000000000000D+00
337  3.3600000000000D+00  0.0000000000000D+00  0.0000000000000D+00
338  3.3700000000000D+00  0.0000000000000D+00  0.0000000000000D+00
339  3.3800000000000D+00  0.0000000000000D+00  0.0000000000000D+00
340  3.3900000000000D+00  0.0000000000000D+00  0.0000000000000D+00
341  3.4000000000000D+00  0.0000000000000D+00  0.0000000000000D+00
342  3.4100000000000D+00  0.0000000000000D+00  0.0000000000000D+00
343  3.4200000000000D+00  0.0000000000000D+00  0.0000000000000D+00
344  3.4300000000000D+00  0.0000000000000D+00  0.0000000000000D+00
345  3.4400000000000D+00  0.0000000000000D+00  0.0000000000000D+00
346  3.4500000000000D+00  0.0000000000000D+00  0.0000000000000D+00
347  3.4600000000000D+00  0.0000000000000D+00  0.0000000000000D+00
348  3.4700000000000D+00  0.0000000000000D+00  0.0000000000000D+00
349  3.4800000000000D+00  0.0000000000000D+00  0.0000000000000D+00
350  3.4900000000000D+00  0.0000000000000D+00  0.0000000000000D+00
351  3.5000000000000D+00  0.0000000000000D+00  0.0000000000000D+00
352  3.5100000000000D+00  0.0000000000000D+00  0.0000000000000D+00
353  3.5200000000000D+00  0.0000000000000D+00  0.0000000000000D+00
354  3.5300000000000D+00  0.0000000000000D+00  0.0000000000000D+00
355  3.5400000000000D+00  0.0000000000000D+00  0.0000000000000D+00
356  3.5500000000000D+00  0.0000000000000D+00  0.0000000000000D+00
357  3.5600000000000D+00  0.0000000000000D+00  0.0000000000000D+00
358  3.5700000000000D+00  0.0000000000000D+00  0.0000000000000D+00
359  3.5800000000000D+00  0.0000000000000D+00  0.0000000000000D+00
360  3.5900000000000D+00  0.0000000000000D+00  0.0000000000000D+00
361  3.6000000000000D+00  0.0000000000000D+00  0.0000000000000D+00
362  3.6100000000000D+00  0.0000000000000D+00  0.0000000000000D+00
363  3.6200000000000D+00  0.0000000000000D+00  0.0000000000000D+00
364  3.6300000000000D+00  0.0000000000000D+00  0.0000000000000D+00
365  3.6400000000000D+00  0.0000000000000D+00  0.0000000000000D+00
366  3.6500000000000D+00  0.0000000000000D+00  0.0000000000000D+00
367  3.6600000000000D+00  0.0000000000000D+00  0.0000000000000D+00
368  3.6700000000000D+00  0.0000000000000D+00  0.0000000000000D+00
369  3.6800000000000D+00  0.0000000000000D+00  0.0000000000000D+00
370  3.6900000000000D+00  0.0000000000000D+00  0.0000000000000D+00
371  3.7000000000000D+00  0.0000000000000D+00  0.0000000000000D+00
372  3.7100000000000D+00  0.0000000000000D+00  0.0000000000000D+00
373  3.7200000000000D+00  0.0000000000000D+00  0.0000000000000D+00
374  3.7300000000000D+00  0.0000000000000D+00  0.0000000000000D+00
375  3.7400000000000D+00  0.0000000000000D+00  0.0000000000000D+00
376  3.7500000000000D+00  0.0000000000000D+00  0.0000000000000D+00
377  3.7600000000000D+00  0.0000000000000D+00  0.0000000000000D+00
378  3.7700000000000D+00  0.0000000000000D+00  0.0000000000000D+00
379  3.7800000000000D+00  0.0000000000000D+00  0.0000000000000D+00
380  3.7900000000000D+00  0.0000000000000D+00  0.0000000000000D+00
381  3.8000000000000D+00  0.0000000000000D+00  0.0000000000000D+00
382  3.8100000000000D+00  0.0000000000000D+00  0.0000000000000D+00
383  3.8200000000000D+00  0.0000000000000D+00  0.0000000000000D+00
384  3.8300000000000D+00  0.0000000000000D+00  0.0000000000000D+00
385  3.8400000000000D+00  0.0000000000000D+00  0.0000000000000D+00
386  3.8500000000000D+00  0.0000000000000D+00  0.0000000000000D+00
387  3.8600000000000D+00  0.0000000000000D+00  0.0000000000000D+00
388  3.8700000000000D+00  0.0000000000000D+00  0.0000000000000D+00
389  3.8800000000000D+00  0.0000000000000D+00  0.0000000000000D+00
390  3.8900000000000D+00  0.0000000000000D+00  0.0000000000000D+00
391  3.9000000000000D+00  0.0000000000000D+00  0.0000000000000D+00
392  3.9100000000000D+00  0.0000000000000D+00  0.0000000000000D+00
393  3.9200000000000D+00  0.0000000000000D+00  0.0000000000000D+00
394  3.9300000000000D+00  0.0000000000000D+00  0.0000000000000D+00
395  3.9400000000000D+00  0.0000000000000D+00  0.0000000000000D+00
396  3.9500000000000D+00  0.0000000000000D+00  0.0000000000000D+00
397  3.9600000000000D+00  0.0000000000000D+00  0.0000000000000D+00
398  3.9700000000000D+00  0.0000000000000D+00  0.0000000000000D+00
399  3.9800000000000D+00  0.0000000000000D+00  0.0000000000000D+00
400  3.9900000000000D+00  0.0000000000000D+00  0.0000000000000D+00
401  4.0000000000000D+00  0.0000000000000D+00  0.0000000000000D+00
402  4.0100000000000D+00  0.0000000000000D+00  0.0000000000000D+00
403  4.0200000000000D+00  0.0000000000000D+00  0.0000000000000D+00
404  4.0300000000000D+00  0.0000000000000D+00  0.0000000000000D+00
405  4.0400000000000D+00  0.0000000000000D+00  0.0000000000000D+00
406  4.0500000000000D+00  0.0000000000000D+00  0.0000000000000D+00
407  4.0600000000000D+00  0.0000000000000D+00  0.0000000000000D+00
408  4.0700000000000D+00  0.0000000000000D+00  0.0000000000000D+00
409  4.0800000000000D+00  0.0000000000000D+00  0.0000000000000D+00
410  4.0900000000000D+00  0.0000000000000D+00  0.0000000000000D+00
411  4.1000000000000D+00  0.0000000000000D+00  0.0000000000000D+00
412  4.1100000000000D+00  0.0000000000000D+00  0.0000000000000D+00
413  4.1200000000000D+00  0.0000000000000D+00  0.0000000000000D+00
414  4.1300000000000D+00  0.0000000000000D+00  0.0000000000000D+00
415  4.1400000000000D+00  0.0000000000000D+00  0.0000000000000D+00
416  4.1500000000000D+00  0.0000000000000D+00  0.0000000000000D+00
417  4.1600000000000D+00  0.0000000000000D+00  0.0000000000000D+00
418  4.1700000000000D+00  0.0000000000000D+00  0.0000000000000D+00
419  4.1800000000000D+00  0.0000000000000D+00  0.0000000000000D+00
420  4.1900000000000D+00  0.0000000000000D+00  0.0000000000000D+00
421  4.2000000000000D+00  0.0000000000000D+00  0.0000000000000D+00
422  4.2100000000000D+00  0.0000000000000D+00  0.0000000000000D+00
423  4.2200000000000D+00  0.0000000000000D+00  0.0000000000000D+00
424  4.2300000000000D+00  0.0000000000000D+00  0.0000000000000D+00
425  4.2400000000000D+00  0.0000000000000D+00  0.0000000000000D+00
426  4.2500000000000D+00  0.0000000000000D+00  0.0000000000000D+00
427  4.2600000000000D+00  0.0000000000000D+00  0.0000000000000D+00
428  4.2700000000000D+00  0.0000000000000D+00  0.0000000000000D+00
429  4.2800000000000D+00  0.0000000000000D+00  0.0000000000000D+00
430  4.2900000000000D+00  0.0000000000000D+00  0.0000000000000D+00
431  4.3000000000000D+00  0.0000000000000D+00  0.0000000000000D+00
432  4.3100000000000D+00  0.0000000000000D+00  0.0000000000000D+00
433  4.3200000000000D+00  0.0000000000000D+00  0.0000000000000D+00
434  4.3300000000000D+00  0.0000000000000D+00  0.0000000000000D+00
435  4.3400000000000D+00  0.0000000000000D+00  0.0000000000000D+00
436  4.3500000000000D+00  0.0000000000000D+00  0.0000000000000D+00
437  4.3600000000000D+00  0.0000000000000D+00  0.0000000000000D+00
438  4.3700000000000D+00  0.0000000000000D+00  0.0000000000000D+00
439  4.3800000000000D+00  0.0000000000000D+00  0.0000000000000D+00
440  4.3900000000000D+00  0.0000000000000D+00  0.0000000000000D+00
441  4.4000000000000D+00  0.0000000000000D+00  0.0000000000000D+00
442  4.4100000000000D+00  0.0000000000000D+00  0.0000000000000D+00
443  4.4200000000000D+00  0.0000000000000D+00  0.0000000000000D+00
444  4.4300000000000D+00  0.0000000000000D+00  0.0000000000000D+00