Li    ONCVPSP-3.2.3.1  r_core=   1.20595   1.00838
3.0000      3.0000      170503    zatom,zion,pspd
8      11   1     4   400     0    pspcod,pspxc,lmax,lloc,mmax,r2well
3.99000000  0.00000000  0.00000000    rchrg fchrg qchrg
2     2     0     0     0    nproj
1     1           extension_switch
0                        -5.3580050466625D+00 -1.5100700885790D+00
1  0.0000000000000D+00 -4.0924247324270D-09  1.2717502051451D-08
2  1.0000000000000D-02  1.1505343724814D-01 -5.1759255471312D-02
3  2.0000000000000D-02  2.2959487577033D-01 -1.0284589076359D-01
4  3.0000000000000D-02  3.4311638829843D-01 -1.5259641580680D-01
5  4.0000000000000D-02  4.5511813341130D-01 -2.0036543620919D-01
6  5.0000000000000D-02  5.6511225686438D-01 -2.4553429309976D-01
7  6.0000000000000D-02  6.7262662600229D-01 -2.8751922269138D-01
8  7.0000000000000D-02  7.7720834654238D-01 -3.2577889079078D-01
9  8.0000000000000D-02  8.7842701510939D-01 -3.5982117019871D-01
10  9.0000000000000D-02  9.7587766585716D-01 -3.8920904433448D-01
11  1.0000000000000D-01  1.0691833752297D+00 -4.1356553816022D-01
12  1.1000000000000D-01  1.1579974952745D+00 -4.3257759720143D-01
13  1.2000000000000D-01  1.2420054927958D+00 -4.4599885674791D-01
14  1.3000000000000D-01  1.3209263788791D+00 -4.5365126572768D-01
15  1.4000000000000D-01  1.3945137207914D+00 -4.5542555280575D-01
16  1.5000000000000D-01  1.4625562357991D+00 -4.5128054548681D-01
17  1.6000000000000D-01  1.5248779739043D+00 -4.4124137590802D-01
18  1.7000000000000D-01  1.5813381037208D+00 -4.2539662911493D-01
19  1.8000000000000D-01  1.6318303225499D+00 -4.0389451045526D-01
20  1.9000000000000D-01  1.6762819180328D+00 -3.7693812786423D-01
21  2.0000000000000D-01  1.7146525144235D+00 -3.4478000184881D-01
22  2.1000000000000D-01  1.7469325414319D+00 -3.0771593054775D-01
23  2.2000000000000D-01  1.7731414676276D+00 -2.6607834904414D-01
24  2.3000000000000D-01  1.7933258435019D+00 -2.2022933088797D-01
25  2.4000000000000D-01  1.8075572013864D+00 -1.7055338536361D-01
26  2.5000000000000D-01  1.8159298604956D+00 -1.1745020629555D-01
27  2.6000000000000D-01  1.8185586853741D+00 -6.1327527076171D-02
28  2.7000000000000D-01  1.8155768449970D+00 -2.5942321509872D-03
29  2.8000000000000D-01  1.8071336177211D+00  5.8346132498056D-02
30  2.9000000000000D-01  1.7933922842701D+00  1.2110131810148D-01
31  3.0000000000000D-01  1.7745281470262D+00  1.8529568293101D-01
32  3.1000000000000D-01  1.7507267091849D+00  2.5057475122385D-01
33  3.2000000000000D-01  1.7221820419258D+00  3.1660893758696D-01
34  3.3000000000000D-01  1.6890953617661D+00  3.8309637343858D-01
35  3.4000000000000D-01  1.6516738338567D+00  4.4976479357921D-01
36  3.5000000000000D-01  1.6101296102730D+00  5.1637246341607D-01
37  3.6000000000000D-01  1.5646791055163D+00  5.8270815019836D-01
38  3.7000000000000D-01  1.5155425046250D+00  6.4859016435777D-01
39  3.8000000000000D-01  1.4629434926493D+00  7.1386451918419D-01
40  3.9000000000000D-01  1.4071091879346D+00  7.7840227811272D-01
41  4.0000000000000D-01  1.3482702558177D+00  8.4209617838067D-01
42  4.1000000000000D-01  1.2866611741144D+00  9.0485663729727D-01
43  4.2000000000000D-01  1.2225206172831D+00  9.6660726245354D-01
44  4.3000000000000D-01  1.1560919224988D+00  1.0272799995379D+00
45  4.4000000000000D-01  1.0876235981499D+00  1.0868100607246D+00
46  4.5000000000000D-01  1.0173698335523D+00  1.1451307826380D+00
47  4.6000000000000D-01  9.4559096799811D-01  1.2021685655144D+00
48  4.7000000000000D-01  8.7255387766132D-01  1.2578380442925D+00
49  4.8000000000000D-01  7.9853224034824D-01  1.3120376379651D+00
50  4.9000000000000D-01  7.2380664060569D-01  1.3646456156811D+00
51  5.0000000000000D-01  6.4866448121896D-01  1.4155168069454D+00
52  5.1000000000000D-01  5.7339967158809D-01  1.4644800690417D+00
53  5.2000000000000D-01  4.9831206876526D-01  1.5113366077853D+00
54  5.3000000000000D-01  4.2370665296046D-01  1.5558592282570D+00
55  5.4000000000000D-01  3.4989242594466D-01  1.5977925706787D+00
56  5.5000000000000D-01  2.7718102786772D-01  1.6368543635008D+00
57  5.6000000000000D-01  2.0588507537850D-01  1.6727377016468D+00
58  5.7000000000000D-01  1.3631623146690D-01  1.7051143331015D+00
59  5.8000000000000D-01  6.8783024918287D-02  1.7336389123373D+00
60  5.9000000000000D-01  3.5884445637557D-03  1.7579541548243D+00
61  6.0000000000000D-01 -5.8972659597652D-02  1.7776968037836D+00
62  6.1000000000000D-01 -1.1861632994401D-01  1.7925042987536D+00
63  6.2000000000000D-01 -1.7507236532550D-01  1.8020220161725D+00
64  6.3000000000000D-01 -2.2808724672587D-01  1.8059109352199D+00
65  6.4000000000000D-01 -2.7742707164026D-01  1.8038555683087D+00
66  6.5000000000000D-01 -3.2288044148562D-01  1.7955719849702D+00
67  6.6000000000000D-01 -3.6426124469393D-01  1.7808157508771D+00
68  6.7000000000000D-01 -4.0141127767532D-01  1.7593896005451D+00
69  6.8000000000000D-01 -4.3420264662250D-01  1.7311506629644D+00
70  6.9000000000000D-01 -4.6253989517096D-01  1.6960170641261D+00
71  7.0000000000000D-01 -4.8636180622002D-01  1.6539737390770D+00
72  7.1000000000000D-01 -5.0564283067288D-01  1.6050772985344D+00
73  7.2000000000000D-01 -5.2039410148583D-01  1.5494598112482D+00
74  7.3000000000000D-01 -5.3066399803456D-01  1.4873313826645D+00
75  7.4000000000000D-01 -5.3653823335442D-01  1.4189814328235D+00
76  7.5000000000000D-01 -5.3813944513782D-01  1.3447786013645D+00
77  7.6000000000000D-01 -5.3562628029613D-01  1.2651692344562D+00
78  7.7000000000000D-01 -5.2919197226695D-01  1.1806744369532D+00
79  7.8000000000000D-01 -5.1906241989880D-01  1.0918857025810D+00
80  7.9000000000000D-01 -5.0549378641751D-01  9.9945916465986D-01
81  8.0000000000000D-01 -4.8876964654776D-01  9.0410853941531D-01
82  8.1000000000000D-01 -4.6919771908801D-01  8.0659686252995D-01
83  8.2000000000000D-01 -4.4710623093707D-01  7.0772714669996D-01
84  8.3000000000000D-01 -4.2283996655950D-01  6.0833211298988D-01
85  8.4000000000000D-01 -3.9675606398045D-01  5.0926317117569D-01
86  8.5000000000000D-01 -3.6921962446232D-01  4.1137884353586D-01
87  8.6000000000000D-01 -3.4059920789657D-01  3.1553284225108D-01
88  8.7000000000000D-01 -3.1126228952919D-01  2.2256202233669D-01
89  8.8000000000000D-01 -2.8157075616587D-01  1.3327444086776D-01
90  8.9000000000000D-01 -2.5187652036282D-01  4.8437754503106D-02
91  9.0000000000000D-01 -2.2251731207758D-01 -3.1231884276680D-02
92  9.1000000000000D-01 -1.9381283191217D-01 -1.0507978211289D-01
93  9.2000000000000D-01 -1.6606055392175D-01 -1.7252439293171D-01
94  9.3000000000000D-01 -1.3953101911050D-01 -2.3307120903887D-01
95  9.4000000000000D-01 -1.1446398193390D-01 -2.8632340040779D-01
96  9.5000000000000D-01 -9.1065871259340D-02 -3.3198766321179D-01
97  9.6000000000000D-01 -6.9507732744729D-02 -3.6987874779239D-01
98  9.7000000000000D-01 -4.9923779940556D-02 -3.9992217664946D-01
99  9.8000000000000D-01 -3.2410561072872D-02 -4.2215515173610D-01
100  9.9000000000000D-01 -1.7026754018060D-02 -4.3672561316949D-01
101  1.0000000000000D+00 -3.7935915534650D-03 -4.4388944312336D-01
102  1.0100000000000D+00  7.3040926522575D-03 -4.4400584430419D-01
103  1.0200000000000D+00  1.6316217936811D-02 -4.3753095622243D-01
104  1.0300000000000D+00  2.3325241909687D-02 -4.2500980560681D-01
105  1.0400000000000D+00  2.8443418922326D-02 -4.0706671898769D-01
106  1.0500000000000D+00  3.1809582787281D-02 -3.8439435367184D-01
107  1.0600000000000D+00  3.3585514170012D-02 -3.5774153209189D-01
108  1.0700000000000D+00  3.3951960123349D-02 -3.2790008615417D-01
109  1.0800000000000D+00  3.3104379895333D-02 -2.9569093868269D-01
110  1.0900000000000D+00  3.1248496105714D-02 -2.6194966434381D-01
111  1.1000000000000D+00  2.8595733896333D-02 -2.2751178326010D-01
112  1.1100000000000D+00  2.5358633081697D-02 -1.9319804801963D-01
113  1.1200000000000D+00  2.1746318522138D-02 -1.5979998543347D-01
114  1.1300000000000D+00  1.7960112554015D-02 -1.2806595017875D-01
115  1.1400000000000D+00  1.4189371515753D-02 -9.8687941979993D-02
116  1.1500000000000D+00  1.0607623498147D-02 -7.2289422924722D-02
117  1.1600000000000D+00  7.3690791616716D-03 -4.9414355274720D-02
118  1.1700000000000D+00  4.6070901710339D-03 -3.0527643668821D-02
119  1.1800000000000D+00  2.4196696699862D-03 -1.5928135860596D-02
120  1.1900000000000D+00  9.0006082103901D-04 -5.9587839156943D-03
121  1.2000000000000D+00  1.3209418033952D-04 -9.8458622066901D-04
122  1.2100000000000D+00 -5.9773112545966D-05  2.9479831118589D-04
123  1.2200000000000D+00 -3.0483792153807D-06  1.6747511385380D-05
124  1.2300000000000D+00  1.2433987234098D-05 -6.9984634742930D-05
125  1.2400000000000D+00 -2.6501187079403D-06  1.4490340938447D-05
126  1.2500000000000D+00  2.5430974635148D-09 -6.9258729810709D-09
127  1.2600000000000D+00  7.5229597641880D-08 -2.0488032612192D-07
128  1.2700000000000D+00  0.0000000000000D+00  0.0000000000000D+00
129  1.2800000000000D+00  0.0000000000000D+00  0.0000000000000D+00
130  1.2900000000000D+00  0.0000000000000D+00  0.0000000000000D+00
131  1.3000000000000D+00  0.0000000000000D+00  0.0000000000000D+00
132  1.3100000000000D+00  0.0000000000000D+00  0.0000000000000D+00
133  1.3200000000000D+00  0.0000000000000D+00  0.0000000000000D+00
134  1.3300000000000D+00  0.0000000000000D+00  0.0000000000000D+00
135  1.3400000000000D+00  0.0000000000000D+00  0.0000000000000D+00
136  1.3500000000000D+00  0.0000000000000D+00  0.0000000000000D+00
137  1.3600000000000D+00  0.0000000000000D+00  0.0000000000000D+00
138  1.3700000000000D+00  0.0000000000000D+00  0.0000000000000D+00
139  1.3800000000000D+00  0.0000000000000D+00  0.0000000000000D+00
140  1.3900000000000D+00  0.0000000000000D+00  0.0000000000000D+00
141  1.4000000000000D+00  0.0000000000000D+00  0.0000000000000D+00
142  1.4100000000000D+00  0.0000000000000D+00  0.0000000000000D+00
143  1.4200000000000D+00  0.0000000000000D+00  0.0000000000000D+00
144  1.4300000000000D+00  0.0000000000000D+00  0.0000000000000D+00
145  1.4400000000000D+00  0.0000000000000D+00  0.0000000000000D+00
146  1.4500000000000D+00  0.0000000000000D+00  0.0000000000000D+00
147  1.4600000000000D+00  0.0000000000000D+00  0.0000000000000D+00
148  1.4700000000000D+00  0.0000000000000D+00  0.0000000000000D+00
149  1.4800000000000D+00  0.0000000000000D+00  0.0000000000000D+00
150  1.4900000000000D+00  0.0000000000000D+00  0.0000000000000D+00
151  1.5000000000000D+00  0.0000000000000D+00  0.0000000000000D+00
152  1.5100000000000D+00  0.0000000000000D+00  0.0000000000000D+00
153  1.5200000000000D+00  0.0000000000000D+00  0.0000000000000D+00
154  1.5300000000000D+00  0.0000000000000D+00  0.0000000000000D+00
155  1.5400000000000D+00  0.0000000000000D+00  0.0000000000000D+00
156  1.5500000000000D+00  0.0000000000000D+00  0.0000000000000D+00
157  1.5600000000000D+00  0.0000000000000D+00  0.0000000000000D+00
158  1.5700000000000D+00  0.0000000000000D+00  0.0000000000000D+00
159  1.5800000000000D+00  0.0000000000000D+00  0.0000000000000D+00
160  1.5900000000000D+00  0.0000000000000D+00  0.0000000000000D+00
161  1.6000000000000D+00  0.0000000000000D+00  0.0000000000000D+00
162  1.6100000000000D+00  0.0000000000000D+00  0.0000000000000D+00
163  1.6200000000000D+00  0.0000000000000D+00  0.0000000000000D+00
164  1.6300000000000D+00  0.0000000000000D+00  0.0000000000000D+00
165  1.6400000000000D+00  0.0000000000000D+00  0.0000000000000D+00
166  1.6500000000000D+00  0.0000000000000D+00  0.0000000000000D+00
167  1.6600000000000D+00  0.0000000000000D+00  0.0000000000000D+00
168  1.6700000000000D+00  0.0000000000000D+00  0.0000000000000D+00
169  1.6800000000000D+00  0.0000000000000D+00  0.0000000000000D+00
170  1.6900000000000D+00  0.0000000000000D+00  0.0000000000000D+00
171  1.7000000000000D+00  0.0000000000000D+00  0.0000000000000D+00
172  1.7100000000000D+00  0.0000000000000D+00  0.0000000000000D+00
173  1.7200000000000D+00  0.0000000000000D+00  0.0000000000000D+00
174  1.7300000000000D+00  0.0000000000000D+00  0.0000000000000D+00
175  1.7400000000000D+00  0.0000000000000D+00  0.0000000000000D+00
176  1.7500000000000D+00  0.0000000000000D+00  0.0000000000000D+00
177  1.7600000000000D+00  0.0000000000000D+00  0.0000000000000D+00
178  1.7700000000000D+00  0.0000000000000D+00  0.0000000000000D+00
179  1.7800000000000D+00  0.0000000000000D+00  0.0000000000000D+00
180  1.7900000000000D+00  0.0000000000000D+00  0.0000000000000D+00
181  1.8000000000000D+00  0.0000000000000D+00  0.0000000000000D+00
182  1.8100000000000D+00  0.0000000000000D+00  0.0000000000000D+00
183  1.8200000000000D+00  0.0000000000000D+00  0.0000000000000D+00
184  1.8300000000000D+00  0.0000000000000D+00  0.0000000000000D+00
185  1.8400000000000D+00  0.0000000000000D+00  0.0000000000000D+00
186  1.8500000000000D+00  0.0000000000000D+00  0.0000000000000D+00
187  1.8600000000000D+00  0.0000000000000D+00  0.0000000000000D+00
188  1.8700000000000D+00  0.0000000000000D+00  0.0000000000000D+00
189  1.8800000000000D+00  0.0000000000000D+00  0.0000000000000D+00
190  1.8900000000000D+00  0.0000000000000D+00  0.0000000000000D+00
191  1.9000000000000D+00  0.0000000000000D+00  0.0000000000000D+00
192  1.9100000000000D+00  0.0000000000000D+00  0.0000000000000D+00
193  1.9200000000000D+00  0.0000000000000D+00  0.0000000000000D+00
194  1.9300000000000D+00  0.0000000000000D+00  0.0000000000000D+00
195  1.9400000000000D+00  0.0000000000000D+00  0.0000000000000D+00
196  1.9500000000000D+00  0.0000000000000D+00  0.0000000000000D+00
197  1.9600000000000D+00  0.0000000000000D+00  0.0000000000000D+00
198  1.9700000000000D+00  0.0000000000000D+00  0.0000000000000D+00
199  1.9800000000000D+00  0.0000000000000D+00  0.0000000000000D+00
200  1.9900000000000D+00  0.0000000000000D+00  0.0000000000000D+00
201  2.0000000000000D+00  0.0000000000000D+00  0.0000000000000D+00
202  2.0100000000000D+00  0.0000000000000D+00  0.0000000000000D+00
203  2.0200000000000D+00  0.0000000000000D+00  0.0000000000000D+00
204  2.0300000000000D+00  0.0000000000000D+00  0.0000000000000D+00
205  2.0400000000000D+00  0.0000000000000D+00  0.0000000000000D+00
206  2.0500000000000D+00  0.0000000000000D+00  0.0000000000000D+00
207  2.0600000000000D+00  0.0000000000000D+00  0.0000000000000D+00
208  2.0700000000000D+00  0.0000000000000D+00  0.0000000000000D+00
209  2.0800000000000D+00  0.0000000000000D+00  0.0000000000000D+00
210  2.0900000000000D+00  0.0000000000000D+00  0.0000000000000D+00
211  2.1000000000000D+00  0.0000000000000D+00  0.0000000000000D+00
212  2.1100000000000D+00  0.0000000000000D+00  0.0000000000000D+00
213  2.1200000000000D+00  0.0000000000000D+00  0.0000000000000D+00
214  2.1300000000000D+00  0.0000000000000D+00  0.0000000000000D+00
215  2.1400000000000D+00  0.0000000000000D+00  0.0000000000000D+00
216  2.1500000000000D+00  0.0000000000000D+00  0.0000000000000D+00
217  2.1600000000000D+00  0.0000000000000D+00  0.0000000000000D+00
218  2.1700000000000D+00  0.0000000000000D+00  0.0000000000000D+00
219  2.1800000000000D+00  0.0000000000000D+00  0.0000000000000D+00
220  2.1900000000000D+00  0.0000000000000D+00  0.0000000000000D+00
221  2.2000000000000D+00  0.0000000000000D+00  0.0000000000000D+00
222  2.2100000000000D+00  0.0000000000000D+00  0.0000000000000D+00
223  2.2200000000000D+00  0.0000000000000D+00  0.0000000000000D+00
224  2.2300000000000D+00  0.0000000000000D+00  0.0000000000000D+00
225  2.2400000000000D+00  0.0000000000000D+00  0.0000000000000D+00
226  2.2500000000000D+00  0.0000000000000D+00  0.0000000000000D+00
227  2.2600000000000D+00  0.0000000000000D+00  0.0000000000000D+00
228  2.2700000000000D+00  0.0000000000000D+00  0.0000000000000D+00
229  2.2800000000000D+00  0.0000000000000D+00  0.0000000000000D+00
230  2.2900000000000D+00  0.0000000000000D+00  0.0000000000000D+00
231  2.3000000000000D+00  0.0000000000000D+00  0.0000000000000D+00
232  2.3100000000000D+00  0.0000000000000D+00  0.0000000000000D+00
233  2.3200000000000D+00  0.0000000000000D+00  0.0000000000000D+00
234  2.3300000000000D+00  0.0000000000000D+00  0.0000000000000D+00
235  2.3400000000000D+00  0.0000000000000D+00  0.0000000000000D+00
236  2.3500000000000D+00  0.0000000000000D+00  0.0000000000000D+00
237  2.3600000000000D+00  0.0000000000000D+00  0.0000000000000D+00
238  2.3700000000000D+00  0.0000000000000D+00  0.0000000000000D+00
239  2.3800000000000D+00  0.0000000000000D+00  0.0000000000000D+00
240  2.3900000000000D+00  0.0000000000000D+00  0.0000000000000D+00
241  2.4000000000000D+00  0.0000000000000D+00  0.0000000000000D+00
242  2.4100000000000D+00  0.0000000000000D+00  0.0000000000000D+00
243  2.4200000000000D+00  0.0000000000000D+00  0.0000000000000D+00
244  2.4300000000000D+00  0.0000000000000D+00  0.0000000000000D+00
245  2.4400000000000D+00  0.0000000000000D+00  0.0000000000000D+00
246  2.4500000000000D+00  0.0000000000000D+00  0.0000000000000D+00
247  2.4600000000000D+00  0.0000000000000D+00  0.0000000000000D+00
248  2.4700000000000D+00  0.0000000000000D+00  0.0000000000000D+00
249  2.4800000000000D+00  0.0000000000000D+00  0.0000000000000D+00
250  2.4900000000000D+00  0.0000000000000D+00  0.0000000000000D+00
251  2.5000000000000D+00  0.0000000000000D+00  0.0000000000000D+00
252  2.5100000000000D+00  0.0000000000000D+00  0.0000000000000D+00
253  2.5200000000000D+00  0.0000000000000D+00  0.0000000000000D+00
254  2.5300000000000D+00  0.0000000000000D+00  0.0000000000000D+00
255  2.5400000000000D+00  0.0000000000000D+00  0.0000000000000D+00
256  2.5500000000000D+00  0.0000000000000D+00  0.0000000000000D+00
257  2.5600000000000D+00  0.0000000000000D+00  0.0000000000000D+00
258  2.5700000000000D+00  0.0000000000000D+00  0.0000000000000D+00
259  2.5800000000000D+00  0.0000000000000D+00  0.0000000000000D+00
260  2.5900000000000D+00  0.0000000000000D+00  0.0000000000000D+00
261  2.6000000000000D+00  0.0000000000000D+00  0.0000000000000D+00
262  2.6100000000000D+00  0.0000000000000D+00  0.0000000000000D+00
263  2.6200000000000D+00  0.0000000000000D+00  0.0000000000000D+00
264  2.6300000000000D+00  0.0000000000000D+00  0.0000000000000D+00
265  2.6400000000000D+00  0.0000000000000D+00  0.0000000000000D+00
266  2.6500000000000D+00  0.0000000000000D+00  0.0000000000000D+00
267  2.6600000000000D+00  0.0000000000000D+00  0.0000000000000D+00
268  2.6700000000000D+00  0.0000000000000D+00  0.0000000000000D+00
269  2.6800000000000D+00  0.0000000000000D+00  0.0000000000000D+00
270  2.6900000000000D+00  0.0000000000000D+00  0.0000000000000D+00
271  2.7000000000000D+00  0.0000000000000D+00  0.0000000000000D+00
272  2.7100000000000D+00  0.0000000000000D+00  0.0000000000000D+00
273  2.7200000000000D+00  0.0000000000000D+00  0.0000000000000D+00
274  2.7300000000000D+00  0.0000000000000D+00  0.0000000000000D+00
275  2.7400000000000D+00  0.0000000000000D+00  0.0000000000000D+00
276  2.7500000000000D+00  0.0000000000000D+00  0.0000000000000D+00
277  2.7600000000000D+00  0.0000000000000D+00  0.0000000000000D+00
278  2.7700000000000D+00  0.0000000000000D+00  0.0000000000000D+00
279  2.7800000000000D+00  0.0000000000000D+00  0.0000000000000D+00
280  2.7900000000000D+00  0.0000000000000D+00  0.0000000000000D+00
281  2.8000000000000D+00  0.0000000000000D+00  0.0000000000000D+00
282  2.8100000000000D+00  0.0000000000000D+00  0.0000000000000D+00
283  2.8200000000000D+00  0.0000000000000D+00  0.0000000000000D+00
284  2.8300000000000D+00  0.0000000000000D+00  0.0000000000000D+00
285  2.8400000000000D+00  0.0000000000000D+00  0.0000000000000D+00
286  2.8500000000000D+00  0.0000000000000D+00  0.0000000000000D+00
287  2.8600000000000D+00  0.0000000000000D+00  0.0000000000000D+00
288  2.8700000000000D+00  0.0000000000000D+00  0.0000000000000D+00
289  2.8800000000000D+00  0.0000000000000D+00  0.0000000000000D+00
290  2.8900000000000D+00  0.0000000000000D+00  0.0000000000000D+00
291  2.9000000000000D+00  0.0000000000000D+00  0.0000000000000D+00
292  2.9100000000000D+00  0.0000000000000D+00  0.0000000000000D+00
293  2.9200000000000D+00  0.0000000000000D+00  0.0000000000000D+00
294  2.9300000000000D+00  0.0000000000000D+00  0.0000000000000D+00
295  2.9400000000000D+00  0.0000000000000D+00  0.0000000000000D+00
296  2.9500000000000D+00  0.0000000000000D+00  0.0000000000000D+00
297  2.9600000000000D+00  0.0000000000000D+00  0.0000000000000D+00
298  2.9700000000000D+00  0.0000000000000D+00  0.0000000000000D+00
299  2.9800000000000D+00  0.0000000000000D+00  0.0000000000000D+00
300  2.9900000000000D+00  0.0000000000000D+00  0.0000000000000D+00
301  3.0000000000000D+00  0.0000000000000D+00  0.0000000000000D+00
302  3.0100000000000D+00  0.0000000000000D+00  0.0000000000000D+00
303  3.0200000000000D+00  0.0000000000000D+00  0.0000000000000D+00
304  3.0300000000000D+00  0.0000000000000D+00  0.0000000000000D+00
305  3.0400000000000D+00  0.0000000000000D+00  0.0000000000000D+00
306  3.0500000000000D+00  0.0000000000000D+00  0.0000000000000D+00
307  3.0600000000000D+00  0.0000000000000D+00  0.0000000000000D+00
308  3.0700000000000D+00  0.0000000000000D+00  0.0000000000000D+00
309  3.0800000000000D+00  0.0000000000000D+00  0.0000000000000D+00
310  3.0900000000000D+00  0.0000000000000D+00  0.0000000000000D+00
311  3.1000000000000D+00  0.0000000000000D+00  0.0000000000000D+00
312  3.1100000000000D+00  0.0000000000000D+00  0.0000000000000D+00
313  3.1200000000000D+00  0.0000000000000D+00  0.0000000000000D+00
314  3.1300000000000D+00  0.0000000000000D+00  0.0000000000000D+00
315  3.1400000000000D+00  0.0000000000000D+00  0.0000000000000D+00
316  3.1500000000000D+00  0.0000000000000D+00  0.0000000000000D+00
317  3.1600000000000D+00  0.0000000000000D+00  0.0000000000000D+00
318  3.1700000000000D+00  0.0000000000000D+00  0.0000000000000D+00
319  3.1800000000000D+00  0.0000000000000D+00  0.0000000000000D+00
320  3.1900000000000D+00  0.0000000000000D+00  0.0000000000000D+00
321  3.2000000000000D+00  0.0000000000000D+00  0.0000000000000D+00
322  3.2100000000000D+00  0.0000000000000D+00  0.0000000000000D+00
323  3.2200000000000D+00  0.0000000000000D+00  0.0000000000000D+00
324  3.2300000000000D+00  0.0000000000000D+00  0.0000000000000D+00
325  3.2400000000000D+00  0.0000000000000D+00  0.0000000000000D+00
326  3.2500000000000D+00  0.0000000000000D+00  0.0000000000000D+00
327  3.2600000000000D+00  0.0000000000000D+00  0.0000000000000D+00
328  3.2700000000000D+00  0.0000000000000D+00  0.0000000000000D+00
329  3.2800000000000D+00  0.0000000000000D+00  0.0000000000000D+00
330  3.2900000000000D+00  0.0000000000000D+00  0.0000000000000D+00
331  3.3000000000000D+00  0.0000000000000D+00  0.0000000000000D+00
332  3.3100000000000D+00  0.0000000000000D+00  0.0000000000000D+00
333  3.3200000000000D+00  0.0000000000000D+00  0.0000000000000D+00
334  3.3300000000000D+00  0.0000000000000D+00  0.0000000000000D+00
335  3.3400000000000D+00  0.0000000000000D+00  0.0000000000000D+00
336  3.3500000000000D+00  0.0000000000000D+00  0.0000000000000D+00
337  3.3600000000000D+00  0.0000000000000D+00  0.0000000000000D+00
338  3.3700000000000D+00  0.0000000000000D+00  0.0000000000000D+00
339  3.3800000000000D+00  0.0000000000000D+00  0.0000000000000D+00
340  3.3900000000000D+00  0.0000000000000D+00  0.0000000000000D+00
341  3.4000000000000D+00  0.0000000000000D+00  0.0000000000000D+00
342  3.4100000000000D+00  0.0000000000000D+00  0.0000000000000D+00
343  3.4200000000000D+00  0.0000000000000D+00  0.0000000000000D+00
344  3.4300000000000D+00  0.0000000000000D+00  0.0000000000000D+00
345  3.4400000000000D+00  0.0000000000000D+00  0.0000000000000D+00
346  3.4500000000000D+00  0.0000000000000D+00  0.0000000000000D+00
347  3.4600000000000D+00  0.0000000000000D+00  0.0000000000000D+00
348  3.4700000000000D+00  0.0000000000000D+00  0.0000000000000D+00
349  3.4800000000000D+00  0.0000000000000D+00  0.0000000000000D+00
350  3.4900000000000D+00  0.0000000000000D+00  0.0000000000000D+00
351  3.5000000000000D+00  0.0000000000000D+00  0.0000000000000D+00
352  3.5100000000000D+00  0.0000000000000D+00  0.0000000000000D+00
353  3.5200000000000D+00  0.0000000000000D+00  0.0000000000000D+00
354  3.5300000000000D+00  0.0000000000000D+00  0.0000000000000D+00
355  3.5400000000000D+00  0.0000000000000D+00  0.0000000000000D+00
356  3.5500000000000D+00  0.0000000000000D+00  0.0000000000000D+00
357  3.5600000000000D+00  0.0000000000000D+00  0.0000000000000D+00
358  3.5700000000000D+00  0.0000000000000D+00  0.0000000000000D+00
359  3.5800000000000D+00  0.0000000000000D+00  0.0000000000000D+00
360  3.5900000000000D+00  0.0000000000000D+00  0.0000000000000D+00
361  3.6000000000000D+00  0.0000000000000D+00  0.0000000000000D+00
362  3.6100000000000D+00  0.0000000000000D+00  0.0000000000000D+00
363  3.6200000000000D+00  0.0000000000000D+00  0.0000000000000D+00
364  3.6300000000000D+00  0.0000000000000D+00  0.0000000000000D+00
365  3.6400000000000D+00  0.0000000000000D+00  0.0000000000000D+00
366  3.6500000000000D+00  0.0000000000000D+00  0.0000000000000D+00
367  3.6600000000000D+00  0.0000000000000D+00  0.0000000000000D+00
368  3.6700000000000D+00  0.0000000000000D+00  0.0000000000000D+00
369  3.6800000000000D+00  0.0000000000000D+00  0.0000000000000D+00
370  3.6900000000000D+00  0.0000000000000D+00  0.0000000000000D+00
371  3.7000000000000D+00  0.0000000000000D+00  0.0000000000000D+00
372  3.7100000000000D+00  0.0000000000000D+00  0.0000000000000D+00
373  3.7200000000000D+00  0.0000000000000D+00  0.0000000000000D+00
374  3.7300000000000D+00  0.0000000000000D+00  0.0000000000000D+00
375  3.7400000000000D+00  0.0000000000000D+00  0.0000000000000D+00
376  3.7500000000000D+00  0.0000000000000D+00  0.0000000000000D+00
377  3.7600000000000D+00  0.0000000000000D+00  0.0000000000000D+00
378  3.7700000000000D+00  0.0000000000000D+00  0.0000000000000D+00
379  3.7800000000000D+00  0.0000000000000D+00  0.0000000000000D+00
380  3.7900000000000D+00  0.0000000000000D+00  0.0000000000000D+00
381  3.8000000000000D+00  0.0000000000000D+00  0.0000000000000D+00
382  3.8100000000000D+00  0.0000000000000D+00  0.0000000000000D+00
383  3.8200000000000D+00  0.0000000000000D+00  0.0000000000000D+00
384  3.8300000000000D+00  0.0000000000000D+00  0.0000000000000D+00
385  3.8400000000000D+00  0.0000000000000D+00  0.0000000000000D+00
386  3.8500000000000D+00  0.0000000000000D+00  0.0000000000000D+00
387  3.8600000000000D+00  0.0000000000000D+00  0.0000000000000D+00
388  3.8700000000000D+00  0.0000000000000D+00  0.0000000000000D+00
389  3.8800000000000D+00  0.0000000000000D+00  0.0000000000000D+00
390  3.8900000000000D+00  0.0000000000000D+00  0.0000000000000D+00
391  3.9000000000000D+00  0.0000000000000D+00  0.0000000000000D+00
392  3.9100000000000D+00  0.0000000000000D+00  0.0000000000000D+00
393  3.9200000000000D+00  0.0000000000000D+00  0.0000000000000D+00
394  3.9300000000000D+00  0.0000000000000D+00  0.0000000000000D+00
395  3.9400000000000D+00  0.0000000000000D+00  0.0000000000000D+00
396  3.9500000000000D+00  0.0000000000000D+00  0.0000000000000D+00
397  3.9600000000000D+00  0.0000000000000D+00  0.0000000000000D+00
398  3.9700000000000D+00  0.0000000000000D+00  0.0000000000000D+00
399  3.9800000000000D+00  0.0000000000000D+00  0.0000000000000D+00
400  3.9900000000000D+00  0.0000000000000D+00  0.0000000000000D+00
1                        -2.2192559491126D+00 -5.7691417196111D-01
1  0.0000000000000D+00  2.6175530842831D-07 -5.0233718723591D-07
2  1.0000000000000D-02  5.9553586297261D-03 -5.6128426614170D-03
3  2.0000000000000D-02  2.3674416382973D-02 -2.2205934464945D-02
4  3.0000000000000D-02  5.2721125266882D-02 -4.9052348699171D-02
5  4.0000000000000D-02  9.2385246787751D-02 -8.4971466651245D-02
6  5.0000000000000D-02  1.4170649098527D-01 -1.2837416446757D-01
7  6.0000000000000D-02  1.9950708749373D-01 -1.7732371569445D-01
8  7.0000000000000D-02  2.6443161749217D-01 -2.2961015296672D-01
9  8.0000000000000D-02  3.3499267365021D-01 -2.8283532997498D-01
10  9.0000000000000D-02  4.0962070451821D-01 -3.3450552229867D-01
11  1.0000000000000D-01  4.8671624781569D-01 -3.8212811764427D-01
12  1.1000000000000D-01  5.6470266924921D-01 -4.2330878311751D-01
13  1.2000000000000D-01  6.4207750307812D-01 -4.5584546556174D-01
14  1.3000000000000D-01  7.1746053852266D-01 -4.7781568222856D-01
15  1.4000000000000D-01  7.8963691071993D-01 -4.8765378986418D-01
16  1.5000000000000D-01  8.5759363238441D-01 -4.8421527283002D-01
17  1.6000000000000D-01  9.2054823648480D-01 -4.6682555288353D-01
18  1.7000000000000D-01  9.7796848295372D-01 -4.3531137852814D-01
19  1.8000000000000D-01  1.0295824038154D+00 -3.9001348082628D-01
20  1.9000000000000D-01  1.0753783098647D+00 -3.3177986297279D-01
21  2.0000000000000D-01  1.1155947458632D+00 -2.6193979853182D-01
22  2.1000000000000D-01  1.1507007472781D+00 -1.8225932277738D-01
23  2.2000000000000D-01  1.1813671068799D+00 -9.4879687561706D-02
24  2.3000000000000D-01  1.2084296913724D+00 -2.2408878249632D-03
25  2.4000000000000D-01  1.2328461447640D+00  9.3007065919873D-02
26  2.5000000000000D-01  1.2556475656935D+00  1.8810198078235D-01
27  2.6000000000000D-01  1.2778869412792D+00  2.8027290781197D-01
28  2.7000000000000D-01  1.3005862530134D+00  3.6684540825567D-01
29  2.8000000000000D-01  1.3246842357126D+00  4.4534479902089D-01
30  2.9000000000000D-01  1.3509867658099D+00  5.1359354696583D-01
31  3.0000000000000D-01  1.3801217800504D+00  5.6979914987477D-01
32  3.1000000000000D-01  1.4125004821081D+00  6.1262914319168D-01
33  3.2000000000000D-01  1.4482863873720D+00  6.4127029613943D-01
34  3.3000000000000D-01  1.4873734919715D+00  6.5546959469500D-01
35  3.4000000000000D-01  1.5293745399239D+00  6.5555523398704D-01
36  3.5000000000000D-01  1.5736200126684D+00  6.4243653769157D-01
37  3.6000000000000D-01  1.6191680901678D+00  6.1758246293740D-01
38  3.7000000000000D-01  1.6648254451671D+00  5.8297911029237D-01
39  3.8000000000000D-01  1.7091783455017D+00  5.4106741296522D-01
40  3.9000000000000D-01  1.7506331670733D+00  4.9466290072924D-01
41  4.0000000000000D-01  1.7874650753417D+00  4.4686009654860D-01
42  4.1000000000000D-01  1.8178733280884D+00  4.0092468371029D-01
43  4.2000000000000D-01  1.8400413977491D+00  3.6017705722285D-01